Title
19927
    1ASP      N    1   1.805   4.803   0.370  0.1061  0.1004 -0.6011
    1ASP    HT1    2   1.781   4.710   0.408 -0.1490  1.4447  2.8756
    1ASP    HT2    3   1.891   4.838   0.416 -0.1931  1.9147 -1.3262
    1ASP    HT3    4   1.830   4.806   0.269  1.5752 -0.6124 -0.2802
    1ASP     CA    5   1.692   4.894   0.409  0.5869  0.0707  0.2783
    1ASP     HA    6   1.608   4.838   0.371 -2.5605  2.1391  3.5150
    1ASP     CB    7   1.685   4.911   0.568  0.4634  0.0166 -0.2738
    1ASP    HB1    8   1.596   4.969   0.600  0.1606 -0.6517  0.1230
    1ASP    HB2    9   1.770   4.969   0.609 -0.0262  0.4821  0.0905
    1ASP     CG   10   1.679   4.789   0.649  0.0684  0.7184 -0.0875
    1ASP    OD1   11   1.649   4.684   0.582  0.3165  0.3481 -0.3628
    1ASP    OD2   12   1.704   4.790   0.769 -0.0770 -0.0533  0.1259
    1ASP      C   13   1.695   5.025   0.331 -0.1339  0.4738 -0.6587
    1ASP      O   14   1.769   5.039   0.234  0.0252 -0.1052 -0.2297
    2ALA      N   15   1.618   5.124   0.378 -0.4322  0.0688  0.6783
    2ALA     HN   16   1.537   5.103   0.433 -1.9565 -0.2861 -1.6011
    2ALA     CA   17   1.610   5.258   0.320 -0.7357 -0.2687 -0.4730
    2ALA     HA   18   1.677   5.265   0.235 -0.4753 -0.0054 -0.2480
    2ALA     CB   19   1.467   5.292   0.278 -0.8386  0.3226  0.1416
    2ALA    HB1   20   1.410   5.314   0.371  0.5828  1.3062  0.8184
    2ALA    HB2   21   1.412   5.215   0.220 -1.2219  0.2877  0.5396
    2ALA    HB3   22   1.472   5.379   0.208  0.2170  0.3249  0.2087
    2ALA      C   23   1.674   5.366   0.414  0.6449 -0.5567 -0.2226
    2ALA      O   24   1.706   5.334   0.532  1.1705 -0.2885 -0.4640
    3ASP      N   25   1.709   5.492   0.355  0.0544  0.1771 -0.9031
    3ASP     HN   26   1.707   5.517   0.259  0.3784 -1.5618 -1.4074
    3ASP     CA   27   1.778   5.600   0.434  0.0724  0.3886  0.0414
    3ASP     HA   28   1.881   5.571   0.449 -0.3714 -1.3533 -0.0770
    3ASP     CB   29   1.776   5.730   0.358 -0.5359  0.9458  0.7807
    3ASP    HB1   30   1.816   5.818   0.412  1.0434  0.7131  0.0588
    3ASP    HB2   31   1.676   5.741   0.313 -0.6807 -1.3399  0.4267
    3ASP     CG   32   1.873   5.713   0.239  0.5300  0.5239  0.1738
    3ASP    OD1   33   1.880   5.809   0.157  0.6447  0.3985  0.5875
    3ASP    OD2   34   1.936   5.606   0.224  0.3229  0.1027 -0.3196
    3ASP      C   35   1.729   5.630   0.581  0.4912  0.0647  0.4258
    3ASP      O   36   1.605   5.643   0.603 -0.0571  0.1295  0.0136
    4GLY      N   37   1.827   5.636   0.674  0.0919 -0.4883 -0.6802
    4GLY     HN   38   1.922   5.613   0.655  1.1587  1.5112  1.6622
    4GLY     CA   39   1.799   5.663   0.819  1.3271  0.4266  0.3500
    4GLY    HA1   40   1.884   5.657   0.886  1.8274  2.7004  0.0155
    4GLY    HA2   41   1.720   5.596   0.849  1.7400 -0.1919  0.0853
    4GLY      C   42   1.741   5.804   0.849 -0.1398  0.2619  0.6345
    4GLY      O   43   1.732   5.885   0.757 -0.4181  0.6729  0.2155
    5PRO      N   44   1.718   5.839   0.971 -0.5706  0.1917 -0.0571
    5PRO     CD   45   1.736   5.741   1.079 -0.5430  0.2421 -0.4894
    5PRO    HD1   46   1.842   5.721   1.104 -0.4870 -0.1007 -0.9870
    5PRO    HD2   47   1.673   5.650   1.069 -1.7788  1.1023 -0.8530
    5PRO     CA   48   1.685   5.972   1.019  0.5107 -0.0334 -0.0189
    5PRO     HA   49   1.584   5.985   0.984  1.1434  0.9164 -1.6125
    5PRO     CB   50   1.703   5.956   1.173  0.0937  0.4172  0.3917
    5PRO    HB1   51   1.625   6.021   1.216  0.5080  0.2898  1.3649
    5PRO    HB2   52   1.803   5.996   1.201  0.0335  1.9537 -1.4062
    5PRO     CG   53   1.692   5.814   1.211 -0.8560 -0.0813  0.2183
    5PRO    HG1   54   1.745   5.785   1.304 -0.6355  0.9933  0.4444
    5PRO    HG2   55   1.584   5.794   1.231 -1.0219 -0.9609 -1.3939
    5PRO      C   56   1.771   6.090   0.962  0.2584  0.3367  0.5688
    5PRO      O   57   1.892   6.093   0.968  0.4413 -0.4103 -0.3023
    6GLY      N   58   1.691   6.175   0.899 -0.3910 -0.0308 -0.4500
    6GLY     HN   59   1.594   6.159   0.886 -0.2454  0.6245 -2.8438
    6GLY     CA   60   1.727   6.302   0.833 -0.2435  0.0168 -0.3605
    6GLY    HA1   61   1.630   6.333   0.796 -0.4653 -1.2262 -0.8709
    6GLY    HA2   62   1.781   6.279   0.743 -0.0987 -0.5578 -0.1354
    6GLY      C   63   1.792   6.403   0.929  0.2788 -0.3585 -0.5374
    6GLY      O   64   1.829   6.369   1.043 -0.1999  0.8518 -0.1489
    7ASP      N   65   1.793   6.533   0.883 -0.0249  0.4553 -0.1208
    7ASP     HN   66   1.785   6.558   0.787  0.1866 -0.7946 -0.4802
    7ASP     CA   67   1.858   6.633   0.968  0.3315 -0.6670  0.0443
    7ASP     HA   68   1.963   6.608   0.980  0.0781 -1.3143  1.0680
    7ASP     CB   69   1.834   6.765   0.894 -0.2451  0.0196  0.0043
    7ASP    HB1   70   1.882   6.848   0.949  1.3535  0.0413 -1.3566
    7ASP    HB2   71   1.726   6.784   0.877 -0.5669 -0.6384  1.1614
    7ASP     CG   72   1.906   6.762   0.763  0.6544 -0.0634 -0.3534
    7ASP    OD1   73   1.850   6.816   0.662  0.4672 -0.2260  0.2844
    7ASP    OD2   74   2.013   6.702   0.758 -0.2933 -0.0090 -0.5605
    7ASP      C   75   1.799   6.653   1.110  0.0801 -0.3386  0.1604
    7ASP      O   76   1.674   6.665   1.130 -0.6085 -0.1920 -0.1899
    8PRO      N   77   1.878   6.661   1.213 -0.1021  0.7602  0.1822
    8PRO     CD   78   2.015   6.602   1.219 -0.1670  0.1704 -0.4166
    8PRO    HD1   79   2.087   6.680   1.188 -2.2129  1.9810 -0.8276
    8PRO    HD2   80   2.030   6.511   1.156 -0.2452 -1.6941  2.1073
    8PRO     CA   81   1.842   6.708   1.346  0.5976 -0.2938 -0.3037
    8PRO     HA   82   1.752   6.656   1.374  1.1266  0.0978  2.3085
    8PRO     CB   83   1.958   6.668   1.445 -0.0752 -0.2392  0.2693
    8PRO    HB1   84   1.920   6.627   1.541  1.2578  2.1182  1.8996
    8PRO    HB2   85   2.034   6.745   1.466 -0.7608 -0.0496  2.2388
    8PRO     CG   86   2.033   6.561   1.366 -0.5754  0.3360  0.7427
    8PRO    HG1   87   2.139   6.546   1.397  0.2590  0.0903 -1.9261
    8PRO    HG2   88   1.981   6.465   1.385  1.7766 -1.0190  0.7180
    8PRO      C   89   1.804   6.856   1.350  0.4499  0.3636 -0.4501
    8PRO      O   90   1.865   6.940   1.287  0.9745  0.3285 -0.0531
    9ASP      N   91   1.704   6.879   1.437 -0.4262  0.5683  0.8181
    9ASP     HN   92   1.679   6.802   1.496 -0.5860  0.5912  0.7798
    9ASP     CA   93   1.656   7.000   1.486  0.8578 -0.1146 -0.1242
    9ASP     HA   94   1.624   7.057   1.400  0.6300 -1.2521 -0.8135
    9ASP     CB   95   1.539   6.965   1.589 -0.7255 -0.3800 -0.6476
    9ASP    HB1   96   1.590   6.931   1.682 -0.7356 -1.7336 -1.1219
    9ASP    HB2   97   1.488   6.875   1.549  0.5958 -2.0314  1.1622
    9ASP     CG   98   1.445   7.080   1.622 -0.3803 -0.0190  0.7717
    9ASP    OD1   99   1.427   7.172   1.542 -0.1739 -0.4201 -1.4496
    9ASP    OD2  100   1.378   7.068   1.725  0.8766 -0.0860 -0.0255
    9ASP      C  101   1.764   7.088   1.555 -0.6695  0.5710 -0.0788
    9ASP      O  102   1.858   7.038   1.612 -0.3530 -0.2369  0.1963
   10ALA      N  103   1.742   7.219   1.557  0.1309  0.2244 -0.1842
   10ALA     HN  104   1.659   7.263   1.523  0.2159  1.2474  0.8858
   10ALA     CA  105   1.828   7.300   1.631 -0.7386 -0.5138  0.8954
   10ALA     HA  106   1.889   7.244   1.700 -0.7507 -2.0552 -0.2827
   10ALA     CB  107   1.909   7.373   1.527  0.0870 -0.6298  0.0596
   10ALA    HB1  108   1.852   7.386   1.432  1.4805 -0.2741 -0.7542
   10ALA    HB2  109   1.998   7.310   1.505 -1.7768 -3.4983  0.1385
   10ALA    HB3  110   1.946   7.470   1.567 -0.5694 -0.1023 -0.5755
   10ALA      C  111   1.747   7.402   1.713 -0.3253  0.1607 -0.0326
   10ALA      O  112   1.633   7.442   1.674 -0.1705  0.5037 -0.2211
   11GLY      N  113   1.798   7.439   1.831  0.4249  0.5260 -0.1480
   11GLY     HN  114   1.890   7.423   1.865  0.9376  1.3027 -1.1003
   11GLY     CA  115   1.717   7.528   1.921  0.3387  0.0747  0.0318
   11GLY    HA1  116   1.758   7.529   2.021 -1.4837  0.5064  0.8310
   11GLY    HA2  117   1.615   7.492   1.929  0.0316  0.9220  0.0185
   11GLY      C  118   1.685   7.672   1.871 -0.2739  0.1102 -0.1048
   11GLY    OT1  119   1.593   7.731   1.928  0.2831  0.4451 -0.2743
   11GLY    OT2  120   1.754   7.723   1.781 -0.3426 -0.0339  0.6715
   12SOD    SOD  121   1.095   3.048   3.540 -0.1668 -0.1950  0.0127
   13SOD    SOD  122   2.013   1.728   2.761 -0.1515  0.0986 -0.2053
   14SOD    SOD  123   2.940   0.249   2.542 -0.1340 -0.1194  0.1921
   15SOD    SOD  124   2.661   2.164   2.398 -0.5263  0.4229 -0.0294
   16SOD    SOD  125   5.742   2.280   2.905 -0.1554 -0.1535 -0.3803
   17SOD    SOD  126   5.182   2.786   1.455 -0.3327  0.1605 -0.0567
   18SOD    SOD  127   1.873   2.171   3.203  0.3786 -0.2211  0.3128
   19SOD    SOD  128   1.801   4.160   3.758 -0.0117 -0.5329 -0.1918
   20SOD    SOD  129   0.855   1.681   1.046  0.3091 -0.1289 -0.3283
   21SOD    SOD  130   4.452   4.422   1.048 -0.2645  0.3549  0.1156
   22SOD    SOD  131   3.046   3.444   2.115  0.1405  0.3402  0.0330
   23SOD    SOD  132   0.777   4.457   1.692 -0.2465 -0.3734 -0.4732
   24SOD    SOD  133   2.613   0.499   0.568 -0.4599  0.1508  0.0384
   25SOD    SOD  134   1.353   2.705   0.880 -0.1407  0.4780  0.6329
   26SOD    SOD  135   0.839   3.036   4.723  0.2205 -0.5113 -0.0887
   27SOD    SOD  136   4.087   2.006   1.965 -0.5367  0.0435 -1.0487
   28SOD    SOD  137   2.427   1.188   0.150 -0.0341 -0.2271 -0.1551
   29SOD    SOD  138   1.948   3.237   0.188  0.2497 -0.1281  0.0499
   30SOD    SOD  139   1.926   2.644   3.930  0.3808 -0.0177  0.1848
   31SOD    SOD  140   1.270   3.921   0.132 -0.2787  0.1207 -0.0480
   32SOD    SOD  141   0.355   3.244   0.286  0.2902  0.2955 -0.2645
   33SOD    SOD  142   3.638   4.785   0.687  0.1088 -0.1296 -0.2035
   34CLA    CLA  143   2.688   5.531   3.231 -0.0169 -0.2392 -0.3415
   35CLA    CLA  144   3.891   3.419   1.160 -0.1485 -0.0542 -0.3200
   36CLA    CLA  145   4.375   3.752   3.016  0.1271 -0.1822 -0.3050
   37CLA    CLA  146   3.741   4.396   4.782 -0.0520  0.0497  0.0108
   38CLA    CLA  147   2.318   1.680   2.434  0.3852  0.2333  0.4634
   39CLA    CLA  148   0.430   1.916   2.238 -0.3341  0.2200 -0.0895
   40CLA    CLA  149   5.047   4.767   0.216  0.3029 -0.1593 -0.2954
   41CLA    CLA  150   0.880   0.703   4.902  0.1164 -0.1419  0.1382
   42CLA    CLA  151   1.643   4.957   4.832 -0.0594  0.1840 -0.5242
   43CLA    CLA  152   5.461   1.591   1.608 -0.2609 -0.4861 -0.0871
   44CLA    CLA  153   1.161   3.333   3.091 -0.2006  0.2972  0.1090
   45CLA    CLA  154   2.108   3.776   1.815 -0.2542 -0.2006 -0.6552
   46CLA    CLA  155   1.033   1.249   4.515 -0.2444 -0.1964 -0.0324
   47CLA    CLA  156   3.768   1.242   0.218 -0.0133  0.0309 -0.2693
   48CLA    CLA  157   5.169   2.339   3.676  0.0610 -0.2373 -0.1758
   49CLA    CLA  158   0.123   3.571   0.770 -0.0599  0.2767  0.0605
   50CLA    CLA  159   2.976   4.905   2.752 -0.2945  0.2473 -0.3349
   51CLA    CLA  160   2.002   1.715   3.027 -0.1421 -0.2299  0.1158
   52TIP3   OH2  161   3.325   1.495   4.572 -0.1729 -0.2408 -0.0681
   52TIP3    H1  162   3.407   1.489   4.522  0.0775  1.3432  0.0914
   52TIP3    H2  163   3.298   1.586   4.561 -2.1395 -0.8313 -0.4196
   53TIP3   OH2  164   1.188   4.343   1.749  0.0590 -0.5282  0.4511
   53TIP3    H1  165   1.183   4.283   1.823 -1.0088 -0.2249  0.6481
   53TIP3    H2  166   1.273   4.387   1.758 -0.2841 -0.1128  1.7947
   54TIP3   OH2  167   5.939   0.571   4.264  0.1957 -0.1214 -0.3990
   54TIP3    H1  168   5.872   0.545   4.201  0.0139  0.4949 -0.4662
   54TIP3    H2  169   6.015   0.592   4.210 -0.2135  1.2145 -0.5028
   55TIP3   OH2  170   2.647   0.891   4.524  0.0984 -0.3487  0.4374
   55TIP3    H1  171   2.730   0.921   4.486 -0.7013 -1.6563 -2.6730
   55TIP3    H2  172   2.585   0.961   4.502 -0.7968 -1.9673 -2.7465
   56TIP3   OH2  173   5.958   0.721   2.809 -0.0045  0.3147  0.2574
   56TIP3    H1  174   5.938   0.629   2.790  1.3620 -0.3409  1.7167
   56TIP3    H2  175   5.876   0.757   2.842 -0.5980 -0.3391 -0.4572
   57TIP3   OH2  176   1.324   5.483   3.025 -0.0969  0.1192  0.0262
   57TIP3    H1  177   1.415   5.510   3.039  0.2838  0.6147 -2.8435
   57TIP3    H2  178   1.331   5.394   2.990 -0.8356 -0.3682  1.0608
   58TIP3   OH2  179   3.795   4.921   0.241  0.1243 -0.3906 -0.0447
   58TIP3    H1  180   3.805   5.011   0.209  2.1778  1.0995  4.0416
   58TIP3    H2  181   3.863   4.872   0.195  0.5775  0.7225 -0.6000
   59TIP3   OH2  182   4.136   1.168   2.283  0.4214  0.4758  0.1261
   59TIP3    H1  183   4.050   1.179   2.324  0.5419 -0.2904  0.6121
   59TIP3    H2  184   4.126   1.091   2.227  0.6573  0.6840 -0.2087
   60TIP3   OH2  185   1.375   5.803   3.106 -0.1287  0.5503  0.3961
   60TIP3    H1  186   1.412   5.774   3.190 -1.7009 -0.1395  0.8968
   60TIP3    H2  187   1.395   5.732   3.046 -0.2206  0.3956  0.5460
   61TIP3   OH2  188   2.395   1.204   1.346 -0.1093  0.8918  0.0826
   61TIP3    H1  189   2.387   1.121   1.298  2.5491  1.1829 -0.9819
   61TIP3    H2  190   2.354   1.269   1.289 -2.3263  0.3705  0.9796
   62TIP3   OH2  191   0.440   5.943   4.067  0.5947 -0.1408 -0.1917
   62TIP3    H1  192   0.367   5.955   4.127  0.6041  0.7389 -0.3428
   62TIP3    H2  193   0.512   5.994   4.105  0.4209  0.9369 -1.2259
   63TIP3   OH2  194   6.120   2.797   4.735  0.2333  0.3058  0.1372
   63TIP3    H1  195   6.071   2.865   4.689 -0.0651 -1.0401 -1.6613
   63TIP3    H2  196   6.056   2.726   4.748  1.5146 -1.3674 -1.9879
   64TIP3   OH2  197   0.601   2.727   1.063  0.0085  0.4008  0.0825
   64TIP3    H1  198   0.695   2.727   1.080 -0.3202 -1.9171  2.4918
   64TIP3    H2  199   0.581   2.818   1.038  2.8927  0.8551 -0.9086
   65TIP3   OH2  200   5.855   0.319   0.143  0.0717 -0.6906 -0.1566
   65TIP3    H1  201   5.886   0.236   0.108 -0.3058 -0.5389 -0.8738
   65TIP3    H2  202   5.760   0.308   0.151 -0.4151  0.6145 -3.0176
   66TIP3   OH2  203   1.746   3.421   2.884  0.0381  0.0164  0.2080
   66TIP3    H1  204   1.744   3.390   2.794 -1.6792  0.1873  0.1678
   66TIP3    H2  205   1.656   3.443   2.905  0.1970 -0.9919  2.3162
   67TIP3   OH2  206   0.115   1.909   0.779  0.0560 -0.1661  0.5350
   67TIP3    H1  207   0.096   1.990   0.827 -1.1236 -0.2190  0.1757
   67TIP3    H2  208   0.079   1.924   0.692  0.5383 -0.7830  0.2250
   68TIP3   OH2  209   0.932   4.223   2.882  0.3010  0.1495 -0.5262
   68TIP3    H1  210   0.985   4.204   2.805  1.2893  0.4269  0.0659
   68TIP3    H2  211   0.904   4.137   2.914  0.2292  0.0133 -0.9499
   69TIP3   OH2  212   4.026   3.795   3.891  0.2765  0.1583  0.4475
   69TIP3    H1  213   4.094   3.774   3.954  0.3578 -0.0568  0.2921
   69TIP3    H2  214   3.953   3.828   3.943  0.3957  0.1192  0.6386
   70TIP3   OH2  215   4.061   5.309   1.743 -0.8645  0.1539 -0.6546
   70TIP3    H1  216   4.116   5.371   1.791 -0.1657 -1.1444  0.3048
   70TIP3    H2  217   3.987   5.360   1.713 -0.0901  1.5386 -0.2887
   71TIP3   OH2  218   1.022   3.578   0.051  0.0904  0.4679  0.2895
   71TIP3    H1  219   0.985   3.659   0.015 -0.1463  0.6299  0.8837
   71TIP3    H2  220   0.953   3.543   0.107  0.1934 -0.1475  0.0383
   72TIP3   OH2  221   4.846   2.583   0.857  0.4814  0.3257  0.0825
   72TIP3    H1  222   4.759   2.546   0.841  1.1308 -1.1978 -0.0034
   72TIP3    H2  223   4.845   2.666   0.809 -0.6761 -0.0113 -0.5158
   73TIP3   OH2  224   3.425   4.542   3.791 -0.3865 -0.0811 -0.6115
   73TIP3    H1  225   3.494   4.571   3.851  0.5708 -1.1374 -1.1621
   73TIP3    H2  226   3.369   4.485   3.844  0.5480 -1.1431 -0.7397
   74TIP3   OH2  227   1.727   3.683   4.623  0.3487  0.1055  0.3035
   74TIP3    H1  228   1.768   3.652   4.704 -1.6847 -2.0218  0.6608
   74TIP3    H2  229   1.756   3.621   4.556  0.7312  0.8734 -0.2523
   75TIP3   OH2  230   0.946   3.211   2.911  0.4387  0.3537 -0.2425
   75TIP3    H1  231   0.863   3.238   2.951  0.3200  0.9397 -0.8776
   75TIP3    H2  232   1.013   3.251   2.967  0.4931 -3.0429  2.5152
   76TIP3   OH2  233   3.210   1.204   2.125  0.1134 -0.5057  0.0258
   76TIP3    H1  234   3.234   1.295   2.107  0.6032 -0.2291  1.8696
   76TIP3    H2  235   3.147   1.182   2.056 -1.1176  1.7047  0.3443
   77TIP3   OH2  236   4.052   5.792   4.430  0.2740  0.1562 -0.0828
   77TIP3    H1  237   3.991   5.810   4.502  0.5358  0.1624  0.1387
   77TIP3    H2  238   4.043   5.869   4.373  0.2611  0.2751  0.0774
   78TIP3   OH2  239   4.218   5.069   1.286 -0.1882  0.8438 -0.3282
   78TIP3    H1  240   4.281   5.140   1.295 -0.5262  0.9328  1.8670
   78TIP3    H2  241   4.150   5.088   1.351 -0.1065 -1.6433  0.5838
   79TIP3   OH2  242   4.024   5.494   4.020 -0.4604  0.3197  0.3506
   79TIP3    H1  243   4.059   5.483   3.931 -0.1386 -0.0140  0.5159
   79TIP3    H2  244   4.021   5.405   4.056 -1.4004  0.3495  0.3759
   80TIP3   OH2  245   4.388   4.334   2.934  0.8568  0.1756  0.0631
   80TIP3    H1  246   4.476   4.368   2.951  0.1864  1.4417  1.1931
   80TIP3    H2  247   4.385   4.250   2.980  1.5216  0.0403 -0.1341
   81TIP3   OH2  248   0.821   0.713   3.659 -0.2939  0.2078  0.7963
   81TIP3    H1  249   0.844   0.632   3.705  0.5989  0.0673  0.1203
   81TIP3    H2  250   0.794   0.684   3.572  1.7731  0.7165 -0.0864
   82TIP3   OH2  251   2.879   4.189   0.845 -0.1152 -0.1299 -0.0158
   82TIP3    H1  252   2.962   4.183   0.797  0.1453  1.5869  0.1494
   82TIP3    H2  253   2.872   4.281   0.869 -1.1768 -0.5817  1.5852
   83TIP3   OH2  254   1.681   1.905   0.773  0.0560 -0.2834 -0.2379
   83TIP3    H1  255   1.653   1.830   0.824  0.8496 -0.9632 -0.7686
   83TIP3    H2  256   1.766   1.930   0.811 -0.2456  0.4021 -0.0046
   84TIP3   OH2  257   0.274   1.123   1.639 -0.1343 -0.3513  0.5310
   84TIP3    H1  258   0.365   1.150   1.651  0.0823 -0.8549  0.0959
   84TIP3    H2  259   0.224   1.178   1.699  0.0879  2.0397 -1.2977
   85TIP3   OH2  260   4.955   2.328   0.884 -0.0876 -0.3599 -0.1232
   85TIP3    H1  261   4.894   2.292   0.819  0.7543 -0.9248 -0.6274
   85TIP3    H2  262   4.926   2.418   0.896 -0.9401 -0.5784 -0.4516
   86TIP3   OH2  263   1.980   1.038   4.475 -0.4958  0.0944 -0.4970
   86TIP3    H1  264   1.915   1.100   4.441  1.1668  1.8905 -0.5886
   86TIP3    H2  265   1.953   1.021   4.565 -0.5654  1.5908 -0.2188
   87TIP3   OH2  266   2.138   1.908   4.567 -0.0274 -0.2345  0.4159
   87TIP3    H1  267   2.189   1.928   4.489  0.6902  2.4947  1.4649
   87TIP3    H2  268   2.194   1.936   4.640 -2.5198  1.9609  1.6609
   88TIP3   OH2  269   3.253   2.036   0.320  0.4551 -0.3409  0.2833
   88TIP3    H1  270   3.243   1.954   0.367  0.9815 -0.7933 -0.3860
   88TIP3    H2  271   3.175   2.087   0.343 -0.4396 -1.4675 -0.1858
   89TIP3   OH2  272   2.219   2.901   2.506  0.1012  0.4868  0.2534
   89TIP3    H1  273   2.273   2.848   2.447  0.5562 -1.7642  2.5325
   89TIP3    H2  274   2.132   2.899   2.466  0.8905  1.3289 -1.6876
   90TIP3   OH2  275   3.829   1.605   3.623 -0.0884  0.1317 -0.5776
   90TIP3    H1  276   3.891   1.578   3.555  0.3482 -1.2933  0.3561
   90TIP3    H2  277   3.884   1.638   3.694 -0.4328 -0.2194 -0.1424
   91TIP3   OH2  278   2.135   2.253   0.813  0.3950  0.4113 -0.4139
   91TIP3    H1  279   2.181   2.337   0.806  2.4685 -0.6681 -0.4672
   91TIP3    H2  280   2.152   2.224   0.903 -0.7518  0.2636 -0.2319
   92TIP3   OH2  281   3.200   2.494   3.146  0.4005 -0.2090 -0.0673
   92TIP3    H1  282   3.183   2.414   3.197  1.6575  0.1797  1.0297
   92TIP3    H2  283   3.262   2.466   3.079 -0.0730 -0.3962 -0.4321
   93TIP3   OH2  284   6.350   3.863   5.149 -0.1246  0.9828 -0.2550
   93TIP3    H1  285   6.343   3.903   5.062 -0.0446  0.7824 -0.3568
   93TIP3    H2  286   6.260   3.854   5.179 -0.1355  1.3495 -0.1797
   94TIP3   OH2  287   1.016   1.191   1.882  0.0308  0.2794  0.0056
   94TIP3    H1  288   0.988   1.260   1.942  1.6482  0.1489  0.9535
   94TIP3    H2  289   1.110   1.181   1.897 -0.1707 -2.2878  0.0662
   95TIP3   OH2  290   0.263   4.244   4.875 -0.2594 -0.3419  0.7837
   95TIP3    H1  291   0.188   4.262   4.819  0.5293  0.6590  0.0231
   95TIP3    H2  292   0.264   4.316   4.938  1.6463  1.2501 -0.9352
   96TIP3   OH2  293   2.763   2.334   0.603  0.1922  0.3675 -0.1648
   96TIP3    H1  294   2.833   2.309   0.664 -0.8012  0.5689  1.1029
   96TIP3    H2  295   2.762   2.429   0.605  0.1462  0.3765 -0.5040
   97TIP3   OH2  296   2.126   0.835   3.052  0.0944  0.0326 -0.0568
   97TIP3    H1  297   2.051   0.886   3.082  0.7857  1.0448 -0.0058
   97TIP3    H2  298   2.096   0.794   2.970  0.6016  3.4186 -2.1124
   98TIP3   OH2  299   1.746   1.357   2.270  0.4347  0.0576 -0.3094
   98TIP3    H1  300   1.653   1.338   2.258  0.1933  0.5118  0.7608
   98TIP3    H2  301   1.790   1.299   2.208 -0.4867 -1.1952  0.1550
   99TIP3   OH2  302   6.206   1.324   0.455 -0.1063  0.0215 -0.2390
   99TIP3    H1  303   6.250   1.241   0.470 -1.0806 -0.4581  0.0003
   99TIP3    H2  304   6.121   1.315   0.497 -0.1143  1.2564  0.0769
  100TIP3   OH2  305   5.420   1.680   1.025  0.4607 -0.0436  0.2551
  100TIP3    H1  306   5.399   1.704   1.115  0.5870 -0.5242  0.4200
  100TIP3    H2  307   5.336   1.661   0.984  0.4765 -0.9909  0.6246
  101TIP3   OH2  308   4.600   3.921   2.891  0.0776 -0.1626  0.3720
  101TIP3    H1  309   4.643   3.844   2.854 -1.0576  0.6148 -2.9252
  101TIP3    H2  310   4.510   3.893   2.907  0.0930  0.0220  0.7818
  102TIP3   OH2  311   0.595   0.870   3.577 -0.4567 -0.6436 -0.0975
  102TIP3    H1  312   0.656   0.869   3.651 -1.5743 -0.6536  0.8486
  102TIP3    H2  313   0.625   0.943   3.523  1.1683 -1.4484 -0.3390
  103TIP3   OH2  314   2.348   1.924   0.814 -0.1688  0.0699  0.2166
  103TIP3    H1  315   2.417   1.869   0.851 -0.3231  0.6862  1.4915
  103TIP3    H2  316   2.287   1.938   0.886 -0.6391  1.0933 -0.3500
  104TIP3   OH2  317   3.374   3.674   0.664 -0.2501 -0.3324 -0.4368
  104TIP3    H1  318   3.285   3.650   0.691  0.3732 -2.0490  0.2346
  104TIP3    H2  319   3.430   3.614   0.712  1.2341  0.1041 -1.5667
  105TIP3   OH2  320   3.524   4.811   4.687 -0.4665 -0.1628  0.2828
  105TIP3    H1  321   3.487   4.876   4.627 -1.5806  0.2549  1.3752
  105TIP3    H2  322   3.468   4.734   4.676 -0.6066 -0.1226  0.6970
  106TIP3   OH2  323   2.695   3.232   0.030 -0.0430 -0.0955 -0.3301
  106TIP3    H1  324   2.669   3.146  -0.000 -0.4037 -0.6668  1.4623
  106TIP3    H2  325   2.790   3.235   0.017 -0.0080 -0.8280 -0.2891
  107TIP3   OH2  326   4.671   0.260   0.416  0.2043 -0.4495 -0.3353
  107TIP3    H1  327   4.582   0.230   0.435  0.6582 -1.6676 -0.0760
  107TIP3    H2  328   4.666   0.298   0.328 -0.5589 -0.5545 -0.3395
  108TIP3   OH2  329   5.840   3.328   4.515  0.5204  0.4316 -0.6965
  108TIP3    H1  330   5.928   3.351   4.487  0.4648  0.9264 -0.4705
  108TIP3    H2  331   5.852   3.281   4.597  0.5235  1.1652 -0.2794
  109TIP3   OH2  332   4.618   0.410   2.885 -0.2923 -0.4173  0.0011
  109TIP3    H1  333   4.703   0.455   2.880 -0.7992  0.6261  0.4304
  109TIP3    H2  334   4.627   0.335   2.826  1.0242 -0.4894  0.2698
  110TIP3   OH2  335   0.448   1.591   3.332 -0.0639 -0.4313  0.0471
  110TIP3    H1  336   0.491   1.642   3.264  0.8740 -1.8601 -0.4642
  110TIP3    H2  337   0.364   1.565   3.294 -0.4832  0.5537  0.2569
  111TIP3   OH2  338   6.222   3.603   3.641 -0.1679  0.3536 -0.5673
  111TIP3    H1  339   6.272   3.541   3.694  0.2347  1.0061 -0.1627
  111TIP3    H2  340   6.147   3.553   3.609  0.8988 -0.7427 -1.4443
  112TIP3   OH2  341   4.570   2.938   0.879 -0.3493 -0.0624 -0.3384
  112TIP3    H1  342   4.624   2.966   0.953 -0.3137 -0.2538 -0.2901
  112TIP3    H2  343   4.630   2.890   0.822 -0.7687 -1.5978  0.4508
  113TIP3   OH2  344   3.421   1.072   0.581 -0.1924 -0.6129 -0.0524
  113TIP3    H1  345   3.509   1.076   0.620 -0.9748  3.3624  1.7571
  113TIP3    H2  346   3.433   1.107   0.493  0.1450 -1.0167 -0.1742
  114TIP3   OH2  347   4.443   2.060   3.563  0.2444  0.3214  0.4853
  114TIP3    H1  348   4.489   2.086   3.482 -1.5583  0.8805 -0.4034
  114TIP3    H2  349   4.510   2.014   3.614  1.7340  0.9086 -0.8363
  115TIP3   OH2  350   1.281   0.215   3.802  0.0618 -0.2460  0.5488
  115TIP3    H1  351   1.241   0.240   3.720 -0.5827 -1.6182  0.4131
  115TIP3    H2  352   1.273   0.292   3.858 -2.4267 -0.3166  0.4009
  116TIP3   OH2  353   5.365   3.076   5.109 -0.2161  0.1188 -0.7812
  116TIP3    H1  354   5.433   3.009   5.101 -1.8605 -1.9499  1.1737
  116TIP3    H2  355   5.284   3.031   5.083 -1.3191  1.4632  0.1932
  117TIP3   OH2  356   1.987   2.799   2.853  0.4247  0.1346 -0.2324
  117TIP3    H1  357   2.044   2.789   2.929  1.1552  0.7804 -0.6850
  117TIP3    H2  358   2.003   2.889   2.822 -1.0774  0.4625 -0.1730
  118TIP3   OH2  359   3.078   3.673   3.005 -0.4357  0.0296 -0.0825
  118TIP3    H1  360   3.137   3.749   2.999 -0.1035 -0.1732  0.5447
  118TIP3    H2  361   3.025   3.690   3.083 -1.2818  0.2544 -0.6973
  119TIP3   OH2  362   0.581   1.839   0.457 -0.0122  0.5413  0.0425
  119TIP3    H1  363   0.537   1.793   0.385 -0.2865 -1.4950  1.4326
  119TIP3    H2  364   0.519   1.833   0.530  1.0622  0.8849  1.0004
  120TIP3   OH2  365   5.918   4.651   1.554 -0.5032  0.1973  0.5272
  120TIP3    H1  366   5.836   4.608   1.530 -0.4576 -0.7021  1.8335
  120TIP3    H2  367   5.950   4.690   1.473 -1.7306 -0.2647 -0.2053
  121TIP3   OH2  368   4.120   1.187   3.606 -0.7405 -0.0906  0.3065
  121TIP3    H1  369   4.205   1.170   3.646 -0.1295  0.3726 -0.7564
  121TIP3    H2  370   4.100   1.108   3.557  0.5291  0.8679 -1.9005
  122TIP3   OH2  371   3.350   5.314   4.832  0.8362 -0.2146  0.6511
  122TIP3    H1  372   3.355   5.218   4.839  1.2280 -0.2713 -0.3017
  122TIP3    H2  373   3.407   5.335   4.758 -1.3938  0.5201 -0.9585
  123TIP3   OH2  374   3.142   4.646   0.733  0.4169 -0.4511  0.3820
  123TIP3    H1  375   3.151   4.554   0.757 -0.0010 -0.9036 -1.1308
  123TIP3    H2  376   3.145   4.647   0.638 -0.0878  1.0537  0.3547
  124TIP3   OH2  377   2.285   4.915   3.537 -0.1894 -0.6598 -0.8444
  124TIP3    H1  378   2.246   4.989   3.490 -0.4142  0.3140  0.8003
  124TIP3    H2  379   2.379   4.933   3.535 -0.3142  0.2296  0.4060
  125TIP3   OH2  380   5.293   2.460   0.297 -0.0327 -0.1497 -0.1272
  125TIP3    H1  381   5.322   2.461   0.206  0.8433 -0.4149  0.1381
  125TIP3    H2  382   5.373   2.477   0.347 -0.5558  0.2725  0.5808
  126TIP3   OH2  383   1.999   3.400   4.847  0.6052 -0.5990 -0.4710
  126TIP3    H1  384   2.074   3.345   4.825 -0.1816 -2.3338  0.9373
  126TIP3    H2  385   1.933   3.377   4.781  0.1794 -1.6130  0.2809
  127TIP3   OH2  386   5.235   5.192   1.587  0.0142  0.0736  0.7434
  127TIP3    H1  387   5.282   5.117   1.624  0.9211  0.4152  0.3185
  127TIP3    H2  388   5.172   5.216   1.655 -0.8985 -1.5984  0.5326
  128TIP3   OH2  389   2.664   1.920   1.343  0.0949  0.6216 -0.1433
  128TIP3    H1  390   2.674   1.990   1.277  0.5621 -0.1909 -0.9505
  128TIP3    H2  391   2.663   1.967   1.426  0.4627  1.5965 -0.6639
  129TIP3   OH2  392   5.827   5.633   0.482  0.1688  0.1837  0.8355
  129TIP3    H1  393   5.799   5.685   0.406 -1.3556  0.3030  1.4413
  129TIP3    H2  394   5.921   5.648   0.488  0.3645  0.0632 -1.1190
  130TIP3   OH2  395   1.374   3.277   0.210  0.0627 -0.4748 -0.3864
  130TIP3    H1  396   1.378   3.359   0.162  1.0087 -0.2019  0.1394
  130TIP3    H2  397   1.283   3.270   0.239 -0.3250 -0.2469 -1.5099
  131TIP3   OH2  398   2.651   1.235   2.540 -0.5002 -0.7930 -0.1795
  131TIP3    H1  399   2.664   1.233   2.635  2.5171  0.2019 -0.4798
  131TIP3    H2  400   2.614   1.322   2.523  0.1910 -0.4547 -0.0017
  132TIP3   OH2  401   6.132   4.143   3.235 -0.6713  0.4186 -0.1481
  132TIP3    H1  402   6.145   4.225   3.283 -1.2577 -0.8465  2.3620
  132TIP3    H2  403   6.069   4.165   3.167  0.1469  2.3117 -0.3357
  133TIP3   OH2  404   3.542   1.302   3.915 -0.2622 -0.0957 -0.4078
  133TIP3    H1  405   3.593   1.371   3.871  0.9440 -0.2367  0.6924
  133TIP3    H2  406   3.462   1.346   3.944  1.1700  1.3395  1.6914
  134TIP3   OH2  407   2.251   4.853   1.676  0.4575  0.0425  0.6593
  134TIP3    H1  408   2.219   4.865   1.587 -2.2933 -0.0891  1.5494
  134TIP3    H2  409   2.310   4.777   1.669 -0.0761 -0.2759 -0.9635
  135TIP3   OH2  410   2.693   5.354   3.701  0.0918  0.2048  0.3009
  135TIP3    H1  411   2.647   5.420   3.649  0.7045 -0.5863 -1.3451
  135TIP3    H2  412   2.777   5.395   3.722  0.1700  0.2294 -0.0543
  136TIP3   OH2  413   3.624   2.524   1.931  0.3633  0.0473  0.1958
  136TIP3    H1  414   3.610   2.492   1.841  1.0882  1.3261 -0.3982
  136TIP3    H2  415   3.676   2.603   1.920  0.3071  0.3228  1.7538
  137TIP3   OH2  416   6.070   3.837   1.485 -0.0395 -0.4752 -0.5464
  137TIP3    H1  417   6.032   3.770   1.542  1.0834 -0.6541  0.0120
  137TIP3    H2  418   6.115   3.897   1.545 -1.8524  1.3891 -0.9229
  138TIP3   OH2  419   0.549   0.847   1.839  0.6847  0.1459  0.0663
  138TIP3    H1  420   0.535   0.939   1.816  0.0802  0.1574  0.4558
  138TIP3    H2  421   0.462   0.808   1.836  1.0857 -0.6903 -1.2317
  139TIP3   OH2  422   1.636   0.006   0.595 -0.3539 -0.3455 -0.1124
  139TIP3    H1  423   1.686   0.076   0.554 -0.2701  0.6068  1.5418
  139TIP3    H2  424   1.694  -0.029   0.663 -0.2583 -2.2790 -1.1138
  140TIP3   OH2  425   4.662   2.888  -0.011  0.3486  0.3262  0.7128
  140TIP3    H1  426   4.666   2.805   0.036 -0.0918 -0.2232 -0.1775
  140TIP3    H2  427   4.706   2.951   0.046  0.5022 -0.4724  1.4947
  141TIP3   OH2  428   0.271   3.095   4.881 -0.0510 -0.3720 -0.3025
  141TIP3    H1  429   0.191   3.044   4.875 -0.2521 -0.0587 -0.3141
  141TIP3    H2  430   0.340   3.036   4.851 -0.1751 -0.8819  0.4050
  142TIP3   OH2  431   5.123   2.954   5.020 -0.4257  0.2966  0.4390
  142TIP3    H1  432   5.036   2.923   5.047  0.1064 -0.6163  1.1384
  142TIP3    H2  433   5.111   2.983   4.930 -1.6543  0.9776  0.7967
  143TIP3   OH2  434   4.266   5.284   4.334  0.6977 -0.4803 -0.0929
  143TIP3    H1  435   4.336   5.349   4.333  0.2298  0.0832  1.5517
  143TIP3    H2  436   4.186   5.335   4.345  0.2603 -1.2845  0.5417
  144TIP3   OH2  437   3.419   3.348   3.745 -0.6491 -0.2703 -0.0189
  144TIP3    H1  438   3.354   3.282   3.721 -0.7591  0.1785 -0.9937
  144TIP3    H2  439   3.367   3.426   3.768 -0.4798 -0.1765  0.0476
  145TIP3   OH2  440   5.974   2.754   1.961 -0.2686  0.8843  0.2581
  145TIP3    H1  441   5.924   2.673   1.950  0.6542 -0.1066  2.6348
  145TIP3    H2  442   5.909   2.818   1.990 -0.3394 -0.3597  3.2097
  146TIP3   OH2  443   2.690   4.362   3.069  0.2835  0.1917 -0.3956
  146TIP3    H1  444   2.761   4.366   3.005  0.5470  0.5886 -0.0848
  146TIP3    H2  445   2.717   4.423   3.138 -0.8179  1.1141 -0.7441
  147TIP3   OH2  446   2.282   5.889   2.025  0.1705  0.3487  0.1257
  147TIP3    H1  447   2.200   5.938   2.025 -0.0832 -0.0667  0.3881
  147TIP3    H2  448   2.349   5.953   2.046 -0.4230  0.1512  2.9025
  148TIP3   OH2  449   5.508   5.280   0.391 -0.1709 -0.3048 -0.2319
  148TIP3    H1  450   5.481   5.324   0.310  2.1235  0.4969 -0.6236
  148TIP3    H2  451   5.478   5.339   0.460 -0.8598 -0.2732 -0.5384
  149TIP3   OH2  452   5.865   4.571   0.721 -0.6064  0.2766 -0.3755
  149TIP3    H1  453   5.823   4.500   0.771 -0.8860 -0.5651 -1.7522
  149TIP3    H2  454   5.949   4.585   0.765 -0.3992 -1.1640 -0.2708
  150TIP3   OH2  455   3.754   3.440   2.249  0.0206 -0.0716 -0.2522
  150TIP3    H1  456   3.755   3.455   2.155  1.7222 -0.0033 -0.2613
  150TIP3    H2  457   3.752   3.527   2.288 -0.2165 -0.0896 -0.2207
  151TIP3   OH2  458   1.154   3.647   3.060 -0.4381 -0.2367 -0.2791
  151TIP3    H1  459   1.129   3.700   3.136  2.4324 -0.4072  0.9040
  151TIP3    H2  460   1.159   3.557   3.093  0.7727 -0.3292 -0.6740
  152TIP3   OH2  461   5.560   2.421   2.807  0.6716 -0.1607 -0.5876
  152TIP3    H1  462   5.518   2.458   2.730  0.0757 -1.2089 -0.7860
  152TIP3    H2  463   5.526   2.473   2.880 -2.7856 -2.2415 -0.4589
  153TIP3   OH2  464   1.110   1.692   2.213 -0.3415 -0.0088  0.7514
  153TIP3    H1  465   1.151   1.607   2.198  0.0088  0.3326 -0.3305
  153TIP3    H2  466   1.086   1.723   2.125  0.5180  1.4865  1.0207
  154TIP3   OH2  467   1.061   2.732   3.877  0.3052 -0.4874  0.5638
  154TIP3    H1  468   0.970   2.706   3.891  0.1638  0.4190  1.4191
  154TIP3    H2  469   1.096   2.745   3.966  0.9568  0.2142  0.2117
  155TIP3   OH2  470   0.470   2.462   3.757  0.5889  0.0717 -0.4134
  155TIP3    H1  471   0.531   2.503   3.818  0.2743 -0.0608 -0.0074
  155TIP3    H2  472   0.441   2.382   3.801 -0.5996  0.6047 -0.1785
  156TIP3   OH2  473   1.230   0.198   4.393 -0.1990  0.3711 -0.2834
  156TIP3    H1  474   1.183   0.123   4.430  0.7524 -0.2314 -0.2785
  156TIP3    H2  475   1.190   0.210   4.306 -1.9305  1.3338  0.5944
  157TIP3   OH2  476   3.330   5.225   2.006 -0.2446  0.8443  0.0109
  157TIP3    H1  477   3.284   5.184   1.933 -0.4279  0.5400  0.2886
  157TIP3    H2  478   3.260   5.248   2.068 -0.0802  0.9803  0.1465
  158TIP3   OH2  479   3.858   3.365   0.194  0.9747  0.3250 -0.1998
  158TIP3    H1  480   3.799   3.440   0.199  0.1120 -0.2831 -0.7310
  158TIP3    H2  481   3.895   3.357   0.282 -2.1448 -1.1268  1.1350
  159TIP3   OH2  482   6.277   2.141   3.474 -0.0227  0.0270  0.4292
  159TIP3    H1  483   6.232   2.196   3.410 -1.3184 -0.0112  1.2816
  159TIP3    H2  484   6.227   2.151   3.555  0.3840 -1.5103  0.9104
  160TIP3   OH2  485   4.892   1.949   2.606 -0.1882 -0.1492  0.1462
  160TIP3    H1  486   4.817   1.890   2.620  0.5951 -1.0358  0.7463
  160TIP3    H2  487   4.967   1.899   2.637  0.6068  0.8864 -0.0731
  161TIP3   OH2  488   2.150   0.030   0.313  0.0003 -0.2127  0.1599
  161TIP3    H1  489   2.066   0.028   0.358  0.2895 -0.0800  0.7031
  161TIP3    H2  490   2.133  -0.014   0.229 -0.7470  0.3133  0.0253
  162TIP3   OH2  491   1.292   2.339   4.394  0.1754  0.1027 -0.4276
  162TIP3    H1  492   1.238   2.415   4.413  0.5245  0.5602 -1.2445
  162TIP3    H2  493   1.317   2.349   4.302 -1.5911 -2.1156 -1.2422
  163TIP3   OH2  494   5.165   1.585   2.698  0.6291  0.2250 -0.4145
  163TIP3    H1  495   5.101   1.527   2.739  2.4625 -1.2992  0.4521
  163TIP3    H2  496   5.195   1.536   2.622 -0.2480  1.5708 -1.6783
  164TIP3   OH2  497   3.463   3.735   4.085  0.2841  0.1829  0.4397
  164TIP3    H1  498   3.461   3.778   4.170  0.1284 -2.4067  1.8593
  164TIP3    H2  499   3.548   3.691   4.082  0.5151  0.6679 -1.0143
  165TIP3   OH2  500   6.283   2.573   4.148  0.7039 -0.4886  0.1798
  165TIP3    H1  501   6.376   2.559   4.165  0.9645  0.3570 -0.4838
  165TIP3    H2  502   6.278   2.589   4.054 -0.0997 -0.3932  0.2277
  166TIP3   OH2  503   2.427   2.387   4.526 -0.0423 -0.1520 -0.4414
  166TIP3    H1  504   2.342   2.354   4.557  0.6098 -1.3459  0.1537
  166TIP3    H2  505   2.467   2.427   4.604  0.3363 -0.4581 -0.4745
  167TIP3   OH2  506   1.452   5.917   2.151 -0.4065  0.3588 -0.0713
  167TIP3    H1  507   1.447   5.950   2.240  1.0125  0.7842 -0.1227
  167TIP3    H2  508   1.532   5.864   2.150 -1.3806 -1.1665 -0.6174
  168TIP3   OH2  509   4.672   5.762   1.781 -0.0095  0.1699 -0.1518
  168TIP3    H1  510   4.698   5.753   1.873 -2.9967 -0.6808  0.7255
  168TIP3    H2  511   4.747   5.802   1.738  1.4750  0.6131  2.6672
  169TIP3   OH2  512   1.108   1.058   0.986  0.2955  0.0150 -0.0958
  169TIP3    H1  513   1.144   1.142   1.013  1.0523  0.2714 -1.7685
  169TIP3    H2  514   1.085   1.014   1.068 -2.7867  2.9473  0.8290
  170TIP3   OH2  515   1.371   2.937   1.583 -0.3070  0.0722 -0.1656
  170TIP3    H1  516   1.332   3.009   1.633 -2.6574 -1.5912  0.5961
  170TIP3    H2  517   1.465   2.949   1.593 -0.5773  0.2365  4.2497
  171TIP3   OH2  518   5.546   2.145   3.773 -0.3965 -0.1291  0.8471
  171TIP3    H1  519   5.529   2.183   3.859  0.1709  2.0902  0.0380
  171TIP3    H2  520   5.635   2.172   3.751  0.1999 -2.2818  0.3351
  172TIP3   OH2  521   2.666   4.930   1.879 -0.4158  0.1672 -0.2300
  172TIP3    H1  522   2.577   4.912   1.908 -0.3566  1.1667  0.6417
  172TIP3    H2  523   2.656   4.997   1.811 -0.4199 -0.8508 -1.2674
  173TIP3   OH2  524   2.613   1.533   1.531 -0.3538 -0.3866  0.5425
  173TIP3    H1  525   2.641   1.453   1.485  1.0971 -0.5236  1.6104
  173TIP3    H2  526   2.650   1.604   1.479 -2.6370 -0.2752 -1.0933
  174TIP3   OH2  527   6.338   2.089   0.935  0.1200  0.1419  0.2211
  174TIP3    H1  528   6.256   2.042   0.947  0.0304  0.3249  0.3245
  174TIP3    H2  529   6.327   2.136   0.852  0.6990 -1.0375 -0.5515
  175TIP3   OH2  530   0.394   3.354   0.099 -0.4698  0.7845  0.3089
  175TIP3    H1  531   0.396   3.433   0.046 -0.3408  1.1705  0.8907
  175TIP3    H2  532   0.459   3.296   0.059  0.6993  1.6430  0.9342
  176TIP3   OH2  533   1.183   5.862   3.780 -0.5681  0.0577 -0.1049
  176TIP3    H1  534   1.133   5.802   3.725 -0.3878 -0.2042  0.0134
  176TIP3    H2  535   1.201   5.812   3.859  0.3167 -0.0184 -0.3521
  177TIP3   OH2  536   1.736   4.866   4.551  0.2583 -0.8837  0.3847
  177TIP3    H1  537   1.796   4.915   4.494 -1.6052  0.8683 -0.1618
  177TIP3    H2  538   1.749   4.904   4.638 -1.0025  0.4816  0.0085
  178TIP3   OH2  539   6.174   2.613   1.063  0.4482 -0.4759  0.3776
  178TIP3    H1  540   6.182   2.526   1.103 -1.8220 -0.3160  1.3317
  178TIP3    H2  541   6.254   2.659   1.090  1.6509 -2.1872 -0.0644
  179TIP3   OH2  542   1.826   3.026   0.131 -0.0834 -0.4093 -0.1788
  179TIP3    H1  543   1.742   3.018   0.085  0.7361 -1.1153 -1.6545
  179TIP3    H2  544   1.833   2.944   0.180 -0.5564 -0.0467  0.5087
  180TIP3   OH2  545   0.380   1.828   5.131 -0.4085 -0.5560  0.4542
  180TIP3    H1  546   0.471   1.801   5.139  0.0032  1.1665  2.3174
  180TIP3    H2  547   0.367   1.841   5.037  1.5928  0.1916  0.2357
  181TIP3   OH2  548   6.303   2.009   2.804  0.5549 -0.2774  0.0220
  181TIP3    H1  549   6.321   1.923   2.843 -0.1968 -0.4890 -0.0765
  181TIP3    H2  550   6.235   2.046   2.861  1.0172  0.3346  0.1769
  182TIP3   OH2  551   6.213   0.578   0.923  0.0750  0.2846  0.6505
  182TIP3    H1  552   6.146   0.510   0.913  0.3250  0.1681 -0.3734
  182TIP3    H2  553   6.164   0.660   0.922  0.0786  0.4826 -3.8206
  183TIP3   OH2  554   3.726   5.549   1.362  0.2412 -0.4438  0.2829
  183TIP3    H1  555   3.689   5.479   1.308 -0.5649 -0.1937  0.4987
  183TIP3    H2  556   3.660   5.619   1.359  1.4963  0.7429 -0.7957
  184TIP3   OH2  557   2.037   5.743   2.184 -0.2396  0.3809 -0.7813
  184TIP3    H1  558   2.029   5.825   2.136  0.6563 -0.3777 -2.2829
  184TIP3    H2  559   2.120   5.750   2.231 -0.7477  0.8028  0.0932
  185TIP3   OH2  560   4.208   1.490   2.149  0.0120 -0.4613  0.3387
  185TIP3    H1  561   4.239   1.475   2.060  0.8606  0.0210  0.5368
  185TIP3    H2  562   4.286   1.519   2.197 -0.3986 -0.8294  1.2685
  186TIP3   OH2  563   4.463   4.950   2.206  0.3302  0.3418 -0.0160
  186TIP3    H1  564   4.558   4.949   2.189  0.2047  0.4127 -0.7613
  186TIP3    H2  565   4.448   4.874   2.262  0.6196 -0.5388 -1.1046
  187TIP3   OH2  566   2.905   3.930   2.917 -0.2676 -0.2393 -0.2501
  187TIP3    H1  567   2.871   3.942   2.829  0.3499 -0.0230 -0.4668
  187TIP3    H2  568   2.886   3.839   2.939 -0.2888 -0.3373 -0.6705
  188TIP3   OH2  569   5.053   0.051   0.207 -0.5039  0.5628  0.2651
  188TIP3    H1  570   5.110  -0.010   0.254  1.5033  0.7201 -1.8058
  188TIP3    H2  571   5.002   0.094   0.276  1.0137 -0.4592  2.1147
  189TIP3   OH2  572   5.864   4.950   1.231 -0.5747  0.1170  0.6039
  189TIP3    H1  573   5.861   5.040   1.265  0.6571 -0.1733  1.5273
  189TIP3    H2  574   5.856   4.961   1.136 -0.8379  1.1659  0.7250
  190TIP3   OH2  575   0.741   1.158   4.905  0.6633  0.4083 -0.0092
  190TIP3    H1  576   0.694   1.090   4.954  0.6650  0.3613 -0.0732
  190TIP3    H2  577   0.818   1.114   4.872  0.0655  0.1273 -1.0678
  191TIP3   OH2  578   1.849   1.937   3.231 -0.3013 -0.3085  0.4030
  191TIP3    H1  579   1.914   1.892   3.176 -0.3679  1.2705 -1.0346
  191TIP3    H2  580   1.818   1.869   3.290  0.9723 -1.6850 -0.4179
  192TIP3   OH2  581   1.739   1.004   0.113  0.2658  0.6433 -0.4753
  192TIP3    H1  582   1.664   1.064   0.117  0.0792  0.3660  0.5913
  192TIP3    H2  583   1.709   0.932   0.058  0.1733  1.0984 -1.0283
  193TIP3   OH2  584   4.760   1.109   4.142 -0.1402  0.1465  0.7844
  193TIP3    H1  585   4.754   1.180   4.078 -0.6719 -1.7697 -1.4169
  193TIP3    H2  586   4.852   1.083   4.139 -0.6741 -1.9049 -1.6251
  194TIP3   OH2  587   0.645   1.898   4.503  0.4438  0.2605  0.6265
  194TIP3    H1  588   0.641   1.965   4.571 -2.0220  0.3731  0.4649
  194TIP3    H2  589   0.735   1.865   4.507  1.2063  2.2804  1.9409
  195TIP3   OH2  590   3.722   4.669   4.313 -0.7044  0.2244 -0.4691
  195TIP3    H1  591   3.761   4.728   4.377 -1.5461  0.3807 -0.0838
  195TIP3    H2  592   3.666   4.726   4.260 -1.0557 -0.1248 -0.4766
  196TIP3   OH2  593   2.986   3.059   4.868  0.1983 -0.5248 -0.1076
  196TIP3    H1  594   3.021   3.137   4.910  0.3212  0.4046 -1.8735
  196TIP3    H2  595   3.058   3.024   4.816  0.0169 -1.5923  0.3199
  197TIP3   OH2  596   6.238   2.701   3.901 -0.2028 -0.1929  0.0304
  197TIP3    H1  597   6.258   2.688   3.808 -0.7649 -0.0317 -0.1151
  197TIP3    H2  598   6.145   2.678   3.909  0.1067 -1.2653  0.7657
  198TIP3   OH2  599   4.258   4.518   3.181  0.1601 -0.0892  0.1080
  198TIP3    H1  600   4.353   4.517   3.173  0.0152 -1.4212 -3.5676
  198TIP3    H2  601   4.234   4.427   3.200 -0.4229  0.2059  0.8664
  199TIP3   OH2  602   0.274   4.924   4.383 -0.1582 -0.1522  0.4575
  199TIP3    H1  603   0.350   4.942   4.438  0.0406  0.8866 -0.1142
  199TIP3    H2  604   0.270   4.829   4.377 -0.0201 -0.2767  2.0129
  200TIP3   OH2  605   6.238   4.074   4.191 -0.7461  0.7610 -0.3530
  200TIP3    H1  606   6.253   3.990   4.235 -2.9807  1.4460  1.9612
  200TIP3    H2  607   6.324   4.103   4.163  0.5540 -0.7121  1.8599
  201TIP3   OH2  608   0.552   2.184   3.384  0.5633  0.3001 -0.1340
  201TIP3    H1  609   0.593   2.100   3.362  0.5672  0.2245  0.1578
  201TIP3    H2  610   0.581   2.202   3.473  1.3802  1.1099 -0.5521
  202TIP3   OH2  611   2.902   1.806   4.590  0.0149 -0.0797 -0.3218
  202TIP3    H1  612   2.921   1.898   4.571 -0.3760  0.0298 -0.1860
  202TIP3    H2  613   2.887   1.803   4.684 -2.2816  0.1444 -0.6288
  203TIP3   OH2  614   3.771   5.764   3.437  0.9784  0.5968 -0.3513
  203TIP3    H1  615   3.759   5.831   3.505 -0.1526  1.2430 -1.1573
  203TIP3    H2  616   3.836   5.801   3.378  0.3394  1.0191 -0.8071
  204TIP3   OH2  617   4.145   0.471   0.607 -0.4687  0.3988 -1.0616
  204TIP3    H1  618   4.140   0.549   0.662 -1.1743  0.4784 -1.2307
  204TIP3    H2  619   4.189   0.406   0.662 -1.4742  0.3722 -0.2455
  205TIP3   OH2  620   1.676   3.683   1.915 -0.1816  0.0339 -0.1262
  205TIP3    H1  621   1.752   3.657   1.967 -1.1542 -0.4447  1.1126
  205TIP3    H2  622   1.605   3.690   1.979 -1.2229  0.2990 -1.2812
  206TIP3   OH2  623   5.331   0.233   3.164  0.0008 -0.1159 -0.4566
  206TIP3    H1  624   5.396   0.300   3.142 -1.2415  1.5961  0.8391
  206TIP3    H2  625   5.365   0.192   3.244  1.1623 -1.6916 -1.6767
  207TIP3   OH2  626   0.756   2.295   4.936  0.2022 -0.2132 -0.0475
  207TIP3    H1  627   0.789   2.206   4.925  0.0396 -0.3010  0.1649
  207TIP3    H2  628   0.826   2.351   4.904  0.8963 -0.3697  1.1580
  208TIP3   OH2  629   1.637   4.552   0.223  0.3463  0.4960 -0.2885
  208TIP3    H1  630   1.724   4.522   0.249 -0.1188 -0.6887 -0.0718
  208TIP3    H2  631   1.635   4.542   0.128  0.5214  0.7600 -0.3229
  209TIP3   OH2  632   0.668   4.237   2.264 -0.3611  0.0369  0.4173
  209TIP3    H1  633   0.680   4.282   2.348  1.1016  0.9128 -0.2143
  209TIP3    H2  634   0.696   4.302   2.199  1.1840 -1.5454 -0.5772
  210TIP3   OH2  635   3.893   0.453   2.334 -0.6681  0.0748 -0.3770
  210TIP3    H1  636   3.873   0.385   2.399  0.9097  1.5556  1.8331
  210TIP3    H2  637   3.989   0.453   2.329 -0.7107  1.0205 -1.5779
  211TIP3   OH2  638   4.609   2.805   1.738 -0.5445 -0.0034  0.4406
  211TIP3    H1  639   4.540   2.824   1.801  0.1781  0.3024  1.1567
  211TIP3    H2  640   4.571   2.740   1.679 -1.9869  1.3145 -0.1473
  212TIP3   OH2  641   2.665   5.665   1.184  0.0744 -0.1958 -0.1893
  212TIP3    H1  642   2.658   5.661   1.089  0.7653 -1.0304 -0.2229
  212TIP3    H2  643   2.757   5.688   1.201 -0.3719  1.3903  0.2803
  213TIP3   OH2  644   3.854   5.787   4.614  0.4649 -0.2857 -0.0959
  213TIP3    H1  645   3.857   5.729   4.690  0.8672 -0.4103 -0.2065
  213TIP3    H2  646   3.837   5.874   4.652  0.1177 -0.4302  0.0897
  214TIP3   OH2  647   6.314   1.554   1.754 -0.7815 -0.6357  0.1172
  214TIP3    H1  648   6.265   1.483   1.795  1.5557 -1.6610  1.2738
  214TIP3    H2  649   6.318   1.530   1.662 -0.1522 -1.9417  0.4664
  215TIP3   OH2  650   2.061   3.787   0.064  0.0446 -0.0180 -0.1595
  215TIP3    H1  651   2.077   3.843  -0.011 -1.9440 -0.6319 -1.1170
  215TIP3    H2  652   2.143   3.741   0.078  1.6875  2.8877  0.5301
  216TIP3   OH2  653   2.506   1.123   3.808  0.0357 -0.1802 -0.0086
  216TIP3    H1  654   2.437   1.124   3.875  0.5991 -0.4835  0.5863
  216TIP3    H2  655   2.573   1.184   3.841 -0.1994  0.5775 -0.8697
  217TIP3   OH2  656   0.682   1.606   5.002  0.0950 -0.1472 -0.6142
  217TIP3    H1  657   0.711   1.514   5.003 -0.3830 -0.3191  1.7855
  217TIP3    H2  658   0.653   1.620   4.911  2.2798 -1.6536 -1.6414
  218TIP3   OH2  659   5.418   0.668   0.671  0.8671  0.0735  0.0143
  218TIP3    H1  660   5.330   0.658   0.708  0.9880 -2.1405 -0.1533
  218TIP3    H2  661   5.450   0.750   0.708 -1.2797  0.9934  0.0073
  219TIP3   OH2  662   2.250   2.103   1.477  0.4552  0.5348 -0.4901
  219TIP3    H1  663   2.156   2.110   1.496  0.4556  1.5128 -0.7809
  219TIP3    H2  664   2.270   2.011   1.492 -0.2426  0.5854  1.0232
  220TIP3   OH2  665   3.736   5.159   3.037  0.0265  0.0408  0.7994
  220TIP3    H1  666   3.826   5.139   3.013  0.1567  0.0356  1.2927
  220TIP3    H2  667   3.685   5.138   2.958  0.6372  1.5576 -0.0283
  221TIP3   OH2  668   3.587   0.172   1.368  0.1853 -0.2264  0.1394
  221TIP3    H1  669   3.612   0.264   1.377 -2.0029  0.4555 -0.2260
  221TIP3    H2  670   3.660   0.123   1.408  1.4608  1.6366  0.1839
  222TIP3   OH2  671   0.546   5.452   4.356 -0.2969  0.0328 -0.0750
  222TIP3    H1  672   0.528   5.531   4.305 -0.5721 -0.5012 -0.8271
  222TIP3    H2  673   0.478   5.390   4.329 -0.7733 -0.0985  1.3450
  223TIP3   OH2  674   0.368   4.367   1.030 -0.1984  0.2618  0.1724
  223TIP3    H1  675   0.453   4.324   1.021  0.1216  0.9260 -0.0202
  223TIP3    H2  676   0.342   4.388   0.941 -1.2240 -1.1709  0.1018
  224TIP3   OH2  677   1.958   3.377   2.608 -0.3253  0.0894 -0.3967
  224TIP3    H1  678   2.012   3.300   2.622  0.9659  0.8290 -1.0730
  224TIP3    H2  679   1.886   3.346   2.552 -0.8368 -0.9878  0.8266
  225TIP3   OH2  680   3.699   0.842   0.558 -0.5146 -0.3850  0.0895
  225TIP3    H1  681   3.786   0.822   0.595 -0.4055 -0.7944 -0.3757
  225TIP3    H2  682   3.639   0.831   0.632 -0.1091  0.4823  0.5598
  226TIP3   OH2  683   5.624   3.522   4.496 -0.1053 -0.0361  0.2710
  226TIP3    H1  684   5.587   3.510   4.583 -0.1442  0.1417  0.2798
  226TIP3    H2  685   5.697   3.460   4.492  0.9207  1.0892  1.0193
  227TIP3   OH2  686   3.475   5.219   1.369 -0.4018  0.6909  0.3834
  227TIP3    H1  687   3.474   5.129   1.337  2.3786  0.2427  1.2880
  227TIP3    H2  688   3.456   5.211   1.462  0.5484  0.9294  0.6071
  228TIP3   OH2  689   0.711   4.107   0.726 -0.0877 -0.4261 -0.4100
  228TIP3    H1  690   0.795   4.117   0.770 -1.0401  2.5624  1.0030
  228TIP3    H2  691   0.666   4.037   0.773  0.9501 -0.8904 -0.1013
  229TIP3   OH2  692   6.280   3.876   4.372  0.6305 -0.6028 -0.2485
  229TIP3    H1  693   6.363   3.863   4.418 -0.2942  0.4348  1.8287
  229TIP3    H2  694   6.231   3.796   4.387  1.0630 -1.0551 -1.1438
  230TIP3   OH2  695   3.248   5.204   1.129 -0.4187  0.1643  0.1838
  230TIP3    H1  696   3.316   5.225   1.193  0.1061 -0.5647 -0.1083
  230TIP3    H2  697   3.177   5.166   1.181  0.8075 -2.3445  0.2094
  231TIP3   OH2  698   0.374   4.159   5.154  0.0144  0.1725 -0.7079
  231TIP3    H1  699   0.395   4.083   5.210  0.4746  0.1171 -0.9511
  231TIP3    H2  700   0.332   4.121   5.077  1.4171  0.0326 -1.4265
  232TIP3   OH2  701   0.223   3.017   4.295 -0.0371 -0.2374 -0.1721
  232TIP3    H1  702   0.270   2.978   4.222 -0.6434  0.6700 -1.0634
  232TIP3    H2  703   0.283   3.007   4.370  0.6545 -1.0165 -0.8189
  233TIP3   OH2  704   1.441   2.941   4.749  0.2745  0.0485  0.8636
  233TIP3    H1  705   1.416   3.027   4.784  1.0816  0.4429  0.4927
  233TIP3    H2  706   1.522   2.919   4.794  1.2890  0.5240 -0.6646
  234TIP3   OH2  707   1.205   1.309   0.301  0.3784 -0.1200 -0.4139
  234TIP3    H1  708   1.191   1.324   0.208 -1.4670 -1.2597 -0.3719
  234TIP3    H2  709   1.119   1.320   0.341  1.1697  0.5719  1.2242
  235TIP3   OH2  710   2.181   3.219   3.150 -0.0730 -0.0382  0.0156
  235TIP3    H1  711   2.227   3.272   3.215 -1.7099  2.5856 -0.8053
  235TIP3    H2  712   2.108   3.273   3.122 -0.3155 -1.6512 -2.9214
  236TIP3   OH2  713   1.416   1.546   4.297  0.5939  0.1349 -0.1467
  236TIP3    H1  714   1.420   1.471   4.237  1.1277  0.3547 -0.3878
  236TIP3    H2  715   1.506   1.559   4.325  0.2984 -0.2274  1.0361
  237TIP3   OH2  716   1.642   1.721   1.745 -0.2515  0.3264  0.5501
  237TIP3    H1  717   1.719   1.665   1.733 -1.0780 -0.9205  0.9341
  237TIP3    H2  718   1.638   1.774   1.666  0.8794  0.2637  0.4338
  238TIP3   OH2  719   3.739   0.337   3.333  0.3089  0.3858  0.2679
  238TIP3    H1  720   3.747   0.432   3.334  0.5535  0.3722  1.9719
  238TIP3    H2  721   3.652   0.319   3.369 -0.5816 -0.0190 -1.9004
  239TIP3   OH2  722   5.331   1.415   2.536  0.8193 -0.2121 -0.7628
  239TIP3    H1  723   5.404   1.410   2.598 -0.1290 -2.1949  0.2885
  239TIP3    H2  724   5.348   1.344   2.473  0.3912  0.0565 -1.1859
  240TIP3   OH2  725   5.861   1.625   4.861  0.1974  0.2051 -0.7658
  240TIP3    H1  726   5.905   1.704   4.829 -0.0423  1.2318  1.3103
  240TIP3    H2  727   5.779   1.657   4.898  0.4807 -0.8788  0.8913
  241TIP3   OH2  728   4.147   3.692   2.235 -0.2020 -0.0733  0.2791
  241TIP3    H1  729   4.164   3.770   2.182 -1.5241 -0.0161 -0.0975
  241TIP3    H2  730   4.162   3.720   2.325  1.3583  0.0264  0.0180
  242TIP3   OH2  731   2.235   1.723   4.805 -0.0791 -0.2263  0.2880
  242TIP3    H1  732   2.146   1.747   4.780  0.2895 -1.2701 -2.3221
  242TIP3    H2  733   2.230   1.629   4.822 -0.0509  0.2214  3.3344
  243TIP3   OH2  734   2.470   2.511   2.394 -0.1787 -0.2537  0.5619
  243TIP3    H1  735   2.392   2.455   2.389 -0.9512  0.8075  0.2531
  243TIP3    H2  736   2.437   2.599   2.374  1.2234  0.1140 -0.2816
  244TIP3   OH2  737   0.944   4.449   3.596  0.4063  0.1221  0.3844
  244TIP3    H1  738   0.997   4.524   3.623 -0.5784  1.1406 -0.4211
  244TIP3    H2  739   0.858   4.487   3.575 -0.2341 -1.2920  0.3568
  245TIP3   OH2  740   3.761   5.230   0.385 -0.3015 -0.1511 -0.3583
  245TIP3    H1  741   3.742   5.195   0.299 -0.1883 -0.8316 -0.1123
  245TIP3    H2  742   3.846   5.273   0.376 -0.1802 -0.4267 -0.5255
  246TIP3   OH2  743   0.938   4.991   5.098 -0.2207  0.2912  0.0956
  246TIP3    H1  744   0.889   5.014   5.019  1.5406  1.2125 -0.7902
  246TIP3    H2  745   1.004   4.928   5.068 -0.8303 -0.9338  1.2528
  247TIP3   OH2  746   3.138   0.142   2.596 -0.1626  0.0083 -0.2466
  247TIP3    H1  747   3.174   0.191   2.671 -0.8605 -0.6828  0.5641
  247TIP3    H2  748   3.153   0.051   2.619 -2.3004 -0.3101  0.0845
  248TIP3   OH2  749   3.850   1.643   2.446  0.2983  0.1473 -0.5381
  248TIP3    H1  750   3.901   1.719   2.416  0.9507 -0.6267 -1.4886
  248TIP3    H2  751   3.907   1.568   2.428 -0.3928 -0.5875  0.2397
  249TIP3   OH2  752   4.409   3.247   1.688  0.3195  0.1272  0.1647
  249TIP3    H1  753   4.448   3.290   1.764  0.2734  1.3915 -0.5001
  249TIP3    H2  754   4.317   3.238   1.710 -0.0195  1.9559 -0.3408
  250TIP3   OH2  755   5.905   3.594   4.584  0.0207 -1.0016  0.5376
  250TIP3    H1  756   5.876   3.631   4.667 -0.2520  1.6929 -0.6726
  250TIP3    H2  757   5.854   3.514   4.574 -1.7459 -0.0920  1.8138
  251TIP3   OH2  758   0.776   4.001   2.192 -0.2955 -0.4991 -0.4143
  251TIP3    H1  759   0.735   4.082   2.220 -1.0306  0.4147 -3.7034
  251TIP3    H2  760   0.866   4.026   2.169  1.2874 -1.8198  3.5393
  252TIP3   OH2  761   4.542   2.610   0.565 -0.2318 -0.5051 -0.1875
  252TIP3    H1  762   4.609   2.543   0.551  0.0071 -0.1443 -0.8259
  252TIP3    H2  763   4.463   2.572   0.527  0.3982  0.4387 -2.6604
  253TIP3   OH2  764   0.342   1.394   1.435 -0.2360 -0.1214 -0.0285
  253TIP3    H1  765   0.372   1.466   1.379  0.6521  0.0453  0.6349
  253TIP3    H2  766   0.417   1.376   1.492 -1.4991  0.4901  1.9121
  254TIP3   OH2  767   3.370   3.534   1.807 -0.1776  0.3537 -0.9738
  254TIP3    H1  768   3.366   3.629   1.821 -2.9700  0.1860  0.0263
  254TIP3    H2  769   3.440   3.503   1.864 -0.8632  1.5742  0.6087
  255TIP3   OH2  770   5.061   2.117   1.932 -0.7116  0.4355  0.4199
  255TIP3    H1  771   4.967   2.138   1.929 -0.9571 -0.6742 -0.1023
  255TIP3    H2  772   5.087   2.112   1.840 -0.6607 -1.4362  0.5034
  256TIP3   OH2  773   0.211   5.507   3.958 -0.1641 -0.6730 -0.1022
  256TIP3    H1  774   0.159   5.512   4.038 -1.6896 -2.4663 -0.9242
  256TIP3    H2  775   0.153   5.541   3.889 -0.0053 -1.9921 -0.9174
  257TIP3   OH2  776   0.264   3.737   0.978 -0.3728  0.1433  0.0016
  257TIP3    H1  777   0.195   3.706   0.919  0.2354  1.5494 -1.5458
  257TIP3    H2  778   0.340   3.684   0.956 -0.3905  0.0403  0.1877
  258TIP3   OH2  779   2.945   1.789   2.031  0.3219  0.4018 -0.3038
  258TIP3    H1  780   2.992   1.862   1.990  0.5227  0.3173 -0.2262
  258TIP3    H2  781   3.006   1.756   2.098 -0.1834  0.8499  0.3920
  259TIP3   OH2  782   4.018   3.962   4.734 -0.1854 -0.1628  0.5422
  259TIP3    H1  783   4.052   3.991   4.818 -1.6567  0.5275  0.9225
  259TIP3    H2  784   4.054   4.024   4.670 -0.4353  0.3475  0.8920
  260TIP3   OH2  785   4.347   5.602   3.708  0.0920 -0.0903  0.0037
  260TIP3    H1  786   4.310   5.690   3.703  2.0076  0.7480 -0.5729
  260TIP3    H2  787   4.273   5.544   3.692 -1.1136  1.4234 -0.2177
  261TIP3   OH2  788   2.814   0.992   3.762 -0.1956  0.5799 -0.0169
  261TIP3    H1  789   2.777   1.079   3.743 -0.0372  0.9008  1.0765
  261TIP3    H2  790   2.760   0.958   3.833  0.0275 -0.0329 -0.1348
  262TIP3   OH2  791   0.656   1.669   2.301 -0.1165  0.1069 -0.2194
  262TIP3    H1  792   0.579   1.676   2.245 -0.1909  0.3730 -0.0866
  262TIP3    H2  793   0.670   1.758   2.334  0.8601  0.2898 -1.0609
  263TIP3   OH2  794   3.234   4.096   4.167 -0.0191 -0.0511  0.0505
  263TIP3    H1  795   3.297   4.024   4.167 -0.7593 -0.7177  0.9364
  263TIP3    H2  796   3.277   4.165   4.218 -0.7318 -1.2071  2.3500
  264TIP3   OH2  797   5.320   5.702   4.682 -0.0590 -0.3981  0.1602
  264TIP3    H1  798   5.268   5.677   4.605 -0.9250  1.0734  0.2276
  264TIP3    H2  799   5.411   5.696   4.651 -0.3820 -0.0278 -0.9265
  265TIP3   OH2  800   3.637   1.532   2.257  0.6569  0.1274 -0.3351
  265TIP3    H1  801   3.715   1.548   2.311  0.5010  1.8246 -0.5581
  265TIP3    H2  802   3.565   1.572   2.307 -0.3200 -2.4126  0.4336
  266TIP3   OH2  803   4.659   4.486   1.122 -0.0993  0.3568  0.2624
  266TIP3    H1  804   4.695   4.565   1.163  2.0069  0.3754 -1.4479
  266TIP3    H2  805   4.662   4.420   1.191 -1.9764  1.7024  1.7572
  267TIP3   OH2  806   1.118   0.034   3.006  0.0215  0.1407  0.4865
  267TIP3    H1  807   1.042  -0.015   2.977 -0.2247  0.5036  0.5121
  267TIP3    H2  808   1.085   0.089   3.077  0.0854  1.0067 -0.1361
  268TIP3   OH2  809   4.757   2.590   4.868 -0.0290  0.2954 -0.1701
  268TIP3    H1  810   4.769   2.499   4.842 -2.0562  0.1315 -0.6817
  268TIP3    H2  811   4.723   2.633   4.789 -0.8841  1.0726  0.6018
  269TIP3   OH2  812   3.616   5.913   4.807  0.4091  0.1875 -0.8149
  269TIP3    H1  813   3.641   5.947   4.721 -0.0651  0.7336 -0.7373
  269TIP3    H2  814   3.535   5.958   4.829  0.4766 -0.0129 -0.1171
  270TIP3   OH2  815   0.639   3.772   2.998 -0.4825 -0.3739 -0.1736
  270TIP3    H1  816   0.597   3.856   3.016 -2.6383 -1.6289  0.9856
  270TIP3    H2  817   0.608   3.748   2.910 -1.6025 -0.9061  0.3450
  271TIP3   OH2  818   1.835   0.131   2.743  0.0310 -0.1867 -0.1900
  271TIP3    H1  819   1.867   0.098   2.826 -0.1876 -2.0776 -0.8200
  271TIP3    H2  820   1.797   0.055   2.699 -2.6477  1.3251 -0.7491
  272TIP3   OH2  821   3.561   5.651   4.977 -0.2361 -0.2071 -0.4978
  272TIP3    H1  822   3.615   5.714   4.929  0.8266  0.1534  1.0579
  272TIP3    H2  823   3.521   5.703   5.047  0.0302 -1.0857  0.3296
  273TIP3   OH2  824   5.508   5.456   2.864  0.2265  0.0238  0.4126
  273TIP3    H1  825   5.537   5.407   2.941 -0.4351 -0.0788  0.5967
  273TIP3    H2  826   5.413   5.446   2.862  0.0643  1.3697  0.5093
  274TIP3   OH2  827   1.930   3.580   1.968 -0.1191  0.3856  0.0629
  274TIP3    H1  828   1.972   3.569   2.054 -0.7998 -0.7917  0.2695
  274TIP3    H2  829   1.980   3.650   1.926 -0.4454  1.7624  1.8381
  275TIP3   OH2  830   3.679   4.969   1.296  0.1430  0.0698  0.0245
  275TIP3    H1  831   3.695   4.917   1.374  1.3726  0.3611 -0.0193
  275TIP3    H2  832   3.605   4.926   1.253  1.2389 -1.7609 -0.1133
  276TIP3   OH2  833   2.963   3.252   2.246  0.2332  0.0628  0.5677
  276TIP3    H1  834   2.984   3.186   2.311  0.9527 -0.6903 -0.4062
  276TIP3    H2  835   2.879   3.224   2.210  0.1617  0.1121  0.6948
  277TIP3   OH2  836   3.579   2.321   2.105 -0.4305 -0.3136  0.4141
  277TIP3    H1  837   3.601   2.363   2.021  0.5262  0.2337  0.9211
  277TIP3    H2  838   3.498   2.364   2.132  1.2511  2.3968  1.6346
  278TIP3   OH2  839   0.390   2.011   1.043 -0.0933  0.1948 -0.3657
  278TIP3    H1  840   0.316   2.040   1.097  0.9008 -0.9910  1.7907
  278TIP3    H2  841   0.429   1.940   1.094  1.7866 -0.0456 -2.0453
  279TIP3   OH2  842   4.713   0.861   0.749 -0.6552  0.2912 -0.4935
  279TIP3    H1  843   4.703   0.891   0.659 -0.6913  2.6075  0.2372
  279TIP3    H2  844   4.804   0.879   0.771 -0.2446 -1.5685 -0.4635
  280TIP3   OH2  845   4.516   2.176   3.292  0.0745  0.3581  0.0019
  280TIP3    H1  846   4.519   2.135   3.206  0.2769 -2.0341  1.0653
  280TIP3    H2  847   4.602   2.216   3.303  0.3718 -0.1251 -0.5453
  281TIP3   OH2  848   1.305   4.223   4.814  0.2836  0.1345  0.5472
  281TIP3    H1  849   1.305   4.312   4.850  1.1369  0.1217  0.5958
  281TIP3    H2  850   1.347   4.232   4.729 -1.3971  0.1073 -0.3357
  282TIP3   OH2  851   3.773   2.271   1.730 -0.4020  0.0028 -0.3530
  282TIP3    H1  852   3.763   2.188   1.777 -0.1238  0.1850  0.0357
  282TIP3    H2  853   3.684   2.296   1.705 -0.5820  0.0309  0.3020
  283TIP3   OH2  854   0.325   5.761   0.642 -0.0461 -0.0658 -0.0173
  283TIP3    H1  855   0.244   5.779   0.596 -1.0478 -0.0141  1.6954
  283TIP3    H2  856   0.385   5.831   0.614 -1.7315  2.0488  1.4004
  284TIP3   OH2  857   1.151   4.479   0.733  0.0570 -0.2292 -0.1913
  284TIP3    H1  858   1.176   4.387   0.732 -1.0439 -0.5556  0.7164
  284TIP3    H2  859   1.184   4.512   0.816 -1.7684 -0.4798  0.6852
  285TIP3   OH2  860   2.621   4.859   4.919  0.5091  0.7393 -0.6348
  285TIP3    H1  861   2.608   4.951   4.942 -0.2112 -0.1367  3.0170
  285TIP3    H2  862   2.534   4.821   4.920  0.9591 -0.3140 -0.5774
  286TIP3   OH2  863   2.245   2.126   5.166 -0.3182 -0.3970  0.3212
  286TIP3    H1  864   2.149   2.121   5.169 -0.4288  0.8371 -0.4407
  286TIP3    H2  865   2.265   2.138   5.073  0.6759 -1.9986  0.2947
  287TIP3   OH2  866   3.396   5.946   0.774  0.5308  0.3457 -0.2517
  287TIP3    H1  867   3.309   5.908   0.765  0.1545 -0.5308  4.5583
  287TIP3    H2  868   3.380   6.037   0.801  1.0418 -0.0020  1.2791
  288TIP3   OH2  869   2.028   4.843   4.644 -1.1427 -0.2587  0.0974
  288TIP3    H1  870   2.057   4.933   4.659 -1.4790 -0.0561 -0.4585
  288TIP3    H2  871   1.986   4.818   4.726  1.2578 -0.8364  1.2504
  289TIP3   OH2  872   3.120   1.608   3.156 -0.4660 -0.4263 -0.0455
  289TIP3    H1  873   3.207   1.643   3.136 -0.4281 -0.2217  0.4606
  289TIP3    H2  874   3.133   1.514   3.163 -0.4170 -0.4701 -0.6261
  290TIP3   OH2  875   3.480   5.664   2.043 -0.1245 -0.2698 -0.7399
  290TIP3    H1  876   3.549   5.601   2.063 -0.2433 -0.7982 -1.9181
  290TIP3    H2  877   3.409   5.612   2.007 -1.4389  0.1909  1.0700
  291TIP3   OH2  878   0.233   5.400   1.631 -0.0600  0.2014  0.1501
  291TIP3    H1  879   0.300   5.406   1.699 -0.8708 -1.0354  1.1025
  291TIP3    H2  880   0.256   5.321   1.582 -0.2682  0.3231 -0.1456
  292TIP3   OH2  881   1.031   5.319   3.829  0.5081  0.6235  0.0747
  292TIP3    H1  882   1.070   5.348   3.747  0.2887 -0.2868 -0.3635
  292TIP3    H2  883   1.069   5.233   3.845 -2.5839 -1.1745 -1.3495
  293TIP3   OH2  884   5.011   2.930   1.471  0.1902  0.1533 -0.0772
  293TIP3    H1  885   5.006   2.998   1.404 -0.0876  0.8094  0.5908
  293TIP3    H2  886   4.940   2.951   1.532  0.3097 -0.5450  0.3184
  294TIP3   OH2  887   2.963   3.208   0.941  0.0157 -0.7967  0.1159
  294TIP3    H1  888   2.895   3.268   0.970 -1.2926 -1.5435 -1.2212
  294TIP3    H2  889   3.037   3.225   0.999 -1.5102 -0.3939  2.0494
  295TIP3   OH2  890   3.091   4.290   1.604  0.2140 -0.0229 -0.0789
  295TIP3    H1  891   3.095   4.380   1.636  0.9590 -0.6582  1.7467
  295TIP3    H2  892   3.007   4.284   1.559 -0.3602  1.2813  0.7559
  296TIP3   OH2  893   3.186   2.554   2.539 -0.1626 -0.3765  0.1667
  296TIP3    H1  894   3.187   2.642   2.501 -0.1782 -0.1012  0.7815
  296TIP3    H2  895   3.093   2.533   2.549 -0.1623 -0.6152 -0.3148
  297TIP3   OH2  896   4.455   1.017   0.289 -0.1700  0.2667 -0.3743
  297TIP3    H1  897   4.400   1.081   0.333  1.0692  0.5210  0.8888
  297TIP3    H2  898   4.407   0.934   0.298 -0.5740  0.5633  0.3002
  298TIP3   OH2  899   6.291   4.493   1.539 -0.3438 -0.1714  0.5249
  298TIP3    H1  900   6.314   4.428   1.606 -1.3729 -1.8517 -0.6915
  298TIP3    H2  901   6.196   4.487   1.532 -0.8688  3.3979  2.2274
  299TIP3   OH2  902   4.279   4.177   0.094  0.1419 -0.3185  0.5598
  299TIP3    H1  903   4.366   4.156   0.059  0.1574  0.6327 -0.0195
  299TIP3    H2  904   4.294   4.254   0.148 -0.5723  0.8317 -0.8174
  300TIP3   OH2  905   0.211   2.192   1.747  0.7461  0.1916  0.3876
  300TIP3    H1  906   0.183   2.232   1.829  0.8551  0.6756  0.1931
  300TIP3    H2  907   0.307   2.193   1.752  0.7933  1.5015 -0.3361
  301TIP3   OH2  908   3.476   3.320   3.435  0.6165  0.0980  0.0646
  301TIP3    H1  909   3.471   3.370   3.516  0.4342 -0.8929  0.6851
  301TIP3    H2  910   3.445   3.380   3.367 -0.5163  0.5248  0.9275
  302TIP3   OH2  911   5.175   2.786   4.408 -0.3289 -0.1084 -0.1292
  302TIP3    H1  912   5.215   2.732   4.340 -0.6069 -0.0638 -0.3259
  302TIP3    H2  913   5.196   2.740   4.490  0.1196 -0.0906 -0.2295
  303TIP3   OH2  914   5.324   0.205   1.627  0.3305 -0.1369  0.2569
  303TIP3    H1  915   5.378   0.250   1.692 -0.7747  1.8893 -0.1755
  303TIP3    H2  916   5.239   0.193   1.669 -0.1239  0.3915 -0.4870
  304TIP3   OH2  917   0.017   0.153   2.142  0.2755 -0.3208 -0.1960
  304TIP3    H1  918   0.048   0.190   2.224 -0.7074 -0.3708  0.2158
  304TIP3    H2  919   0.096   0.124   2.096  0.9874  1.3761 -0.0960
  305TIP3   OH2  920   4.869   4.531   1.307  0.0539 -0.7925 -0.2345
  305TIP3    H1  921   4.943   4.471   1.303  0.5000 -0.3763  1.2722
  305TIP3    H2  922   4.803   4.485   1.359 -0.6572 -1.0182 -1.2796
  306TIP3   OH2  923   0.693   0.794   2.330 -0.8254 -0.4856 -0.3405
  306TIP3    H1  924   0.760   0.741   2.373  0.4841  0.8867 -0.5897
  306TIP3    H2  925   0.714   0.789   2.237 -0.5770  0.5543 -0.3612
  307TIP3   OH2  926   2.710   3.132   4.912  0.2791 -0.3330 -0.1541
  307TIP3    H1  927   2.802   3.116   4.889  0.8840  3.8443 -1.5170
  307TIP3    H2  928   2.711   3.143   5.007  0.8102 -1.8092  0.0467
  308TIP3   OH2  929   0.885   0.569   4.613  0.2790  0.2519 -0.0390
  308TIP3    H1  930   0.956   0.505   4.607  0.5032  0.4075  0.9014
  308TIP3    H2  931   0.907   0.623   4.689  0.2427  1.6494 -0.9760
  309TIP3   OH2  932   5.864   3.725   0.637 -0.9508 -0.1632 -0.5959
  309TIP3    H1  933   5.928   3.757   0.573 -0.9354 -0.0770 -0.5376
  309TIP3    H2  934   5.886   3.632   0.649 -1.5790 -0.4346 -1.4653
  310TIP3   OH2  935   2.471   5.096   4.061 -0.5010 -0.0921 -0.2341
  310TIP3    H1  936   2.466   5.177   4.112 -2.5256 -0.2040 -0.1744
  310TIP3    H2  937   2.504   5.124   3.975 -0.2534  0.6391  0.0938
  311TIP3   OH2  938   0.698   5.177   1.814 -0.0299 -0.1699  0.0157
  311TIP3    H1  939   0.643   5.100   1.803  2.0911 -1.5486 -1.4163
  311TIP3    H2  940   0.680   5.206   1.904 -1.7085 -1.6064  0.1986
  312TIP3   OH2  941   1.675   1.480   4.114 -0.1756 -0.5935  0.0199
  312TIP3    H1  942   1.692   1.524   4.031 -1.4940 -1.0774 -0.5387
  312TIP3    H2  943   1.699   1.544   4.181 -0.6364  0.4110 -0.7514
  313TIP3   OH2  944   4.108   2.962   1.738  0.2668  0.0743  0.0962
  313TIP3    H1  945   4.183   2.971   1.679  0.9071 -2.2487  0.4597
  313TIP3    H2  946   4.053   2.896   1.696  0.0886 -0.6723  1.4666
  314TIP3   OH2  947   5.381   5.630   0.040  0.1698 -0.0670  0.0377
  314TIP3    H1  948   5.387   5.557  -0.022 -3.0120 -1.7028  1.3896
  314TIP3    H2  949   5.318   5.690   0.000  0.0855  0.1553  0.4990
  315TIP3   OH2  950   6.128   0.055   1.673  0.0965  0.1269  0.1390
  315TIP3    H1  951   6.183   0.054   1.752  0.4083  1.3902 -0.0499
  315TIP3    H2  952   6.189   0.038   1.601 -0.0319 -0.0794  0.0776
  316TIP3   OH2  953   5.566   5.894   0.031  0.1909 -0.2012  0.1479
  316TIP3    H1  954   5.609   5.896  -0.055 -0.5624  1.8628 -0.2415
  316TIP3    H2  955   5.514   5.814   0.030  0.8588 -0.6528 -0.9594
  317TIP3   OH2  956   0.902   2.491   4.271  0.1456  0.2771  0.4657
  317TIP3    H1  957   0.912   2.579   4.307 -1.6539  0.2434  1.1910
  317TIP3    H2  958   0.914   2.433   4.346  0.3475 -0.0355  0.1917
  318TIP3   OH2  959   6.184   3.613   4.514  0.1864  0.1342  0.1478
  318TIP3    H1  960   6.207   3.661   4.593 -0.0819 -0.4306  0.5691
  318TIP3    H2  961   6.088   3.615   4.511  0.1192 -1.2467  0.7247
  319TIP3   OH2  962   2.400   1.968   1.188  0.1955 -0.1527 -0.4889
  319TIP3    H1  963   2.418   2.048   1.237 -4.0422  0.5728  0.2794
  319TIP3    H2  964   2.476   1.912   1.204  1.0792  1.8082  3.1476
  320TIP3   OH2  965   0.637   4.927   2.945  0.4139  0.2201  0.0824
  320TIP3    H1  966   0.723   4.909   2.983  1.6951  2.1434 -1.7478
  320TIP3    H2  967   0.610   4.843   2.908  1.4261 -0.4484  0.8020
  321TIP3   OH2  968   4.723   3.370   0.196 -0.6014 -0.0284 -0.3169
  321TIP3    H1  969   4.789   3.426   0.155 -1.7974  0.5391 -1.5431
  321TIP3    H2  970   4.640   3.416   0.182 -1.2449 -0.5790  1.4357
  322TIP3   OH2  971   1.254   3.167   1.391 -0.2628  0.0904  0.3182
  322TIP3    H1  972   1.347   3.149   1.378 -0.0331  2.2009 -1.3337
  322TIP3    H2  973   1.247   3.193   1.483  0.7452 -0.1827  0.4815
  323TIP3   OH2  974   3.785   2.035   4.382  0.3160  0.4909  0.0868
  323TIP3    H1  975   3.691   2.017   4.372  0.0959  1.1527  0.8285
  323TIP3    H2  976   3.792   2.074   4.469  1.4584 -0.6411  0.5236
  324TIP3   OH2  977   1.023   5.820   2.375  0.1154 -0.5794 -0.0198
  324TIP3    H1  978   1.049   5.815   2.467 -0.3776  1.8691  0.3383
  324TIP3    H2  979   0.942   5.769   2.370 -0.0537 -0.4487  1.0249
  325TIP3   OH2  980   1.325   0.609   4.386  0.2034 -0.4576  0.1597
  325TIP3    H1  981   1.342   0.687   4.333 -0.1566 -0.0151  0.6743
  325TIP3    H2  982   1.411   0.570   4.402  0.8744  1.7899  2.8291
  326TIP3   OH2  983   5.814   4.115   4.224 -0.2800 -0.0421  0.4089
  326TIP3    H1  984   5.872   4.187   4.244 -0.5570 -0.1328  1.6392
  326TIP3    H2  985   5.726   4.153   4.226 -0.4263 -0.4008  1.0423
  327TIP3   OH2  986   1.604   5.398   1.693 -0.1349 -0.1896  0.2633
  327TIP3    H1  987   1.632   5.357   1.774  1.1104 -1.0543 -0.5587
  327TIP3    H2  988   1.593   5.490   1.715 -0.9426 -0.5933  1.6635
  328TIP3   OH2  989   4.584   1.479   0.476 -0.5821 -0.0965 -0.0235
  328TIP3    H1  990   4.657   1.422   0.498  0.7211  1.2406 -0.6912
  328TIP3    H2  991   4.506   1.427   0.495  0.5086 -1.1302  1.8942
  329TIP3   OH2  992   1.338   4.549   4.115  0.4542 -0.0749  0.4944
  329TIP3    H1  993   1.270   4.616   4.110 -0.3913 -0.9914 -1.0381
  329TIP3    H2  994   1.413   4.594   4.154  0.0680  1.9134 -0.8798
  330TIP3   OH2  995   3.362   2.490   3.443 -0.2865  0.0344 -0.1583
  330TIP3    H1  996   3.417   2.507   3.366 -0.3506  2.2426  0.2228
  330TIP3    H2  997   3.388   2.557   3.506  0.2030 -2.0628  2.0421
  331TIP3   OH2  998   1.622   0.850   4.033  0.3701 -0.6484  0.3239
  331TIP3    H1  999   1.671   0.850   3.951 -0.7931 -1.3731 -0.3944
  331TIP3    H2 1000   1.546   0.906   4.016  0.0100 -0.9738  0.8384
  332TIP3   OH2 1001   6.002   0.768   0.959  0.2604 -0.7350 -0.1715
  332TIP3    H1 1002   6.010   0.864   0.957 -0.8873 -0.6214 -0.3886
  332TIP3    H2 1003   6.013   0.745   1.051  0.2753 -0.3586 -0.0760
  333TIP3   OH2 1004   1.040   4.951   2.881  0.3944  0.4217 -0.0043
  333TIP3    H1 1005   1.015   4.894   2.954 -0.0164  0.1704 -0.3384
  333TIP3    H2 1006   1.068   5.032   2.923  1.9228 -0.3392  0.5410
  334TIP3   OH2 1007   5.330   1.577   3.289  0.4553 -0.0125 -0.3565
  334TIP3    H1 1008   5.302   1.620   3.208 -1.5715  0.6679  0.6468
  334TIP3    H2 1009   5.421   1.550   3.271 -0.0177 -0.1606 -2.9285
  335TIP3   OH2 1010   3.163   3.291   1.401 -0.4744 -0.0506 -0.0148
  335TIP3    H1 1011   3.208   3.346   1.465  0.7241 -0.7114 -0.2499
  335TIP3    H2 1012   3.081   3.337   1.383 -0.9774  0.0122  2.1828
  336TIP3   OH2 1013   4.299   5.552   4.186 -0.1806 -0.2238  0.1098
  336TIP3    H1 1014   4.206   5.562   4.162  0.0420  2.2158 -0.0392
  336TIP3    H2 1015   4.344   5.543   4.102 -0.1975 -0.5624  0.1357
  337TIP3   OH2 1016   3.557   0.878   0.340 -0.5109  0.6311 -0.1358
  337TIP3    H1 1017   3.617   0.874   0.266  0.4329 -0.4821  0.6273
  337TIP3    H2 1018   3.607   0.839   0.412 -2.1947 -0.4222  0.5122
  338TIP3   OH2 1019   6.222   4.689   2.023  0.3876 -0.1596  0.2640
  338TIP3    H1 1020   6.289   4.707   2.090  0.9405 -2.2948  0.3606
  338TIP3    H2 1021   6.264   4.713   1.941  0.7996 -0.2502  0.4408
  339TIP3   OH2 1022   3.275   0.174   0.974  0.1979 -0.4098 -0.3052
  339TIP3    H1 1023   3.282   0.139   1.063 -1.4253 -1.4024 -0.5250
  339TIP3    H2 1024   3.221   0.110   0.928  0.2079  0.5825 -1.7518
  340TIP3   OH2 1025   5.597   2.783   1.999 -0.2537 -0.6637  0.0161
  340TIP3    H1 1026   5.607   2.801   1.906 -1.1093 -0.6563 -0.0778
  340TIP3    H2 1027   5.632   2.861   2.042  0.3525 -0.7592 -0.2831
  341TIP3   OH2 1028   2.483   3.350   4.442 -0.7149 -0.5793 -0.5636
  341TIP3    H1 1029   2.478   3.255   4.430 -0.7567 -0.8590  1.3307
  341TIP3    H2 1030   2.576   3.367   4.455 -0.7373 -0.4076 -0.6358
  342TIP3   OH2 1031   2.388   0.871   2.036  0.2512  0.1205 -0.1616
  342TIP3    H1 1032   2.366   0.781   2.059  1.3895 -0.2145 -0.3018
  342TIP3    H2 1033   2.431   0.863   1.951  0.1540  0.8301 -0.2784
  343TIP3   OH2 1034   4.912   4.394   4.927 -0.2405  0.3862  0.0310
  343TIP3    H1 1035   4.837   4.350   4.887 -1.7111  0.3359  2.6205
  343TIP3    H2 1036   4.893   4.487   4.917 -0.8382  0.3743  0.9402
  344TIP3   OH2 1037   6.209   2.306   3.269 -0.2504  0.0627 -0.4971
  344TIP3    H1 1038   6.159   2.379   3.234 -0.9504 -0.0777  0.1831
  344TIP3    H2 1039   6.288   2.345   3.305  0.1606  0.2838 -1.6095
  345TIP3   OH2 1040   3.120   4.509   3.961  0.5460  0.1522  0.4663
  345TIP3    H1 1041   3.122   4.486   3.868 -0.3099  1.0450  0.2059
  345TIP3    H2 1042   3.026   4.517   3.981  0.6815 -0.8959  1.6406
  346TIP3   OH2 1043   5.826   3.047   1.137 -0.4634  0.0252 -0.7746
  346TIP3    H1 1044   5.832   3.024   1.044  0.1903  0.2130 -0.7853
  346TIP3    H2 1045   5.811   2.964   1.182 -0.2061 -0.1460 -1.0028
  347TIP3   OH2 1046   0.712   4.843   2.041  0.4401 -0.4155  0.4488
  347TIP3    H1 1047   0.790   4.896   2.022 -0.1445  1.0017  1.8510
  347TIP3    H2 1048   0.718   4.825   2.134 -0.1155 -1.6653  0.2603
  348TIP3   OH2 1049   1.005   3.136   2.442 -0.2207  0.2608 -0.7844
  348TIP3    H1 1050   1.066   3.092   2.501 -0.3339  1.4066  0.2305
  348TIP3    H2 1051   0.996   3.076   2.368 -0.9174 -1.7499  0.8403
  349TIP3   OH2 1052   2.176   1.959   2.391  0.3570  0.0706  0.3421
  349TIP3    H1 1053   2.215   1.872   2.395 -0.1147 -0.1430  0.4278
  349TIP3    H2 1054   2.126   1.960   2.309  1.9334  0.9556 -0.6489
  350TIP3   OH2 1055   0.336   4.686   1.426  0.3914  0.2370  0.2671
  350TIP3    H1 1056   0.400   4.626   1.387  1.5621  0.8425  1.1968
  350TIP3    H2 1057   0.253   4.639   1.422  1.3137 -1.5484  1.1806
  351TIP3   OH2 1058   5.388   5.182   3.628  0.1963 -0.1262 -0.0237
  351TIP3    H1 1059   5.342   5.242   3.686  1.0306  1.0635 -0.5689
  351TIP3    H2 1060   5.322   5.157   3.563 -1.0552 -2.2560  1.8856
  352TIP3   OH2 1061   4.633   2.607   2.193  0.1975  0.0317  0.1709
  352TIP3    H1 1062   4.629   2.678   2.257  0.8654  0.4976 -0.2867
  352TIP3    H2 1063   4.695   2.545   2.231  0.2323  0.0838  0.2004
  353TIP3   OH2 1064   2.497   0.595   2.533  0.2612 -0.4086  0.0994
  353TIP3    H1 1065   2.472   0.612   2.442 -1.4945 -2.4892  0.1066
  353TIP3    H2 1066   2.586   0.629   2.540  0.4328 -0.1406 -2.3722
  354TIP3   OH2 1067   3.011   2.816   1.972  0.0792  0.2488 -0.3295
  354TIP3    H1 1068   2.975   2.794   1.886  0.7239  1.5334 -0.9615
  354TIP3    H2 1069   3.067   2.892   1.955  1.0138 -0.1036  1.0674
  355TIP3   OH2 1070   2.433   4.567   3.198  0.0122  0.0584 -0.7353
  355TIP3    H1 1071   2.527   4.548   3.192  0.1856 -0.3213  1.8796
  355TIP3    H2 1072   2.429   4.662   3.213  0.3645 -0.3772  3.0607
  356TIP3   OH2 1073   2.811   0.308   3.281 -0.3515 -0.4113 -0.0898
  356TIP3    H1 1074   2.882   0.343   3.226 -0.0326 -1.1233 -0.1419
  356TIP3    H2 1075   2.734   0.313   3.225 -0.7074  1.8341  0.4881
  357TIP3   OH2 1076   1.160   1.951   3.026 -0.0187 -0.5908  0.1554
  357TIP3    H1 1077   1.095   1.959   2.956  0.6862  0.5845 -0.4028
  357TIP3    H2 1078   1.241   1.982   2.987  0.7737 -1.5263  1.0084
  358TIP3   OH2 1079   0.814   3.976   4.564 -0.7689  0.0304 -0.2582
  358TIP3    H1 1080   0.801   3.999   4.656  1.6301 -0.3658  0.2633
  358TIP3    H2 1081   0.904   4.003   4.546 -0.7359 -1.1573 -2.0804
  359TIP3   OH2 1082   3.280   0.049   1.528 -0.1332  0.2329 -0.3618
  359TIP3    H1 1083   3.331  -0.027   1.557  0.3666  0.4879 -0.5670
  359TIP3    H2 1084   3.236   0.020   1.448 -0.0300  0.1267 -0.3792
  360TIP3   OH2 1085   1.771   2.937   4.174  0.0878  0.4527 -0.7552
  360TIP3    H1 1086   1.779   2.926   4.080 -1.2475 -0.4082 -0.7853
  360TIP3    H2 1087   1.712   3.011   4.185  0.8204  1.0268 -0.5706
  361TIP3   OH2 1088   3.181   2.986   1.117  0.6458  0.3062  0.2844
  361TIP3    H1 1089   3.162   2.980   1.024 -0.6445 -1.1875  0.6091
  361TIP3    H2 1090   3.262   2.936   1.129 -0.0928 -0.9175  0.2077
  362TIP3   OH2 1091   6.134   0.307   3.378  0.1040  0.3895 -0.2522
  362TIP3    H1 1092   6.199   0.378   3.376 -0.4076  0.8972  0.7907
  362TIP3    H2 1093   6.084   0.320   3.297  1.9042 -0.6252 -1.6092
  363TIP3   OH2 1094   2.021   5.518   2.580  0.7422 -0.4766 -0.0624
  363TIP3    H1 1095   2.050   5.526   2.489 -0.7037 -1.7320 -0.6769
  363TIP3    H2 1096   1.947   5.578   2.587 -0.6723 -2.1187 -0.4370
  364TIP3   OH2 1097   2.620   2.279   3.865 -0.0329 -0.4670 -0.1740
  364TIP3    H1 1098   2.654   2.224   3.936  0.1124 -2.3781 -1.6205
  364TIP3    H2 1099   2.697   2.327   3.833 -0.4397  1.9403  2.1113
  365TIP3   OH2 1100   3.129   3.743   0.061 -0.1738 -0.1864  0.1029
  365TIP3    H1 1101   3.167   3.740  -0.027  0.6014  0.4993  0.4040
  365TIP3    H2 1102   3.068   3.669   0.063  0.5397 -0.8151 -0.6711
  366TIP3   OH2 1103   2.031   5.590   3.475 -0.5040  0.1583 -0.2606
  366TIP3    H1 1104   1.991   5.517   3.521 -2.8233  0.4509 -1.6121
  366TIP3    H2 1105   2.115   5.557   3.444  0.0338 -0.7844  2.0420
  367TIP3   OH2 1106   0.533   3.270   2.757 -0.2150  0.3952  0.5019
  367TIP3    H1 1107   0.576   3.185   2.759  1.2095  1.0899  2.4261
  367TIP3    H2 1108   0.484   3.271   2.675  1.7941 -1.2555 -0.7912
  368TIP3   OH2 1109   1.393   3.950   2.352 -0.3295 -0.4313  0.7746
  368TIP3    H1 1110   1.393   4.018   2.285  0.5844 -1.3880 -0.2440
  368TIP3    H2 1111   1.334   3.883   2.318  1.5475 -1.7633 -0.0332
  369TIP3   OH2 1112   5.044   0.371   3.708 -0.2512  0.6089 -0.3689
  369TIP3    H1 1113   4.983   0.387   3.780  0.6434  3.0196 -0.0336
  369TIP3    H2 1114   5.115   0.434   3.723  1.5177 -0.9644 -1.6511
  370TIP3   OH2 1115   2.294   1.234   3.694  0.0385  0.2077 -0.6661
  370TIP3    H1 1116   2.370   1.176   3.706  0.2100  0.6554  0.6147
  370TIP3    H2 1117   2.220   1.182   3.726  0.2144  0.7046  0.6328
  371TIP3   OH2 1118   1.809   5.140   1.308  0.4305  0.5155  0.3017
  371TIP3    H1 1119   1.841   5.190   1.383  1.6771  2.2178 -1.2866
  371TIP3    H2 1120   1.744   5.197   1.267  0.3110 -0.0666 -0.3468
  372TIP3   OH2 1121   1.229   4.503   1.523 -0.2148  0.9890  0.0527
  372TIP3    H1 1122   1.315   4.545   1.531 -1.0119  2.6306  0.4882
  372TIP3    H2 1123   1.227   4.439   1.594  0.3417  1.4882  0.5300
  373TIP3   OH2 1124   4.848   0.813   2.574  0.1994  0.4658 -0.0376
  373TIP3    H1 1125   4.831   0.788   2.665 -3.3053 -0.3401 -0.7560
  373TIP3    H2 1126   4.859   0.908   2.577  0.5969  0.4013  1.2774
  374TIP3   OH2 1127   6.051   2.228   3.633  0.3071 -0.0622  0.4662
  374TIP3    H1 1128   5.998   2.177   3.573  0.3981 -1.2028  1.3125
  374TIP3    H2 1129   6.035   2.319   3.609 -0.3660 -0.4637 -0.6612
  375TIP3   OH2 1130   2.013   4.976   2.502  0.7369  0.2133 -0.0146
  375TIP3    H1 1131   2.080   4.940   2.444 -0.2440 -1.3885 -0.2071
  375TIP3    H2 1132   2.002   4.910   2.570 -1.0818  0.1350 -0.3312
  376TIP3   OH2 1133   0.576   3.503   2.532  0.1904 -0.0468  0.3973
  376TIP3    H1 1134   0.565   3.566   2.603 -0.0365 -0.6724  0.9361
  376TIP3    H2 1135   0.642   3.442   2.565 -0.0652 -0.4558  0.1568
  377TIP3   OH2 1136   0.501   1.971   4.273 -0.0992 -0.1664 -0.2215
  377TIP3    H1 1137   0.554   1.931   4.342 -0.9111 -1.2772 -0.2003
  377TIP3    H2 1138   0.433   2.020   4.321 -0.7607 -1.0716 -0.2061
  378TIP3   OH2 1139   5.566   4.941   1.900  0.0048 -0.7099  0.2627
  378TIP3    H1 1140   5.574   5.018   1.844  2.5251  0.3486  1.9173
  378TIP3    H2 1141   5.641   4.887   1.877  0.1110 -1.0692  1.4288
  379TIP3   OH2 1142   3.865   2.942   3.140 -0.3835 -0.3090 -0.4613
  379TIP3    H1 1143   3.932   2.982   3.085 -0.6420  0.3211 -0.3232
  379TIP3    H2 1144   3.829   3.015   3.191  0.2252 -0.9470  0.9430
  380TIP3   OH2 1145   4.209   5.431   5.035 -0.0915  0.3838 -0.3479
  380TIP3    H1 1146   4.224   5.523   5.057  1.5816  0.1692 -0.4096
  380TIP3    H2 1147   4.114   5.420   5.037 -0.4959  2.6273 -2.4507
  381TIP3   OH2 1148   5.104   1.614   0.031  0.2388  0.3046 -0.6085
  381TIP3    H1 1149   5.115   1.560  -0.047 -0.7689 -2.3469  0.9486
  381TIP3    H2 1150   5.019   1.656   0.020  0.0933 -0.0701 -0.9340
  382TIP3   OH2 1151   3.703   5.296   2.269 -0.4015 -0.0399 -0.2759
  382TIP3    H1 1152   3.727   5.282   2.361  2.6332 -0.0922 -0.9563
  382TIP3    H2 1153   3.683   5.390   2.263  1.7210  0.4799  0.0595
  383TIP3   OH2 1154   2.755   5.262   3.085 -0.3326 -0.1149  0.0861
  383TIP3    H1 1155   2.709   5.264   3.001  2.3143  0.7313 -1.4586
  383TIP3    H2 1156   2.740   5.348   3.123  0.4550  0.3870 -0.7107
  384TIP3   OH2 1157   0.409   5.333   0.766 -0.0925  0.0541 -0.4536
  384TIP3    H1 1158   0.452   5.281   0.699 -0.9359 -0.5640 -0.5341
  384TIP3    H2 1159   0.430   5.423   0.744 -2.1593  0.0600 -2.9170
  385TIP3   OH2 1160   2.266   2.601   4.384  0.5970 -0.0651  0.1397
  385TIP3    H1 1161   2.195   2.607   4.448 -0.3581 -0.9399 -0.7939
  385TIP3    H2 1162   2.323   2.532   4.417  1.2509  0.8969  1.0882
  386TIP3   OH2 1163   2.341   0.607   4.412  0.2543 -0.0479 -0.1148
  386TIP3    H1 1164   2.268   0.555   4.377 -0.3110  0.5850  0.1066
  386TIP3    H2 1165   2.415   0.583   4.357 -0.2752 -0.1939 -0.7847
  387TIP3   OH2 1166   3.177   4.357   4.938  0.3985  0.0115 -0.6516
  387TIP3    H1 1167   3.160   4.451   4.943 -2.4392 -0.4770  0.4223
  387TIP3    H2 1168   3.250   4.349   4.876 -0.3447  2.8016 -2.0268
  388TIP3   OH2 1169   5.072   3.978   4.805  0.1318  0.2730 -0.6078
  388TIP3    H1 1170   5.061   3.914   4.735  1.8309 -0.5799 -0.1541
  388TIP3    H2 1171   5.164   4.006   4.797  0.5167 -0.2008  1.5518
  389TIP3   OH2 1172   4.842   2.297   4.765  0.1229  0.0878 -0.2538
  389TIP3    H1 1173   4.819   2.295   4.672  0.5962  0.3705 -0.3811
  389TIP3    H2 1174   4.875   2.209   4.784 -1.5138 -0.5001  0.0632
  390TIP3   OH2 1175   2.023   1.555   0.557  0.5876  0.7731  0.1388
  390TIP3    H1 1176   1.995   1.499   0.629  2.8826 -0.5312  0.0938
  390TIP3    H2 1177   2.006   1.644   0.589 -1.1449  0.1776  1.0590
  391TIP3   OH2 1178   3.728   2.346   0.104  0.0482  0.5170 -0.8432
  391TIP3    H1 1179   3.823   2.335   0.106  0.4809  3.5512 -0.3306
  391TIP3    H2 1180   3.698   2.315   0.190  0.8419  1.2546 -0.2839
  392TIP3   OH2 1181   1.902   5.199   4.833 -0.5229  0.2486  0.3289
  392TIP3    H1 1182   1.824   5.147   4.814 -1.3745  1.4715  0.3799
  392TIP3    H2 1183   1.964   5.176   4.763 -1.9414  1.3055 -1.3670
  393TIP3   OH2 1184   3.719   0.230   4.852  0.2159  0.1656  0.2608
  393TIP3    H1 1185   3.631   0.246   4.886  0.1759 -0.8995  0.7017
  393TIP3    H2 1186   3.725   0.135   4.845  1.3102  0.2309  0.1651
  394TIP3   OH2 1187   0.942   4.794   4.870  0.1956  0.2970 -0.2487
  394TIP3    H1 1188   1.032   4.798   4.903  0.3226  0.2991 -0.5904
  394TIP3    H2 1189   0.922   4.700   4.868  0.0751  0.3103  0.1227
  395TIP3   OH2 1190   6.111   5.285   1.031 -0.6616  0.3488 -0.5531
  395TIP3    H1 1191   6.173   5.213   1.016 -1.6696 -0.3991 -1.3481
  395TIP3    H2 1192   6.114   5.301   1.125 -2.0756 -2.3581  0.0668
  396TIP3   OH2 1193   1.292   3.625   1.399  0.7152  0.2739 -0.1531
  396TIP3    H1 1194   1.239   3.692   1.355  0.7465  0.1860 -0.3245
  396TIP3    H2 1195   1.243   3.605   1.478 -1.3098 -2.2623 -1.8948
  397TIP3   OH2 1196   5.356   0.416   0.574  0.4078  0.7169 -0.3804
  397TIP3    H1 1197   5.399   0.501   0.580 -1.9093  1.9566 -0.3095
  397TIP3    H2 1198   5.272   0.434   0.533 -0.3343 -1.4923  0.0139
  398TIP3   OH2 1199   2.676   2.522   4.990  0.3364 -0.3577 -0.0373
  398TIP3    H1 1200   2.599   2.573   5.015  0.5187  0.5674 -1.2335
  398TIP3    H2 1201   2.704   2.478   5.070 -0.3532  0.7556  0.8333
  399TIP3   OH2 1202   4.688   1.723   4.932  0.2513  0.0653 -0.1183
  399TIP3    H1 1203   4.735   1.679   5.003 -3.1575 -0.7097  1.8929
  399TIP3    H2 1204   4.712   1.815   4.939  0.3862 -0.0869  1.7413
  400TIP3   OH2 1205   1.516   0.105   3.675  0.5979 -0.0824  0.2357
  400TIP3    H1 1206   1.545   0.035   3.733  0.3424  1.1805  1.9890
  400TIP3    H2 1207   1.435   0.137   3.716  0.7798  1.3035 -0.4456
  401TIP3   OH2 1208   0.056   2.433   3.451 -0.9419  0.3605  0.5856
  401TIP3    H1 1209   0.113   2.373   3.499  0.4854  0.3824 -0.9984
  401TIP3    H2 1210   0.116   2.493   3.406 -2.2166  0.6713 -0.7826
  402TIP3   OH2 1211   5.078   2.304   2.144  0.3258 -0.1168 -0.5348
  402TIP3    H1 1212   5.070   2.265   2.231 -0.3452 -0.1253 -0.5954
  402TIP3    H2 1213   5.051   2.234   2.084  0.1561  0.1015 -0.7130
  403TIP3   OH2 1214   6.021   1.595   1.069  0.2967 -0.0099  0.3593
  403TIP3    H1 1215   5.943   1.539   1.069 -0.1140  0.5449  0.1085
  403TIP3    H2 1216   6.077   1.560   1.000  0.0843 -0.1723  0.2705
  404TIP3   OH2 1217   3.895   5.495   1.608 -0.1214 -0.0282 -0.1543
  404TIP3    H1 1218   3.852   5.534   1.532  0.7510  0.9972 -0.1359
  404TIP3    H2 1219   3.838   5.516   1.682 -0.5521 -0.3202 -0.4007
  405TIP3   OH2 1220   5.486   3.753   0.706  0.2209  0.2392 -0.1891
  405TIP3    H1 1221   5.528   3.701   0.774  2.7145  0.8436 -1.1699
  405TIP3    H2 1222   5.408   3.702   0.683  0.0151 -0.6441  2.1244
  406TIP3   OH2 1223   3.406   1.653   3.931 -0.2681 -0.2424 -0.5355
  406TIP3    H1 1224   3.466   1.643   3.856  2.0458  1.0909  1.0053
  406TIP3    H2 1225   3.437   1.589   3.995  0.0403  1.0023  0.5887
  407TIP3   OH2 1226   4.652   5.134   3.702  0.3508 -0.1298 -0.3267
  407TIP3    H1 1227   4.733   5.184   3.714  0.6595 -0.1353 -2.1943
  407TIP3    H2 1228   4.671   5.073   3.632 -0.6935 -1.4828  0.5217
  408TIP3   OH2 1229   4.146   0.253   4.998 -0.6364 -0.0787  0.4288
  408TIP3    H1 1230   4.206   0.315   5.040  0.5143  0.6185 -2.0213
  408TIP3    H2 1231   4.203   0.184   4.964 -1.5932 -0.9736  0.5958
  409TIP3   OH2 1232   4.699   1.189   3.649 -0.5482 -0.2513 -0.0664
  409TIP3    H1 1233   4.732   1.213   3.736  0.6927  0.2279 -0.6470
  409TIP3    H2 1234   4.773   1.203   3.591 -1.4372 -0.3316 -1.2512
  410TIP3   OH2 1235   1.395   1.027   1.552  0.5763 -0.1478  0.7093
  410TIP3    H1 1236   1.490   1.019   1.556  0.5859  0.1899  1.2893
  410TIP3    H2 1237   1.369   0.977   1.475  1.2472 -0.0311  0.4112
  411TIP3   OH2 1238   5.875   4.990   3.437  0.5067 -0.2835  0.1393
  411TIP3    H1 1239   5.936   5.053   3.399  0.9476 -0.3603  0.7099
  411TIP3    H2 1240   5.803   5.044   3.470  0.0020 -0.2347 -1.0008
  412TIP3   OH2 1241   1.952   2.269   4.212  0.5534 -0.1521 -0.1852
  412TIP3    H1 1242   1.974   2.262   4.305  0.0404  0.2482 -0.0326
  412TIP3    H2 1243   1.922   2.182   4.188  3.0189 -0.9760 -0.6046
  413TIP3   OH2 1244   1.804   3.200   0.787  0.2066 -0.4459  0.4101
  413TIP3    H1 1245   1.785   3.130   0.724  1.3184 -1.0587  0.7148
  413TIP3    H2 1246   1.892   3.230   0.764 -1.3156  3.0293 -1.6547
  414TIP3   OH2 1247   0.771   5.331   4.954 -0.1518 -0.0612  0.3335
  414TIP3    H1 1248   0.758   5.237   4.945 -1.6624  0.1779 -0.2339
  414TIP3    H2 1249   0.863   5.345   4.931  0.4932 -1.5491  1.8526
  415TIP3   OH2 1250   5.946   4.097   3.037 -0.3542 -0.0260 -0.0903
  415TIP3    H1 1251   5.959   4.061   2.949 -0.4113  1.6351 -0.8132
  415TIP3    H2 1252   5.853   4.121   3.039 -0.1022  0.9590  0.0144
  416TIP3   OH2 1253   2.527   2.116   0.880 -0.3316  0.5135  0.5517
  416TIP3    H1 1254   2.461   2.062   0.836 -1.2416  1.8529  0.1982
  416TIP3    H2 1255   2.583   2.146   0.808  0.2131  0.0074  0.7564
  417TIP3   OH2 1256   5.260   5.594   1.971  0.4731  0.5868  0.0238
  417TIP3    H1 1257   5.286   5.508   1.939  1.9211  1.0598 -0.1388
  417TIP3    H2 1258   5.242   5.645   1.892  0.7896  0.7815  0.0766
  418TIP3   OH2 1259   3.815   3.093   1.658  0.1853  0.4543 -0.0815
  418TIP3    H1 1260   3.835   3.002   1.681 -2.9372 -0.1145  0.8704
  418TIP3    H2 1261   3.843   3.101   1.567  0.2998 -1.5616 -0.2756
  419TIP3   OH2 1262   4.961   5.265   3.803  0.3636  0.2499  0.7954
  419TIP3    H1 1263   4.947   5.205   3.875  2.1515  1.4232  2.2042
  419TIP3    H2 1264   4.916   5.346   3.829 -2.3851 -0.4598 -1.2580
  420TIP3   OH2 1265   1.513   4.221   2.489 -0.1158  0.2201 -0.4717
  420TIP3    H1 1266   1.453   4.296   2.488 -0.3282  0.0533 -0.3040
  420TIP3    H2 1267   1.456   4.145   2.504  0.0863  0.0130 -0.7513
  421TIP3   OH2 1268   2.068   3.521   2.809  0.5154  0.6104 -0.0615
  421TIP3    H1 1269   2.026   3.466   2.743 -0.5596  1.3512 -0.0318
  421TIP3    H2 1270   2.022   3.605   2.801 -0.0500  0.5389  2.0287
  422TIP3   OH2 1271   2.121   2.813   3.089  0.1954  0.8976 -0.0964
  422TIP3    H1 1272   2.209   2.838   3.061  1.0838 -1.1404  0.6295
  422TIP3    H2 1273   2.105   2.863   3.169  1.5359 -0.0510  0.8249
  423TIP3   OH2 1274   2.517   2.724   4.754 -0.6205 -0.4647  0.0726
  423TIP3    H1 1275   2.479   2.792   4.698  0.4126  0.5065  0.5120
  423TIP3    H2 1276   2.531   2.767   4.838  0.0824 -1.2070  0.3502
  424TIP3   OH2 1277   5.690   4.430   0.899  0.5752  0.1243 -0.1019
  424TIP3    H1 1278   5.675   4.373   0.974 -0.0798 -0.7510 -0.8746
  424TIP3    H2 1279   5.607   4.477   0.887  0.8967  0.7612  0.1254
  425TIP3   OH2 1280   1.684   1.618   0.671 -0.2393  0.1049  0.1732
  425TIP3    H1 1281   1.735   1.652   0.597 -0.6218 -1.6336 -0.9649
  425TIP3    H2 1282   1.629   1.550   0.632 -1.7250  0.3169  1.7819
  426TIP3   OH2 1283   5.619   5.367   2.616  0.0084  0.6743 -0.3123
  426TIP3    H1 1284   5.547   5.304   2.611 -0.4674  1.2933 -1.9950
  426TIP3    H2 1285   5.586   5.437   2.673  0.3234 -0.2870  1.0947
  427TIP3   OH2 1286   1.756   5.103   3.148 -0.0701 -0.3757 -0.0176
  427TIP3    H1 1287   1.779   5.152   3.069  3.5936  1.5626  1.9824
  427TIP3    H2 1288   1.795   5.017   3.134 -0.9173 -0.6417 -0.9160
  428TIP3   OH2 1289   3.989   5.188   3.896  0.7497 -0.0457 -0.0631
  428TIP3    H1 1290   3.925   5.237   3.846 -0.9586  0.0190  2.0646
  428TIP3    H2 1291   3.982   5.098   3.863 -0.3106  0.0089 -0.0180
  429TIP3   OH2 1292   0.695   2.402   2.356  0.4466 -0.0543 -0.1493
  429TIP3    H1 1293   0.675   2.309   2.347  2.8054 -0.5503 -1.0360
  429TIP3    H2 1294   0.723   2.412   2.447 -0.4733 -0.0531  0.1380
  430TIP3   OH2 1295   5.659   4.292   1.133  0.4641  0.6077 -0.3768
  430TIP3    H1 1296   5.743   4.328   1.163  0.6970  0.6666 -1.0893
  430TIP3    H2 1297   5.673   4.197   1.134 -0.1050  0.4996  1.3679
  431TIP3   OH2 1298   1.119   4.568   4.530 -0.4768  0.3489  0.0350
  431TIP3    H1 1299   1.066   4.620   4.591 -1.5365 -2.2760  1.5089
  431TIP3    H2 1300   1.208   4.573   4.566 -0.6468  0.7481  0.4125
  432TIP3   OH2 1301   1.252   1.480   4.562  0.5483  0.2689  0.0377
  432TIP3    H1 1302   1.296   1.504   4.480 -2.7272  1.6300 -1.4828
  432TIP3    H2 1303   1.186   1.416   4.536 -1.0463  1.2664  1.4418
  433TIP3   OH2 1304   4.061   4.122   4.994 -0.3604  0.1184  0.2189
  433TIP3    H1 1305   4.149   4.085   4.998  0.0631  0.4799 -3.0260
  433TIP3    H2 1306   4.060   4.190   5.061  1.6249 -0.2575  0.6978
  434TIP3   OH2 1307   1.935   4.222   0.479  0.3180 -0.1102  0.0168
  434TIP3    H1 1308   1.864   4.237   0.417 -0.6059 -0.9525  0.8307
  434TIP3    H2 1309   1.929   4.129   0.501 -0.1332  0.3785  2.2400
  435TIP3   OH2 1310   2.721   4.168   0.074  0.4234 -0.2516 -0.6863
  435TIP3    H1 1311   2.680   4.099   0.125  0.4328  0.5873  0.5001
  435TIP3    H2 1312   2.794   4.126   0.029  0.5188 -0.9807  0.1365
  436TIP3   OH2 1313   3.929   2.604   4.207 -0.1630  0.4623 -0.3777
  436TIP3    H1 1314   3.914   2.538   4.139 -0.3407 -1.3696  1.3542
  436TIP3    H2 1315   4.024   2.614   4.211  0.0506 -1.6241  1.0270
  437TIP3   OH2 1316   2.497   3.640   2.521  0.9811  0.1528 -0.1062
  437TIP3    H1 1317   2.464   3.558   2.558  0.1991  1.0055  1.1483
  437TIP3    H2 1318   2.467   3.639   2.430 -1.0065  0.0732  0.5149
  438TIP3   OH2 1319   4.663   4.853   5.128 -0.0120  0.2109 -0.2377
  438TIP3    H1 1320   4.679   4.851   5.222 -3.5606  1.8395  0.5399
  438TIP3    H2 1321   4.726   4.917   5.094  1.5155 -0.6268  0.9045
  439TIP3   OH2 1322   5.435   1.129   1.458 -0.8928  0.0847 -0.0837
  439TIP3    H1 1323   5.462   1.219   1.444 -0.3703  0.1341  1.1211
  439TIP3    H2 1324   5.347   1.124   1.422 -0.8908  1.0560 -0.2334
  440TIP3   OH2 1325   4.093   2.596   3.644  0.7947  0.8178 -0.2585
  440TIP3    H1 1326   4.011   2.614   3.598  0.4388  0.2259  0.1321
  440TIP3    H2 1327   4.160   2.601   3.576  0.3924  0.9626 -0.6469
  441TIP3   OH2 1328   3.580   5.487   4.228  0.2647  0.1350 -0.2429
  441TIP3    H1 1329   3.491   5.503   4.260  0.4083  1.1853 -0.3403
  441TIP3    H2 1330   3.573   5.404   4.181 -1.2317  1.3632 -2.3505
  442TIP3   OH2 1331   4.860   0.071   3.877 -0.6138  0.0769  0.5505
  442TIP3    H1 1332   4.772   0.108   3.888 -1.7324 -2.2925  0.2952
  442TIP3    H2 1333   4.856   0.024   3.793  1.2009  0.6609  0.0929
  443TIP3   OH2 1334   4.454   5.911   2.235 -0.5407  0.5885 -0.5106
  443TIP3    H1 1335   4.388   5.842   2.242 -0.1688  0.3241  0.4422
  443TIP3    H2 1336   4.445   5.961   2.316  0.3038  0.6639 -0.4582
  444TIP3   OH2 1337   1.202   1.785   4.314 -0.5542 -0.3637 -0.5769
  444TIP3    H1 1338   1.252   1.704   4.310 -0.1355 -0.0911 -1.0158
  444TIP3    H2 1339   1.268   1.853   4.328 -0.9706 -0.1648  0.5419
  445TIP3   OH2 1340   2.531   5.775   2.067  0.4589 -0.1262  0.3259
  445TIP3    H1 1341   2.542   5.777   2.162  0.9734 -1.0267  0.2934
  445TIP3    H2 1342   2.437   5.775   2.054  0.3615 -1.3097  0.8849
  446TIP3   OH2 1343   4.923   1.428   4.918  0.9965  0.8234  0.1488
  446TIP3    H1 1344   4.881   1.441   4.833  0.0568 -1.3381  0.2109
  446TIP3    H2 1345   5.016   1.444   4.902  0.4666  3.9507 -0.4112
  447TIP3   OH2 1346   4.634   1.295   0.234  0.0392 -0.3658 -0.1987
  447TIP3    H1 1347   4.615   1.274   0.143  1.9359 -0.1129 -0.6809
  447TIP3    H2 1348   4.560   1.258   0.283 -0.5132 -1.3674 -1.7323
  448TIP3   OH2 1349   2.440   0.695   4.920  0.2423 -0.2504 -0.4206
  448TIP3    H1 1350   2.465   0.603   4.920  0.7465 -0.1185 -0.7631
  448TIP3    H2 1351   2.473   0.728   4.836  1.3369  0.5903  0.3305
  449TIP3   OH2 1352   2.110   3.763   2.612 -0.4883  0.2046 -0.5913
  449TIP3    H1 1353   2.017   3.766   2.636 -0.2336 -2.1306  0.9488
  449TIP3    H2 1354   2.112   3.709   2.534 -0.6594  2.8913 -2.6140
  450TIP3   OH2 1355   5.178   1.161   2.737 -0.0931 -0.1008  0.4739
  450TIP3    H1 1356   5.255   1.126   2.693  0.4070  0.0396  1.2244
  450TIP3    H2 1357   5.196   1.151   2.830 -0.7960  0.3246  0.6670
  451TIP3   OH2 1358   3.572   2.367   0.870 -0.3228  0.3767 -0.3018
  451TIP3    H1 1359   3.593   2.458   0.846 -0.6919 -0.0368 -2.4111
  451TIP3    H2 1360   3.480   2.356   0.845 -0.4645 -0.4156  0.5177
  452TIP3   OH2 1361   5.434   0.797   4.192  0.0628  0.1474  0.2012
  452TIP3    H1 1362   5.385   0.838   4.264 -0.3033  1.1327 -0.5931
  452TIP3    H2 1363   5.474   0.871   4.146  0.9784 -0.5383 -0.1240
  453TIP3   OH2 1364   0.630   0.363   2.485 -0.4868  0.6252 -0.0996
  453TIP3    H1 1365   0.545   0.332   2.454  0.2672 -0.2329 -1.4187
  453TIP3    H2 1366   0.624   0.359   2.580 -1.4751 -0.6743 -0.1884
  454TIP3   OH2 1367   1.616   4.887   2.627  0.1989 -0.4059  0.0693
  454TIP3    H1 1368   1.688   4.845   2.674  0.9975  1.0517  0.1964
  454TIP3    H2 1369   1.605   4.972   2.669  1.5732  1.3842 -2.8633
  455TIP3   OH2 1370   5.593   2.041   2.005  0.0830 -0.4267 -0.4776
  455TIP3    H1 1371   5.542   2.111   2.045  1.2492  0.1326  0.0943
  455TIP3    H2 1372   5.582   1.967   2.065  1.6707  0.3524  0.8785
  456TIP3   OH2 1373   5.676   4.360   2.407 -0.1563 -0.4174  0.1051
  456TIP3    H1 1374   5.734   4.312   2.466 -1.9095 -0.6223  1.7490
  456TIP3    H2 1375   5.714   4.448   2.402 -0.5997  0.0060  2.6318
  457TIP3   OH2 1376   5.604   2.603   0.436  0.0556 -0.0760  0.2631
  457TIP3    H1 1377   5.585   2.574   0.526 -2.0822 -3.5247 -1.1143
  457TIP3    H2 1378   5.699   2.596   0.429  0.0945 -1.7775  1.6807
  458TIP3   OH2 1379   6.114   2.065   2.234 -0.1086  0.3374  0.1105
  458TIP3    H1 1380   6.099   2.038   2.143  0.8032  0.5513 -0.1112
  458TIP3    H2 1381   6.077   1.994   2.286 -1.6690  0.7375 -0.3958
  459TIP3   OH2 1382   2.063   2.821   0.424 -0.2233 -0.3470  0.3852
  459TIP3    H1 1383   2.085   2.775   0.343 -0.7530 -1.0374  0.6290
  459TIP3    H2 1384   2.066   2.754   0.492 -0.0513  0.1753  0.9052
  460TIP3   OH2 1385   1.775   5.194   2.883 -0.5215  0.0431 -0.1618
  460TIP3    H1 1386   1.835   5.256   2.841 -0.0206 -0.9647 -0.9797
  460TIP3    H2 1387   1.704   5.182   2.820 -0.5460 -0.3135 -0.0689
  461TIP3   OH2 1388   0.960   5.689   4.814 -0.0567  0.0290 -0.1408
  461TIP3    H1 1389   0.994   5.689   4.725  1.0568 -1.3039  0.2495
  461TIP3    H2 1390   0.883   5.632   4.810 -0.6393  0.8251 -0.4564
  462TIP3   OH2 1391   1.843   3.740   2.623 -0.2059 -0.0408  0.4470
  462TIP3    H1 1392   1.808   3.778   2.543  0.8305  0.0703  0.0227
  462TIP3    H2 1393   1.784   3.669   2.644  0.1627 -0.8502 -1.1019
  463TIP3   OH2 1394   3.151   4.859   3.043 -0.0792 -0.1787 -0.0753
  463TIP3    H1 1395   3.214   4.832   2.976 -0.1323 -2.5162  0.7119
  463TIP3    H2 1396   3.066   4.835   3.007 -0.0951 -1.6500  0.8231
  464TIP3   OH2 1397   1.982   0.308   4.240 -0.0101 -0.7234  0.6181
  464TIP3    H1 1398   2.076   0.320   4.222  0.3787 -1.1558  2.2201
  464TIP3    H2 1399   1.962   0.374   4.306 -1.5495  1.2493 -1.6552
  465TIP3   OH2 1400   0.539   1.116   2.570  0.2634  0.0899  0.2341
  465TIP3    H1 1401   0.461   1.064   2.551  0.5165 -1.0714  2.1377
  465TIP3    H2 1402   0.592   1.109   2.491 -1.5283  0.9352 -1.1170
  466TIP3   OH2 1403   3.907   4.828   4.454 -0.8375  0.3870 -0.1775
  466TIP3    H1 1404   3.934   4.908   4.410 -1.8265  1.3443  0.8730
  466TIP3    H2 1405   3.989   4.781   4.471 -0.3039  0.8368 -1.4179
  467TIP3   OH2 1406   1.466   3.407   1.439  0.5261  0.3454  0.4766
  467TIP3    H1 1407   1.410   3.481   1.417  1.8100  1.1289 -0.2108
  467TIP3    H2 1408   1.552   3.430   1.405  1.1109 -1.1683  0.8484
  468TIP3   OH2 1409   2.089  -0.018   3.696  0.4660  0.7929  0.2916
  468TIP3    H1 1410   2.158   0.034   3.654 -0.0157  2.1647  1.1221
  468TIP3    H2 1411   2.013   0.040   3.697 -0.7675 -0.7273 -0.6971
  469TIP3   OH2 1412   2.115   4.183   3.398 -0.1062  0.1706 -0.3999
  469TIP3    H1 1413   2.109   4.156   3.306  1.0094  0.5956 -0.6219
  469TIP3    H2 1414   2.092   4.276   3.397 -2.4011 -0.3391  0.1264
  470TIP3   OH2 1415   4.712   4.768   1.906 -0.8222 -0.0045  0.3046
  470TIP3    H1 1416   4.734   4.832   1.838 -3.1741  0.7805  0.2159
  470TIP3    H2 1417   4.665   4.818   1.972  2.8192 -0.3636  3.4984
  471TIP3   OH2 1418   5.351   3.890   3.717 -0.3486 -0.5902 -0.1226
  471TIP3    H1 1419   5.363   3.951   3.644 -0.0754  0.3134  0.6729
  471TIP3    H2 1420   5.385   3.807   3.684  1.0498  0.1343 -0.5532
  472TIP3   OH2 1421   3.622   5.743   0.753 -0.4166  0.1244 -0.0214
  472TIP3    H1 1422   3.561   5.813   0.774  0.8874  1.2317  0.1577
  472TIP3    H2 1423   3.692   5.785   0.704 -0.6473 -1.4398 -1.8632
  473TIP3   OH2 1424   0.649   2.126   2.392 -0.1768  0.2509  0.0039
  473TIP3    H1 1425   0.707   2.062   2.434  1.0411  1.1979 -0.1976
  473TIP3    H2 1426   0.563   2.083   2.392 -0.1455 -0.0672  2.9206
  474TIP3   OH2 1427   5.863   0.516   1.953 -0.8472  0.5408  0.1220
  474TIP3    H1 1428   5.771   0.493   1.943 -0.7566  0.4839 -0.6038
  474TIP3    H2 1429   5.870   0.605   1.918 -1.0124  1.3573  2.0390
  475TIP3   OH2 1430   0.852   1.454   0.587 -0.4196  0.1571 -0.4553
  475TIP3    H1 1431   0.929   1.436   0.533  0.9669  2.0295  0.7817
  475TIP3    H2 1432   0.814   1.367   0.603  1.3702 -0.8188 -1.1608
  476TIP3   OH2 1433   2.661   4.508   1.145 -0.9337  0.8178  0.3416
  476TIP3    H1 1434   2.653   4.603   1.132  0.4201  1.0724  1.2756
  476TIP3    H2 1435   2.726   4.481   1.081  0.5373  0.9463  1.7324
  477TIP3   OH2 1436   4.229   4.416   2.239 -0.0478  0.2254 -0.1687
  477TIP3    H1 1437   4.198   4.434   2.328  1.0957  2.7666 -0.2034
  477TIP3    H2 1438   4.158   4.445   2.182 -0.8005 -1.4461 -0.1619
  478TIP3   OH2 1439   4.248   3.271   2.523 -0.0115 -0.1444  0.8967
  478TIP3    H1 1440   4.238   3.367   2.520  1.1936  0.0047  1.1410
  478TIP3    H2 1441   4.342   3.257   2.514  0.1212 -1.1926  3.2253
  479TIP3   OH2 1442   4.486   0.835   2.511 -0.1044  0.6467  0.2541
  479TIP3    H1 1443   4.470   0.747   2.544 -0.5427  1.1788  1.5269
  479TIP3    H2 1444   4.398   0.872   2.498  0.0755  1.2983  0.8658
  480TIP3   OH2 1445   4.867   1.514   3.812  0.5200 -0.2996  0.5190
  480TIP3    H1 1446   4.942   1.565   3.781 -0.3428 -0.3213 -1.7790
  480TIP3    H2 1447   4.792   1.573   3.804 -0.2453 -1.3759 -0.6639
  481TIP3   OH2 1448   5.606   4.725   2.536  0.0028  0.4585 -0.7428
  481TIP3    H1 1449   5.700   4.728   2.519  0.0313 -2.4115 -1.5241
  481TIP3    H2 1450   5.568   4.683   2.459 -1.6961 -0.0432  0.3138
  482TIP3   OH2 1451   2.700   4.830   1.118 -0.0599  0.1316 -0.2370
  482TIP3    H1 1452   2.739   4.810   1.203  0.5561 -3.2056 -1.1729
  482TIP3    H2 1453   2.745   4.910   1.089 -0.6673  1.6798  2.6971
  483TIP3   OH2 1454   2.598   0.196   2.950 -0.4448  0.0492 -0.2541
  483TIP3    H1 1455   2.566   0.208   3.040 -0.8958 -0.5805 -0.3236
  483TIP3    H2 1456   2.519   0.186   2.897 -0.1748  0.2006 -0.6918
  484TIP3   OH2 1457   0.561   5.175   2.903  0.3611 -0.2052 -0.5517
  484TIP3    H1 1458   0.583   5.082   2.901 -1.7005 -0.7399 -2.3558
  484TIP3    H2 1459   0.639   5.219   2.867  0.5787 -1.4445 -1.6713
  485TIP3   OH2 1460   6.105   1.995   1.938  0.3433 -0.1429 -0.6176
  485TIP3    H1 1461   6.130   1.945   1.860  0.3110  0.5244 -1.0645
  485TIP3    H2 1462   6.052   1.934   1.990 -0.1943 -0.3951 -1.4342
  486TIP3   OH2 1463   4.838   1.262   3.914 -0.5444 -0.0421  0.0927
  486TIP3    H1 1464   4.852   1.349   3.877 -0.2850  0.4337  1.2550
  486TIP3    H2 1465   4.924   1.234   3.944 -0.7440 -0.3973  0.3545
  487TIP3   OH2 1466   4.016   3.484   2.887  0.2935 -0.0207 -0.2058
  487TIP3    H1 1467   3.987   3.449   2.972  0.5883  1.9110  0.7508
  487TIP3    H2 1468   4.049   3.407   2.840  1.4370 -0.9827  1.9775
  488TIP3   OH2 1469   5.438   1.857   0.578 -0.7206 -0.4454 -1.0497
  488TIP3    H1 1470   5.400   1.931   0.627 -0.4093 -0.8258 -0.2197
  488TIP3    H2 1471   5.410   1.872   0.488 -1.8441 -0.0690 -0.6608
  489TIP3   OH2 1472   6.219   0.357   4.198 -0.1904 -0.1185  0.3431
  489TIP3    H1 1473   6.159   0.325   4.131 -0.4188 -1.2823  1.0855
  489TIP3    H2 1474   6.230   0.450   4.177 -1.3785 -0.1306 -0.4474
  490TIP3   OH2 1475   1.937   4.460   1.913 -0.0588  0.0776  0.1723
  490TIP3    H1 1476   1.904   4.389   1.967 -0.3092  0.9105  1.1436
  490TIP3    H2 1477   2.033   4.455   1.921 -0.1003  0.3042  0.8439
  491TIP3   OH2 1478   4.740   4.231   4.217  0.0466 -0.8079  0.4053
  491TIP3    H1 1479   4.787   4.185   4.148  2.2862 -0.0476  1.3340
  491TIP3    H2 1480   4.649   4.234   4.186  1.1860  1.1376 -3.4258
  492TIP3   OH2 1481   1.519   3.689   1.248  0.1233 -0.1745 -0.5436
  492TIP3    H1 1482   1.461   3.687   1.324  0.3599  0.6735 -0.3366
  492TIP3    H2 1483   1.473   3.746   1.186 -0.7176 -1.8890 -1.5831
  493TIP3   OH2 1484   0.534   0.640   0.620 -0.3594  0.1300  0.2203
  493TIP3    H1 1485   0.530   0.549   0.649  0.5004  0.1057  0.2641
  493TIP3    H2 1486   0.585   0.685   0.687  0.1311  0.4256 -0.3465
  494TIP3   OH2 1487   0.366   1.359   2.802 -0.7878  0.0238 -0.2077
  494TIP3    H1 1488   0.358   1.264   2.799 -0.6526 -0.0039  0.2011
  494TIP3    H2 1489   0.287   1.389   2.847 -0.6131  0.0660  0.0778
  495TIP3   OH2 1490   4.675   0.875   2.245  0.2458  0.2622  0.2546
  495TIP3    H1 1491   4.743   0.914   2.191  0.4436  0.6178  0.7492
  495TIP3    H2 1492   4.670   0.932   2.322  0.0652 -0.3042  0.6698
  496TIP3   OH2 1493   2.447   4.134   4.881 -0.1931 -0.0202 -0.6980
  496TIP3    H1 1494   2.489   4.136   4.967 -0.0223  1.6915 -0.8027
  496TIP3    H2 1495   2.409   4.046   4.876 -0.0370 -0.2279  1.0404
  497TIP3   OH2 1496   3.907   3.804   0.368  0.4587 -0.7254 -0.4209
  497TIP3    H1 1497   3.960   3.725   0.368  1.8431  0.1783 -0.0283
  497TIP3    H2 1498   3.938   3.854   0.293 -0.4130 -0.5283 -0.6698
  498TIP3   OH2 1499   0.480   5.054   3.619  0.1721  0.5597  0.0896
  498TIP3    H1 1500   0.506   5.002   3.695 -0.6715 -0.2487 -0.1636
  498TIP3    H2 1501   0.402   5.102   3.648 -1.0542 -0.8900 -0.6934
  499TIP3   OH2 1502   1.477   0.828   0.909 -0.5280 -0.9220 -0.2449
  499TIP3    H1 1503   1.551   0.853   0.964  0.8698 -1.3816 -1.8598
  499TIP3    H2 1504   1.442   0.911   0.877 -0.2210 -0.7483 -0.1313
  500TIP3   OH2 1505   4.699   4.595   0.834 -0.1126 -0.6684  0.2017
  500TIP3    H1 1506   4.629   4.638   0.784  0.2074 -0.7689 -0.3367
  500TIP3    H2 1507   4.653   4.532   0.889 -0.4283 -0.9711 -0.3876
  501TIP3   OH2 1508   0.577   3.563   5.129  0.1213  0.0626 -0.1437
  501TIP3    H1 1509   0.624   3.570   5.212  1.1826 -0.9036 -0.6359
  501TIP3    H2 1510   0.610   3.483   5.089  2.2772  2.1761 -3.0952
  502TIP3   OH2 1511   0.286   0.301   4.165  0.8603  0.6247 -0.4375
  502TIP3    H1 1512   0.220   0.310   4.233  1.8367 -1.9966  1.0082
  502TIP3    H2 1513   0.335   0.383   4.168 -2.2540  2.7081 -1.6597
  503TIP3   OH2 1514   6.322   2.171   0.661  0.2840  0.0685 -0.3553
  503TIP3    H1 1515   6.351   2.250   0.615 -1.0977  0.8334  0.0410
  503TIP3    H2 1516   6.231   2.160   0.634 -0.1872 -0.1520  1.2342
  504TIP3   OH2 1517   3.611   2.925   4.694 -0.7186  0.0057  0.2217
  504TIP3    H1 1518   3.664   3.005   4.695 -0.8841  0.1191 -0.0073
  504TIP3    H2 1519   3.669   2.858   4.658 -0.6413  0.0631  0.2382
  505TIP3   OH2 1520   4.393   0.670   0.594 -0.1626 -0.2186  0.4745
  505TIP3    H1 1521   4.307   0.683   0.634  0.2763  1.5661  0.9024
  505TIP3    H2 1522   4.418   0.756   0.563  0.7128 -1.0584 -1.2642
  506TIP3   OH2 1523   4.928   4.621   2.245  0.4856 -0.2084 -0.1547
  506TIP3    H1 1524   4.985   4.642   2.319  1.9021 -0.3335 -1.1741
  506TIP3    H2 1525   4.871   4.551   2.278 -0.8624  1.6090  1.6797
  507TIP3   OH2 1526   1.049   1.788   3.538 -0.1009 -0.2389 -0.1337
  507TIP3    H1 1527   0.969   1.782   3.590 -0.6667  2.1151 -0.5928
  507TIP3    H2 1528   1.019   1.823   3.453  1.3309  0.1709 -0.4956
  508TIP3   OH2 1529   5.163   5.911   1.603 -0.5989 -0.3825  0.3429
  508TIP3    H1 1530   5.154   5.816   1.589  0.2583 -0.0632 -3.7400
  508TIP3    H2 1531   5.257   5.926   1.606 -0.6586  0.4638 -1.0312
  509TIP3   OH2 1532   1.861   0.882   2.766 -0.0161 -0.0019  0.4226
  509TIP3    H1 1533   1.907   0.961   2.793  1.1925 -0.1606 -1.0397
  509TIP3    H2 1534   1.930   0.817   2.753 -0.7352 -0.5542 -0.8300
  510TIP3   OH2 1535   3.437   5.540   0.988  0.0164 -0.4412  0.3781
  510TIP3    H1 1536   3.458   5.499   1.072 -0.9958  1.5227  1.6798
  510TIP3    H2 1537   3.457   5.633   1.002 -1.9774  0.2405 -0.8921
  511TIP3   OH2 1538   3.510   5.892   1.565 -0.5785 -0.2217  0.1137
  511TIP3    H1 1539   3.555   5.822   1.517 -0.0165 -0.5978  1.1732
  511TIP3    H2 1540   3.444   5.847   1.617 -1.3520  0.2111 -0.4717
  512TIP3   OH2 1541   6.325   5.290   1.846 -0.6196  0.5829 -0.0771
  512TIP3    H1 1542   6.364   5.260   1.764 -0.0233 -1.9893  1.0595
  512TIP3    H2 1543   6.231   5.278   1.834 -0.5269  0.0885 -0.3191
  513TIP3   OH2 1544   6.058   3.894   3.999 -0.2471  0.0096  0.0086
  513TIP3    H1 1545   6.108   3.966   3.960  1.1098 -0.4142  0.9079
  513TIP3    H2 1546   5.966   3.916   3.979  0.1314  1.9108  0.1438
  514TIP3   OH2 1547   1.820   2.600   1.675 -0.2196 -0.3789 -0.5609
  514TIP3    H1 1548   1.904   2.573   1.712 -0.8931 -0.4601  1.0176
  514TIP3    H2 1549   1.755   2.552   1.727 -1.3507  1.9440  0.3134
  515TIP3   OH2 1550   5.996   0.320   2.109 -0.0707 -0.0682  0.3676
  515TIP3    H1 1551   5.952   0.380   2.048  0.7615  0.1847  0.0108
  515TIP3    H2 1552   6.047   0.262   2.052  1.7318  0.9825  0.8771
  516TIP3   OH2 1553   1.404   5.699   3.884  0.3363  0.8002  0.2497
  516TIP3    H1 1554   1.438   5.652   3.808 -0.4157  0.1509  0.3010
  516TIP3    H2 1555   1.341   5.639   3.923  0.4940  1.2457  1.2233
  517TIP3   OH2 1556   2.050   2.729   3.740  0.2045  0.2424 -0.2848
  517TIP3    H1 1557   2.006   2.734   3.655 -0.2269  0.3672 -0.0597
  517TIP3    H2 1558   2.055   2.820   3.770  0.5716  0.2226 -0.2835
  518TIP3   OH2 1559   5.241   0.110  -0.020 -0.0369  0.3037  0.2766
  518TIP3    H1 1560   5.188   0.094   0.058  0.3488  1.3803  0.7689
  518TIP3    H2 1561   5.327   0.133   0.013  0.0787  0.9656 -0.4510
  519TIP3   OH2 1562   2.525   2.460   1.502 -0.1397  0.2012  0.7047
  519TIP3    H1 1563   2.504   2.553   1.505  0.5155  0.4408 -0.8168
  519TIP3    H2 1564   2.585   2.452   1.427 -1.0109 -1.5950  0.1403
  520TIP3   OH2 1565   3.900   4.430   1.398  0.0092  0.2197 -0.1435
  520TIP3    H1 1566   3.930   4.399   1.483 -1.4276  0.9095  0.6587
  520TIP3    H2 1567   3.874   4.351   1.351  1.9761 -0.2839 -0.4617
  521TIP3   OH2 1568   2.442   0.552   3.491  0.1666 -0.2610  0.2312
  521TIP3    H1 1569   2.506   0.620   3.515  0.8291 -1.0436  0.7426
  521TIP3    H2 1570   2.466   0.527   3.402  0.1273 -0.0493  0.1615
  522TIP3   OH2 1571   3.107   2.848   5.071  1.0222 -0.4652 -0.4206
  522TIP3    H1 1572   3.046   2.827   5.001  1.9584  0.6566 -1.6134
  522TIP3    H2 1573   3.075   2.932   5.106  1.8259  0.1244 -1.0452
  523TIP3   OH2 1574   1.368   5.069   0.510 -0.3982 -0.1832  0.3779
  523TIP3    H1 1575   1.338   5.030   0.592 -0.8251  0.9959  0.8112
  523TIP3    H2 1576   1.288   5.085   0.460 -0.2509  0.2826  0.2874
  524TIP3   OH2 1577   4.384   5.016   3.873  0.2322 -0.1771  0.5434
  524TIP3    H1 1578   4.477   5.021   3.892 -0.0523 -0.7506  2.2642
  524TIP3    H2 1579   4.342   5.062   3.947 -0.8765 -0.7192  0.2738
  525TIP3   OH2 1580   4.531   3.086   2.437  0.5156 -0.4577  0.3393
  525TIP3    H1 1581   4.562   3.175   2.455 -0.6430  0.1563 -0.5452
  525TIP3    H2 1582   4.538   3.041   2.521 -1.6410  1.3324  1.6117
  526TIP3   OH2 1583   0.406   2.477   2.357 -0.3813 -0.0154 -0.2143
  526TIP3    H1 1584   0.500   2.464   2.367 -0.2517 -0.1272 -1.4374
  526TIP3    H2 1585   0.387   2.445   2.269 -1.3311  1.2593 -0.4930
  527TIP3   OH2 1586   0.422   5.050   2.606  0.0501 -0.3756 -0.2617
  527TIP3    H1 1587   0.391   5.141   2.601  1.6305  0.1397 -2.6094
  527TIP3    H2 1588   0.516   5.058   2.623 -0.1742 -1.7149  1.9183
  528TIP3   OH2 1589   4.473   4.842   2.874  0.1674 -0.2438 -0.8233
  528TIP3    H1 1590   4.557   4.876   2.904 -0.1207  2.3259 -2.6542
  528TIP3    H2 1591   4.495   4.760   2.829  1.5146 -0.2029 -0.2746
  529TIP3   OH2 1592   3.411   3.563   2.510  0.1619  0.0224  0.1541
  529TIP3    H1 1593   3.404   3.629   2.579  0.4868  0.5884 -0.3415
  529TIP3    H2 1594   3.391   3.480   2.553  0.3136  0.3761  0.9130
  530TIP3   OH2 1595   0.016   3.123   3.562  0.5497 -0.5092  0.0894
  530TIP3    H1 1596  -0.004   3.030   3.571 -1.6214 -0.1728 -0.6241
  530TIP3    H2 1597   0.098   3.125   3.513  0.4530 -2.0525 -0.1904
  531TIP3   OH2 1598   2.520   5.475   3.485  0.2040  0.4583 -0.7506
  531TIP3    H1 1599   2.535   5.381   3.482  0.5078  0.4355  0.6047
  531TIP3    H2 1600   2.577   5.511   3.417  2.5201 -0.0965  0.7807
  532TIP3   OH2 1601   2.388   4.444   3.440  0.0491 -0.1881  0.0196
  532TIP3    H1 1602   2.374   4.355   3.406  1.2476 -0.1635 -0.6029
  532TIP3    H2 1603   2.391   4.498   3.361  0.5976  0.2110  0.3128
  533TIP3   OH2 1604   0.104   0.316   2.343 -0.1734  0.0734 -0.1582
  533TIP3    H1 1605   0.028   0.314   2.401  0.5164  0.3782  0.7805
  533TIP3    H2 1606   0.155   0.392   2.372 -1.4226  2.3466 -3.2935
  534TIP3   OH2 1607   3.159   5.406   0.564  0.2837  0.0148 -0.3772
  534TIP3    H1 1608   3.112   5.453   0.633  0.4653 -1.1619  0.5807
  534TIP3    H2 1609   3.251   5.421   0.583  0.3402  1.0888 -1.3852
  535TIP3   OH2 1610   5.511   1.437   4.586  0.7392 -0.1059 -0.0112
  535TIP3    H1 1611   5.553   1.510   4.541  0.7302 -0.4581 -0.6012
  535TIP3    H2 1612   5.568   1.418   4.660  0.7578  0.4751  0.1292
  536TIP3   OH2 1613   2.958   5.935   0.672  0.4015  0.0422  0.7558
  536TIP3    H1 1614   2.946   5.874   0.744  2.9358 -2.6041 -0.8641
  536TIP3    H2 1615   2.924   5.889   0.595  0.7715  1.4115 -0.2712
  537TIP3   OH2 1616   2.261   1.262   4.967 -0.6801  0.1453 -0.2402
  537TIP3    H1 1617   2.297   1.197   4.906  1.0701 -0.6912  1.5621
  537TIP3    H2 1618   2.280   1.227   5.054 -3.1018  1.2804  0.8413
  538TIP3   OH2 1619   1.344   1.948   2.730 -0.3638 -0.1563 -0.1205
  538TIP3    H1 1620   1.418   1.887   2.726 -1.4787 -1.6182  0.4006
  538TIP3    H2 1621   1.267   1.891   2.733 -1.6274  1.2966 -2.1784
  539TIP3   OH2 1622   0.040   2.404   0.524 -0.1570 -0.1635 -0.0324
  539TIP3    H1 1623   0.074   2.481   0.570 -1.4600 -0.3274  1.2710
  539TIP3    H2 1624  -0.006   2.439   0.449  1.8329  0.1226 -1.1997
  540TIP3   OH2 1625   3.457   4.588   4.124  0.3640 -0.8020  0.2427
  540TIP3    H1 1626   3.525   4.569   4.059 -0.6293 -0.2789 -1.0138
  540TIP3    H2 1627   3.485   4.670   4.165  0.6533 -0.7536 -0.0484
  541TIP3   OH2 1628   2.392   3.363   2.050  0.1898  0.3554  0.7749
  541TIP3    H1 1629   2.342   3.281   2.049 -0.8252  0.9285 -1.5822
  541TIP3    H2 1630   2.464   3.348   1.990  1.5147  0.3875  2.2915
  542TIP3   OH2 1631   4.251   2.139   2.953 -0.0816  0.2109  0.2323
  542TIP3    H1 1632   4.262   2.050   2.920 -1.1146  1.2709 -3.4701
  542TIP3    H2 1633   4.217   2.188   2.879  1.8196  4.0902  1.6298
  543TIP3   OH2 1634   2.338   4.714   2.050 -0.4365  0.7269  0.2834
  543TIP3    H1 1635   2.279   4.639   2.054 -1.4520  1.4923  0.1340
  543TIP3    H2 1636   2.385   4.712   2.133 -0.5045 -0.0217  0.3127
  544TIP3   OH2 1637   5.026   1.021   3.734  0.1674 -0.4851 -0.1935
  544TIP3    H1 1638   5.119   1.013   3.753 -0.3699 -1.6405  2.3542
  544TIP3    H2 1639   5.020   1.009   3.639  2.5069 -1.4044 -0.2921
  545TIP3   OH2 1640   1.330   1.699   3.007  0.0079 -0.5354 -0.2297
  545TIP3    H1 1641   1.270   1.771   3.027 -0.2300 -0.6846 -0.4045
  545TIP3    H2 1642   1.396   1.702   3.077 -0.7767 -1.0178  0.5538
  546TIP3   OH2 1643   1.717   1.224   4.049  0.2024  0.0576 -0.4961
  546TIP3    H1 1644   1.685   1.312   4.067 -1.8552 -0.7083 -0.0995
  546TIP3    H2 1645   1.646   1.182   4.000  0.5042 -1.8237  0.5751
  547TIP3   OH2 1646   4.764   1.626   1.022  0.2350  0.2173  0.1694
  547TIP3    H1 1647   4.785   1.584   0.939  0.1232 -1.7057  1.0508
  547TIP3    H2 1648   4.669   1.640   1.019 -0.2428 -2.2485  0.9114
  548TIP3   OH2 1649   1.913   0.001   0.464  0.9215  0.3600  0.2958
  548TIP3    H1 1650   1.821  -0.006   0.438  0.6175 -0.1532  1.4451
  548TIP3    H2 1651   1.917   0.085   0.511  0.7580 -0.1341  1.2342
  549TIP3   OH2 1652   5.649   3.225   4.164 -0.3855  0.2232 -0.0129
  549TIP3    H1 1653   5.699   3.300   4.132 -0.4992  0.8587  1.2619
  549TIP3    H2 1654   5.634   3.243   4.257  0.0803 -1.6621  0.4667
  550TIP3   OH2 1655   2.275   5.848   2.317  0.5049  0.3294  0.2235
  550TIP3    H1 1656   2.307   5.836   2.406  1.4377  1.7266  0.0954
  550TIP3    H2 1657   2.335   5.798   2.263  0.0336 -0.3855  0.3445
  551TIP3   OH2 1658   2.396   4.275   1.594  0.4405 -0.1042 -0.1124
  551TIP3    H1 1659   2.465   4.263   1.659 -0.3309 -1.0713  0.5610
  551TIP3    H2 1660   2.425   4.349   1.541  2.2215 -0.7985 -0.1581
  552TIP3   OH2 1661   5.312   0.724   3.933 -0.7473 -0.0474  0.0024
  552TIP3    H1 1662   5.286   0.736   4.025 -0.2663  0.2030  0.1050
  552TIP3    H2 1663   5.327   0.812   3.900 -0.9887 -0.1335 -0.3405
  553TIP3   OH2 1664   3.852   3.993   3.573  0.0317 -0.2834  0.2603
  553TIP3    H1 1665   3.879   3.935   3.502  1.3126 -0.2584  0.6861
  553TIP3    H2 1666   3.865   4.081   3.538  1.9382 -0.2514  0.9066
  554TIP3   OH2 1667   6.043   0.493   4.495 -0.0026 -0.3214  0.2805
  554TIP3    H1 1668   5.994   0.412   4.503  1.4305 -1.1071  1.5578
  554TIP3    H2 1669   6.021   0.526   4.408 -2.4442 -0.8171  0.6495
  555TIP3   OH2 1670   3.065   4.216   0.132  0.0476 -0.1310 -0.1999
  555TIP3    H1 1671   3.038   4.234   0.042  3.5844 -1.1490 -1.6326
  555TIP3    H2 1672   3.029   4.129   0.150 -1.9340  0.6777  0.0255
  556TIP3   OH2 1673   6.002   0.432   0.538  0.0985  0.0478 -0.1407
  556TIP3    H1 1674   6.044   0.347   0.524  0.9028  0.1449  1.4473
  556TIP3    H2 1675   5.910   0.416   0.520  0.2609 -1.1313 -0.0227
  557TIP3   OH2 1676   2.045   0.689   2.816  0.4322  0.4345  0.2910
  557TIP3    H1 1677   1.992   0.611   2.834  1.1134  0.0636  0.7637
  557TIP3    H2 1678   2.081   0.674   2.729 -0.2519  0.6981 -0.0392
  558TIP3   OH2 1679   6.106   3.867   2.591  0.0444 -0.7130 -0.6226
  558TIP3    H1 1680   6.151   3.832   2.669  0.2077 -1.1478 -0.9076
  558TIP3    H2 1681   6.172   3.921   2.547  0.0885 -0.8240 -0.6934
  559TIP3   OH2 1682   3.450   0.637   0.647 -0.1544 -0.8261 -0.0202
  559TIP3    H1 1683   3.474   0.623   0.556  0.1808 -0.0542 -0.0535
  559TIP3    H2 1684   3.461   0.551   0.688  1.4212 -0.7892 -0.3197
  560TIP3   OH2 1685   3.386   4.984   2.521  0.1508  0.5166 -0.1722
  560TIP3    H1 1686   3.439   5.015   2.595  2.4690  0.6133 -1.7523
  560TIP3    H2 1687   3.438   4.914   2.482 -2.2170 -1.3321 -0.2688
  561TIP3   OH2 1688   3.807   4.434   3.348 -0.3688 -0.3554 -0.2495
  561TIP3    H1 1689   3.801   4.481   3.265 -1.2143 -1.5861 -0.9119
  561TIP3    H2 1690   3.814   4.503   3.414  0.2935  0.6478 -1.3227
  562TIP3   OH2 1691   2.369   5.458   4.431 -0.8477  0.6312  0.3291
  562TIP3    H1 1692   2.335   5.538   4.470 -0.7760  0.9817 -0.3125
  562TIP3    H2 1693   2.302   5.391   4.451 -0.2551  0.5158  2.0608
  563TIP3   OH2 1694   2.356   0.735   2.927 -0.3558  0.1010  0.1966
  563TIP3    H1 1695   2.319   0.677   2.860  0.3357  1.3043 -1.2947
  563TIP3    H2 1696   2.282   0.788   2.957 -0.5625 -0.0567 -0.0362
  564TIP3   OH2 1697   2.339   0.620   1.831 -0.1201 -0.5708 -0.0748
  564TIP3    H1 1698   2.252   0.645   1.859 -0.2342 -1.1204  0.0727
  564TIP3    H2 1699   2.369   0.693   1.777 -0.7309 -0.4539 -0.2588
  565TIP3   OH2 1700   3.121   3.504   2.335  0.3033 -0.3472  0.3701
  565TIP3    H1 1701   3.158   3.421   2.366  1.8533  0.1245 -0.1114
  565TIP3    H2 1702   3.185   3.570   2.363  0.3534  0.3927 -1.3708
  566TIP3   OH2 1703   6.276   1.264   0.171 -0.0888  0.3451  0.2035
  566TIP3    H1 1704   6.348   1.314   0.209  1.2441 -1.2201 -0.2070
  566TIP3    H2 1705   6.200   1.288   0.225  0.8574  1.4976  1.0669
  567TIP3   OH2 1706   4.779   3.231   0.773  0.0887 -0.2798 -0.1991
  567TIP3    H1 1707   4.782   3.175   0.696 -1.1314 -0.2830 -0.2518
  567TIP3    H2 1708   4.772   3.171   0.847 -0.4298 -0.2265 -0.2024
  568TIP3   OH2 1709   4.336   5.191   4.951  0.4756  0.3141  0.4382
  568TIP3    H1 1710   4.295   5.266   4.994  0.1025  1.0454 -1.1209
  568TIP3    H2 1711   4.418   5.177   4.998 -0.2644  0.5747  1.8549
  569TIP3   OH2 1712   1.542   1.334   1.631 -0.1876  0.1245  0.3327
  569TIP3    H1 1713   1.447   1.332   1.629 -0.2961  1.9955  1.0345
  569TIP3    H2 1714   1.566   1.405   1.571  0.7699 -0.3930  0.0762
  570TIP3   OH2 1715   3.480   2.325   3.642  0.1534 -0.6393 -0.5488
  570TIP3    H1 1716   3.442   2.371   3.567  0.9247 -0.4401 -0.8248
  570TIP3    H2 1717   3.405   2.305   3.698 -0.5679 -1.5922 -1.7917
  571TIP3   OH2 1718   4.250   2.650   4.980  0.1334  0.6406 -0.2348
  571TIP3    H1 1719   4.331   2.650   4.929 -0.8075  0.2019 -1.7902
  571TIP3    H2 1720   4.278   2.628   5.069  1.7484  0.7798 -0.6762
  572TIP3   OH2 1721   0.227   2.094   2.843 -0.2557  0.7241  0.2961
  572TIP3    H1 1722   0.179   2.089   2.926  0.4769 -1.3989  0.6484
  572TIP3    H2 1723   0.198   2.017   2.794  0.0716  1.4187 -1.0269
  573TIP3   OH2 1724   5.317   0.792   0.917 -0.1370 -0.7274 -0.1064
  573TIP3    H1 1725   5.252   0.722   0.923 -0.9490  0.0214  0.0108
  573TIP3    H2 1726   5.279   0.854   0.855 -0.5401  0.7477  1.5308
  574TIP3   OH2 1727   4.671   1.224   4.847 -0.0028  0.2838 -0.3315
  574TIP3    H1 1728   4.676   1.273   4.929 -1.8246 -0.2716  0.1735
  574TIP3    H2 1729   4.699   1.286   4.780 -0.4733  1.4385  0.4998
  575TIP3   OH2 1730   0.252   5.931   4.261 -0.5271  0.1337  0.0139
  575TIP3    H1 1731   0.177   5.988   4.276 -2.7036 -2.4833 -0.2228
  575TIP3    H2 1732   0.271   5.893   4.347  0.1465  0.2845 -0.0558
  576TIP3   OH2 1733   2.823   3.527   2.156 -0.0325 -0.7743 -0.4277
  576TIP3    H1 1734   2.841   3.476   2.235  2.2579  1.2199  0.4682
  576TIP3    H2 1735   2.737   3.565   2.172  0.3162 -0.5344  1.0557
  577TIP3   OH2 1736   3.169   0.951   3.261 -0.5212  0.3736  0.3222
  577TIP3    H1 1737   3.262   0.961   3.238 -0.5650  1.8029  0.6389
  577TIP3    H2 1738   3.151   1.024   3.320 -1.8396  0.0944  0.3011
  578TIP3   OH2 1739   3.816   0.664   4.534 -0.4538 -0.0584 -0.5857
  578TIP3    H1 1740   3.900   0.705   4.558 -0.5667  0.0992 -0.4573
  578TIP3    H2 1741   3.815   0.582   4.582 -0.5364  0.1093 -0.2934
  579TIP3   OH2 1742   0.567   1.079   2.834  0.3616 -0.4118  0.1017
  579TIP3    H1 1743   0.558   1.105   2.742  0.2917  0.2559  0.2897
  579TIP3    H2 1744   0.630   1.142   2.870  0.1121 -0.4426  0.6004
  580TIP3   OH2 1745   6.107   1.714   4.571  0.1561  0.2284  0.0770
  580TIP3    H1 1746   6.060   1.679   4.495  0.0903 -1.3373  0.7986
  580TIP3    H2 1747   6.050   1.783   4.605  0.7425  1.8283 -1.9667
  581TIP3   OH2 1748   2.682   3.427   1.556 -0.5497  0.1474  0.3198
  581TIP3    H1 1749   2.737   3.462   1.626  0.8628 -1.1106 -0.1014
  581TIP3    H2 1750   2.594   3.458   1.576  0.1877  1.6460  1.4105
  582TIP3   OH2 1751   4.923   4.114   5.013  0.3731 -0.1960  0.4806
  582TIP3    H1 1752   4.953   4.201   5.039 -1.3562  1.4066 -2.2989
  582TIP3    H2 1753   4.996   4.077   4.964  1.0045 -0.2172  1.4089
  583TIP3   OH2 1754   4.226   1.117   1.811  0.1872  0.2181  0.4054
  583TIP3    H1 1755   4.174   1.177   1.864 -1.8996 -2.5813  1.7616
  583TIP3    H2 1756   4.162   1.072   1.756  1.7866 -0.1970 -1.2130
  584TIP3   OH2 1757   4.989   2.141   1.131 -0.1359  0.6347  0.5317
  584TIP3    H1 1758   4.899   2.138   1.163 -0.3454 -1.6205 -0.0930
  584TIP3    H2 1759   4.983   2.116   1.039  1.3568 -3.3041  1.2870
  585TIP3   OH2 1760   3.140   5.319   2.173  0.4498  0.2584 -0.5412
  585TIP3    H1 1761   3.083   5.302   2.247 -1.0797 -1.9104 -2.0841
  585TIP3    H2 1762   3.219   5.357   2.212  0.2670 -1.9499  2.3708
  586TIP3   OH2 1763   5.227   1.000   0.749  0.2144  0.8400 -0.6658
  586TIP3    H1 1764   5.295   1.058   0.783 -0.1565  1.3573 -0.8087
  586TIP3    H2 1765   5.212   1.030   0.660 -0.5055  0.9991 -0.4910
  587TIP3   OH2 1766   1.547   1.585   3.187  0.4381  0.0166  0.3596
  587TIP3    H1 1767   1.573   1.675   3.203  0.3236  0.0211  0.5271
  587TIP3    H2 1768   1.605   1.554   3.117 -0.9308  0.9096 -1.2564
  588TIP3   OH2 1769   6.190   5.041   0.583 -0.0684 -0.1737 -0.1022
  588TIP3    H1 1770   6.134   5.034   0.660 -0.6352  0.6610 -0.4270
  588TIP3    H2 1771   6.241   5.120   0.598  0.2606 -0.3433 -0.3103
  589TIP3   OH2 1772   1.780   1.439   1.932 -0.1576  0.1963 -0.3720
  589TIP3    H1 1773   1.873   1.425   1.950  0.2512  3.5405  0.7672
  589TIP3    H2 1774   1.779   1.490   1.852 -1.0407  0.1555 -0.3905
  590TIP3   OH2 1775   4.970   3.478   0.565  0.5207  0.2696  0.8131
  590TIP3    H1 1776   4.962   3.404   0.504  1.0107  1.4095 -0.7039
  590TIP3    H2 1777   4.882   3.516   0.569  0.2254 -0.4669  1.7384
  591TIP3   OH2 1778   3.631   4.304   2.211  0.1508 -0.1101 -0.1940
  591TIP3    H1 1779   3.663   4.239   2.274  0.3847 -2.0328 -2.1896
  591TIP3    H2 1780   3.536   4.307   2.227  0.0928 -1.1737 -0.2306
  592TIP3   OH2 1781   0.341   4.014   2.158  0.0902  0.0335  0.3826
  592TIP3    H1 1782   0.315   3.952   2.227 -0.0313 -0.0563  0.2556
  592TIP3    H2 1783   0.422   3.978   2.123  0.2484  0.1760  0.6028
  593TIP3   OH2 1784   3.066   5.755   3.702  0.7015 -0.0698  0.4769
  593TIP3    H1 1785   3.129   5.781   3.635  0.2580  0.8574  0.4087
  593TIP3    H2 1786   3.046   5.663   3.681 -0.7288  0.6532 -1.7459
  594TIP3   OH2 1787   1.603   3.098   2.206  0.2128  0.5284 -0.1051
  594TIP3    H1 1788   1.621   3.142   2.123  0.1291  0.4067 -0.1884
  594TIP3    H2 1789   1.510   3.077   2.203  0.5027 -0.8242 -0.6455
  595TIP3   OH2 1790   5.107   4.299   3.657  0.0418 -0.4011  0.7631
  595TIP3    H1 1791   5.042   4.281   3.725 -0.8938  0.1746  0.0451
  595TIP3    H2 1792   5.078   4.380   3.616  1.0790 -0.2660  0.2513
  596TIP3   OH2 1793   1.720   0.187   4.942  0.3031 -0.2967  0.2444
  596TIP3    H1 1794   1.720   0.156   5.033  0.0074 -0.0499  0.3316
  596TIP3    H2 1795   1.628   0.207   4.925  0.7336  2.6209  0.8947
  597TIP3   OH2 1796   4.006   5.898   3.333 -0.5952  0.0439 -0.0486
  597TIP3    H1 1797   3.928   5.952   3.323  0.0897  1.3254  1.1434
  597TIP3    H2 1798   4.072   5.940   3.278 -0.5289 -0.6111 -0.4806
  598TIP3   OH2 1799   0.690   3.058   2.713  0.1116  0.3528 -0.5593
  598TIP3    H1 1800   0.673   3.052   2.619 -0.8288 -2.9219 -0.2911
  598TIP3    H2 1801   0.784   3.041   2.722 -0.0906 -0.9609 -0.8284
  599TIP3   OH2 1802   2.898   5.088   4.796 -0.1270 -0.0429  0.3590
  599TIP3    H1 1803   2.949   5.156   4.752  1.1304 -0.3137  1.3430
  599TIP3    H2 1804   2.870   5.029   4.726 -1.0214  1.3148 -0.4792
  600TIP3   OH2 1805   4.188   2.407   3.082  0.3691  0.1828  0.4089
  600TIP3    H1 1806   4.224   2.457   3.009 -0.1996 -0.9151 -0.6473
  600TIP3    H2 1807   4.195   2.315   3.055 -0.0353 -0.2392  1.6483
  601TIP3   OH2 1808   2.682   1.307   1.368 -0.2417 -0.1926  0.3389
  601TIP3    H1 1809   2.758   1.253   1.345  0.5807  1.8148 -2.2013
  601TIP3    H2 1810   2.611   1.245   1.381  1.1459 -1.9798 -0.1810
  602TIP3   OH2 1811   0.855   1.321   2.565  0.2839 -0.5967 -0.0412
  602TIP3    H1 1812   0.891   1.235   2.546  0.6294  0.1616 -3.3329
  602TIP3    H2 1813   0.830   1.357   2.480 -2.2034  1.5834  1.4365
  603TIP3   OH2 1814   3.210   1.824   0.507  0.1154  0.4853 -0.0067
  603TIP3    H1 1815   3.135   1.885   0.509  2.2880  3.3844  0.2341
  603TIP3    H2 1816   3.194   1.764   0.579 -2.9268 -0.3152 -1.2077
  604TIP3   OH2 1817   0.850   4.853   2.712  0.5091 -0.4328  0.5363
  604TIP3    H1 1818   0.777   4.913   2.701  0.3146 -0.8392 -0.5899
  604TIP3    H2 1819   0.916   4.902   2.761  0.6505  0.9662 -0.9621
  605TIP3   OH2 1820   1.947   1.021   1.888 -0.3086  0.4759  0.3320
  605TIP3    H1 1821   1.928   1.042   1.796  1.4970  0.3519 -0.1063
  605TIP3    H2 1822   2.034   0.982   1.886 -0.9068 -1.0572  1.9191
  606TIP3   OH2 1823   0.831   1.566   3.822  0.6510 -0.0412 -0.9159
  606TIP3    H1 1824   0.926   1.570   3.826  0.6895 -1.3164  0.0939
  606TIP3    H2 1825   0.805   1.529   3.906 -0.9701  3.1482  0.1387
  607TIP3   OH2 1826   1.607   3.527   0.220 -0.3869 -0.0499 -0.1631
  607TIP3    H1 1827   1.692   3.563   0.245 -0.6208  1.3242 -1.2597
  607TIP3    H2 1828   1.543   3.576   0.272 -0.5932 -0.3923 -0.0845
  608TIP3   OH2 1829   1.312   3.034   0.489  0.0798 -0.1803 -0.1455
  608TIP3    H1 1830   1.230   3.049   0.442  0.1709 -0.6133 -0.4519
  608TIP3    H2 1831   1.380   3.042   0.421  0.1325 -1.9528 -0.3439
  609TIP3   OH2 1832   4.457   5.377   3.148 -0.1063  0.0152  0.2939
  609TIP3    H1 1833   4.544   5.415   3.163  0.5262 -0.3293 -2.0347
  609TIP3    H2 1834   4.458   5.352   3.055 -1.9517 -1.9285  0.7162
  610TIP3   OH2 1835   3.687   0.876   2.747 -0.3405  0.0804 -0.3485
  610TIP3    H1 1836   3.754   0.936   2.780 -0.7631  0.5873 -0.4008
  610TIP3    H2 1837   3.662   0.825   2.823 -0.9709  0.9212  0.0250
  611TIP3   OH2 1838   5.396   4.379   2.423 -0.8508  0.1755  0.3418
  611TIP3    H1 1839   5.490   4.366   2.434 -1.0174  0.1383  1.9659
  611TIP3    H2 1840   5.356   4.313   2.479 -1.8138  1.4438  1.2034
  612TIP3   OH2 1841   3.674   2.212   3.473  0.1599 -0.1164  0.0854
  612TIP3    H1 1842   3.605   2.258   3.522  0.8525 -0.0613  1.0304
  612TIP3    H2 1843   3.749   2.210   3.532  0.5732 -1.3160 -0.4438
  613TIP3   OH2 1844   3.016   5.269   4.620 -0.2466 -0.0337 -0.1664
  613TIP3    H1 1845   3.059   5.349   4.591 -0.6555  0.0554 -0.5467
  613TIP3    H2 1846   3.048   5.201   4.560 -0.0574 -0.1144  0.0260
  614TIP3   OH2 1847   3.220   4.660   2.391 -0.0368 -0.1103 -0.3844
  614TIP3    H1 1848   3.128   4.685   2.390  0.1799  0.7763  0.1587
  614TIP3    H2 1849   3.240   4.648   2.484  0.5231  0.2304 -0.4568
  615TIP3   OH2 1850   5.363   1.919   0.323  0.6812 -0.0692  0.2838
  615TIP3    H1 1851   5.365   2.007   0.287 -0.6551 -0.8249 -1.8988
  615TIP3    H2 1852   5.376   1.862   0.247  0.7388 -1.7540  1.4996
  616TIP3   OH2 1853   1.856   2.297   3.007 -0.0142  0.7205 -0.0576
  616TIP3    H1 1854   1.810   2.269   2.928 -0.2608  1.3249 -0.1363
  616TIP3    H2 1855   1.905   2.374   2.980  1.6671 -0.3442 -0.1653
  617TIP3   OH2 1856   0.071   2.703   3.025  0.2028  0.1297  0.4621
  617TIP3    H1 1857   0.045   2.641   2.957  2.3805  0.6483 -0.9446
  617TIP3    H2 1858   0.044   2.788   2.991  0.7705  0.3350  0.5158
  618TIP3   OH2 1859   0.678   2.649   4.883 -0.3742 -0.2970 -0.3492
  618TIP3    H1 1860   0.596   2.630   4.928 -0.8517  1.0176 -0.6292
  618TIP3    H2 1861   0.683   2.583   4.813  0.6698 -2.7699  1.8667
  619TIP3   OH2 1862   2.202   1.501   0.320 -0.1201  0.5900  1.0514
  619TIP3    H1 1863   2.120   1.529   0.362  0.1134  0.8565  1.3389
  619TIP3    H2 1864   2.240   1.583   0.287 -0.0386  0.4475  0.7933
  620TIP3   OH2 1865   4.759   0.028   1.642 -0.0390  0.7470 -0.0276
  620TIP3    H1 1866   4.700   0.103   1.649 -0.2592  0.6273 -0.5125
  620TIP3    H2 1867   4.732  -0.016   1.561 -2.3605 -1.9522  1.9886
  621TIP3   OH2 1868   3.321   2.784   1.820  0.0567  0.2776  0.2325
  621TIP3    H1 1869   3.328   2.708   1.762 -1.3266  1.3995 -1.5147
  621TIP3    H2 1870   3.404   2.787   1.866  0.9589 -1.0898 -1.2145
  622TIP3   OH2 1871   2.886   0.061   2.454 -0.0790 -0.5607  0.1097
  622TIP3    H1 1872   2.810   0.005   2.438 -0.0989 -0.8763  1.2280
  622TIP3    H2 1873   2.961   0.005   2.433 -0.1248 -0.6465  0.1742
  623TIP3   OH2 1874   1.924   1.142   2.120 -0.4941  0.3337 -0.2233
  623TIP3    H1 1875   2.011   1.182   2.126 -1.2754  2.0769 -0.0291
  623TIP3    H2 1876   1.933   1.074   2.054  1.1657  0.0576  0.2398
  624TIP3   OH2 1877   5.050   2.396   1.241 -0.2199  0.1057  0.3732
  624TIP3    H1 1878   5.136   2.403   1.199  0.7717 -3.1764  1.5751
  624TIP3    H2 1879   5.001   2.335   1.185 -2.1661  2.4380 -0.6851
  625TIP3   OH2 1880   3.169   1.453   0.765 -0.1595  0.1865 -0.2024
  625TIP3    H1 1881   3.194   1.361   0.765  1.7318  0.6597  0.2527
  625TIP3    H2 1882   3.099   1.458   0.700  0.0178 -1.4921 -0.5842
  626TIP3   OH2 1883   1.607   4.298   4.904  0.1670 -0.0968  0.0453
  626TIP3    H1 1884   1.687   4.346   4.928  0.4217 -0.2377 -0.5000
  626TIP3    H2 1885   1.579   4.337   4.822 -0.1167 -0.2979  0.0443
  627TIP3   OH2 1886   4.305   0.080   1.690 -0.3405 -0.3963  0.2593
  627TIP3    H1 1887   4.276   0.001   1.736  0.3091  0.2743  1.9055
  627TIP3    H2 1888   4.362   0.048   1.620  0.1263 -1.3913  1.0663
  628TIP3   OH2 1889   1.472   1.290   1.096  0.1128  0.5047 -0.1160
  628TIP3    H1 1890   1.517   1.375   1.092  0.5042  0.2755 -0.8077
  628TIP3    H2 1891   1.533   1.229   1.053 -0.9414  0.2289 -1.2795
  629TIP3   OH2 1892   5.591   3.678   3.398 -0.1031  0.2858 -0.5037
  629TIP3    H1 1893   5.610   3.770   3.380  1.1528  0.0435 -0.5231
  629TIP3    H2 1894   5.638   3.630   3.330 -0.5584 -0.3791 -0.3550
  630TIP3   OH2 1895   2.119   5.097   4.674 -0.1096  0.5024 -0.1820
  630TIP3    H1 1896   2.211   5.086   4.702  0.0627  0.7823 -0.6344
  630TIP3    H2 1897   2.115   5.187   4.640  0.0546 -0.2974 -2.4561
  631TIP3   OH2 1898   5.853   1.165   1.849 -0.1768  0.4179  0.2124
  631TIP3    H1 1899   5.860   1.099   1.780 -2.9423  0.2032  0.0333
  631TIP3    H2 1900   5.797   1.233   1.812  0.4984  1.6223  1.3219
  632TIP3   OH2 1901   0.751   1.948   1.445  0.2555 -0.4043 -0.4584
  632TIP3    H1 1902   0.782   2.022   1.393 -0.4666 -0.6758 -1.2976
  632TIP3    H2 1903   0.659   1.967   1.461  0.0790 -1.0995 -0.6343
  633TIP3   OH2 1904   4.276   0.477   3.839  0.1140  0.0230 -0.3280
  633TIP3    H1 1905   4.190   0.458   3.877  0.9996 -1.0841  1.2399
  633TIP3    H2 1906   4.275   0.433   3.754 -0.3438 -1.2973  0.3296
  634TIP3   OH2 1907   5.903   2.529   2.308  0.2770  0.2116  0.0230
  634TIP3    H1 1908   5.872   2.501   2.395  0.1400 -0.5559 -0.2637
  634TIP3    H2 1909   5.954   2.608   2.325 -1.4837  1.2909  0.5660
  635TIP3   OH2 1910   6.251   2.441   1.991  0.0289 -0.0571  0.0507
  635TIP3    H1 1911   6.329   2.464   2.042 -1.0341  1.0529  1.2308
  635TIP3    H2 1912   6.266   2.350   1.965  1.2390 -0.1980  1.1528
  636TIP3   OH2 1913   2.397   2.806   2.334  0.0348 -0.0019  0.6210
  636TIP3    H1 1914   2.361   2.757   2.260 -0.9655  1.2067  0.2815
  636TIP3    H2 1915   2.436   2.884   2.295  2.2081 -0.7706  1.0861
  637TIP3   OH2 1916   0.107   0.366   3.101  0.0348 -0.3037 -0.2392
  637TIP3    H1 1917   0.124   0.278   3.067 -0.0239 -1.1679  1.8635
  637TIP3    H2 1918   0.040   0.402   3.043  0.1414 -1.5885 -1.1893
  638TIP3   OH2 1919   0.530   0.077   1.426 -0.0957 -0.2318 -0.1956
  638TIP3    H1 1920   0.506   0.169   1.426 -1.5974 -0.5634  1.5647
  638TIP3    H2 1921   0.619   0.075   1.390  1.5285  2.3614  3.1069
  639TIP3   OH2 1922   5.165   1.272   0.291  0.0936 -0.1422  0.0812
  639TIP3    H1 1923   5.183   1.303   0.202 -0.5092  0.2490  0.0949
  639TIP3    H2 1924   5.070   1.270   0.297  0.1072  1.1226  1.1598
  640TIP3   OH2 1925   6.026   1.980   2.834 -0.2929 -0.8986  0.1425
  640TIP3    H1 1926   5.964   1.913   2.862  0.4360 -0.6384  2.5851
  640TIP3    H2 1927   6.086   1.934   2.775 -0.4775 -2.1320  0.8928
  641TIP3   OH2 1928   0.442   3.378   2.165 -0.3000 -0.1849  0.3238
  641TIP3    H1 1929   0.430   3.289   2.198 -2.4758 -0.5119 -1.1315
  641TIP3    H2 1930   0.490   3.367   2.083  0.1902  0.0911  0.5663
  642TIP3   OH2 1931   6.338   4.290   2.056 -0.2405  0.7514  0.3633
  642TIP3    H1 1932   6.355   4.198   2.039  1.3095  0.7612  1.6586
  642TIP3    H2 1933   6.270   4.290   2.123 -0.7322  0.5810 -0.1258
  643TIP3   OH2 1934   1.924   0.903   4.249  0.0802  0.1140  0.5303
  643TIP3    H1 1935   1.956   0.920   4.338  0.2653 -0.5109  0.5894
  643TIP3    H2 1936   1.893   0.812   4.253 -1.0704  0.4734  0.2950
  644TIP3   OH2 1937   2.210   5.408   3.677 -0.0287 -0.0749 -0.2451
  644TIP3    H1 1938   2.179   5.318   3.690 -0.0979  0.0332  0.4114
  644TIP3    H2 1939   2.242   5.410   3.587 -0.7258 -0.5537 -0.5195
  645TIP3   OH2 1940   5.264   3.827   2.730 -0.0472 -0.6519  0.2985
  645TIP3    H1 1941   5.207   3.758   2.697 -0.7693  0.8529 -1.7735
  645TIP3    H2 1942   5.352   3.799   2.704 -0.1827 -1.3477  0.5515
  646TIP3   OH2 1943   2.076   1.184   1.481  0.0326 -0.7946  0.0126
  646TIP3    H1 1944   2.144   1.117   1.484  0.7452 -0.1025 -0.2943
  646TIP3    H2 1945   2.079   1.217   1.391 -1.6215 -1.6690 -0.4035
  647TIP3   OH2 1946   2.877   0.707   4.083 -0.2809  0.1733 -0.4259
  647TIP3    H1 1947   2.926   0.633   4.118 -0.8415  0.3250  0.7441
  647TIP3    H2 1948   2.924   0.784   4.114 -0.4063  0.3130 -0.5800
  648TIP3   OH2 1949   5.262   0.163   2.440 -0.0055  0.1169 -0.0751
  648TIP3    H1 1950   5.222   0.076   2.447  0.5002 -0.2553 -1.4079
  648TIP3    H2 1951   5.329   0.152   2.373  2.3592  0.7121  2.0642
  649TIP3   OH2 1952   1.887   0.665   4.652  0.2142  0.0849  0.7940
  649TIP3    H1 1953   1.886   0.649   4.746  3.1698  1.0241  1.1022
  649TIP3    H2 1954   1.866   0.758   4.644 -1.6023 -0.3230  0.3228
  650TIP3   OH2 1955   5.732   3.046   1.781  0.7611  0.3393 -0.0917
  650TIP3    H1 1956   5.820   3.009   1.783 -0.1892 -2.1074 -0.3730
  650TIP3    H2 1957   5.732   3.105   1.705  2.2870  0.8579  0.2694
  651TIP3   OH2 1958   0.917   0.006   0.386  0.2398 -0.0236 -0.0467
  651TIP3    H1 1959   0.891   0.088   0.344 -2.3259 -0.9552 -0.4641
  651TIP3    H2 1960   0.907   0.024   0.480 -0.0631  0.2068 -0.1221
  652TIP3   OH2 1961   1.939   0.126   3.434 -0.0135  0.0721 -0.0666
  652TIP3    H1 1962   1.857   0.166   3.463 -0.4120 -0.1084 -0.8853
  652TIP3    H2 1963   2.006   0.191   3.453 -0.8336  1.9280 -2.8009
  653TIP3   OH2 1964   5.783   5.769   1.829  0.4908  0.0402 -0.0265
  653TIP3    H1 1965   5.832   5.700   1.874 -0.3013  1.0401  2.5630
  653TIP3    H2 1966   5.784   5.743   1.737  1.9717 -2.3123  0.5667
  654TIP3   OH2 1967   2.412   4.808   0.392 -0.0963  0.7859 -0.3899
  654TIP3    H1 1968   2.432   4.816   0.485  0.3523  0.5700 -0.4686
  654TIP3    H2 1969   2.386   4.716   0.381 -1.3653  1.1110 -0.2459
  655TIP3   OH2 1970   3.437   1.633   5.016 -0.0534  0.5078 -0.1903
  655TIP3    H1 1971   3.357   1.581   5.010  1.4761 -1.9427 -0.5029
  655TIP3    H2 1972   3.448   1.649   5.110 -1.3378  1.6775 -0.2018
  656TIP3   OH2 1973   2.048   3.800   5.164 -0.3830 -0.2244  0.0282
  656TIP3    H1 1974   2.020   3.841   5.082  0.6471  0.4034 -0.0213
  656TIP3    H2 1975   2.136   3.834   5.179 -0.1622 -1.1399  0.8627
  657TIP3   OH2 1976   2.025   2.957   3.295 -0.3881  0.3106  0.0963
  657TIP3    H1 1977   2.083   3.013   3.346 -0.5138 -1.4603  2.3197
  657TIP3    H2 1978   1.969   3.018   3.246 -1.1945  2.2031  3.1242
  658TIP3   OH2 1979   4.888   1.272   1.417 -0.0327 -0.5326  0.0536
  658TIP3    H1 1980   4.863   1.259   1.325 -0.7211 -1.1479  0.3164
  658TIP3    H2 1981   4.806   1.263   1.466  0.3556 -0.3890  0.7426
  659TIP3   OH2 1982   1.778   2.308   1.466  0.4605 -0.3005  0.4001
  659TIP3    H1 1983   1.760   2.390   1.512  2.5168  0.6506 -0.3857
  659TIP3    H2 1984   1.725   2.243   1.512 -3.5413  1.8532 -0.7514
  660TIP3   OH2 1985   0.583   1.522   0.836  0.5330  0.3363 -0.2588
  660TIP3    H1 1986   0.547   1.478   0.759  0.2353 -1.3184  0.7668
  660TIP3    H2 1987   0.527   1.598   0.850  0.7467  0.8058 -1.7958
  661TIP3   OH2 1988   6.028   3.639   1.724 -0.4656  0.0263 -0.8690
  661TIP3    H1 1989   6.001   3.627   1.815 -1.6799 -1.0027 -1.3446
  661TIP3    H2 1990   5.989   3.566   1.677  0.7349  0.1375 -2.1168
  662TIP3   OH2 1991   1.917   2.308   0.484 -0.5531  0.1084  0.3338
  662TIP3    H1 1992   1.954   2.327   0.570  2.3730 -0.1391 -0.7784
  662TIP3    H2 1993   1.987   2.263   0.437 -2.2737 -0.2837 -2.0043
  663TIP3   OH2 1994   0.938   2.416   3.616 -0.4115  0.0559  0.1108
  663TIP3    H1 1995   0.949   2.435   3.523  0.1922 -0.7873 -0.0014
  663TIP3    H2 1996   0.844   2.404   3.628 -0.5149  0.4101 -0.3397
  664TIP3   OH2 1997   0.754   1.457   2.812  0.2846  0.1572  0.3296
  664TIP3    H1 1998   0.728   1.376   2.856 -0.4766  0.7585  1.0154
  664TIP3    H2 1999   0.745   1.437   2.719  0.6422 -0.7152  0.4737
  665TIP3   OH2 2000   3.629   3.780   2.830  0.1650  0.3708 -0.8696
  665TIP3    H1 2001   3.677   3.804   2.910  0.2267  0.6986 -1.0010
  665TIP3    H2 2002   3.692   3.792   2.759  1.4218 -3.7101 -0.6761
  666TIP3   OH2 2003   0.394   4.579   2.275 -0.9253 -0.4574 -0.2814
  666TIP3    H1 2004   0.461   4.608   2.338 -0.5894  1.9568 -1.6366
  666TIP3    H2 2005   0.417   4.488   2.257  0.9484 -0.2155  0.6012
  667TIP3   OH2 2006   3.491   5.166   1.632 -0.2879  0.1985 -1.0929
  667TIP3    H1 2007   3.446   5.122   1.705  0.3974  2.1395  0.5821
  667TIP3    H2 2008   3.576   5.123   1.627 -0.3295  0.0705 -0.7224
  668TIP3   OH2 2009   3.631   5.548   3.568 -0.0886 -0.3263 -0.0999
  668TIP3    H1 2010   3.671   5.635   3.565  0.9317 -0.7087  1.3830
  668TIP3    H2 2011   3.689   5.493   3.515 -1.7418  0.2029 -2.6392
  669TIP3   OH2 2012   3.095   1.409   2.793 -0.2971  0.1524  0.2895
  669TIP3    H1 2013   3.157   1.364   2.850 -0.6055  0.0052  0.5106
  669TIP3    H2 2014   3.043   1.339   2.754  0.3362  0.1995 -0.6895
  670TIP3   OH2 2015   4.451   3.596   2.121  0.0138 -0.3536  0.1045
  670TIP3    H1 2016   4.429   3.682   2.158 -0.3662 -0.3500 -0.1290
  670TIP3    H2 2017   4.535   3.610   2.077 -0.1345 -0.0549 -0.0869
  671TIP3   OH2 2018   1.228   5.545   2.189 -0.4284 -0.6044  0.5217
  671TIP3    H1 2019   1.287   5.526   2.116 -0.1979 -1.3733  0.9054
  671TIP3    H2 2020   1.213   5.460   2.231 -0.0778 -0.0706  1.7455
  672TIP3   OH2 2021   2.014   2.620   2.416 -0.2174  0.6768 -0.3499
  672TIP3    H1 2022   2.044   2.665   2.336  1.0839  0.4243 -0.0335
  672TIP3    H2 2023   1.922   2.643   2.423 -0.0371  1.7796 -1.2167
  673TIP3   OH2 2024   5.706   1.474   0.153 -0.4897  0.2941 -0.6091
  673TIP3    H1 2025   5.643   1.413   0.115  0.6999  0.0591 -2.3359
  673TIP3    H2 2026   5.760   1.421   0.211 -0.3183 -0.0272 -1.0572
  674TIP3   OH2 2027   3.919   2.490   1.132  0.2686 -0.0520 -0.3196
  674TIP3    H1 2028   3.863   2.413   1.132  0.7423 -0.4421  1.0703
  674TIP3    H2 2029   3.994   2.465   1.078  0.2989 -0.4862 -0.0851
  675TIP3   OH2 2030   0.354   3.052   0.143 -0.6760 -0.0627  0.2980
  675TIP3    H1 2031   0.434   3.072   0.095 -0.4967 -1.3503  0.0077
  675TIP3    H2 2032   0.286   3.103   0.098 -0.2042  0.1750 -0.1601
  676TIP3   OH2 2033   4.536   0.892   4.029  0.2555  0.4847  0.4659
  676TIP3    H1 2034   4.501   0.826   3.969 -0.2247  0.4799  0.7430
  676TIP3    H2 2035   4.585   0.952   3.973  0.3184  0.1430  0.1503
  677TIP3   OH2 2036   3.810   3.330   0.631  0.0425 -0.2144  0.4140
  677TIP3    H1 2037   3.894   3.300   0.595 -0.2214 -0.7941  0.2866
  677TIP3    H2 2038   3.792   3.270   0.703 -0.4182 -0.2773  0.2460
  678TIP3   OH2 2039   6.219   2.468   0.299 -0.6559 -0.5878  0.3392
  678TIP3    H1 2040   6.227   2.381   0.259  0.4765  0.1767 -1.2063
  678TIP3    H2 2041   6.131   2.497   0.276 -0.9564 -1.2041  0.6647
  679TIP3   OH2 2042   2.671   0.655   0.724  0.2233 -0.2969 -0.0077
  679TIP3    H1 2043   2.693   0.672   0.816 -0.8474 -1.7323  0.5581
  679TIP3    H2 2044   2.642   0.740   0.690  0.4601  0.2205  1.0426
  680TIP3   OH2 2045   5.075   1.903   0.327 -0.2083  0.0414 -0.5147
  680TIP3    H1 2046   5.145   1.967   0.339 -0.3864  0.1085  0.2267
  680TIP3    H2 2047   5.119   1.818   0.330  0.1250  0.1213 -2.1858
  681TIP3   OH2 2048   3.959   5.692   3.744 -0.1257 -0.4020  0.1301
  681TIP3    H1 2049   4.045   5.714   3.780 -0.0709  1.2027 -0.9002
  681TIP3    H2 2050   3.897   5.737   3.801 -0.1902 -0.1586 -0.1320
  682TIP3   OH2 2051   1.272   5.200   4.040 -0.0037  0.3259 -0.4851
  682TIP3    H1 2052   1.323   5.156   4.107 -1.2866  0.6890  0.7739
  682TIP3    H2 2053   1.243   5.282   4.081 -1.6483  0.0967 -1.1013
  683TIP3   OH2 2054   1.293   2.622   2.848 -0.0182  0.4457 -0.2511
  683TIP3    H1 2055   1.270   2.633   2.756  1.2154  0.9566 -0.5264
  683TIP3    H2 2056   1.259   2.536   2.872 -0.3302  0.2982 -1.1939
  684TIP3   OH2 2057   2.842   4.517   1.569  0.0738  0.2354  0.1190
  684TIP3    H1 2058   2.789   4.472   1.635  0.0547  0.1454  0.0427
  684TIP3    H2 2059   2.859   4.450   1.503 -1.1591  0.6982 -0.7170
  685TIP3   OH2 2060   1.967   4.907   1.705  0.5695  0.5471  0.5545
  685TIP3    H1 2061   1.951   4.813   1.700 -0.6204  0.7790 -0.3316
  685TIP3    H2 2062   2.056   4.917   1.670  0.7850 -0.2578  0.8467
  686TIP3   OH2 2063   5.269   0.901   2.581  0.1692 -0.5228 -0.3901
  686TIP3    H1 2064   5.203   0.847   2.624  0.7370 -1.4701 -0.6822
  686TIP3    H2 2065   5.352   0.867   2.612  0.5392  1.1238  0.5204
  687TIP3   OH2 2066   3.989   1.447   2.333  0.1202 -0.6931  0.1835
  687TIP3    H1 2067   3.953   1.377   2.279  1.3737 -1.0102 -0.2741
  687TIP3    H2 2068   4.076   1.465   2.296  0.8635 -0.6386  1.8282
  688TIP3   OH2 2069   2.249   0.966   1.762  0.0396 -0.4171  0.4560
  688TIP3    H1 2070   2.277   1.045   1.717 -1.6347 -0.2033 -0.2861
  688TIP3    H2 2071   2.329   0.915   1.773  0.8210  0.4462 -0.9399
  689TIP3   OH2 2072   4.392   1.262   0.389 -0.5713 -0.0368  0.1838
  689TIP3    H1 2073   4.349   1.310   0.318  0.3154  0.2215 -0.2034
  689TIP3    H2 2074   4.343   1.285   0.467 -0.8372  0.6282 -0.1683
  690TIP3   OH2 2075   2.242   0.711   0.496 -0.2951 -0.0220  0.0954
  690TIP3    H1 2076   2.297   0.652   0.547 -0.0981  0.7553  0.8156
  690TIP3    H2 2077   2.164   0.723   0.550 -1.0238 -0.8202 -0.7470
  691TIP3   OH2 2078   2.684   1.527   4.743  0.4205  0.6133 -0.3441
  691TIP3    H1 2079   2.656   1.611   4.781  0.8540  1.4707 -1.8165
  691TIP3    H2 2080   2.685   1.543   4.649 -0.5197 -1.3957 -0.7488
  692TIP3   OH2 2081   6.305   1.741   2.129 -0.1439  0.4532  0.4098
  692TIP3    H1 2082   6.353   1.658   2.126 -2.3710 -0.9796  1.4371
  692TIP3    H2 2083   6.369   1.807   2.104  1.2910 -1.7299 -2.2311
  693TIP3   OH2 2084   4.220   1.469   0.067 -0.8524 -0.3229 -0.6114
  693TIP3    H1 2085   4.181   1.417   0.137 -0.5329  0.3748  0.1174
  693TIP3    H2 2086   4.252   1.548   0.112 -0.1234 -0.1213 -1.4561
  694TIP3   OH2 2087   3.405   5.736   4.324  0.1908 -0.1538 -0.3377
  694TIP3    H1 2088   3.325   5.747   4.272  0.5720 -0.0598 -0.9203
  694TIP3    H2 2089   3.386   5.663   4.383  0.6785 -2.1773 -2.5332
  695TIP3   OH2 2090   0.985   0.036   3.491 -0.2577 -0.5907 -0.2997
  695TIP3    H1 2091   1.003  -0.020   3.567 -0.3289  0.6829  0.6854
  695TIP3    H2 2092   0.890   0.043   3.489 -0.3239 -1.4199 -1.1371
  696TIP3   OH2 2093   5.505   2.901   2.861 -0.0259 -0.0440 -0.3362
  696TIP3    H1 2094   5.457   2.930   2.938 -1.2880  1.8252 -1.7462
  696TIP3    H2 2095   5.446   2.919   2.788  1.6297 -0.5618 -1.8623
  697TIP3   OH2 2096   4.157   4.681   3.905 -0.3142  0.2716  0.1734
  697TIP3    H1 2097   4.223   4.628   3.948 -0.1563  0.1455 -0.2227
  697TIP3    H2 2098   4.161   4.655   3.813  0.6323  1.8442 -0.2708
  698TIP3   OH2 2099   2.525   1.824   2.628  0.3334  0.4914 -0.4297
  698TIP3    H1 2100   2.492   1.812   2.539  1.2013  0.6692 -0.7875
  698TIP3    H2 2101   2.588   1.753   2.640 -2.1077 -1.5431  1.2478
  699TIP3   OH2 2102   4.783   5.002   1.398  0.0765 -0.5195  0.1144
  699TIP3    H1 2103   4.854   5.031   1.455 -0.6695  0.7531  0.4264
  699TIP3    H2 2104   4.746   4.925   1.442  0.3272 -0.3103  0.6983
  700TIP3   OH2 2105   2.560   2.663   3.183 -0.1423 -0.1696  0.2666
  700TIP3    H1 2106   2.497   2.594   3.207 -0.3140  0.0165  0.3560
  700TIP3    H2 2107   2.541   2.735   3.244  1.5064 -0.8557  1.6838
  701TIP3   OH2 2108   2.638   0.413   1.652 -0.7482 -0.1486 -0.5592
  701TIP3    H1 2109   2.553   0.396   1.693 -0.4600 -0.2771 -0.0129
  701TIP3    H2 2110   2.683   0.328   1.655  1.5892  0.9272  4.1889
  702TIP3   OH2 2111   1.942   0.352   4.948  0.5996 -0.5543 -0.1208
  702TIP3    H1 2112   1.889   0.387   4.876  1.1962 -1.8183 -1.2284
  702TIP3    H2 2113   1.879   0.307   5.004  0.1320  0.3947  0.1223
  703TIP3   OH2 2114   2.484   0.055   1.047  0.2099 -0.3982 -0.6996
  703TIP3    H1 2115   2.442   0.136   1.018 -0.2520 -0.1882  0.5022
  703TIP3    H2 2116   2.564   0.049   0.994  0.4334  1.0291 -0.5697
  704TIP3   OH2 2117   5.804   3.571   2.723  0.4137 -0.1340  0.1938
  704TIP3    H1 2118   5.832   3.513   2.794 -0.9219 -0.9892  0.0653
  704TIP3    H2 2119   5.709   3.578   2.733  0.1812 -0.2737 -1.4928
  705TIP3   OH2 2120   4.222   4.064   1.188  0.6206  0.1257 -0.1828
  705TIP3    H1 2121   4.305   4.018   1.176  1.9217  2.3587 -0.3931
  705TIP3    H2 2122   4.235   4.116   1.267 -1.4879 -1.2403  1.1286
  706TIP3   OH2 2123   3.595   3.689   1.391 -0.4947 -0.1667  0.2489
  706TIP3    H1 2124   3.665   3.718   1.332 -1.1137  1.0847  0.0971
  706TIP3    H2 2125   3.640   3.664   1.471  0.1743  0.1743 -0.0145
  707TIP3   OH2 2126   1.154   5.568   3.251  0.3862  0.6733  0.2871
  707TIP3    H1 2127   1.078   5.606   3.207  0.4495  0.7992  0.2874
  707TIP3    H2 2128   1.207   5.533   3.179  0.8795  1.5818  0.1982
  708TIP3   OH2 2129   5.275   1.125   2.368  0.7490  0.2941  0.1411
  708TIP3    H1 2130   5.213   1.127   2.295  0.9714  1.0419 -0.0361
  708TIP3    H2 2131   5.251   1.047   2.417 -1.0149  1.0936  0.6648
  709TIP3   OH2 2132   5.252   3.449   0.852  0.0471 -0.0783  0.0401
  709TIP3    H1 2133   5.163   3.414   0.859  0.1693 -1.1712 -2.6041
  709TIP3    H2 2134   5.292   3.430   0.936 -2.2308  0.5796  1.3729
  710TIP3   OH2 2135   2.800   4.051   4.541 -0.1138  0.1957 -0.2780
  710TIP3    H1 2136   2.778   4.001   4.620 -0.2597  0.0377 -0.4173
  710TIP3    H2 2137   2.887   4.088   4.560  0.3707 -0.7904 -0.4927
  711TIP3   OH2 2138   1.983   3.015   1.049 -0.4609  0.1116  0.6100
  711TIP3    H1 2139   2.029   3.042   0.969 -0.5035  2.8700  1.3859
  711TIP3    H2 2140   2.019   2.929   1.070 -0.0427 -0.4504 -2.0324
  712TIP3   OH2 2141   4.674   2.480   2.535 -0.3488  0.3602  0.2253
  712TIP3    H1 2142   4.755   2.456   2.579 -0.3429 -1.5124 -0.7279
  712TIP3    H2 2143   4.607   2.423   2.574 -0.8878  0.6925 -0.1974
  713TIP3   OH2 2144   6.060   0.063   0.304  0.2886 -0.1586 -0.9160
  713TIP3    H1 2145   5.998  -0.008   0.323  0.0487 -0.1529 -1.6149
  713TIP3    H2 2146   6.008   0.126   0.253 -0.2554  1.8187  1.8992
  714TIP3   OH2 2147   0.522   0.340   3.444  0.0982  0.0769  0.3768
  714TIP3    H1 2148   0.517   0.431   3.473  2.4368  0.3449  0.1591
  714TIP3    H2 2149   0.502   0.342   3.351  1.5218  0.6101  0.0667
  715TIP3   OH2 2150   4.847   5.448   2.871  0.8942  0.6450  0.4470
  715TIP3    H1 2151   4.879   5.369   2.913  2.0811  0.4207 -0.7912
  715TIP3    H2 2152   4.751   5.440   2.874  0.9013 -2.2286 -2.0326
  716TIP3   OH2 2153   3.542   2.075   1.217  0.1840 -0.0656 -0.6939
  716TIP3    H1 2154   3.521   2.039   1.131 -2.2578  1.1352 -0.6894
  716TIP3    H2 2155   3.499   2.015   1.279 -0.3801  0.5567 -0.4758
  717TIP3   OH2 2156   6.190   0.780   3.837 -0.1338  0.4811  0.0102
  717TIP3    H1 2157   6.148   0.828   3.765  0.2635  0.8275  0.0078
  717TIP3    H2 2158   6.162   0.826   3.916 -0.6367  0.0512  0.0930
  718TIP3   OH2 2159   0.109   1.938   3.914  0.4304  0.0236 -0.1105
  718TIP3    H1 2160   0.133   1.973   4.000  1.4652  0.9788 -0.7506
  718TIP3    H2 2161   0.121   2.012   3.854 -0.1722 -0.6549 -1.0972
  719TIP3   OH2 2162   2.476   4.436   0.183 -0.3046 -0.0294 -0.3233
  719TIP3    H1 2163   2.561   4.407   0.215  0.7561  0.9182 -2.0886
  719TIP3    H2 2164   2.442   4.362   0.134 -0.8110 -0.6197  0.8767
  720TIP3   OH2 2165   1.790   2.836   3.864  0.3271 -0.1239  0.0953
  720TIP3    H1 2166   1.709   2.819   3.815  0.7061  0.5378 -0.7999
  720TIP3    H2 2167   1.848   2.878   3.800  0.8654  0.7129  1.1090
  721TIP3   OH2 2168   5.573   1.887   2.900  0.2540  0.2360  0.1122
  721TIP3    H1 2169   5.609   1.969   2.865  0.5001 -0.6443 -1.7852
  721TIP3    H2 2170   5.648   1.829   2.908 -0.2043 -0.4220 -0.3590
  722TIP3   OH2 2171   4.472   5.768   3.059  0.2423  0.8510  0.0519
  722TIP3    H1 2172   4.565   5.750   3.042 -0.0630 -0.8480  0.0160
  722TIP3    H2 2173   4.471   5.857   3.094  2.1173  0.2687  1.7990
  723TIP3   OH2 2174   3.589   5.910   4.184  0.5538  0.4751  0.2886
  723TIP3    H1 2175   3.512   5.889   4.237  0.8695 -0.0289  0.5504
  723TIP3    H2 2176   3.596   6.005   4.188  1.2644  0.3740  2.1214
  724TIP3   OH2 2177   0.318   3.009   1.463  0.0408 -0.0585 -0.3222
  724TIP3    H1 2178   0.305   3.104   1.461 -0.4960 -0.1226 -2.1587
  724TIP3    H2 2179   0.354   2.991   1.550  0.0308  1.8027  0.1087
  725TIP3   OH2 2180   0.680   0.473   1.985  0.0145  0.1963 -0.1634
  725TIP3    H1 2181   0.594   0.483   1.944 -0.1507 -1.0881 -0.1876
  725TIP3    H2 2182   0.666   0.407   2.054  0.7994  0.5817  0.3865
  726TIP3   OH2 2183   5.761   1.331   3.146 -0.0357 -0.3350 -0.4847
  726TIP3    H1 2184   5.689   1.289   3.192 -1.3495  1.1107 -1.1489
  726TIP3    H2 2185   5.808   1.379   3.215 -1.9503  1.7670 -0.5422
  727TIP3   OH2 2186   4.942   5.152   3.368  0.0518  0.1037 -0.0703
  727TIP3    H1 2187   4.920   5.234   3.325 -1.8383 -0.2442  0.1448
  727TIP3    H2 2188   4.857   5.113   3.390  0.9306 -1.1607  1.2411
  728TIP3   OH2 2189   1.857   0.251   0.592 -0.3834  0.1570  0.2599
  728TIP3    H1 2190   1.937   0.253   0.645  0.9051 -0.8153 -1.5094
  728TIP3    H2 2191   1.819   0.338   0.603  0.8076  0.5815  1.3326
  729TIP3   OH2 2192   4.967   3.981   2.616  0.3326 -0.0446 -0.1233
  729TIP3    H1 2193   5.011   3.910   2.663 -1.1975 -0.8319  0.2148
  729TIP3    H2 2194   4.946   3.943   2.530 -1.1086 -0.2980  0.3017
  730TIP3   OH2 2195   1.399   3.011   2.805 -0.5324 -0.2229  0.2640
  730TIP3    H1 2196   1.366   3.012   2.895  0.3397 -1.2519  0.6081
  730TIP3    H2 2197   1.488   3.044   2.811 -0.9627  1.1595 -0.4635
  731TIP3   OH2 2198   0.166   1.955   2.069 -0.6089 -0.4124  0.3535
  731TIP3    H1 2199   0.196   1.927   1.983 -0.8522  1.9685 -0.5848
  731TIP3    H2 2200   0.244   1.950   2.125 -0.2690 -1.2555 -0.1836
  732TIP3   OH2 2201   1.521   5.170   1.483  0.1627 -0.1787  0.6828
  732TIP3    H1 2202   1.596   5.114   1.506 -0.1748  0.1524  2.7004
  732TIP3    H2 2203   1.490   5.205   1.566 -1.1780  1.0779 -0.2972
  733TIP3   OH2 2204   0.656   3.186   2.999 -0.5253  0.1893  0.0386
  733TIP3    H1 2205   0.625   3.115   3.056  0.5800 -0.4169 -0.0840
  733TIP3    H2 2206   0.589   3.194   2.931 -0.7658 -0.5908  0.1794
  734TIP3   OH2 2207   2.496   0.862   1.780 -0.7570  0.3701 -1.0186
  734TIP3    H1 2208   2.526   0.891   1.693  1.2132 -0.3259 -0.6366
  734TIP3    H2 2209   2.574   0.821   1.819 -2.1325 -1.1214  0.3012
  735TIP3   OH2 2210   5.410   2.302   1.624  0.2788  0.0900  0.0266
  735TIP3    H1 2211   5.324   2.297   1.581 -0.1732  0.4824  0.8554
  735TIP3    H2 2212   5.467   2.246   1.571 -0.4697 -0.1120 -0.5831
  736TIP3   OH2 2213   0.059   2.928   4.858  0.5382 -0.6059  0.5320
  736TIP3    H1 2214  -0.013   2.900   4.801  1.1502  1.7431 -1.5338
  736TIP3    H2 2215   0.016   2.969   4.932 -0.2945  0.2459 -0.3987
  737TIP3   OH2 2216   3.159   4.320   2.924 -0.0805 -0.4536  0.3808
  737TIP3    H1 2217   3.124   4.351   3.007 -1.3018  0.9742 -0.6218
  737TIP3    H2 2218   3.092   4.260   2.891 -0.1388 -0.1177 -0.1131
  738TIP3   OH2 2219   1.775   5.382   4.597  0.4235 -0.4695  0.8249
  738TIP3    H1 2220   1.701   5.363   4.654 -2.1076  0.6827 -1.8104
  738TIP3    H2 2221   1.740   5.371   4.508  2.8385  2.0622 -0.5916
  739TIP3   OH2 2222   4.554   5.870   3.334 -0.2450  0.3605 -0.0861
  739TIP3    H1 2223   4.568   5.939   3.400 -0.8205  2.1100 -1.7091
  739TIP3    H2 2224   4.494   5.809   3.377  0.5562  0.6516  1.5375
  740TIP3   OH2 2225   5.948   3.697   3.833  0.0629 -0.7086 -0.5309
  740TIP3    H1 2226   5.988   3.745   3.905  0.0410  0.2778 -1.1635
  740TIP3    H2 2227   5.964   3.605   3.854 -0.4163 -0.4698  1.0086
  741TIP3   OH2 2228   0.709   5.728   5.113  0.6086  0.4157 -0.1892
  741TIP3    H1 2229   0.692   5.815   5.147  1.6132  0.8569 -0.7556
  741TIP3    H2 2230   0.804   5.726   5.099  0.5837 -0.7288 -0.2781
  742TIP3   OH2 2231   4.939   0.442   0.907  0.2265 -0.4699 -0.0394
  742TIP3    H1 2232   4.848   0.465   0.886  0.0873 -0.7104  0.2925
  742TIP3    H2 2233   4.939   0.427   1.002  1.0867  1.6407  0.3368
  743TIP3   OH2 2234   4.836   2.680   0.364 -0.2714  0.0408 -0.2320
  743TIP3    H1 2235   4.803   2.616   0.427 -0.0405  0.8961  0.7798
  743TIP3    H2 2236   4.930   2.661   0.357 -0.7515 -1.9763 -2.6253
  744TIP3   OH2 2237   1.556   1.402   4.943  0.2801 -0.1255 -0.1389
  744TIP3    H1 2238   1.482   1.455   4.915  0.0166  0.9722  2.3877
  744TIP3    H2 2239   1.625   1.423   4.880 -0.9725  0.1880 -1.4768
  745TIP3   OH2 2240   4.569   4.607   4.692  0.3184  0.4603  0.2833
  745TIP3    H1 2241   4.480   4.606   4.656 -0.5647 -0.1285  2.3197
  745TIP3    H2 2242   4.625   4.631   4.618 -1.7565  3.2105 -0.5709
  746TIP3   OH2 2243   1.592   1.045   4.559  0.6552  0.4165 -0.2420
  746TIP3    H1 2244   1.646   1.100   4.502 -1.7487 -0.2867 -3.4837
  746TIP3    H2 2245   1.520   1.103   4.586 -0.0382 -0.1703 -0.8043
  747TIP3   OH2 2246   4.731   5.602   2.247  0.8590 -0.4149  0.0664
  747TIP3    H1 2247   4.795   5.531   2.241  1.1472 -0.2074  0.5667
  747TIP3    H2 2248   4.766   5.659   2.316  0.8395  0.4232 -0.6059
  748TIP3   OH2 2249   1.676   3.508   2.557  0.1054 -0.4192 -0.2534
  748TIP3    H1 2250   1.692   3.420   2.525 -0.4902 -1.4146  1.9753
  748TIP3    H2 2251   1.589   3.504   2.596  0.1901  1.0604  0.1648
  749TIP3   OH2 2252   1.281   1.989   4.989  0.3392  0.3099  0.0505
  749TIP3    H1 2253   1.304   2.074   5.026 -1.1987  0.0786  1.7173
  749TIP3    H2 2254   1.362   1.938   4.992  1.0532  1.4140 -0.0987
  750TIP3   OH2 2255   5.198   3.749   0.120  0.1848 -0.1856 -0.2719
  750TIP3    H1 2256   5.188   3.655   0.132 -2.4500  0.0432 -0.0705
  750TIP3    H2 2257   5.173   3.787   0.204  1.5529  0.7112 -0.2382
  751TIP3   OH2 2258   1.863   2.169   3.447 -0.5089 -0.0889 -1.0595
  751TIP3    H1 2259   1.774   2.157   3.481  0.1066 -2.0072  0.0769
  751TIP3    H2 2260   1.913   2.097   3.487  1.6329  1.1393 -1.3814
  752TIP3   OH2 2261   6.205   5.090   2.005 -0.3980 -0.3275  0.3763
  752TIP3    H1 2262   6.193   5.018   2.067 -0.9823 -0.3262  0.2729
  752TIP3    H2 2263   6.223   5.046   1.921  0.2925 -0.3309  0.5246
  753TIP3   OH2 2264   2.513   3.547   2.223  0.0977 -0.2110  0.1475
  753TIP3    H1 2265   2.519   3.642   2.212  0.2102 -0.1024  1.0543
  753TIP3    H2 2266   2.433   3.522   2.177 -0.9862  0.6040  1.5005
  754TIP3   OH2 2267   1.734   2.747   0.677 -0.3559  0.0106 -0.4857
  754TIP3    H1 2268   1.774   2.703   0.602  0.7573 -2.6546  1.4978
  754TIP3    H2 2269   1.643   2.716   0.676 -0.6712  0.9074 -1.3314
  755TIP3   OH2 2270   0.022   2.819   4.520 -0.3691 -0.0799  0.3634
  755TIP3    H1 2271  -0.071   2.838   4.527 -0.2680  0.2783  0.7751
  755TIP3    H2 2272   0.066   2.899   4.547  0.0697  0.1287 -0.9005
  756TIP3   OH2 2273   1.092   2.888   4.988 -0.0078  0.1622 -0.5616
  756TIP3    H1 2274   1.050   2.954   5.044 -0.8538 -0.1246 -0.8419
  756TIP3    H2 2275   1.019   2.838   4.952  0.5401  0.1098 -1.6341
  757TIP3   OH2 2276   3.028   0.096   0.278  0.1771  1.2218  0.4527
  757TIP3    H1 2277   3.099   0.152   0.248  0.7837  0.3312  0.1602
  757TIP3    H2 2278   2.953   0.119   0.224  1.2756 -0.4551 -1.9541
  758TIP3   OH2 2279   5.766   0.731   3.440  0.2633 -0.2910 -0.4349
  758TIP3    H1 2280   5.858   0.705   3.437  0.0453 -1.0170 -1.1458
  758TIP3    H2 2281   5.719   0.649   3.455 -0.4153 -0.2648 -2.2879
  759TIP3   OH2 2282   4.923   4.918   0.537 -0.2446 -0.1482  0.1265
  759TIP3    H1 2283   4.916   4.863   0.614  1.3318  0.5218  0.7852
  759TIP3    H2 2284   4.988   4.875   0.482 -0.8956 -0.2837 -0.5672
  760TIP3   OH2 2285   4.742   1.571   5.187  0.8391  0.0381  0.0229
  760TIP3    H1 2286   4.780   1.483   5.186 -0.1804 -0.4509  1.6692
  760TIP3    H2 2287   4.653   1.559   5.153  0.8706  0.5240 -0.2346
  761TIP3   OH2 2288   1.123   2.522   2.013  0.0316  0.1961 -0.1523
  761TIP3    H1 2289   1.215   2.496   2.004  0.2337  1.4847 -2.8045
  761TIP3    H2 2290   1.099   2.557   1.927 -2.6763  0.8084  0.7410
  762TIP3   OH2 2291   5.674   3.295   0.285  0.2620 -0.2263 -0.1203
  762TIP3    H1 2292   5.587   3.258   0.300  0.0856  0.1053 -0.3217
  762TIP3    H2 2293   5.727   3.262   0.358  0.5882 -2.3569 -1.2426
  763TIP3   OH2 2294   3.973   5.284   5.113 -0.1909  0.0229  0.3919
  763TIP3    H1 2295   3.999   5.202   5.071 -1.4836 -0.8296  1.1899
  763TIP3    H2 2296   4.012   5.279   5.200  1.1019  1.0408 -0.0867
  764TIP3   OH2 2297   0.288   3.994   4.906 -0.2600  0.2643  0.3081
  764TIP3    H1 2298   0.284   4.086   4.879 -0.9896 -0.5291 -2.6073
  764TIP3    H2 2299   0.197   3.967   4.914 -0.0591 -0.4450  0.3079
  765TIP3   OH2 2300   5.523   1.201   4.245  0.6595 -0.1763 -0.0163
  765TIP3    H1 2301   5.430   1.211   4.224  0.4498 -0.5995  0.6693
  765TIP3    H2 2302   5.532   1.238   4.333  0.9730 -0.8836  0.2555
  766TIP3   OH2 2303   6.145   2.047   3.181  0.2864 -0.0549 -0.5266
  766TIP3    H1 2304   6.197   2.048   3.101 -0.5596  1.2881 -1.0982
  766TIP3    H2 2305   6.173   2.126   3.229  1.5609 -1.3993  1.0597
  767TIP3   OH2 2306   1.988   1.739   0.145  0.2793  0.0163 -0.3585
  767TIP3    H1 2307   1.990   1.718   0.052  2.7064 -1.3945 -0.0829
  767TIP3    H2 2308   1.946   1.663   0.186  1.8093 -0.7523 -0.1085
  768TIP3   OH2 2309   3.458   0.587   4.830  0.1716  0.1300  0.3162
  768TIP3    H1 2310   3.531   0.569   4.889 -0.6190 -1.6924  0.8049
  768TIP3    H2 2311   3.392   0.520   4.852 -1.7007  1.7624 -0.0234
  769TIP3   OH2 2312   5.686   4.368   2.776 -0.3674  0.2613  0.7320
  769TIP3    H1 2313   5.627   4.336   2.845 -1.9437  0.5325 -0.4471
  769TIP3    H2 2314   5.656   4.458   2.758 -1.2191 -0.4198 -1.5752
  770TIP3   OH2 2315   2.219   2.919   1.919  0.2103 -0.0666 -0.0631
  770TIP3    H1 2316   2.263   2.841   1.885 -0.9345 -0.6334 -0.2900
  770TIP3    H2 2317   2.172   2.955   1.843 -0.7720 -0.2244  0.4579
  771TIP3   OH2 2318   0.937   3.027   0.133  0.1239 -0.1356  0.2008
  771TIP3    H1 2319   0.935   3.087   0.059  1.8499  0.3366  0.4927
  771TIP3    H2 2320   0.910   2.943   0.097  1.7914 -0.1231 -1.1954
  772TIP3   OH2 2321   5.889   0.830   1.868  0.2938 -0.1237 -0.5030
  772TIP3    H1 2322   5.802   0.865   1.888  0.2008 -0.1028 -0.9391
  772TIP3    H2 2323   5.904   0.855   1.777 -0.6554 -3.0305 -1.5763
  773TIP3   OH2 2324   2.853   1.576   1.822  0.2535 -0.7231  0.0073
  773TIP3    H1 2325   2.899   1.647   1.866  0.4588 -0.7118 -0.2210
  773TIP3    H2 2326   2.896   1.569   1.736  0.0438 -0.9281 -0.0826
  774TIP3   OH2 2327   5.976   2.387   2.093  0.0146  0.1567 -0.2573
  774TIP3    H1 2328   6.066   2.377   2.124 -0.0904 -0.2905 -0.0934
  774TIP3    H2 2329   5.940   2.458   2.147 -0.3798 -1.0583  1.1644
  775TIP3   OH2 2330   5.935   5.781   1.205  0.7533  0.2193  0.2362
  775TIP3    H1 2331   6.004   5.733   1.160  0.4007  0.9561 -1.1404
  775TIP3    H2 2332   5.865   5.789   1.141  0.9751  2.9590  0.2162
  776TIP3   OH2 2333   5.224   1.336   3.446  0.1011 -0.1304 -0.4397
  776TIP3    H1 2334   5.228   1.259   3.389  1.1606 -0.6264  0.2680
  776TIP3    H2 2335   5.238   1.410   3.387  2.4772 -0.7159 -0.7025
  777TIP3   OH2 2336   4.054   2.212   2.073 -0.3604 -0.2240 -0.2183
  777TIP3    H1 2337   3.973   2.232   2.120  1.2455  0.6159  2.4071
  777TIP3    H2 2338   4.118   2.192   2.142  1.9174  0.0396 -2.1077
  778TIP3   OH2 2339   5.301   5.194   3.945 -0.5783  0.3563 -0.1852
  778TIP3    H1 2340   5.304   5.262   4.011 -0.3149 -1.3848  1.7029
  778TIP3    H2 2341   5.388   5.196   3.905 -0.2411  0.5214  0.5343
  779TIP3   OH2 2342   2.977   2.058   1.154  0.6971 -0.4336  0.4624
  779TIP3    H1 2343   2.884   2.069   1.171  0.8014  1.1043  0.1952
  779TIP3    H2 2344   3.000   1.976   1.198 -0.6259 -0.4740  1.1308
  780TIP3   OH2 2345   0.119   1.127   4.897  0.3288 -0.8121 -0.1037
  780TIP3    H1 2346   0.211   1.103   4.908  0.5239  0.3980  1.3100
  780TIP3    H2 2347   0.121   1.207   4.845  0.3296  0.6362  1.9724
  781TIP3   OH2 2348   5.501   3.741   2.631  0.0034 -0.3028 -0.3216
  781TIP3    H1 2349   5.513   3.700   2.545 -0.8182 -2.4252  0.5188
  781TIP3    H2 2350   5.551   3.687   2.691  1.7177  1.9483  0.4204
  782TIP3   OH2 2351   2.202   0.828   3.624 -0.2450 -0.1045 -0.0852
  782TIP3    H1 2352   2.258   0.838   3.548  0.1918 -0.0780  0.2367
  782TIP3    H2 2353   2.225   0.902   3.681  1.0040 -1.3133  1.0500
  783TIP3   OH2 2354   0.812   5.662   2.283 -0.7181  0.5120 -0.3243
  783TIP3    H1 2355   0.729   5.641   2.326 -0.4260 -0.1527 -0.0631
  783TIP3    H2 2356   0.827   5.588   2.224 -1.1293  1.4289 -1.6111
  784TIP3   OH2 2357   5.840   4.912   1.647  0.1041  0.1898  0.0370
  784TIP3    H1 2358   5.815   4.855   1.720  0.8545  1.8437  1.6783
  784TIP3    H2 2359   5.891   4.856   1.589  0.5031 -0.9174  1.3955
  785TIP3   OH2 2360   2.153   0.619   3.827  0.1749 -0.0331  0.0653
  785TIP3    H1 2361   2.245   0.616   3.855  0.5942  0.6120 -1.1381
  785TIP3    H2 2362   2.154   0.677   3.750 -1.3618  0.5744  0.4643
  786TIP3   OH2 2363   3.876   5.559   1.901  0.2053 -0.1740  0.4234
  786TIP3    H1 2364   3.815   5.627   1.874  1.0503  0.4046 -0.0887
  786TIP3    H2 2365   3.830   5.477   1.886  0.2204  0.1587 -1.7682
  787TIP3   OH2 2366   4.475   5.921   5.127  0.6728 -0.1462 -0.2148
  787TIP3    H1 2367   4.440   5.900   5.041 -0.0703  1.5225 -0.3712
  787TIP3    H2 2368   4.535   5.994   5.111  0.1992  0.4735  0.7123
  788TIP3   OH2 2369   5.958   0.341   3.183  0.1757  0.6975 -0.1665
  788TIP3    H1 2370   5.942   0.434   3.168  0.9232  0.6418 -1.3437
  788TIP3    H2 2371   5.907   0.297   3.116 -1.9463  0.1097  1.6913
  789TIP3   OH2 2372   5.106   0.225   4.240  0.0933 -0.1445  0.0629
  789TIP3    H1 2373   5.112   0.311   4.199 -0.6136  0.1605  0.5684
  789TIP3    H2 2374   5.035   0.234   4.303 -1.2816 -1.6427 -1.1886
  790TIP3   OH2 2375   0.141   1.378   4.308 -0.8983  0.1838 -0.0422
  790TIP3    H1 2376   0.209   1.337   4.362 -1.2026  1.0227  1.0117
  790TIP3    H2 2377   0.157   1.345   4.220 -0.2226 -1.0175  0.5104
  791TIP3   OH2 2378   2.119   2.926   4.601 -0.4957 -0.0937  0.2452
  791TIP3    H1 2379   2.175   2.975   4.661  0.6769 -2.8893  1.6104
  791TIP3    H2 2380   2.042   2.903   4.653  0.5777 -2.6318  0.9033
  792TIP3   OH2 2381   3.283   5.441   2.594 -0.0961  0.1120 -0.3431
  792TIP3    H1 2382   3.328   5.458   2.511  1.4507 -1.2716  0.1588
  792TIP3    H2 2383   3.241   5.356   2.582 -0.1330  0.0509  0.1809
  793TIP3   OH2 2384   4.590   4.272   4.481 -0.0042  0.2122  0.1564
  793TIP3    H1 2385   4.633   4.221   4.550  0.6858 -1.0394 -1.1474
  793TIP3    H2 2386   4.662   4.302   4.424 -0.6059  0.6965 -0.3702
  794TIP3   OH2 2387   0.259   1.190   3.281  0.2894 -0.3500 -0.0171
  794TIP3    H1 2388   0.276   1.131   3.355 -1.1141  0.4348  0.9988
  794TIP3    H2 2389   0.176   1.159   3.245  0.8331 -0.5522 -1.1078
  795TIP3   OH2 2390   0.077   4.317   2.998  0.3652 -0.0585 -0.2965
  795TIP3    H1 2391   0.161   4.347   3.031  0.5915 -1.0834  0.0933
  795TIP3    H2 2392   0.012   4.367   3.048  0.7231  1.4046 -1.2431
  796TIP3   OH2 2393   1.520   0.991   1.913  0.3833 -0.2657  0.5025
  796TIP3    H1 2394   1.568   1.073   1.900  0.0803  0.2947  2.4659
  796TIP3    H2 2395   1.444   0.998   1.856  1.4575 -0.1872 -0.9884
  797TIP3   OH2 2396   1.649   5.915   2.529  0.1000 -0.0881  0.3691
  797TIP3    H1 2397   1.561   5.921   2.565  0.1255  0.4710  0.3494
  797TIP3    H2 2398   1.643   5.960   2.444  0.1633 -0.9373 -0.0960
  798TIP3   OH2 2399   3.392   1.148   4.547  0.2776  0.3562 -0.1730
  798TIP3    H1 2400   3.407   1.239   4.573 -2.2019  1.1454 -1.1621
  798TIP3    H2 2401   3.379   1.102   4.630 -0.5934  1.3741  0.2872
  799TIP3   OH2 2402   1.889   1.961   2.334 -0.2778  0.1256 -0.0469
  799TIP3    H1 2403   1.863   1.988   2.246  0.1624  0.3801 -0.0991
  799TIP3    H2 2404   1.842   1.878   2.349 -0.2950  0.0455 -0.5471
  800TIP3   OH2 2405   5.145   2.937   3.131  0.1063 -0.0997  0.1377
  800TIP3    H1 2406   5.145   2.897   3.044  1.0629 -0.9085  0.4890
  800TIP3    H2 2407   5.055   2.928   3.161  0.2124 -1.7021  0.0617
  801TIP3   OH2 2408   4.324   5.430   0.327  0.6287 -0.1629 -0.7620
  801TIP3    H1 2409   4.292   5.352   0.372  1.1329  0.7581  1.3311
  801TIP3    H2 2410   4.416   5.411   0.309  0.1776 -0.9355 -2.4228
  802TIP3   OH2 2411   4.334   1.128   1.210  0.3420 -0.3996 -0.3847
  802TIP3    H1 2412   4.260   1.187   1.193 -1.0333 -1.9731 -0.1267
  802TIP3    H2 2413   4.313   1.087   1.293  1.8959 -0.3646  0.0546
  803TIP3   OH2 2414   1.791   1.331   2.872 -0.0635  0.3807  0.0384
  803TIP3    H1 2415   1.848   1.313   2.797  1.9129 -1.3755  1.8215
  803TIP3    H2 2416   1.713   1.278   2.856  0.7172 -0.6911 -0.3925
  804TIP3   OH2 2417   3.019   5.236   2.394 -0.9033 -0.3516 -0.5064
  804TIP3    H1 2418   2.970   5.155   2.404 -0.9359 -0.0320  3.6273
  804TIP3    H2 2419   3.090   5.229   2.458 -1.5304  3.2639  0.7886
  805TIP3   OH2 2420   2.143   5.004   4.095 -0.3862  0.8433 -0.7504
  805TIP3    H1 2421   2.203   4.935   4.067 -1.1481 -0.4068  0.5546
  805TIP3    H2 2422   2.175   5.030   4.181 -0.2991  1.9079 -1.0924
  806TIP3   OH2 2423   5.501   1.065   2.913  0.2710 -0.2603 -0.3093
  806TIP3    H1 2424   5.539   1.152   2.898 -0.8526  0.0291 -1.7647
  806TIP3    H2 2425   5.419   1.083   2.960  0.0395 -0.5195 -0.6085
  807TIP3   OH2 2426   4.788   5.744   2.751 -0.2948  0.3884 -0.2699
  807TIP3    H1 2427   4.714   5.776   2.698  0.0837 -0.9885 -1.7071
  807TIP3    H2 2428   4.764   5.654   2.772  0.6037  0.2023 -0.0245
  808TIP3   OH2 2429   1.197   2.092   2.531 -0.0657 -0.2111  0.0113
  808TIP3    H1 2430   1.160   2.019   2.481 -1.9190  0.2275  0.6631
  808TIP3    H2 2431   1.266   2.052   2.584  0.0378 -1.1838 -0.8357
  809TIP3   OH2 2432   3.028   1.198   2.676 -0.0418 -0.1065  0.2163
  809TIP3    H1 2433   2.961   1.179   2.610 -2.1289  1.8461  1.6069
  809TIP3    H2 2434   3.033   1.117   2.728  0.4696 -1.1038 -1.3021
  810TIP3   OH2 2435   5.411   5.560   3.127 -0.2181 -0.4011 -0.3860
  810TIP3    H1 2436   5.494   5.513   3.136  1.0093  1.6481 -0.4558
  810TIP3    H2 2437   5.371   5.522   3.049  1.4664 -0.3044 -1.3637
  811TIP3   OH2 2438   4.007   2.318   0.070  0.0169 -0.0714  0.5973
  811TIP3    H1 2439   4.032   2.225   0.072 -0.3481 -0.1984 -0.2463
  811TIP3    H2 2440   4.079   2.361   0.025  0.2225  0.0718  1.0570
  812TIP3   OH2 2441   0.446   5.702   4.248  0.0617  0.2234  0.0447
  812TIP3    H1 2442   0.417   5.730   4.334 -1.5026 -2.5446  0.5411
  812TIP3    H2 2443   0.392   5.754   4.187  0.0961  1.1089  0.7420
  813TIP3   OH2 2444   2.215   2.317   3.000  0.2344 -0.1129  0.4280
  813TIP3    H1 2445   2.310   2.325   2.999  0.4614 -0.8307  3.5259
  813TIP3    H2 2446   2.199   2.225   2.979  0.2270 -0.0409  0.1119
  814TIP3   OH2 2447   0.176   5.192   0.291  0.3230  0.2864 -0.0298
  814TIP3    H1 2448   0.087   5.222   0.270  0.4200  1.3740  0.9983
  814TIP3    H2 2449   0.201   5.137   0.217 -0.7198  1.0289 -0.9627
  815TIP3   OH2 2450   5.521   0.441   0.955 -0.5216 -0.1830  0.0147
  815TIP3    H1 2451   5.597   0.496   0.970 -0.5835  0.7732 -2.5449
  815TIP3    H2 2452   5.453   0.476   1.013  0.2984  0.4989  0.5790
  816TIP3   OH2 2453   1.757   0.889   2.045 -0.6543 -0.2952 -0.0641
  816TIP3    H1 2454   1.813   0.937   1.984 -1.0795 -1.0198 -1.0522
  816TIP3    H2 2455   1.671   0.889   2.003 -1.5385  1.1310  1.5939
  817TIP3   OH2 2456   1.996   1.249   3.540 -0.1326 -0.0927 -0.3149
  817TIP3    H1 2457   2.050   1.192   3.486  1.0881  0.1643  0.5860
  817TIP3    H2 2458   1.934   1.288   3.479  0.8735 -0.1948 -1.4410
  818TIP3   OH2 2459   2.091   4.171   4.958  0.0366  0.3507  0.1101
  818TIP3    H1 2460   2.070   4.130   4.875 -0.0971  0.4856  0.0765
  818TIP3    H2 2461   2.054   4.113   5.025 -1.4016  1.1250  0.0235
  819TIP3   OH2 2462   0.626   5.828   2.128 -0.1912 -0.4250 -0.0716
  819TIP3    H1 2463   0.704   5.781   2.156  0.6129  1.3166  0.7443
  819TIP3    H2 2464   0.587   5.860   2.209 -0.2427  1.0026 -0.6327
  820TIP3   OH2 2465   2.923   0.092   3.459 -0.5651 -0.1969  0.8032
  820TIP3    H1 2466   2.889   0.174   3.424 -0.4531  0.0032  1.1626
  820TIP3    H2 2467   2.930   0.035   3.382 -0.3871  0.2132  0.5093
  821TIP3   OH2 2468   0.442   4.058   1.143 -0.0936 -0.1893  0.1521
  821TIP3    H1 2469   0.463   4.124   1.077 -0.5882 -0.8229 -0.6535
  821TIP3    H2 2470   0.513   3.994   1.136 -0.1842 -0.2933  0.1962
  822TIP3   OH2 2471   4.655   5.669   3.720  0.2459  0.2354  0.5961
  822TIP3    H1 2472   4.738   5.716   3.735  0.2395  1.3974 -2.3029
  822TIP3    H2 2473   4.589   5.722   3.764  0.6969  0.9234  0.4563
  823TIP3   OH2 2474   1.448   4.386   2.179  0.0940  0.0204  0.1457
  823TIP3    H1 2475   1.417   4.298   2.157 -1.1463  0.9837 -2.4874
  823TIP3    H2 2476   1.541   4.375   2.198  0.1302 -1.7715 -0.8238
  824TIP3   OH2 2477   3.186   0.203   3.832  0.0007  0.4451  0.2716
  824TIP3    H1 2478   3.199   0.285   3.880 -0.1183  1.5839 -1.5663
  824TIP3    H2 2479   3.171   0.138   3.901  0.1489  1.9306  1.7859
  825TIP3   OH2 2480   2.398   4.917   1.037 -0.0386 -0.0149 -0.0319
  825TIP3    H1 2481   2.370   4.826   1.036  2.0188 -0.7241  0.8478
  825TIP3    H2 2482   2.426   4.933   1.127  1.1181  0.9853 -0.5356
  826TIP3   OH2 2483   1.633   2.879   1.940  0.2731  0.0061 -0.0885
  826TIP3    H1 2484   1.652   2.920   2.024  1.7033  0.1852 -0.4725
  826TIP3    H2 2485   1.717   2.842   1.912 -0.2648 -0.3739 -1.2621
  827TIP3   OH2 2486   6.251   3.100   0.319  0.2139 -0.4429  0.2676
  827TIP3    H1 2487   6.302   3.105   0.400  0.5694 -0.3634  0.0415
  827TIP3    H2 2488   6.163   3.076   0.347  0.4278 -0.7912  0.6444
  828TIP3   OH2 2489   2.606   1.018   4.808  0.1074  0.0541 -0.0896
  828TIP3    H1 2490   2.599   1.025   4.903  1.4021 -0.9911  0.1010
  828TIP3    H2 2491   2.696   0.991   4.791 -0.1559 -0.0038 -1.6013
  829TIP3   OH2 2492   1.678   4.149   2.277 -0.5660 -0.2058 -0.1118
  829TIP3    H1 2493   1.619   4.177   2.347 -0.0387  0.3108  0.1333
  829TIP3    H2 2494   1.731   4.226   2.258 -0.5945 -0.3897 -0.9709
  830TIP3   OH2 2495   5.918   3.340   0.141 -0.3918 -0.2358 -0.3836
  830TIP3    H1 2496   5.832   3.320   0.178 -1.0040 -0.4042 -1.8266
  830TIP3    H2 2497   5.902   3.354   0.048  0.9874  0.8186 -0.5021
  831TIP3   OH2 2498   5.844   1.132   0.802 -0.1270  0.1977 -0.1551
  831TIP3    H1 2499   5.804   1.191   0.865  0.6314  1.1423 -0.5160
  831TIP3    H2 2500   5.771   1.082   0.765 -0.5645 -0.4003  1.4735
  832TIP3   OH2 2501   4.423   4.171   4.126  0.6696  0.2646 -0.4207
  832TIP3    H1 2502   4.383   4.257   4.131 -0.2043 -0.0385 -1.7959
  832TIP3    H2 2503   4.395   4.136   4.042  0.6540 -1.5395  0.2854
  833TIP3   OH2 2504   3.559   2.046   0.086 -0.1466 -0.3746 -0.0948
  833TIP3    H1 2505   3.566   1.968   0.141  0.1079 -0.6137 -0.4647
  833TIP3    H2 2506   3.616   2.111   0.129 -2.4669  0.5495  1.7761
  834TIP3   OH2 2507   2.971   0.524   1.101  0.6242  0.1529  0.5233
  834TIP3    H1 2508   2.938   0.461   1.036  0.5658 -0.6027  1.2750
  834TIP3    H2 2509   3.063   0.499   1.113  0.2970 -0.5745  1.7033
  835TIP3   OH2 2510   4.672   2.008   0.980  0.6226  0.1378 -0.2162
  835TIP3    H1 2511   4.698   1.992   0.889  0.9901 -2.5881  0.2823
  835TIP3    H2 2512   4.659   2.103   0.985  2.3818  0.6038 -2.6250
  836TIP3   OH2 2513   5.993   4.026   4.957  0.2710  0.1329 -0.3252
  836TIP3    H1 2514   5.985   4.020   4.861 -0.0858 -0.1331 -0.2812
  836TIP3    H2 2515   5.924   3.968   4.990 -1.0096  1.8399  0.1239
  837TIP3   OH2 2516   5.478   3.085   0.316  0.2122  0.5332 -0.4772
  837TIP3    H1 2517   5.511   3.005   0.276  0.4549 -0.4314  1.5296
  837TIP3    H2 2518   5.405   3.112   0.260 -0.1771 -1.3513 -0.9301
  838TIP3   OH2 2519   1.704   2.620   3.513  0.0177 -0.4366  0.3362
  838TIP3    H1 2520   1.753   2.553   3.466 -2.5692 -1.5400 -1.0028
  838TIP3    H2 2521   1.757   2.700   3.504 -0.0731 -0.6148 -4.2671
  839TIP3   OH2 2522   0.721   0.713   2.692 -0.3132  0.6236  0.3846
  839TIP3    H1 2523   0.795   0.769   2.670 -0.1475  1.1513  2.1915
  839TIP3    H2 2524   0.759   0.638   2.737 -0.5667 -0.8625 -1.7240
  840TIP3   OH2 2525   1.647   2.159   4.964  0.1369  0.5677 -0.0424
  840TIP3    H1 2526   1.563   2.139   4.924 -0.5297  0.7199  1.2370
  840TIP3    H2 2527   1.655   2.255   4.958  0.6115  0.4871 -0.8879
  841TIP3   OH2 2528   3.989   3.991   4.310 -0.4971 -0.2745  0.5258
  841TIP3    H1 2529   4.033   4.011   4.227 -1.2645 -0.7290 -0.0121
  841TIP3    H2 2530   3.921   3.927   4.286 -1.4274  0.3751  1.3213
  842TIP3   OH2 2531   1.966   5.133   1.939 -0.1362 -0.4794  0.1100
  842TIP3    H1 2532   2.019   5.053   1.939 -2.3196 -2.0473  0.9728
  842TIP3    H2 2533   1.951   5.152   1.847 -0.3722 -1.6760 -0.1229
  843TIP3   OH2 2534   2.329   2.651   3.831  0.2400  0.0467 -0.1155
  843TIP3    H1 2535   2.396   2.585   3.815  0.7350  0.2502  1.0239
  843TIP3    H2 2536   2.293   2.629   3.917 -0.2818  0.6757 -0.1623
  844TIP3   OH2 2537   3.793   3.016   0.402 -0.3466  0.4307  0.1450
  844TIP3    H1 2538   3.807   2.963   0.324  2.2366  2.7225 -1.1070
  844TIP3    H2 2539   3.706   3.054   0.390 -0.7618 -0.7241 -0.6601
  845TIP3   OH2 2540   3.027   1.824   1.751  0.4120  0.1495  0.4399
  845TIP3    H1 2541   2.941   1.865   1.750  1.4245  2.3975 -0.0720
  845TIP3    H2 2542   3.039   1.792   1.662  0.4501  0.5764  0.2929
  846TIP3   OH2 2543   2.051   2.277   2.740  0.3013  0.3236 -0.0223
  846TIP3    H1 2544   2.083   2.361   2.772  1.3323  0.7387 -1.9945
  846TIP3    H2 2545   2.105   2.212   2.786 -0.1850  0.7363  1.1606
  847TIP3   OH2 2546   1.145   3.098   3.305 -0.2284  0.1371  0.0477
  847TIP3    H1 2547   1.053   3.105   3.281 -0.1456 -0.4909 -0.4843
  847TIP3    H2 2548   1.187   3.173   3.262 -0.5092  0.5199  0.4307
  848TIP3   OH2 2549   0.721   3.392   3.744 -0.5664 -0.1722 -0.5538
  848TIP3    H1 2550   0.708   3.376   3.651  1.0622 -2.7090 -0.4499
  848TIP3    H2 2551   0.650   3.345   3.787 -0.8473  0.3105 -0.4865
  849TIP3   OH2 2552   6.217   2.926   2.977  0.2874  0.3397  0.1418
  849TIP3    H1 2553   6.169   3.003   2.949  0.6959  0.3872 -0.4309
  849TIP3    H2 2554   6.155   2.878   3.032 -0.5318  0.2424 -0.8330
  850TIP3   OH2 2555   6.256   2.729   5.134 -0.3903 -0.1084 -0.1418
  850TIP3    H1 2556   6.212   2.732   5.219  0.3143 -1.4005  0.3069
  850TIP3    H2 2557   6.313   2.652   5.140  1.8795  1.4523 -0.7170
  851TIP3   OH2 2558   3.188   3.017   1.899  0.0044 -0.3287  0.1842
  851TIP3    H1 2559   3.216   3.096   1.853 -2.5449 -0.6477 -2.1478
  851TIP3    H2 2560   3.226   2.945   1.848  0.0685 -0.6464  0.6768
  852TIP3   OH2 2561   4.053   3.339   3.784  0.1642  0.2756 -0.5117
  852TIP3    H1 2562   4.079   3.355   3.875 -1.2650 -1.3997  0.2626
  852TIP3    H2 2563   4.131   3.360   3.733  1.4100  0.1023  1.2065
  853TIP3   OH2 2564   2.522   0.336   2.193  0.4305  0.1243  0.3275
  853TIP3    H1 2565   2.585   0.282   2.145  0.5205  1.5037 -1.2028
  853TIP3    H2 2566   2.445   0.279   2.204  0.8092 -0.5771 -0.5083
  854TIP3   OH2 2567   3.885   5.955   2.650  0.3718  0.4335  0.1485
  854TIP3    H1 2568   3.967   5.914   2.677  1.1520  2.4884  1.1608
  854TIP3    H2 2569   3.873   5.927   2.559  1.5994 -0.7895  0.3364
  855TIP3   OH2 2570   2.391   2.910   3.080  0.0645 -0.1028 -0.4036
  855TIP3    H1 2571   2.393   2.975   3.009 -0.8835 -0.4203 -0.7361
  855TIP3    H2 2572   2.406   2.962   3.159 -2.3006  0.8358 -0.4801
  856TIP3   OH2 2573   5.492   5.701   0.411  0.1275 -0.4318 -0.1714
  856TIP3    H1 2574   5.540   5.784   0.419 -0.8809  0.1451  0.0180
  856TIP3    H2 2575   5.524   5.648   0.484  0.7231 -0.1923 -0.2489
  857TIP3   OH2 2576   1.431   1.459   2.606 -0.4888  0.3426 -0.2255
  857TIP3    H1 2577   1.448   1.525   2.674 -1.5500  1.7870 -1.3042
  857TIP3    H2 2578   1.366   1.500   2.549 -2.8805 -2.5086  0.2751
  858TIP3   OH2 2579   0.043   1.325   1.552 -0.0740  0.1630 -0.2644
  858TIP3    H1 2580   0.065   1.269   1.627  0.0037 -0.8443 -1.0097
  858TIP3    H2 2581   0.127   1.345   1.512 -0.2297 -1.1081 -1.3133
  859TIP3   OH2 2582   2.316   5.786   2.588 -0.7182 -0.5204 -0.3810
  859TIP3    H1 2583   2.407   5.797   2.616 -0.3582 -1.1158 -1.2720
  859TIP3    H2 2584   2.275   5.735   2.658  0.2522 -2.2725 -1.0393
  860TIP3   OH2 2585   4.724   4.074   4.626 -0.2460  0.3827  0.3832
  860TIP3    H1 2586   4.816   4.095   4.638 -0.2546  0.0065  1.1439
  860TIP3    H2 2587   4.720   4.031   4.540  0.0168  1.9255 -0.4273
  861TIP3   OH2 2588   1.261   4.789   3.098  0.0494 -0.0341  0.1091
  861TIP3    H1 2589   1.313   4.867   3.115  2.2534 -1.1328 -1.1522
  861TIP3    H2 2590   1.238   4.756   3.185  1.8046  0.3134  0.7470
  862TIP3   OH2 2591   3.074   5.170   0.804 -0.2585  0.2398  0.2704
  862TIP3    H1 2592   3.035   5.195   0.720  1.1381  0.2727 -0.3893
  862TIP3    H2 2593   3.016   5.211   0.870 -0.8730  0.9581 -0.6872
  863TIP3   OH2 2594   3.227   0.399   1.153  0.3281  0.6657  0.1002
  863TIP3    H1 2595   3.243   0.410   1.246 -2.3810  0.4392  0.6830
  863TIP3    H2 2596   3.271   0.317   1.131  0.1470  0.1789  1.4534
  864TIP3   OH2 2597   0.237   4.425   3.679  0.7080  0.5014  0.4166
  864TIP3    H1 2598   0.260   4.405   3.588 -2.4483 -2.1549  0.0035
  864TIP3    H2 2599   0.299   4.373   3.731  1.1600  0.3289 -0.2763
  865TIP3   OH2 2600   3.404   1.637   0.461  0.7132  0.2170  0.3351
  865TIP3    H1 2601   3.335   1.701   0.447  3.0619  2.9553  0.3225
  865TIP3    H2 2602   3.405   1.621   0.555 -0.7051 -0.8700  0.1937
  866TIP3   OH2 2603   1.221   1.999   0.709 -0.1409  0.5221 -0.5056
  866TIP3    H1 2604   1.136   1.962   0.733  0.1843  0.4918  0.6534
  866TIP3    H2 2605   1.201   2.061   0.638 -0.9791 -0.2297 -0.9379
  867TIP3   OH2 2606   4.066   5.050   5.007  0.5606 -0.1654  0.5393
  867TIP3    H1 2607   4.155   5.078   4.987  0.1558  0.8068  0.0278
  867TIP3    H2 2608   4.025   5.032   4.922  0.1324 -0.1454  0.7343
  868TIP3   OH2 2609   2.220   3.070   0.531  0.0594  0.1345 -0.2221
  868TIP3    H1 2610   2.216   2.993   0.475 -0.0871  0.2442 -0.3636
  868TIP3    H2 2611   2.152   3.128   0.497 -0.2820  0.0466  0.3067
  869TIP3   OH2 2612   4.491   1.713   3.587 -0.0361  0.2231  0.3738
  869TIP3    H1 2613   4.454   1.625   3.588  0.8569 -0.1569  0.5136
  869TIP3    H2 2614   4.417   1.770   3.562 -0.4453 -0.6341 -0.4165
  870TIP3   OH2 2615   0.924   2.608   4.636 -0.5961  0.2190 -0.1344
  870TIP3    H1 2616   0.964   2.556   4.566 -0.2473  0.6589 -0.2714
  870TIP3    H2 2617   0.830   2.599   4.623 -0.5584  1.6877 -1.7290
  871TIP3   OH2 2618   1.013   2.496   5.099  0.2608  0.2890  0.2369
  871TIP3    H1 2619   1.095   2.486   5.050  0.2353  1.6516 -0.1054
  871TIP3    H2 2620   0.944   2.480   5.034  0.2321 -0.8727  0.5282
  872TIP3   OH2 2621   3.174   5.788   0.837  0.4792  0.1764 -0.1717
  872TIP3    H1 2622   3.156   5.732   0.761 -1.7084  0.5904 -0.0277
  872TIP3    H2 2623   3.091   5.789   0.885  1.6048  0.5385  1.8349
  873TIP3   OH2 2624   0.917   3.581   3.756  0.0227 -0.0569  0.3910
  873TIP3    H1 2625   0.893   3.626   3.838  1.9259 -1.6907  1.9124
  873TIP3    H2 2626   0.862   3.503   3.755  1.9273 -1.4772  1.5934
  874TIP3   OH2 2627   5.451   5.777   2.102 -0.2660  0.4825  0.2877
  874TIP3    H1 2628   5.386   5.714   2.070 -0.3289 -0.0591  1.4547
  874TIP3    H2 2629   5.424   5.797   2.191  1.9032 -0.8281  1.3380
  875TIP3   OH2 2630   0.050   2.775   1.469  0.0481 -0.6667 -0.5257
  875TIP3    H1 2631   0.087   2.863   1.481  0.0372 -0.4473 -1.9080
  875TIP3    H2 2632   0.008   2.755   1.552  1.7233 -0.1737  0.4958
  876TIP3   OH2 2633   0.299   5.300   3.665  0.0715  0.0009  0.0300
  876TIP3    H1 2634   0.380   5.317   3.616 -0.0331  0.1001 -0.1082
  876TIP3    H2 2635   0.285   5.379   3.717  0.6092 -0.4085  0.8270
  877TIP3   OH2 2636   2.707   2.372   0.928  0.2397 -0.3549 -0.1087
  877TIP3    H1 2637   2.749   2.457   0.937 -0.6958  0.4002 -2.2558
  877TIP3    H2 2638   2.772   2.317   0.885 -0.0635  0.0858 -1.1589
  878TIP3   OH2 2639   3.765   3.457   1.951 -0.2621 -0.1871 -0.0148
  878TIP3    H1 2640   3.690   3.508   1.981  0.9109  0.4716  2.0133
  878TIP3    H2 2641   3.829   3.522   1.923 -0.1008 -0.7106 -0.9131
  879TIP3   OH2 2642   3.525   4.005   2.590  0.7887 -0.1368  0.6727
  879TIP3    H1 2643   3.498   3.924   2.632 -2.0721  1.2849  1.8760
  879TIP3    H2 2644   3.568   4.055   2.659 -0.5760  0.6976  0.9702
  880TIP3   OH2 2645   2.122   3.766   3.231 -0.0169  0.0623 -0.2306
  880TIP3    H1 2646   2.077   3.810   3.303 -0.3761  0.2135 -0.5491
  880TIP3    H2 2647   2.192   3.716   3.274  0.2613  0.7692  0.1523
  881TIP3   OH2 2648   3.153   5.976   0.459  0.1052  0.1129  0.5182
  881TIP3    H1 2649   3.163   5.881   0.449 -0.8511  0.1554 -1.2081
  881TIP3    H2 2650   3.081   5.985   0.522  0.7865 -0.2828  1.3743
  882TIP3   OH2 2651   4.726   2.059   2.317  0.2350  0.0673 -0.0263
  882TIP3    H1 2652   4.681   2.131   2.273 -0.1416  0.1273  0.4559
  882TIP3    H2 2653   4.819   2.076   2.301  0.1144  0.2503 -0.5457
  883TIP3   OH2 2654   0.064   5.487   4.192 -0.3052  0.1948  0.2783
  883TIP3    H1 2655   0.058   5.570   4.240  0.7151 -0.5261  1.7413
  883TIP3    H2 2656   0.030   5.422   4.254  1.7468 -0.8756  0.3698
  884TIP3   OH2 2657   1.809   1.578   0.903 -0.3411  0.5629 -0.2018
  884TIP3    H1 2658   1.863   1.657   0.903 -1.2942  1.2365 -0.6393
  884TIP3    H2 2659   1.749   1.590   0.829  0.1907 -1.0622 -0.9421
  885TIP3   OH2 2660   5.861   5.953   1.451 -0.4503  0.1310 -0.1863
  885TIP3    H1 2661   5.802   5.890   1.491 -1.0413  1.5124  1.1944
  885TIP3    H2 2662   5.892   5.909   1.371 -0.5462 -2.0215  0.8934
  886TIP3   OH2 2663   4.250   2.248   3.334  0.2398  0.5651  0.0804
  886TIP3    H1 2664   4.331   2.202   3.357 -0.7743 -2.9935 -2.5993
  886TIP3    H2 2665   4.279   2.332   3.299  2.4393  0.8581  2.3102
  887TIP3   OH2 2666   0.509   0.062   1.041 -0.0125 -0.0252 -0.1947
  887TIP3    H1 2667   0.555   0.130   0.991  1.5132  0.6742  1.9865
  887TIP3    H2 2668   0.571  -0.011   1.043  0.0608  0.0430  0.7828
  888TIP3   OH2 2669   5.729   3.741   1.358 -0.6179  0.3321 -0.2301
  888TIP3    H1 2670   5.727   3.770   1.267  1.8408  0.7219 -0.2196
  888TIP3    H2 2671   5.739   3.821   1.409 -0.7696  0.0151  0.3075
  889TIP3   OH2 2672   6.306   1.115   4.127  0.5019  0.0454  0.2544
  889TIP3    H1 2673   6.262   1.092   4.208  0.3818 -0.9327 -0.0775
  889TIP3    H2 2674   6.375   1.049   4.117  2.2068  1.6370  0.8626
  890TIP3   OH2 2675   6.243   4.441   0.214  0.3651 -0.0394 -0.8585
  890TIP3    H1 2676   6.227   4.528   0.249 -1.0537  0.4586 -2.6249
  890TIP3    H2 2677   6.163   4.392   0.234  0.9772 -0.8469 -0.2639
  891TIP3   OH2 2678   2.774   3.938   0.801  0.4689  0.1887  0.1749
  891TIP3    H1 2679   2.852   3.895   0.765 -0.0282  0.4996 -1.3636
  891TIP3    H2 2680   2.801   4.029   0.812 -0.2256  0.8218 -2.4616
  892TIP3   OH2 2681   3.744   1.964   4.021  0.3145  0.4838 -0.1190
  892TIP3    H1 2682   3.724   2.012   4.101 -0.4382  1.2389 -0.7323
  892TIP3    H2 2683   3.689   1.885   4.026 -0.4033  0.9596 -0.2836
  893TIP3   OH2 2684   0.581   2.654   2.925  0.6920  0.2106  0.1263
  893TIP3    H1 2685   0.505   2.707   2.950  0.8580  0.1446  0.7897
  893TIP3    H2 2686   0.547   2.595   2.858  0.5137  1.1698 -0.6536
  894TIP3   OH2 2687   2.713   4.402   5.017 -0.4584 -0.5506  0.5216
  894TIP3    H1 2688   2.671   4.363   5.094  2.1851 -3.6096  0.6098
  894TIP3    H2 2689   2.770   4.471   5.053 -1.7368  0.3819  0.8565
  895TIP3   OH2 2690   3.582   4.992   1.858  0.2875  0.0507 -0.2238
  895TIP3    H1 2691   3.573   5.062   1.922  1.9394  0.4052 -0.3550
  895TIP3    H2 2692   3.669   4.956   1.873 -0.2503 -1.4908 -0.6544
  896TIP3   OH2 2693   2.077   4.970  -0.002  0.2243 -0.7483  0.3973
  896TIP3    H1 2694   2.133   4.909  -0.051  0.0837 -1.9850  1.7070
  896TIP3    H2 2695   2.135   5.010   0.062  0.4359  0.9684 -0.7989
  897TIP3   OH2 2696   1.487   0.184   0.867 -0.5837  0.4421 -0.4287
  897TIP3    H1 2697   1.404   0.224   0.893 -0.2403  0.9163 -0.0558
  897TIP3    H2 2698   1.538   0.256   0.828  0.4637  0.6435  1.2266
  898TIP3   OH2 2699   6.255   5.353   4.428  0.2571  0.0509 -0.3215
  898TIP3    H1 2700   6.336   5.391   4.465  1.1435 -0.6174 -1.5105
  898TIP3    H2 2701   6.243   5.271   4.477 -0.0342  0.4407  0.2618
  899TIP3   OH2 2702   0.956   1.013   4.877 -0.0031  0.6191  0.8769
  899TIP3    H1 2703   0.950   0.918   4.877 -1.2735  0.5444 -2.2890
  899TIP3    H2 2704   1.046   1.032   4.852  0.7260  0.3780  3.1023
  900TIP3   OH2 2705   0.548   5.960   2.751  0.2438  0.1261 -0.2958
  900TIP3    H1 2706   0.575   5.909   2.674 -1.5603  0.0906 -0.9409
  900TIP3    H2 2707   0.463   5.997   2.727  0.0690  0.8800  1.3571
  901TIP3   OH2 2708   2.456   5.478   2.782  0.0737  0.6583 -0.0199
  901TIP3    H1 2709   2.401   5.553   2.804 -0.0300  0.5865 -0.0341
  901TIP3    H2 2710   2.411   5.436   2.709  0.1741  0.6281 -0.0651
  902TIP3   OH2 2711   1.490   3.367   2.758 -0.2188 -0.2083  0.3004
  902TIP3    H1 2712   1.443   3.300   2.709 -1.2618  1.0244 -0.4653
  902TIP3    H2 2713   1.422   3.410   2.810  0.1372  1.2555 -0.4044
  903TIP3   OH2 2714   3.362   3.152   4.562  0.5574  0.6952 -0.4725
  903TIP3    H1 2715   3.358   3.061   4.533 -1.3457  0.3194  0.8109
  903TIP3    H2 2716   3.271   3.182   4.561  0.3993  1.0171  3.7202
  904TIP3   OH2 2717   3.519   1.989   4.323 -0.2060  0.1977 -0.0934
  904TIP3    H1 2718   3.513   1.911   4.379  0.6295  0.4414  0.3514
  904TIP3    H2 2719   3.493   1.958   4.237 -0.9783 -0.3129  0.3153
  905TIP3   OH2 2720   2.661   0.646   4.377 -0.3034  0.1530  0.5867
  905TIP3    H1 2721   2.610   0.654   4.296 -1.5438  0.1544  1.3440
  905TIP3    H2 2722   2.638   0.724   4.427  1.4980  0.8416  0.4001
  906TIP3   OH2 2723   2.362   1.099   4.766  0.5724 -0.0089 -0.2848
  906TIP3    H1 2724   2.426   1.034   4.796  1.1595  0.4308 -0.5924
  906TIP3    H2 2725   2.413   1.163   4.717 -0.3073 -0.4705 -1.8606
  907TIP3   OH2 2726   1.294   0.888   3.542 -0.5989 -0.4110 -0.0076
  907TIP3    H1 2727   1.204   0.894   3.511 -0.8565 -2.2260  0.3019
  907TIP3    H2 2728   1.347   0.916   3.468 -1.3939  0.3393 -0.3081
  908TIP3   OH2 2729   2.113   3.061   0.092 -0.5291 -0.5523  0.3784
  908TIP3    H1 2730   2.145   3.072   0.003 -0.7886  2.1239  0.5106
  908TIP3    H2 2731   2.179   3.009   0.136  0.3909 -0.5822 -0.9897
  909TIP3   OH2 2732   1.822   4.917   1.096 -0.0767 -0.3368  0.0965
  909TIP3    H1 2733   1.744   4.942   1.045 -0.2439  1.4776  1.1510
  909TIP3    H2 2734   1.799   4.938   1.187  1.1018 -1.2189  0.6287
  910TIP3   OH2 2735   4.281   3.679   2.729  0.3294 -0.3002  0.0269
  910TIP3    H1 2736   4.279   3.710   2.819  1.0168  0.9596 -0.3836
  910TIP3    H2 2737   4.372   3.656   2.713  0.0610 -1.3395 -0.0937
  911TIP3   OH2 2738   5.857   5.237   1.244 -0.1002  0.0378 -0.0258
  911TIP3    H1 2739   5.882   5.328   1.258 -1.9749  0.5260  0.3586
  911TIP3    H2 2740   5.764   5.240   1.222  0.2437 -1.6246 -2.0461
  912TIP3   OH2 2741   0.093   5.957   1.946 -0.3619  0.0096  0.2182
  912TIP3    H1 2742   0.183   5.983   1.963 -0.0698  0.3829 -1.6451
  912TIP3    H2 2743   0.099   5.866   1.917 -0.4012  0.4054 -1.1073
  913TIP3   OH2 2744   2.211   4.865   1.393  0.0909  0.3226 -0.1213
  913TIP3    H1 2745   2.143   4.900   1.336  0.0450 -0.2584 -0.4373
  913TIP3    H2 2746   2.291   4.910   1.366  0.0550  0.1041 -0.6053
  914TIP3   OH2 2747   5.870   2.650   2.840 -0.5411 -0.0622 -0.3679
  914TIP3    H1 2748   5.817   2.730   2.843  1.4836  1.5843 -2.9304
  914TIP3    H2 2749   5.849   2.610   2.756 -0.0471 -1.1296 -0.0050
  915TIP3   OH2 2750   4.030   1.839   4.320 -0.3212 -0.5494  0.0724
  915TIP3    H1 2751   4.119   1.874   4.324  0.9260 -3.0591 -2.6670
  915TIP3    H2 2752   3.978   1.902   4.370  3.0676  0.5352  2.6594
  916TIP3   OH2 2753   1.109   2.880   4.131  0.2183  0.1662 -0.2752
  916TIP3    H1 2754   1.053   2.943   4.087  0.5823  0.6892 -0.0009
  916TIP3    H2 2755   1.198   2.914   4.118  0.3403  0.2360  0.7186
  917TIP3   OH2 2756   3.398   1.087   2.299 -0.0511 -0.3869 -0.6788
  917TIP3    H1 2757   3.351   1.122   2.223  1.3267  0.5102 -1.1697
  917TIP3    H2 2758   3.486   1.124   2.291  0.3997 -1.0597  0.8408
  918TIP3   OH2 2759   4.731   3.039   2.626 -0.2104  0.0516  0.3468
  918TIP3    H1 2760   4.768   2.982   2.693 -0.4852 -0.3702  0.1461
  918TIP3    H2 2761   4.801   3.049   2.562  0.3239  1.0970  1.0765
  919TIP3   OH2 2762   2.151   5.184   1.479  0.1390 -0.4664 -0.6878
  919TIP3    H1 2763   2.227   5.234   1.509 -1.3718  1.0752  0.7975
  919TIP3    H2 2764   2.160   5.182   1.384  0.9578  1.5532 -0.7136
  920TIP3   OH2 2765   4.103   0.258   1.190 -0.1631  0.5115  0.3661
  920TIP3    H1 2766   4.051   0.292   1.117  0.4649 -0.3406 -0.5094
  920TIP3    H2 2767   4.183   0.225   1.148  0.3690  0.3387  1.4931
  921TIP3   OH2 2768   4.561   0.084   3.895  0.3392 -0.2029 -0.4292
  921TIP3    H1 2769   4.535   0.105   3.806  0.2987 -0.0843 -0.3894
  921TIP3    H2 2770   4.512   0.146   3.950  1.3155  0.5625 -0.3980
  922TIP3   OH2 2771   4.732   3.402   3.470  0.7832  0.1124  0.5284
  922TIP3    H1 2772   4.675   3.326   3.460  0.7216  0.0154  1.5312
  922TIP3    H2 2773   4.818   3.371   3.444  0.7655 -0.3178  0.9753
  923TIP3   OH2 2774   0.585   5.341   3.730  0.2888 -0.0440 -0.1509
  923TIP3    H1 2775   0.617   5.253   3.712 -0.1261 -0.0789 -0.7574
  923TIP3    H2 2776   0.641   5.399   3.678 -0.0150 -0.0298 -0.4686
  924TIP3   OH2 2777   5.306   3.249   1.178 -0.4363 -0.1596  0.0755
  924TIP3    H1 2778   5.345   3.233   1.264 -1.2230 -0.6465  0.3572
  924TIP3    H2 2779   5.247   3.324   1.193 -1.0809 -0.6710  0.1289
  925TIP3   OH2 2780   2.759   0.366   2.402 -0.3546 -0.2744  0.5356
  925TIP3    H1 2781   2.699   0.319   2.345 -0.2317  0.1237  0.0688
  925TIP3    H2 2782   2.736   0.458   2.391  0.1698 -0.1383  0.5412
  926TIP3   OH2 2783   3.372   2.728   3.257  0.5050 -0.0390 -0.1675
  926TIP3    H1 2784   3.341   2.642   3.226 -0.0316 -0.0115  0.2690
  926TIP3    H2 2785   3.467   2.719   3.262  0.5308 -0.3176 -0.9849
  927TIP3   OH2 2786   4.460   0.143   4.838 -0.2066  0.2350 -0.0349
  927TIP3    H1 2787   4.470   0.220   4.894 -0.7054 -0.4452  1.0164
  927TIP3    H2 2788   4.449   0.071   4.899 -0.1159 -0.6251 -1.0186
  928TIP3   OH2 2789   5.721   4.053   1.220 -0.6303 -0.1855  0.4336
  928TIP3    H1 2790   5.808   4.020   1.202 -0.3971  0.4166  0.4382
  928TIP3    H2 2791   5.733   4.114   1.293 -0.9824  0.2520  0.1269
  929TIP3   OH2 2792   3.939   1.263   3.790 -0.0879 -0.0401  0.3674
  929TIP3    H1 2793   3.998   1.256   3.715 -1.2627  1.0827 -0.7140
  929TIP3    H2 2794   3.911   1.173   3.808 -2.7743 -0.0877 -3.0898
  930TIP3   OH2 2795   3.487   0.728   4.584 -0.3849 -0.3881  0.1549
  930TIP3    H1 2796   3.475   0.673   4.661  2.5822  1.3454  2.0529
  930TIP3    H2 2797   3.431   0.804   4.600  0.7253  0.2799  1.0047
  931TIP3   OH2 2798   1.030   2.785   1.333 -0.0477 -0.3984  0.0663
  931TIP3    H1 2799   0.988   2.870   1.323  3.0125  1.0712 -1.6885
  931TIP3    H2 2800   0.992   2.730   1.265 -2.9721 -1.0102  2.0016
  932TIP3   OH2 2801   0.920   0.411   2.552  0.6699 -0.4253 -0.1156
  932TIP3    H1 2802   0.946   0.396   2.643  0.3059  0.2081  0.1056
  932TIP3    H2 2803   0.827   0.388   2.550  0.0105  1.8642  0.3081
  933TIP3   OH2 2804   3.387   3.064   3.478  0.9226  0.1081  0.1349
  933TIP3    H1 2805   3.365   3.070   3.571  2.3934 -1.3345  0.6225
  933TIP3    H2 2806   3.431   3.147   3.458  2.1010 -0.2498  1.1768
  934TIP3   OH2 2807   2.087   4.456   4.641  0.0159 -0.6197  0.4012
  934TIP3    H1 2808   2.161   4.399   4.661  0.0576 -1.0854 -0.9475
  934TIP3    H2 2809   2.123   4.522   4.583 -0.5035 -0.5154  0.1928
  935TIP3   OH2 2810   4.535   0.609   3.435  0.0920  0.5476 -0.2078
  935TIP3    H1 2811   4.593   0.684   3.422  0.8721  0.1489  0.8425
  935TIP3    H2 2812   4.587   0.546   3.484 -0.8000 -0.3847 -0.4167
  936TIP3   OH2 2813   4.100   5.721   4.824  0.1525  0.2421  0.0734
  936TIP3    H1 2814   4.092   5.786   4.893 -2.6355 -1.5812  1.6803
  936TIP3    H2 2815   4.141   5.767   4.751  0.6703  3.0099  1.9809
  937TIP3   OH2 2816   0.110   0.709   3.846  0.1197  0.6923 -0.9950
  937TIP3    H1 2817   0.022   0.731   3.875 -0.4331 -1.1690 -1.1732
  937TIP3    H2 2818   0.112   0.614   3.842  2.0179  0.6994 -1.4014
  938TIP3   OH2 2819   1.615   2.994   1.377  0.1309 -0.2731  0.1098
  938TIP3    H1 2820   1.603   2.915   1.430 -0.2732  0.0010  0.4367
  938TIP3    H2 2821   1.660   3.056   1.435 -0.4297  0.0748  0.1776
  939TIP3   OH2 2822   0.611   5.553   0.367  0.4094 -0.3783  0.7042
  939TIP3    H1 2823   0.636   5.614   0.299 -0.3696 -0.7848  0.0376
  939TIP3    H2 2824   0.680   5.486   0.366 -0.5385 -1.3809 -0.9756
  940TIP3   OH2 2825   4.703   3.164   3.803  0.3416  0.9740 -0.7510
  940TIP3    H1 2826   4.666   3.247   3.776 -1.1885  0.1597 -1.2767
  940TIP3    H2 2827   4.755   3.185   3.881 -0.6443  2.2919 -0.4198
  941TIP3   OH2 2828   1.942   1.311   0.931 -0.4174  0.0391 -0.1980
  941TIP3    H1 2829   1.889   1.391   0.927 -0.6634 -0.0581  0.7529
  941TIP3    H2 2830   1.949   1.283   0.840 -2.7716 -0.4422 -0.3092
  942TIP3   OH2 2831   5.793   4.911   0.972  0.3699  0.7236  0.2627
  942TIP3    H1 2832   5.776   4.993   0.925 -1.2410  1.0298  1.2993
  942TIP3    H2 2833   5.741   4.845   0.925  0.4975  0.5984  0.2961
  943TIP3   OH2 2834   4.142   3.996   2.763  0.2874 -0.2140 -0.3014
  943TIP3    H1 2835   4.107   3.916   2.801  2.2330 -0.1852  1.7831
  943TIP3    H2 2836   4.224   3.968   2.720 -1.5022 -0.1424 -4.2467
  944TIP3   OH2 2837   5.886   2.533   0.484 -0.2180 -0.2304  0.1754
  944TIP3    H1 2838   5.871   2.483   0.563  2.3414 -0.2312  0.7469
  944TIP3    H2 2839   5.974   2.570   0.495 -0.6610  1.5769 -1.7065
  945TIP3   OH2 2840   2.201   2.255   4.634 -0.7531  0.8712 -0.1617
  945TIP3    H1 2841   2.107   2.247   4.615 -1.3375  0.4171  2.5840
  945TIP3    H2 2842   2.228   2.167   4.658 -0.1696  1.3978  1.1953
  946TIP3   OH2 2843   0.444   1.628   2.145  0.0251  0.5945 -0.1123
  946TIP3    H1 2844   0.423   1.718   2.172 -1.4318  0.2772 -0.1317
  946TIP3    H2 2845   0.360   1.583   2.144  0.9632 -1.3486  1.9266
  947TIP3   OH2 2846   2.579   2.396   4.118  0.5822  0.1881  1.0382
  947TIP3    H1 2847   2.666   2.378   4.155  0.8689 -0.4418  0.1056
  947TIP3    H2 2848   2.530   2.315   4.135  0.8771 -0.3130 -0.3586
  948TIP3   OH2 2849   4.040   2.875   4.053  0.1497  0.1863  0.4253
  948TIP3    H1 2850   3.999   2.812   3.993  1.3834 -0.5092  0.2748
  948TIP3    H2 2851   4.106   2.919   3.999  0.4820  0.3692  0.9712
  949TIP3   OH2 2852   1.393   2.014   1.695 -0.6960  0.6435  0.4766
  949TIP3    H1 2853   1.391   1.987   1.787 -2.4555 -0.1846  0.2297
  949TIP3    H2 2854   1.321   2.076   1.687 -0.3697  0.9322 -0.2910
  950TIP3   OH2 2855   3.721   5.662   3.939 -0.1130  0.5122  0.0309
  950TIP3    H1 2856   3.757   5.673   4.027  2.2833  2.4133 -1.0745
  950TIP3    H2 2857   3.707   5.567   3.931  1.4599  0.0617  1.8036
  951TIP3   OH2 2858   6.027   3.431   3.580 -0.1019 -0.0801 -0.2619
  951TIP3    H1 2859   5.968   3.493   3.536  0.9305  1.6000  0.6177
  951TIP3    H2 2860   5.973   3.390   3.648 -0.4033  1.0938  0.2300
  952TIP3   OH2 2861   5.326   2.693   1.892  0.7131  0.8793 -0.3684
  952TIP3    H1 2862   5.375   2.737   1.962 -0.4126  1.3986  0.1230
  952TIP3    H2 2863   5.300   2.609   1.930 -0.7233  1.5572  0.2178
  953TIP3   OH2 2864   4.269   3.490   1.747  0.1691  0.1099  0.0681
  953TIP3    H1 2865   4.235   3.521   1.663 -2.8888 -3.1832 -0.1634
  953TIP3    H2 2866   4.199   3.510   1.809  2.4942  2.7495  2.0871
  954TIP3   OH2 2867   3.599   0.591   3.312 -0.0462  0.4488  0.4753
  954TIP3    H1 2868   3.521   0.646   3.306 -0.8902 -0.6458  1.0693
  954TIP3    H2 2869   3.569   0.504   3.286  1.5436  0.4617 -1.6400
  955TIP3   OH2 2870   2.710   0.972   2.118  0.5824  0.1571 -0.5002
  955TIP3    H1 2871   2.748   0.954   2.032  1.3419  0.3279 -0.2048
  955TIP3    H2 2872   2.785   0.975   2.178  0.0678  0.0809  0.1647
  956TIP3   OH2 2873   0.171   4.626   1.136 -0.0852  0.4759 -0.7313
  956TIP3    H1 2874   0.235   4.570   1.091 -0.3836 -0.0606 -0.4989
  956TIP3    H2 2875   0.147   4.576   1.214 -0.2713  0.9856 -0.4601
  957TIP3   OH2 2876   5.123   2.410   1.772  0.1627 -0.3223  0.1153
  957TIP3    H1 2877   5.055   2.346   1.751 -1.9744  1.1545  1.9442
  957TIP3    H2 2878   5.189   2.361   1.820 -1.9356 -1.0897  2.4618
  958TIP3   OH2 2879   1.054   2.989   0.388 -0.3373  0.2210  0.6180
  958TIP3    H1 2880   0.995   2.996   0.313  1.8656 -2.0230 -1.5307
  958TIP3    H2 2881   1.019   2.916   0.439  0.1356 -0.6576 -0.2776
  959TIP3   OH2 2882   4.098   5.413   2.688  0.4063 -0.0606 -0.5291
  959TIP3    H1 2883   4.061   5.499   2.707  2.4086  1.5645 -3.2622
  959TIP3    H2 2884   4.067   5.392   2.600  1.7345 -1.0821 -0.7891
  960TIP3   OH2 2885   0.855   0.152   1.783  0.6082 -0.3955  0.4062
  960TIP3    H1 2886   0.865   0.072   1.731 -0.0717 -0.7596  0.8179
  960TIP3    H2 2887   0.779   0.196   1.746  0.5877 -0.2661  0.5994
  961TIP3   OH2 2888   0.095   0.679   1.090 -0.0568  0.6556 -0.2480
  961TIP3    H1 2889   0.105   0.774   1.078  1.0046  0.5864  0.0195
  961TIP3    H2 2890   0.043   0.651   1.014 -0.3835  1.4470 -0.3273
  962TIP3   OH2 2891   3.144   3.602   0.848 -0.0725 -0.2517  0.4023
  962TIP3    H1 2892   3.161   3.508   0.845  0.7209 -0.1122  0.5047
  962TIP3    H2 2893   3.194   3.634   0.923 -0.5151  0.2184  0.5082
  963TIP3   OH2 2894   5.775   3.461   4.046  0.1944 -0.1629 -0.1379
  963TIP3    H1 2895   5.700   3.516   4.068  0.4139 -0.1101  0.5024
  963TIP3    H2 2896   5.850   3.505   4.088  0.2944 -1.2210  0.8154
  964TIP3   OH2 2897   2.490   3.809   2.199  0.0473  0.3927 -0.2487
  964TIP3    H1 2898   2.439   3.860   2.137  1.8350  0.1212 -2.0316
  964TIP3    H2 2899   2.568   3.862   2.217  1.1035 -0.9041 -0.7949
  965TIP3   OH2 2900   0.605   5.881   4.911  0.2293 -0.3189  0.1571
  965TIP3    H1 2901   0.539   5.875   4.980 -0.6138 -0.6002 -0.6484
  965TIP3    H2 2902   0.576   5.819   4.844  0.4060  0.7237 -0.9354
  966TIP3   OH2 2903   4.728   3.562   1.492 -0.1299 -0.0157  0.5414
  966TIP3    H1 2904   4.777   3.641   1.512 -0.0642  0.1348 -0.1854
  966TIP3    H2 2905   4.737   3.507   1.570  0.4305  0.3895  0.7646
  967TIP3   OH2 2906   1.078   5.617   2.910  0.2709  0.1144 -0.2201
  967TIP3    H1 2907   1.143   5.547   2.918 -0.2900 -0.4337 -0.3741
  967TIP3    H2 2908   1.122   5.694   2.945  1.6665  0.1835 -1.9508
  968TIP3   OH2 2909   4.830   0.362   2.525  0.2011  0.6485 -0.3501
  968TIP3    H1 2910   4.874   0.371   2.609 -0.3921 -1.3277  0.2303
  968TIP3    H2 2911   4.852   0.443   2.478  0.5876  1.7868  1.6492
  969TIP3   OH2 2912   5.840   2.170   0.182  0.4208 -0.1422 -0.0135
  969TIP3    H1 2913   5.774   2.101   0.184  0.6751 -0.3897 -0.2297
  969TIP3    H2 2914   5.854   2.189   0.089 -1.7161  2.1973  0.0181
  970TIP3   OH2 2915   1.885   4.089   5.137 -0.2387 -0.2369 -0.0002
  970TIP3    H1 2916   1.886   4.167   5.193 -0.3655 -0.5951  0.5020
  970TIP3    H2 2917   1.928   4.021   5.188  0.9927 -0.1861 -0.9142
  971TIP3   OH2 2918   1.425   5.826   0.690  0.1224 -0.3097 -0.3294
  971TIP3    H1 2919   1.409   5.797   0.780  1.9781  0.9431  0.4580
  971TIP3    H2 2920   1.454   5.748   0.644 -0.8404 -0.9649  0.1381
  972TIP3   OH2 2921   0.887   2.677   2.685 -0.5898  0.8935 -0.0561
  972TIP3    H1 2922   0.980   2.689   2.665 -0.3982  0.5599  0.6023
  972TIP3    H2 2923   0.886   2.652   2.777 -1.2774  0.0804 -0.2737
  973TIP3   OH2 2924   0.426   2.732   4.238 -0.7047 -0.1341  0.6188
  973TIP3    H1 2925   0.505   2.769   4.278 -0.7182  0.9214 -0.3016
  973TIP3    H2 2926   0.439   2.637   4.242 -0.0840 -0.0068  1.8462
  974TIP3   OH2 2927   2.926   4.419   4.446  0.3420 -0.4379  0.0814
  974TIP3    H1 2928   2.960   4.347   4.499  0.5141 -0.6695 -0.3314
  974TIP3    H2 2929   2.946   4.393   4.356  3.4103  1.6118  0.0165
  975TIP3   OH2 2930   0.265   0.932   1.835 -0.3964 -0.5823  0.1186
  975TIP3    H1 2931   0.173   0.944   1.860 -0.4987 -0.2196 -0.4106
  975TIP3    H2 2932   0.278   0.992   1.761 -0.0942 -1.6275 -0.6900
  976TIP3   OH2 2933   6.011   3.549   4.163  0.8624  0.2586 -0.0956
  976TIP3    H1 2934   5.970   3.625   4.205  0.4424  0.8568 -1.5221
  976TIP3    H2 2935   6.098   3.543   4.203  0.9009  1.4943  0.0465
  977TIP3   OH2 2936   2.708   5.574   1.588 -0.3137 -0.3440 -0.1360
  977TIP3    H1 2937   2.666   5.637   1.647 -0.6594 -1.3089  0.6812
  977TIP3    H2 2938   2.802   5.590   1.600 -0.2888 -1.5725  1.9695
  978TIP3   OH2 2939   0.684   0.350   2.751  0.1682  0.6613 -0.2183
  978TIP3    H1 2940   0.690   0.382   2.840 -1.6857  1.8824 -0.4656
  978TIP3    H2 2941   0.666   0.256   2.760  0.2334  0.7325  0.6701
  979TIP3   OH2 2942   0.411   1.743   0.853  0.1827 -0.2685  0.4054
  979TIP3    H1 2943   0.407   1.736   0.758 -0.8824 -3.7735  0.5814
  979TIP3    H2 2944   0.339   1.802   0.876 -1.5245 -1.7459 -0.8594
  980TIP3   OH2 2945   0.736   5.046   1.376 -0.3184 -0.1308  0.2994
  980TIP3    H1 2946   0.700   5.131   1.403 -0.8682 -0.1128 -0.4650
  980TIP3    H2 2947   0.770   5.062   1.288 -1.1679 -0.9107 -0.1797
  981TIP3   OH2 2948   3.945   1.736   4.659 -0.2368  0.4311 -0.7148
  981TIP3    H1 2949   3.988   1.652   4.677 -0.0589  0.3975 -1.2888
  981TIP3    H2 2950   3.982   1.796   4.724  1.6738  0.7277 -1.9926
  982TIP3   OH2 2951   4.496   4.806   3.349  0.3065 -0.1825  0.1148
  982TIP3    H1 2952   4.501   4.768   3.437 -0.3243 -0.2341  0.1348
  982TIP3    H2 2953   4.410   4.847   3.345  0.0405 -0.7772 -0.7094
  983TIP3   OH2 2954   3.799   3.116   4.740  0.5731  0.0091  0.5645
  983TIP3    H1 2955   3.819   3.179   4.671 -0.6729  1.4442  1.4486
  983TIP3    H2 2956   3.754   3.167   4.807 -1.9941 -2.1192  0.6297
  984TIP3   OH2 2957   0.479   1.077   1.182  0.8700 -0.0872  0.1738
  984TIP3    H1 2958   0.425   1.139   1.133 -0.3332 -0.4984  0.9282
  984TIP3    H2 2959   0.515   1.128   1.254  3.0318  0.6401 -1.3045
  985TIP3   OH2 2960   3.524   5.030   2.832  0.0646 -0.0961  0.5268
  985TIP3    H1 2961   3.463   4.998   2.899 -0.3318 -0.8529 -0.1793
  985TIP3    H2 2962   3.590   4.962   2.824  0.5256  0.3265  0.6543
  986TIP3   OH2 2963   4.368   3.711   3.512 -0.0724  0.1281  0.3861
  986TIP3    H1 2964   4.430   3.695   3.441 -1.3216  0.2791 -0.7730
  986TIP3    H2 2965   4.323   3.792   3.487 -1.1450 -0.2938  0.9086
  987TIP3   OH2 2966   0.954   2.886   3.446  0.6504 -0.2960  0.3799
  987TIP3    H1 2967   0.914   2.934   3.375  0.8136 -1.2263 -0.3565
  987TIP3    H2 2968   0.939   2.793   3.425  2.3745 -0.6465  0.5251
  988TIP3   OH2 2969   5.288   1.619   1.899 -0.3349 -0.1776  0.2743
  988TIP3    H1 2970   5.341   1.586   1.826  1.3537  0.9271  0.9336
  988TIP3    H2 2971   5.206   1.645   1.859  0.2094 -0.4532 -1.0841
  989TIP3   OH2 2972   4.876   2.158   3.133  0.6421  0.1546 -0.5138
  989TIP3    H1 2973   4.847   2.078   3.090  1.1594 -0.7225  0.7128
  989TIP3    H2 2974   4.821   2.227   3.096 -0.9478 -1.0074 -0.4186
  990TIP3   OH2 2975   3.318   4.915   2.177  0.0513 -0.8107 -0.1452
  990TIP3    H1 2976   3.323   5.011   2.175  1.1620 -0.8635 -1.3592
  990TIP3    H2 2977   3.337   4.892   2.268 -2.0221  0.1568  0.6165
  991TIP3   OH2 2978   2.214   5.385   1.254 -0.2623 -0.0123  0.1584
  991TIP3    H1 2979   2.124   5.417   1.244  0.2111  1.3313  0.0451
  991TIP3    H2 2980   2.239   5.410   1.343  0.5892  1.2337 -0.3971
  992TIP3   OH2 2981   0.974   5.129   2.295  0.7012 -0.5359  0.1955
  992TIP3    H1 2982   1.040   5.061   2.311 -0.0296 -1.9000 -2.1899
  992TIP3    H2 2983   0.892   5.091   2.327  0.8818  1.0817  2.9708
  993TIP3   OH2 2984   4.469   2.892   4.520 -0.5924  0.0038 -0.3112
  993TIP3    H1 2985   4.476   2.907   4.614 -0.0181  2.5904 -0.6791
  993TIP3    H2 2986   4.387   2.937   4.495 -1.2237 -1.4323 -0.9415
  994TIP3   OH2 2987   4.974   2.322   0.474 -0.0139  0.6520 -0.4682
  994TIP3    H1 2988   5.021   2.296   0.395 -0.1810 -0.2447 -0.2864
  994TIP3    H2 2989   4.976   2.244   0.530 -0.5210  1.0402  0.1081
  995TIP3   OH2 2990   3.227   4.143   3.776 -0.4232  0.4076  0.8031
  995TIP3    H1 2991   3.273   4.222   3.805 -0.3324  0.4688  0.4990
  995TIP3    H2 2992   3.231   4.083   3.851  0.2747  0.3598  0.7336
  996TIP3   OH2 2993   2.439   3.557   0.471 -0.1899 -0.0524  0.0192
  996TIP3    H1 2994   2.445   3.507   0.552  1.0100 -0.7504 -0.4774
  996TIP3    H2 2995   2.479   3.641   0.492  0.6522 -0.4367  0.0210
  997TIP3   OH2 2996   5.064   4.262   1.147 -0.1258 -0.1789  0.0158
  997TIP3    H1 2997   5.041   4.322   1.076 -1.0396 -0.5831 -0.0461
  997TIP3    H2 2998   4.983   4.250   1.196  0.6296  0.5255  1.4755
  998TIP3   OH2 2999   3.954   4.631   0.221  0.0812 -0.3224  0.3678
  998TIP3    H1 3000   3.905   4.563   0.175 -0.5771 -0.0361  0.6233
  998TIP3    H2 3001   3.954   4.603   0.312  0.1335 -0.1698  0.4146
  999TIP3   OH2 3002   3.507   5.311   5.096  0.1468  0.2840  0.6495
  999TIP3    H1 3003   3.456   5.324   5.016 -1.7382 -1.4984  1.4538
  999TIP3    H2 3004   3.598   5.313   5.067 -0.4538  0.5278 -1.3837
 1000TIP3   OH2 3005   1.909   0.199   3.752 -0.8921  0.7927 -0.5789
 1000TIP3    H1 3006   1.977   0.265   3.737  0.3786 -0.3566 -0.2044
 1000TIP3    H2 3007   1.865   0.227   3.833  1.3592 -0.0896  1.0726
 1001TIP3   OH2 3008   3.453   5.115   3.502  0.9060 -0.1005 -0.1028
 1001TIP3    H1 3009   3.461   5.020   3.506  0.3576 -0.2629 -1.9158
 1001TIP3    H2 3010   3.408   5.132   3.419 -2.5309  1.5314  1.8548
 1002TIP3   OH2 3011   3.803   3.137   1.380  0.2143 -0.6000 -0.0572
 1002TIP3    H1 3012   3.727   3.137   1.323 -1.3471  2.4299  1.7298
 1002TIP3    H2 3013   3.856   3.211   1.349  0.2739 -0.0899  1.1756
 1003TIP3   OH2 3014   2.635   2.927   0.472  0.0010  0.3293 -0.2479
 1003TIP3    H1 3015   2.633   3.003   0.413 -0.6797  0.7366  0.2822
 1003TIP3    H2 3016   2.717   2.937   0.520  0.6251 -0.0768 -1.2009
 1004TIP3   OH2 3017   2.654   1.350   1.908 -0.7143 -0.1170 -0.0386
 1004TIP3    H1 3018   2.649   1.296   1.829 -0.1586 -0.5723  0.2344
 1004TIP3    H2 3019   2.716   1.420   1.885  1.7814 -1.8874  0.9281
 1005TIP3   OH2 3020   4.419   0.014   4.283 -0.1582  1.6504  0.1001
 1005TIP3    H1 3021   4.386  -0.037   4.210 -1.1279  1.1543  0.8549
 1005TIP3    H2 3022   4.513   0.025   4.265  0.7336 -2.5540  1.0770
 1006TIP3   OH2 3023   0.317   5.724   2.831  0.3073 -0.0581  0.1276
 1006TIP3    H1 3024   0.245   5.734   2.892 -0.4961 -2.0313 -0.4317
 1006TIP3    H2 3025   0.275   5.717   2.745  1.0391 -2.3052 -0.0962
 1007TIP3   OH2 3026   4.948   2.731   4.085  0.7974 -0.3845 -0.5127
 1007TIP3    H1 3027   4.861   2.697   4.064  0.6298  0.4881 -1.2798
 1007TIP3    H2 3028   5.003   2.701   4.012  0.9666 -0.2552 -0.4378
 1008TIP3   OH2 3029   1.315   0.371   1.853 -0.2583 -0.1588 -0.7193
 1008TIP3    H1 3030   1.239   0.314   1.842  0.8472 -1.4573 -1.8043
 1008TIP3    H2 3031   1.358   0.372   1.768  1.5314 -0.2981  0.1425
 1009TIP3   OH2 3032   3.832   3.329   4.571  0.3032  0.2906  0.7094
 1009TIP3    H1 3033   3.835   3.415   4.614  0.5054  0.2273  0.8273
 1009TIP3    H2 3034   3.745   3.324   4.533  1.1538  1.7002 -1.6747
 1010TIP3   OH2 3035   0.466   4.898   4.890 -0.2701 -0.0322  0.4219
 1010TIP3    H1 3036   0.479   4.958   4.964  0.0785 -1.6948  1.7991
 1010TIP3    H2 3037   0.534   4.832   4.902 -1.5302 -1.4959 -0.1729
 1011TIP3   OH2 3038   6.223   5.562   4.701 -0.3467 -0.1545  0.0647
 1011TIP3    H1 3039   6.173   5.489   4.737  0.2313 -0.8099 -0.4303
 1011TIP3    H2 3040   6.281   5.522   4.636  0.0246  0.7360 -0.1710
 1012TIP3   OH2 3041   4.822   4.193   1.252  0.1529  0.5166 -0.1657
 1012TIP3    H1 3042   4.766   4.238   1.315  0.3956  0.4181  0.1252
 1012TIP3    H2 3043   4.763   4.163   1.183 -0.2006  0.0931  0.3196
 1013TIP3   OH2 3044   2.164   4.217   3.126  0.3160  0.7310 -0.2315
 1013TIP3    H1 3045   2.253   4.252   3.112  0.3558  0.6366 -0.2120
 1013TIP3    H2 3046   2.165   4.131   3.085  0.5392  0.3063  0.6574
 1014TIP3   OH2 3047   2.376   0.076   2.696  0.2496  0.7956  0.1106
 1014TIP3    H1 3048   2.366   0.117   2.782  0.3469 -0.0816  0.5500
 1014TIP3    H2 3049   2.396   0.149   2.637  0.3333  1.3882  0.8557
 1015TIP3   OH2 3050   4.303   1.371   4.517  0.4927 -0.3375  0.1348
 1015TIP3    H1 3051   4.257   1.419   4.449  0.0677 -1.9220 -0.7449
 1015TIP3    H2 3052   4.374   1.429   4.545 -0.6412  1.2112 -0.1007
 1016TIP3   OH2 3053   4.514   0.510   4.103  0.6131 -0.4622  0.5560
 1016TIP3    H1 3054   4.462   0.507   4.184  0.2177  0.0326  0.3249
 1016TIP3    H2 3055   4.563   0.428   4.104 -0.1975 -0.9610  0.7738
 1017TIP3   OH2 3056   4.685   1.709   3.796  0.1203 -0.0163 -0.1969
 1017TIP3    H1 3057   4.622   1.708   3.724  0.4647  0.2788 -0.5102
 1017TIP3    H2 3058   4.636   1.744   3.870 -0.0277  0.4085 -0.4928
 1018TIP3   OH2 3059   1.351   2.728   4.290 -0.1707  0.2143 -0.4881
 1018TIP3    H1 3060   1.297   2.768   4.222 -1.2312  1.3225  0.9338
 1018TIP3    H2 3061   1.376   2.801   4.347 -0.5762 -0.8524  1.1381
 1019TIP3   OH2 3062   1.383   5.718   4.454  0.0879 -0.0077  0.0639
 1019TIP3    H1 3063   1.360   5.732   4.362  0.4241 -2.1989 -0.4199
 1019TIP3    H2 3064   1.419   5.629   4.456  2.4323  0.8809  1.8954
 1020TIP3   OH2 3065   5.327   4.706   0.741 -0.4851 -0.1720 -0.4909
 1020TIP3    H1 3066   5.286   4.779   0.788  1.1967 -0.4316  1.4833
 1020TIP3    H2 3067   5.253   4.651   0.715 -1.5437  0.1200  1.6591
 1021TIP3   OH2 3068   6.075   4.233   4.011 -0.5062  0.0250  0.1334
 1021TIP3    H1 3069   6.143   4.184   3.963 -0.2895  1.5316 -1.1685
 1021TIP3    H2 3070   6.086   4.205   4.102  1.1747 -0.5691 -0.2057
 1022TIP3   OH2 3071   5.263   0.654   1.240  0.5487  0.1007  0.1954
 1022TIP3    H1 3072   5.238   0.718   1.306  2.0801  1.3369 -0.3480
 1022TIP3    H2 3073   5.341   0.612   1.276  0.8111  0.0768 -0.3918
 1023TIP3   OH2 3074   5.658   3.014   3.879  0.4661  0.4230  0.1764
 1023TIP3    H1 3075   5.730   3.066   3.912  0.3387 -0.0385  1.2342
 1023TIP3    H2 3076   5.610   2.986   3.958  1.2471 -2.3090 -0.2202
 1024TIP3   OH2 3077   5.542   0.197   4.197 -0.0761  0.4619 -0.4579
 1024TIP3    H1 3078   5.482   0.180   4.125  0.2180  1.8027 -1.0492
 1024TIP3    H2 3079   5.496   0.263   4.250  0.1703  0.2742 -0.0107
 1025TIP3   OH2 3080   1.490   3.072   0.092 -0.2474 -0.5496  0.0136
 1025TIP3    H1 3081   1.470   3.075  -0.001  0.7990  0.9606 -0.1987
 1025TIP3    H2 3082   1.442   3.146   0.129  0.8928  0.0549  0.3199
 1026TIP3   OH2 3083   1.836   2.008   1.754  0.2183  0.3128 -0.0864
 1026TIP3    H1 3084   1.778   1.938   1.784 -1.3263  0.9874 -1.3928
 1026TIP3    H2 3085   1.923   1.982   1.786 -0.4628 -1.7016  0.2613
 1027TIP3   OH2 3086   4.852   5.804   1.147  0.0428  0.6055  0.4278
 1027TIP3    H1 3087   4.928   5.755   1.118  0.2704  1.1680  0.0712
 1027TIP3    H2 3088   4.854   5.797   1.243 -0.3617 -0.7214  0.3551
 1028TIP3   OH2 3089   4.126   3.652   1.564 -0.6926  0.2845  0.5139
 1028TIP3    H1 3090   4.046   3.614   1.528 -0.5798  0.2987  0.2457
 1028TIP3    H2 3091   4.184   3.663   1.488  0.2654 -1.4274  0.9561
 1029TIP3   OH2 3092   4.950   3.002   2.213  0.0587  0.5116 -0.2384
 1029TIP3    H1 3093   4.986   2.913   2.212  0.0700  0.5217 -1.7222
 1029TIP3    H2 3094   4.859   2.990   2.240 -0.6573 -0.2747 -2.7129
 1030TIP3   OH2 3095   5.175   4.231   4.540 -0.3121  0.4992  0.6607
 1030TIP3    H1 3096   5.154   4.296   4.607 -3.0438 -0.8289  1.2473
 1030TIP3    H2 3097   5.170   4.278   4.457 -3.0513  0.9623  1.0068
 1031TIP3   OH2 3098   0.349   5.775   4.515 -0.1977  0.6374  0.3710
 1031TIP3    H1 3099   0.261   5.783   4.550  0.5368  0.9002  2.2534
 1031TIP3    H2 3100   0.385   5.698   4.559  0.5352  0.5684 -0.3307
 1032TIP3   OH2 3101   2.947   5.437   3.706 -0.0343 -0.7298 -0.2493
 1032TIP3    H1 3102   3.040   5.429   3.728  0.1740 -0.4033 -0.9822
 1032TIP3    H2 3103   2.944   5.425   3.611 -0.5447  0.7315 -0.4501
 1033TIP3   OH2 3104   1.774   0.486   0.719  0.3002  0.0434 -0.2451
 1033TIP3    H1 3105   1.678   0.483   0.721  0.2593  1.2636  0.3714
 1033TIP3    H2 3106   1.801   0.460   0.807  0.5186  0.0328 -0.3134
 1034TIP3   OH2 3107   0.560   3.550   2.838  0.2971  0.5902  0.1191
 1034TIP3    H1 3108   0.558   3.459   2.808  0.8313  1.1147 -1.6531
 1034TIP3    H2 3109   0.591   3.545   2.928 -0.4261 -1.0312  0.3168
 1035TIP3   OH2 3110   1.287   4.267   0.529  0.0851 -0.1320 -0.0233
 1035TIP3    H1 3111   1.372   4.311   0.521 -0.5640  0.9782 -1.0788
 1035TIP3    H2 3112   1.295   4.216   0.610  2.1343 -0.9304 -0.6431
 1036TIP3   OH2 3113   0.114   0.577   1.354  0.7624 -0.8475 -0.1224
 1036TIP3    H1 3114   0.099   0.587   1.260  0.8063  0.4622 -0.0107
 1036TIP3    H2 3115   0.028   0.594   1.394  1.2443  0.9723  0.1939
 1037TIP3   OH2 3116   3.060   5.194   2.847  0.0943  0.2802 -0.0179
 1037TIP3    H1 3117   3.015   5.109   2.846 -1.4485  1.0095  1.4639
 1037TIP3    H2 3118   2.994   5.255   2.815 -0.0531  1.3780  2.1719
 1038TIP3   OH2 3119   4.424   0.494   4.496 -0.3656 -0.2289  0.1816
 1038TIP3    H1 3120   4.355   0.490   4.562 -1.0592  0.7008 -0.4672
 1038TIP3    H2 3121   4.403   0.422   4.436 -0.4765 -0.2763  0.2770
 1039TIP3   OH2 3122   0.882   5.836   1.790 -0.2729 -0.3330 -0.1831
 1039TIP3    H1 3123   0.805   5.782   1.808 -0.0835  0.0529  2.0659
 1039TIP3    H2 3124   0.880   5.849   1.695 -1.4828 -2.5101 -0.5301
 1040TIP3   OH2 3125   3.302   5.734   4.731 -0.2485  0.1432  0.1260
 1040TIP3    H1 3126   3.396   5.737   4.718 -0.4114 -1.5728 -1.9243
 1040TIP3    H2 3127   3.287   5.653   4.781 -0.6433  0.4311  0.4841
 1041TIP3   OH2 3128   1.776   4.896   2.339 -0.3940  0.3508 -0.1918
 1041TIP3    H1 3129   1.765   4.966   2.276  0.3065  0.1443 -0.5519
 1041TIP3    H2 3130   1.797   4.940   2.421  0.9659  0.5395 -0.6213
 1042TIP3   OH2 3131   5.944   1.969   4.407  0.1612 -0.0208  0.4104
 1042TIP3    H1 3132   5.888   1.892   4.419 -1.1932  0.1155 -3.4588
 1042TIP3    H2 3133   5.883   2.042   4.402  1.1094  0.8040  0.5732
 1043TIP3   OH2 3134   5.726   3.363   2.570  0.2566 -0.5413 -0.1376
 1043TIP3    H1 3135   5.783   3.435   2.594  1.2821 -1.0948 -0.8379
 1043TIP3    H2 3136   5.691   3.331   2.653 -2.0545  2.1515  0.0822
 1044TIP3   OH2 3137   0.603   0.627   4.287 -0.7151 -0.0673 -0.2187
 1044TIP3    H1 3138   0.645   0.703   4.327  0.6424 -0.3697 -1.0077
 1044TIP3    H2 3139   0.614   0.557   4.352  2.1626 -0.7623 -1.3042
 1045TIP3   OH2 3140   0.235   3.087   2.986 -0.6228 -0.0212  0.1146
 1045TIP3    H1 3141   0.255   3.177   3.013 -0.3941  1.1298 -3.3831
 1045TIP3    H2 3142   0.321   3.047   2.972 -0.7370 -0.5935  0.9521
 1046TIP3   OH2 3143   0.088   2.326   2.409  0.7987  0.2552 -0.5740
 1046TIP3    H1 3144   0.167   2.277   2.385  2.3945  2.7567 -0.7738
 1046TIP3    H2 3145   0.063   2.291   2.494  1.7139 -1.0248 -0.8003
 1047TIP3   OH2 3146  -0.015   5.105   2.622 -0.3859 -0.3185 -0.2883
 1047TIP3    H1 3147   0.031   5.038   2.572  1.2426  0.0677  0.6454
 1047TIP3    H2 3148   0.004   5.084   2.714  0.0401  1.3189  0.0265
 1048TIP3   OH2 3149   1.921   3.417   3.384 -0.3204  0.2017  0.0670
 1048TIP3    H1 3150   1.886   3.390   3.299 -0.6858  3.0359 -0.7993
 1048TIP3    H2 3151   1.845   3.418   3.442 -0.0440 -1.8881  0.5497
 1049TIP3   OH2 3152   3.971   4.492   2.073  0.5410 -0.0337 -0.3070
 1049TIP3    H1 3153   4.028   4.557   2.032 -0.2236 -0.4947 -2.2127
 1049TIP3    H2 3154   3.883   4.529   2.066  0.2834 -0.5423  0.1258
 1050TIP3   OH2 3155   2.279   2.561   4.090  0.5319 -0.9010 -0.3271
 1050TIP3    H1 3156   2.360   2.509   4.094  0.7197 -0.6390 -0.6245
 1050TIP3    H2 3157   2.266   2.592   4.180  1.7796  0.5686 -0.5951
 1051TIP3   OH2 3158   0.503   5.022   0.861 -0.2495 -0.4564 -0.0696
 1051TIP3    H1 3159   0.427   4.971   0.890 -3.0117  3.4955  0.4469
 1051TIP3    H2 3160   0.496   5.023   0.765 -1.4362  0.5371  0.0005
 1052TIP3   OH2 3161   5.847   5.376   1.807  0.0665  0.0268 -0.0319
 1052TIP3    H1 3162   5.843   5.288   1.844 -0.1960 -0.9436 -2.2231
 1052TIP3    H2 3163   5.756   5.398   1.786  0.2332  0.4053 -0.3832
 1053TIP3   OH2 3164   0.119   4.003   1.524  0.1622 -0.2554 -0.0040
 1053TIP3    H1 3165   0.199   3.998   1.472 -0.2517  0.5061 -0.7420
 1053TIP3    H2 3166   0.053   3.960   1.470 -0.3949  1.0228 -0.3720
 1054TIP3   OH2 3167   4.276   2.707   2.382  0.2318  0.2641 -0.3452
 1054TIP3    H1 3168   4.264   2.631   2.325 -0.2332 -0.5913  0.8353
 1054TIP3    H2 3169   4.311   2.775   2.325 -0.7432 -0.3702 -1.7537
 1055TIP3   OH2 3170   0.651   4.426   0.679 -0.4556  0.3902  0.2333
 1055TIP3    H1 3171   0.670   4.333   0.692  0.9101  0.8406  1.7773
 1055TIP3    H2 3172   0.656   4.438   0.584  1.9906 -0.6231  0.1557
 1056TIP3   OH2 3173   5.777   1.335   4.226 -0.2058 -0.3182  0.4087
 1056TIP3    H1 3174   5.688   1.300   4.222 -0.4083  0.2168  0.1106
 1056TIP3    H2 3175   5.783   1.377   4.312  0.2633 -1.6520  1.0490
 1057TIP3   OH2 3176   1.539   3.099   3.200 -0.0693  0.6403  0.8536
 1057TIP3    H1 3177   1.565   3.190   3.186 -0.6389  0.9238  1.5908
 1057TIP3    H2 3178   1.458   3.089   3.150  0.4295  0.2986  0.1036
 1058TIP3   OH2 3179   3.692   3.497   1.598  0.1559  0.5821 -0.2548
 1058TIP3    H1 3180   3.634   3.424   1.619  0.7675 -0.1424 -0.9838
 1058TIP3    H2 3181   3.673   3.563   1.664 -0.6584 -0.1052  0.2169
 1059TIP3   OH2 3182   0.364   3.411   0.458  0.1299  0.1842  0.7596
 1059TIP3    H1 3183   0.344   3.355   0.533 -1.9432 -0.0571  0.1006
 1059TIP3    H2 3184   0.301   3.482   0.464  1.8901  1.8026  0.8615
 1060TIP3   OH2 3185   3.348   3.815   1.392 -0.2184  0.0519  0.2184
 1060TIP3    H1 3186   3.373   3.872   1.319 -1.1832 -0.0428 -0.2005
 1060TIP3    H2 3187   3.432   3.786   1.429  0.3053  1.7802  0.4941
 1061TIP3   OH2 3188   4.300   0.917   0.835 -0.4727 -0.2715  0.2258
 1061TIP3    H1 3189   4.344   0.905   0.750 -0.7263  1.6387 -0.2244
 1061TIP3    H2 3190   4.238   0.844   0.840 -0.8650 -0.1132 -1.5277
 1062TIP3   OH2 3191   0.270   3.282   1.420 -0.2715  0.4035 -0.2600
 1062TIP3    H1 3192   0.180   3.308   1.401 -0.6928  2.0179  3.2198
 1062TIP3    H2 3193   0.318   3.364   1.428  0.4965 -0.1884  1.9822
 1063TIP3   OH2 3194   3.036   1.747   2.316  0.0092 -0.8696  0.4772
 1063TIP3    H1 3195   3.073   1.663   2.342 -2.2646 -2.0723  0.0560
 1063TIP3    H2 3196   2.961   1.760   2.374 -1.1661 -0.3917 -1.0675
 1064TIP3   OH2 3197   3.186   3.861   1.673  0.1995  0.7668  0.4392
 1064TIP3    H1 3198   3.147   3.941   1.708 -0.6722 -0.6616  3.0553
 1064TIP3    H2 3199   3.277   3.863   1.702 -0.0329  0.4715  1.2213
 1065TIP3   OH2 3200   1.559   5.006   1.084 -0.2103 -0.3626 -0.1171
 1065TIP3    H1 3201   1.565   5.021   0.990  1.1610  1.3130  0.1919
 1065TIP3    H2 3202   1.506   5.078   1.118 -0.8246 -1.0358  0.3810
 1066TIP3   OH2 3203   6.158   0.314   1.390 -0.1916  0.0872 -0.2583
 1066TIP3    H1 3204   6.234   0.264   1.419 -0.3148  1.0767  1.9285
 1066TIP3    H2 3205   6.100   0.249   1.350  0.4613 -1.1996  0.8187
 1067TIP3   OH2 3206   4.156   0.116   0.504 -0.1253  0.0852 -0.3613
 1067TIP3    H1 3207   4.071   0.107   0.460  0.5478 -0.2261 -1.6506
 1067TIP3    H2 3208   4.171   0.030   0.545 -0.5531  0.2372  0.1309
 1068TIP3   OH2 3209   6.057   5.520   3.435 -0.1157  0.5934 -0.4549
 1068TIP3    H1 3210   6.080   5.611   3.413 -1.4495  1.0784  0.0431
 1068TIP3    H2 3211   6.116   5.497   3.506 -1.1957  1.8770  0.9363
 1069TIP3   OH2 3212   0.485   4.856   3.908  0.5899  0.0465  0.6256
 1069TIP3    H1 3213   0.506   4.843   4.001 -0.3640 -2.2747  0.5783
 1069TIP3    H2 3214   0.420   4.927   3.908  0.4262 -0.0863  1.7640
 1070TIP3   OH2 3215   1.214   2.552   3.255 -0.3990 -0.1559 -0.2719
 1070TIP3    H1 3216   1.141   2.504   3.293 -0.7332 -1.3010 -2.2404
 1070TIP3    H2 3217   1.290   2.496   3.271 -0.6728 -1.0619 -1.9199
 1071TIP3   OH2 3218   3.192   5.270   1.544  0.5509 -0.0145 -0.3438
 1071TIP3    H1 3219   3.228   5.355   1.518  2.5527 -1.8776 -4.6964
 1071TIP3    H2 3220   3.103   5.270   1.510  0.4410  0.4332 -0.0636
 1072TIP3   OH2 3221   1.138   1.447   1.621  0.5322 -0.6310  0.1495
 1072TIP3    H1 3222   1.204   1.498   1.668  0.9321 -1.0092  0.0026
 1072TIP3    H2 3223   1.188   1.380   1.574  0.1513 -0.2379 -0.8404
 1073TIP3   OH2 3224   3.776   1.431   2.984  0.6180  0.3342  0.3369
 1073TIP3    H1 3225   3.743   1.504   2.933 -0.9628 -1.0268 -0.7017
 1073TIP3    H2 3226   3.831   1.382   2.922  0.8031  0.0835  0.6991
 1074TIP3   OH2 3227   1.741   1.910   1.093 -0.2351  0.3349 -0.6454
 1074TIP3    H1 3228   1.696   1.979   1.044 -0.3628 -0.8920 -2.3483
 1074TIP3    H2 3229   1.683   1.834   1.086  0.4366 -0.2773  0.2127
 1075TIP3   OH2 3230   4.634   4.755   1.195  0.8781  0.0300 -0.5557
 1075TIP3    H1 3231   4.571   4.791   1.132  2.0553  1.9613 -0.7125
 1075TIP3    H2 3232   4.582   4.744   1.275  0.0406  0.3904 -1.0307
 1076TIP3   OH2 3233   4.056   4.688   3.229  0.5693  0.3055  0.3593
 1076TIP3    H1 3234   4.119   4.760   3.236  0.5698  0.2618  0.7943
 1076TIP3    H2 3235   4.110   4.609   3.229  0.4644  0.2272  1.6068
 1077TIP3   OH2 3236   1.184   1.273   2.345 -0.3388 -0.6021  0.2448
 1077TIP3    H1 3237   1.124   1.278   2.419  0.8050 -1.7492  1.2895
 1077TIP3    H2 3238   1.174   1.184   2.312 -0.4865 -0.2478 -0.7152
 1078TIP3   OH2 3239   0.969   5.491   2.127  0.5350 -0.2853 -0.3103
 1078TIP3    H1 3240   1.057   5.528   2.137 -0.0364  1.1143 -0.3474
 1078TIP3    H2 3241   0.971   5.411   2.180  1.7166 -0.0784 -0.0133
 1079TIP3   OH2 3242   1.178   3.367   1.228 -0.0386  0.0269 -0.0712
 1079TIP3    H1 3243   1.201   3.280   1.262 -1.5186 -0.1397  0.5958
 1079TIP3    H2 3244   1.251   3.423   1.255  0.9389 -0.9883 -0.5053
 1080TIP3   OH2 3245   5.101   0.870   2.332  0.5150 -0.3007 -0.4041
 1080TIP3    H1 3246   5.038   0.890   2.264  1.1837 -0.7699 -1.1772
 1080TIP3    H2 3247   5.052   0.881   2.414 -1.0453 -2.1978 -0.9923
 1081TIP3   OH2 3248   3.584   3.690   4.682 -0.0039  0.7007  0.1682
 1081TIP3    H1 3249   3.649   3.760   4.687  0.1113  0.5401  1.1824
 1081TIP3    H2 3250   3.587   3.649   4.768 -1.6922  0.8997  0.3598
 1082TIP3   OH2 3251   4.757   1.679   3.501  0.2371  0.0972  0.0894
 1082TIP3    H1 3252   4.674   1.684   3.548  0.5708  2.0017  0.5370
 1082TIP3    H2 3253   4.747   1.740   3.428  1.3974  0.7141  0.4247
 1083TIP3   OH2 3254   6.075   0.622   1.661 -0.1969  0.0958  0.3719
 1083TIP3    H1 3255   6.167   0.649   1.661 -0.1260  0.2403 -2.8217
 1083TIP3    H2 3256   6.077   0.529   1.686  1.2020 -0.6540 -2.2172
 1084TIP3   OH2 3257   2.914   4.087   3.151 -0.0869 -0.2731  0.1922
 1084TIP3    H1 3258   2.914   4.021   3.082 -1.3353  0.7140 -0.7764
 1084TIP3    H2 3259   2.841   4.063   3.208 -0.2599 -0.0020  0.0895
 1085TIP3   OH2 3260   0.474   4.791   3.253  0.0757 -0.1155 -0.0643
 1085TIP3    H1 3261   0.541   4.808   3.187  0.0225 -0.7242 -0.2735
 1085TIP3    H2 3262   0.432   4.876   3.266 -0.2687 -0.0939 -1.1937
 1086TIP3   OH2 3263   1.492   3.423   4.240 -0.6932  0.2092 -0.0376
 1086TIP3    H1 3264   1.547   3.499   4.259  0.2418 -0.7820  1.4786
 1086TIP3    H2 3265   1.404   3.459   4.230 -0.1600  1.5608 -0.0741
 1087TIP3   OH2 3266   5.441   5.155   2.681 -0.4162  0.1561  0.6219
 1087TIP3    H1 3267   5.518   5.121   2.726 -0.6636  0.8727  1.6296
 1087TIP3    H2 3268   5.447   5.120   2.593  1.4467  0.7672  0.4613
 1088TIP3   OH2 3269   4.331   1.449   1.606 -0.1402 -0.4814 -0.3692
 1088TIP3    H1 3270   4.394   1.378   1.591  2.0956  1.2136  0.4600
 1088TIP3    H2 3271   4.324   1.492   1.521 -0.6369 -0.9755 -0.5911
 1089TIP3   OH2 3272   2.919   2.977   0.545 -0.3903  0.1315  0.3592
 1089TIP3    H1 3273   2.947   3.052   0.598  2.8126 -0.6754  0.0145
 1089TIP3    H2 3274   2.989   2.966   0.480 -1.4118 -2.3586 -0.4262
 1090TIP3   OH2 3275   2.736   2.455   3.238 -0.2794  0.2994 -0.1453
 1090TIP3    H1 3276   2.680   2.519   3.194  0.2198  1.1376  0.4116
 1090TIP3    H2 3277   2.800   2.508   3.287  0.0601 -0.6186  0.4376
 1091TIP3   OH2 3278   5.890   5.645   2.277  0.7843  0.3614  0.1416
 1091TIP3    H1 3279   5.835   5.702   2.224  2.1876  0.3241 -1.4414
 1091TIP3    H2 3280   5.830   5.578   2.310 -0.0963  0.0411 -1.9112
 1092TIP3   OH2 3281   0.607   3.619   2.275  0.0592  0.0040  0.3031
 1092TIP3    H1 3282   0.603   3.586   2.365  0.8176 -2.0260 -0.3500
 1092TIP3    H2 3283   0.608   3.540   2.221 -0.3275  1.1801 -1.5006
 1093TIP3   OH2 3284   1.159   0.644   1.231  0.1487  0.0584 -0.8559
 1093TIP3    H1 3285   1.075   0.599   1.239 -0.4843  1.1529 -1.1322
 1093TIP3    H2 3286   1.219   0.593   1.284 -0.6293 -0.9036 -0.8760
 1094TIP3   OH2 3287   3.985   3.728   1.826 -0.2125 -0.1520  0.2544
 1094TIP3    H1 3288   4.012   3.712   1.735  1.2922 -0.8219  0.7720
 1094TIP3    H2 3289   4.059   3.695   1.878 -0.7244  0.8960  1.7008
 1095TIP3   OH2 3290   5.038   1.546   4.464 -0.2115  0.4786  0.0330
 1095TIP3    H1 3291   5.109   1.549   4.528 -0.1042 -0.2596 -0.0429
 1095TIP3    H2 3292   4.992   1.629   4.475  1.1154  1.2972 -0.4337
 1096TIP3   OH2 3293   5.525   3.831   2.145 -0.2387  0.2667 -0.6155
 1096TIP3    H1 3294   5.546   3.765   2.079 -0.1805  0.1413 -0.4733
 1096TIP3    H2 3295   5.555   3.914   2.108  0.1731  0.1392 -0.5673
 1097TIP3   OH2 3296   3.000   5.637   1.664  0.6042 -0.1985 -0.1212
 1097TIP3    H1 3297   2.960   5.724   1.665  1.8342  0.3922 -0.0912
 1097TIP3    H2 3298   3.004   5.611   1.756  1.8238  0.4949  0.0407
 1098TIP3   OH2 3299   2.314   5.217   2.915  0.6140  0.5555 -0.1572
 1098TIP3    H1 3300   2.254   5.193   2.844  0.2861 -0.6392  0.5045
 1098TIP3    H2 3301   2.266   5.197   2.995  0.8655  2.1755  0.4334
 1099TIP3   OH2 3302   2.072   5.303   4.118  0.2364 -0.2758 -0.5321
 1099TIP3    H1 3303   2.147   5.359   4.096  1.0166 -0.5469  1.2348
 1099TIP3    H2 3304   2.100   5.215   4.093 -0.0314 -0.2065 -1.0892
 1100TIP3   OH2 3305   5.569   4.650   1.125  0.4332  0.0167 -0.3851
 1100TIP3    H1 3306   5.602   4.661   1.036  0.7533  0.5570 -0.2126
 1100TIP3    H2 3307   5.552   4.740   1.155 -1.5306 -0.2596 -0.5743
 1101TIP3   OH2 3308   4.853   1.663   0.640  0.4123  0.2330  0.4617
 1101TIP3    H1 3309   4.793   1.600   0.680 -0.5657  1.9627  1.8448
 1101TIP3    H2 3310   4.940   1.629   0.659 -0.0577 -1.7409 -0.6102
 1102TIP3   OH2 3311   1.689   4.061   0.569  0.3601  0.2809  0.0798
 1102TIP3    H1 3312   1.640   4.119   0.510 -0.3062  0.3380  0.6808
 1102TIP3    H2 3313   1.707   4.114   0.646  0.2338 -0.1444  0.4037
 1103TIP3   OH2 3314   5.773   1.771   1.170  0.2744 -0.2272  0.1772
 1103TIP3    H1 3315   5.723   1.744   1.246  0.8477  0.2782  0.7429
 1103TIP3    H2 3316   5.776   1.693   1.114 -0.8683 -0.3534  0.2609
 1104TIP3   OH2 3317   0.151   0.418   2.068  0.0135  0.3153 -0.7259
 1104TIP3    H1 3318   0.104   0.374   1.998 -0.3302 -1.0078  0.2960
 1104TIP3    H2 3319   0.106   0.390   2.148  0.5634  1.5664  0.0469
 1105TIP3   OH2 3320   3.529   2.128   1.735  0.1309 -0.1380  0.0973
 1105TIP3    H1 3321   3.568   2.060   1.681  1.0174  0.1257  0.3969
 1105TIP3    H2 3322   3.538   2.096   1.825 -0.5559 -0.1793  0.1570
 1106TIP3   OH2 3323   5.514   4.922   3.652 -0.1200  0.2628  0.3691
 1106TIP3    H1 3324   5.508   5.017   3.655 -1.3814  0.1879  1.7775
 1106TIP3    H2 3325   5.427   4.892   3.679  0.4509 -1.2755  0.6086
 1107TIP3   OH2 3326   1.583   5.605   0.061  0.1236 -0.0484 -0.3682
 1107TIP3    H1 3327   1.513   5.670   0.063  0.6604  0.7449  3.8793
 1107TIP3    H2 3328   1.645   5.639  -0.003 -1.7109  1.1009 -1.6359
 1108TIP3   OH2 3329   2.763   0.301   0.598 -0.5721 -0.2495  0.5287
 1108TIP3    H1 3330   2.838   0.264   0.644 -1.2156 -0.8569  1.1236
 1108TIP3    H2 3331   2.690   0.243   0.621 -1.0670 -0.1453 -0.6675
 1109TIP3   OH2 3332   2.738   2.518   1.334  0.6723  0.4387 -0.0104
 1109TIP3    H1 3333   2.804   2.453   1.310 -0.4705 -0.5210 -0.7174
 1109TIP3    H2 3334   2.744   2.585   1.265  1.1298  0.5328  0.1188
 1110TIP3   OH2 3335   5.487   1.996   4.517 -0.1240 -0.2353  0.1758
 1110TIP3    H1 3336   5.551   2.045   4.465  0.6402 -0.2664  1.0515
 1110TIP3    H2 3337   5.538   1.962   4.591 -0.9621 -1.0714  0.3913
 1111TIP3   OH2 3338   5.686   0.728   1.122 -1.3102  0.4648 -0.0759
 1111TIP3    H1 3339   5.645   0.783   1.189 -0.9769  0.4789  0.1147
 1111TIP3    H2 3340   5.772   0.707   1.157 -0.4914  1.8009 -1.2166
 1112TIP3   OH2 3341   3.048   3.934   0.252 -0.4543 -0.1974  0.0794
 1112TIP3    H1 3342   3.077   3.870   0.188 -2.5038 -1.9893  0.7919
 1112TIP3    H2 3343   2.957   3.909   0.270 -1.0935  2.4948  0.9606
 1113TIP3   OH2 3344   3.533   4.876   1.532  0.2693 -0.1026 -0.1395
 1113TIP3    H1 3345   3.521   4.781   1.528  0.1147 -0.0782 -0.2988
 1113TIP3    H2 3346   3.444   4.911   1.537  0.3177  0.0431 -0.2986
 1114TIP3   OH2 3347   5.301   2.628   3.610 -0.2263 -0.5021  0.1465
 1114TIP3    H1 3348   5.219   2.678   3.619  0.2147  0.0968  1.0290
 1114TIP3    H2 3349   5.274   2.537   3.616 -1.0607 -0.3957 -1.5305
 1115TIP3   OH2 3350   4.850   5.263   0.294  0.0271 -0.1209  0.6175
 1115TIP3    H1 3351   4.788   5.211   0.345 -0.4395  0.0806  0.2595
 1115TIP3    H2 3352   4.845   5.351   0.331 -0.1696 -0.0199  0.3574
 1116TIP3   OH2 3353   4.995   3.908   0.659 -0.6160  0.0255 -0.2756
 1116TIP3    H1 3354   5.028   3.920   0.569 -1.2462  2.7702 -0.2393
 1116TIP3    H2 3355   5.028   3.985   0.706 -0.2682 -1.3987  1.8901
 1117TIP3   OH2 3356   6.081   5.490   2.854  0.0564 -0.1098 -0.2108
 1117TIP3    H1 3357   6.011   5.426   2.863 -1.1622  0.9204 -1.8415
 1117TIP3    H2 3358   6.100   5.493   2.760  1.9448  0.0378  0.1205
 1118TIP3   OH2 3359   4.806   1.285   2.700 -0.4326  0.5545  0.6392
 1118TIP3    H1 3360   4.713   1.266   2.715 -0.5491  0.8350  0.2942
 1118TIP3    H2 3361   4.845   1.201   2.680 -1.0236  0.6892 -1.3353
 1119TIP3   OH2 3362   2.681   1.207   2.813 -0.2735  0.1209 -0.0194
 1119TIP3    H1 3363   2.587   1.220   2.828 -0.2690 -0.2553  0.3492
 1119TIP3    H2 3364   2.709   1.150   2.884 -0.1384 -1.2411 -1.1055
 1120TIP3   OH2 3365   1.788   2.588   0.467 -0.3859  0.0163  0.2520
 1120TIP3    H1 3366   1.836   2.589   0.384 -2.0278  0.8287 -0.7432
 1120TIP3    H2 3367   1.778   2.495   0.488 -1.3716 -0.3036 -1.3816
 1121TIP3   OH2 3368   5.315   4.370   0.336  0.0860  0.2366  0.0546
 1121TIP3    H1 3369   5.273   4.289   0.308  0.2051 -0.4681  1.7879
 1121TIP3    H2 3370   5.372   4.344   0.408  1.5140  1.5898 -0.5197
 1122TIP3   OH2 3371   6.260   5.959   0.830  0.0849 -0.3977 -0.3804
 1122TIP3    H1 3372   6.320   5.946   0.902  0.1227 -0.5231 -0.4348
 1122TIP3    H2 3373   6.238   5.870   0.800  1.3477 -0.3244 -1.5881
 1123TIP3   OH2 3374   5.107   3.127   1.756  0.5038 -0.4948  0.3134
 1123TIP3    H1 3375   5.133   3.036   1.774  0.5611 -0.7273 -0.8785
 1123TIP3    H2 3376   5.028   3.139   1.808 -0.0707 -1.5585 -0.2755
 1124TIP3   OH2 3377   6.006   5.934   3.744 -0.0562 -0.0805  0.3029
 1124TIP3    H1 3378   5.975   5.932   3.653  0.4211  0.2208  0.1222
 1124TIP3    H2 3379   6.039   6.023   3.755  2.7463 -0.9488 -0.2439
 1125TIP3   OH2 3380   0.158   2.141   1.137 -1.0460  0.2600 -0.0499
 1125TIP3    H1 3381   0.113   2.131   1.053  0.2725  1.9836 -1.0175
 1125TIP3    H2 3382   0.160   2.235   1.153 -0.2003  0.0457  1.3354
 1126TIP3   OH2 3383   0.712   0.878   4.355  0.3734  0.3582 -0.4253
 1126TIP3    H1 3384   0.805   0.861   4.338  0.4512  0.2607  0.0894
 1126TIP3    H2 3385   0.712   0.953   4.414  0.1710 -0.3230  0.4555
 1127TIP3   OH2 3386   4.231   4.939   3.262 -0.0655  0.5483 -0.3591
 1127TIP3    H1 3387   4.256   5.030   3.271  0.7850  0.3257 -0.3461
 1127TIP3    H2 3388   4.139   4.936   3.288 -0.1755  1.4381 -0.6129
 1128TIP3   OH2 3389   2.747   0.171   4.862  0.0750  0.2051  0.3845
 1128TIP3    H1 3390   2.718   0.085   4.894 -0.3163  0.9115  2.0354
 1128TIP3    H2 3391   2.770   0.219   4.941  1.8249  1.0992 -0.6235
 1129TIP3   OH2 3392   4.101   1.336   0.267  0.5276  0.2457 -0.0159
 1129TIP3    H1 3393   4.096   1.297   0.354 -0.9647  0.3002 -0.0567
 1129TIP3    H2 3394   4.011   1.336   0.235  0.9663  0.7628 -1.3315
 1130TIP3   OH2 3395   0.768   1.935   3.894 -0.1544  0.4156  0.0875
 1130TIP3    H1 3396   0.798   1.872   3.828  0.1743 -0.0611  0.6869
 1130TIP3    H2 3397   0.848   1.971   3.931 -0.3326  1.4967 -0.5195
 1131TIP3   OH2 3398   3.194   0.128   0.488  0.0609  0.4109 -0.0729
 1131TIP3    H1 3399   3.130   0.166   0.549  0.0751  1.7555 -0.8669
 1131TIP3    H2 3400   3.143   0.103   0.412  0.3255  0.5034 -0.2824
 1132TIP3   OH2 3401   5.130   5.737   3.725  0.1506 -0.0013  0.4359
 1132TIP3    H1 3402   5.152   5.690   3.644 -0.3520  1.8886 -0.8558
 1132TIP3    H2 3403   5.210   5.787   3.745 -0.0984  0.3817  0.4751
 1133TIP3   OH2 3404   0.594   5.371   2.601 -0.0192 -0.0789 -0.4761
 1133TIP3    H1 3405   0.513   5.382   2.650  0.6493 -0.2143  0.6921
 1133TIP3    H2 3406   0.632   5.459   2.597  1.1113 -0.4436  1.3906
 1134TIP3   OH2 3407   3.083   3.323   4.970  0.4155  0.2263  0.5328
 1134TIP3    H1 3408   3.175   3.299   4.959  0.7923  1.5867  0.4993
 1134TIP3    H2 3409   3.083   3.385   5.044 -0.3716  0.7343  0.1322
 1135TIP3   OH2 3410   4.227   4.548   2.849  0.3889  0.0973 -0.1897
 1135TIP3    H1 3411   4.314   4.579   2.822  0.5633 -1.8408 -2.0487
 1135TIP3    H2 3412   4.245   4.468   2.898 -0.3407 -0.0040 -0.0847
 1136TIP3   OH2 3413   4.980   2.456   3.403 -0.2550 -0.2522  0.0651
 1136TIP3    H1 3414   5.042   2.385   3.386  1.8807  1.3713  0.5755
 1136TIP3    H2 3415   4.979   2.465   3.498 -2.7026 -1.3482  0.2256
 1137TIP3   OH2 3416   4.997   3.747   0.883 -0.3644  0.1045  0.2017
 1137TIP3    H1 3417   4.907   3.715   0.885 -0.1834 -0.6418 -1.6973
 1137TIP3    H2 3418   5.001   3.803   0.806  0.9739 -0.4806 -0.1837
 1138TIP3   OH2 3419   2.131   4.922   2.044 -0.5846 -0.3455  0.3670
 1138TIP3    H1 3420   2.100   4.847   2.094 -1.2049 -1.4890 -1.6420
 1138TIP3    H2 3421   2.226   4.922   2.056 -0.7029 -0.6354  1.4249
 1139TIP3   OH2 3422   3.663   4.304   3.675  0.2101  0.4622  0.0799
 1139TIP3    H1 3423   3.749   4.345   3.663  0.4774  0.5862  2.1499
 1139TIP3    H2 3424   3.660   4.280   3.767 -0.6747 -2.5882 -0.6324
 1140TIP3   OH2 3425   6.246   1.830   1.751  0.1935  1.2347 -0.1841
 1140TIP3    H1 3426   6.235   1.736   1.766 -2.0304  1.3742 -0.5213
 1140TIP3    H2 3427   6.337   1.848   1.774  0.6554 -0.9825 -0.0655
 1141TIP3   OH2 3428   1.818   0.621   3.631 -0.1328 -0.4759 -0.4065
 1141TIP3    H1 3429   1.746   0.569   3.665  0.0389 -0.1934  0.4090
 1141TIP3    H2 3430   1.868   0.561   3.576 -0.4519 -0.9242 -0.2081
 1142TIP3   OH2 3431   3.902   2.055   0.170  0.0494 -0.0522 -0.6327
 1142TIP3    H1 3432   3.996   2.042   0.180 -0.0308 -0.6396 -0.6032
 1142TIP3    H2 3433   3.883   2.025   0.080 -0.2609 -0.8637 -0.3081
 1143TIP3   OH2 3434   1.309   0.582   2.338 -0.1866  0.1540  0.4734
 1143TIP3    H1 3435   1.265   0.504   2.372  0.6240 -0.1087  0.9463
 1143TIP3    H2 3436   1.314   0.567   2.243  1.5913 -1.2709  0.7260
 1144TIP3   OH2 3437   2.027   1.479   3.805  0.3805  0.4360  0.4929
 1144TIP3    H1 3438   1.978   1.433   3.737 -1.2756  3.1269 -0.2473
 1144TIP3    H2 3439   2.112   1.498   3.764  1.1416 -1.8392  0.8382
 1145TIP3   OH2 3440   1.090   4.340   4.045  0.4315  0.9322  0.4340
 1145TIP3    H1 3441   1.072   4.285   3.968 -1.2304  2.2733 -0.2036
 1145TIP3    H2 3442   1.185   4.350   4.046  0.6383 -0.6727 -0.3156
 1146TIP3   OH2 3443   1.145   5.508   1.761  0.1258  0.6162 -0.5415
 1146TIP3    H1 3444   1.233   5.546   1.758  0.7501 -0.6724  0.4696
 1146TIP3    H2 3445   1.148   5.436   1.699  0.5637 -0.8841  1.1177
 1147TIP3   OH2 3446   0.854   0.238   0.253 -0.1711  0.4315  0.2713
 1147TIP3    H1 3447   0.907   0.316   0.265 -0.9219  1.0007 -0.0271
 1147TIP3    H2 3448   0.790   0.262   0.185  1.1700 -1.2305 -1.7237
 1148TIP3   OH2 3449   6.108   3.161   0.758  0.3841  0.0038  0.1682
 1148TIP3    H1 3450   6.083   3.110   0.835  0.6770 -0.7798 -0.2500
 1148TIP3    H2 3451   6.190   3.204   0.784  0.5305 -0.3319  0.2617
 1149TIP3   OH2 3452   4.619   4.484   1.891  0.0727  0.7090 -0.3648
 1149TIP3    H1 3453   4.682   4.554   1.909  0.4123  0.7693 -1.6527
 1149TIP3    H2 3454   4.538   4.529   1.869  0.5105  0.7704 -2.0095
 1150TIP3   OH2 3455   3.134   0.135   2.950 -0.7359  0.2259 -0.0252
 1150TIP3    H1 3456   3.155   0.152   3.042  0.2123  0.4914 -0.2816
 1150TIP3    H2 3457   3.155   0.216   2.905  2.5584 -1.0326 -1.0550
 1151TIP3   OH2 3458   6.234   4.800   3.756  0.4036  0.0346 -0.7530
 1151TIP3    H1 3459   6.188   4.812   3.839  0.5767  1.5851 -0.8373
 1151TIP3    H2 3460   6.256   4.707   3.753 -0.3863 -0.2170  0.5108
 1152TIP3   OH2 3461   0.417   1.490   4.741  0.4379 -0.1449 -0.0588
 1152TIP3    H1 3462   0.405   1.517   4.832 -2.2217  1.3065 -0.7654
 1152TIP3    H2 3463   0.433   1.571   4.693  0.4434 -0.7480 -1.1071
 1153TIP3   OH2 3464   4.744   3.057   1.353 -0.2549  0.2319 -0.0491
 1153TIP3    H1 3465   4.786   3.028   1.433  0.3267 -0.7111 -0.6752
 1153TIP3    H2 3466   4.810   3.110   1.308 -0.0510 -0.4576 -0.5834
 1154TIP3   OH2 3467   0.062   5.948   3.046  0.0255 -0.8799 -0.4775
 1154TIP3    H1 3468  -0.011   5.908   3.000  0.2376 -0.1860 -1.4388
 1154TIP3    H2 3469   0.050   5.922   3.138 -2.6355  0.9760 -0.1870
 1155TIP3   OH2 3470   0.896   2.834   1.665 -0.1468 -0.0169 -0.5304
 1155TIP3    H1 3471   0.807   2.809   1.689 -0.3066  1.0715  0.0692
 1155TIP3    H2 3472   0.909   2.798   1.577 -1.1372 -0.2624 -0.5820
 1156TIP3   OH2 3473   4.833   2.416   4.052  0.4178  0.4889  0.4806
 1156TIP3    H1 3474   4.782   2.498   4.054  1.0766  0.9204  0.1197
 1156TIP3    H2 3475   4.787   2.358   4.113 -0.2144  1.0344  0.5460
 1157TIP3   OH2 3476   5.083   3.964   3.851  0.4943  0.0025  0.0465
 1157TIP3    H1 3477   5.021   3.892   3.864  0.0123 -0.0428 -2.1008
 1157TIP3    H2 3478   5.166   3.920   3.834  0.6150  0.0100  0.5999
 1158TIP3   OH2 3479   5.192   5.593   1.512  0.3028  0.1355 -0.2674
 1158TIP3    H1 3480   5.271   5.595   1.567  0.4355  1.4690 -0.4697
 1158TIP3    H2 3481   5.192   5.505   1.474  1.8438  0.1869 -0.4647
 1159TIP3   OH2 3482   2.650   5.979   2.921 -0.3099  0.0569  0.2895
 1159TIP3    H1 3483   2.685   5.892   2.944 -0.4260 -0.3424 -0.9777
 1159TIP3    H2 3484   2.568   5.985   2.970 -1.7822 -1.7930 -1.7234
 1160TIP3   OH2 3485   2.005   1.990   1.223 -0.1629 -0.1969  0.3606
 1160TIP3    H1 3486   1.922   1.969   1.179 -0.1851  1.9482 -0.7305
 1160TIP3    H2 3487   1.980   2.041   1.300  0.1218 -0.1087  0.3970
 1161TIP3   OH2 3488   5.271   4.154   2.101 -0.0295 -0.1607  0.0222
 1161TIP3    H1 3489   5.270   4.234   2.153 -0.2351 -0.3448  0.3093
 1161TIP3    H2 3490   5.363   4.137   2.085 -0.0001  0.3188 -0.3301
 1162TIP3   OH2 3491   6.120   3.076   3.744 -0.8602  0.2489 -0.0812
 1162TIP3    H1 3492   6.214   3.076   3.727 -0.6381 -0.9265  1.0235
 1162TIP3    H2 3493   6.112   3.058   3.838 -2.2210 -4.1926 -0.7929
 1163TIP3   OH2 3494   5.642   0.567   2.865  0.6273  0.1699  0.5114
 1163TIP3    H1 3495   5.560   0.520   2.847  1.7114 -1.6036 -0.0630
 1163TIP3    H2 3496   5.630   0.603   2.952 -0.3199 -1.1206  0.9454
 1164TIP3   OH2 3497   4.082   2.079   1.728  0.3196  0.3514  0.0472
 1164TIP3    H1 3498   4.059   2.126   1.648 -3.0522 -0.4444  0.4225
 1164TIP3    H2 3499   4.134   2.005   1.697 -0.2062  0.5205 -1.3274
 1165TIP3   OH2 3500   2.843   5.494   2.390 -0.2267  0.0160 -0.1134
 1165TIP3    H1 3501   2.859   5.400   2.388 -0.0127  0.0531 -2.2941
 1165TIP3    H2 3502   2.752   5.502   2.420 -0.5835 -0.9418 -0.9025
 1166TIP3   OH2 3503   5.772   4.550   3.804  0.2905 -0.0076 -0.2669
 1166TIP3    H1 3504   5.861   4.520   3.785  0.2937  0.3441 -0.8528
 1166TIP3    H2 3505   5.781   4.645   3.813 -0.2156  0.1789 -1.5568
 1167TIP3   OH2 3506   5.266   4.417   2.184  0.0297 -0.2416  0.1182
 1167TIP3    H1 3507   5.289   4.411   2.276 -0.2418  0.5374  0.2479
 1167TIP3    H2 3508   5.217   4.499   2.177  2.3653  1.1697 -1.1714
 1168TIP3   OH2 3509   5.611   4.243   0.060 -0.7475  0.2928  0.1701
 1168TIP3    H1 3510   5.611   4.237  -0.035 -1.4653  1.4049  0.0799
 1168TIP3    H2 3511   5.592   4.154   0.090 -0.3321 -0.1049 -0.7097
 1169TIP3   OH2 3512   0.777   4.371   0.244  0.3174  0.3713  0.1714
 1169TIP3    H1 3513   0.857   4.391   0.195 -0.5398 -0.7639 -1.8039
 1169TIP3    H2 3514   0.806   4.314   0.316  1.2242 -0.6449 -0.9551
 1170TIP3   OH2 3515   3.668   4.701   1.077  0.5825 -0.2762  0.0081
 1170TIP3    H1 3516   3.740   4.758   1.051 -2.9006  4.2376 -1.0879
 1170TIP3    H2 3517   3.629   4.673   0.995 -1.0530  0.5619  0.4580
 1171TIP3   OH2 3518   4.332   2.621   3.514 -0.2321  0.2583 -0.0893
 1171TIP3    H1 3519   4.357   2.570   3.437  0.3290  0.4313 -0.0270
 1171TIP3    H2 3520   4.323   2.711   3.481  0.9596  0.5146  0.2121
 1172TIP3   OH2 3521   0.605   1.976   1.987  0.4930  0.7797  0.2042
 1172TIP3    H1 3522   0.687   1.927   1.998  0.0841 -0.0971 -0.5297
 1172TIP3    H2 3523   0.555   1.957   2.067 -0.3244 -1.3658 -0.7219
 1173TIP3   OH2 3524   1.358   3.317   2.266  0.2572 -0.1230  0.5872
 1173TIP3    H1 3525   1.281   3.363   2.299  0.5015 -0.9604  2.4536
 1173TIP3    H2 3526   1.327   3.229   2.245  0.7450 -0.5742  1.6839
 1174TIP3   OH2 3527   2.577   2.562   3.501 -0.0678 -0.2298  0.4821
 1174TIP3    H1 3528   2.667   2.595   3.493 -0.4286  0.8431  0.5887
 1174TIP3    H2 3529   2.565   2.507   3.424  0.7076 -0.4746  0.5193
 1175TIP3   OH2 3530   6.100   2.344   1.153 -0.2344 -0.0091 -0.2028
 1175TIP3    H1 3531   6.135   2.266   1.196 -1.4456 -0.1599  0.5572
 1175TIP3    H2 3532   6.050   2.389   1.222  0.3976  1.4182 -0.6349
 1176TIP3   OH2 3533   4.343   3.212   0.051  0.0006  0.1302 -0.3189
 1176TIP3    H1 3534   4.391   3.182  -0.025 -0.4635  0.9922 -0.9742
 1176TIP3    H2 3535   4.375   3.301   0.066 -2.4830  1.3945 -1.7974
 1177TIP3   OH2 3536   1.796   3.046   3.134 -0.3378 -0.4872 -0.1460
 1177TIP3    H1 3537   1.790   3.140   3.149  0.7010 -0.2835 -0.9527
 1177TIP3    H2 3538   1.708   3.013   3.154 -0.4267  0.4862  1.2010
 1178TIP3   OH2 3539   1.799   1.019   3.615  0.2430 -0.0526  0.1402
 1178TIP3    H1 3540   1.709   1.017   3.649  0.3028  0.7691  0.3561
 1178TIP3    H2 3541   1.788   1.026   3.520  0.0198  3.0129  0.2987
 1179TIP3   OH2 3542   5.099   4.956   2.962  0.0043  0.2087 -0.5536
 1179TIP3    H1 3543   5.057   4.875   2.934  1.3484 -0.9028  0.5198
 1179TIP3    H2 3544   5.060   5.024   2.906 -1.0370 -1.1792 -1.5767
 1180TIP3   OH2 3545   2.494   1.494   2.276  0.4403  0.1735  0.4797
 1180TIP3    H1 3546   2.468   1.403   2.291  1.2051 -0.0207  0.6646
 1180TIP3    H2 3547   2.462   1.541   2.353  0.9978 -0.1376  0.9069
 1181TIP3   OH2 3548   0.680   4.521   1.486 -0.1044  0.1166  0.0982
 1181TIP3    H1 3549   0.689   4.491   1.395  2.0972  0.5731  0.1099
 1181TIP3    H2 3550   0.679   4.617   1.479 -2.4694  0.1546  0.4036
 1182TIP3   OH2 3551   2.097   1.062   3.374 -0.0156 -0.3125  0.0984
 1182TIP3    H1 3552   2.052   0.983   3.404  0.3633 -0.4411  0.3242
 1182TIP3    H2 3553   2.189   1.047   3.394  0.0902  0.0858 -0.0779
 1183TIP3   OH2 3554   4.761   1.284   0.569 -0.2986 -0.2886  0.4723
 1183TIP3    H1 3555   4.856   1.280   0.557 -0.5018 -1.2708 -1.3656
 1183TIP3    H2 3556   4.735   1.193   0.585 -1.0576 -0.2848 -0.5924
 1184TIP3   OH2 3557   3.476   3.104   3.139  0.3833 -0.4511 -0.1679
 1184TIP3    H1 3558   3.473   3.014   3.173 -0.8847 -0.7861 -1.0978
 1184TIP3    H2 3559   3.441   3.158   3.210 -0.4106 -0.9110 -0.1936
 1185TIP3   OH2 3560   6.289   0.141   3.876 -0.1023 -0.0603  0.7223
 1185TIP3    H1 3561   6.209   0.193   3.887 -0.3572 -0.4731  0.8457
 1185TIP3    H2 3562   6.360   0.205   3.874 -0.3422  0.2433  1.6351
 1186TIP3   OH2 3563   5.529   5.942   3.965  1.1212  0.0558  0.1854
 1186TIP3    H1 3564   5.598   5.970   4.024 -0.1014  1.6873  0.9164
 1186TIP3    H2 3565   5.536   6.002   3.890  1.2135 -0.5293 -0.2850
 1187TIP3   OH2 3566   5.099   3.854   1.883 -0.7670 -0.0436  0.2849
 1187TIP3    H1 3567   5.089   3.833   1.791  0.0385 -0.7155  0.3451
 1187TIP3    H2 3568   5.150   3.936   1.884  1.1481 -1.1736  0.1509
 1188TIP3   OH2 3569   5.649   4.875   2.189  0.1717 -0.8250  0.0864
 1188TIP3    H1 3570   5.606   4.792   2.208  1.4679 -1.4744  0.2470
 1188TIP3    H2 3571   5.605   4.908   2.111  0.2973 -2.1388 -0.5569
 1189TIP3   OH2 3572   1.403   0.716   2.564  0.0220 -0.2167  0.1933
 1189TIP3    H1 3573   1.370   0.684   2.480  2.1200  2.4272 -1.8313
 1189TIP3    H2 3574   1.355   0.798   2.578  0.7014  0.0754  0.8627
 1190TIP3   OH2 3575   0.586   1.456   1.979 -0.4169  0.1206 -0.5506
 1190TIP3    H1 3576   0.592   1.375   2.029  2.2095  0.2521 -0.5104
 1190TIP3    H2 3577   0.545   1.519   2.038 -2.1193 -1.0467 -0.4466
 1191TIP3   OH2 3578   0.769   2.304   3.072  0.2546 -0.1153 -0.3337
 1191TIP3    H1 3579   0.750   2.218   3.035  0.7442  0.6245 -2.4541
 1191TIP3    H2 3580   0.683   2.346   3.080  0.2387  0.2595 -2.1543
 1192TIP3   OH2 3581   5.272   1.140   3.267  0.2238 -0.5149 -0.3192
 1192TIP3    H1 3582   5.247   1.109   3.180 -1.6112 -2.5484  0.8309
 1192TIP3    H2 3583   5.293   1.060   3.316  2.7261  0.6774  0.7261
 1193TIP3   OH2 3584   4.354   0.614   2.583 -0.2300  0.2198  0.4528
 1193TIP3    H1 3585   4.284   0.579   2.637 -0.5427 -2.2733 -1.3983
 1193TIP3    H2 3586   4.365   0.550   2.512  1.9554  1.9639 -0.9447
 1194TIP3   OH2 3587   0.143   1.691   0.229 -0.5092 -0.0474 -0.3671
 1194TIP3    H1 3588   0.147   1.781   0.196 -0.9795  0.2362  0.3179
 1194TIP3    H2 3589   0.136   1.637   0.151  1.4757  0.3777 -0.9004
 1195TIP3   OH2 3590   0.420   5.911   3.034 -0.3167 -0.2256  0.0714
 1195TIP3    H1 3591   0.394   5.835   2.982  1.5555 -0.7816 -0.1383
 1195TIP3    H2 3592   0.463   5.969   2.971  1.1685 -0.4928  0.8116
 1196TIP3   OH2 3593   0.983   4.583   1.639  0.5598  0.2374 -0.6069
 1196TIP3    H1 3594   1.071   4.577   1.600  1.5005  1.5277  1.1699
 1196TIP3    H2 3595   0.977   4.674   1.669 -0.5271 -0.3847  1.2114
 1197TIP3   OH2 3596   1.470   1.271   2.388  0.0650  0.5318  0.3095
 1197TIP3    H1 3597   1.466   1.330   2.463 -0.0088 -1.5228  2.0173
 1197TIP3    H2 3598   1.379   1.256   2.365  0.1005  2.7887 -1.6411
 1198TIP3   OH2 3599   1.360   3.175   0.952 -0.1026  0.0702  0.3036
 1198TIP3    H1 3600   1.389   3.136   1.034 -1.3817 -0.6580  0.4358
 1198TIP3    H2 3601   1.294   3.239   0.978 -0.8282 -0.4658 -0.1657
 1199TIP3   OH2 3602   0.533   2.447   2.747  0.3356  0.0421 -0.0488
 1199TIP3    H1 3603   0.471   2.431   2.676  1.0986 -1.2140 -0.4613
 1199TIP3    H2 3604   0.537   2.364   2.794  4.0898 -1.0636 -1.9397
 1200TIP3   OH2 3605   5.569   3.004   3.228 -0.1927  0.2209  0.5085
 1200TIP3    H1 3606   5.518   3.020   3.308  0.2079 -0.2684  0.8681
 1200TIP3    H2 3607   5.573   3.090   3.185 -0.5930  0.4440  0.9073
 1201TIP3   OH2 3608   4.934   4.871   4.766 -0.4653 -0.2880  0.0604
 1201TIP3    H1 3609   4.987   4.894   4.690 -0.0054  0.3238  0.5573
 1201TIP3    H2 3610   4.869   4.941   4.774  0.2953  0.3396  0.9731
 1202TIP3   OH2 3611   2.668   0.518   4.754  0.1607  0.2206  0.3996
 1202TIP3    H1 3612   2.642   0.427   4.739 -1.5464  0.3183  2.3608
 1202TIP3    H2 3613   2.603   0.569   4.705 -0.4592  0.3976  1.3857
 1203TIP3   OH2 3614   3.106   3.827   0.509  0.4310 -0.5003  0.2262
 1203TIP3    H1 3615   3.093   3.738   0.476  0.0329 -0.5110  0.4113
 1203TIP3    H2 3616   3.122   3.880   0.431 -2.8698 -0.0641 -0.2845
 1204TIP3   OH2 3617   0.886   2.662   3.158 -0.6086  0.2941  0.2726
 1204TIP3    H1 3618   0.909   2.603   3.086 -3.9747 -1.3988  0.3349
 1204TIP3    H2 3619   0.901   2.750   3.124  0.1985 -0.5132 -1.5722
 1205TIP3   OH2 3620   2.087   5.868   0.670 -0.0016 -0.5234 -0.3190
 1205TIP3    H1 3621   2.084   5.772   0.669  1.4022 -0.6503  2.0574
 1205TIP3    H2 3622   2.076   5.891   0.762  1.7541  1.4965 -0.5514
 1206TIP3   OH2 3623   4.487   3.456   0.071  0.0326 -0.3900  0.3308
 1206TIP3    H1 3624   4.500   3.463  -0.024  0.8094 -1.3418  0.3439
 1206TIP3    H2 3625   4.426   3.526   0.093  0.2887  0.2046 -0.7902
 1207TIP3   OH2 3626   0.633   2.565   0.417  0.2656  0.3542 -0.4890
 1207TIP3    H1 3627   0.719   2.547   0.454 -0.4849 -0.0658  1.1194
 1207TIP3    H2 3628   0.645   2.645   0.366  1.5342  0.4582 -0.0542
 1208TIP3   OH2 3629   3.992   4.532   1.014  0.6489 -0.1409 -0.4484
 1208TIP3    H1 3630   3.917   4.473   1.002  0.8822 -0.2924 -1.2530
 1208TIP3    H2 3631   3.965   4.590   1.085 -0.2647 -0.1589 -0.7595
 1209TIP3   OH2 3632   5.116   4.779   3.495 -0.5490  0.3534 -0.1878
 1209TIP3    H1 3633   5.035   4.751   3.538  0.0543  0.4100  1.0518
 1209TIP3    H2 3634   5.166   4.699   3.484 -1.5869  0.0001 -2.8567
 1210TIP3   OH2 3635   3.234   5.672   2.768  0.0242  0.4333 -0.5872
 1210TIP3    H1 3636   3.245   5.603   2.833  2.8698  0.0682 -1.3073
 1210TIP3    H2 3637   3.191   5.628   2.694 -1.8263  0.4853  0.3989
 1211TIP3   OH2 3638   3.905   4.641   4.867  0.2580  0.5226 -0.3335
 1211TIP3    H1 3639   3.868   4.660   4.953 -2.3749 -0.3688 -1.1695
 1211TIP3    H2 3640   3.850   4.571   4.832  0.6455  1.4467 -3.0901
 1212TIP3   OH2 3641   1.667   3.841   0.076  0.0093 -0.2185  0.5429
 1212TIP3    H1 3642   1.708   3.858   0.161 -0.9559 -2.1938  1.4605
 1212TIP3    H2 3643   1.740   3.816   0.019  0.7786  1.9494  0.5012
 1213TIP3   OH2 3644   1.176   5.870   2.937  0.4774  0.5267  0.1911
 1213TIP3    H1 3645   1.236   5.867   3.011 -2.2082 -0.6380  2.5467
 1213TIP3    H2 3646   1.134   5.956   2.943  0.0980  0.3460  0.1552
 1214TIP3   OH2 3647   0.344   3.819   2.390 -0.3209 -0.3807 -0.1211
 1214TIP3    H1 3648   0.380   3.730   2.392  2.6810  0.7102 -0.7460
 1214TIP3    H2 3649   0.303   3.830   2.475 -0.5287 -2.2840  0.0566
 1215TIP3   OH2 3650   1.117   2.198   1.925  0.1103  1.0724  0.2589
 1215TIP3    H1 3651   1.175   2.224   1.996  2.9025 -0.9244 -1.0987
 1215TIP3    H2 3652   1.160   2.230   1.845 -0.6426 -0.4497 -0.8116
 1216TIP3   OH2 3653   2.063   5.872   0.927 -0.2338 -0.3714  0.2978
 1216TIP3    H1 3654   2.092   5.818   1.001 -0.1980 -0.2862  0.3465
 1216TIP3    H2 3655   1.986   5.919   0.960 -1.3758 -1.7461 -0.3069
 1217TIP3   OH2 3656   0.762   1.711   3.618  0.1340  0.0306 -0.4078
 1217TIP3    H1 3657   0.754   1.645   3.687  0.3812  0.4819  0.0521
 1217TIP3    H2 3658   0.671   1.730   3.593  0.0702 -1.0596 -1.1061
 1218TIP3   OH2 3659   2.657   1.885   0.213 -0.6065 -0.3956  0.1855
 1218TIP3    H1 3660   2.646   1.957   0.275 -1.2221 -2.7241  3.0079
 1218TIP3    H2 3661   2.750   1.887   0.190 -0.2116  0.1935  1.6967
 1219TIP3   OH2 3662   6.077   4.257   4.676  0.2126  0.0786  1.0341
 1219TIP3    H1 3663   6.103   4.224   4.590  0.9310  1.1625  0.8090
 1219TIP3    H2 3664   5.985   4.233   4.685 -0.0708  0.5423 -0.3414
 1220TIP3   OH2 3665   1.200   1.275   5.169  0.7101 -0.0355  0.1410
 1220TIP3    H1 3666   1.188   1.191   5.125  1.5336 -0.5636  0.8953
 1220TIP3    H2 3667   1.117   1.289   5.215  0.7336 -0.6657  0.3920
 1221TIP3   OH2 3668   0.673   2.614   0.752  0.4108  0.0045 -0.4824
 1221TIP3    H1 3669   0.649   2.537   0.701 -1.3515 -0.4475  0.9540
 1221TIP3    H2 3670   0.628   2.604   0.835  4.6680 -0.2721  2.0911
 1222TIP3   OH2 3671   0.945   1.871   0.691  0.5436  0.3973  0.2968
 1222TIP3    H1 3672   0.917   1.786   0.656  0.4593 -0.2357  1.8439
 1222TIP3    H2 3673   0.876   1.931   0.665 -1.1628 -0.6969  2.0712
 1223TIP3   OH2 3674   2.002   5.088   5.099  0.2922 -0.5047  0.0889
 1223TIP3    H1 3675   2.096   5.081   5.088  0.5542  1.8091  0.4228
 1223TIP3    H2 3676   1.973   5.136   5.021 -0.3678  0.2627  0.7981
 1224TIP3   OH2 3677   5.818   1.636   3.523 -1.0006 -0.2717  1.0227
 1224TIP3    H1 3678   5.882   1.634   3.594 -0.2834 -3.0674  0.4281
 1224TIP3    H2 3679   5.743   1.683   3.559 -0.2614 -0.7008  3.2594
 1225TIP3   OH2 3680   4.417   5.771   0.928  0.9157 -0.4510 -0.1254
 1225TIP3    H1 3681   4.468   5.842   0.889  0.9617  0.1229  0.9350
 1225TIP3    H2 3682   4.348   5.753   0.865  0.7362  0.7474 -0.2864
 1226TIP3   OH2 3683   0.807   5.602   1.423  0.4968 -0.3111 -0.5642
 1226TIP3    H1 3684   0.796   5.689   1.386 -2.4046 -0.0285  0.7184
 1226TIP3    H2 3685   0.860   5.616   1.502  0.5886  0.1838 -0.7105
 1227TIP3   OH2 3686   4.538   5.016   3.131  0.0306  0.3754  0.0003
 1227TIP3    H1 3687   4.528   4.927   3.163 -1.0864  1.2822  2.3968
 1227TIP3    H2 3688   4.484   5.069   3.189  1.4481  2.7569 -0.7009
 1228TIP3   OH2 3689   5.589   5.558   0.209  0.1079 -0.2413 -0.0381
 1228TIP3    H1 3690   5.563   5.618   0.278  0.8830  1.7280 -1.3674
 1228TIP3    H2 3691   5.524   5.571   0.140  1.1091  0.2459 -0.9385
 1229TIP3   OH2 3692   5.741   4.215   1.446  0.0182 -0.4721  0.3618
 1229TIP3    H1 3693   5.673   4.261   1.495  0.0139 -1.1146  0.9710
 1229TIP3    H2 3694   5.796   4.285   1.411 -0.1258  0.0056  1.0692
 1230TIP3   OH2 3695   5.290   4.549   2.729  0.0611 -0.2023 -0.1337
 1230TIP3    H1 3696   5.312   4.642   2.728  0.0301 -0.1752 -1.8642
 1230TIP3    H2 3697   5.298   4.521   2.637 -0.2378 -1.8313  0.2951
 1231TIP3   OH2 3698   5.401   4.715   3.245  0.5986 -0.2530  0.0053
 1231TIP3    H1 3699   5.357   4.650   3.190  0.5847 -0.2505  0.0132
 1231TIP3    H2 3700   5.440   4.665   3.316 -0.4478 -0.1349  0.6939
 1232TIP3   OH2 3701   1.974   0.956   0.309 -0.6094 -0.1115 -0.1974
 1232TIP3    H1 3702   1.905   0.958   0.242  0.6726 -2.2687 -1.7188
 1232TIP3    H2 3703   2.032   0.885   0.281  0.2040 -0.8730  3.0513
 1233TIP3   OH2 3704   3.189   5.092   3.598 -0.3313  0.3618 -1.2120
 1233TIP3    H1 3705   3.268   5.137   3.566  1.8752 -2.7714 -0.6498
 1233TIP3    H2 3706   3.151   5.051   3.521  1.2067 -1.7369 -0.9320
 1234TIP3   OH2 3707   5.787   4.590   2.331  0.0773  0.3390  0.6208
 1234TIP3    H1 3708   5.812   4.611   2.241 -0.9694 -1.3708 -0.1094
 1234TIP3    H2 3709   5.858   4.626   2.385  2.2919 -1.1697 -1.1005
 1235TIP3   OH2 3710   1.524   1.231   3.263 -0.0915 -0.0641 -0.0832
 1235TIP3    H1 3711   1.460   1.253   3.195  0.6647  2.0318 -0.1779
 1235TIP3    H2 3712   1.603   1.208   3.215  0.0847  0.2225  0.0677
 1236TIP3   OH2 3713   5.938   1.750   0.827  0.6785  0.5270  0.4022
 1236TIP3    H1 3714   5.926   1.687   0.898 -0.0518  0.9150  0.6270
 1236TIP3    H2 3715   5.853   1.756   0.785  0.5183  1.9269  0.8603
 1237TIP3   OH2 3716   2.741   5.191   0.808 -0.4445 -0.2546 -0.1392
 1237TIP3    H1 3717   2.745   5.286   0.822  2.0103 -0.5341  1.7401
 1237TIP3    H2 3718   2.770   5.179   0.718  0.3356  0.7457 -0.0425
 1238TIP3   OH2 3719   3.772   5.764   1.077  0.0575  0.0195  0.2070
 1238TIP3    H1 3720   3.683   5.760   1.042  0.1833 -0.3327 -0.0680
 1238TIP3    H2 3721   3.819   5.693   1.034  1.0073  1.3974 -1.1590
 1239TIP3   OH2 3722   2.075   3.193   4.287 -0.0620 -0.4695  0.1240
 1239TIP3    H1 3723   2.131   3.257   4.331 -0.1665 -1.2903  1.5249
 1239TIP3    H2 3724   1.987   3.230   4.293  0.0966  0.0536 -0.6278
 1240TIP3   OH2 3725   6.263   1.748   3.853 -0.4068  0.0158  0.1835
 1240TIP3    H1 3726   6.211   1.795   3.788 -0.5286  0.5796  0.6755
 1240TIP3    H2 3727   6.324   1.814   3.887  0.3740 -0.5365 -0.1087
 1241TIP3   OH2 3728   3.346   4.790   2.891 -0.1650  0.1231 -0.3329
 1241TIP3    H1 3729   3.359   4.701   2.926 -0.5678  0.1888 -0.0038
 1241TIP3    H2 3730   3.283   4.779   2.820 -1.5212  0.3550  0.7913
 1242TIP3   OH2 3731   2.876   0.296   3.964 -0.0018 -0.1499  0.3085
 1242TIP3    H1 3732   2.878   0.248   3.882  0.5152 -1.1232  0.8831
 1242TIP3    H2 3733   2.783   0.296   3.990 -0.0204 -0.7337  0.2439
 1243TIP3   OH2 3734   0.291   1.484   0.552 -0.0748 -0.1366  0.4206
 1243TIP3    H1 3735   0.255   1.438   0.476 -0.9050  1.6128 -0.3017
 1243TIP3    H2 3736   0.240   1.453   0.626 -1.1666  0.1858 -0.1732
 1244TIP3   OH2 3737   3.435   3.918   0.144 -0.2486 -0.3463  0.4095
 1244TIP3    H1 3738   3.493   3.862   0.091 -0.7036 -1.9510  1.5067
 1244TIP3    H2 3739   3.386   3.856   0.199  0.2270  1.1997  2.7417
 1245TIP3   OH2 3740   1.188   5.113   4.854 -0.1297  0.1399 -0.6018
 1245TIP3    H1 3741   1.160   5.071   4.773  1.0382  1.4046 -1.7126
 1245TIP3    H2 3742   1.152   5.057   4.923 -0.0930 -1.6992 -1.9769
 1246TIP3   OH2 3743   3.431   0.960   2.673 -0.2000 -0.2747 -0.9207
 1246TIP3    H1 3744   3.524   0.946   2.694 -0.2723  0.2408 -0.2406
 1246TIP3    H2 3745   3.432   1.025   2.604 -0.1331  2.2822  1.3221
 1247TIP3   OH2 3746   3.367   0.102   1.214  0.0539 -0.3341 -0.6140
 1247TIP3    H1 3747   3.343   0.014   1.245 -1.5455  0.6442  1.1359
 1247TIP3    H2 3748   3.443   0.126   1.267  1.5432 -1.2560 -2.2510
 1248TIP3   OH2 3749   5.513   5.653   4.014  0.6162 -0.2724 -0.3888
 1248TIP3    H1 3750   5.532   5.624   4.103 -3.0433 -1.7010  0.0941
 1248TIP3    H2 3751   5.530   5.748   4.015 -1.6755  0.2405  2.6312
 1249TIP3   OH2 3752   3.749   2.617   0.152 -0.0792  0.0442  0.0986
 1249TIP3    H1 3753   3.696   2.539   0.169 -1.0152  0.3705 -1.1495
 1249TIP3    H2 3754   3.758   2.620   0.057  2.0978  0.0937  0.2625
 1250TIP3   OH2 3755   0.076   0.666   2.313 -0.0125 -0.0268 -0.0438
 1250TIP3    H1 3756   0.073   0.753   2.274  0.3294  1.0639  2.2193
 1250TIP3    H2 3757   0.003   0.619   2.271 -0.8840  1.6778 -0.5419
 1251TIP3   OH2 3758   3.356   0.681   2.453 -0.1692  0.1591 -0.3094
 1251TIP3    H1 3759   3.423   0.711   2.514  1.2903 -1.7580 -0.9034
 1251TIP3    H2 3760   3.375   0.728   2.372 -0.1545  0.3172 -0.2168
 1252TIP3   OH2 3761   0.810   5.776   3.367 -0.1743 -0.4044  0.6816
 1252TIP3    H1 3762   0.873   5.783   3.296 -1.7175 -0.3717 -0.7277
 1252TIP3    H2 3763   0.725   5.765   3.324 -1.0886 -1.0250  2.5188
 1253TIP3   OH2 3764   4.044   1.920   4.817  0.0372  0.5245  0.0423
 1253TIP3    H1 3765   4.051   2.015   4.808 -3.1374  1.1895  2.7425
 1253TIP3    H2 3766   4.099   1.898   4.892  1.0829  0.0775 -0.8167
 1254TIP3   OH2 3767   0.645   5.192   4.654  0.9079  0.1524 -0.2525
 1254TIP3    H1 3768   0.609   5.120   4.602  0.4552 -0.6270  1.0581
 1254TIP3    H2 3769   0.700   5.241   4.594  1.1158 -1.2160 -1.2345
 1255TIP3   OH2 3770   5.093   3.198   4.057 -0.3236  0.3187  0.0007
 1255TIP3    H1 3771   5.127   3.109   4.048 -0.6112 -0.0257  1.8585
 1255TIP3    H2 3772   5.154   3.241   4.117 -0.6855  1.0852 -0.1710
 1256TIP3   OH2 3773   2.562   5.006   0.815 -0.4606  0.1265 -0.0104
 1256TIP3    H1 3774   2.638   5.059   0.837 -0.1145  0.1741 -1.2873
 1256TIP3    H2 3775   2.528   4.977   0.900 -0.0306  1.4905  0.6549
 1257TIP3   OH2 3776   3.582   5.632   0.066  0.7787  0.4824 -0.1399
 1257TIP3    H1 3777   3.517   5.691   0.104  0.8016  0.1795  0.3700
 1257TIP3    H2 3778   3.665   5.658   0.105  1.0106  1.0268 -0.9719
 1258TIP3   OH2 3779   2.904   3.337   3.401  0.0121 -0.0510  0.5045
 1258TIP3    H1 3780   2.974   3.271   3.405  2.6333  2.5626  0.7055
 1258TIP3    H2 3781   2.823   3.286   3.414  1.8374 -3.1834  0.6993
 1259TIP3   OH2 3782   5.229   5.737   0.387  0.5800 -0.0523 -0.1341
 1259TIP3    H1 3783   5.205   5.830   0.383 -1.5343 -0.4983  0.6813
 1259TIP3    H2 3784   5.315   5.737   0.429 -0.0540  1.4865  1.3059
 1260TIP3   OH2 3785   5.016   2.978   4.517 -0.0593  0.1328  0.4464
 1260TIP3    H1 3786   5.062   2.905   4.475 -1.7147 -1.5663  1.4440
 1260TIP3    H2 3787   4.934   2.986   4.469  0.0803  1.3217  0.3832
 1261TIP3   OH2 3788   5.808   0.010   0.632 -0.1110  0.1646 -0.0536
 1261TIP3    H1 3789   5.717   0.036   0.620 -0.5827 -1.0535  0.7108
 1261TIP3    H2 3790   5.848   0.021   0.546 -1.6332 -1.7789 -1.0997
 1262TIP3   OH2 3791   0.531   5.129   4.208  0.3835  0.2506 -0.3690
 1262TIP3    H1 3792   0.508   5.059   4.147 -0.5395  0.4265 -0.2420
 1262TIP3    H2 3793   0.625   5.141   4.197  0.7273 -1.5725  0.2090
 1263TIP3   OH2 3794   2.561   4.901   3.873  0.3472 -0.0761 -0.1077
 1263TIP3    H1 3795   2.511   4.921   3.952  2.3318 -0.6349  1.3796
 1263TIP3    H2 3796   2.578   4.986   3.833 -1.4434  0.1436 -0.4635
 1264TIP3   OH2 3797   2.808   5.246   4.210  0.2690 -0.1411 -0.4542
 1264TIP3    H1 3798   2.839   5.322   4.160  0.9784  0.3208  0.6596
 1264TIP3    H2 3799   2.714   5.261   4.221  0.5547  1.0427  0.5311
 1265TIP3   OH2 3800   3.798   2.600   0.688  0.7462  0.6817  0.0903
 1265TIP3    H1 3801   3.816   2.567   0.600  0.0901  0.1507  0.1441
 1265TIP3    H2 3802   3.837   2.688   0.689  0.4693  0.8282 -0.8444
 1266TIP3   OH2 3803   5.370   2.004   3.373 -0.4639  0.1192 -0.7022
 1266TIP3    H1 3804   5.284   1.966   3.352 -1.7341  2.0231  0.7350
 1266TIP3    H2 3805   5.350   2.084   3.421  2.0919  1.7244 -2.0691
 1267TIP3   OH2 3806   0.973   0.561   0.904 -0.3672 -0.1356  0.2061
 1267TIP3    H1 3807   1.055   0.608   0.885  0.7057 -1.5234  1.1744
 1267TIP3    H2 3808   0.970   0.555   0.999 -1.4831 -0.3232  0.1733
 1268TIP3   OH2 3809   4.288   1.832   3.444  0.2203 -0.7603 -0.5092
 1268TIP3    H1 3810   4.319   1.782   3.368  0.7316  0.3173 -1.0361
 1268TIP3    H2 3811   4.312   1.923   3.423 -1.8356 -0.1059 -0.1574
 1269TIP3   OH2 3812   1.672   2.097   3.891 -0.2947 -0.2249  0.2103
 1269TIP3    H1 3813   1.763   2.125   3.880 -0.2491 -0.0319  0.9801
 1269TIP3    H2 3814   1.674   2.003   3.873  0.3041 -0.4628  1.3682
 1270TIP3   OH2 3815   2.375   5.350   1.475  0.0678  0.1696  0.2580
 1270TIP3    H1 3816   2.451   5.363   1.420 -0.8973 -0.1649 -1.2166
 1270TIP3    H2 3817   2.379   5.420   1.540  1.9431 -0.2314  0.6071
 1271TIP3   OH2 3818   4.004   3.065   2.590 -0.1435 -0.1407  0.0636
 1271TIP3    H1 3819   4.045   3.150   2.576 -0.2468 -0.3210 -1.5142
 1271TIP3    H2 3820   4.077   3.004   2.598 -0.0498 -0.2040 -1.0224
 1272TIP3   OH2 3821   4.257   1.176   4.756 -0.2188 -0.0377  0.1636
 1272TIP3    H1 3822   4.313   1.193   4.831  0.6867 -0.3139 -0.4427
 1272TIP3    H2 3823   4.314   1.186   4.680 -0.4501 -2.3476 -0.3893
 1273TIP3   OH2 3824   1.727   3.968   0.304 -0.5421 -0.2092  0.1063
 1273TIP3    H1 3825   1.822   3.975   0.294 -0.6337  0.3967 -0.3526
 1273TIP3    H2 3826   1.711   3.995   0.395 -0.4723  1.7318 -0.4231
 1274TIP3   OH2 3827   3.977   2.483   2.849 -0.2544 -0.0265  0.1945
 1274TIP3    H1 3828   3.906   2.424   2.875 -1.2363  1.3467  0.7281
 1274TIP3    H2 3829   3.977   2.552   2.916  1.6475 -0.0182  0.2498
 1275TIP3   OH2 3830   6.265   0.840   3.463 -0.8024  0.3577  0.0038
 1275TIP3    H1 3831   6.317   0.914   3.494 -0.4374  0.9159 -1.8426
 1275TIP3    H2 3832   6.297   0.823   3.374  0.1690 -2.9861  0.8402
 1276TIP3   OH2 3833   3.887   0.898   3.514  0.1890  0.3235  0.3476
 1276TIP3    H1 3834   3.861   0.945   3.434  1.7161  0.6255 -0.0092
 1276TIP3    H2 3835   3.815   0.838   3.531 -0.7418  1.1409 -0.5368
 1277TIP3   OH2 3836   0.738   0.919   4.681  0.2377  0.0122  0.9192
 1277TIP3    H1 3837   0.772   0.838   4.720  1.0905  0.0088  0.1828
 1277TIP3    H2 3838   0.815   0.964   4.646 -0.3259  0.7709  0.6194
 1278TIP3   OH2 3839   5.996   5.429   4.475 -0.2892  0.0300  0.2860
 1278TIP3    H1 3840   5.983   5.359   4.411  0.5692  2.1915 -2.4016
 1278TIP3    H2 3841   6.089   5.425   4.496 -0.5588 -0.6443  1.4751
 1279TIP3   OH2 3842   1.677   1.065   2.545  0.1026  0.0980  0.3292
 1279TIP3    H1 3843   1.675   1.046   2.451  0.5690  0.1347  0.3094
 1279TIP3    H2 3844   1.709   1.155   2.551 -0.8099  0.4293  0.4867
 1280TIP3   OH2 3845   3.012   4.662   4.586  0.5066  0.3525  0.3546
 1280TIP3    H1 3846   2.929   4.702   4.609  0.4664  0.4232  0.0984
 1280TIP3    H2 3847   2.990   4.599   4.516  0.6862  0.4740  0.1861
 1281TIP3   OH2 3848   2.574   1.093   0.016  0.5496 -0.0312  0.0860
 1281TIP3    H1 3849   2.658   1.106  -0.028  0.4074 -1.6056 -0.7221
 1281TIP3    H2 3850   2.580   1.005   0.053  0.1303  0.7183  2.0871
 1282TIP3   OH2 3851   5.681   3.287   0.574  0.0283  0.2564 -1.0626
 1282TIP3    H1 3852   5.633   3.208   0.599  0.2471 -0.4863 -2.8274
 1282TIP3    H2 3853   5.755   3.290   0.634  1.1220 -2.0225 -2.1392
 1283TIP3   OH2 3854   3.556   2.654   4.452  0.0058 -0.4811 -0.5424
 1283TIP3    H1 3855   3.634   2.640   4.506 -0.5059  1.8576  0.9154
 1283TIP3    H2 3856   3.591   2.679   4.366  0.8417 -0.8062 -0.3094
 1284TIP3   OH2 3857   4.604   1.916   0.101  0.0106 -0.4512  0.0706
 1284TIP3    H1 3858   4.625   1.982   0.035 -1.1276 -0.2397 -0.0831
 1284TIP3    H2 3859   4.682   1.914   0.157  0.3828  0.4478 -0.3895
 1285TIP3   OH2 3860   2.340   2.021   4.700 -0.2785 -0.5591  0.2667
 1285TIP3    H1 3861   2.358   2.003   4.793 -0.3720 -2.9389 -0.1213
 1285TIP3    H2 3862   2.427   2.022   4.659 -0.3056 -0.5855  0.2086
 1286TIP3   OH2 3863   3.381   2.861   4.551 -0.4645 -0.3191 -0.3083
 1286TIP3    H1 3864   3.430   2.792   4.507  0.8253 -0.6059  1.4507
 1286TIP3    H2 3865   3.441   2.893   4.619 -1.8065  1.0891  0.2757
 1287TIP3   OH2 3866   0.557   4.398   4.417 -0.4700  0.5387  0.3874
 1287TIP3    H1 3867   0.579   4.488   4.437  0.0335  0.4965  0.0484
 1287TIP3    H2 3868   0.641   4.353   4.408 -0.7151 -0.0306  0.8298
 1288TIP3   OH2 3869   2.723   1.632   2.722  0.4695 -0.0483 -0.4134
 1288TIP3    H1 3870   2.674   1.623   2.804 -0.9092 -0.7095 -1.2714
 1288TIP3    H2 3871   2.814   1.622   2.748  0.0490 -0.4238  1.0186
 1289TIP3   OH2 3872   4.717   1.817   3.249 -0.2296  0.3997 -0.3116
 1289TIP3    H1 3873   4.715   1.873   3.171  0.4013  1.3130  0.3099
 1289TIP3    H2 3874   4.711   1.728   3.214 -1.0900  0.8230 -1.3326
 1290TIP3   OH2 3875   6.312   2.704   0.401 -0.3045 -0.7076  0.0926
 1290TIP3    H1 3876   6.366   2.739   0.330  1.7832 -1.9799  0.9356
 1290TIP3    H2 3877   6.286   2.617   0.370 -1.3693 -0.3530 -0.0395
 1291TIP3   OH2 3878   5.956   2.569   4.303  0.0702 -0.0736 -0.4418
 1291TIP3    H1 3879   5.889   2.603   4.362 -1.3830  0.0416 -2.1024
 1291TIP3    H2 3880   5.962   2.476   4.325  1.3086  0.3872  1.4827
 1292TIP3   OH2 3881   5.791   5.813   0.231  0.1507 -0.0052 -0.0425
 1292TIP3    H1 3882   5.747   5.866   0.164  1.2658  1.4061  0.2925
 1292TIP3    H2 3883   5.829   5.740   0.182 -2.3369 -1.2175 -0.3608
 1293TIP3   OH2 3884   3.821   2.486   1.407  0.2447 -0.5023 -0.3951
 1293TIP3    H1 3885   3.756   2.417   1.419 -0.1995 -0.0418 -0.1367
 1293TIP3    H2 3886   3.834   2.490   1.312  0.2958 -0.9558 -0.4115
 1294TIP3   OH2 3887   5.465   1.549   4.098  0.0213  0.6316 -0.3036
 1294TIP3    H1 3888   5.381   1.551   4.053  0.3439  1.5793 -0.8928
 1294TIP3    H2 3889   5.443   1.560   4.190 -0.5315  0.2868 -0.3873
 1295TIP3   OH2 3890   0.795   1.769   0.284  0.1163  0.0592  0.3743
 1295TIP3    H1 3891   0.813   1.852   0.240 -1.7058 -0.1273 -0.8572
 1295TIP3    H2 3892   0.739   1.793   0.358  1.9790  0.2040  1.8056
 1296TIP3   OH2 3893   5.120   5.607   2.354  0.0493 -0.4674 -0.2183
 1296TIP3    H1 3894   5.179   5.534   2.373  1.1763  0.2351 -0.8896
 1296TIP3    H2 3895   5.066   5.615   2.432  2.1341  0.0629  1.2754
 1297TIP3   OH2 3896   4.008   2.945   4.766 -0.2225  0.0890  0.5377
 1297TIP3    H1 3897   3.928   2.997   4.758  0.4693  1.3448  1.4001
 1297TIP3    H2 3898   4.077   3.009   4.782  0.8870 -1.0102  0.3119
 1298TIP3   OH2 3899   5.581   5.208   3.914 -0.1260  0.0490  0.0755
 1298TIP3    H1 3900   5.582   5.272   3.843  0.4409 -0.9868 -0.8784
 1298TIP3    H2 3901   5.670   5.211   3.950 -0.6828  1.2881  1.4360
 1299TIP3   OH2 3902   3.390   0.833   3.681  0.3437 -0.7591 -0.3973
 1299TIP3    H1 3903   3.316   0.835   3.741 -0.2767 -0.7793 -1.1593
 1299TIP3    H2 3904   3.455   0.890   3.723 -0.4050 -0.0821 -0.1266
 1300TIP3   OH2 3905   1.744   4.531   2.498 -0.0188  0.2055  0.6105
 1300TIP3    H1 3906   1.839   4.538   2.487  0.0045  1.3521  1.3407
 1300TIP3    H2 3907   1.732   4.514   2.592 -0.5873  2.3926  0.9829
 1301TIP3   OH2 3908   3.737   4.615   3.584  0.0935 -0.1589 -0.6381
 1301TIP3    H1 3909   3.660   4.561   3.603  0.2343 -0.0323  0.3520
 1301TIP3    H2 3910   3.701   4.701   3.564  0.0202  0.3346  1.4198
 1302TIP3   OH2 3911   0.682   2.323   0.926 -0.3136 -0.0992  0.8764
 1302TIP3    H1 3912   0.637   2.270   0.992  1.2893 -0.8147  1.4670
 1302TIP3    H2 3913   0.618   2.335   0.856 -2.0510  0.6435  2.5224
 1303TIP3   OH2 3914   0.298   5.703   3.463  0.8486 -0.0596  0.3256
 1303TIP3    H1 3915   0.345   5.769   3.514  0.0737  0.1037  0.8409
 1303TIP3    H2 3916   0.206   5.717   3.485  0.5542 -0.3861 -0.6592
 1304TIP3   OH2 3917   0.539   5.138   0.604 -0.1125 -0.0889  0.5488
 1304TIP3    H1 3918   0.633   5.159   0.607 -0.3039  0.8592  0.3690
 1304TIP3    H2 3919   0.529   5.082   0.527  0.2868 -0.0795  0.4867
 1305TIP3   OH2 3920   2.022   2.512   2.905  0.4434 -0.5753 -0.0905
 1305TIP3    H1 3921   2.046   2.588   2.851  0.0224 -1.7244 -2.0020
 1305TIP3    H2 3922   2.104   2.468   2.923  0.6216 -0.0148  0.4884
 1306TIP3   OH2 3923   4.149   4.026   0.562  0.6487  0.0925 -0.2106
 1306TIP3    H1 3924   4.149   4.039   0.467  0.3991  0.5926 -0.1484
 1306TIP3    H2 3925   4.072   4.073   0.592  1.3698  0.9477  0.3663
 1307TIP3   OH2 3926   6.122   0.036   4.744  0.9191 -0.1829  0.2575
 1307TIP3    H1 3927   6.071   0.031   4.824  1.1809  0.1189  0.4444
 1307TIP3    H2 3928   6.076   0.100   4.689  1.1069  0.1068  0.4355
 1308TIP3   OH2 3929   5.396   4.902   2.952  0.0295 -0.0924 -0.1658
 1308TIP3    H1 3930   5.303   4.906   2.974  0.0751  0.0071  0.0092
 1308TIP3    H2 3931   5.398   4.867   2.863 -0.0578 -2.5930  0.7552
 1309TIP3   OH2 3932   5.685   2.623   0.057 -0.1913 -0.1265  0.0596
 1309TIP3    H1 3933   5.722   2.636  -0.030 -1.6106 -0.8360 -0.6901
 1309TIP3    H2 3934   5.738   2.552   0.095  1.6010  1.3960  0.5387
 1310TIP3   OH2 3935   0.276   3.598   2.107  0.2977 -0.4156 -0.4290
 1310TIP3    H1 3936   0.331   3.525   2.078  3.2164  2.0941 -1.8552
 1310TIP3    H2 3937   0.265   3.584   2.201  1.0778 -2.4692 -0.5934
 1311TIP3   OH2 3938   5.369   2.230  -0.009 -0.8418  0.2914  0.5068
 1311TIP3    H1 3939   5.281   2.191  -0.009 -0.6091 -0.2478  0.5779
 1311TIP3    H2 3940   5.406   2.206   0.076  0.4751 -2.0708 -0.6310
 1312TIP3   OH2 3941   2.130   3.361   0.257 -0.2279 -0.3621  0.2318
 1312TIP3    H1 3942   2.213   3.335   0.297  1.5275  2.5390 -1.2240
 1312TIP3    H2 3943   2.110   3.447   0.295 -0.8408  0.4428 -1.7718
 1313TIP3   OH2 3944   4.548   3.981   1.916 -0.4455 -0.0287  0.3036
 1313TIP3    H1 3945   4.503   4.065   1.914  1.6424  1.1804  0.7827
 1313TIP3    H2 3946   4.487   3.919   1.875 -3.6251  0.8567  3.2543
 1314TIP3   OH2 3947   5.093   3.066   0.482  0.5269  0.2863 -0.1300
 1314TIP3    H1 3948   5.154   3.086   0.553  0.1592  0.6210  0.0969
 1314TIP3    H2 3949   5.070   3.151   0.445 -1.6422  0.4253  1.3398
 1315TIP3   OH2 3950   1.739   0.496   1.017 -0.3003  0.5061  0.2497
 1315TIP3    H1 3951   1.782   0.440   1.082 -0.2006  2.4140  1.9159
 1315TIP3    H2 3952   1.661   0.529   1.061 -1.1234  0.5784 -1.1976
 1316TIP3   OH2 3953   4.808   4.446   3.765 -0.3057  0.1694 -0.4125
 1316TIP3    H1 3954   4.870   4.430   3.837 -0.0653  3.1048  0.1549
 1316TIP3    H2 3955   4.723   4.419   3.800 -0.4230  2.8326  1.6178
 1317TIP3   OH2 3956   0.208   4.864   3.478  0.5120 -0.3464 -0.0222
 1317TIP3    H1 3957   0.144   4.915   3.528  0.4538 -0.6639  0.2307
 1317TIP3    H2 3958   0.267   4.929   3.441 -0.3490 -0.0016 -0.8087
 1318TIP3   OH2 3959   2.566   4.805   1.439 -0.5194 -0.7309 -0.2258
 1318TIP3    H1 3960   2.501   4.735   1.446  0.7589 -1.8986  0.5594
 1318TIP3    H2 3961   2.650   4.759   1.436  0.7492  0.7210  4.4560
 1319TIP3   OH2 3962   6.199   5.673   1.154 -0.1479 -0.0762 -0.0475
 1319TIP3    H1 3963   6.275   5.688   1.209 -0.5003  3.1020 -0.2490
 1319TIP3    H2 3964   6.234   5.633   1.074  1.1410  0.3555  0.2883
 1320TIP3   OH2 3965   5.257   0.643   2.297 -0.1573  0.1739 -0.4145
 1320TIP3    H1 3966   5.186   0.581   2.278 -1.8520  2.2327 -1.2939
 1320TIP3    H2 3967   5.211   0.726   2.314  1.9539  1.0409  1.5236
 1321TIP3   OH2 3968   0.444   5.328   2.348 -0.7988  0.3655 -0.2854
 1321TIP3    H1 3969   0.490   5.326   2.432  0.2268  1.0323 -0.8083
 1321TIP3    H2 3970   0.510   5.358   2.286 -1.8974  1.1807 -1.0999
 1322TIP3   OH2 3971   0.514   2.964   4.820 -0.0929 -0.3241  0.3014
 1322TIP3    H1 3972   0.521   2.940   4.913  0.7567 -0.0746  0.3167
 1322TIP3    H2 3973   0.585   3.027   4.807  0.8304 -1.5470 -0.8863
 1323TIP3   OH2 3974   0.779   0.055   1.315 -0.0369 -0.5073  0.2311
 1323TIP3    H1 3975   0.789   0.084   1.225  0.7248 -0.6291  0.2669
 1323TIP3    H2 3976   0.837  -0.021   1.322  0.2400 -0.2394  0.9316
 1324TIP3   OH2 3977   6.096   2.754   1.408  0.4230 -0.6442 -0.2007
 1324TIP3    H1 3978   6.072   2.712   1.491  1.3566  0.7495  0.8310
 1324TIP3    H2 3979   6.185   2.786   1.422 -0.6303  2.8262 -0.3592
 1325TIP3   OH2 3980   5.178   1.089   0.504  0.1443 -0.0407 -0.1844
 1325TIP3    H1 3981   5.210   1.133   0.426  0.8467  0.0831  0.1719
 1325TIP3    H2 3982   5.093   1.053   0.477  0.2191  0.2941 -0.8979
 1326TIP3   OH2 3983   1.576   4.104   4.446  0.3478  0.3394  0.5483
 1326TIP3    H1 3984   1.543   4.024   4.405  1.0319  0.2043  0.2464
 1326TIP3    H2 3985   1.636   4.073   4.514  0.6963  0.5967  0.3603
 1327TIP3   OH2 3986   5.986   0.924   1.320 -0.6373  0.3088 -0.6491
 1327TIP3    H1 3987   5.933   0.850   1.291  0.3104 -0.1532 -1.2267
 1327TIP3    H2 3988   6.075   0.904   1.291  0.0215  0.7048  0.9625
 1328TIP3   OH2 3989   5.745   3.520   2.042  0.3194 -0.0808 -0.2106
 1328TIP3    H1 3990   5.819   3.579   2.053 -0.7455  1.0921  1.0910
 1328TIP3    H2 3991   5.754   3.457   2.113  0.4863 -0.4088 -0.5216
 1329TIP3   OH2 3992   0.072   5.662   2.630 -0.6631 -0.4690  0.0767
 1329TIP3    H1 3993  -0.004   5.655   2.687 -2.0416  0.0877 -1.5938
 1329TIP3    H2 3994   0.084   5.573   2.595 -0.1113 -0.7030  0.8353
 1330TIP3   OH2 3995   4.155   0.702   1.920  0.2913 -0.0372 -0.0595
 1330TIP3    H1 3996   4.176   0.747   2.002 -1.1584  0.2351  0.1834
 1330TIP3    H2 3997   4.066   0.730   1.899 -0.0051 -1.4582 -0.8067
 1331TIP3   OH2 3998   5.548   2.968   4.331 -0.0226 -0.1275  0.0783
 1331TIP3    H1 3999   5.531   3.057   4.362 -1.4665 -0.1783 -0.4835
 1331TIP3    H2 4000   5.525   2.971   4.238  0.4597 -0.9533 -0.0713
 1332TIP3   OH2 4001   0.867   0.047   3.217 -0.0769 -0.4676 -0.6008
 1332TIP3    H1 4002   0.814   0.075   3.291  1.1721 -0.8070  0.4692
 1332TIP3    H2 4003   0.935  -0.009   3.256  0.8826 -0.2876 -1.9360
 1333TIP3   OH2 4004   3.197   0.774   2.747 -0.1345 -0.4276  0.1996
 1333TIP3    H1 4005   3.272   0.831   2.733 -0.3410 -0.0699  0.5350
 1333TIP3    H2 4006   3.203   0.709   2.677 -0.4223  0.5517 -0.7469
 1334TIP3   OH2 4007   3.234   2.198   0.910 -0.2216  0.0846 -0.0851
 1334TIP3    H1 4008   3.313   2.164   0.869 -0.1456 -1.5610  1.3134
 1334TIP3    H2 4009   3.172   2.125   0.908 -1.2806  0.9501 -0.0549
 1335TIP3   OH2 4010   6.037   3.069   1.316 -0.2737 -0.0733  0.7897
 1335TIP3    H1 4011   6.006   3.031   1.399 -1.7428  0.5213  0.5409
 1335TIP3    H2 4012   5.965   3.055   1.255  0.3138  0.5684 -0.0693
 1336TIP3   OH2 4013   4.359   1.524   2.901  0.1012 -0.5072  0.3814
 1336TIP3    H1 4014   4.297   1.495   2.969  0.7548 -2.2799  0.2685
 1336TIP3    H2 4015   4.350   1.459   2.831  2.0599 -0.8219  0.3592
 1337TIP3   OH2 4016   3.496   5.630   2.555 -0.3321  0.4705 -0.4398
 1337TIP3    H1 4017   3.425   5.608   2.616  0.9391 -0.4999  0.7484
 1337TIP3    H2 4018   3.532   5.712   2.589  1.0320 -0.5882  0.7760
 1338TIP3   OH2 4019   2.696   1.322   5.167  0.0030 -0.3956 -0.3072
 1338TIP3    H1 4020   2.624   1.383   5.155  0.6994  0.4461 -0.2839
 1338TIP3    H2 4021   2.732   1.309   5.078  0.3500 -0.1457 -0.2065
 1339TIP3   OH2 4022   4.404   3.975   2.698 -0.1749  0.2756 -0.6689
 1339TIP3    H1 4023   4.466   4.001   2.765 -0.0950 -2.0984  0.3117
 1339TIP3    H2 4024   4.436   4.014   2.617  2.3532 -0.4604 -0.1119
 1340TIP3   OH2 4025   5.114   0.238   1.100  0.6884  0.0901  0.1435
 1340TIP3    H1 4026   5.069   0.303   1.154 -1.6408 -0.0035 -1.5486
 1340TIP3    H2 4027   5.152   0.288   1.028  2.3508  0.0035  0.9095
 1341TIP3   OH2 4028   1.051   0.258   4.187 -0.5437  0.1738 -0.0658
 1341TIP3    H1 4029   0.978   0.287   4.242 -0.3115  0.4058  0.1286
 1341TIP3    H2 4030   1.083   0.339   4.146 -0.1126  0.1460  0.2041
 1342TIP3   OH2 4031   5.451   2.619   2.645  0.3596 -0.0099 -0.1872
 1342TIP3    H1 4032   5.359   2.620   2.670  0.4350 -0.9683  0.1840
 1342TIP3    H2 4033   5.468   2.706   2.611 -0.8160  0.0314 -0.7145
 1343TIP3   OH2 4034   3.027   1.783   1.178  0.6762  0.2062  0.5060
 1343TIP3    H1 4035   3.107   1.731   1.186  0.3088 -0.3265  0.7753
 1343TIP3    H2 4036   2.971   1.732   1.121  1.4277  1.7136 -1.7482
 1344TIP3   OH2 4037   4.101   5.529   2.314 -0.3023 -0.3345 -0.4442
 1344TIP3    H1 4038   4.071   5.457   2.369  0.8276  0.1714  0.8846
 1344TIP3    H2 4039   4.160   5.487   2.250  0.3268 -0.6139  0.3004
 1345TIP3   OH2 4040   3.441   2.733   2.944 -0.2950  1.0179 -0.3054
 1345TIP3    H1 4041   3.396   2.660   2.902 -1.7224  0.7767  1.5287
 1345TIP3    H2 4042   3.376   2.803   2.948  0.7419  2.0711 -1.1172
 1346TIP3   OH2 4043   1.008   0.692   2.163 -0.5439 -0.0116 -0.4566
 1346TIP3    H1 4044   0.925   0.718   2.124 -1.7310 -1.1900  1.1856
 1346TIP3    H2 4045   1.067   0.766   2.145 -2.2984  1.4404 -0.5326
 1347TIP3   OH2 4046   2.296   4.329   4.754  0.2287  0.6045 -0.2153
 1347TIP3    H1 4047   2.349   4.296   4.681 -1.0470  0.2150 -0.9842
 1347TIP3    H2 4048   2.294   4.257   4.817  0.8629  0.7391 -0.0269
 1348TIP3   OH2 4049   2.837   3.407   4.820  0.3021  0.4081 -0.4912
 1348TIP3    H1 4050   2.918   3.379   4.864  0.6687  1.5572 -0.3890
 1348TIP3    H2 4051   2.781   3.439   4.891  0.1125  0.4450 -0.6574
 1349TIP3   OH2 4052   3.762   5.507   2.616  0.1025  0.0883  0.4483
 1349TIP3    H1 4053   3.679   5.549   2.594 -0.0743 -0.2556  0.4572
 1349TIP3    H2 4054   3.737   5.426   2.659  0.4434 -0.2255  0.0567
 1350TIP3   OH2 4055   0.442   3.261   0.712  0.0731 -0.5135  0.0315
 1350TIP3    H1 4056   0.428   3.355   0.722  1.4036 -0.3140  0.1960
 1350TIP3    H2 4057   0.381   3.221   0.773 -0.3101  0.2517  0.1593
 1351TIP3   OH2 4058   4.068   5.079   1.531  0.0659  0.1201  0.0949
 1351TIP3    H1 4059   4.101   5.119   1.612  0.7694 -1.0415  0.3916
 1351TIP3    H2 4060   4.083   4.986   1.542 -1.6091 -0.2686 -0.5624
 1352TIP3   OH2 4061   3.446   5.323   0.367 -0.5115 -0.7226 -0.4802
 1352TIP3    H1 4062   3.492   5.363   0.441 -0.4143  0.0312 -0.9319
 1352TIP3    H2 4063   3.389   5.392   0.334 -2.8391 -1.9763  0.7399
 1353TIP3   OH2 4064   4.010   3.508   4.771 -0.4919  0.5830  0.5537
 1353TIP3    H1 4065   3.924   3.532   4.807 -1.1212 -0.3435 -0.2661
 1353TIP3    H2 4066   4.047   3.591   4.741 -2.0938  0.7485 -1.1469
 1354TIP3   OH2 4067   3.084   5.447   4.408 -0.3447 -0.0684 -0.1285
 1354TIP3    H1 4068   3.012   5.448   4.344 -0.4682  1.3433  0.0066
 1354TIP3    H2 4069   3.084   5.535   4.445  0.6319 -0.4495  0.8185
 1355TIP3   OH2 4070   1.088   1.808   1.030  0.3087 -0.0211 -0.0973
 1355TIP3    H1 4071   1.103   1.891   0.984  1.6026  0.1424  0.5711
 1355TIP3    H2 4072   1.153   1.808   1.101 -2.1975  0.1681  2.3381
 1356TIP3   OH2 4073   0.978   1.394   2.046 -0.5388  0.2506  0.1140
 1356TIP3    H1 4074   1.073   1.397   2.062 -0.5046  1.9563 -0.2181
 1356TIP3    H2 4075   0.942   1.458   2.108 -1.4442 -0.0965 -0.0411
 1357TIP3   OH2 4076   3.688   5.708   3.169  0.1843 -0.0203  0.2600
 1357TIP3    H1 4077   3.705   5.613   3.169 -1.3044 -0.3036  0.7872
 1357TIP3    H2 4078   3.685   5.732   3.261  3.2454  1.1133  0.1827
 1358TIP3   OH2 4079   6.201   2.624   2.336  0.5198  0.2275  0.0059
 1358TIP3    H1 4080   6.164   2.652   2.420  1.2498 -0.8757  0.7191
 1358TIP3    H2 4081   6.191   2.529   2.335  1.4905  0.1119 -0.6754
 1359TIP3   OH2 4082   6.066   0.078   2.928 -0.4633  0.2860 -0.3691
 1359TIP3    H1 4083   6.073  -0.005   2.881 -1.6989 -0.1815  0.2376
 1359TIP3    H2 4084   6.120   0.066   3.006 -1.1676 -0.2004  0.0516
 1360TIP3   OH2 4085   1.231   3.436   4.083  0.0407  0.0712 -0.2709
 1360TIP3    H1 4086   1.210   3.346   4.058 -2.4144  0.5595 -0.2482
 1360TIP3    H2 4087   1.297   3.464   4.020 -1.3736 -0.7880 -2.2334
 1361TIP3   OH2 4088   2.510   3.673   3.836 -0.0155 -0.0990 -0.0898
 1361TIP3    H1 4089   2.463   3.643   3.758  1.2238 -0.9835 -0.5373
 1361TIP3    H2 4090   2.554   3.595   3.869 -1.4285 -0.0186  2.2180
 1362TIP3   OH2 4091   4.866   5.902   1.651 -0.1984 -0.1545 -0.6464
 1362TIP3    H1 4092   4.825   5.928   1.569 -0.1889 -0.7179 -0.8365
 1362TIP3    H2 4093   4.958   5.927   1.640  0.3697 -2.4604 -1.8489
 1363TIP3   OH2 4094   4.794   5.121   2.905  0.1127  0.0618  0.3513
 1363TIP3    H1 4095   4.714   5.158   2.941 -0.8318 -1.9210  0.3931
 1363TIP3    H2 4096   4.765   5.066   2.833  1.5211 -0.1080 -0.1167
 1364TIP3   OH2 4097   3.182   3.711   4.008  0.0079  0.4227 -0.2087
 1364TIP3    H1 4098   3.176   3.767   3.930 -2.6688  1.5122  0.6569
 1364TIP3    H2 4099   3.268   3.729   4.044  0.6739  1.1082 -2.0189
 1365TIP3   OH2 4100   2.470   2.202   1.377  0.3285  0.1080 -0.4945
 1365TIP3    H1 4101   2.387   2.168   1.410 -0.0764  1.3864 -0.1289
 1365TIP3    H2 4102   2.451   2.294   1.355  1.3359  0.0914 -1.5413
 1366TIP3   OH2 4103   5.805   2.541   3.360 -0.1210  0.5678 -0.1180
 1366TIP3    H1 4104   5.745   2.491   3.304  0.5294  2.6096 -2.8576
 1366TIP3    H2 4105   5.793   2.632   3.333  0.1631  1.7709  3.2911
 1367TIP3   OH2 4106   5.695   0.439   4.154 -0.4775  0.0143  0.8364
 1367TIP3    H1 4107   5.697   0.353   4.195 -0.9563 -0.4990 -0.1920
 1367TIP3    H2 4108   5.605   0.469   4.165 -0.5608 -0.0431  0.3505
 1368TIP3   OH2 4109   2.289   5.589   2.099 -0.3834 -0.2129  0.1474
 1368TIP3    H1 4110   2.292   5.519   2.034 -1.5923  0.8475 -1.1102
 1368TIP3    H2 4111   2.229   5.654   2.062 -2.0345 -0.0640  2.8320
 1369TIP3   OH2 4112   0.164   1.349   4.725  0.2738  0.0579  0.5483
 1369TIP3    H1 4113   0.250   1.390   4.733  1.5770 -2.6729  1.7487
 1369TIP3    H2 4114   0.110   1.415   4.680  3.3688  1.2347 -1.7822
 1370TIP3   OH2 4115   0.441   4.262   1.557 -0.3269  0.5881  0.1757
 1370TIP3    H1 4116   0.410   4.299   1.640 -0.3828  0.9977 -0.0226
 1370TIP3    H2 4117   0.436   4.335   1.496  0.6636  0.5599  0.0437
 1371TIP3   OH2 4118   6.336   5.251   3.772  0.1980  0.4761 -0.0106
 1371TIP3    H1 4119   6.318   5.328   3.717  1.0078  1.9856  1.7475
 1371TIP3    H2 4120   6.298   5.272   3.857  0.2940 -1.1710  0.4764
 1372TIP3   OH2 4121   5.159   4.691   1.010 -0.2433  0.0392 -0.1332
 1372TIP3    H1 4122   5.117   4.607   0.990 -1.3649 -0.1700  2.6889
 1372TIP3    H2 4123   5.092   4.740   1.058  0.8941  1.9907 -0.4247
 1373TIP3   OH2 4124   2.249   5.402   4.744  0.1837  0.5780 -0.0947
 1373TIP3    H1 4125   2.243   5.425   4.837 -0.3523 -0.4745  0.1426
 1373TIP3    H2 4126   2.338   5.366   4.734  0.3885  1.0772 -0.0840
 1374TIP3   OH2 4127   4.448   5.668   3.474 -0.7108 -0.2474  0.2715
 1374TIP3    H1 4128   4.503   5.666   3.552 -0.2935  3.6050  0.2487
 1374TIP3    H2 4129   4.360   5.684   3.506 -0.9570 -1.0975  0.0422
 1375TIP3   OH2 4130   4.060   3.741   2.908 -1.1047  0.0700 -0.4060
 1375TIP3    H1 4131   4.121   3.743   2.981 -0.9882  3.9569 -0.3815
 1375TIP3    H2 4132   4.047   3.648   2.889 -0.0322 -1.0504  3.5585
 1376TIP3   OH2 4133   5.042   0.791   1.083  0.3975  0.3294 -0.3305
 1376TIP3    H1 4134   4.958   0.748   1.098  1.3578 -1.5301  0.0384
 1376TIP3    H2 4135   5.080   0.800   1.171  0.9854  0.2712 -0.5744
 1377TIP3   OH2 4136   3.003   4.044   4.016 -0.0780 -0.8079  0.0761
 1377TIP3    H1 4137   2.949   4.061   4.093  0.6286 -0.4539  0.5056
 1377TIP3    H2 4138   3.093   4.054   4.048  0.2194 -0.6725 -0.7943
 1378TIP3   OH2 4139   6.030   0.163   1.140  0.0412  0.4933  0.2236
 1378TIP3    H1 4140   6.022   0.229   1.070 -0.9878 -2.0045 -2.2180
 1378TIP3    H2 4141   5.940   0.133   1.154  0.5006 -0.4983  1.1717
 1379TIP3   OH2 4142   5.252   4.220   0.031  0.1804  0.0992 -0.0062
 1379TIP3    H1 4143   5.212   4.177   0.106 -1.0658  2.6791  0.9074
 1379TIP3    H2 4144   5.311   4.154  -0.006 -1.2803 -2.1854  1.5189
 1380TIP3   OH2 4145   0.594   2.668   3.253  0.1303 -0.2038 -0.2346
 1380TIP3    H1 4146   0.684   2.645   3.232  0.3285 -2.3046  2.4175
 1380TIP3    H2 4147   0.542   2.600   3.210  0.2118 -1.7010  1.9038
 1381TIP3   OH2 4148   1.824   5.307   0.765 -0.5098  0.2433 -0.3663
 1381TIP3    H1 4149   1.781   5.301   0.680  0.8034 -0.9570 -0.9949
 1381TIP3    H2 4150   1.917   5.303   0.745 -0.1403  0.8198  1.0848
 1382TIP3   OH2 4151   6.075   3.687   3.045  0.3865 -0.3031 -0.1051
 1382TIP3    H1 4152   5.996   3.691   3.100  0.1315 -0.9268 -0.4061
 1382TIP3    H2 4153   6.147   3.689   3.107  0.0936 -1.7957  0.3501
 1383TIP3   OH2 4154   5.123   2.057   3.554  0.0791 -0.4207 -0.2384
 1383TIP3    H1 4155   5.140   2.148   3.580  0.4396 -0.0339 -1.7323
 1383TIP3    H2 4156   5.033   2.041   3.580 -0.5346  0.9369 -1.4365
 1384TIP3   OH2 4157   3.269   1.035   5.050 -0.4337 -0.4491 -0.8115
 1384TIP3    H1 4158   3.303   0.945   5.050 -1.2988 -0.8618  1.7967
 1384TIP3    H2 4159   3.178   1.027   5.021 -1.2679 -0.8590  1.6714
 1385TIP3   OH2 4160   2.451   0.831   4.130  0.2018  0.0527 -0.2395
 1385TIP3    H1 4161   2.467   0.736   4.126 -1.8730 -0.3323 -2.2615
 1385TIP3    H2 4162   2.355   0.838   4.130  0.3086  2.1613 -1.1541
 1386TIP3   OH2 4163   2.031   0.843   2.409 -0.0473 -0.2033 -0.3334
 1386TIP3    H1 4164   1.952   0.821   2.360 -0.8346  0.7275  0.4792
 1386TIP3    H2 4165   2.086   0.890   2.346  0.3027 -1.6700 -1.1744
 1387TIP3   OH2 4166   4.222   2.706   3.881 -0.0805 -0.4959  0.2976
 1387TIP3    H1 4167   4.207   2.797   3.858 -0.2460 -0.2114  1.4573
 1387TIP3    H2 4168   4.165   2.656   3.822  0.3485  0.1129 -0.6436
 1388TIP3   OH2 4169   3.014   2.009   0.518  0.1369  0.0410  0.4484
 1388TIP3    H1 4170   2.993   2.092   0.474 -0.1133  0.2916  1.0332
 1388TIP3    H2 4171   2.929   1.972   0.540  0.2090 -0.8305 -0.6187
 1389TIP3   OH2 4172   1.699   0.850   3.396  0.1506  0.4754  0.0907
 1389TIP3    H1 4173   1.654   0.779   3.441 -0.7148  0.7643 -0.2974
 1389TIP3    H2 4174   1.763   0.807   3.339 -0.2594  0.0151 -0.0212
 1390TIP3   OH2 4175   0.824   0.795   1.654 -0.1166 -0.0693  0.2281
 1390TIP3    H1 4176   0.733   0.789   1.683 -0.5438  0.9423 -0.8106
 1390TIP3    H2 4177   0.843   0.710   1.616 -0.5910 -0.3235  0.5582
 1391TIP3   OH2 4178   4.167   3.057   1.331 -0.2279  0.5096  0.2634
 1391TIP3    H1 4179   4.198   2.970   1.356 -0.3149  0.4632  0.2102
 1391TIP3    H2 4180   4.242   3.099   1.290  0.0705  0.7689  1.0529
 1392TIP3   OH2 4181   4.809   4.243   2.490  0.6804  0.2529 -0.2925
 1392TIP3    H1 4182   4.866   4.303   2.537  1.8416 -0.5629 -0.6146
 1392TIP3    H2 4183   4.846   4.157   2.506 -0.7168 -0.3599 -0.1790
 1393TIP3   OH2 4184   1.061   4.127   2.571  0.6585  0.1912 -0.1170
 1393TIP3    H1 4185   0.981   4.086   2.604  0.4573  0.4981 -0.2207
 1393TIP3    H2 4186   1.037   4.219   2.557  1.2089  0.4350  0.4849
 1394TIP3   OH2 4187   4.469   1.116   3.531  0.5953  0.2713 -0.8104
 1394TIP3    H1 4188   4.430   1.113   3.618 -0.2911  0.7192 -1.1819
 1394TIP3    H2 4189   4.554   1.158   3.545  0.9088 -0.5715 -0.0213
 1395TIP3   OH2 4190   2.451   4.094   3.642 -0.2616 -0.2660  0.3680
 1395TIP3    H1 4191   2.535   4.067   3.677  0.0122 -2.4430 -1.6919
 1395TIP3    H2 4192   2.471   4.167   3.583  1.0302 -3.3102 -3.3460
 1396TIP3   OH2 4193   5.917   3.136   3.170 -0.3765 -0.3908  0.2232
 1396TIP3    H1 4194   5.865   3.143   3.250 -1.4702  0.9797 -0.5551
 1396TIP3    H2 4195   6.005   3.161   3.197 -0.2516 -1.9516  1.3962
 1397TIP3   OH2 4196   4.865   0.926   1.469 -0.6775 -0.0687 -0.0387
 1397TIP3    H1 4197   4.808   0.863   1.425 -0.0208 -1.1247  0.6033
 1397TIP3    H2 4198   4.953   0.895   1.454 -0.2085  1.6233 -1.1135
 1398TIP3   OH2 4199   2.071   5.291   0.673  0.1563  0.3390 -0.1684
 1398TIP3    H1 4200   2.156   5.327   0.699 -0.0052  0.2964  0.4269
 1398TIP3    H2 4201   2.093   5.225   0.607  0.5933  0.2669  0.0439
 1399TIP3   OH2 4202   4.294   3.825   4.393 -0.5569  0.1726 -0.6430
 1399TIP3    H1 4203   4.246   3.906   4.379 -0.2711  0.3481 -0.6162
 1399TIP3    H2 4204   4.236   3.772   4.449 -0.8826  0.2241 -0.9274
 1400TIP3   OH2 4205   6.298   4.683   4.236  0.2591  0.2107 -0.2677
 1400TIP3    H1 4206   6.356   4.755   4.211 -1.7047  1.6079 -1.0118
 1400TIP3    H2 4207   6.270   4.704   4.325 -1.3065  1.1101 -0.9337
 1401TIP3   OH2 4208   1.122   1.594   3.934  0.2981  0.6824 -0.0201
 1401TIP3    H1 4209   1.128   1.558   4.023  0.5000  1.2286  0.1988
 1401TIP3    H2 4210   1.194   1.553   3.887  0.1473  0.3348  0.0495
 1402TIP3   OH2 4211   1.615  -0.021   3.444 -0.0452  0.4381  0.3633
 1402TIP3    H1 4212   1.561   0.020   3.512 -1.8152 -1.2303  0.0435
 1402TIP3    H2 4213   1.599   0.032   3.365 -1.5948 -0.2592  0.1752
 1403TIP3   OH2 4214   4.953   3.552   2.996  0.0257  0.2421 -0.0869
 1403TIP3    H1 4215   4.986   3.640   3.017 -3.3121  1.7620 -0.5458
 1403TIP3    H2 4216   4.908   3.524   3.075 -1.0220  0.0328 -0.7479
 1404TIP3   OH2 4217   2.477   2.266   2.543  0.3308  0.8962 -0.4484
 1404TIP3    H1 4218   2.448   2.343   2.591  1.5201  0.7608  0.5371
 1404TIP3    H2 4219   2.396   2.226   2.510 -0.4940  1.2861  1.0086
 1405TIP3   OH2 4220   5.984   5.040   3.764  0.0264 -0.4785 -1.0858
 1405TIP3    H1 4221   6.041   5.095   3.710  1.2123 -0.8868 -0.2884
 1405TIP3    H2 4222   6.000   5.069   3.854  0.2413 -1.7238 -0.7012
 1406TIP3   OH2 4223   0.681   0.079   3.468  0.2066  0.3495 -0.0537
 1406TIP3    H1 4224   0.690   0.174   3.464 -0.9741  0.4479 -0.7025
 1406TIP3    H2 4225   0.639   0.063   3.553 -0.2768  0.4663 -0.2703
 1407TIP3   OH2 4226   4.688   5.798   4.454 -0.4370 -0.3779  0.0988
 1407TIP3    H1 4227   4.599   5.783   4.422 -0.4389  0.1234 -0.1380
 1407TIP3    H2 4228   4.705   5.890   4.436  0.6454 -0.7921 -1.1988
 1408TIP3   OH2 4229   0.893   2.483   0.493  0.2294 -0.4839  0.5982
 1408TIP3    H1 4230   0.920   2.475   0.401  0.8674 -0.2350  0.7619
 1408TIP3    H2 4231   0.947   2.419   0.539 -0.3609 -0.8780  0.7516
 1409TIP3   OH2 4232   2.001   3.239   2.125  0.2290 -0.2295  0.3524
 1409TIP3    H1 4233   1.963   3.318   2.162 -0.8752  0.3542 -1.8314
 1409TIP3    H2 4234   1.936   3.209   2.061  1.8457 -1.3200 -0.8612
 1410TIP3   OH2 4235   6.151   1.174   1.760  0.0525  0.5087 -0.1783
 1410TIP3    H1 4236   6.145   1.198   1.667  1.4194  2.5846  0.1883
 1410TIP3    H2 4237   6.128   1.255   1.806  1.6291  0.2009  1.2463
 1411TIP3   OH2 4238   4.366   2.997   2.812 -0.2193  0.1420  0.0283
 1411TIP3    H1 4239   4.337   2.993   2.903  0.0646 -1.9969  0.0602
 1411TIP3    H2 4240   4.461   3.005   2.818 -0.3666  3.5102 -0.1206
 1412TIP3   OH2 4241   4.597   2.802   1.295 -0.1551 -0.1743 -0.2926
 1412TIP3    H1 4242   4.642   2.886   1.308  0.7304 -0.5050 -1.1293
 1412TIP3    H2 4243   4.618   2.752   1.374 -2.7561  1.2324  1.4434
 1413TIP3   OH2 4244   3.033   1.574   1.629  0.4134 -0.0539 -0.2499
 1413TIP3    H1 4245   3.113   1.548   1.674  0.3392 -0.4114 -0.3233
 1413TIP3    H2 4246   3.064   1.628   1.556  0.4545  1.9091  1.1401
 1414TIP3   OH2 4247   3.151   2.136   0.044  0.2723 -0.1380  0.7802
 1414TIP3    H1 4248   3.201   2.208   0.081  0.3395  0.0801  0.2667
 1414TIP3    H2 4249   3.150   2.070   0.113 -0.3127  0.5939  1.4870
 1415TIP3   OH2 4250   6.298   0.941   1.837 -0.0439  0.0375  0.0573
 1415TIP3    H1 4251   6.246   1.019   1.822 -0.3563 -0.0960  0.4280
 1415TIP3    H2 4252   6.309   0.902   1.751 -0.6675 -0.0010 -0.0044
 1416TIP3   OH2 4253   3.024   4.350   4.186 -0.4784 -0.2056  0.0664
 1416TIP3    H1 4254   3.020   4.290   4.111  0.0282 -0.9352  0.5990
 1416TIP3    H2 4255   3.118   4.359   4.203 -0.6076 -1.7468  1.9122
 1417TIP3   OH2 4256   3.010   5.547   1.946  0.3932  0.2058  0.3749
 1417TIP3    H1 4257   3.023   5.581   2.035 -0.3096 -0.8401  0.8973
 1417TIP3    H2 4258   2.953   5.471   1.958 -1.3365  1.1771 -1.1679
 1418TIP3   OH2 4259   5.655   1.799   0.758  0.3716  0.3181 -0.0062
 1418TIP3    H1 4260   5.609   1.776   0.677  0.6828 -1.8243  0.3614
 1418TIP3    H2 4261   5.601   1.868   0.797 -1.2895 -0.5038 -0.7122
 1419TIP3   OH2 4262   0.886   3.751   1.507 -0.0672  0.0974  0.6755
 1419TIP3    H1 4263   0.866   3.657   1.503 -0.7607  0.2767 -0.3871
 1419TIP3    H2 4264   0.849   3.780   1.590 -1.1261 -0.2841  0.3474
 1420TIP3   OH2 4265   0.346   4.402   4.244  0.5397 -0.0408  0.5278
 1420TIP3    H1 4266   0.391   4.422   4.162  0.2247  3.1205  1.0075
 1420TIP3    H2 4267   0.416   4.388   4.308  0.8790  1.7021  0.5786
 1421TIP3   OH2 4268   4.786   5.075   5.024 -0.4215 -0.3071  0.1073
 1421TIP3    H1 4269   4.763   5.058   4.932  0.7491 -0.3359 -0.1915
 1421TIP3    H2 4270   4.772   5.169   5.035 -2.4193 -0.5992  0.4645
 1422TIP3   OH2 4271   3.902   4.259   3.029 -0.3030  0.3068  0.1894
 1422TIP3    H1 4272   3.910   4.349   3.058 -1.3061  1.0165 -1.5726
 1422TIP3    H2 4273   3.815   4.231   3.060  0.1284 -0.1716  0.9937
 1423TIP3   OH2 4274   1.343   0.915   3.998 -0.0131 -0.3466 -0.5350
 1423TIP3    H1 4275   1.363   1.003   3.965 -0.3179  0.7187  1.9129
 1423TIP3    H2 4276   1.256   0.896   3.963 -0.9540  1.3528  0.7204
 1424TIP3   OH2 4277   1.346   4.149   1.211 -0.3161 -0.0452 -0.3960
 1424TIP3    H1 4278   1.365   4.142   1.304 -1.5012  0.4618 -0.0994
 1424TIP3    H2 4279   1.408   4.213   1.178  0.0731 -0.1868  0.0477
 1425TIP3   OH2 4280   0.593   4.233   3.505 -0.9562  0.0790 -0.6159
 1425TIP3    H1 4281   0.678   4.233   3.460  0.2830 -0.3466  1.5283
 1425TIP3    H2 4282   0.586   4.144   3.542 -1.3391  0.6985  0.8889
 1426TIP3   OH2 4283   2.731   4.576   3.227  0.3545 -0.1389 -0.1241
 1426TIP3    H1 4284   2.765   4.649   3.175  1.2791 -0.5056 -0.0609
 1426TIP3    H2 4285   2.759   4.596   3.317  2.1197 -1.3904 -0.3514
 1427TIP3   OH2 4286   1.190   4.624   0.483 -0.4638  0.0828  0.3452
 1427TIP3    H1 4287   1.154   4.566   0.550 -0.2780  0.0553  0.4235
 1427TIP3    H2 4288   1.278   4.589   0.467 -0.6013 -0.0607 -0.0944
 1428TIP3   OH2 4289   1.374   5.099   1.719  0.0031 -0.4035  0.1916
 1428TIP3    H1 4290   1.455   5.054   1.743 -0.0870 -0.0890  1.1472
 1428TIP3    H2 4291   1.313   5.079   1.791  0.3008  2.0793  1.2566
 1429TIP3   OH2 4292   5.264   2.166   4.537  0.2634  0.2952 -0.0263
 1429TIP3    H1 4293   5.214   2.133   4.462  0.6632  1.7642 -0.9726
 1429TIP3    H2 4294   5.352   2.131   4.525 -0.0932 -0.8927  0.7168
 1430TIP3   OH2 4295   3.227   3.804   2.463  0.0272 -0.1513 -0.0846
 1430TIP3    H1 4296   3.300   3.808   2.525  0.9690 -1.0109 -1.0876
 1430TIP3    H2 4297   3.246   3.874   2.400 -0.2114 -0.1452 -0.1489
 1431TIP3   OH2 4298   0.847   2.870   2.967 -0.1483  0.2778  0.0020
 1431TIP3    H1 4299   0.779   2.821   2.920 -1.4327  1.6282  0.3877
 1431TIP3    H2 4300   0.897   2.914   2.899 -0.8936  0.8199 -0.2106
 1432TIP3   OH2 4301   3.828   5.269   4.409 -0.3648  0.3107 -0.3867
 1432TIP3    H1 4302   3.829   5.361   4.437  1.8413 -0.1394  1.2631
 1432TIP3    H2 4303   3.881   5.269   4.329  1.5294  0.2247  0.8009
 1433TIP3   OH2 4304   1.147   3.975   3.526  0.0518  0.5155 -0.4310
 1433TIP3    H1 4305   1.210   4.000   3.458  1.0251  0.6076  0.4853
 1433TIP3    H2 4306   1.104   4.056   3.551 -0.4043  0.4617 -1.0177
 1434TIP3   OH2 4307   2.656   0.038   3.822  0.3651 -0.1437  0.6568
 1434TIP3    H1 4308   2.729  -0.011   3.859 -0.0038 -1.3896 -0.1939
 1434TIP3    H2 4309   2.589   0.037   3.890  1.1506  1.0979  1.4821
 1435TIP3   OH2 4310   4.691   1.498   0.792  0.2456  0.8610  0.2562
 1435TIP3    H1 4311   4.733   1.419   0.761  2.1849  1.2263  1.7286
 1435TIP3    H2 4312   4.603   1.471   0.817  0.4668 -0.5398 -0.4413
 1436TIP3   OH2 4313   5.481   2.607   2.979 -0.0036 -0.0324  0.4439
 1436TIP3    H1 4314   5.490   2.685   2.924 -0.8791 -0.9736 -1.0970
 1436TIP3    H2 4315   5.423   2.635   3.050 -0.1808  0.7624  0.0022
 1437TIP3   OH2 4316   0.639   3.338   4.063 -0.2383 -0.4951 -0.6123
 1437TIP3    H1 4317   0.729   3.357   4.036  0.1663  0.1021  1.0428
 1437TIP3    H2 4318   0.624   3.249   4.032  0.8728 -0.5679 -1.0132
 1438TIP3   OH2 4319   3.851   1.936   2.058 -0.3643 -0.5881 -0.9133
 1438TIP3    H1 4320   3.789   1.880   2.011 -1.6454 -0.2497  0.3045
 1438TIP3    H2 4321   3.797   1.986   2.119  1.3199 -2.0150  1.9652
 1439TIP3   OH2 4322   2.899   4.989   4.252 -0.2521  0.2289 -0.1912
 1439TIP3    H1 4323   2.874   5.078   4.227 -0.0377  0.0700 -1.0050
 1439TIP3    H2 4324   2.940   4.952   4.173  1.3660  0.0398  0.6972
 1440TIP3   OH2 4325   0.438   5.080   2.245  0.7075  0.3944  0.1633
 1440TIP3    H1 4326   0.360   5.026   2.241  0.7498  0.1574  1.7787
 1440TIP3    H2 4327   0.408   5.164   2.281  0.9523  0.8208 -0.5984
 1441TIP3   OH2 4328   2.175   1.926   2.060 -0.3628 -0.0323 -0.1977
 1441TIP3    H1 4329   2.206   1.837   2.041  0.5305  0.5307 -1.4598
 1441TIP3    H2 4330   2.079   1.918   2.063 -0.2720 -1.1283  0.2369
 1442TIP3   OH2 4331   4.045   2.985   0.845  0.4258  0.5572 -0.1864
 1442TIP3    H1 4332   4.136   2.986   0.815  0.1450  1.3388 -1.0764
 1442TIP3    H2 4333   4.050   3.012   0.937  1.3157 -1.9762  0.5932
 1443TIP3   OH2 4334   1.113   5.030   3.767 -0.3285 -0.2134  0.1612
 1443TIP3    H1 4335   1.027   5.015   3.729 -0.4457  0.9349 -0.0530
 1443TIP3    H2 4336   1.130   4.952   3.820 -1.7966 -0.1347  0.7732
 1444TIP3   OH2 4337   1.272   5.751   4.184  0.3187  0.2047 -0.6113
 1444TIP3    H1 4338   1.221   5.819   4.228  1.6007  0.6984  0.2003
 1444TIP3    H2 4339   1.263   5.770   4.091 -0.4946  0.6135 -0.4555
 1445TIP3   OH2 4340   5.334   1.839   1.757 -0.2353  0.0773  0.4310
 1445TIP3    H1 4341   5.367   1.788   1.683 -1.9811  0.1634 -0.4358
 1445TIP3    H2 4342   5.246   1.807   1.772 -0.2302  0.6773  1.9211
 1446TIP3   OH2 4343   5.912   4.765   2.156  0.5899 -0.0400 -0.1698
 1446TIP3    H1 4344   5.840   4.825   2.177  0.5087 -0.5635  1.1211
 1446TIP3    H2 4345   5.991   4.818   2.163  0.4894  0.0141  0.6067
 1447TIP3   OH2 4346   2.288   0.963   0.531 -0.4208 -0.4201  0.1577
 1447TIP3    H1 4347   2.208   1.015   0.534 -1.4133 -1.8586  0.0236
 1447TIP3    H2 4348   2.262   0.882   0.486  0.9846 -1.1160  0.5357
 1448TIP3   OH2 4349   0.303   4.261   3.440  0.2534  0.0126  0.3645
 1448TIP3    H1 4350   0.260   4.186   3.399 -0.5209  0.6133  0.0412
 1448TIP3    H2 4351   0.392   4.231   3.458 -0.4620 -1.4757  1.6426
 1449TIP3   OH2 4352   0.378   5.122   1.176  0.3688 -0.0971 -0.4388
 1449TIP3    H1 4353   0.378   5.026   1.172 -1.7680 -0.1781  0.1909
 1449TIP3    H2 4354   0.304   5.148   1.120  2.0339  1.3159 -2.1025
 1450TIP3   OH2 4355   4.258   4.858   4.234  0.2804 -0.2305 -0.0881
 1450TIP3    H1 4356   4.190   4.892   4.174  1.3357  1.3288 -0.4656
 1450TIP3    H2 4357   4.233   4.894   4.319 -0.5420 -1.4419  0.2000
 1451TIP3   OH2 4358   4.372   2.601   4.084  0.1716 -0.4272 -0.8092
 1451TIP3    H1 4359   4.334   2.620   3.998  0.4103  0.0987 -0.8041
 1451TIP3    H2 4360   4.435   2.531   4.068  0.1888 -0.3556 -1.0562
 1452TIP3   OH2 4361   0.241   1.558   1.860 -0.0357 -1.3069  0.0725
 1452TIP3    H1 4362   0.173   1.626   1.863  0.5433 -0.7374  0.6296
 1452TIP3    H2 4363   0.301   1.589   1.792  1.4386 -0.0526  1.8473
 1453TIP3   OH2 4364   0.293   1.083   2.378  0.1078  0.1658  0.2927
 1453TIP3    H1 4365   0.202   1.061   2.396  0.0052  1.1507  1.0174
 1453TIP3    H2 4366   0.340   0.999   2.386 -1.0310 -0.8480 -2.4708
 1454TIP3   OH2 4367   2.419   1.507   1.992 -0.0818  0.6624 -0.4475
 1454TIP3    H1 4368   2.488   1.451   1.956  0.4461  1.1663 -0.2397
 1454TIP3    H2 4369   2.427   1.498   2.087 -0.5258  0.4594 -0.4278
 1455TIP3   OH2 4370   4.763   1.875   1.208  0.2616  0.0250  0.4998
 1455TIP3    H1 4371   4.740   1.872   1.115  1.9892 -0.6411  0.0489
 1455TIP3    H2 4372   4.760   1.968   1.230  0.5155  0.2627 -0.4146
 1456TIP3   OH2 4373   4.997   0.421   2.757  0.0521  0.1471  0.0944
 1456TIP3    H1 4374   4.996   0.357   2.828  1.7091  1.6558  1.6046
 1456TIP3    H2 4375   5.053   0.491   2.790 -0.1712  1.5101 -2.2323
 1457TIP3   OH2 4376   2.891   4.297   1.414  0.7537 -0.0592 -0.0227
 1457TIP3    H1 4377   2.949   4.270   1.343  0.8910 -1.0723  0.4483
 1457TIP3    H2 4378   2.807   4.254   1.393  0.2723  1.0720 -0.4911
 1458TIP3   OH2 4379   3.515   0.236   1.651  0.1095  0.0484  0.1532
 1458TIP3    H1 4380   3.421   0.236   1.666  0.1184  0.4350  0.2328
 1458TIP3    H2 4381   3.530   0.166   1.589 -0.0067 -1.1818  1.4647
 1459TIP3   OH2 4382   6.275   3.578   2.041 -0.3680  0.2216 -0.5013
 1459TIP3    H1 4383   6.366   3.590   2.067 -0.2928  1.2815 -1.1839
 1459TIP3    H2 4384   6.271   3.488   2.008 -0.0157 -0.4550  1.2267
 1460TIP3   OH2 4385   3.845   0.321   2.755  0.1234  0.1251  0.0873
 1460TIP3    H1 4386   3.870   0.335   2.846 -0.4915 -0.1379  0.2991
 1460TIP3    H2 4387   3.918   0.273   2.717  2.0370  3.1801 -0.5031
 1461TIP3   OH2 4388   0.667   3.999   1.941 -0.3510  0.6515  0.3083
 1461TIP3    H1 4389   0.612   3.922   1.924 -0.0699  0.4967  0.0925
 1461TIP3    H2 4390   0.695   3.988   2.032  0.0683  0.2544  0.1365
 1462TIP3   OH2 4391   0.644   5.423   4.049 -0.6830 -1.0564  0.1954
 1462TIP3    H1 4392   0.553   5.396   4.058 -0.9007 -0.3715  0.1257
 1462TIP3    H2 4393   0.640   5.508   4.006 -0.0195 -0.9412  0.3418
 1463TIP3   OH2 4394   0.530   5.678   3.941 -0.2679  0.5006 -0.4639
 1463TIP3    H1 4395   0.483   5.761   3.941  0.6639  1.0589 -1.6409
 1463TIP3    H2 4396   0.462   5.612   3.928 -0.8281  1.2395 -1.4532
 1464TIP3   OH2 4397   6.031   4.297   1.502  0.3072 -0.0189 -0.2948
 1464TIP3    H1 4398   6.063   4.236   1.435  1.0955 -0.0386  0.0813
 1464TIP3    H2 4399   5.962   4.249   1.547 -0.6071  0.1889 -1.4264
 1465TIP3   OH2 4400   3.334   1.628   1.546 -0.3558 -0.0385 -0.0912
 1465TIP3    H1 4401   3.403   1.665   1.601  0.8566  0.5696 -1.9188
 1465TIP3    H2 4402   3.356   1.535   1.540  0.5598  0.2069 -0.9311
 1466TIP3   OH2 4403   3.419   0.833   2.193 -0.7398  0.2606  0.8901
 1466TIP3    H1 4404   3.510   0.806   2.208 -0.8828  0.1859  1.6360
 1466TIP3    H2 4405   3.407   0.909   2.250 -0.0477  2.5850 -1.8437
 1467TIP3   OH2 4406   5.049  -0.009   4.519  0.1594  0.2242  0.4912
 1467TIP3    H1 4407   5.048   0.081   4.487  1.8862  0.6898  1.5712
 1467TIP3    H2 4408   4.957  -0.035   4.520 -1.1380  3.6736  4.6168
 1468TIP3   OH2 4409   2.131   3.122   0.847 -0.1082 -0.0170 -0.2429
 1468TIP3    H1 4410   2.227   3.125   0.842 -0.1051 -0.5312 -0.5733
 1468TIP3    H2 4411   2.101   3.153   0.762 -0.2382  0.1082 -0.1528
 1469TIP3   OH2 4412   1.063   4.792   2.541  0.3913 -0.2767 -0.6085
 1469TIP3    H1 4413   1.132   4.813   2.604 -0.1353 -1.2526  0.3176
 1469TIP3    H2 4414   0.985   4.779   2.594 -0.1851 -0.6326 -1.5150
 1470TIP3   OH2 4415   0.255   5.722   2.249 -0.0374  0.6938  0.0676
 1470TIP3    H1 4416   0.199   5.770   2.188  0.9574  0.8336 -0.7604
 1470TIP3    H2 4417   0.239   5.763   2.334  0.8390  2.5674 -0.6238
 1471TIP3   OH2 4418   0.230   3.153   2.242 -0.1552 -0.4512  0.0708
 1471TIP3    H1 4419   0.191   3.066   2.251 -0.6842 -0.3453 -1.0920
 1471TIP3    H2 4420   0.226   3.189   2.331 -1.1409 -1.0978  0.3084
 1472TIP3   OH2 4421   4.085   2.395   2.497  0.0506  0.0740  0.5681
 1472TIP3    H1 4422   4.021   2.466   2.505 -0.4575 -0.3566  0.3820
 1472TIP3    H2 4423   4.045   2.332   2.437  1.2645  0.4543 -0.6881
 1473TIP3   OH2 4424   0.612   1.375   3.171  0.3323  0.0754 -0.0288
 1473TIP3    H1 4425   0.599   1.452   3.115 -0.0069  0.5788  0.7209
 1473TIP3    H2 4426   0.581   1.403   3.257  2.2762 -0.1527  0.8067
 1474TIP3   OH2 4427   0.483   3.790   2.082 -0.0714 -0.1412  0.4014
 1474TIP3    H1 4428   0.407   3.732   2.077  2.2022 -3.2326 -2.7476
 1474TIP3    H2 4429   0.525   3.767   2.166 -1.6549  0.4858  1.4169
 1475TIP3   OH2 4430   5.634   4.863   1.339 -0.5203 -0.0882  0.6081
 1475TIP3    H1 4431   5.607   4.955   1.338  0.2294  0.1681  1.6745
 1475TIP3    H2 4432   5.724   4.864   1.306 -0.1361 -0.2818  1.6007
 1476TIP3   OH2 4433   1.689   4.430   2.251 -0.6420  0.2405 -0.0065
 1476TIP3    H1 4434   1.699   4.517   2.212 -0.5780  0.9153  1.4503
 1476TIP3    H2 4435   1.727   4.439   2.338 -0.0247 -1.4507 -0.0867
 1477TIP3   OH2 4436   6.090   4.109   1.309 -0.9889 -0.6852 -0.3127
 1477TIP3    H1 4437   6.184   4.111   1.292 -0.4051 -0.6528  2.5511
 1477TIP3    H2 4438   6.056   4.047   1.244  0.3956  1.7172 -3.6300
 1478TIP3   OH2 4439   0.143   4.132   4.452 -0.2412 -0.1618  0.8030
 1478TIP3    H1 4440   0.121   4.155   4.361 -2.0392 -1.6478  0.8128
 1478TIP3    H2 4441   0.230   4.171   4.466 -0.5671  1.3620 -1.0562
 1479TIP3   OH2 4442   0.142   1.968   3.379  0.3542 -0.3015 -0.1339
 1479TIP3    H1 4443   0.154   1.907   3.452  2.3975 -0.7758 -0.7924
 1479TIP3    H2 4444   0.080   2.032   3.411  0.0295 -1.3582  1.4685
 1480TIP3   OH2 4445   4.371   4.534   4.508  0.0005 -0.3688 -0.8954
 1480TIP3    H1 4446   4.283   4.570   4.498  0.4600  0.9313 -0.4578
 1480TIP3    H2 4447   4.363   4.471   4.579 -0.6785 -0.6245 -1.1920
 1481TIP3   OH2 4448   0.075   0.734   3.225  0.1391  0.4177  0.5621
 1481TIP3    H1 4449  -0.016   0.755   3.202 -0.5386 -4.0432 -1.8927
 1481TIP3    H2 4450   0.124   0.747   3.143  1.0252 -0.3266  0.9547
 1482TIP3   OH2 4451   1.875   1.519   0.263 -0.0363 -0.3201 -0.0569
 1482TIP3    H1 4452   1.845   1.520   0.354 -1.1643 -1.5444 -0.3772
 1482TIP3    H2 4453   1.809   1.467   0.217  0.8206 -0.2034 -1.4717
 1483TIP3   OH2 4454   1.659   0.971   1.555 -0.2812 -0.3588  0.1161
 1483TIP3    H1 4455   1.666   0.878   1.533 -0.5772 -0.6098  1.0264
 1483TIP3    H2 4456   1.748   1.004   1.549  0.0203 -0.9799  0.9189
 1484TIP3   OH2 4457   1.561   4.384   1.147  0.7366 -0.2851  0.1879
 1484TIP3    H1 4458   1.585   4.463   1.098 -1.4236 -0.7144 -1.7307
 1484TIP3    H2 4459   1.539   4.416   1.235 -1.3799  1.5274 -0.9121
 1485TIP3   OH2 4460   3.393   2.822   4.085  0.0368  0.2784  0.1263
 1485TIP3    H1 4461   3.482   2.806   4.117 -0.2425 -0.3708  0.6152
 1485TIP3    H2 4462   3.367   2.739   4.045 -0.9576 -0.1221  1.5095
 1486TIP3   OH2 4463   2.328   2.541   3.311 -0.2012 -0.3715  0.0723
 1486TIP3    H1 4464   2.290   2.562   3.396  0.8190 -1.0333  0.7148
 1486TIP3    H2 4465   2.269   2.582   3.248 -0.0507  1.6124  1.1449
 1487TIP3   OH2 4466   0.321   2.569   3.359  0.3071 -0.1188 -0.2645
 1487TIP3    H1 4467   0.350   2.614   3.279 -0.2329  0.4568 -0.1392
 1487TIP3    H2 4468   0.363   2.617   3.430 -0.0265  0.0022 -0.1474
 1488TIP3   OH2 4469   2.592   0.118   0.674  0.0029  0.3878 -0.2444
 1488TIP3    H1 4470   2.644   0.094   0.750 -0.9297  1.8854  0.9211
 1488TIP3    H2 4471   2.502   0.121   0.706 -0.6222 -0.4858 -1.8053
 1489TIP3   OH2 4472   3.751   3.890   1.549 -0.4102  0.2359  0.0569
 1489TIP3    H1 4473   3.703   3.955   1.498  1.0006  1.5209  0.3135
 1489TIP3    H2 4474   3.797   3.940   1.616  1.1419 -0.9439 -0.0599
 1490TIP3   OH2 4475   3.610   1.429   4.584 -0.4552  0.2511 -0.0423
 1490TIP3    H1 4476   3.665   1.351   4.588  0.5762  1.0146  1.1178
 1490TIP3    H2 4477   3.614   1.456   4.493 -1.5121 -1.4947 -0.6710
 1491TIP3   OH2 4478   4.362   4.077   3.046  0.0266 -0.2950 -0.1831
 1491TIP3    H1 4479   4.358   3.987   3.013  0.6158 -1.1803  1.9874
 1491TIP3    H2 4480   4.406   4.070   3.130 -1.2241  1.8388  0.7312
 1492TIP3   OH2 4481   3.696   2.759   4.221  0.0408  0.6027  0.5502
 1492TIP3    H1 4482   3.695   2.797   4.133 -2.4996  0.0522  0.2670
 1492TIP3    H2 4483   3.776   2.706   4.224 -0.2832 -0.1146 -1.7716
 1493TIP3   OH2 4484   1.220   1.147   3.399  0.4256 -0.8821 -0.0583
 1493TIP3    H1 4485   1.259   1.213   3.342  1.1597 -0.7635  0.5628
 1493TIP3    H2 4486   1.224   1.185   3.486 -1.1516 -0.8490  0.0209
 1494TIP3   OH2 4487   3.276   2.847   3.594  0.2870 -0.0606 -0.8265
 1494TIP3    H1 4488   3.310   2.898   3.521 -0.2711  1.5666 -0.0090
 1494TIP3    H2 4489   3.337   2.864   3.666  1.0635 -1.9630 -0.9698
 1495TIP3   OH2 4490   3.612   1.239   4.179  0.3240 -0.5671 -0.1049
 1495TIP3    H1 4491   3.524   1.260   4.210  0.6585 -0.6292  0.9158
 1495TIP3    H2 4492   3.607   1.250   4.084 -1.0477 -1.5457 -0.1694
 1496TIP3   OH2 4493   4.480   3.636   3.781  0.3959  0.2277 -0.3795
 1496TIP3    H1 4494   4.428   3.662   3.857 -0.1243 -0.8264 -0.3494
 1496TIP3    H2 4495   4.420   3.640   3.707  0.9369  1.3743 -0.7725
 1497TIP3   OH2 4496   3.952   2.834   1.293 -0.4199  0.1184  0.0416
 1497TIP3    H1 4497   3.986   2.923   1.298  0.4627 -0.1404 -1.0008
 1497TIP3    H2 4498   3.981   2.802   1.207 -0.0298 -1.4499  0.7212
 1498TIP3   OH2 4499   5.349   0.921   1.643 -0.5197 -0.3113 -0.1971
 1498TIP3    H1 4500   5.397   0.905   1.724  1.8813 -0.6557 -1.5761
 1498TIP3    H2 4501   5.368   1.013   1.621 -0.0641 -0.5881 -1.0065
 1499TIP3   OH2 4502   1.751   1.269   0.614  0.1566  0.1873  0.1028
 1499TIP3    H1 4503   1.710   1.236   0.534  2.9605  2.3214 -2.4211
 1499TIP3    H2 4504   1.819   1.206   0.634  0.5280  0.4967 -0.1794
 1500TIP3   OH2 4505   0.997   5.950   3.983  0.2426 -0.1774 -0.2989
 1500TIP3    H1 4506   0.907   5.928   3.960  0.6619 -2.3443 -0.0487
 1500TIP3    H2 4507   1.049   5.922   3.908  0.7590  0.8062 -0.3286
 1501TIP3   OH2 4508   1.360   0.866   2.861  0.1901  0.3137 -0.1580
 1501TIP3    H1 4509   1.350   0.776   2.829  0.7377 -0.7339  2.3645
 1501TIP3    H2 4510   1.454   0.880   2.863  0.1404  0.5787  0.3830
 1502TIP3   OH2 4511   3.512   1.724   4.472  0.1152  0.3584 -0.4320
 1502TIP3    H1 4512   3.599   1.685   4.471  0.6959  1.5791  0.4568
 1502TIP3    H2 4513   3.493   1.738   4.565 -1.9679 -1.8386 -0.4003
 1503TIP3   OH2 4514   1.103   4.139   3.851  0.0115 -0.3887 -0.0595
 1503TIP3    H1 4515   1.189   4.149   3.809 -0.1186 -0.1617 -0.2714
 1503TIP3    H2 4516   1.112   4.059   3.903  0.0842 -0.8462 -0.7587
 1504TIP3   OH2 4517   0.612   1.305   3.867 -0.0531  0.2023  0.8831
 1504TIP3    H1 4518   0.593   1.313   3.961 -1.3790  0.7148  0.5886
 1504TIP3    H2 4519   0.567   1.380   3.827  0.3143 -0.1382 -0.1923
 1505TIP3   OH2 4520   3.658   4.296   1.625 -0.0328 -0.1660  0.0159
 1505TIP3    H1 4521   3.729   4.269   1.684  2.1667  1.5917 -1.6588
 1505TIP3    H2 4522   3.647   4.222   1.566 -1.0428 -1.2372  1.4555
 1506TIP3   OH2 4523   0.825   4.357   4.182 -0.5965 -0.3580  0.3258
 1506TIP3    H1 4524   0.821   4.273   4.229 -0.3090  0.2136  1.3966
 1506TIP3    H2 4525   0.906   4.352   4.130 -0.4846 -0.6671  0.5294
 1507TIP3   OH2 4526   0.320   3.178   2.540  0.3932 -0.2363  0.1040
 1507TIP3    H1 4527   0.359   3.094   2.516  1.3210 -0.6744  2.7950
 1507TIP3    H2 4528   0.261   3.157   2.612 -0.8047  1.1985 -0.4132
 1508TIP3   OH2 4529   2.332   0.833   5.131 -0.5544  0.0328 -0.2248
 1508TIP3    H1 4530   2.262   0.774   5.158  1.7055 -2.3359  0.8838
 1508TIP3    H2 4531   2.368   0.794   5.052  0.4463  0.4120  0.0340
 1509TIP3   OH2 4532   5.950   4.644   4.378  0.0791 -0.1395 -0.6211
 1509TIP3    H1 4533   5.903   4.638   4.296 -1.0267 -1.0800  0.0486
 1509TIP3    H2 4534   6.023   4.582   4.369 -1.3459 -2.0084 -0.1161
 1510TIP3   OH2 4535   3.264   4.538   4.672 -0.6770 -0.1816  0.1715
 1510TIP3    H1 4536   3.284   4.562   4.763 -1.2216  0.7694  0.0453
 1510TIP3    H2 4537   3.179   4.578   4.655 -0.4775 -0.1803 -0.8383
 1511TIP3   OH2 4538   3.828   3.379   3.432 -0.0319 -0.3571  0.0304
 1511TIP3    H1 4539   3.754   3.393   3.372 -1.5510  1.5339  2.1663
 1511TIP3    H2 4540   3.793   3.399   3.518  2.1012 -2.7930  1.6241
 1512TIP3   OH2 4541   5.765   5.336   0.505  0.0771  0.0086 -0.2911
 1512TIP3    H1 4542   5.754   5.431   0.502 -0.8017 -0.0521  0.5737
 1512TIP3    H2 4543   5.698   5.301   0.447 -0.6578 -0.1389  0.6309
 1513TIP3   OH2 4544   1.541   1.266   0.806 -0.2743 -0.3181 -0.3556
 1513TIP3    H1 4545   1.472   1.300   0.749 -0.6477  0.3091  0.4527
 1513TIP3    H2 4546   1.620   1.269   0.752  0.1209  3.6077  0.1983
 1514TIP3   OH2 4547   3.288   0.272   1.835  0.4973 -0.5626  0.3920
 1514TIP3    H1 4548   3.343   0.214   1.888  0.4491 -2.0975 -1.1276
 1514TIP3    H2 4549   3.312   0.360   1.862  2.7785 -1.2157  0.7113
 1515TIP3   OH2 4550   0.832   0.567   4.090  0.4177  0.2330  0.4494
 1515TIP3    H1 4551   0.740   0.590   4.098  0.5710  0.4066  1.9213
 1515TIP3    H2 4552   0.871   0.594   4.173  2.0153  1.1486 -0.5527
 1516TIP3   OH2 4553   4.860   0.733   1.679  0.2613  0.2516 -0.6575
 1516TIP3    H1 4554   4.954   0.745   1.664  0.4434  1.5395  1.1746
 1516TIP3    H2 4555   4.819   0.809   1.639  0.2240  0.7218  0.2343
 1517TIP3   OH2 4556   5.664   1.254   4.785  0.1345  0.5332  0.4257
 1517TIP3    H1 4557   5.756   1.265   4.764  0.1497 -0.2075  0.0519
 1517TIP3    H2 4558   5.657   1.163   4.815 -0.6494  0.2548 -0.5484
 1518TIP3   OH2 4559   5.089   3.554   4.107 -0.3129 -0.2958  0.3077
 1518TIP3    H1 4560   5.034   3.607   4.048 -0.3459 -0.9689 -0.2877
 1518TIP3    H2 4561   5.174   3.550   4.063 -0.1408 -0.2707  0.6335
 1519TIP3   OH2 4562   3.535   2.685   3.579  0.2451 -0.0085  0.0436
 1519TIP3    H1 4563   3.541   2.758   3.641  1.1084 -0.8347  0.9725
 1519TIP3    H2 4564   3.585   2.713   3.503  1.3201  0.0383  0.7490
 1520TIP3   OH2 4565   4.524   0.308   0.912 -0.2299 -0.8315 -0.1320
 1520TIP3    H1 4566   4.460   0.237   0.915 -0.1327 -0.9395 -0.5135
 1520TIP3    H2 4567   4.505   0.353   0.830 -2.5862  1.7390  1.6261
 1521TIP3   OH2 4568   3.045   4.064   1.802  0.2060 -0.2170 -0.1745
 1521TIP3    H1 4569   3.081   4.147   1.770 -0.4102  0.3057  0.4570
 1521TIP3    H2 4570   2.953   4.065   1.775  0.5590 -1.4162 -1.5285
 1522TIP3   OH2 4571   1.398   5.884   0.313  0.0872 -0.3795 -0.2947
 1522TIP3    H1 4572   1.481   5.841   0.336 -0.3658 -1.1358 -0.0324
 1522TIP3    H2 4573   1.333   5.841   0.369 -0.3743  0.7009  0.0187
 1523TIP3   OH2 4574   4.428   2.634   1.624  0.4123  0.1337  0.3340
 1523TIP3    H1 4575   4.360   2.592   1.677 -0.6604  0.4481 -0.7344
 1523TIP3    H2 4576   4.379   2.677   1.554  1.6476  1.3698  0.2012
 1524TIP3   OH2 4577   1.040   5.522   3.484 -0.1636  0.6372  0.2604
 1524TIP3    H1 4578   1.086   5.522   3.401 -0.4815 -0.4765  0.0736
 1524TIP3    H2 4579   1.094   5.467   3.542  0.8444  2.5598  1.2743
 1525TIP3   OH2 4580   1.397   0.727   1.817 -0.4910  0.1684 -0.0890
 1525TIP3    H1 4581   1.458   0.656   1.799 -0.6574  0.3801 -1.6773
 1525TIP3    H2 4582   1.403   0.742   1.911  0.3656 -1.1940  0.0887
 1526TIP3   OH2 4583   5.699   5.176   2.800 -0.0859  0.3866  0.2360
 1526TIP3    H1 4584   5.706   5.260   2.755  1.5436  0.3602  0.3577
 1526TIP3    H2 4585   5.763   5.182   2.871  1.9585 -1.8265 -1.2405
 1527TIP3   OH2 4586   2.013   3.411   3.723 -0.2193 -0.3193 -0.2391
 1527TIP3    H1 4587   2.080   3.457   3.774 -1.4658  1.3527 -0.0506
 1527TIP3    H2 4588   2.039   3.424   3.632 -0.9984  1.5775 -0.2404
 1528TIP3   OH2 4589   4.446   2.951   4.811  0.7940  0.4559  0.0504
 1528TIP3    H1 4590   4.455   2.860   4.840  0.8418  1.3255  3.0320
 1528TIP3    H2 4591   4.373   2.986   4.862  1.5315  2.4053 -0.1534
 1529TIP3   OH2 4592   4.504   4.795   4.892 -0.7251 -0.0337 -0.6453
 1529TIP3    H1 4593   4.558   4.806   4.970  0.9005  0.8202 -1.8524
 1529TIP3    H2 4594   4.551   4.731   4.838 -0.8008  0.8390 -1.7879
 1530TIP3   OH2 4595   0.545   3.669   3.590 -0.5335 -0.0279 -0.2740
 1530TIP3    H1 4596   0.491   3.677   3.511 -0.1043  0.0502 -0.5596
 1530TIP3    H2 4597   0.502   3.727   3.654 -0.6184  0.2611 -0.5922
 1531TIP3   OH2 4598   4.972   5.077   0.078  0.7729 -0.1431  0.1574
 1531TIP3    H1 4599   5.060   5.046   0.100  0.5015 -0.7997  0.3324
 1531TIP3    H2 4600   4.974   5.089  -0.017  1.2688  0.5480  0.2510
 1532TIP3   OH2 4601   3.043   0.400   2.405  0.4164 -0.1178  0.6317
 1532TIP3    H1 4602   3.046   0.397   2.310 -0.7649 -3.2512  0.5754
 1532TIP3    H2 4603   3.020   0.490   2.426 -0.7211  0.3240 -2.1317
 1533TIP3   OH2 4604   1.188   5.270   1.603 -0.3689 -0.0313 -0.3353
 1533TIP3    H1 4605   1.152   5.222   1.529  0.0734  1.2268 -1.4152
 1533TIP3    H2 4606   1.267   5.222   1.628 -0.2647 -0.2136 -0.9981
 1534TIP3   OH2 4607   3.491   4.781   1.982  0.0862  0.0016 -0.6864
 1534TIP3    H1 4608   3.504   4.853   1.921 -0.3786 -1.5595 -2.7403
 1534TIP3    H2 4609   3.460   4.823   2.063  0.0811  2.0984 -1.7119
 1535TIP3   OH2 4610   1.764   3.571   3.612 -0.5662 -0.6741  0.1666
 1535TIP3    H1 4611   1.765   3.663   3.587 -0.6524 -0.5502  0.6059
 1535TIP3    H2 4612   1.817   3.567   3.692  0.0022 -1.1185 -0.2195
 1536TIP3   OH2 4613   3.368   3.492   2.972  0.5006  0.2604 -0.2249
 1536TIP3    H1 4614   3.454   3.480   2.933  0.3478  0.1407 -0.5355
 1536TIP3    H2 4615   3.372   3.578   3.014  0.5810  0.5189 -0.7514
 1537TIP3   OH2 4616   6.356   1.573   4.614  0.3058  0.1695  0.6811
 1537TIP3    H1 4617   6.329   1.594   4.703  0.0168  1.1666  0.3656
 1537TIP3    H2 4618   6.274   1.562   4.566  0.4632  0.0111  0.4431
 1538TIP3   OH2 4619   3.972   3.801   3.406  0.3078  0.1751 -0.0508
 1538TIP3    H1 4620   4.027   3.751   3.345  1.6104  0.6123  0.7263
 1538TIP3    H2 4621   3.958   3.741   3.480 -0.4401 -0.0019 -0.3281
 1539TIP3   OH2 4622   4.179   3.004   3.842  0.6067  0.0406 -0.2300
 1539TIP3    H1 4623   4.111   3.020   3.776  2.4107 -0.5536 -2.3446
 1539TIP3    H2 4624   4.242   3.075   3.829  1.3214 -0.4647  0.4085
 1540TIP3   OH2 4625   6.025   0.861   4.795 -0.2055 -0.0466  0.8508
 1540TIP3    H1 4626   6.108   0.907   4.778 -1.6476  2.1343 -0.8247
 1540TIP3    H2 4627   6.025   0.789   4.731  0.5649 -0.3662  1.1884
 1541TIP3   OH2 4628   2.455   2.041   3.782  0.3620 -0.2531 -0.3537
 1541TIP3    H1 4629   2.510   2.119   3.783  2.0671 -1.3962  0.1658
 1541TIP3    H2 4630   2.476   1.998   3.699 -0.7306 -0.0774 -0.7445
 1542TIP3   OH2 4631   5.117   3.787   5.018 -0.5859  0.7445 -0.7559
 1542TIP3    H1 4632   5.123   3.714   4.957  1.3092  0.2049 -0.0129
 1542TIP3    H2 4633   5.100   3.863   4.964 -0.4142  0.0595 -1.7958
 1543TIP3   OH2 4634   1.325   1.233   2.702 -0.3652  0.2687  0.1433
 1543TIP3    H1 4635   1.248   1.278   2.735  1.0817  1.9796  1.3776
 1543TIP3    H2 4636   1.383   1.302   2.670  0.1341 -1.0559 -2.0757
 1544TIP3   OH2 4637   5.606   1.923   3.243  0.1199 -0.9557  0.0023
 1544TIP3    H1 4638   5.620   1.845   3.296 -0.1639 -0.0044  1.5369
 1544TIP3    H2 4639   5.516   1.949   3.263 -0.2240 -0.9236 -1.4588
 1545TIP3   OH2 4640   1.866   3.097   1.787  0.3998 -0.4776 -0.0782
 1545TIP3    H1 4641   1.918   3.177   1.793  0.7407 -0.7013  0.0461
 1545TIP3    H2 4642   1.859   3.079   1.694  0.7330 -0.5594 -0.0903
 1546TIP3   OH2 4643   4.282   2.547   0.439  0.1385  0.0721  0.0553
 1546TIP3    H1 4644   4.220   2.571   0.508 -0.4021 -0.1445 -0.3492
 1546TIP3    H2 4645   4.241   2.472   0.395  0.6772 -0.0554 -0.2312
 1547TIP3   OH2 4646   5.419   1.304   3.655 -0.2469  0.1301 -0.5661
 1547TIP3    H1 4647   5.372   1.336   3.579  0.2545 -0.2427 -1.0362
 1547TIP3    H2 4648   5.507   1.287   3.624 -0.6833 -2.4900 -0.5558
 1548TIP3   OH2 4649   4.586   5.420   1.178  0.3114 -0.3519 -0.4502
 1548TIP3    H1 4650   4.611   5.485   1.112 -1.2906 -0.7173 -1.4738
 1548TIP3    H2 4651   4.525   5.466   1.235  0.2785 -0.5502 -0.3266
 1549TIP3   OH2 4652   4.692   0.641   3.101  0.6361  0.3130  0.1795
 1549TIP3    H1 4653   4.758   0.609   3.163 -1.0574 -1.1130  1.3328
 1549TIP3    H2 4654   4.618   0.581   3.110 -1.0144  2.0698 -0.7569
 1550TIP3   OH2 4655   3.613   2.072   2.194  0.4666  0.4933  0.2369
 1550TIP3    H1 4656   3.588   2.160   2.165 -0.0887 -0.1779 -1.4415
 1550TIP3    H2 4657   3.583   2.014   2.123  1.6108 -0.9544  0.8931
 1551TIP3   OH2 4658   2.731   3.358   2.725 -0.8634  0.2931  0.0984
 1551TIP3    H1 4659   2.691   3.287   2.774 -1.1118 -0.0612 -0.6034
 1551TIP3    H2 4660   2.805   3.386   2.778 -0.2112 -1.1095 -0.0467
 1552TIP3   OH2 4661   3.893   0.399   1.589 -0.5732 -0.0029  0.0316
 1552TIP3    H1 4662   3.885   0.393   1.493 -1.0800  0.0510  0.0678
 1552TIP3    H2 4663   3.965   0.340   1.610 -0.2438  0.2331 -0.4187
 1553TIP3   OH2 4664   5.842   1.292   1.472 -0.2981  0.6157  0.0382
 1553TIP3    H1 4665   5.806   1.322   1.556  0.4878  1.1341  0.2016
 1553TIP3    H2 4666   5.931   1.327   1.471 -0.7182  1.7290 -1.5920
 1554TIP3   OH2 4667   2.997   4.664   3.394  0.7976  0.7434 -0.0164
 1554TIP3    H1 4668   3.022   4.584   3.439 -1.1142  0.1755  0.1307
 1554TIP3    H2 4669   3.072   4.686   3.339  2.0291 -0.1584  1.2419
 1555TIP3   OH2 4670   2.067   0.395   3.671 -0.0263  0.1119 -0.3288
 1555TIP3    H1 4671   2.073   0.460   3.740 -0.5435 -0.2758  0.0862
 1555TIP3    H2 4672   2.106   0.437   3.594  2.9989 -0.3392  0.8255
 1556TIP3   OH2 4673   3.852   1.007   3.841  0.3032  0.2106 -0.7162
 1556TIP3    H1 4674   3.851   0.914   3.818 -1.8509 -0.1495  0.5207
 1556TIP3    H2 4675   3.762   1.026   3.870  0.9435  2.4154  0.0890
 1557TIP3   OH2 4676   1.557   4.720   3.224 -0.2242  0.3756 -0.1305
 1557TIP3    H1 4677   1.600   4.785   3.279  2.3050 -0.5302 -0.9008
 1557TIP3    H2 4678   1.579   4.745   3.135 -2.2065  0.4201 -0.6558
 1558TIP3   OH2 4679   3.908   3.554   1.433  0.1303  0.0897  0.0725
 1558TIP3    H1 4680   3.885   3.514   1.350  0.3314  0.0506  0.0367
 1558TIP3    H2 4681   3.834   3.533   1.491 -1.2204  2.2014 -0.7563
 1559TIP3   OH2 4682   5.706   3.837   2.868  0.1392 -0.1958 -0.1654
 1559TIP3    H1 4683   5.672   3.895   2.937 -0.6954 -0.7618 -0.0882
 1559TIP3    H2 4684   5.676   3.750   2.893  2.2851 -0.8615  0.2889
 1560TIP3   OH2 4685   2.296   4.528   2.531 -0.3847 -0.3314  0.6189
 1560TIP3    H1 4686   2.330   4.531   2.441 -0.8671 -0.8517  0.4119
 1560TIP3    H2 4687   2.362   4.478   2.579  0.2577  0.6123  0.7339
 1561TIP3   OH2 4688   2.678   1.202   1.680  0.0618  0.0542 -0.0655
 1561TIP3    H1 4689   2.684   1.110   1.657  1.1773 -0.3315  1.6161
 1561TIP3    H2 4690   2.728   1.247   1.611  0.0700 -0.6533 -0.5286
 1562TIP3   OH2 4691   0.560   0.253   2.092 -0.0043 -0.0783  0.7319
 1562TIP3    H1 4692   0.518   0.214   2.015 -1.5698  0.7300  1.1345
 1562TIP3    H2 4693   0.550   0.187   2.160  1.7918 -0.9899  0.1804
 1563TIP3   OH2 4694   2.762   5.322   0.284 -0.3891  0.3585 -0.4368
 1563TIP3    H1 4695   2.838   5.356   0.238  1.9438 -1.7914  1.5117
 1563TIP3    H2 4696   2.726   5.255   0.225  0.7876 -0.3392 -0.3942
 1564TIP3   OH2 4697   1.452   4.297   2.947 -0.1088 -0.1349 -0.3630
 1564TIP3    H1 4698   1.423   4.335   3.030  0.4493 -1.3774  0.4278
 1564TIP3    H2 4699   1.403   4.345   2.880 -0.4758  0.9690  0.6708
 1565TIP3   OH2 4700   6.071   0.535   3.735  0.4190 -0.3508  0.0299
 1565TIP3    H1 4701   6.102   0.625   3.725  0.6953 -0.4184  0.2736
 1565TIP3    H2 4702   6.013   0.538   3.812 -1.1129  0.0141 -1.0781
 1566TIP3   OH2 4703   5.362   1.760   5.141 -0.0891 -0.6386  0.0013
 1566TIP3    H1 4704   5.421   1.687   5.160  0.2840 -0.1774  0.6253
 1566TIP3    H2 4705   5.375   1.821   5.213  0.4873  0.6115 -1.1312
 1567TIP3   OH2 4706   4.842   2.617   3.666 -0.2628  0.4736  0.0698
 1567TIP3    H1 4707   4.833   2.651   3.577 -0.6146  0.9304  0.2763
 1567TIP3    H2 4708   4.802   2.530   3.663  3.7135 -1.6094 -1.3717
 1568TIP3   OH2 4709   1.124   3.768   0.273  0.2235 -0.5917 -0.1934
 1568TIP3    H1 4710   1.155   3.747   0.361 -0.2081  0.9612  0.3653
 1568TIP3    H2 4711   1.030   3.783   0.283  0.2894  0.2741 -0.7785
 1569TIP3   OH2 4712   4.160   5.407   3.730 -0.0449 -0.1997  0.2262
 1569TIP3    H1 4713   4.165   5.364   3.645 -0.0946  0.1909  0.0235
 1569TIP3    H2 4714   4.171   5.336   3.794  0.1547 -0.4699 -0.1060
 1570TIP3   OH2 4715   5.151   2.032   1.335 -0.1164  0.1706  0.2442
 1570TIP3    H1 4716   5.234   2.078   1.325 -0.0522 -0.2007 -1.2294
 1570TIP3    H2 4717   5.096   2.065   1.263 -0.4250 -1.2494 -0.2054
 1571TIP3   OH2 4718   1.971   3.836   4.882  0.1160 -0.1349 -0.0675
 1571TIP3    H1 4719   2.005   3.765   4.828  0.7029  1.0552 -1.2991
 1571TIP3    H2 4720   1.979   3.914   4.828 -1.0126  0.8070  1.0597
 1572TIP3   OH2 4721   1.917   3.470   2.232 -0.1979 -0.2966  0.0275
 1572TIP3    H1 4722   1.949   3.531   2.299 -1.8076 -0.4607  1.0018
 1572TIP3    H2 4723   1.827   3.498   2.216 -0.1835 -0.9477 -1.2931
 1573TIP3   OH2 4724   5.324   1.214   4.825 -0.6790 -0.5017 -0.0331
 1573TIP3    H1 4725   5.397   1.158   4.797  0.3053  0.3086  0.7847
 1573TIP3    H2 4726   5.247   1.176   4.784 -0.2047 -3.0001  1.2175
 1574TIP3   OH2 4727   5.540   1.165   1.831  0.1005  0.5569  0.7292
 1574TIP3    H1 4728   5.601   1.142   1.761  0.4502  0.4587  1.0634
 1574TIP3    H2 4729   5.557   1.258   1.848 -0.9305  0.9545 -0.2431
 1575TIP3   OH2 4730   0.802   3.905   0.164  0.0050 -0.5579  0.3473
 1575TIP3    H1 4731   0.718   3.886   0.206  0.6075 -0.1207  1.8212
 1575TIP3    H2 4732   0.867   3.872   0.225  0.9253 -0.5258 -0.5912
 1576TIP3   OH2 4733   2.345   3.868   2.442  0.0195 -0.0871  0.2084
 1576TIP3    H1 4734   2.381   3.953   2.418 -1.1451  0.2715 -0.3157
 1576TIP3    H2 4735   2.422   3.816   2.466  0.7526  1.0842  0.4989
 1577TIP3   OH2 4736   4.078   0.653   4.634 -0.2397 -0.1415 -0.1429
 1577TIP3    H1 4737   4.153   0.597   4.616 -1.3577 -2.1777  1.1776
 1577TIP3    H2 4738   4.073   0.658   4.729 -1.8810 -0.2384 -0.1946
 1578TIP3   OH2 4739   6.250   4.732   1.186  0.5000 -0.0120 -0.3522
 1578TIP3    H1 4740   6.170   4.689   1.155 -0.0166  0.5118  0.2448
 1578TIP3    H2 4741   6.320   4.679   1.149 -0.1190 -0.4694 -0.9020
 1579TIP3   OH2 4742   5.479   0.582   3.098 -0.2951 -0.2520  0.4554
 1579TIP3    H1 4743   5.455   0.672   3.119  2.4837  0.5839  0.4013
 1579TIP3    H2 4744   5.406   0.550   3.045 -0.8353  2.3602 -0.5493
 1580TIP3   OH2 4745   5.468   1.686   2.104 -0.0366  0.2540 -0.1146
 1580TIP3    H1 4746   5.466   1.618   2.172  0.9107  0.7640  0.4360
 1580TIP3    H2 4747   5.380   1.683   2.065  0.1956 -1.8042 -0.6369
 1581TIP3   OH2 4748   4.769   1.359   2.082  0.5065 -0.4216 -0.3006
 1581TIP3    H1 4749   4.839   1.419   2.107 -0.3611  1.2194 -1.6502
 1581TIP3    H2 4750   4.780   1.347   1.988 -0.9527 -0.2224 -0.5178
 1582TIP3   OH2 4751   2.251   5.776   0.230  0.2065  0.1793  0.1775
 1582TIP3    H1 4752   2.156   5.773   0.236  0.3047 -0.3688  1.7018
 1582TIP3    H2 4753   2.274   5.862   0.265  0.3506 -0.2122  1.0509
 1583TIP3   OH2 4754   2.389   5.678   1.345  0.4387 -0.5729 -0.8654
 1583TIP3    H1 4755   2.308   5.655   1.390  0.2027  1.7549  0.0353
 1583TIP3    H2 4756   2.436   5.595   1.335 -1.5258 -1.7968 -0.3852
 1584TIP3   OH2 4757   0.513   5.602   2.309  0.3856  0.8314 -0.6398
 1584TIP3    H1 4758   0.430   5.648   2.316  0.0387  0.3635 -1.5018
 1584TIP3    H2 4759   0.520   5.577   2.217  1.8489  1.5159 -0.7489
 1585TIP3   OH2 4760   5.708   2.008   1.062 -0.0445  0.2789  0.0551
 1585TIP3    H1 4761   5.702   1.923   1.105 -1.8354  0.4184  0.1505
 1585TIP3    H2 4762   5.632   2.011   1.004  0.0832  1.7536 -0.0732
 1586TIP3   OH2 4763   5.295   5.146   4.252 -0.1384  0.1744 -0.0378
 1586TIP3    H1 4764   5.257   5.103   4.329 -0.3410  0.4080 -0.0058
 1586TIP3    H2 4765   5.253   5.232   4.250  1.2324  0.8886  0.6679
 1587TIP3   OH2 4766   4.705   4.442   0.417 -0.2594  0.3968  0.2897
 1587TIP3    H1 4767   4.694   4.386   0.340  0.1324 -1.3782  1.4691
 1587TIP3    H2 4768   4.740   4.524   0.382 -1.1400  0.0511 -1.5351
 1588TIP3   OH2 4769   3.459   1.850   2.720 -0.2093 -0.0424  0.2127
 1588TIP3    H1 4770   3.368   1.823   2.713 -0.7053  1.1478  1.6339
 1588TIP3    H2 4771   3.486   1.867   2.629 -2.1621  1.8940 -0.1022
 1589TIP3   OH2 4772   2.630   2.245   4.801  0.1238  0.5335 -0.4784
 1589TIP3    H1 4773   2.640   2.338   4.784 -1.2543  0.8482  0.2918
 1589TIP3    H2 4774   2.564   2.240   4.869  1.1513 -0.9577  0.4639
 1590TIP3   OH2 4775   5.732   5.024   4.456 -0.0882  0.1109 -0.0967
 1590TIP3    H1 4776   5.739   4.949   4.515  1.0557  0.5595  0.3736
 1590TIP3    H2 4777   5.671   4.996   4.388 -0.1124 -1.0327  0.3774
 1591TIP3   OH2 4778   0.551   5.261   3.300  0.1948  0.4451  0.0859
 1591TIP3    H1 4779   0.645   5.278   3.298  0.3501 -0.2700  0.8502
 1591TIP3    H2 4780   0.513   5.334   3.349  0.2460  1.1544 -0.9115
 1592TIP3   OH2 4781   0.399   0.516   2.089 -0.0893  0.2038  0.0497
 1592TIP3    H1 4782   0.462   0.450   2.118 -0.6795 -0.4010  0.0022
 1592TIP3    H2 4783   0.314   0.473   2.099 -0.5953  1.3892  1.2086
 1593TIP3   OH2 4784   0.794   3.110   4.238 -0.1802  0.0717 -0.5197
 1593TIP3    H1 4785   0.853   3.128   4.165 -1.1620  0.3520 -1.2626
 1593TIP3    H2 4786   0.761   3.196   4.265 -0.4841 -0.1077 -0.3123
 1594TIP3   OH2 4787   1.755   5.062   2.137  0.1703  0.3466 -0.2839
 1594TIP3    H1 4788   1.747   5.148   2.178  1.1890  0.6752 -0.7405
 1594TIP3    H2 4789   1.836   5.067   2.086  0.2784 -0.9048 -0.2697
 1595TIP3   OH2 4790   2.935   3.782   3.232 -0.0602 -0.1328  0.1306
 1595TIP3    H1 4791   2.849   3.819   3.213 -0.9183 -1.8762  0.3340
 1595TIP3    H2 4792   2.937   3.775   3.328  0.2802 -0.1476  0.1219
 1596TIP3   OH2 4793   2.473   5.756   3.253  0.2448  0.1000 -0.3464
 1596TIP3    H1 4794   2.540   5.689   3.246  0.1794  0.0846 -0.8733
 1596TIP3    H2 4795   2.503   5.814   3.323 -0.0245 -0.8398  0.5572
 1597TIP3   OH2 4796   4.195   4.545   1.464 -0.2733  0.4105 -0.5325
 1597TIP3    H1 4797   4.133   4.525   1.394 -0.8809  1.8657 -0.4429
 1597TIP3    H2 4798   4.182   4.475   1.528 -2.0729  0.8530 -0.3663
 1598TIP3   OH2 4799   4.776   5.905   0.603  0.1282  0.5178  0.4603
 1598TIP3    H1 4800   4.784   5.890   0.509 -1.1740 -0.7898  0.5176
 1598TIP3    H2 4801   4.842   5.847   0.642  0.1663  0.5047  0.3759
 1599TIP3   OH2 4802   3.265   4.379   0.547 -0.0710  0.1382 -0.2397
 1599TIP3    H1 4803   3.270   4.462   0.501  1.7999 -0.3349 -0.9675
 1599TIP3    H2 4804   3.283   4.313   0.480 -0.6797 -0.8035  0.4949
 1600TIP3   OH2 4805   2.985   3.781   4.192 -0.6449 -0.1299  0.2321
 1600TIP3    H1 4806   2.914   3.829   4.151 -2.2321 -1.8071  0.8579
 1600TIP3    H2 4807   3.050   3.770   4.122 -0.7949  1.7425 -0.2474
 1601TIP3   OH2 4808   5.933   2.715   1.197  0.2997 -0.4837 -0.4688
 1601TIP3    H1 4809   5.968   2.727   1.285 -0.1052 -0.8563 -0.2541
 1601TIP3    H2 4810   6.003   2.671   1.149  0.1226 -1.2466 -0.0353
 1602TIP3   OH2 4811   3.785   5.186   2.501 -0.4582  0.0146  0.1120
 1602TIP3    H1 4812   3.792   5.095   2.530 -0.6915  0.1552  0.6144
 1602TIP3    H2 4813   3.719   5.225   2.559 -0.2911  0.5271 -0.0398
 1603TIP3   OH2 4814   1.887   2.785   1.921  0.0456 -0.2938  0.0842
 1603TIP3    H1 4815   1.952   2.850   1.948 -0.6075 -0.2308  1.5993
 1603TIP3    H2 4816   1.935   2.727   1.862  0.9451  0.8694 -0.3815
 1604TIP3   OH2 4817   0.791   1.198   4.221  0.4028  0.4415  0.3062
 1604TIP3    H1 4818   0.823   1.287   4.207  0.8110  0.2370 -0.0683
 1604TIP3    H2 4819   0.788   1.188   4.317  3.0406 -0.0933  0.3953
 1605TIP3   OH2 4820   5.194   1.148   4.293 -0.5064 -0.1775  0.2385
 1605TIP3    H1 4821   5.183   1.237   4.260 -2.0211 -0.4108  0.0521
 1605TIP3    H2 4822   5.112   1.104   4.271 -0.4193 -1.1624  1.7597
 1606TIP3   OH2 4823   5.063   4.073   3.474  0.5810  0.4282  0.2508
 1606TIP3    H1 4824   5.122   4.091   3.548  0.5183  1.8339 -0.0304
 1606TIP3    H2 4825   4.987   4.128   3.489  0.0160 -0.1978 -0.2349
 1607TIP3   OH2 4826   4.599   4.316   0.882  0.3630  0.1742  0.3320
 1607TIP3    H1 4827   4.585   4.318   0.787 -0.6546  0.0521  0.4713
 1607TIP3    H2 4828   4.688   4.281   0.892  1.0406  1.5299 -0.6131
 1608TIP3   OH2 4829   5.803   1.712   2.559  0.1094  0.5679 -0.7708
 1608TIP3    H1 4830   5.854   1.697   2.639  0.1666 -0.0529 -0.9169
 1608TIP3    H2 4831   5.787   1.624   2.524 -2.2033  0.6300 -0.0275
 1609TIP3   OH2 4832   2.414   3.699   3.270 -0.8666 -0.4245 -0.2219
 1609TIP3    H1 4833   2.403   3.747   3.188  1.5405  1.8337  0.6425
 1609TIP3    H2 4834   2.461   3.619   3.245 -2.2231 -0.9029 -1.3067
 1610TIP3   OH2 4835   0.595   0.064   2.796 -0.2902 -0.6737 -0.7749
 1610TIP3    H1 4836   0.521   0.008   2.771 -0.3703 -1.6666  1.4973
 1610TIP3    H2 4837   0.564   0.111   2.873  0.8532  0.2903 -0.8808
 1611TIP3   OH2 4838   3.957   3.229   2.255 -0.0147 -0.0835 -0.3842
 1611TIP3    H1 4839   3.918   3.168   2.317 -0.8446  0.5574 -0.2533
 1611TIP3    H2 4840   3.898   3.305   2.256  0.9555  0.6893 -0.5887
 1612TIP3   OH2 4841   2.486   3.018   2.181  0.5015 -0.1172  0.3853
 1612TIP3    H1 4842   2.544   2.992   2.109  1.8350  1.0012  0.9859
 1612TIP3    H2 4843   2.410   3.057   2.138  1.1364  0.2557 -0.4325
 1613TIP3   OH2 4844   4.719   0.919   3.745  0.0769  0.4823 -0.5221
 1613TIP3    H1 4845   4.796   0.887   3.698 -1.3753 -1.7174 -1.5781
 1613TIP3    H2 4846   4.702   1.006   3.708  0.6842 -0.0029 -2.0142
 1614TIP3   OH2 4847   2.646   1.299   4.468 -0.5046  0.1095  0.0920
 1614TIP3    H1 4848   2.728   1.318   4.512  0.2327  1.1932 -1.6207
 1614TIP3    H2 4849   2.584   1.280   4.539  0.7646  1.0697  1.5204
 1615TIP3   OH2 4850   3.746   5.431   3.201 -0.2079 -0.2989 -0.3287
 1615TIP3    H1 4851   3.804   5.384   3.141  2.8518  1.2130  1.2065
 1615TIP3    H2 4852   3.741   5.375   3.278  1.8135  0.8503  0.7172
 1616TIP3   OH2 4853   1.654   2.984   2.467 -0.7566 -0.5029 -0.0203
 1616TIP3    H1 4854   1.622   2.985   2.377 -1.1513 -0.4645  0.1168
 1616TIP3    H2 4855   1.584   2.941   2.516 -1.1461  0.6882  0.4897
 1617TIP3   OH2 4856   3.114   3.670   2.028  0.2493  0.4632 -0.2944
 1617TIP3    H1 4857   3.077   3.642   1.944  0.8235 -0.7606 -0.1546
 1617TIP3    H2 4858   3.198   3.710   2.006 -0.0876  1.1534 -0.3855
 1618TIP3   OH2 4859   3.947   3.065   1.956  0.4378  0.1093  0.2789
 1618TIP3    H1 4860   4.005   3.054   1.881  1.2365 -0.7785  1.0048
 1618TIP3    H2 4861   3.945   2.979   1.998 -0.5277  0.4169  0.9002
 1619TIP3   OH2 4862   4.372   2.894   0.060 -0.4659  0.2776  0.0951
 1619TIP3    H1 4863   4.336   2.844  -0.014 -2.1213 -1.5602  2.0028
 1619TIP3    H2 4864   4.467   2.884   0.052 -0.6839 -1.6295 -0.6839
 1620TIP3   OH2 4865   5.485   2.292   5.098 -0.3045  0.0716 -0.7545
 1620TIP3    H1 4866   5.449   2.228   5.036  0.4746  0.2123 -1.3667
 1620TIP3    H2 4867   5.456   2.261   5.183 -1.9884  0.2650 -1.2245
 1621TIP3   OH2 4868   1.665   1.086   0.405  0.5705 -0.2207 -0.1745
 1621TIP3    H1 4869   1.725   1.058   0.336  0.7281 -3.0674  1.0028
 1621TIP3    H2 4870   1.590   1.123   0.358  2.0058  0.8922 -1.7282
 1622TIP3   OH2 4871   0.442   4.356   2.776  0.2203  0.1998  0.1966
 1622TIP3    H1 4872   0.399   4.288   2.724  1.6015 -0.7453  0.2456
 1622TIP3    H2 4873   0.371   4.417   2.799 -0.6730 -0.0548 -1.6641
 1623TIP3   OH2 4874   5.683   0.568   2.601 -0.0219  0.4136  0.2284
 1623TIP3    H1 4875   5.599   0.595   2.563  0.1818  0.1887 -0.3997
 1623TIP3    H2 4876   5.671   0.575   2.695 -0.3297  1.6523  0.1156
 1624TIP3   OH2 4877   3.610   3.905   3.664  0.3314  0.3853  0.2551
 1624TIP3    H1 4878   3.618   3.834   3.727 -1.1971 -0.6575 -0.6684
 1624TIP3    H2 4879   3.699   3.940   3.655  0.7239 -0.0163  2.2898
 1625TIP3   OH2 4880   4.612   3.356   1.144  0.2512 -0.2429  0.3457
 1625TIP3    H1 4881   4.588   3.430   1.200  0.4478  0.6295 -0.6748
 1625TIP3    H2 4882   4.541   3.293   1.155 -0.0470  0.2126  1.0498
 1626TIP3   OH2 4883   1.055   5.956   0.805  0.7639  0.0381  0.1951
 1626TIP3    H1 4884   1.025   5.948   0.714 -1.5120  0.9261  0.7804
 1626TIP3    H2 4885   1.057   5.867   0.838  0.1998 -0.1794 -0.3358
 1627TIP3   OH2 4886   1.438   1.231   3.917 -0.2120 -0.3249  0.8505
 1627TIP3    H1 4887   1.391   1.306   3.881  0.7508  0.4485  1.1373
 1627TIP3    H2 4888   1.475   1.186   3.841 -1.3759 -0.9326  0.6274
 1628TIP3   OH2 4889   6.050   1.349   5.182 -0.2942 -0.0834 -0.4816
 1628TIP3    H1 4890   6.085   1.260   5.174 -0.9746 -0.2882 -1.2209
 1628TIP3    H2 4891   6.094   1.399   5.113 -0.7264 -0.1103 -0.7800
 1629TIP3   OH2 4892   1.427   0.633   4.002  0.1951  0.0135  0.3662
 1629TIP3    H1 4893   1.390   0.694   3.939 -0.4223 -0.9758 -0.2672
 1629TIP3    H2 4894   1.487   0.685   4.055  0.6396  0.8916 -0.9708
 1630TIP3   OH2 4895   2.307   3.105   4.446 -0.1916 -0.2665  0.0492
 1630TIP3    H1 4896   2.336   3.031   4.392  0.5473  0.8717 -1.1893
 1630TIP3    H2 4897   2.215   3.117   4.422 -0.9498 -2.0349  1.7996
 1631TIP3   OH2 4898   1.389   1.710   4.678  0.4963 -0.2987 -0.1739
 1631TIP3    H1 4899   1.346   1.627   4.699  0.7774 -1.2324 -2.8200
 1631TIP3    H2 4900   1.482   1.687   4.672  0.7275  0.4946  0.2824
 1632TIP3   OH2 4901   0.831   1.729   4.143 -0.3648  0.4160  0.3007
 1632TIP3    H1 4902   0.759   1.785   4.117  1.2015  0.9169 -3.5364
 1632TIP3    H2 4903   0.910   1.775   4.114  1.1763 -2.3175 -0.2447
 1633TIP3   OH2 4904   0.634   4.247   2.925 -0.8012  0.0015 -0.2802
 1633TIP3    H1 4905   0.726   4.256   2.901 -0.6868 -2.1455 -0.8739
 1633TIP3    H2 4906   0.587   4.297   2.859 -0.0479  3.5533  1.6156
 1634TIP3   OH2 4907   5.209   1.457   4.890 -0.0714 -0.2717 -0.0490
 1634TIP3    H1 4908   5.260   1.378   4.869 -1.2742 -1.1157  0.1060
 1634TIP3    H2 4909   5.183   1.492   4.805 -0.1523 -0.4653 -0.1054
 1635TIP3   OH2 4910   5.656   3.165   4.689 -0.1495  0.6468  0.6351
 1635TIP3    H1 4911   5.734   3.182   4.741  2.7498 -3.4350 -1.8101
 1635TIP3    H2 4912   5.624   3.081   4.719 -3.1159  1.7079  0.8054
 1636TIP3   OH2 4913   4.146   3.849   3.185  0.3782 -0.1733  0.1705
 1636TIP3    H1 4914   4.225   3.826   3.136  0.1335 -0.0742 -0.2758
 1636TIP3    H2 4915   4.098   3.909   3.127 -1.0925 -1.9209 -0.5056
 1637TIP3   OH2 4916   0.075   4.944   3.149 -0.1714  0.2624  0.7665
 1637TIP3    H1 4917   0.016   4.929   3.223 -1.9432 -1.0434 -0.8075
 1637TIP3    H2 4918   0.099   4.856   3.119  1.4005  0.7685  0.4401
 1638TIP3   OH2 4919   5.675   3.767   3.783 -0.2092  0.6775 -0.0461
 1638TIP3    H1 4920   5.767   3.755   3.808 -0.6145  0.1925  1.2640
 1638TIP3    H2 4921   5.636   3.815   3.857 -1.0939  0.5609 -0.4257
 1639TIP3   OH2 4922   1.099   4.254   1.413  0.1068 -0.5583  0.6600
 1639TIP3    H1 4923   1.137   4.177   1.456  2.8060  0.0911 -0.3397
 1639TIP3    H2 4924   1.142   4.257   1.327 -2.5659  0.1124 -0.7530
 1640TIP3   OH2 4925   3.293   2.076   3.956 -0.9835  0.3138 -0.0838
 1640TIP3    H1 4926   3.222   2.116   3.906 -1.4362  1.5995  1.5056
 1640TIP3    H2 4927   3.277   2.102   4.047  0.5847 -0.7733  0.5622
 1641TIP3   OH2 4928   2.049   1.833   4.064  0.1339 -0.7131 -0.4508
 1641TIP3    H1 4929   1.997   1.867   4.137 -0.4741 -1.1464 -0.6844
 1641TIP3    H2 4930   2.136   1.872   4.078 -0.7719  1.7941 -1.2730
 1642TIP3   OH2 4931   0.951   3.747   2.016  0.2425  0.6819 -0.6708
 1642TIP3    H1 4932   0.959   3.698   2.099 -0.1765  1.4905 -0.1388
 1642TIP3    H2 4933   0.858   3.739   1.994  0.5921 -0.6326 -1.7683
 1643TIP3   OH2 4934   5.835   1.851   3.004  0.0207 -0.4229  0.8588
 1643TIP3    H1 4935   5.784   1.890   3.076  2.3717  1.4543  1.6739
 1643TIP3    H2 4936   5.891   1.787   3.047  2.1981  1.4520  1.0040
 1644TIP3   OH2 4937   2.774   0.641   3.837 -0.1402 -0.1163 -0.3343
 1644TIP3    H1 4938   2.819   0.660   3.919  0.8944 -1.0973 -0.6524
 1644TIP3    H2 4939   2.696   0.697   3.839 -0.4463 -0.5541  1.5629
 1645TIP3   OH2 4940   1.387   4.592   4.577 -0.1256  1.0361 -0.5634
 1645TIP3    H1 4941   1.397   4.680   4.538  0.9723  1.9088  1.5194
 1645TIP3    H2 4942   1.461   4.584   4.636 -0.8004 -0.9087  0.0876
 1646TIP3   OH2 4943   3.807   5.536   4.486 -0.0745 -0.1323  0.3943
 1646TIP3    H1 4944   3.799   5.581   4.571 -0.4483  0.9188 -0.1711
 1646TIP3    H2 4945   3.817   5.607   4.423  2.6854 -0.9713 -0.2236
 1647TIP3   OH2 4946   0.205   3.621   0.419 -0.4089 -0.0677  0.0903
 1647TIP3    H1 4947   0.121   3.581   0.398 -0.0923 -0.3735 -0.6588
 1647TIP3    H2 4948   0.184   3.697   0.473 -1.1683 -0.0775 -0.1898
 1648TIP3   OH2 4949   0.891   4.789   3.056 -0.1747 -0.0800 -0.0315
 1648TIP3    H1 4950   0.925   4.701   3.074  3.1915  1.0142 -0.2452
 1648TIP3    H2 4951   0.916   4.840   3.133 -1.3473  0.8740 -0.2668
 1649TIP3   OH2 4952   5.257   3.495   3.712 -0.1120 -0.1533 -0.1968
 1649TIP3    H1 4953   5.243   3.404   3.685 -0.2219 -0.0426 -0.5167
 1649TIP3    H2 4954   5.350   3.510   3.698  0.3893 -0.8923  1.9382
 1650TIP3   OH2 4955   3.262   3.596   3.646  0.1029  0.4893  0.6117
 1650TIP3    H1 4956   3.262   3.674   3.702 -1.1632  1.2250 -0.3349
 1650TIP3    H2 4957   3.171   3.567   3.646  0.1462  0.2694 -0.6953
 1651TIP3   OH2 4958   4.799   1.389   1.761 -0.4477 -0.0721  0.4727
 1651TIP3    H1 4959   4.755   1.419   1.681  1.7865  1.1930 -0.3874
 1651TIP3    H2 4960   4.833   1.302   1.739  2.8430  1.4413 -1.2679
 1652TIP3   OH2 4961   2.376   1.684   1.247  0.2241 -0.2094 -0.3366
 1652TIP3    H1 4962   2.380   1.614   1.311  0.7216 -0.2126 -0.3668
 1652TIP3    H2 4963   2.380   1.765   1.299  1.8975 -0.2059 -0.4109
 1653TIP3   OH2 4964   1.758   5.470   1.392  0.2578 -0.2726  0.0023
 1653TIP3    H1 4965   1.770   5.465   1.487  1.0586 -1.0463 -0.1181
 1653TIP3    H2 4966   1.664   5.485   1.380  0.2845  0.7185  0.9243
 1654TIP3   OH2 4967   4.722   0.200   1.063 -0.0909 -0.1225  0.4049
 1654TIP3    H1 4968   4.711   0.213   0.969 -1.0952 -0.6510  0.4328
 1654TIP3    H2 4969   4.688   0.280   1.103 -3.7158 -1.4871  0.4612
 1655TIP3   OH2 4970   0.305   4.777   0.891 -0.1021  0.7399  0.1067
 1655TIP3    H1 4971   0.263   4.794   0.807  0.5505 -1.6031 -0.7739
 1655TIP3    H2 4972   0.233   4.748   0.948 -0.3339  0.9646 -0.0690
 1656TIP3   OH2 4973   3.070   1.365   1.146 -0.1411  0.7306 -0.2946
 1656TIP3    H1 4974   2.993   1.422   1.149  0.6007  1.8146 -0.8525
 1656TIP3    H2 4975   3.119   1.395   1.069  1.6456  1.1435  0.9260
 1657TIP3   OH2 4976   0.880   3.095   0.746  0.1797 -0.0313 -0.1522
 1657TIP3    H1 4977   0.789   3.085   0.717  0.3596 -0.4589 -0.5906
 1657TIP3    H2 4978   0.913   3.005   0.752  0.5689  0.1214  0.0240
 1658TIP3   OH2 4979   2.743   5.232   1.443  1.0114  0.4037 -0.0812
 1658TIP3    H1 4980   2.677   5.298   1.427  1.7963  0.6368 -2.8196
 1658TIP3    H2 4981   2.707   5.178   1.514 -2.0850  0.5317 -1.4115
 1659TIP3   OH2 4982   3.302   2.978   2.239  0.1667  0.2231  0.2324
 1659TIP3    H1 4983   3.247   3.024   2.176  0.3488 -1.2028 -1.0345
 1659TIP3    H2 4984   3.389   2.976   2.198  0.2705 -0.7965  0.4857
 1660TIP3   OH2 4985   4.361   5.376   2.345  0.5939 -0.3484  0.3699
 1660TIP3    H1 4986   4.389   5.426   2.268  0.8934 -1.2061 -0.0886
 1660TIP3    H2 4987   4.366   5.439   2.417  1.9864  0.0262 -0.0088
 1661TIP3   OH2 4988   3.045   1.043   1.425  0.7705 -0.0916 -0.4446
 1661TIP3    H1 4989   3.033   1.126   1.472 -1.7165 -0.5237 -0.1965
 1661TIP3    H2 4990   3.115   0.998   1.472 -1.3685 -0.3637  2.7452
 1662TIP3   OH2 4991   5.152   1.862   3.352 -0.0764  0.0226  0.2302
 1662TIP3    H1 4992   5.144   1.888   3.444  0.4731 -1.0920  0.6127
 1662TIP3    H2 4993   5.128   1.769   3.352  2.0104 -0.5662 -0.3630
 1663TIP3   OH2 4994   2.426   0.051   4.655  0.0249  0.0200  0.7799
 1663TIP3    H1 4995   2.333   0.028   4.649  0.0745  0.1332 -1.0289
 1663TIP3    H2 4996   2.465  -0.024   4.701 -0.6662 -0.9925 -0.2102
 1664TIP3   OH2 4997   5.579   2.444   1.776  0.2816  0.3163 -0.6230
 1664TIP3    H1 4998   5.654   2.400   1.736  0.1693 -0.0353 -0.4499
 1664TIP3    H2 4999   5.503   2.410   1.728  0.1080 -0.4245  0.1478
 1665TIP3   OH2 5000   4.037   0.181   2.902  0.3837  0.0461  0.0056
 1665TIP3    H1 5001   4.029   0.128   2.823 -0.7319 -0.5580  0.5098
 1665TIP3    H2 5002   3.978   0.140   2.965  2.5000 -0.5038  1.7352
 1666TIP3   OH2 5003   2.745   2.955   1.356 -0.2079  0.2342  0.0259
 1666TIP3    H1 5004   2.701   3.038   1.373 -1.3550 -0.2731 -0.4134
 1666TIP3    H2 5005   2.836   2.980   1.337  0.2247  1.1574  2.7460
 1667TIP3   OH2 5006   5.708   4.873   3.844  0.0342 -0.5327 -0.4060
 1667TIP3    H1 5007   5.638   4.884   3.780 -0.7501  0.2414  0.5622
 1667TIP3    H2 5008   5.783   4.918   3.805 -0.6763  0.6780 -0.4271
 1668TIP3   OH2 5009   2.510   5.277   4.256 -0.1457  0.5855  0.0896
 1668TIP3    H1 5010   2.509   5.370   4.231  0.7003  0.5778  0.0062
 1668TIP3    H2 5011   2.444   5.271   4.325 -1.4692  0.8992 -1.0897
 1669TIP3   OH2 5012   0.433   3.004   2.017 -0.1245  0.1679  0.3396
 1669TIP3    H1 5013   0.509   2.999   2.075  0.2317  1.0171 -0.0479
 1669TIP3    H2 5014   0.358   3.008   2.077  0.0225 -1.8705  0.7239
 1670TIP3   OH2 5015   5.516   1.305   5.030 -0.4729  0.4668 -0.7531
 1670TIP3    H1 5016   5.569   1.272   4.957  0.7956  0.4415  0.1458
 1670TIP3    H2 5017   5.430   1.267   5.015  0.0615 -0.4709 -1.6209
 1671TIP3   OH2 5018   4.722   2.107   3.635  0.0144 -0.2709  0.1426
 1671TIP3    H1 5019   4.780   2.055   3.690  0.7030 -0.1510 -0.4442
 1671TIP3    H2 5020   4.738   2.075   3.546 -0.4354  0.1242 -0.0867
 1672TIP3   OH2 5021   3.185   1.968   2.029  0.4396  0.2961  0.4966
 1672TIP3    H1 5022   3.197   1.901   1.962 -0.6730  0.3026  0.2589
 1672TIP3    H2 5023   3.227   1.933   2.107  0.3082 -0.4598  0.2340
 1673TIP3   OH2 5024   2.051   4.147   4.146  0.0487 -0.2062  0.0087
 1673TIP3    H1 5025   2.041   4.155   4.241  1.9923 -0.2950  0.2749
 1673TIP3    H2 5026   2.137   4.187   4.129 -0.9854  1.3219 -1.9363
 1674TIP3   OH2 5027   4.740   0.881   1.930  0.2147 -0.0592 -0.5884
 1674TIP3    H1 5028   4.650   0.896   1.961  0.6263 -0.4409  0.8737
 1674TIP3    H2 5029   4.729   0.847   1.841 -1.0793  0.1398 -0.5241
 1675TIP3   OH2 5030   2.557   3.996   3.023 -0.0649  0.0929  0.5902
 1675TIP3    H1 5031   2.516   3.910   3.015  0.5332 -0.3723  2.0514
 1675TIP3    H2 5032   2.539   4.040   2.940 -0.4545 -1.4140 -0.1547
 1676TIP3   OH2 5033   2.672   0.886   3.991 -0.0333  0.1665  0.5996
 1676TIP3    H1 5034   2.587   0.878   4.033 -0.5731  0.1579 -0.4755
 1676TIP3    H2 5035   2.734   0.851   4.055 -0.9517 -0.7999  0.9750
 1677TIP3   OH2 5036   5.301   4.153   1.145 -0.5934 -0.2109  0.3997
 1677TIP3    H1 5037   5.337   4.205   1.074  0.6990 -2.5043 -0.7464
 1677TIP3    H2 5038   5.220   4.198   1.170 -0.0483  1.7346 -1.1521
 1678TIP3   OH2 5039   3.354   1.885   0.789  0.0117 -0.1217  0.3422
 1678TIP3    H1 5040   3.381   1.802   0.749 -1.9029  0.1604 -1.7323
 1678TIP3    H2 5041   3.262   1.871   0.813  0.4743  0.4843  2.7329
 1679TIP3   OH2 5042   1.652   2.287   0.386 -0.2033  0.5649 -0.1496
 1679TIP3    H1 5043   1.742   2.272   0.417 -0.8465 -0.6822  1.2944
 1679TIP3    H2 5044   1.614   2.199   0.383 -2.0156  1.2353  1.4313
 1680TIP3   OH2 5045   4.358   2.282   1.127  0.1572 -0.4568  0.0858
 1680TIP3    H1 5046   4.344   2.188   1.140  1.5723 -0.5120  1.6381
 1680TIP3    H2 5047   4.346   2.320   1.214  1.0712  0.5702 -0.2121
 1681TIP3   OH2 5048   0.915   4.530   1.057  0.2405 -0.5418 -0.3377
 1681TIP3    H1 5049   0.888   4.541   0.967 -1.0964 -0.4610  0.0593
 1681TIP3    H2 5050   1.010   4.520   1.052  0.6824  3.0251 -1.4324
 1682TIP3   OH2 5051   0.676   4.231   1.286  0.1509 -0.5826  0.1104
 1682TIP3    H1 5052   0.683   4.166   1.217  0.5113 -0.6702  0.2284
 1682TIP3    H2 5053   0.669   4.315   1.240  1.0114 -0.5799 -0.0318
 1683TIP3   OH2 5054   0.896   2.805   4.816  0.2453 -0.0214 -0.0366
 1683TIP3    H1 5055   0.916   2.753   4.738  0.1893  2.2328 -1.6723
 1683TIP3    H2 5056   0.819   2.763   4.854  0.8490 -1.7529 -0.6184
 1684TIP3   OH2 5057   4.355   4.136   0.794  0.3204  0.0518  0.5583
 1684TIP3    H1 5058   4.339   4.162   0.703 -2.6465 -1.7168  0.4499
 1684TIP3    H2 5059   4.442   4.169   0.813  0.0860  2.6306 -2.1216
 1685TIP3   OH2 5060   2.876   2.804   4.186 -0.1471 -0.4422 -0.2761
 1685TIP3    H1 5061   2.965   2.770   4.181  0.0980  0.2085 -0.4265
 1685TIP3    H2 5062   2.886   2.894   4.216 -0.7994 -0.5444  0.2780
 1686TIP3   OH2 5063   3.779   3.908   3.965  0.3177  0.3927 -0.0419
 1686TIP3    H1 5064   3.713   3.972   3.989  0.6260  1.1699 -1.2049
 1686TIP3    H2 5065   3.729   3.832   3.934 -0.0342  0.2802  0.7668
 1687TIP3   OH2 5066   5.756   2.660   4.466  0.2257 -0.3010 -0.8262
 1687TIP3    H1 5067   5.667   2.667   4.432 -0.0325  1.3521  0.1053
 1687TIP3    H2 5068   5.745   2.633   4.557  0.4709  2.3799  0.0817
 1688TIP3   OH2 5069   4.473   1.394   0.911  0.1445 -0.1609 -0.2618
 1688TIP3    H1 5070   4.398   1.341   0.937  0.8979 -1.6546 -0.9957
 1688TIP3    H2 5071   4.549   1.339   0.930  0.9586  0.6609 -1.0384
 1689TIP3   OH2 5072   3.778   5.132   0.055  0.0054  0.1963  0.3211
 1689TIP3    H1 5073   3.730   5.209   0.087 -0.9824 -0.7967  1.2922
 1689TIP3    H2 5074   3.781   5.143  -0.040  1.0193  2.0794  0.5057
 1690TIP3   OH2 5075   4.818   2.950   4.886  0.0231 -0.1952  0.3026
 1690TIP3    H1 5076   4.793   2.885   4.821  0.8809 -1.7955  1.4714
 1690TIP3    H2 5077   4.736   2.991   4.913 -0.9544 -2.6665  1.3848
 1691TIP3   OH2 5078   5.176   0.427   2.525 -0.3469  0.4820  0.0376
 1691TIP3    H1 5079   5.187   0.333   2.511 -0.2354  0.2838  1.2938
 1691TIP3    H2 5080   5.091   0.436   2.568  0.4094  0.7361  1.5703
 1692TIP3   OH2 5081   0.644   2.087   0.020 -0.0626  0.3191  0.6999
 1692TIP3    H1 5082   0.663   1.994   0.024  0.2513  0.3837  0.7179
 1692TIP3    H2 5083   0.678   2.123   0.102  1.3129  0.7150 -0.0126
 1693TIP3   OH2 5084   5.869   5.144   4.034 -0.0919 -0.2479  0.0462
 1693TIP3    H1 5085   5.848   5.051   4.022  2.1684 -0.7539 -0.4921
 1693TIP3    H2 5086   5.925   5.146   4.111 -0.9619  0.8362  0.6740
 1694TIP3   OH2 5087   0.915   1.770   4.455  0.0350  0.0316 -0.1678
 1694TIP3    H1 5088   1.006   1.754   4.431  0.3892 -2.2671  2.2144
 1694TIP3    H2 5089   0.871   1.687   4.440 -1.7358  1.0971 -1.2664
 1695TIP3   OH2 5090   0.352   1.525   4.995 -0.2526 -0.0403  0.4555
 1695TIP3    H1 5091   0.395   1.591   5.051 -0.8069  1.1689 -0.4929
 1695TIP3    H2 5092   0.386   1.441   5.026  1.7106  0.7853  0.6778
 1696TIP3   OH2 5093   5.808   2.435   0.733  0.4425  0.3132 -0.0666
 1696TIP3    H1 5094   5.886   2.470   0.776  0.7151  0.2933 -0.5303
 1696TIP3    H2 5095   5.791   2.352   0.777  0.4964  0.4716  0.2507
 1697TIP3   OH2 5096   5.172   5.281   4.996 -0.1028  0.3091  0.0225
 1697TIP3    H1 5097   5.120   5.276   4.915 -0.8121  0.2750  0.4755
 1697TIP3    H2 5098   5.176   5.191   5.028  1.0962  0.1410 -0.5287
 1698TIP3   OH2 5099   5.108   3.643   2.602 -0.2276 -0.0025  0.0727
 1698TIP3    H1 5100   5.021   3.604   2.610 -1.4215  2.2922 -0.9480
 1698TIP3    H2 5101   5.131   3.632   2.509 -0.7290  1.8989 -0.3116
 1699TIP3   OH2 5102   5.160   3.582   4.833  0.1821 -0.4539  0.8345
 1699TIP3    H1 5103   5.152   3.487   4.840 -0.7459 -0.5290 -0.8391
 1699TIP3    H2 5104   5.069   3.613   4.828  0.5141  0.3534 -0.5223
 1700TIP3   OH2 5105   2.777   5.682   3.507 -0.3056 -0.3558 -0.3405
 1700TIP3    H1 5106   2.768   5.662   3.414  1.0616  0.3224 -0.6485
 1700TIP3    H2 5107   2.842   5.619   3.540 -2.8223 -2.5223  0.8784
 1701TIP3   OH2 5108   1.593   4.807   3.483  0.0490  0.3284  0.0836
 1701TIP3    H1 5109   1.541   4.807   3.564 -1.8474 -1.8961 -0.9809
 1701TIP3    H2 5110   1.584   4.895   3.448 -0.0933  0.9799  1.6708
 1702TIP3   OH2 5111   0.520   0.845   3.324  0.4148  0.7405 -0.0620
 1702TIP3    H1 5112   0.534   0.843   3.419 -2.3742 -0.6385  0.4128
 1702TIP3    H2 5113   0.514   0.938   3.303 -0.8720  1.0547  1.4807
 1703TIP3   OH2 5114   0.902   4.398   2.624 -0.3099 -0.7309  0.0872
 1703TIP3    H1 5115   0.886   4.424   2.533 -0.1386 -0.5579  0.1074
 1703TIP3    H2 5116   0.840   4.450   2.675 -0.7442 -1.1857  0.0262
 1704TIP3   OH2 5117   4.807   3.776   1.774 -0.3439  0.0638  0.3922
 1704TIP3    H1 5118   4.863   3.831   1.829 -0.0566  0.7812 -0.5750
 1704TIP3    H2 5119   4.819   3.811   1.686 -1.7708 -0.2192  0.0493
 1705TIP3   OH2 5120   4.418   0.593   2.874  0.0333  0.1758 -0.3849
 1705TIP3    H1 5121   4.447   0.607   2.784 -0.9069  0.4056 -0.6659
 1705TIP3    H2 5122   4.469   0.517   2.903 -1.1292 -1.2702 -1.8497
 1706TIP3   OH2 5123   2.604   5.940   1.350  0.8139  0.0787  0.5204
 1706TIP3    H1 5124   2.655   5.934   1.269  1.5303 -0.6083  1.0025
 1706TIP3    H2 5125   2.543   5.867   1.345 -1.4505  1.9295 -0.8916
 1707TIP3   OH2 5126   4.789   1.442   4.659 -0.1660 -0.2546 -0.5122
 1707TIP3    H1 5127   4.722   1.510   4.672 -0.4695 -0.5241 -0.6473
 1707TIP3    H2 5128   4.766   1.403   4.574  0.0597 -0.4647 -0.4763
 1708TIP3   OH2 5129   6.342   3.758   4.000 -0.9256  0.1034 -0.0347
 1708TIP3    H1 5130   6.384   3.674   4.018 -0.6438  0.1533 -0.4722
 1708TIP3    H2 5131   6.249   3.741   4.015 -0.5900  0.7973  4.2533
 1709TIP3   OH2 5132   5.834  -0.021   3.611  0.3790 -0.3116 -0.1129
 1709TIP3    H1 5133   5.899   0.046   3.589  1.1734 -0.7207  0.8824
 1709TIP3    H2 5134   5.813  -0.002   3.703 -0.2044 -0.7686 -0.1530
 1710TIP3   OH2 5135   3.550   3.018   2.097 -0.1809 -0.0404 -0.2349
 1710TIP3    H1 5136   3.617   3.083   2.077  0.1304 -0.1109  0.5217
 1710TIP3    H2 5137   3.547   2.960   2.021  0.4018  0.1437 -0.3958
 1711TIP3   OH2 5138   3.791   1.868   0.317 -0.0487 -0.0532 -0.0523
 1711TIP3    H1 5139   3.786   1.953   0.273 -0.4691 -0.0976 -0.0906
 1711TIP3    H2 5140   3.873   1.830   0.286 -0.1576  0.0781 -0.5099
 1712TIP3   OH2 5141   3.290   3.234   1.775 -0.6160  0.1819  0.3946
 1712TIP3    H1 5142   3.380   3.202   1.770 -0.8065 -0.1823 -1.6114
 1712TIP3    H2 5143   3.275   3.277   1.691 -2.8850 -1.4344 -0.1400
 1713TIP3   OH2 5144   3.555   2.049   2.891 -0.5767 -0.8899 -0.2851
 1713TIP3    H1 5145   3.500   1.981   2.852  0.3483 -1.2622 -0.9646
 1713TIP3    H2 5146   3.630   2.056   2.832  0.3195 -0.7034  0.8447
 1714TIP3   OH2 5147   4.232   1.862   1.616 -0.2771  0.3973 -0.1318
 1714TIP3    H1 5148   4.216   1.802   1.543 -0.2600  2.1967 -1.6729
 1714TIP3    H2 5149   4.327   1.869   1.621 -0.2893  0.6157 -0.2189
 1715TIP3   OH2 5150   3.407   4.547   0.973  0.4904 -0.2205  0.1240
 1715TIP3    H1 5151   3.436   4.506   0.891 -1.2838 -0.5227 -0.3907
 1715TIP3    H2 5152   3.429   4.640   0.962 -0.2530 -0.1512 -0.9676
 1716TIP3   OH2 5153   2.802   3.828   0.237 -0.0198 -0.5683  0.1989
 1716TIP3    H1 5154   2.776   3.736   0.242 -1.6163 -0.1089  1.0286
 1716TIP3    H2 5155   2.825   3.841   0.145 -3.4208 -0.9432 -0.8814
 1717TIP3   OH2 5156   2.774   0.188   1.682 -0.2440 -0.0938  0.4491
 1717TIP3    H1 5157   2.865   0.166   1.661 -0.4768 -0.4496 -0.1961
 1717TIP3    H2 5158   2.738   0.109   1.722 -0.2496  0.0746  0.7831
 1718TIP3   OH2 5159   5.167   0.796   5.020 -0.1710 -0.6614 -0.1775
 1718TIP3    H1 5160   5.105   0.724   5.005  1.2330 -1.5574 -2.0696
 1718TIP3    H2 5161   5.111   0.872   5.036 -1.7045 -2.0694  1.6955
 1719TIP3   OH2 5162   4.909   4.784   0.782  0.5414  0.0205  0.0485
 1719TIP3    H1 5163   4.930   4.864   0.830 -1.2180 -0.0922  1.0880
 1719TIP3    H2 5164   4.852   4.734   0.841  0.0970 -1.1475 -1.2995
 1720TIP3   OH2 5165   0.772   4.884   0.787 -0.1942  0.6899 -0.4867
 1720TIP3    H1 5166   0.716   4.915   0.858  0.0411  2.2901 -0.9384
 1720TIP3    H2 5167   0.772   4.789   0.795 -0.0301  0.8158  1.7660
 1721TIP3   OH2 5168   3.822   3.290   2.635 -0.0604 -0.2015 -0.1563
 1721TIP3    H1 5169   3.892   3.355   2.636 -0.2693  0.0627 -1.1619
 1721TIP3    H2 5170   3.864   3.209   2.607 -0.2980  0.1785 -1.7273
 1722TIP3   OH2 5171   0.240   0.098   3.155 -0.1733 -0.4690 -0.0308
 1722TIP3    H1 5172   0.202   0.024   3.201  0.1960 -1.8346 -1.8285
 1722TIP3    H2 5173   0.324   0.113   3.198  0.3405 -1.9689 -0.4524
 1723TIP3   OH2 5174   4.722   1.257   4.479 -0.2623  0.2661 -0.4870
 1723TIP3    H1 5175   4.687   1.173   4.449  0.3662 -0.0962 -0.2426
 1723TIP3    H2 5176   4.817   1.244   4.479 -0.2011  0.6341  0.5171
 1724TIP3   OH2 5177   2.893   2.971   0.841 -0.5602  0.5420 -0.2912
 1724TIP3    H1 5178   2.970   2.936   0.796 -1.3083  0.2503 -1.3951
 1724TIP3    H2 5179   2.926   3.048   0.889  0.7635 -0.6269  0.7744
 1725TIP3   OH2 5180   2.527   3.953   0.146  0.3156 -0.2536  0.3544
 1725TIP3    H1 5181   2.515   3.876   0.090  3.0057 -0.5117 -0.0284
 1725TIP3    H2 5182   2.544   3.917   0.233 -0.4548  0.0128  0.6219
 1726TIP3   OH2 5183   2.216   1.613   4.017  0.2312 -0.4203  0.4467
 1726TIP3    H1 5184   2.175   1.595   3.932 -1.1366 -1.2153  1.2387
 1726TIP3    H2 5185   2.157   1.675   4.060  0.6959 -0.3421  0.9925
 1727TIP3   OH2 5186   4.761   5.147   1.841 -0.2655  0.6668  0.9258
 1727TIP3    H1 5187   4.755   5.143   1.936 -1.6511  0.0916  0.8351
 1727TIP3    H2 5188   4.686   5.200   1.814 -3.0664 -3.3208 -0.0823
 1728TIP3   OH2 5189   2.447   0.351   3.682 -0.0122  0.0100  0.2723
 1728TIP3    H1 5190   2.529   0.382   3.719 -0.4477  2.3593 -0.5593
 1728TIP3    H2 5191   2.441   0.394   3.596 -1.2866 -1.4802 -0.4306
 1729TIP3   OH2 5192   2.020   2.763   0.877  0.5153 -0.1240 -0.2480
 1729TIP3    H1 5193   1.948   2.805   0.830 -1.0018 -1.7040  0.5528
 1729TIP3    H2 5194   2.066   2.712   0.811  1.2558  1.2859 -0.8627
 1730TIP3   OH2 5195   3.876   0.417   3.060  0.3919 -0.5463  0.4031
 1730TIP3    H1 5196   3.914   0.471   3.130 -2.0858 -1.4512  2.6391
 1730TIP3    H2 5197   3.949   0.365   3.028  1.8275  0.5758  1.6814
 1731TIP3   OH2 5198   1.610   1.816   2.018 -0.3512  0.6424 -0.1498
 1731TIP3    H1 5199   1.642   1.796   1.930 -4.1155  1.9917 -2.0162
 1731TIP3    H2 5200   1.597   1.730   2.058  1.5538  0.0061 -0.7864
 1732TIP3   OH2 5201   3.615   1.441   0.559  0.7773  0.0365 -0.1565
 1732TIP3    H1 5202   3.702   1.443   0.520  0.3960  0.6817 -0.9979
 1732TIP3    H2 5203   3.579   1.529   0.543 -0.7536 -0.7788 -1.5269
 1733TIP3   OH2 5204   0.363   2.703   1.776 -0.2998  0.4488 -0.4157
 1733TIP3    H1 5205   0.311   2.639   1.727 -0.4640  0.3334 -0.0989
 1733TIP3    H2 5206   0.449   2.663   1.783 -0.3093  0.4124 -0.5118
 1734TIP3   OH2 5207   5.381   0.814   1.900 -0.2096 -0.2093 -0.3914
 1734TIP3    H1 5208   5.447   0.865   1.947 -0.0564 -0.3378 -0.4658
 1734TIP3    H2 5209   5.366   0.738   1.955 -1.2935  0.4705  0.3013
 1735TIP3   OH2 5210   2.086   5.663   4.996  0.2326  0.6323 -0.2755
 1735TIP3    H1 5211   2.057   5.582   4.954  1.5839 -0.6700  1.1873
 1735TIP3    H2 5212   2.012   5.688   5.052 -0.1927  0.4191 -0.7290
 1736TIP3   OH2 5213   1.337   0.867   4.293  0.0614  0.0725  0.3690
 1736TIP3    H1 5214   1.349   0.880   4.198 -1.3326  1.4631  0.3316
 1736TIP3    H2 5215   1.323   0.956   4.327  2.3599 -0.1777  2.1994
 1737TIP3   OH2 5216   6.269   2.469   1.387  0.4376  0.3923 -0.1464
 1737TIP3    H1 5217   6.255   2.429   1.473 -1.0417  0.6419 -0.2469
 1737TIP3    H2 5218   6.315   2.551   1.406 -1.5021  1.3612  0.6263
 1738TIP3   OH2 5219   5.212   5.212   3.423 -0.3006  0.1024 -0.0154
 1738TIP3    H1 5220   5.120   5.226   3.400 -0.3891 -0.0470  0.2524
 1738TIP3    H2 5221   5.250   5.176   3.343 -0.2319  1.1604 -0.4753
 1739TIP3   OH2 5222   1.941   2.026   2.964  0.1249  0.1573 -0.2642
 1739TIP3    H1 5223   1.958   2.066   2.878 -0.3509 -0.8951 -0.8643
 1739TIP3    H2 5224   1.987   1.942   2.961  0.0719  0.0944  0.4984
 1740TIP3   OH2 5225   2.070   4.452   4.943  0.0515  0.2128  0.5746
 1740TIP3    H1 5226   2.089   4.469   4.851  0.3132 -0.1829  0.5566
 1740TIP3    H2 5227   2.071   4.357   4.951  0.9223  0.2597  1.1700
 1741TIP3   OH2 5228   4.585   3.745   3.275 -0.2349  0.2126  0.3456
 1741TIP3    H1 5229   4.521   3.724   3.206  0.0281 -0.0137  0.1673
 1741TIP3    H2 5230   4.636   3.818   3.238  2.1007 -2.0183 -1.1344
 1742TIP3   OH2 5231   1.182   4.470   1.076  0.2203  0.5507 -0.5092
 1742TIP3    H1 5232   1.233   4.551   1.084 -0.3253  1.3354 -3.8460
 1742TIP3    H2 5233   1.247   4.404   1.054  0.3937  0.4770  0.1851
 1743TIP3   OH2 5234   5.201   1.604   2.993  0.6167  0.3129 -0.1883
 1743TIP3    H1 5235   5.155   1.682   3.025  0.8121  0.6462 -0.7009
 1743TIP3    H2 5236   5.148   1.574   2.919  0.7097  0.1373 -0.1855
 1744TIP3   OH2 5237   4.789   1.497   4.147 -0.2625 -0.1494  0.4478
 1744TIP3    H1 5238   4.786   1.589   4.121  0.8760  0.3198  1.8727
 1744TIP3    H2 5239   4.878   1.470   4.126 -0.7956 -1.1735 -0.6348
 1745TIP3   OH2 5240   2.867   2.214   3.600 -0.2614  0.0854 -0.4128
 1745TIP3    H1 5241   2.793   2.164   3.636  1.0495 -1.0849  0.7993
 1745TIP3    H2 5242   2.867   2.192   3.507 -0.1032 -1.7364 -0.0246
 1746TIP3   OH2 5243   1.094   0.953   3.205 -0.2528 -0.5750 -0.6047
 1746TIP3    H1 5244   1.111   1.015   3.275 -1.9922  0.1223 -0.7499
 1746TIP3    H2 5245   1.069   0.872   3.250 -0.5426 -0.3772 -0.4033
 1747TIP3   OH2 5246   1.671   5.812   3.931 -0.6378 -0.4817  0.1963
 1747TIP3    H1 5247   1.677   5.862   4.012 -0.1699  1.0564 -0.7330
 1747TIP3    H2 5248   1.577   5.800   3.917 -0.8299  1.0563 -0.0465
 1748TIP3   OH2 5249   5.371   3.131   0.942 -0.1789 -0.4179  0.3507
 1748TIP3    H1 5250   5.323   3.178   1.011  0.0962 -0.6386  0.6919
 1748TIP3    H2 5251   5.399   3.050   0.983  1.3593  0.1422  0.4690
 1749TIP3   OH2 5252   4.524   5.156   5.150 -0.4613 -0.2322 -0.5562
 1749TIP3    H1 5253   4.471   5.118   5.220  1.9520 -0.5434  1.2172
 1749TIP3    H2 5254   4.604   5.104   5.149  1.0807  2.0150 -1.0843
 1750TIP3   OH2 5255   3.157   4.943   3.320  0.0375 -0.2726 -0.4566
 1750TIP3    H1 5256   3.161   4.888   3.242  0.0346  0.2380 -0.8278
 1750TIP3    H2 5257   3.133   5.030   3.286 -0.2530 -0.1113  0.1455
 1751TIP3   OH2 5258   2.798   0.661   2.481 -0.3364  0.7887  0.4798
 1751TIP3    H1 5259   2.854   0.666   2.403  1.3507 -0.0008  1.6033
 1751TIP3    H2 5260   2.800   0.750   2.517 -1.3941  1.2480 -0.5119
 1752TIP3   OH2 5261   3.309   4.801   5.168  0.1586 -0.7883 -0.9114
 1752TIP3    H1 5262   3.240   4.868   5.171 -0.8177 -1.6083  3.9510
 1752TIP3    H2 5263   3.389   4.852   5.155 -0.7415  1.1595  0.5281
 1753TIP3   OH2 5264   0.949   0.136   0.642 -0.9167  0.4264 -0.2310
 1753TIP3    H1 5265   0.872   0.100   0.686 -4.5770  1.7580 -4.8170
 1753TIP3    H2 5266   0.948   0.229   0.663  0.0457  0.3346  0.3187
 1754TIP3   OH2 5267   4.044   2.049   2.581 -0.4204  1.0272  0.1874
 1754TIP3    H1 5268   4.007   1.972   2.538 -0.1840  1.2237 -0.3697
 1754TIP3    H2 5269   3.990   2.061   2.659 -0.2472  0.0823  0.4782
 1755TIP3   OH2 5270   4.053   3.307   4.999 -0.4332  0.0921 -0.8313
 1755TIP3    H1 5271   4.048   3.379   4.937 -0.4140  0.5197 -0.3472
 1755TIP3    H2 5272   4.050   3.349   5.085 -1.8765 -0.5581 -0.5221
 1756TIP3   OH2 5273   2.045   1.530   4.741  0.4020 -0.2100 -0.5182
 1756TIP3    H1 5274   2.007   1.555   4.657 -1.6459 -2.4407 -0.3377
 1756TIP3    H2 5275   2.032   1.435   4.747  0.8039 -0.1854  2.1569
 1757TIP3   OH2 5276   5.200   0.553   0.969 -0.4109  0.1520 -0.0599
 1757TIP3    H1 5277   5.216   0.573   1.062  1.2490 -0.1963 -0.2451
 1757TIP3    H2 5278   5.107   0.530   0.966 -0.4736  0.0279  1.5408
 1758TIP3   OH2 5279   1.396   2.906   4.498  0.6483 -0.7579 -0.0624
 1758TIP3    H1 5280   1.435   2.938   4.580  1.8897 -1.7364 -0.2481
 1758TIP3    H2 5281   1.305   2.886   4.521  0.5359  0.4929  0.6668
 1759TIP3   OH2 5282   1.866   1.527   1.694  0.0887  0.6643  0.2625
 1759TIP3    H1 5283   1.812   1.500   1.619 -0.9321  1.1511  0.8012
 1759TIP3    H2 5284   1.942   1.469   1.690  0.0860  0.7145 -1.1755
 1760TIP3   OH2 5285   5.667   5.288   4.207 -0.1845 -0.3169 -0.1832
 1760TIP3    H1 5286   5.608   5.239   4.150 -0.7860  0.0245  0.1244
 1760TIP3    H2 5287   5.736   5.226   4.229  1.0053  0.0435 -2.6261
 1761TIP3   OH2 5288   2.559   0.348   3.187  0.3547  0.1696  0.1277
 1761TIP3    H1 5289   2.495   0.411   3.152 -0.0525  0.2688  1.0372
 1761TIP3    H2 5290   2.510   0.296   3.250  0.7118 -1.0175 -0.5370
 1762TIP3   OH2 5291   1.009   1.619   0.337  0.5242 -0.9756  0.0835
 1762TIP3    H1 5292   0.925   1.661   0.315  1.2875 -0.4474 -2.0801
 1762TIP3    H2 5293   0.990   1.526   0.334  0.3073 -0.9141 -1.9997
 1763TIP3   OH2 5294   0.152   4.697   2.219  0.4873 -0.0692 -0.0362
 1763TIP3    H1 5295   0.237   4.681   2.261 -0.1564 -0.8151  1.0526
 1763TIP3    H2 5296   0.133   4.615   2.173 -0.8504 -0.9727  1.9807
 1764TIP3   OH2 5297   4.720   5.357   2.117  0.1206 -0.8507  0.1380
 1764TIP3    H1 5298   4.630   5.373   2.088 -0.3554  0.1945  2.0029
 1764TIP3    H2 5299   4.710   5.323   2.206  1.5934  0.4863  0.8569
 1765TIP3   OH2 5300   2.598   1.918   3.604 -0.0335 -0.4007 -0.4621
 1765TIP3    H1 5301   2.664   1.904   3.536  1.4637 -1.6156  1.1566
 1765TIP3    H2 5302   2.574   1.830   3.632 -0.0772  0.0813  1.0744
 1766TIP3   OH2 5303   3.851   4.928   1.072  0.2370 -0.0331 -0.1371
 1766TIP3    H1 5304   3.808   4.954   1.153  0.0493 -1.8508  0.3733
 1766TIP3    H2 5305   3.944   4.937   1.090  0.2357 -1.4899  0.6769
 1767TIP3   OH2 5306   3.548   4.947   5.099  0.0736 -0.1580  0.1354
 1767TIP3    H1 5307   3.607   4.927   5.026  0.1350  0.6370 -0.0453
 1767TIP3    H2 5308   3.601   4.997   5.160 -0.2346 -0.0113  0.2867
 1768TIP3   OH2 5309   4.552   0.574   2.256  0.0785 -0.0540 -0.4996
 1768TIP3    H1 5310   4.636   0.559   2.300 -0.9574 -0.3815  1.4878
 1768TIP3    H2 5311   4.549   0.669   2.242  0.8745 -0.0684 -0.8084
 1769TIP3   OH2 5312   0.279   3.494   3.732 -0.4113 -0.1481 -0.8704
 1769TIP3    H1 5313   0.275   3.576   3.683 -0.3776  0.6084  0.3630
 1769TIP3    H2 5314   0.191   3.458   3.725 -0.7640  0.6029 -0.4064
 1770TIP3   OH2 5315   5.323   1.632   4.311  0.0080  0.1484  0.2658
 1770TIP3    H1 5316   5.328   1.689   4.387 -1.9001  0.0848  0.4983
 1770TIP3    H2 5317   5.240   1.656   4.269  0.3220 -0.8166 -0.9755
 1771TIP3   OH2 5318   3.694   2.750   3.321  0.0230 -0.3637 -0.1188
 1771TIP3    H1 5319   3.702   2.710   3.235 -0.3704 -0.0639 -0.2962
 1771TIP3    H2 5320   3.671   2.841   3.303 -2.3206 -0.7973  0.3095
 1772TIP3   OH2 5321   0.910   5.241   1.682  0.0270  0.6220  0.1109
 1772TIP3    H1 5322   0.846   5.214   1.749  0.4828  0.4190  0.4710
 1772TIP3    H2 5323   0.957   5.161   1.660 -0.8241  0.4599 -1.2446
 1773TIP3   OH2 5324   6.016   2.728   2.529 -0.4803 -0.0130  0.4182
 1773TIP3    H1 5325   5.991   2.821   2.529  2.3061  0.8297 -0.3631
 1773TIP3    H2 5326   6.085   2.722   2.594  0.5515 -1.1664 -0.7389
 1774TIP3   OH2 5327   5.212   5.122   3.182  0.6369  0.5646 -0.2903
 1774TIP3    H1 5328   5.262   5.059   3.235 -0.8735 -0.1201  0.3586
 1774TIP3    H2 5329   5.237   5.101   3.092 -0.7070 -1.8333 -0.1972
 1775TIP3   OH2 5330   2.975   2.633   3.082  0.9860  0.0551 -0.3109
 1775TIP3    H1 5331   3.062   2.620   3.121  0.7278 -0.0010  0.2682
 1775TIP3    H2 5332   2.953   2.549   3.042  1.6852  0.4136 -1.4857
 1776TIP3   OH2 5333   1.203   5.031   0.059 -0.3868  0.3867  0.0211
 1776TIP3    H1 5334   1.293   5.041   0.028 -0.0948 -0.1364  0.6774
 1776TIP3    H2 5335   1.212   4.999   0.149 -1.2262  0.4628  0.1373
 1777TIP3   OH2 5336   0.845   4.436   2.065  0.2977  0.7658 -1.1633
 1777TIP3    H1 5337   0.772   4.498   2.060 -1.2823 -0.6775  1.6183
 1777TIP3    H2 5338   0.860   4.410   1.974 -2.7820  1.0551 -1.8749
 1778TIP3   OH2 5339   4.290   4.405   4.757 -0.6124 -0.2644  0.1338
 1778TIP3    H1 5340   4.308   4.328   4.811 -1.3508 -0.0576  0.7001
 1778TIP3    H2 5341   4.201   4.390   4.723 -0.7236  0.2853  0.1685
 1779TIP3   OH2 5342   5.123   2.450   4.504  0.2014  0.2488 -0.0864
 1779TIP3    H1 5343   5.151   2.361   4.526  0.9688  0.5796  0.2877
 1779TIP3    H2 5344   5.116   2.449   4.409  1.8623  0.2521 -0.2358
 1780TIP3   OH2 5345   2.978   0.671   2.272  1.0631 -0.4625 -0.0582
 1780TIP3    H1 5346   2.967   0.632   2.185 -1.3854  0.2563 -0.1513
 1780TIP3    H2 5347   3.026   0.752   2.256  1.0185 -0.5591 -0.6950
 1781TIP3   OH2 5348   1.358   5.212   2.918  0.0718 -0.3469  0.1917
 1781TIP3    H1 5349   1.268   5.196   2.945 -0.7299  1.4104 -1.2873
 1781TIP3    H2 5350   1.409   5.198   2.998 -1.7019  0.3527  1.5095
 1782TIP3   OH2 5351   2.278   1.398   1.031 -0.6235  0.0985  0.4370
 1782TIP3    H1 5352   2.212   1.431   0.971  1.1851 -1.5661 -2.6968
 1782TIP3    H2 5353   2.265   1.304   1.032  0.2984 -0.0449  1.5753
 1783TIP3   OH2 5354   5.594   4.485   3.288  0.1965 -0.4404  0.3364
 1783TIP3    H1 5355   5.570   4.392   3.287 -0.1994 -0.3793  1.7043
 1783TIP3    H2 5356   5.621   4.504   3.198 -0.7656 -1.6047 -0.2306
 1784TIP3   OH2 5357   1.432   0.835   4.565 -0.0808 -0.3187 -0.4115
 1784TIP3    H1 5358   1.502   0.900   4.555 -1.4839  1.3852  0.4290
 1784TIP3    H2 5359   1.395   0.827   4.477  1.0056 -1.1058 -0.8292
 1785TIP3   OH2 5360   1.364   2.014   2.218 -0.5697 -0.3430  0.6149
 1785TIP3    H1 5361   1.396   2.089   2.267  0.6799  1.1096 -2.1891
 1785TIP3    H2 5362   1.268   2.024   2.218 -0.7224 -0.9841  3.4336
 1786TIP3   OH2 5363   3.515   0.536   3.685 -0.2385  0.2975  0.3889
 1786TIP3    H1 5364   3.447   0.603   3.692 -1.3611 -0.7435 -0.1782
 1786TIP3    H2 5365   3.476   0.457   3.723  0.5735 -0.3714 -0.1156
 1787TIP3   OH2 5366   3.837   3.144   4.357 -0.2613 -0.0259  0.0231
 1787TIP3    H1 5367   3.872   3.192   4.432  0.4385 -0.7601  0.1740
 1787TIP3    H2 5368   3.801   3.212   4.300  0.1649  0.6229  0.5157
 1788TIP3   OH2 5369   3.947   1.012   2.554 -0.1035 -0.2553  0.0177
 1788TIP3    H1 5370   4.004   0.978   2.623  1.6331  0.0085 -1.2069
 1788TIP3    H2 5371   3.933   0.938   2.495  0.8836  0.2435 -0.8754
 1789TIP3   OH2 5372   1.765   3.450   1.369 -0.4675 -0.5381 -0.4047
 1789TIP3    H1 5373   1.811   3.517   1.419  0.2669 -2.1718  1.2666
 1789TIP3    H2 5374   1.814   3.442   1.287 -1.4574  1.9214 -1.3408
 1790TIP3   OH2 5375   2.771   4.751   4.731 -0.0540  0.9286 -0.2544
 1790TIP3    H1 5376   2.735   4.667   4.701  0.3641  0.8015 -0.4026
 1790TIP3    H2 5377   2.705   4.784   4.792 -1.4535  1.6976 -2.0687
 1791TIP3   OH2 5378   5.072   4.823   4.555 -0.1104  0.1651  0.0243
 1791TIP3    H1 5379   5.141   4.889   4.554  0.8172 -0.7429  1.2479
 1791TIP3    H2 5380   5.108   4.749   4.508  0.2373 -0.7292  1.6070
 1792TIP3   OH2 5381   4.264   4.356   0.956  0.3931  0.3866 -0.4980
 1792TIP3    H1 5382   4.255   4.276   0.904 -0.0617  1.4286 -2.0892
 1792TIP3    H2 5383   4.173   4.381   0.976  0.5764 -0.5072  1.6644
 1793TIP3   OH2 5384   1.522   4.519   3.392  0.4024 -0.0792  0.2916
 1793TIP3    H1 5385   1.465   4.552   3.461  0.2076 -0.1508  0.1663
 1793TIP3    H2 5386   1.534   4.593   3.333  0.9283  0.1129  0.6323
 1794TIP3   OH2 5387   3.956   0.036   3.819 -0.2017  0.6377 -0.3000
 1794TIP3    H1 5388   3.901  -0.021   3.873 -0.3507  0.2860 -0.8111
 1794TIP3    H2 5389   4.011   0.083   3.882 -0.4937  0.3661  0.1659
 1795TIP3   OH2 5390   5.652   5.214   2.036  1.0168  0.0519  0.5383
 1795TIP3    H1 5391   5.628   5.299   2.071  0.8505  0.6060 -0.8560
 1795TIP3    H2 5392   5.570   5.164   2.035  1.3948 -0.7082  2.8111
 1796TIP3   OH2 5393   3.652   1.542   4.833  0.1548  0.1190  0.1681
 1796TIP3    H1 5394   3.645   1.487   4.756 -0.1894 -1.1454  1.0665
 1796TIP3    H2 5395   3.563   1.571   4.850  0.2542  0.5218  0.0017
 1797TIP3   OH2 5396   1.272   3.563   0.825 -0.2798  0.0423 -0.2896
 1797TIP3    H1 5397   1.297   3.523   0.742  0.8255  0.7001 -0.2933
 1797TIP3    H2 5398   1.189   3.522   0.848 -0.8833  0.2410 -1.9940
 1798TIP3   OH2 5399   3.151   4.626   0.448  0.6491 -0.3689  0.0327
 1798TIP3    H1 5400   3.189   4.647   0.362  0.2886  1.7626  0.3412
 1798TIP3    H2 5401   3.057   4.618   0.431  0.8984 -3.7470 -0.3851
 1799TIP3   OH2 5402   5.041   1.227   2.989 -0.0162 -0.1383 -0.3049
 1799TIP3    H1 5403   5.070   1.284   2.918  1.3193  0.2540  0.5196
 1799TIP3    H2 5404   4.957   1.264   3.017 -0.2573  0.0581 -1.2674
 1800TIP3   OH2 5405   4.969   0.305   1.574  0.4119 -0.3967 -0.4961
 1800TIP3    H1 5406   5.017   0.313   1.657 -1.5414 -3.0164  1.0574
 1800TIP3    H2 5407   5.036   0.278   1.511  1.4461 -1.4792  0.9774
 1801TIP3   OH2 5408   2.432   3.742   2.967  0.5273  0.2521  0.1032
 1801TIP3    H1 5409   2.423   3.647   2.964  0.7878  0.1664  1.3290
 1801TIP3    H2 5410   2.365   3.775   2.908 -1.8911 -0.6047  2.1894
 1802TIP3   OH2 5411   3.396   0.795   5.006  0.0465  0.5018 -0.6499
 1802TIP3    H1 5412   3.478   0.813   5.050 -0.5422  0.9824  0.2798
 1802TIP3    H2 5413   3.418   0.731   4.938  0.9877 -0.1407  0.2482
 1803TIP3   OH2 5414   3.554   3.725   0.456 -0.0076 -0.2841  0.7748
 1803TIP3    H1 5415   3.597   3.811   0.460 -2.5548  1.1139  0.4102
 1803TIP3    H2 5416   3.503   3.720   0.537 -0.3788 -1.1519  0.4971
 1804TIP3   OH2 5417   2.046   1.253   4.748  0.5520 -0.0423 -0.2338
 1804TIP3    H1 5418   2.109   1.249   4.676  0.2428  0.4139 -0.5359
 1804TIP3    H2 5419   2.031   1.162   4.772  1.4778 -0.1465 -0.0180
 1805TIP3   OH2 5420   0.142   3.057   2.721  0.1334  0.3830  0.5768
 1805TIP3    H1 5421   0.153   2.966   2.695  0.0674  0.8598 -1.2876
 1805TIP3    H2 5422   0.146   3.056   2.816  1.1306 -1.4273  0.5498
 1806TIP3   OH2 5423   1.023   1.513   1.162  0.7171  0.0461 -0.3714
 1806TIP3    H1 5424   1.095   1.507   1.098  0.0792  0.9363 -1.2066
 1806TIP3    H2 5425   1.060   1.562   1.235  0.6188  1.6312 -1.3447
 1807TIP3   OH2 5426   3.255   5.111   3.019  0.1612  0.3619  0.0168
 1807TIP3    H1 5427   3.234   5.018   3.027 -2.5402  0.9181  0.5669
 1807TIP3    H2 5428   3.199   5.142   2.947  0.0231  1.7799  0.6890
 1808TIP3   OH2 5429   4.307   4.216   3.671 -0.1760  0.6768 -0.4874
 1808TIP3    H1 5430   4.253   4.143   3.701  0.4379 -0.2953 -1.6450
 1808TIP3    H2 5431   4.393   4.178   3.656  0.2956  1.7555 -0.6155
 1809TIP3   OH2 5432   1.392   1.040   0.768  0.2636 -0.3656 -0.4120
 1809TIP3    H1 5433   1.443   1.099   0.823  2.1659 -1.7759 -0.5256
 1809TIP3    H2 5434   1.380   1.087   0.685 -1.3695  1.1996  0.6584
 1810TIP3   OH2 5435   2.324   5.164   4.451 -0.0710 -0.1289  0.9302
 1810TIP3    H1 5436   2.247   5.116   4.420  1.4762 -1.4360 -1.1885
 1810TIP3    H2 5437   2.385   5.097   4.481  0.3440  0.8696  2.4716
 1811TIP3   OH2 5438   1.993   3.368   3.016  0.1522  0.2310 -0.4249
 1811TIP3    H1 5439   2.027   3.419   2.942 -0.2230 -0.3500 -1.0114
 1811TIP3    H2 5440   1.950   3.292   2.975 -0.4213  0.1135  0.3701
 1812TIP3   OH2 5441   1.510   2.491   0.826  0.2467  0.2990  0.2009
 1812TIP3    H1 5442   1.503   2.400   0.796 -0.9059  0.1738  0.7969
 1812TIP3    H2 5443   1.598   2.497   0.864  0.0232 -0.8311  0.9459
 1813TIP3   OH2 5444   4.598   2.544   1.919 -0.3058 -0.1250 -0.0656
 1813TIP3    H1 5445   4.634   2.584   1.999 -1.5045 -0.8537  0.8749
 1813TIP3    H2 5446   4.560   2.618   1.871  1.2492  0.4680 -0.4772
 1814TIP3   OH2 5447   5.277   2.100   0.614 -0.2195  0.3282 -0.2962
 1814TIP3    H1 5448   5.236   2.157   0.679 -0.3881  0.0490 -0.1539
 1814TIP3    H2 5449   5.342   2.156   0.570  0.6086  0.2724  0.7900
 1815TIP3   OH2 5450   4.792   3.525   3.216  0.0304  0.1744  0.0053
 1815TIP3    H1 5451   4.700   3.499   3.219 -0.1728  0.9025  0.2470
 1815TIP3    H2 5452   4.800   3.593   3.283  1.0866 -0.9335  1.0605
 1816TIP3   OH2 5453   5.439   0.175   0.945 -0.1570 -0.2970 -0.3898
 1816TIP3    H1 5454   5.366   0.218   0.901 -2.1280 -2.3985  0.6119
 1816TIP3    H2 5455   5.497   0.247   0.971 -1.2480  1.3545 -2.2014
 1817TIP3   OH2 5456   4.513   2.078   3.031 -0.3469  0.6334  0.4254
 1817TIP3    H1 5457   4.555   2.026   2.963 -0.5430 -1.3840  1.7495
 1817TIP3    H2 5458   4.429   2.104   2.994 -0.0888  0.2900 -0.4130
 1818TIP3   OH2 5459   1.324   1.712   1.196 -0.4001  0.1098  0.7841
 1818TIP3    H1 5460   1.307   1.758   1.277  1.0162  0.2111  1.0616
 1818TIP3    H2 5461   1.326   1.619   1.221 -2.4077 -0.0861  0.3808
 1819TIP3   OH2 5462   0.312   4.067   0.389 -0.0478 -0.5134 -0.0969
 1819TIP3    H1 5463   0.361   4.146   0.370 -0.4965  0.1254  1.2642
 1819TIP3    H2 5464   0.227   4.098   0.421  0.1207 -1.4994  1.4275
 1820TIP3   OH2 5465   3.339   2.514   4.355  0.0834  0.0821  0.4409
 1820TIP3    H1 5466   3.378   2.428   4.369  2.5283  1.2309  1.1478
 1820TIP3    H2 5467   3.413   2.574   4.347 -1.5315  2.2099  0.3359
 1821TIP3   OH2 5468   1.526   5.390   4.691  0.1708  0.6896  0.1405
 1821TIP3    H1 5469   1.510   5.396   4.785  1.5783 -0.0562  0.4637
 1821TIP3    H2 5470   1.490   5.304   4.666  1.5842 -0.0253  0.4389
 1822TIP3   OH2 5471   2.462   1.368   4.676 -0.0681  0.0652  0.6394
 1822TIP3    H1 5472   2.413   1.442   4.639  0.0868  1.0570  2.3152
 1822TIP3    H2 5473   2.531   1.408   4.729  0.5759 -1.2961  0.8865
 1823TIP3   OH2 5474   0.070   4.983   3.697 -0.8907  0.2985 -0.0026
 1823TIP3    H1 5475  -0.007   4.925   3.705  0.3891 -1.2182  2.6184
 1823TIP3    H2 5476   0.035   5.071   3.714 -2.4432  0.0202 -1.4504
 1824TIP3   OH2 5477   2.467   2.280   2.058 -0.1943  0.1983 -0.4804
 1824TIP3    H1 5478   2.528   2.276   2.132 -0.3179  0.6161 -0.3559
 1824TIP3    H2 5479   2.381   2.270   2.097 -0.3021  1.0211 -0.4987
 1825TIP3   OH2 5480   6.136   4.708   0.290 -0.1399  0.2758 -0.2472
 1825TIP3    H1 5481   6.071   4.723   0.358  0.0244 -0.7205  0.1503
 1825TIP3    H2 5482   6.211   4.763   0.316 -0.4904  0.7543 -0.2364
 1826TIP3   OH2 5483   3.437   5.237   3.771  0.5739  0.0404 -0.1024
 1826TIP3    H1 5484   3.456   5.237   3.677  0.7402  1.4337 -0.0898
 1826TIP3    H2 5485   3.405   5.149   3.789  1.2988 -0.4952 -1.3118
 1827TIP3   OH2 5486   2.586   5.116   3.309 -0.3779 -0.1531 -0.3256
 1827TIP3    H1 5487   2.582   5.169   3.229 -0.8404 -0.8157 -0.7479
 1827TIP3    H2 5488   2.677   5.125   3.338 -0.2827  0.3485 -0.7462
 1828TIP3   OH2 5489   1.801   3.342   3.940 -0.2704  0.5196  0.3884
 1828TIP3    H1 5490   1.778   3.284   3.868 -1.1192  1.5948 -0.2394
 1828TIP3    H2 5491   1.818   3.426   3.898  1.5401  0.6116  1.2107
 1829TIP3   OH2 5492   5.627   0.545   2.325  0.1118  0.2469 -0.1053
 1829TIP3    H1 5493   5.550   0.543   2.382  1.0366 -0.4050  1.1842
 1829TIP3    H2 5494   5.701   0.560   2.384  1.0895 -0.2022 -1.1599
 1830TIP3   OH2 5495   0.613   5.493   0.718 -0.0187  0.6601 -0.2379
 1830TIP3    H1 5496   0.672   5.567   0.704 -0.0145  0.4867 -1.2098
 1830TIP3    H2 5497   0.665   5.416   0.695  0.0611  0.3155  1.0184
 1831TIP3   OH2 5498   0.864   2.057   4.892  0.1957 -0.2140  0.0026
 1831TIP3    H1 5499   0.801   2.016   4.832  2.5101  0.1420 -2.8955
 1831TIP3    H2 5500   0.869   1.996   4.966 -2.9510 -0.5893  0.0551
 1832TIP3   OH2 5501   2.479   1.824   0.481 -0.3974  0.1851 -0.5367
 1832TIP3    H1 5502   2.430   1.789   0.406  1.1337 -0.5184 -1.2418
 1832TIP3    H2 5503   2.503   1.747   0.531 -0.3891  0.5632  0.0436
 1833TIP3   OH2 5504   2.317   5.836   4.964 -0.3528  0.9750  0.2611
 1833TIP3    H1 5505   2.237   5.783   4.964 -0.3225  0.9026 -0.6515
 1833TIP3    H2 5506   2.309   5.893   5.040 -1.3107  1.0109  0.1427
 1834TIP3   OH2 5507   3.059   4.016   3.521  0.4726 -0.6347  0.4196
 1834TIP3    H1 5508   3.085   3.936   3.475 -0.6733 -0.1571 -1.1046
 1834TIP3    H2 5509   3.142   4.057   3.544  1.0846 -2.0329  0.8617
 1835TIP3   OH2 5510   4.253   5.220   2.798 -0.0815 -1.1556  0.2782
 1835TIP3    H1 5511   4.177   5.193   2.850 -0.9793 -0.6278 -0.7213
 1835TIP3    H2 5512   4.230   5.308   2.767  0.8562 -1.0765 -0.2128
 1836TIP3   OH2 5513   1.646   5.730   1.546 -0.3069 -0.4420 -0.3806
 1836TIP3    H1 5514   1.639   5.823   1.523 -0.3251 -0.3011  0.1795
 1836TIP3    H2 5515   1.593   5.685   1.480  1.3729 -0.2651 -1.9148
 1837TIP3   OH2 5516   2.258   2.396   1.317 -0.0538 -0.2000  0.2126
 1837TIP3    H1 5517   2.280   2.416   1.226 -2.4814 -0.2698 -0.4632
 1837TIP3    H2 5518   2.231   2.480   1.354  2.5946  0.2015  1.4948
 1838TIP3   OH2 5519   1.157   2.154   3.235 -0.5451 -0.2032  0.2150
 1838TIP3    H1 5520   1.169   2.062   3.257 -0.9466 -0.3796 -0.3006
 1838TIP3    H2 5521   1.199   2.201   3.307 -1.9109 -0.7772  1.4397
 1839TIP3   OH2 5522   2.563   5.805   2.330 -0.3216 -0.9773 -0.4839
 1839TIP3    H1 5523   2.551   5.751   2.408 -0.8230 -1.7030 -1.0525
 1839TIP3    H2 5524   2.632   5.867   2.354 -2.5345  0.8642  1.6241
 1840TIP3   OH2 5525   3.819   0.211   3.660 -0.0643 -0.3767 -0.1211
 1840TIP3    H1 5526   3.858   0.145   3.718 -1.1569  0.7730  2.0054
 1840TIP3    H2 5527   3.755   0.162   3.609  1.4061 -1.5459 -0.9346
 1841TIP3   OH2 5528   3.221   2.171   2.345  0.2868  0.4960  0.3297
 1841TIP3    H1 5529   3.280   2.247   2.339 -1.1677  1.6160 -0.5513
 1841TIP3    H2 5530   3.154   2.188   2.278  0.3497 -1.9826 -0.4388
 1842TIP3   OH2 5531   5.897   2.031   3.503 -0.4800 -0.7297  0.4158
 1842TIP3    H1 5532   5.943   1.965   3.452 -0.2174  0.5229 -1.0653
 1842TIP3    H2 5533   5.840   2.075   3.440  0.5749  1.5340  0.9250
 1843TIP3   OH2 5534   4.795   3.477   1.737 -0.1029  0.0575  0.4648
 1843TIP3    H1 5535   4.890   3.483   1.729 -0.0986  0.1191  0.5537
 1843TIP3    H2 5536   4.771   3.555   1.788 -0.5062  1.6003 -1.9335
 1844TIP3   OH2 5537   1.285   5.843   4.818 -0.0598 -0.3866  0.9561
 1844TIP3    H1 5538   1.376   5.865   4.838 -0.1871  0.2619  0.8393
 1844TIP3    H2 5539   1.238   5.926   4.826 -0.6465 -0.7200  1.0331
 1845TIP3   OH2 5540   2.914   4.283   4.879  0.2265  0.3616  0.5054
 1845TIP3    H1 5541   2.849   4.344   4.914  0.2240  0.2259  0.7427
 1845TIP3    H2 5542   2.996   4.308   4.921  0.2234  0.1953  0.6098
 1846TIP3   OH2 5543   0.808   2.295   3.916 -0.8782 -0.0519  0.2736
 1846TIP3    H1 5544   0.891   2.339   3.897 -1.3387  0.9146  0.4542
 1846TIP3    H2 5545   0.834   2.212   3.955  0.0381 -0.6371 -1.4697
 1847TIP3   OH2 5546   0.485   4.786   1.722 -0.5303 -0.2808 -0.4839
 1847TIP3    H1 5547   0.465   4.876   1.748 -2.1238 -0.4526 -1.0042
 1847TIP3    H2 5548   0.453   4.780   1.632  1.0290 -0.9229 -1.0254
 1848TIP3   OH2 5549   3.934   5.542   3.515 -0.2707 -0.3159 -0.2150
 1848TIP3    H1 5550   3.909   5.617   3.460 -0.9759  0.7756  1.5118
 1848TIP3    H2 5551   3.940   5.578   3.604  0.1817 -2.1560  0.5517
 1849TIP3   OH2 5552   3.177   4.720   3.672 -0.3678  0.7554 -0.5622
 1849TIP3    H1 5553   3.176   4.627   3.652  0.5839  0.6184 -0.0031
 1849TIP3    H2 5554   3.089   4.738   3.706 -0.2916 -0.1115  0.1174
 1850TIP3   OH2 5555   1.105   3.803   3.298  0.1611  0.1734 -0.2288
 1850TIP3    H1 5556   1.029   3.849   3.333  0.4253 -0.7355  1.6751
 1850TIP3    H2 5557   1.145   3.761   3.375  2.3241  0.2419 -1.2451
 1851TIP3   OH2 5558   3.235   2.046   2.785 -0.0800 -0.4729  0.0917
 1851TIP3    H1 5559   3.222   1.951   2.777  3.6707 -1.1234 -0.0424
 1851TIP3    H2 5560   3.242   2.062   2.879  0.0953 -0.4823  0.0811
 1852TIP3   OH2 5561   2.396   3.969   1.408 -0.2459 -0.0047  0.3525
 1852TIP3    H1 5562   2.345   3.895   1.443 -1.3565  1.4452  1.9741
 1852TIP3    H2 5563   2.434   4.010   1.485 -0.1314  1.4592 -0.4604
 1853TIP3   OH2 5564   0.600   4.379   2.521  0.4420  0.2539  0.0229
 1853TIP3    H1 5565   0.629   4.359   2.610 -0.8994  0.2302  0.4750
 1853TIP3    H2 5566   0.555   4.300   2.492 -2.5935  1.5320  0.8452
 1854TIP3   OH2 5567   2.116   0.375   1.006 -0.7030  0.0484 -0.5653
 1854TIP3    H1 5568   2.120   0.470   1.020 -0.6482 -0.1552  0.9093
 1854TIP3    H2 5569   2.095   0.339   1.092  2.2082 -1.4804 -0.3466
 1855TIP3   OH2 5570   4.840   0.136   5.155  0.1894 -0.0232  0.2037
 1855TIP3    H1 5571   4.864   0.065   5.096  1.3151 -0.9657  1.6896
 1855TIP3    H2 5572   4.865   0.216   5.109 -0.0484 -0.6488 -1.0411
 1856TIP3   OH2 5573   4.270   2.160   4.812  0.3505 -0.0470 -0.1419
 1856TIP3    H1 5574   4.294   2.251   4.799  0.8497 -0.2279 -0.5379
 1856TIP3    H2 5575   4.280   2.146   4.907  1.3173  0.0349 -0.2158
 1857TIP3   OH2 5576   3.020   3.174   2.778 -0.0220 -0.0031 -1.0666
 1857TIP3    H1 5577   3.084   3.209   2.840 -1.0215  2.4879 -1.3154
 1857TIP3    H2 5578   3.027   3.231   2.702 -0.6756 -1.3546 -2.1771
 1858TIP3   OH2 5579   1.346   5.767   1.495  0.0431 -0.2054  0.4621
 1858TIP3    H1 5580   1.318   5.776   1.586  3.3246 -1.1580  1.6801
 1858TIP3    H2 5581   1.362   5.673   1.484 -0.7081 -0.1702 -1.2923
 1859TIP3   OH2 5582   1.603   2.183   1.645  0.2147  0.0002  0.4202
 1859TIP3    H1 5583   1.673   2.150   1.703  0.5886 -2.3145 -1.2162
 1859TIP3    H2 5584   1.530   2.123   1.660 -1.4739  2.2529  1.9309
 1860TIP3   OH2 5585   1.229   5.793   1.214 -0.0440 -0.7180 -0.0117
 1860TIP3    H1 5586   1.291   5.775   1.284 -0.0782 -0.3336  0.1238
 1860TIP3    H2 5587   1.191   5.708   1.191  0.8046 -1.0127 -0.3537
 1861TIP3   OH2 5588   4.870   0.950   3.248  0.8726  0.1126 -0.2418
 1861TIP3    H1 5589   4.840   1.030   3.204 -1.0764  0.0145  0.8064
 1861TIP3    H2 5590   4.791   0.897   3.257  1.7129 -0.9612  1.0997
 1862TIP3   OH2 5591   5.608   4.490   1.747  0.1144  0.1866 -0.0074
 1862TIP3    H1 5592   5.519   4.490   1.783  0.4860  0.1291  0.9352
 1862TIP3    H2 5593   5.596   4.464   1.655 -0.7641 -0.7259  0.3354
 1863TIP3   OH2 5594   0.582   2.842   2.212 -0.0374  0.0599 -0.9234
 1863TIP3    H1 5595   0.511   2.822   2.272 -0.4799  0.5272 -1.2828
 1863TIP3    H2 5596   0.599   2.759   2.166  0.1434 -0.2330 -0.3357
 1864TIP3   OH2 5597   3.641   1.107   0.761  0.0653 -0.2067  0.5769
 1864TIP3    H1 5598   3.642   1.171   0.832  1.4146  0.4269  0.0272
 1864TIP3    H2 5599   3.591   1.033   0.795  0.2870  0.2796  2.0042
 1865TIP3   OH2 5600   0.937   1.187   3.529 -0.2597  0.4534  0.2034
 1865TIP3    H1 5601   0.913   1.179   3.621  0.0500  3.1138  0.5965
 1865TIP3    H2 5602   0.998   1.115   3.513 -1.3087 -0.8338  1.6921
 1866TIP3   OH2 5603   1.093   4.855   4.358  0.2823 -0.1221 -0.3385
 1866TIP3    H1 5604   1.059   4.914   4.291  0.1794 -0.2421 -0.3912
 1866TIP3    H2 5605   1.058   4.770   4.335  0.7986 -0.2894 -0.5247
 1867TIP3   OH2 5606   0.147   3.004   1.950  0.4976  0.1608  0.1231
 1867TIP3    H1 5607   0.168   2.917   1.984  0.5237  0.3589  0.6309
 1867TIP3    H2 5608   0.056   3.018   1.973  1.0070  1.0308  1.7746
 1868TIP3   OH2 5609   3.118   5.536   1.421 -0.0918 -0.6315 -0.5710
 1868TIP3    H1 5610   3.101   5.565   1.510  1.4886 -0.7132 -0.2007
 1868TIP3    H2 5611   3.172   5.606   1.383  0.5912 -1.3336 -0.9188
 1869TIP3   OH2 5612   0.185   0.949   3.714  0.2030  0.1677 -0.2062
 1869TIP3    H1 5613   0.249   1.000   3.763 -0.4528  0.7462  0.0555
 1869TIP3    H2 5614   0.176   0.868   3.765  1.4170 -0.3341 -0.7472
 1870TIP3   OH2 5615   5.040   2.650   1.329 -0.0775 -0.1258 -0.0144
 1870TIP3    H1 5616   4.953   2.681   1.356  0.3959  1.6216 -0.3735
 1870TIP3    H2 5617   5.025   2.560   1.299 -1.5042 -0.3399  1.1986
 1871TIP3   OH2 5618   4.085   4.118   4.077 -0.1053 -0.0881  0.7011
 1871TIP3    H1 5619   4.137   4.198   4.080 -0.5912  0.3627 -1.3464
 1871TIP3    H2 5620   4.144   4.052   4.041 -0.8085  0.3962 -1.5156
 1872TIP3   OH2 5621   4.177   5.103   3.648 -0.0859 -0.3894  0.3890
 1872TIP3    H1 5622   4.235   5.078   3.720 -0.6456  3.0276  2.2503
 1872TIP3    H2 5623   4.225   5.172   3.602 -0.3119 -1.5874 -1.7826
 1873TIP3   OH2 5624   0.370   4.363   0.460  0.4506 -0.2577  0.4892
 1873TIP3    H1 5625   0.314   4.371   0.383  1.4506 -0.6031 -0.3014
 1873TIP3    H2 5626   0.441   4.425   0.445  1.2788 -1.1652  0.5580
 1874TIP3   OH2 5627   2.132   1.405   2.087 -0.3790 -0.7835  0.1320
 1874TIP3    H1 5628   2.151   1.369   2.174 -0.7047 -0.5698  0.2960
 1874TIP3    H2 5629   2.199   1.368   2.030  0.6573  0.0991  0.7252
 1875TIP3   OH2 5630   2.646   3.484   4.062 -0.2368 -0.0047 -0.1466
 1875TIP3    H1 5631   2.692   3.552   4.013 -0.6100  0.6852  0.4486
 1875TIP3    H2 5632   2.700   3.468   4.139  0.7673 -1.6641 -1.1408
 1876TIP3   OH2 5633   4.594   3.329   0.502  0.0650 -0.2810  0.8685
 1876TIP3    H1 5634   4.611   3.269   0.575 -0.7883  0.5108  1.7396
 1876TIP3    H2 5635   4.501   3.318   0.482  0.3751 -0.7949 -0.4017
 1877TIP3   OH2 5636   4.181   3.291   3.164  0.2443 -0.1254  0.2148
 1877TIP3    H1 5637   4.121   3.282   3.090  1.0292 -0.8685 -0.3587
 1877TIP3    H2 5638   4.186   3.385   3.180 -2.4904 -0.1040  1.4980
 1878TIP3   OH2 5639   0.964   3.620   2.847  0.4627  0.6223  0.1033
 1878TIP3    H1 5640   0.891   3.641   2.905 -0.2325  2.5625 -1.3755
 1878TIP3    H2 5641   1.042   3.639   2.900 -0.1234  1.0278  0.8433
 1879TIP3   OH2 5642   1.241   1.468   2.166 -0.1747 -0.3730  0.4901
 1879TIP3    H1 5643   1.233   1.402   2.234  1.5959 -0.2771  0.8510
 1879TIP3    H2 5644   1.307   1.432   2.106  2.4272  1.8364  1.7772
 1880TIP3   OH2 5645   3.951   2.444   3.853  0.7471 -0.0491 -0.7580
 1880TIP3    H1 5646   3.874   2.396   3.825  0.0344  0.6698 -0.0715
 1880TIP3    H2 5647   3.997   2.466   3.771 -0.7988  1.1897 -1.3424
 1881TIP3   OH2 5648   2.150   5.259   2.111  0.5398 -0.4105 -0.3934
 1881TIP3    H1 5649   2.089   5.201   2.065 -0.3483  0.1166  0.0888
 1881TIP3    H2 5650   2.211   5.287   2.043  0.9866 -1.8786 -0.6451
 1882TIP3   OH2 5651   4.930   1.997   3.795  0.1499  0.5996  0.4042
 1882TIP3    H1 5652   4.921   1.942   3.872 -0.6047  2.0443  1.3760
 1882TIP3    H2 5653   4.963   2.080   3.828  1.7722  0.6182 -1.1026
 1883TIP3   OH2 5654   1.206   5.914   4.541  0.0204 -0.6878  0.2378
 1883TIP3    H1 5655   1.196   5.937   4.634 -1.5476 -1.7057  0.3653
 1883TIP3    H2 5656   1.271   5.844   4.541  2.8831  1.7520  0.1049
 1884TIP3   OH2 5657   3.697   3.966   0.462 -0.2088 -0.0600  0.1802
 1884TIP3    H1 5658   3.734   4.023   0.394  1.3768 -1.4020 -0.1668
 1884TIP3    H2 5659   3.761   3.895   0.470 -0.8474 -0.4398  2.4188
 1885TIP3   OH2 5660   3.469   5.444   1.523  0.1344 -0.0476  0.8120
 1885TIP3    H1 5661   3.501   5.372   1.578 -0.8488 -0.7824  0.4478
 1885TIP3    H2 5662   3.477   5.411   1.434 -1.1647 -0.0662  0.6877
 1886TIP3   OH2 5663   3.799   2.096   2.427  0.0345 -0.5092  0.3546
 1886TIP3    H1 5664   3.759   2.130   2.347 -0.6035  1.4948  1.4449
 1886TIP3    H2 5665   3.864   2.032   2.396 -0.4432 -0.0679 -1.7233
 1887TIP3   OH2 5666   5.482  -0.009   1.180  0.4679  0.2915  0.2030
 1887TIP3    H1 5667   5.477   0.041   1.262  0.2835 -1.1330  1.0882
 1887TIP3    H2 5668   5.456   0.054   1.113  0.5216  1.4668  1.2393
 1888TIP3   OH2 5669   3.584   1.705   0.253 -0.5549 -0.2012 -0.0086
 1888TIP3    H1 5670   3.648   1.750   0.309 -1.1274 -0.1511  0.6221
 1888TIP3    H2 5671   3.533   1.652   0.314  0.1215 -1.7539 -0.7287
 1889TIP3   OH2 5672   2.109   3.663   1.256  0.1014  0.5680 -0.1199
 1889TIP3    H1 5673   2.172   3.602   1.294 -1.6862 -1.1495  0.2846
 1889TIP3    H2 5674   2.120   3.744   1.306  1.8643  0.2937 -0.0093
 1890TIP3   OH2 5675   4.306   4.972   2.682  0.0242  0.3013  0.0967
 1890TIP3    H1 5676   4.306   5.062   2.714  0.7092  0.5911 -0.6789
 1890TIP3    H2 5677   4.353   4.922   2.749 -0.6889  0.4375  0.7147
 1891TIP3   OH2 5678   5.041   3.064   4.771  0.0186  0.0010 -0.0607
 1891TIP3    H1 5679   4.953   3.041   4.803 -0.5242  0.8410 -0.8903
 1891TIP3    H2 5680   5.044   3.029   4.682 -0.3987  2.0122 -0.9196
 1892TIP3   OH2 5681   6.095   1.832   2.421 -0.4428  0.2839 -0.2095
 1892TIP3    H1 5682   6.167   1.883   2.458 -1.2380  0.8461  0.6073
 1892TIP3    H2 5683   6.016   1.869   2.460 -1.1734 -0.4502 -0.9298
 1893TIP3   OH2 5684   3.064   2.913   4.486 -0.3891  0.1522 -0.0993
 1893TIP3    H1 5685   3.078   2.831   4.439 -1.0165  0.5882 -1.0717
 1893TIP3    H2 5686   3.076   2.890   4.578  1.2637 -0.6373 -0.4730
 1894TIP3   OH2 5687   5.521   4.138   2.026  0.6355  0.0543 -0.4498
 1894TIP3    H1 5688   5.568   4.108   1.949  1.6010 -0.6809  0.3941
 1894TIP3    H2 5689   5.585   4.190   2.075 -0.3470  1.6221 -0.7669
 1895TIP3   OH2 5690   0.361   3.895   3.449  0.7088  0.4051  0.3658
 1895TIP3    H1 5691   0.401   3.919   3.532  1.5385 -0.1875  0.1491
 1895TIP3    H2 5692   0.272   3.929   3.454  1.0618  1.2461  1.0891
 1896TIP3   OH2 5693   1.777   0.185   2.399  0.0053  0.1918  0.3892
 1896TIP3    H1 5694   1.747   0.271   2.368 -0.9967 -0.3086 -0.0776
 1896TIP3    H2 5695   1.698   0.131   2.400  0.5136 -0.5720  1.2449
 1897TIP3   OH2 5696   1.489   3.726   2.118  0.4475  0.1178 -0.0324
 1897TIP3    H1 5697   1.423   3.790   2.094 -1.0470 -1.5056 -0.4262
 1897TIP3    H2 5698   1.559   3.778   2.159  1.1375  2.4799 -3.7466
 1898TIP3   OH2 5699   2.831   2.423   3.774  0.0235 -0.3740  0.1525
 1898TIP3    H1 5700   2.875   2.365   3.712  1.5543  0.6831  0.2115
 1898TIP3    H2 5701   2.900   2.477   3.810 -0.9985 -0.1897  1.9774
 1899TIP3   OH2 5702   0.913   5.737   3.671 -0.3909  0.1138  0.6754
 1899TIP3    H1 5703   0.876   5.781   3.594 -2.4893 -0.9922  0.9514
 1899TIP3    H2 5704   0.963   5.664   3.634 -0.1720  0.4422  0.3187
 1900TIP3   OH2 5705   5.079   4.632   5.140  0.0027  0.4732  0.3751
 1900TIP3    H1 5706   5.068   4.724   5.115  1.6592  1.0843  1.7221
 1900TIP3    H2 5707   4.989   4.600   5.152 -0.6889  1.3255 -1.9777
 1901TIP3   OH2 5708   0.437   2.212   2.103  0.2435  0.2553  0.4937
 1901TIP3    H1 5709   0.415   2.121   2.127 -0.1771  0.8247  2.5018
 1901TIP3    H2 5710   0.531   2.219   2.122  0.7358 -0.2530 -1.5159
 1902TIP3   OH2 5711   2.327   5.942   0.515  0.3475  0.2881 -0.7445
 1902TIP3    H1 5712   2.339   6.035   0.497 -1.5394  0.9191  0.8618
 1902TIP3    H2 5713   2.253   5.939   0.576  0.1300 -2.2957 -1.0274
 1903TIP3   OH2 5714   2.128   5.775   1.181 -0.2701  0.4893 -0.4503
 1903TIP3    H1 5715   2.202   5.715   1.168 -0.5106  0.5666 -2.3955
 1903TIP3    H2 5716   2.133   5.799   1.274  2.0867  0.4342 -0.5076
 1904TIP3   OH2 5717   2.766   4.615   2.605 -0.4989  0.5053 -0.2892
 1904TIP3    H1 5718   2.850   4.600   2.650  0.1977  0.1013 -1.6854
 1904TIP3    H2 5719   2.729   4.528   2.594 -1.5591  0.7475  1.1164
 1905TIP3   OH2 5720   5.121   0.659   4.157 -0.1241 -0.3901 -0.0465
 1905TIP3    H1 5721   5.131   0.565   4.142 -0.3304 -0.2853 -0.8696
 1905TIP3    H2 5722   5.068   0.690   4.084 -0.1250  0.3578  0.2584
 1906TIP3   OH2 5723   1.033   4.939   1.129  0.1072  0.2120 -0.1753
 1906TIP3    H1 5724   0.964   4.880   1.098 -0.0325  0.0677  0.3917
 1906TIP3    H2 5725   1.040   5.006   1.061  0.9724 -0.9930 -1.3490
 1907TIP3   OH2 5726   3.052   0.856   4.236 -0.2658  0.1115 -0.2633
 1907TIP3    H1 5727   3.070   0.949   4.220 -1.1884 -0.0007 -2.2701
 1907TIP3    H2 5728   3.060   0.846   4.331  0.7004  2.0472 -0.0922
 1908TIP3   OH2 5729   0.271   0.367   3.614 -0.1778  0.1466 -0.4153
 1908TIP3    H1 5730   0.188   0.366   3.566 -1.0899 -0.6987  1.1136
 1908TIP3    H2 5731   0.335   0.330   3.553 -1.0386  0.1883 -1.3744
 1909TIP3   OH2 5732   1.819   4.510   1.342  0.3417  0.0517 -0.2040
 1909TIP3    H1 5733   1.731   4.548   1.341  0.2112 -0.2319 -2.1260
 1909TIP3    H2 5734   1.877   4.584   1.322  0.6757  0.4326  1.9331
 1910TIP3   OH2 5735   0.198   5.199   3.170 -0.2851 -0.3637 -0.1695
 1910TIP3    H1 5736   0.165   5.110   3.158 -0.7237 -0.1535 -0.5960
 1910TIP3    H2 5737   0.239   5.199   3.256 -0.1275 -1.0228 -0.2406
 1911TIP3   OH2 5738   5.291   3.629   3.382  0.1246  0.0005  0.0372
 1911TIP3    H1 5739   5.342   3.667   3.454  0.0640  0.1251  0.0156
 1911TIP3    H2 5740   5.343   3.554   3.353  1.6903  1.6319 -1.7438
 1912TIP3   OH2 5741   6.265   1.840   4.795 -0.0885 -0.6784 -0.3118
 1912TIP3    H1 5742   6.210   1.792   4.732 -1.0107 -2.6543  1.8219
 1912TIP3    H2 5743   6.208   1.909   4.829  0.5233  0.6161 -1.8034
 1913TIP3   OH2 5744   3.322   5.458   0.190 -0.0881  0.0343  0.4160
 1913TIP3    H1 5745   3.377   5.465   0.112  0.0479  0.0303  0.5125
 1913TIP3    H2 5746   3.273   5.376   0.177 -0.4242  0.2820  0.1040
 1914TIP3   OH2 5747   0.281   3.119   3.685 -0.0820 -0.0286 -0.3801
 1914TIP3    H1 5748   0.225   3.081   3.752  2.5412  0.1745  2.1274
 1914TIP3    H2 5749   0.289   3.052   3.618  0.6928 -2.1122  1.6795
 1915TIP3   OH2 5750   1.296   1.956   3.562 -0.0092 -0.5182 -0.4059
 1915TIP3    H1 5751   1.321   1.903   3.638 -1.5604  0.3768  0.7887
 1915TIP3    H2 5752   1.207   1.927   3.542 -0.0752  0.1489 -1.0877
 1916TIP3   OH2 5753   1.023   3.257   1.711  0.6382 -0.1328 -0.4670
 1916TIP3    H1 5754   0.962   3.245   1.638 -1.2476 -2.5043  1.3351
 1916TIP3    H2 5755   0.983   3.324   1.765  0.2005 -0.8863  0.1502
 1917TIP3   OH2 5756   1.670   5.368   1.972 -0.5283 -0.4844  0.3495
 1917TIP3    H1 5757   1.682   5.357   2.067  1.4761 -0.9921  0.0783
 1917TIP3    H2 5758   1.709   5.454   1.953 -1.2975 -0.1993  0.0372
 1918TIP3   OH2 5759   1.707   5.898   3.248 -0.4316  0.1147 -0.0376
 1918TIP3    H1 5760   1.705   5.907   3.343 -0.6218  0.5784 -0.0823
 1918TIP3    H2 5761   1.762   5.821   3.232 -1.2817 -0.6227  0.4927
 1919TIP3   OH2 5762   1.425   0.105   2.116 -0.1438  0.5792  0.2522
 1919TIP3    H1 5763   1.501   0.061   2.077  1.5597  1.0689  2.7438
 1919TIP3    H2 5764   1.359   0.036   2.125  1.3696 -0.8207  1.3103
 1920TIP3   OH2 5765   2.307   0.116   3.605  0.3746  0.5475 -0.1422
 1920TIP3    H1 5766   2.386   0.063   3.597  0.3688  0.4303  0.5062
 1920TIP3    H2 5767   2.333   0.190   3.660 -0.1175  0.2007  0.5621
 1921TIP3   OH2 5768   2.173   0.345   1.448  0.0635 -0.3409  0.1258
 1921TIP3    H1 5769   2.166   0.286   1.523 -2.8433  1.0198  1.0662
 1921TIP3    H2 5770   2.167   0.288   1.372  2.3094 -1.6707  0.8239
 1922TIP3   OH2 5771   6.145   0.295   2.788  0.1416 -0.0932  0.2528
 1922TIP3    H1 5772   6.164   0.217   2.840  0.0271 -0.1864  0.1551
 1922TIP3    H2 5773   6.050   0.305   2.793 -0.1488 -1.3485 -1.6937
 1923TIP3   OH2 5774   3.271   0.549   1.403 -0.2720  0.2753 -0.1714
 1923TIP3    H1 5775   3.204   0.501   1.452 -0.7892  1.0408 -0.1149
 1923TIP3    H2 5776   3.234   0.637   1.391 -0.4087 -0.0402 -2.4426
 1924TIP3   OH2 5777   5.974   2.972   4.595  0.5601  0.0407  0.0713
 1924TIP3    H1 5778   5.922   3.029   4.651  3.3366  0.8175  2.0656
 1924TIP3    H2 5779   5.919   2.957   4.518 -1.6964  2.4682  1.0760
 1925TIP3   OH2 5780   2.035   3.618   4.684 -0.2569  0.1146 -0.2056
 1925TIP3    H1 5781   2.015   3.555   4.753  0.8691  1.1908  1.1649
 1925TIP3    H2 5782   2.130   3.613   4.673 -0.2383  1.0477 -0.5850
 1926TIP3   OH2 5783   4.145   3.531   0.623 -0.0910 -0.0187  0.6435
 1926TIP3    H1 5784   4.065   3.535   0.675  0.3427  2.8460  1.2289
 1926TIP3    H2 5785   4.212   3.501   0.684 -0.4381 -1.1862  0.4757
 1927TIP3   OH2 5786   3.480   1.573   3.668  0.0075  0.1392  0.4773
 1927TIP3    H1 5787   3.567   1.541   3.645 -0.6025 -0.5823 -0.9900
 1927TIP3    H2 5788   3.440   1.596   3.584 -1.0287  0.9893  1.1676
 1928TIP3   OH2 5789   2.002   2.214   2.263  0.1644  0.4993  0.3433
 1928TIP3    H1 5790   1.934   2.281   2.266 -0.2079  0.1005  1.9551
 1928TIP3    H2 5791   1.961   2.136   2.302  1.4102  0.1532  1.0311
 1929TIP3   OH2 5792   6.271   1.722   2.813 -0.2766 -0.1359  1.0025
 1929TIP3    H1 5793   6.365   1.712   2.797 -0.2582  0.9146  0.3292
 1929TIP3    H2 5794   6.254   1.670   2.892  0.4201 -2.1419 -0.1005
 1930TIP3   OH2 5795   2.259   2.863   0.190 -0.1541  0.3968  0.3807
 1930TIP3    H1 5796   2.299   2.874   0.104 -2.8154 -1.7771 -1.3009
 1930TIP3    H2 5797   2.324   2.814   0.241  1.3653  1.5122 -0.3908
 1931TIP3   OH2 5798   3.970   5.929   1.310 -0.0528  0.1505 -0.3361
 1931TIP3    H1 5799   4.060   5.908   1.332 -0.8444 -2.2394  1.0010
 1931TIP3    H2 5800   3.976   6.006   1.253  2.7355  0.5424  0.3562
 1932TIP3   OH2 5801   5.315   4.999   2.159 -0.4788  0.0119 -0.4892
 1932TIP3    H1 5802   5.315   5.027   2.067  0.9099 -0.1608 -0.5652
 1932TIP3    H2 5803   5.304   4.904   2.156  0.5315 -0.1186 -0.5533
 1933TIP3   OH2 5804   5.952   1.489   3.314 -0.8289 -0.3327 -0.0274
 1933TIP3    H1 5805   5.965   1.421   3.381  0.8241 -0.4226 -0.3834
 1933TIP3    H2 5806   5.930   1.568   3.364  0.1949 -0.4389  0.6412
 1934TIP3   OH2 5807   5.014   3.061   0.955  0.2566 -0.0479  0.1568
 1934TIP3    H1 5808   5.063   2.978   0.954  0.0353 -0.2006  1.1507
 1934TIP3    H2 5809   5.031   3.099   0.869 -1.1209 -1.9926 -1.0726
 1935TIP3   OH2 5810   0.964   1.065   2.498  0.0442 -0.2898  0.2259
 1935TIP3    H1 5811   0.964   1.004   2.572 -0.3595  0.0717  0.5352
 1935TIP3    H2 5812   1.040   1.041   2.446  1.8752  1.0879  2.1331
 1936TIP3   OH2 5813   6.143   4.941   2.242  0.2565  0.4051  0.5261
 1936TIP3    H1 5814   6.176   4.869   2.296 -3.3119 -0.5844  1.7267
 1936TIP3    H2 5815   6.117   5.008   2.306  0.0194  1.1335 -0.3109
 1937TIP3   OH2 5816   2.333   4.546   0.369  0.2213 -0.0585  0.0103
 1937TIP3    H1 5817   2.359   4.498   0.291 -1.8062  0.6360 -1.1626
 1937TIP3    H2 5818   2.283   4.482   0.421 -1.7923  0.4839 -1.1727
 1938TIP3   OH2 5819   4.967   4.211   3.874 -0.2581 -0.0975  0.1161
 1938TIP3    H1 5820   4.991   4.254   3.956 -0.9792  0.6191 -0.0371
 1938TIP3    H2 5821   5.004   4.123   3.882 -3.0883 -1.2416  2.6904
 1939TIP3   OH2 5822   4.602   2.353   3.566  0.5261  0.7526  0.0030
 1939TIP3    H1 5823   4.637   2.273   3.603  1.3014  0.7491 -0.6891
 1939TIP3    H2 5824   4.528   2.376   3.622  0.9368  0.1235  0.8209
 1940TIP3   OH2 5825   5.458   0.540   4.227 -0.0848  0.1584 -0.3020
 1940TIP3    H1 5826   5.463   0.635   4.221  1.7953  0.0810 -0.4787
 1940TIP3    H2 5827   5.370   0.519   4.196 -0.4961  1.8183 -0.3692
 1941TIP3   OH2 5828   1.087   3.291   3.874  0.3688  0.4487  0.1429
 1941TIP3    H1 5829   1.171   3.310   3.832  0.8937  1.5707  1.6158
 1941TIP3    H2 5830   1.021   3.324   3.813  1.0946  1.7387  0.0202
 1942TIP3   OH2 5831   3.590   2.079   4.989  0.2186 -0.2277 -0.2672
 1942TIP3    H1 5832   3.648   2.081   4.913  0.2726  0.9922 -0.2142
 1942TIP3    H2 5833   3.623   2.008   5.043  1.3591  0.1135 -0.4868
 1943TIP3   OH2 5834   3.226   5.556   3.263 -0.6035 -0.1387 -0.3720
 1943TIP3    H1 5835   3.286   5.631   3.260 -0.8622  0.1491  0.8296
 1943TIP3    H2 5836   3.140   5.594   3.247 -0.6351 -0.3263 -0.6533
 1944TIP3   OH2 5837   4.176   2.268   0.386 -0.0563  0.0843 -0.4053
 1944TIP3    H1 5838   4.120   2.273   0.308  2.3401 -0.8065 -2.2829
 1944TIP3    H2 5839   4.138   2.197   0.439  0.4796 -2.0138 -2.6873
 1945TIP3   OH2 5840   3.934   0.112   0.354 -0.4303 -0.6807 -0.2661
 1945TIP3    H1 5841   3.855   0.067   0.384 -2.2740 -0.0270 -3.6033
 1945TIP3    H2 5842   3.913   0.205   0.361  1.1081 -0.3899  1.1657
 1946TIP3   OH2 5843   5.681   2.068   5.137  0.3100  0.4992  0.0526
 1946TIP3    H1 5844   5.717   2.108   5.058  1.2128 -0.1982  0.0886
 1946TIP3    H2 5845   5.731   1.987   5.147 -1.4234 -0.6201  0.0050
 1947TIP3   OH2 5846   4.890   0.395   5.069 -0.0155  0.3122  0.6215
 1947TIP3    H1 5847   4.918   0.486   5.060  1.1985 -0.1242 -0.3265
 1947TIP3    H2 5848   4.841   0.377   4.988 -2.5410  0.8452  1.9360
 1948TIP3   OH2 5849   2.617   3.938   3.798 -0.5104 -0.1344 -0.1323
 1948TIP3    H1 5850   2.709   3.925   3.776 -0.8506  0.0761 -1.7728
 1948TIP3    H2 5851   2.585   3.850   3.818 -0.1852 -0.3306 -0.4692
 1949TIP3   OH2 5852   1.001   4.949   1.755 -0.3177  0.4503 -0.0645
 1949TIP3    H1 5853   1.088   4.910   1.762 -0.6808 -0.7187 -1.5428
 1949TIP3    H2 5854   0.964   4.941   1.843  0.5583 -0.2629  0.2521
 1950TIP3   OH2 5855   6.139   2.780   4.251  0.1919 -0.3910  0.1200
 1950TIP3    H1 5856   6.089   2.698   4.256 -0.2276 -0.0958  1.0567
 1950TIP3    H2 5857   6.224   2.754   4.217  0.0292 -1.2126  0.3153
 1951TIP3   OH2 5858   2.152   2.241   0.382  0.0758 -0.2887 -0.3932
 1951TIP3    H1 5859   2.206   2.313   0.351  0.3558  0.0162  0.7620
 1951TIP3    H2 5860   2.204   2.163   0.364  1.8685  0.1047  2.4474
 1952TIP3   OH2 5861   2.251   0.589   0.762  0.0432  0.2587 -0.1512
 1952TIP3    H1 5862   2.244   0.661   0.824  1.6086 -1.3625  2.0556
 1952TIP3    H2 5863   2.161   0.556   0.753 -0.6224  2.1351 -0.8742
 1953TIP3   OH2 5864   0.688   5.076   2.639 -0.2092  0.2803 -0.2829
 1953TIP3    H1 5865   0.738   5.084   2.558 -0.1138  0.8044 -0.1742
 1953TIP3    H2 5866   0.684   5.165   2.674 -1.9513  0.4162 -0.7223
 1954TIP3   OH2 5867   4.132   3.990   3.709  0.3621 -0.3103 -0.0770
 1954TIP3    H1 5868   4.078   3.914   3.729 -1.3429  1.0731  0.9236
 1954TIP3    H2 5869   4.147   3.985   3.615 -1.7203 -0.6805 -0.4494
 1955TIP3   OH2 5870   2.859   2.072   1.732 -0.1529 -0.3073  0.6300
 1955TIP3    H1 5871   2.809   2.118   1.665  1.5614  1.4790  0.4720
 1955TIP3    H2 5872   2.805   1.997   1.756 -2.3255  0.8641 -0.3374
 1956TIP3   OH2 5873   5.051   2.788   3.690  0.3191 -0.4370  0.3607
 1956TIP3    H1 5874   5.018   2.874   3.716 -0.6602 -0.1766 -1.5868
 1956TIP3    H2 5875   4.981   2.728   3.715  0.8613 -0.6609  1.4127
 1957TIP3   OH2 5876   1.243   0.149   3.304  0.2032  0.3340 -0.3010
 1957TIP3    H1 5877   1.288   0.067   3.281  1.5848  0.1021  2.7318
 1957TIP3    H2 5878   1.312   0.215   3.305 -0.3510  0.9160  0.1314
 1958TIP3   OH2 5879   5.586   1.011   3.619  0.3325 -0.0993 -0.3823
 1958TIP3    H1 5880   5.608   1.043   3.707 -0.6733  0.6138 -0.3630
 1958TIP3    H2 5881   5.667   1.019   3.569  1.2841 -1.7816  0.8137
 1959TIP3   OH2 5882   4.125   0.617   3.460  0.0038  0.4466  0.1769
 1959TIP3    H1 5883   4.142   0.694   3.515  2.2926 -0.9176  1.5356
 1959TIP3    H2 5884   4.075   0.558   3.516 -0.7808  0.4600 -0.4858
 1960TIP3   OH2 5885   3.790   0.350   0.452 -0.0286  0.3982  0.0602
 1960TIP3    H1 5886   3.734   0.335   0.528  0.0384 -2.5664 -0.3776
 1960TIP3    H2 5887   3.730   0.350   0.377  0.3676 -1.8009 -0.3133
 1961TIP3   OH2 5888   6.020   2.841   5.006 -0.4538  0.0905  0.7614
 1961TIP3    H1 5889   5.987   2.908   5.066 -0.5918 -0.0663  0.8592
 1961TIP3    H2 5890   6.114   2.836   5.026  0.0114  1.7998 -0.7229
 1962TIP3   OH2 5891   0.049   3.961  -0.002 -0.4865  0.2641 -0.3838
 1962TIP3    H1 5892   0.113   3.934   0.064  0.5909  0.1992 -1.4137
 1962TIP3    H2 5893  -0.016   4.012   0.046 -1.1531 -1.9445  1.1589
 1963TIP3   OH2 5894   4.117   5.710   1.590 -0.2570 -0.1207 -0.3836
 1963TIP3    H1 5895   4.022   5.717   1.603 -0.3706 -0.2266 -1.1110
 1963TIP3    H2 5896   4.138   5.620   1.615 -0.4562 -0.2892 -0.7961
 1964TIP3   OH2 5897   2.382   4.923   1.898 -0.2794  0.3422 -0.2000
 1964TIP3    H1 5898   2.362   4.851   1.958 -1.0639  0.2767 -0.5311
 1964TIP3    H2 5899   2.317   4.915   1.828 -0.3819  1.3740 -0.2356
 1965TIP3   OH2 5900   1.280   2.683   2.192 -0.5186 -0.6165 -0.3425
 1965TIP3    H1 5901   1.344   2.665   2.123 -0.9203  0.3685 -0.9954
 1965TIP3    H2 5902   1.210   2.620   2.177  0.3333 -1.7938  0.4608
 1966TIP3   OH2 5903   2.114   0.160   3.982  0.1791  0.4499  0.7201
 1966TIP3    H1 5904   2.028   0.190   4.009 -0.4166 -1.1161  0.6919
 1966TIP3    H2 5905   2.096   0.094   3.915  1.5208  2.4529 -1.8029
 1967TIP3   OH2 5906   3.716   1.447   5.087 -0.3123 -0.7877  0.1435
 1967TIP3    H1 5907   3.729   1.457   4.992  0.3615  1.4790  0.4065
 1967TIP3    H2 5908   3.622   1.462   5.099 -0.2982 -0.4520 -0.1221
 1968TIP3   OH2 5909   5.579   3.512   0.119  0.6608  0.0167 -0.0171
 1968TIP3    H1 5910   5.597   3.477   0.206  3.0075 -1.4875 -0.9871
 1968TIP3    H2 5911   5.507   3.459   0.085  0.5671 -0.2157  0.5400
 1969TIP3   OH2 5912   0.097   0.690   2.766 -0.8907  0.2833 -0.1207
 1969TIP3    H1 5913   0.010   0.723   2.790 -1.4476  1.9462 -3.7117
 1969TIP3    H2 5914   0.081   0.628   2.695  0.8136  1.8701 -2.0444
 1970TIP3   OH2 5915   3.270   1.430   3.785 -0.0678 -0.5556  0.0581
 1970TIP3    H1 5916   3.317   1.509   3.810 -2.8177  1.8132 -1.6712
 1970TIP3    H2 5917   3.330   1.385   3.724  1.2997  0.4576  0.5977
 1971TIP3   OH2 5918   1.147   0.354   1.316  0.1407 -0.4150  0.7429
 1971TIP3    H1 5919   1.156   0.341   1.410 -0.4018  1.7834  1.1640
 1971TIP3    H2 5920   1.056   0.331   1.298  0.2022 -0.6925  0.7888
 1972TIP3   OH2 5921   5.594   0.520   1.909 -0.6148  0.1141 -0.2585
 1972TIP3    H1 5922   5.529   0.544   1.974  1.2318  0.3659  1.6030
 1972TIP3    H2 5923   5.609   0.601   1.860 -1.0042  0.3098 -0.0594
 1973TIP3   OH2 5924   1.291   2.511   5.041 -0.0423  0.0177  0.4906
 1973TIP3    H1 5925   1.368   2.543   5.088  0.4230 -1.4478  0.7676
 1973TIP3    H2 5926   1.278   2.574   4.970 -0.5966  2.1225  2.3585
 1974TIP3   OH2 5927   2.804   1.395   3.395 -0.2543  0.1029 -0.1659
 1974TIP3    H1 5928   2.781   1.343   3.318  0.7510 -0.6784  0.0406
 1974TIP3    H2 5929   2.723   1.438   3.420 -0.4635  0.8955 -2.0531
 1975TIP3   OH2 5930   6.103   5.909   4.521  0.0933  0.9051 -0.1601
 1975TIP3    H1 5931   6.030   5.848   4.507  1.0438 -0.6564  1.3040
 1975TIP3    H2 5932   6.071   5.969   4.588 -0.1134  0.7013 -0.0730
 1976TIP3   OH2 5933   1.386   1.582   1.762  0.1182  0.0825  0.2658
 1976TIP3    H1 5934   1.329   1.658   1.750  1.1028  0.8986  0.6460
 1976TIP3    H2 5935   1.474   1.618   1.771  0.4447 -0.9899  1.8648
 1977TIP3   OH2 5936   0.518   1.109   3.190  0.2474 -0.3893  0.0292
 1977TIP3    H1 5937   0.551   1.182   3.138  1.9766 -1.4277 -0.4247
 1977TIP3    H2 5938   0.430   1.136   3.217  0.3285  1.2771 -1.2250
 1978TIP3   OH2 5939   2.482   1.807   2.172  0.3388  0.3166  0.6877
 1978TIP3    H1 5940   2.563   1.767   2.201  0.7826  0.3027 -0.4959
 1978TIP3    H2 5941   2.413   1.758   2.217  0.8748 -1.5647 -0.4221
 1979TIP3   OH2 5942   1.143   4.745   3.793  0.0884  0.1741 -0.0844
 1979TIP3    H1 5943   1.117   4.655   3.810 -1.8340  0.3686 -1.5711
 1979TIP3    H2 5944   1.102   4.766   3.709 -0.6563  2.8510  0.8487
 1980TIP3   OH2 5945   1.801   1.912   1.483 -0.1248 -0.7182 -0.2726
 1980TIP3    H1 5946   1.864   1.849   1.448 -0.0489 -0.8132  0.0324
 1980TIP3    H2 5947   1.846   1.953   1.556 -0.5526 -1.0748  0.2006
 1981TIP3   OH2 5948   5.766   0.327   4.556  0.2747 -0.4435 -0.1784
 1981TIP3    H1 5949   5.703   0.386   4.517 -0.1984 -0.9520 -0.2010
 1981TIP3    H2 5950   5.717   0.279   4.623  0.6751 -0.7217 -0.0727
 1982TIP3   OH2 5951   5.926   3.211   4.760 -0.2306  0.2381 -0.3784
 1982TIP3    H1 5952   6.021   3.222   4.751 -0.0174 -1.5406 -0.5588
 1982TIP3    H2 5953   5.908   3.231   4.852  1.1437 -4.1285  1.0883
 1983TIP3   OH2 5954   0.492   0.182   3.021 -0.0090 -0.2588  0.0219
 1983TIP3    H1 5955   0.472   0.272   3.047 -0.3883 -0.1554 -0.6157
 1983TIP3    H2 5956   0.509   0.136   3.104 -1.3443  0.0198  0.4699
 1984TIP3   OH2 5957   0.298   2.307   3.539 -0.2958 -0.2622 -0.1343
 1984TIP3    H1 5958   0.342   2.267   3.464  0.8368  0.8847 -0.1160
 1984TIP3    H2 5959   0.370   2.337   3.596 -1.1187  0.4386  0.5649
 1985TIP3   OH2 5960   5.538   4.210   0.476 -0.6335  0.3926 -0.4616
 1985TIP3    H1 5961   5.580   4.291   0.503  0.2318 -0.1880 -0.0008
 1985TIP3    H2 5962   5.506   4.171   0.557 -1.4299  0.4776 -0.7274
 1986TIP3   OH2 5963   3.150   2.121   1.757 -0.5172 -0.5982  0.0387
 1986TIP3    H1 5964   3.059   2.115   1.788 -0.5131  0.7244  0.3631
 1986TIP3    H2 5965   3.201   2.078   1.825 -0.8732 -1.2905 -0.1108
 1987TIP3   OH2 5966   0.499   3.995   2.981 -0.5137 -0.4890 -0.0636
 1987TIP3    H1 5967   0.542   4.075   2.952 -0.4072 -0.3755  0.4084
 1987TIP3    H2 5968   0.418   3.991   2.929 -1.2497  0.7028  0.9594
 1988TIP3   OH2 5969   1.010   1.103   2.882 -0.1584  0.5727  0.1449
 1988TIP3    H1 5970   1.012   1.021   2.833 -0.5311  0.2390  0.6797
 1988TIP3    H2 5971   1.076   1.093   2.950  0.8968  1.3328 -0.7260
 1989TIP3   OH2 5972   5.247   4.711   2.113 -0.0799  0.6350 -0.2833
 1989TIP3    H1 5973   5.155   4.713   2.085 -0.2419  2.0131  0.2597
 1989TIP3    H2 5974   5.296   4.730   2.033 -0.3430  1.0932 -0.3403
 1990TIP3   OH2 5975   0.598   0.809   0.845 -0.1508 -0.1397  0.4693
 1990TIP3    H1 5976   0.531   0.764   0.897 -1.0060 -0.1981 -0.6619
 1990TIP3    H2 5977   0.638   0.871   0.907 -1.7061  0.3677  1.0151
 1991TIP3   OH2 5978   5.224   3.200   3.742  0.1941 -0.2284 -0.6478
 1991TIP3    H1 5979   5.146   3.143   3.742  0.0652 -0.0600 -1.2319
 1991TIP3    H2 5980   5.260   3.191   3.830  0.4636 -1.6209 -0.8804
 1992TIP3   OH2 5981   5.224   3.674   0.693 -0.2093  0.1135 -0.1789
 1992TIP3    H1 5982   5.158   3.738   0.719 -0.8346 -0.4816 -0.2621
 1992TIP3    H2 5983   5.212   3.601   0.753 -1.2189 -0.9942 -1.6428
 1993TIP3   OH2 5984   3.406   3.996   2.320 -0.1264  0.8186 -0.4439
 1993TIP3    H1 5985   3.442   4.002   2.408 -1.3658 -0.8923  0.2411
 1993TIP3    H2 5986   3.437   3.912   2.286 -2.2603 -0.0846 -0.3361
 1994TIP3   OH2 5987   4.863   1.642   1.360 -0.3032  0.0618 -0.0767
 1994TIP3    H1 5988   4.907   1.717   1.401  0.5509  0.7403 -2.0888
 1994TIP3    H2 5989   4.810   1.682   1.290  0.4034 -1.1982 -1.3857
 1995TIP3   OH2 5990   5.461   1.677   2.982 -0.1218  0.5340  0.1060
 1995TIP3    H1 5991   5.372   1.671   2.948 -0.1331  0.3256  0.1708
 1995TIP3    H2 5992   5.497   1.756   2.941  0.2992 -0.4036 -1.4041
 1996TIP3   OH2 5993   1.875   5.756   5.153  0.1695  0.6217 -0.1936
 1996TIP3    H1 5994   1.819   5.705   5.211 -0.1952 -0.1474 -1.1866
 1996TIP3    H2 5995   1.833   5.842   5.148 -0.7418  0.1622 -0.6482
 1997TIP3   OH2 5996   2.857   4.735   1.980  0.3320 -0.7106 -0.5959
 1997TIP3    H1 5997   2.795   4.801   1.949 -0.0926 -0.4325  0.7717
 1997TIP3    H2 5998   2.935   4.749   1.926  0.0362  0.4926 -0.7560
 1998TIP3   OH2 5999   3.600   3.387   1.091  0.4475  0.2021 -0.3422
 1998TIP3    H1 6000   3.581   3.304   1.135 -1.1201  1.1871  0.9698
 1998TIP3    H2 6001   3.685   3.413   1.124 -0.3565  0.5410  1.6193
 1999TIP3   OH2 6002   6.164   3.864   1.777 -0.0005 -0.0354  0.2730
 1999TIP3    H1 6003   6.258   3.852   1.767  0.0445 -0.6240  1.3418
 1999TIP3    H2 6004   6.128   3.775   1.774 -0.6486  0.2381 -1.1458
 2000TIP3   OH2 6005   4.333   5.866   4.631  0.2871 -0.3479 -0.1310
 2000TIP3    H1 6006   4.415   5.913   4.613 -1.3991  3.7171  1.6668
 2000TIP3    H2 6007   4.290   5.861   4.546  0.5477  1.4724 -0.4099
 2001TIP3   OH2 6008   4.124   3.588   1.064 -0.3741  0.3748 -0.3770
 2001TIP3    H1 6009   4.044   3.542   1.089 -0.2476  0.3649  0.0064
 2001TIP3    H2 6010   4.180   3.521   1.025 -0.9035  0.5423 -1.4905
 2002TIP3   OH2 6011   4.606   0.573   4.891  0.4236  0.3835  0.2991
 2002TIP3    H1 6012   4.658   0.537   4.819 -0.8560 -0.7887 -0.0684
 2002TIP3    H2 6013   4.544   0.633   4.849 -2.3976 -2.5495 -0.0910
 2003TIP3   OH2 6014   5.921   4.056   0.160 -0.0564 -0.8890  0.5331
 2003TIP3    H1 6015   5.846   4.044   0.219  0.2139  1.7932  1.5652
 2003TIP3    H2 6016   5.881   4.078   0.075 -0.4587  0.2068  0.9953
 2004TIP3   OH2 6017   0.999   0.910   1.182 -0.2556  0.0049  0.0701
 2004TIP3    H1 6018   0.909   0.888   1.207  0.8495 -3.1813  1.8759
 2004TIP3    H2 6019   1.051   0.884   1.258  2.2325  2.0004 -0.8174
 2005TIP3   OH2 6020   1.062   3.063   4.387  0.3296 -0.3564  0.6029
 2005TIP3    H1 6021   1.058   3.159   4.388 -0.3859 -0.3629 -0.6316
 2005TIP3    H2 6022   1.061   3.039   4.295  0.8709 -1.5530  0.8842
 2006TIP3   OH2 6023   4.643   4.428   3.027  0.3245  0.1455  0.3392
 2006TIP3    H1 6024   4.733   4.412   2.998  0.3918  2.1841 -0.7599
 2006TIP3    H2 6025   4.651   4.454   3.119  0.6555 -1.2089  0.7208
 2007TIP3   OH2 6026   3.531   1.929   1.985 -0.5311  0.2142  0.0499
 2007TIP3    H1 6027   3.446   1.895   1.959 -0.3522  0.1331 -0.4357
 2007TIP3    H2 6028   3.593   1.861   1.961 -0.5155 -0.6675  2.3126
 2008TIP3   OH2 6029   0.629   4.293   3.202  0.3283 -0.1182 -0.1396
 2008TIP3    H1 6030   0.574   4.220   3.230 -3.6482  1.8093 -2.0962
 2008TIP3    H2 6031   0.667   4.265   3.119 -1.3089 -0.0371 -0.9610
 2009TIP3   OH2 6032   4.146   0.950   3.892  0.5219  0.2529 -0.1685
 2009TIP3    H1 6033   4.159   0.976   3.983 -1.4567  2.1796 -0.3747
 2009TIP3    H2 6034   4.085   1.014   3.857  1.7428 -0.0428 -3.0742
 2010TIP3   OH2 6035   4.661   5.113   4.348  0.4360  0.6740 -0.5869
 2010TIP3    H1 6036   4.586   5.066   4.312 -0.2722  1.2963  0.0465
 2010TIP3    H2 6037   4.723   5.044   4.373 -1.3176 -0.0929  2.0088
 2011TIP3   OH2 6038   0.492   3.644   3.288 -0.3326 -0.2531 -0.2262
 2011TIP3    H1 6039   0.460   3.728   3.254  0.4813 -0.4316 -1.5058
 2011TIP3    H2 6040   0.557   3.616   3.224  0.8921 -0.8816  1.2393
 2012TIP3   OH2 6041   0.779   0.553   1.412  0.1905 -0.4597  0.0607
 2012TIP3    H1 6042   0.848   0.566   1.477 -0.2432  0.0833  0.4262
 2012TIP3    H2 6043   0.722   0.629   1.422  0.7875  0.2906 -1.8289
 2013TIP3   OH2 6044   2.901   5.785   0.910  0.0559 -0.2264 -0.0090
 2013TIP3    H1 6045   2.909   5.810   1.002  0.2631  0.1577 -0.1278
 2013TIP3    H2 6046   2.811   5.753   0.901 -0.4307  1.0801  0.0103
 2014TIP3   OH2 6047   2.361   0.212   3.347  0.1531  0.7802 -0.9182
 2014TIP3    H1 6048   2.320   0.169   3.422 -1.0438  1.2754 -1.2617
 2014TIP3    H2 6049   2.290   0.225   3.285  0.8043  1.8006 -1.4846
 2015TIP3   OH2 6050   4.858   0.549   3.305 -0.1446  0.5510  0.1577
 2015TIP3    H1 6051   4.830   0.462   3.333 -0.1030  0.0895 -1.1943
 2015TIP3    H2 6052   4.951   0.552   3.329 -0.5451  0.9328  1.8340
 2016TIP3   OH2 6053   3.519   0.506   2.804 -1.0265 -0.4313  0.5715
 2016TIP3    H1 6054   3.543   0.561   2.730  0.7001  1.7265  2.6067
 2016TIP3    H2 6055   3.496   0.422   2.764  0.6178  0.3606 -2.3410
 2017TIP3   OH2 6056   6.152   3.299   3.186 -0.0069  0.3588  0.4302
 2017TIP3    H1 6057   6.215   3.271   3.120 -0.0461 -1.7238  1.2024
 2017TIP3    H2 6058   6.199   3.293   3.269 -1.3162 -1.8482  1.0924
 2018TIP3   OH2 6059   2.169   0.623   1.125  0.9426  0.0611 -0.2680
 2018TIP3    H1 6060   2.110   0.632   1.200  0.6248 -1.4518 -0.3205
 2018TIP3    H2 6061   2.256   0.640   1.161  0.6310  1.0164  0.0783
 2019TIP3   OH2 6062   5.569   0.395   5.076 -0.8122 -0.4524 -0.0965
 2019TIP3    H1 6063   5.567   0.460   5.006 -0.2348  1.3863  1.5045
 2019TIP3    H2 6064   5.591   0.445   5.155  1.2309 -2.8174  0.9738
 2020TIP3   OH2 6065   2.896   3.905   2.598 -0.2702  0.0092 -0.2073
 2020TIP3    H1 6066   2.940   3.846   2.537 -0.0277 -0.8946  0.8057
 2020TIP3    H2 6067   2.815   3.860   2.621 -1.7481  1.6194 -1.9711
 2021TIP3   OH2 6068   3.782   3.895   1.873 -0.9753 -0.2189  0.4318
 2021TIP3    H1 6069   3.750   3.884   1.963 -0.5227 -1.2286  0.4796
 2021TIP3    H2 6070   3.856   3.834   1.866 -2.4014 -1.8752 -1.3238
 2022TIP3   OH2 6071   2.426   1.172   2.709  0.4549 -0.0495 -0.5870
 2022TIP3    H1 6072   2.336   1.188   2.681  1.2210  1.0083 -2.6755
 2022TIP3    H2 6073   2.464   1.120   2.638  1.1217 -1.8645  0.9818
 2023TIP3   OH2 6074   4.875   5.436   1.358 -0.0791  0.0817 -0.1706
 2023TIP3    H1 6075   4.873   5.502   1.427  0.1736 -0.5020  0.4155
 2023TIP3    H2 6076   4.788   5.395   1.363  0.8860 -1.9461  1.8354
 2024TIP3   OH2 6077   1.836   0.468   1.505  0.0546 -0.0057  0.1929
 2024TIP3    H1 6078   1.896   0.446   1.576 -0.6119 -0.5942  0.5882
 2024TIP3    H2 6079   1.772   0.397   1.504 -1.1042  0.9995  0.3072
 2025TIP3   OH2 6080   6.212   3.091   2.025  0.2689  0.0486 -0.1421
 2025TIP3    H1 6081   6.139   3.144   2.055  1.0502  0.9944  0.1287
 2025TIP3    H2 6082   6.210   3.013   2.081 -1.1358 -0.4487 -0.8220
 2026TIP3   OH2 6083   4.475   3.194   4.190 -0.0308 -0.2071  0.2800
 2026TIP3    H1 6084   4.458   3.268   4.132 -0.3935 -0.3280  0.2321
 2026TIP3    H2 6085   4.467   3.229   4.278 -0.8219 -0.3273  0.2610
 2027TIP3   OH2 6086   4.372   4.386   0.290 -0.0758 -0.5701 -0.4387
 2027TIP3    H1 6087   4.410   4.462   0.246  0.2971 -0.2306  0.4656
 2027TIP3    H2 6088   4.327   4.422   0.366  0.1491 -1.2558  0.0292
 2028TIP3   OH2 6089   1.104   0.213   1.901 -0.1866  0.4279  0.0446
 2028TIP3    H1 6090   1.022   0.178   1.865  0.4375 -0.4963 -0.5160
 2028TIP3    H2 6091   1.076   0.280   1.964 -1.3442  1.0266 -1.0625
 2029TIP3   OH2 6092   4.225   0.429   1.878  0.0308 -0.0599 -0.2441
 2029TIP3    H1 6093   4.218   0.523   1.895 -0.0042 -0.3096  1.3237
 2029TIP3    H2 6094   4.288   0.421   1.807  1.4533  1.0715  0.8454
 2030TIP3   OH2 6095   4.425   0.451   0.115  0.8166  0.9487 -0.2989
 2030TIP3    H1 6096   4.512   0.425   0.148  1.4742  1.1857 -1.7635
 2030TIP3    H2 6097   4.366   0.435   0.189  2.1171  0.8840  0.7748
 2031TIP3   OH2 6098   0.051   0.912   4.410  0.1664 -0.6829 -0.1129
 2031TIP3    H1 6099   0.130   0.901   4.355  0.3820  0.0235  0.0382
 2031TIP3    H2 6100   0.073   0.985   4.468 -0.1906 -1.2130  0.6918
 2032TIP3   OH2 6101   4.290   3.810   1.395  0.0902  0.2010 -0.0827
 2032TIP3    H1 6102   4.307   3.777   1.307 -1.0776  1.7041 -0.9049
 2032TIP3    H2 6103   4.376   3.838   1.427  0.3568  0.7052 -1.1943
 2033TIP3   OH2 6104   0.621   1.654   3.046  0.6913  0.0718 -0.2710
 2033TIP3    H1 6105   0.603   1.748   3.053 -0.8525 -0.2838  1.0882
 2033TIP3    H2 6106   0.680   1.647   2.971  3.5542  2.4457  1.5002
 2034TIP3   OH2 6107   3.948   4.217   3.426  0.0240 -0.0308  0.2032
 2034TIP3    H1 6108   3.954   4.266   3.507 -0.1966 -0.6083  0.5746
 2034TIP3    H2 6109   4.004   4.265   3.364  1.3155 -0.3443  1.0822
 2035TIP3   OH2 6110   0.830   2.647   4.010  0.1124  0.4955 -0.3175
 2035TIP3    H1 6111   0.852   2.635   4.103 -0.2637  1.8552 -0.0297
 2035TIP3    H2 6112   0.752   2.593   3.997 -0.3704  0.9971  0.4053
 2036TIP3   OH2 6113   6.111   1.918   0.973 -0.6426  0.2098  0.4245
 2036TIP3    H1 6114   6.030   1.888   0.933 -1.5941 -0.6218  2.7854
 2036TIP3    H2 6115   6.083   1.962   1.053  1.2460 -0.6000  1.6007
 2037TIP3   OH2 6116   6.160   2.347   1.632 -0.5820  0.0823  0.1215
 2037TIP3    H1 6117   6.089   2.364   1.693 -1.3475  0.4203 -0.8376
 2037TIP3    H2 6118   6.152   2.254   1.610 -0.7919  0.1403 -0.0540
 2038TIP3   OH2 6119   5.719   5.799   2.086  0.4564 -0.6030 -0.3006
 2038TIP3    H1 6120   5.624   5.794   2.089  0.2941  1.9010  0.7357
 2038TIP3    H2 6121   5.740   5.812   1.994 -0.6097  3.0731 -0.1800
 2039TIP3   OH2 6122   4.847   0.717   4.309  0.2484 -0.1945  0.0483
 2039TIP3    H1 6123   4.832   0.658   4.234  0.8721 -0.8375  0.4170
 2039TIP3    H2 6124   4.774   0.779   4.305  0.9752  0.6412 -1.8991
 2040TIP3   OH2 6125   3.910   5.239   0.853  0.7590 -0.0629  0.1716
 2040TIP3    H1 6126   3.982   5.222   0.793  2.2331  1.6119  1.3595
 2040TIP3    H2 6127   3.840   5.275   0.799  1.4481 -0.0792 -0.7441
 2041TIP3   OH2 6128   0.877   4.491   2.355 -0.1275 -0.4242 -0.8882
 2041TIP3    H1 6129   0.938   4.484   2.282  1.0461 -0.5291  0.0704
 2041TIP3    H2 6130   0.856   4.585   2.360 -0.4198 -0.4538 -1.5152
 2042TIP3   OH2 6131   0.137   4.435   1.317 -0.1776  0.1421 -0.3345
 2042TIP3    H1 6132   0.083   4.455   1.394  0.0768 -0.6794  0.0752
 2042TIP3    H2 6133   0.125   4.341   1.304  0.5504  0.0980 -0.7135
 2043TIP3   OH2 6134   3.149   1.355   3.206 -0.5940  0.3254  0.2385
 2043TIP3    H1 6135   3.097   1.299   3.264  1.5780  1.0418  3.0905
 2043TIP3    H2 6136   3.221   1.386   3.260  0.8450  2.2456 -2.5149
 2044TIP3   OH2 6137   0.104   3.875   3.749 -0.1177  0.1519  0.1879
 2044TIP3    H1 6138   0.130   3.830   3.669  1.0271 -0.7655  1.0260
 2044TIP3    H2 6139   0.044   3.814   3.792 -1.7084  1.1676 -0.5193
 2045TIP3   OH2 6140   1.986   0.640   0.614  0.2884 -0.3768  0.1611
 2045TIP3    H1 6141   1.964   0.624   0.522 -2.5187  2.2318  0.2271
 2045TIP3    H2 6142   1.926   0.583   0.663  0.2508 -0.1407  0.3893
 2046TIP3   OH2 6143   1.369   5.622   0.434 -0.6884 -0.3071 -0.1621
 2046TIP3    H1 6144   1.452   5.595   0.473 -1.1786 -1.6650  0.0025
 2046TIP3    H2 6145   1.303   5.598   0.498 -1.3806 -1.2960 -1.1918
 2047TIP3   OH2 6146   0.432   1.317   0.063  0.5956  0.4447 -0.5723
 2047TIP3    H1 6147   0.439   1.233   0.019 -1.0049  0.3954 -0.8140
 2047TIP3    H2 6148   0.337   1.333   0.070  0.8485  2.2033 -0.5152
 2048TIP3   OH2 6149   5.416   0.546   2.487  0.4818 -0.1314  0.2474
 2048TIP3    H1 6150   5.350   0.498   2.538  0.3229  0.2048  0.3641
 2048TIP3    H2 6151   5.364   0.603   2.430  0.6750  0.9511  1.1271
 2049TIP3   OH2 6152   3.011   1.785   5.093 -0.3589  0.4233 -0.1197
 2049TIP3    H1 6153   2.980   1.809   5.180 -0.4166  0.0315 -0.0280
 2049TIP3    H2 6154   3.096   1.743   5.109  0.3578  1.7083 -0.3887
 2050TIP3   OH2 6155   3.008   5.539   0.767 -0.2392  0.3222  0.2033
 2050TIP3    H1 6156   2.928   5.516   0.814 -0.2565  2.2587  1.2089
 2050TIP3    H2 6157   3.079   5.510   0.824 -0.2605  2.2754  1.2779
 2051TIP3   OH2 6158   6.187   5.045   4.169 -0.1843  0.2312 -0.3034
 2051TIP3    H1 6159   6.281   5.040   4.186 -0.2022  0.7246 -0.0261
 2051TIP3    H2 6160   6.165   4.960   4.132  0.1301 -0.3661  0.8302
 2052TIP3   OH2 6161   4.645   0.984   0.493 -0.2139 -0.1149 -0.0399
 2052TIP3    H1 6162   4.569   1.015   0.542 -0.2843 -0.4599  0.0711
 2052TIP3    H2 6163   4.615   0.982   0.402 -0.9106 -1.8971  0.1816
 2053TIP3   OH2 6164   3.046   5.622   2.528  0.9792 -0.3285  0.2669
 2053TIP3    H1 6165   2.980   5.591   2.466  0.4234  0.7021  0.3245
 2053TIP3    H2 6166   3.103   5.546   2.542 -0.8790 -1.6206  1.1272
 2054TIP3   OH2 6167   2.396   5.396   3.124  0.2374 -0.2447 -0.5281
 2054TIP3    H1 6168   2.396   5.359   3.036 -1.5157  0.2050 -0.7701
 2054TIP3    H2 6169   2.481   5.438   3.133 -0.0455  0.9103 -2.5741
 2055TIP3   OH2 6170   3.526   1.876   2.437  0.0419  0.3700 -0.0259
 2055TIP3    H1 6171   3.619   1.894   2.426 -0.1366  1.7097  0.4797
 2055TIP3    H2 6172   3.481   1.940   2.383 -0.6514  2.7609  3.0685
 2056TIP3   OH2 6173   0.311   3.729   4.010  0.4204 -0.1960  0.4158
 2056TIP3    H1 6174   0.375   3.658   4.017  0.6517  0.0501  0.8232
 2056TIP3    H2 6175   0.231   3.686   3.978  0.8098 -0.4905 -0.1881
 2057TIP3   OH2 6176   2.266   3.395   1.712 -0.1975 -0.6203  0.3313
 2057TIP3    H1 6177   2.248   3.457   1.641  1.5480  0.9317  1.1701
 2057TIP3    H2 6178   2.181   3.355   1.731 -1.0636  0.3318 -1.3287
 2058TIP3   OH2 6179   6.108   1.900   0.579 -0.1524  0.0704 -0.2056
 2058TIP3    H1 6180   6.101   1.972   0.642 -1.5483  0.1712 -0.4506
 2058TIP3    H2 6181   6.021   1.861   0.577  0.3506 -1.0612 -0.7594
 2059TIP3   OH2 6182   5.588   4.301   4.171 -0.1073  0.2327 -0.0295
 2059TIP3    H1 6183   5.633   4.342   4.097 -0.3338  0.7770  0.1316
 2059TIP3    H2 6184   5.534   4.370   4.209  0.3918  0.1093  0.9599
 2060TIP3   OH2 6185   4.277   2.549   2.624 -0.3411  0.5781  0.3357
 2060TIP3    H1 6186   4.296   2.623   2.566  0.5730 -0.7955 -1.2333
 2060TIP3    H2 6187   4.207   2.501   2.579 -2.0578  1.2855  2.1227
 2061TIP3   OH2 6188   5.671   1.010   1.635  0.1588  0.5950  0.3298
 2061TIP3    H1 6189   5.762   1.007   1.606  0.0407 -1.3812  0.0226
 2061TIP3    H2 6190   5.621   1.033   1.556  0.2831  0.3999  0.1939
 2062TIP3   OH2 6191   6.294   0.890   0.920 -0.4554 -0.6213  0.1415
 2062TIP3    H1 6192   6.207   0.931   0.921 -0.2980 -0.1421 -1.7031
 2062TIP3    H2 6193   6.351   0.954   0.963 -0.9512 -0.8084  1.0990
 2063TIP3   OH2 6194   2.088   1.364   1.704  0.0061 -0.7018 -0.3160
 2063TIP3    H1 6195   2.084   1.318   1.787  1.8012 -0.9768 -0.3476
 2063TIP3    H2 6196   2.151   1.315   1.652  0.7438  0.8324 -0.9501
 2064TIP3   OH2 6197   2.489   0.355   0.443 -0.1926 -0.0407  0.5093
 2064TIP3    H1 6198   2.468   0.307   0.523 -1.1922  1.4189  1.1537
 2064TIP3    H2 6199   2.430   0.317   0.377 -0.0986 -0.5350  0.7043
 2065TIP3   OH2 6200   3.117   5.856   2.990  0.4883 -0.4489  0.0709
 2065TIP3    H1 6201   3.095   5.910   2.914  2.6466 -0.8735 -0.9469
 2065TIP3    H2 6202   3.131   5.769   2.954 -0.6853 -1.1944  1.3466
 2066TIP3   OH2 6203   3.411   5.639   3.660 -0.1579 -0.3120 -0.4464
 2066TIP3    H1 6204   3.362   5.678   3.587  0.9743 -0.8925 -1.5525
 2066TIP3    H2 6205   3.486   5.597   3.619  1.0289  0.1453  1.1673
 2067TIP3   OH2 6206   5.445   4.926   1.023 -0.6524 -0.7446  0.1911
 2067TIP3    H1 6207   5.379   4.924   0.953 -0.9414 -1.8045  0.4700
 2067TIP3    H2 6208   5.504   4.997   0.998 -1.6102 -0.1035 -0.3338
 2068TIP3   OH2 6209   6.261   2.112   4.121 -0.0229 -0.5188  0.9133
 2068TIP3    H1 6210   6.197   2.121   4.051 -0.6529 -0.3340  1.5050
 2068TIP3    H2 6211   6.249   2.022   4.153  0.8878 -0.9127  0.1947
 2069TIP3   OH2 6212   2.354   3.986   2.040  0.2684  0.0743  0.0644
 2069TIP3    H1 6213   2.318   3.981   1.951 -1.2041 -0.3652  0.6735
 2069TIP3    H2 6214   2.295   4.044   2.087 -0.8416 -2.1718  1.6178
 2070TIP3   OH2 6215   5.636   3.589   0.895  0.3760  0.1448 -0.0936
 2070TIP3    H1 6216   5.564   3.557   0.951  0.3134 -0.4157 -0.4916
 2070TIP3    H2 6217   5.713   3.540   0.925  0.2330 -0.5693 -0.8633
 2071TIP3   OH2 6218   4.216   5.874   1.410  0.0758 -0.0953  0.2682
 2071TIP3    H1 6219   4.212   5.823   1.491  0.7842 -1.1363 -0.3224
 2071TIP3    H2 6220   4.283   5.830   1.357 -0.7044  0.2669 -1.0782
 2072TIP3   OH2 6221   2.063   0.360   0.193  0.8622 -0.9782 -0.5978
 2072TIP3    H1 6222   2.007   0.290   0.160 -0.4863 -0.1672 -0.0991
 2072TIP3    H2 6223   2.076   0.419   0.118 -0.4474 -0.2460 -0.2778
 2073TIP3   OH2 6224   1.302   3.050   3.042 -0.5384 -0.6958 -0.0544
 2073TIP3    H1 6225   1.252   3.129   3.059  1.6020  0.2814  2.5269
 2073TIP3    H2 6226   1.241   2.978   3.060 -2.0470  0.3594 -0.8090
 2074TIP3   OH2 6227   0.761   2.889   3.883  1.3186 -0.1485  0.2849
 2074TIP3    H1 6228   0.772   2.807   3.932  0.9118 -0.3968 -0.0360
 2074TIP3    H2 6229   0.695   2.869   3.817  1.5775  0.2970 -0.1138
 2075TIP3   OH2 6230   0.426   0.981   0.643 -0.2702  0.3266 -1.5927
 2075TIP3    H1 6231   0.455   0.900   0.686 -0.0177 -0.1492 -2.6207
 2075TIP3    H2 6232   0.355   1.013   0.698  0.6220  0.2238 -0.3365
 2076TIP3   OH2 6233   4.533   1.188   2.688 -0.1147  0.3495  0.4106
 2076TIP3    H1 6234   4.522   1.093   2.677  1.1452  0.0760  1.3117
 2076TIP3    H2 6235   4.447   1.224   2.668 -0.7707 -1.0371  0.6061
 2077TIP3   OH2 6236   1.653   0.439   2.880 -0.7386  0.5854  0.1569
 2077TIP3    H1 6237   1.634   0.530   2.858  0.6201  0.7294 -0.5108
 2077TIP3    H2 6238   1.621   0.389   2.806  0.9240  0.7894 -0.7567
 2078TIP3   OH2 6239   0.079   2.359   3.943  0.3599  0.2442 -0.0245
 2078TIP3    H1 6240   0.120   2.419   4.005  2.1756  0.6395 -1.5031
 2078TIP3    H2 6241   0.128   2.277   3.952  0.0211  0.0139 -0.2591
 2079TIP3   OH2 6242   0.210   5.447   2.393  0.0885 -0.2417  0.1778
 2079TIP3    H1 6243   0.283   5.386   2.399  0.0322 -0.2057  1.7494
 2079TIP3    H2 6244   0.234   5.507   2.322  1.3191 -0.5740  0.2854
 2080TIP3   OH2 6245   1.624   3.439   3.425  0.2412 -0.3890 -0.1148
 2080TIP3    H1 6246   1.665   3.493   3.492  1.6442 -1.6431  0.0978
 2080TIP3    H2 6247   1.611   3.499   3.351  0.2658  0.5985  0.6554
 2081TIP3   OH2 6248   0.034   4.566   0.740  0.0712  0.2513 -0.1084
 2081TIP3    H1 6249  -0.007   4.533   0.660 -2.3013 -1.8605  1.8264
 2081TIP3    H2 6250   0.124   4.531   0.737 -1.3745 -4.1187  0.3164
 2082TIP3   OH2 6251   3.271   1.978   1.536 -0.9206 -0.3810  0.1281
 2082TIP3    H1 6252   3.353   2.027   1.542 -1.3896  0.6447 -1.4131
 2082TIP3    H2 6253   3.218   2.012   1.608 -0.8050  0.5226 -0.2122
 2083TIP3   OH2 6254   0.424   2.224   4.178  0.1630  0.3641 -0.1844
 2083TIP3    H1 6255   0.333   2.214   4.207  0.0797  2.1304  0.2475
 2083TIP3    H2 6256   0.459   2.135   4.179 -1.5865 -0.3681 -0.4682
 2084TIP3   OH2 6257   5.722   1.375   2.090 -0.1862  0.0883 -0.7530
 2084TIP3    H1 6258   5.733   1.284   2.116 -1.3720  0.3680  0.8996
 2084TIP3    H2 6259   5.629   1.384   2.072 -0.3235  1.2295  0.3433
 2085TIP3   OH2 6260   0.242   5.245   0.953  0.4016  0.0887  0.2499
 2085TIP3    H1 6261   0.251   5.333   0.991 -1.3979  0.5951 -0.4001
 2085TIP3    H2 6262   0.280   5.253   0.866 -0.2194  0.3874 -0.0024
 2086TIP3   OH2 6263   5.742   0.106   1.124  0.6840 -0.0113  0.3006
 2086TIP3    H1 6264   5.688   0.169   1.170  1.5480  0.6179  0.4812
 2086TIP3    H2 6265   5.684   0.032   1.106 -0.3080  0.7828  0.1879
 2087TIP3   OH2 6266   4.485   2.376   2.695  0.9738  0.1905  0.5132
 2087TIP3    H1 6267   4.424   2.307   2.722  1.6961 -0.3119  0.9051
 2087TIP3    H2 6268   4.429   2.448   2.666  0.1756 -0.0202  1.4570
 2088TIP3   OH2 6269   5.417   4.430   1.254  0.2162 -0.2822 -0.1656
 2088TIP3    H1 6270   5.460   4.506   1.213  2.3529 -1.5965 -0.5462
 2088TIP3    H2 6271   5.445   4.356   1.200 -0.2331 -1.5744  1.3335
 2089TIP3   OH2 6272   5.948   0.634   0.341  0.4064 -0.6414  0.1305
 2089TIP3    H1 6273   5.936   0.546   0.376 -1.0089 -2.2033 -3.7374
 2089TIP3    H2 6274   6.034   0.632   0.300  0.0022 -0.5800 -0.7481
 2090TIP3   OH2 6275   4.863   1.304   5.162 -0.8574  0.2844  0.2807
 2090TIP3    H1 6276   4.946   1.302   5.209 -1.5123  0.2551  1.4657
 2090TIP3    H2 6277   4.883   1.353   5.082  0.1737  0.7286  0.7822
 2091TIP3   OH2 6278   5.030   5.915   4.412  0.3029  0.0854 -0.1046
 2091TIP3    H1 6279   5.034   5.847   4.345 -0.7597 -0.8319  0.7337
 2091TIP3    H2 6280   4.989   5.989   4.367  0.2553 -0.2712 -0.6667
 2092TIP3   OH2 6281   1.661   1.405   0.143 -0.6806 -0.0432  0.6986
 2092TIP3    H1 6282   1.593   1.343   0.172  0.3775 -1.5681  0.0470
 2092TIP3    H2 6283   1.613   1.487   0.129 -2.0793 -0.5924  1.8959
 2093TIP3   OH2 6284   1.660   0.628   0.395  0.3735  0.0825  0.1124
 2093TIP3    H1 6285   1.747   0.587   0.395 -0.0010 -0.7359  0.7526
 2093TIP3    H2 6286   1.600   0.556   0.415 -0.3902  0.7623  0.2852
 2094TIP3   OH2 6287   1.157   4.008   1.523 -0.5484 -0.2900  0.2338
 2094TIP3    H1 6288   1.114   3.985   1.606  1.9335 -1.6516  1.2349
 2094TIP3    H2 6289   1.249   3.986   1.537  0.2666  1.1623 -2.2948
 2095TIP3   OH2 6290   1.213   3.685   1.815 -0.3333  0.0275  0.6436
 2095TIP3    H1 6291   1.194   3.603   1.770  0.2228 -0.1110  0.6540
 2095TIP3    H2 6292   1.216   3.660   1.908  0.4831 -0.0713  0.5963
 2096TIP3   OH2 6293   0.568   4.658   0.790 -0.0154 -0.1281  0.9366
 2096TIP3    H1 6294   0.614   4.579   0.759 -2.5685 -1.9015  1.3700
 2096TIP3    H2 6295   0.551   4.707   0.710  0.8186 -0.4348  0.5486
 2097TIP3   OH2 6296   5.088   1.867   3.066 -0.2302  1.0072  0.1293
 2097TIP3    H1 6297   5.168   1.907   3.031  0.8242 -2.7831 -2.4050
 2097TIP3    H2 6298   5.106   1.857   3.160  2.4390  0.0854 -0.3890
 2098TIP3   OH2 6299   5.127   0.414   2.244 -0.2309  0.7887 -0.5424
 2098TIP3    H1 6300   5.102   0.321   2.248  1.2648  0.3399 -1.0447
 2098TIP3    H2 6301   5.134   0.441   2.335  0.1094  0.1714 -0.3801
 2099TIP3   OH2 6302   2.348   1.225   0.797 -0.6958 -0.2930  0.2022
 2099TIP3    H1 6303   2.365   1.319   0.798  1.2212 -0.6041  0.5549
 2099TIP3    H2 6304   2.322   1.205   0.707 -0.6757  0.4906  0.0209
 2100TIP3   OH2 6305   4.780   0.306   3.410  0.3368 -0.2974 -0.9586
 2100TIP3    H1 6306   4.694   0.274   3.384 -0.0426 -0.3722  0.3139
 2100TIP3    H2 6307   4.836   0.229   3.410  0.2406 -0.3666 -1.1566
 2101TIP3   OH2 6308   5.691   1.206   1.032 -0.2552 -0.0454  0.2308
 2101TIP3    H1 6309   5.703   1.192   1.126  0.9960  0.0211  0.1063
 2101TIP3    H2 6310   5.603   1.242   1.023  0.2185  1.5486  1.5547
 2102TIP3   OH2 6311   3.314   5.837   3.821  0.2924 -0.3315  0.0645
 2102TIP3    H1 6312   3.336   5.750   3.789 -2.0993 -1.0169  0.0985
 2102TIP3    H2 6313   3.219   5.841   3.816  0.3060  2.1107  0.5516
 2103TIP3   OH2 6314   1.376   0.394   2.668 -0.0117 -0.1681 -0.2183
 2103TIP3    H1 6315   1.322   0.391   2.589  0.6011  0.3935 -0.6726
 2103TIP3    H2 6316   1.452   0.340   2.647 -0.4388 -1.0682  0.4666
 2104TIP3   OH2 6317   0.231   1.631   2.936  0.1425 -0.0226 -0.1521
 2104TIP3    H1 6318   0.243   1.584   3.019 -0.3918 -1.0548 -0.6326
 2104TIP3    H2 6319   0.185   1.568   2.880 -1.6059  1.4518 -0.4783
 2105TIP3   OH2 6320   2.758   4.410   0.282  0.1648 -0.4284  0.0208
 2105TIP3    H1 6321   2.810   4.447   0.353  0.9110  0.0262 -0.7444
 2105TIP3    H2 6322   2.821   4.360   0.230 -0.3815 -0.7952 -0.3009
 2106TIP3   OH2 6323   2.259   3.134   2.053  0.1092 -0.2473  0.0268
 2106TIP3    H1 6324   2.177   3.163   2.093  0.3440  1.1360 -0.4307
 2106TIP3    H2 6325   2.233   3.065   1.992 -0.5307 -0.7860  0.8862
 2107TIP3   OH2 6326   3.387   4.296   3.952 -0.7189  0.4668  0.2130
 2107TIP3    H1 6327   3.343   4.330   4.030 -1.1873  0.5400 -0.0799
 2107TIP3    H2 6328   3.449   4.230   3.986  0.1612  1.5471  0.7848
 2108TIP3   OH2 6329   5.899   4.745   2.535 -0.2551 -0.7424  0.5084
 2108TIP3    H1 6330   5.904   4.828   2.583  0.4613 -0.4310 -0.0853
 2108TIP3    H2 6331   5.952   4.684   2.588  0.1987 -0.5070  0.3269
 2109TIP3   OH2 6332   0.676   2.707   1.808  0.0878 -0.2194 -0.0668
 2109TIP3    H1 6333   0.637   2.652   1.876 -1.3541  1.0215  0.1651
 2109TIP3    H2 6334   0.678   2.794   1.846  2.2033 -0.0356 -0.4808
 2110TIP3   OH2 6335   0.045   0.769   4.165 -0.4599  0.1728 -0.1372
 2110TIP3    H1 6336   0.108   0.721   4.219 -0.7692 -4.0861 -3.0824
 2110TIP3    H2 6337   0.099   0.831   4.115  0.3666  1.0988  1.7874
 2111TIP3   OH2 6338   4.669   2.219   0.658  0.6014 -0.1038  0.3101
 2111TIP3    H1 6339   4.697   2.131   0.682  1.5095  0.4701  1.4533
 2111TIP3    H2 6340   4.584   2.229   0.701  0.2941 -0.5575 -0.1755
 2112TIP3   OH2 6341   0.793   5.074   4.853  0.2272 -0.4810  0.1847
 2112TIP3    H1 6342   0.735   5.127   4.797 -0.0972 -0.2986  0.6897
 2112TIP3    H2 6343   0.807   4.993   4.804 -0.6751 -0.6356  0.1778
 2113TIP3   OH2 6344   1.637   4.166   0.142  0.8270 -0.1319 -0.8257
 2113TIP3    H1 6345   1.713   4.210   0.104  0.2700  0.9712 -0.6891
 2113TIP3    H2 6346   1.668   4.078   0.163  1.2324 -0.7759 -3.7033
 2114TIP3   OH2 6347   5.088   0.370   3.443  0.1212 -0.1234  0.0769
 2114TIP3    H1 6348   5.183   0.368   3.434  0.1170  1.1359 -0.3845
 2114TIP3    H2 6349   5.072   0.367   3.538  0.6438  0.2371  0.1782
 2115TIP3   OH2 6350   1.654   2.262   2.002  0.0924 -0.7599 -0.2242
 2115TIP3    H1 6351   1.706   2.287   1.926  0.7009 -1.1362  0.0575
 2115TIP3    H2 6352   1.640   2.344   2.049 -1.7353 -0.2321 -1.5982
 2116TIP3   OH2 6353   2.597   2.759   1.482  0.3756 -0.1194  0.2190
 2116TIP3    H1 6354   2.657   2.813   1.431  0.7830  0.3168  1.1494
 2116TIP3    H2 6355   2.510   2.780   1.447  0.4301  1.8213  1.1407
 2117TIP3   OH2 6356   6.290   4.286   0.643 -0.4477 -0.0200 -0.6439
 2117TIP3    H1 6357   6.311   4.252   0.556 -0.1821  0.8777 -0.9357
 2117TIP3    H2 6358   6.196   4.302   0.641 -0.4576 -0.0842 -0.7281
 2118TIP3   OH2 6359   2.623   3.399   5.119  0.1651  0.5835  0.3122
 2118TIP3    H1 6360   2.689   3.467   5.109 -0.2826  1.1861  1.2574
 2118TIP3    H2 6361   2.669   3.326   5.162  0.0588  1.3101  1.7233
 2119TIP3   OH2 6362   3.015   2.838   1.659 -0.3889 -0.0859 -0.8052
 2119TIP3    H1 6363   3.091   2.845   1.602 -0.0727 -0.8839 -0.4883
 2119TIP3    H2 6364   2.963   2.767   1.622  1.6411 -3.2880  1.9072
 2120TIP3   OH2 6365   2.924   3.793   1.301 -0.4697 -0.0879  0.0657
 2120TIP3    H1 6366   2.956   3.815   1.214 -0.8609 -0.4466 -0.1732
 2120TIP3    H2 6367   2.996   3.747   1.343  0.8635  2.6298  1.0355
 2121TIP3   OH2 6368   3.982   1.331   2.569 -0.2158 -0.1665  0.1421
 2121TIP3    H1 6369   4.008   1.375   2.488  0.8680 -1.7467 -0.4203
 2121TIP3    H2 6370   3.924   1.261   2.540  0.9931 -1.3902  0.6018
 2122TIP3   OH2 6371   5.416   1.343   2.993  0.3087  0.0940  0.6742
 2122TIP3    H1 6372   5.339   1.401   2.998 -0.5970 -1.1346  1.9809
 2122TIP3    H2 6373   5.440   1.328   3.084 -0.8494 -3.2457  0.5725
 2123TIP3   OH2 6374   6.263   3.370   3.432 -0.0442  0.1184  0.3403
 2123TIP3    H1 6375   6.179   3.379   3.478  0.4958 -0.1593  1.4124
 2123TIP3    H2 6376   6.305   3.295   3.475  0.0794 -0.7517 -1.2470
 2124TIP3   OH2 6377   1.753   2.491   0.979  0.3012 -0.0572 -0.1911
 2124TIP3    H1 6378   1.826   2.538   1.018 -0.2809  1.6997 -1.0974
 2124TIP3    H2 6379   1.678   2.512   1.036  0.0400  0.0716 -0.5798
 2125TIP3   OH2 6380   4.972   0.482   1.178 -0.1126  0.2626 -0.4760
 2125TIP3    H1 6381   5.035   0.514   1.243 -0.1334 -1.5684  0.5062
 2125TIP3    H2 6382   4.886   0.503   1.214 -0.1130  0.2102 -0.4473
 2126TIP3   OH2 6383   5.978   3.877   2.863 -0.1240 -0.5875 -0.3073
 2126TIP3    H1 6384   5.898   3.854   2.817 -0.1076 -0.2570 -0.5040
 2126TIP3    H2 6385   5.982   3.816   2.937 -1.4146  0.4376  0.6628
 2127TIP3   OH2 6386   4.229   1.077   2.821  0.2933 -0.6119 -0.0051
 2127TIP3    H1 6387   4.276   1.055   2.901  2.0613 -0.0475 -0.8475
 2127TIP3    H2 6388   4.165   1.006   2.812  0.1231 -0.7533  1.8158
 2128TIP3   OH2 6389   0.940   3.518   1.297  0.4012 -0.4961 -0.0947
 2128TIP3    H1 6390   1.025   3.488   1.330 -0.1114 -1.6503  0.2615
 2128TIP3    H2 6391   0.916   3.451   1.232 -0.2391 -0.1851 -0.1777
 2129TIP3   OH2 6392   4.318   1.649   0.278  0.0115  0.2820 -0.3020
 2129TIP3    H1 6393   4.313   1.627   0.371  0.4112 -0.4606 -0.4395
 2129TIP3    H2 6394   4.344   1.741   0.276  0.8736  0.0686  0.3285
 2130TIP3   OH2 6395   5.585   4.735   4.074  0.6941  0.3962 -0.3240
 2130TIP3    H1 6396   5.641   4.786   4.014 -0.6688  0.8950 -1.2096
 2130TIP3    H2 6397   5.536   4.801   4.123 -0.5260 -0.0401 -0.9327
 2131TIP3   OH2 6398   0.453   2.383   0.257 -0.3469  0.2089 -0.0346
 2131TIP3    H1 6399   0.486   2.452   0.314 -0.1907 -0.6904  1.0005
 2131TIP3    H2 6400   0.522   2.317   0.257 -0.2041  0.3241 -1.5414
 2132TIP3   OH2 6401   6.022   1.346   2.464  0.2158  0.3079 -0.2070
 2132TIP3    H1 6402   6.049   1.419   2.408 -1.4041  0.8699 -0.2793
 2132TIP3    H2 6403   6.054   1.268   2.418  3.8235  0.9583  0.8872
 2133TIP3   OH2 6404   5.996   4.265   2.100 -0.4780 -0.2937  0.3550
 2133TIP3    H1 6405   6.049   4.344   2.094 -1.5377  0.4427  0.4512
 2133TIP3    H2 6406   6.025   4.222   2.181 -0.0514  0.1122  0.4178
 2134TIP3   OH2 6407   2.627   0.305   4.399  0.2792  0.2118 -0.0526
 2134TIP3    H1 6408   2.622   0.313   4.494  1.7515 -0.0201  0.0744
 2134TIP3    H2 6409   2.719   0.321   4.379 -0.0447  0.4501 -1.4676
 2135TIP3   OH2 6410   4.378   4.169   1.411 -0.4316  0.0628  0.0472
 2135TIP3    H1 6411   4.434   4.103   1.450  0.9001 -0.0172 -1.8726
 2135TIP3    H2 6412   4.361   4.231   1.482  0.8017 -0.7383  1.0880
 2136TIP3   OH2 6413   1.000   2.934   2.254  0.2692  0.5307 -0.6481
 2136TIP3    H1 6414   0.949   2.854   2.242 -1.1880  1.3030  0.1364
 2136TIP3    H2 6415   1.055   2.940   2.176  0.2486 -1.1153 -0.8054
 2137TIP3   OH2 6416   2.473   3.622   1.341 -0.4693 -0.1582  0.2066
 2137TIP3    H1 6417   2.426   3.659   1.266 -1.1062 -1.5601 -0.1226
 2137TIP3    H2 6418   2.526   3.694   1.374  0.6221  0.2573 -2.2053
 2138TIP3   OH2 6419   1.491   2.716   3.995 -0.0941 -0.3279 -0.2087
 2138TIP3    H1 6420   1.586   2.713   4.009  0.1422  1.2030 -1.3064
 2138TIP3    H2 6421   1.472   2.808   3.977 -1.6136 -0.8157 -1.2776
 2139TIP3   OH2 6422   4.773   3.881   4.924 -0.0796 -0.4162  0.8404
 2139TIP3    H1 6423   4.730   3.875   5.009 -0.2645  0.3405  0.8058
 2139TIP3    H2 6424   4.791   3.974   4.912 -0.7426 -0.4159 -0.2992
 2140TIP3   OH2 6425   5.061   1.636   4.095 -0.2503 -0.7205 -0.1178
 2140TIP3    H1 6426   5.088   1.719   4.134  0.0628 -0.6754 -0.4244
 2140TIP3    H2 6427   5.111   1.631   4.014 -0.2025 -1.2501 -0.0573
 2141TIP3   OH2 6428   1.832   0.517   3.980  0.3208 -0.5748  0.0811
 2141TIP3    H1 6429   1.831   0.605   3.941  0.7074 -1.0453 -1.0434
 2141TIP3    H2 6430   1.920   0.508   4.017  0.0540 -0.2410  0.8125
 2142TIP3   OH2 6431   0.543   4.711   1.048 -0.2592 -0.2123  0.0904
 2142TIP3    H1 6432   0.463   4.764   1.052 -0.0828  0.0408  0.2728
 2142TIP3    H2 6433   0.553   4.691   0.955  0.4390  1.2706 -0.1899
 2143TIP3   OH2 6434   1.584   3.688   4.215  0.6579 -0.6788  0.0850
 2143TIP3    H1 6435   1.669   3.734   4.215  0.6738 -0.6938 -0.6148
 2143TIP3    H2 6436   1.545   3.711   4.130 -0.3679 -0.0732  0.6954
 2144TIP3   OH2 6437   1.131   2.883   4.583 -0.4869 -0.1749 -0.3672
 2144TIP3    H1 6438   1.108   2.957   4.527 -1.3942  0.6305  1.0185
 2144TIP3    H2 6439   1.134   2.919   4.671  0.4343 -1.5133  0.1801
 2145TIP3   OH2 6440   1.029   1.862   3.268  0.3594 -0.0172  0.4041
 2145TIP3    H1 6441   0.949   1.811   3.254  0.3682  0.0296  0.1810
 2145TIP3    H2 6442   1.049   1.899   3.182  0.6619 -0.0881  0.4437
 2146TIP3   OH2 6443   2.106   4.088   1.732 -0.0439  0.5102  0.4865
 2146TIP3    H1 6444   2.046   4.102   1.659 -0.7247  0.8406  1.0892
 2146TIP3    H2 6445   2.086   3.999   1.762 -1.0882  1.0183  1.4118
 2147TIP3   OH2 6446   4.383   2.291   0.661  0.0721 -0.0454  0.0722
 2147TIP3    H1 6447   4.341   2.377   0.658 -1.8969 -0.9221  0.8248
 2147TIP3    H2 6448   4.347   2.250   0.740  1.4994 -1.3237  0.0995
 2148TIP3   OH2 6449   1.313   0.839   0.595  0.2764 -0.3557 -0.0749
 2148TIP3    H1 6450   1.370   0.859   0.520  0.0687  0.6163  0.0087
 2148TIP3    H2 6451   1.336   0.905   0.660 -0.2879 -0.5434  0.3233
 2149TIP3   OH2 6452   2.485   1.608   3.702  0.4044 -0.1478 -0.0144
 2149TIP3    H1 6453   2.390   1.596   3.706  0.3214  0.4414 -0.1010
 2149TIP3    H2 6454   2.509   1.633   3.791  0.1226  2.0818 -0.5075
 2150TIP3   OH2 6455   5.821   1.412   4.487  0.0549 -0.3644  0.2230
 2150TIP3    H1 6456   5.772   1.493   4.502 -1.7974 -1.0717 -1.4439
 2150TIP3    H2 6457   5.839   1.378   4.574  1.2921  2.0272  0.9782
 2151TIP3   OH2 6458   0.381   2.212   3.826  0.2027 -0.3144  0.6515
 2151TIP3    H1 6459   0.400   2.203   3.919 -0.6382 -0.6085  0.7996
 2151TIP3    H2 6460   0.397   2.126   3.789  1.1978 -0.0288  0.3924
 2152TIP3   OH2 6461   4.611   2.216   5.042 -0.8375  0.0599  0.1651
 2152TIP3    H1 6462   4.630   2.264   4.962 -0.9321 -0.3985 -0.1370
 2152TIP3    H2 6463   4.564   2.279   5.098  0.8135  0.9502  0.5972
 2153TIP3   OH2 6464   2.795   1.869   3.416  0.1143 -0.0191  0.3509
 2153TIP3    H1 6465   2.822   1.790   3.369  0.7429  0.3868  0.0157
 2153TIP3    H2 6466   2.850   1.871   3.494  0.9829  0.7303 -0.2588
 2154TIP3   OH2 6467   6.302   5.865   3.306 -0.3198 -0.2098  0.0500
 2154TIP3    H1 6468   6.294   5.956   3.336 -0.2580 -0.5639  1.1988
 2154TIP3    H2 6469   6.211   5.837   3.295 -0.3536 -0.1763  0.2338
 2155TIP3   OH2 6470   6.077   4.877   3.109  0.1552  0.0825  0.6045
 2155TIP3    H1 6471   6.119   4.928   3.178  1.2892 -0.0476  0.0353
 2155TIP3    H2 6472   6.002   4.930   3.082  2.0516  2.1874 -0.9002
 2156TIP3   OH2 6473   1.445   2.384   3.271  0.2070  0.4592 -0.0673
 2156TIP3    H1 6474   1.495   2.411   3.195  1.1485 -1.1337 -0.0473
 2156TIP3    H2 6475   1.459   2.454   3.335  1.9238  0.3540 -0.2829
 2157TIP3   OH2 6476   5.998   4.310   0.206 -0.2177 -0.2046 -0.1106
 2157TIP3    H1 6477   5.966   4.226   0.172 -1.4274 -0.2690  1.0981
 2157TIP3    H2 6478   5.920   4.352   0.242 -0.0208  2.3149 -2.3371
 2158TIP3   OH2 6479   2.713   0.673   0.438  0.0654  0.9170 -0.2824
 2158TIP3    H1 6480   2.761   0.611   0.382  0.4859 -0.1491  1.2094
 2158TIP3    H2 6481   2.769   0.751   0.440  1.2298  0.0916  0.5320
 2159TIP3   OH2 6482   2.829   5.671   2.689  0.0275  0.1404  0.5419
 2159TIP3    H1 6483   2.771   5.607   2.648 -2.9462  3.2381 -0.6778
 2159TIP3    H2 6484   2.905   5.674   2.631 -0.3114 -1.3938 -0.0458
 2160TIP3   OH2 6485   0.400   1.720   1.678 -0.5146  0.1936 -0.1320
 2160TIP3    H1 6486   0.464   1.771   1.727  0.1079 -0.7050  0.0153
 2160TIP3    H2 6487   0.441   1.634   1.668 -1.7888 -0.4641  0.1557
 2161TIP3   OH2 6488   3.469   2.686   1.450  0.4266  0.1069 -0.3182
 2161TIP3    H1 6489   3.480   2.599   1.490  2.5898  0.8674  0.9287
 2161TIP3    H2 6490   3.558   2.713   1.427 -0.0625  2.3871  0.1935
 2162TIP3   OH2 6491   5.186   2.293   1.472  0.4990  0.0557  0.3549
 2162TIP3    H1 6492   5.114   2.273   1.532  1.3557 -0.7005  1.1664
 2162TIP3    H2 6493   5.143   2.325   1.393 -0.6712  0.9016  1.2951
 2163TIP3   OH2 6494   0.162   0.907   1.475  0.3986 -0.1188 -0.3150
 2163TIP3    H1 6495   0.223   0.838   1.447 -0.2830 -0.5823 -0.6869
 2163TIP3    H2 6496   0.219   0.979   1.503  1.1221 -0.3623 -1.1023
 2164TIP3   OH2 6497   0.347   0.685   4.595  0.5824  0.1762 -0.0402
 2164TIP3    H1 6498   0.414   0.619   4.576  0.1688 -0.5975  1.0496
 2164TIP3    H2 6499   0.396   0.758   4.634  0.8198 -0.3186  0.5987
 2165TIP3   OH2 6500   4.352   3.257   1.254  0.1748  0.5627 -0.1801
 2165TIP3    H1 6501   4.312   3.335   1.291  1.8920  2.2945 -1.7409
 2165TIP3    H2 6502   4.418   3.231   1.319 -2.1736 -1.3273  1.6221
 2166TIP3   OH2 6503   4.391   0.268   4.035 -0.1367 -0.3547 -0.0197
 2166TIP3    H1 6504   4.395   0.285   4.129 -0.6724 -0.3152 -0.0022
 2166TIP3    H2 6505   4.378   0.354   3.995  0.1633 -0.3617 -0.1405
 2167TIP3   OH2 6506   4.215   4.087   2.446  0.0622  0.2421 -0.3369
 2167TIP3    H1 6507   4.211   4.088   2.350  2.1817  0.9935 -0.4607
 2167TIP3    H2 6508   4.148   4.023   2.471  0.2732 -0.8773 -2.3767
 2168TIP3   OH2 6509   0.295   1.312   4.013 -0.0866 -0.1039  0.0201
 2168TIP3    H1 6510   0.254   1.380   3.960 -1.1088 -1.2800 -0.7341
 2168TIP3    H2 6511   0.362   1.359   4.063 -0.1921  1.3148 -1.0914
 2169TIP3   OH2 6512   1.439   4.652   2.163 -0.0448  0.0902  0.9389
 2169TIP3    H1 6513   1.439   4.557   2.155 -1.2892  0.0908  0.7836
 2169TIP3    H2 6514   1.440   4.667   2.258  0.2025 -0.0709  0.9637
 2170TIP3   OH2 6515   1.013   1.441   3.225 -0.5501  0.2386 -0.2467
 2170TIP3    H1 6516   0.961   1.437   3.305 -0.7059 -0.7627 -0.3828
 2170TIP3    H2 6517   1.096   1.398   3.248 -0.7203 -0.3494 -0.7002
 2171TIP3   OH2 6518   0.717   5.020   2.345 -0.6143  0.5979  0.2061
 2171TIP3    H1 6519   0.625   5.020   2.320 -0.2600  0.7647 -1.2230
 2171TIP3    H2 6520   0.745   4.929   2.336 -0.3615  0.7396 -0.5750
 2172TIP3   OH2 6521   0.401   5.075   1.742  0.1871  0.5778 -0.5602
 2172TIP3    H1 6522   0.330   5.138   1.733  0.3698  1.1875  1.7022
 2172TIP3    H2 6523   0.437   5.067   1.654 -0.3424  3.0771 -1.0887
 2173TIP3   OH2 6524   3.595   2.997   4.347 -0.8092 -0.1983  0.2950
 2173TIP3    H1 6525   3.619   2.912   4.309 -0.7800  0.3235 -0.8967
 2173TIP3    H2 6526   3.679   3.041   4.359 -0.8775 -0.0364  0.1742
 2174TIP3   OH2 6527   4.682   3.765   0.120 -0.1568 -0.3730 -0.3385
 2174TIP3    H1 6528   4.625   3.804   0.054 -0.8630 -2.3298 -0.9385
 2174TIP3    H2 6529   4.640   3.786   0.204  0.9088  2.4016 -0.3735
 2175TIP3   OH2 6530   6.025   2.567   0.812 -0.1693  0.4488 -0.2987
 2175TIP3    H1 6531   6.064   2.551   0.898  0.7758 -0.5692 -0.8923
 2175TIP3    H2 6532   6.075   2.641   0.777  0.0912  0.2365 -0.3726
 2176TIP3   OH2 6533   3.823   3.846   3.001  0.0911 -0.5085 -0.3833
 2176TIP3    H1 6534   3.918   3.858   2.998  0.2594 -1.3098  1.0365
 2176TIP3    H2 6535   3.792   3.917   3.056  0.2044 -1.8036  1.4246
 2177TIP3   OH2 6536   2.830   4.540   2.192 -0.5947 -0.1147  0.4802
 2177TIP3    H1 6537   2.849   4.594   2.115  0.0550 -0.3632  0.4666
 2177TIP3    H2 6538   2.885   4.463   2.182  0.1147  0.2262  1.6134
 2178TIP3   OH2 6539   1.016   3.349   0.789  0.3367  0.3608 -0.2784
 2178TIP3    H1 6540   0.982   3.260   0.778  1.4479 -0.2794  1.1284
 2178TIP3    H2 6541   1.091   3.354   0.730  1.2734 -0.2312  0.8227
 2179TIP3   OH2 6542   1.744   2.631   4.090 -0.3031 -0.2003 -0.0093
 2179TIP3    H1 6543   1.713   2.544   4.112  3.4350 -1.2901  1.7878
 2179TIP3    H2 6544   1.737   2.680   4.172 -2.0211  1.2011 -0.9082
 2180TIP3   OH2 6545   3.401   2.285   4.839  0.3267 -0.1648 -0.4545
 2180TIP3    H1 6546   3.348   2.328   4.906 -0.0162 -0.0914 -0.7732
 2180TIP3    H2 6547   3.427   2.355   4.780 -1.1490 -0.5380 -1.5975
 2181TIP3   OH2 6548   0.106   2.510   2.189 -1.0820  0.4322  0.4851
 2181TIP3    H1 6549   0.079   2.433   2.239 -3.3638  1.2499  0.6662
 2181TIP3    H2 6550   0.044   2.579   2.216  0.1281  2.0048 -0.5376
 2182TIP3   OH2 6551   2.310   1.274   4.023  0.3673  0.0465  0.1677
 2182TIP3    H1 6552   2.214   1.266   4.018  0.3093  0.7585  0.0729
 2182TIP3    H2 6553   2.328   1.362   3.992  0.8768  0.6690  2.0809
 2183TIP3   OH2 6554   3.741   2.588   4.644  0.0198 -0.0040 -0.3835
 2183TIP3    H1 6555   3.787   2.523   4.697 -0.4899 -0.6840 -0.7590
 2183TIP3    H2 6556   3.811   2.638   4.602  0.4231 -0.8188 -0.6964
 2184TIP3   OH2 6557   1.737   4.188   2.630  0.1496  0.6354  0.1399
 2184TIP3    H1 6558   1.770   4.115   2.578 -0.8532 -0.2120  0.6783
 2184TIP3    H2 6559   1.643   4.187   2.617 -0.0728  0.7042  1.5733
 2185TIP3   OH2 6560   4.433   5.093   0.617  0.2063  0.1032 -0.8392
 2185TIP3    H1 6561   4.475   5.175   0.642 -0.3216  0.0921  0.1369
 2185TIP3    H2 6562   4.487   5.059   0.545  1.3742  0.5007 -0.1828
 2186TIP3   OH2 6563   2.841   4.860   3.531  0.1562 -0.3487 -0.1851
 2186TIP3    H1 6564   2.863   4.817   3.614 -2.5937 -0.8601  0.4027
 2186TIP3    H2 6565   2.894   4.815   3.465  3.6521  1.1589  1.3656
 2187TIP3   OH2 6566   1.598   3.872   3.303  0.0523 -0.9547 -0.1666
 2187TIP3    H1 6567   1.531   3.878   3.235  1.2359 -0.5162 -1.3478
 2187TIP3    H2 6568   1.653   3.798   3.276  1.2766  0.0064 -0.4121
 2188TIP3   OH2 6569   1.127   5.937   2.168 -0.1512  0.6979 -0.2720
 2188TIP3    H1 6570   1.091   5.882   2.238  1.9602  0.1570  0.4969
 2188TIP3    H2 6571   1.144   5.876   2.097  1.5739  0.4083  0.3363
 2189TIP3   OH2 6572   5.584   4.560   3.564  0.2428 -0.3506 -0.0503
 2189TIP3    H1 6573   5.614   4.523   3.481  0.8018 -0.5448  0.2347
 2189TIP3    H2 6574   5.662   4.602   3.601 -0.2640  0.7321 -0.1528
 2190TIP3   OH2 6575   4.978   4.541   3.561 -0.3082 -0.0825 -0.5541
 2190TIP3    H1 6576   4.924   4.524   3.638 -0.0339 -1.4960 -0.6487
 2190TIP3    H2 6577   4.915   4.548   3.489 -0.6408  2.0849 -0.1355
 2191TIP3   OH2 6578   6.290   1.996   0.388  0.0316 -0.1762 -0.1596
 2191TIP3    H1 6579   6.221   1.958   0.442 -1.2747  1.0007 -0.9398
 2191TIP3    H2 6580   6.244   2.058   0.330  1.6938  0.3855 -0.9340
 2192TIP3   OH2 6581   3.018   0.861   0.661 -0.1454 -0.7784 -0.3844
 2192TIP3    H1 6582   2.977   0.933   0.612 -1.6626 -0.7125  0.9121
 2192TIP3    H2 6583   3.109   0.861   0.631 -0.2227  1.3454 -0.8007
 2193TIP3   OH2 6584   4.546   2.914   4.234 -0.2343 -0.1091 -0.1781
 2193TIP3    H1 6585   4.520   2.913   4.326  0.2563  1.8235  0.0237
 2193TIP3    H2 6586   4.541   3.006   4.209  1.5054 -0.3285 -1.5394
 2194TIP3   OH2 6587   0.513   5.458   2.070  0.1158 -0.5277  0.3860
 2194TIP3    H1 6588   0.471   5.386   2.023  0.1220 -0.7760  0.7596
 2194TIP3    H2 6589   0.603   5.459   2.037 -0.0490 -0.2914 -0.0729
 2195TIP3   OH2 6590   1.360   1.312   4.173 -0.3667 -0.1623 -0.2250
 2195TIP3    H1 6591   1.362   1.231   4.225  1.0357  1.4132  2.3658
 2195TIP3    H2 6592   1.399   1.287   4.089 -0.5131 -2.2932  0.2716
 2196TIP3   OH2 6593   2.143   0.362   2.796  0.5948 -0.4607  0.1139
 2196TIP3    H1 6594   2.141   0.321   2.710  0.5256 -1.8023  0.7424
 2196TIP3    H2 6595   2.215   0.425   2.790  0.3873 -0.2943 -1.0084
 2197TIP3   OH2 6596   3.606   0.650   2.576  0.2948 -0.4456  0.6754
 2197TIP3    H1 6597   3.670   0.634   2.507  0.2553  3.4776 -0.5073
 2197TIP3    H2 6598   3.649   0.711   2.636 -1.1734 -0.3548  1.7149
 2198TIP3   OH2 6599   2.466   2.321   1.070  0.0615 -0.1514 -0.1445
 2198TIP3    H1 6600   2.409   2.249   1.042  0.7332 -1.5311  1.7744
 2198TIP3    H2 6601   2.545   2.310   1.017 -0.3085 -0.0847 -0.7127
 2199TIP3   OH2 6602   1.385   4.255   4.559  0.0565 -0.4694 -0.0120
 2199TIP3    H1 6603   1.337   4.288   4.483  0.1011  0.6285  0.4091
 2199TIP3    H2 6604   1.436   4.181   4.525  0.5653  0.3857 -1.2191
 2200TIP3   OH2 6605   0.178   0.383   4.703  0.6296 -0.2648  0.5319
 2200TIP3    H1 6606   0.110   0.316   4.695 -0.0641  0.6058 -1.3531
 2200TIP3    H2 6607   0.139   0.450   4.759  0.0049  0.0829 -0.2864
 2201TIP3   OH2 6608   4.715   4.707   2.500 -0.3394 -0.1345  0.1678
 2201TIP3    H1 6609   4.653   4.707   2.427 -3.0213  0.1054  2.2791
 2201TIP3    H2 6610   4.682   4.638   2.558  1.6285 -0.2436  1.2207
 2202TIP3   OH2 6611   0.836   0.258   1.486  0.5763  0.3317 -0.0952
 2202TIP3    H1 6612   0.740   0.254   1.488  0.5853  0.2822  0.5566
 2202TIP3    H2 6613   0.862   0.180   1.439  0.2661  0.8888 -1.2164
 2203TIP3   OH2 6614   0.422   4.438   1.294  0.5808 -0.3473 -0.1711
 2203TIP3    H1 6615   0.485   4.442   1.222  0.3144  2.6107 -0.3563
 2203TIP3    H2 6616   0.348   4.390   1.259  1.7445 -1.8134 -0.7317
 2204TIP3   OH2 6617   4.670   0.162   4.634 -0.7819 -0.1311  0.4856
 2204TIP3    H1 6618   4.627   0.144   4.718 -0.2696 -1.2656  0.5218
 2204TIP3    H2 6619   4.672   0.077   4.589  0.7892  0.0133  0.2098
 2205TIP3   OH2 6620   6.191   4.144   4.466  0.0781  0.2004  0.4133
 2205TIP3    H1 6621   6.271   4.092   4.476 -0.2359 -0.0985  1.4945
 2205TIP3    H2 6622   6.186   4.162   4.372  1.9841  1.1321  0.4276
 2206TIP3   OH2 6623   0.141   0.343   3.920 -0.5968 -0.6978 -0.5376
 2206TIP3    H1 6624   0.224   0.338   3.873 -0.1714 -0.3133  0.1512
 2206TIP3    H2 6625   0.160   0.309   4.007 -1.6060 -2.3052 -0.9018
 2207TIP3   OH2 6626   2.186   4.068   1.265 -0.3644 -0.4113  0.2859
 2207TIP3    H1 6627   2.110   4.076   1.323 -0.7741 -0.9580 -0.1512
 2207TIP3    H2 6628   2.256   4.037   1.321  0.1044  1.9574  1.1124
 2208TIP3   OH2 6629   1.557   4.878   2.994 -0.3169  0.0623  0.2195
 2208TIP3    H1 6630   1.619   4.917   2.932  3.0216 -2.5479  1.6456
 2208TIP3    H2 6631   1.530   4.951   3.049 -0.9126  1.8314 -2.2134
 2209TIP3   OH2 6632   2.817   2.768   0.210  0.4475 -0.5987  0.0299
 2209TIP3    H1 6633   2.737   2.717   0.201  0.2233 -0.1499 -0.6106
 2209TIP3    H2 6634   2.850   2.746   0.297 -0.3625 -0.8044  0.2982
 2210TIP3   OH2 6635   4.484   4.598   0.082  0.5890 -0.4247 -0.1542
 2210TIP3    H1 6636   4.461   4.691   0.080  0.9772 -0.3148 -2.6326
 2210TIP3    H2 6637   4.578   4.596   0.064  0.2067 -1.3254 -2.3635
 2211TIP3   OH2 6638   2.643   5.862   0.899 -0.2391  0.1557  0.1941
 2211TIP3    H1 6639   2.632   5.892   0.989 -2.5780  1.8434 -0.5538
 2211TIP3    H2 6640   2.698   5.928   0.858 -1.4333  0.9186 -0.2465
 2212TIP3   OH2 6641   3.814   0.620   0.258  1.0477 -0.1934  0.1469
 2212TIP3    H1 6642   3.866   0.640   0.335 -0.5978 -2.1043  1.8609
 2212TIP3    H2 6643   3.794   0.527   0.266 -1.2078  0.0859 -1.2981
 2213TIP3   OH2 6644   2.070   3.920   3.474 -0.1928  0.6268  0.7914
 2213TIP3    H1 6645   2.142   3.902   3.535  0.2274 -0.4163  0.0303
 2213TIP3    H2 6646   2.078   4.013   3.454  2.0602  0.2217 -0.5946
 2214TIP3   OH2 6647   2.689   2.108   1.145  0.2444 -0.4278 -0.1754
 2214TIP3    H1 6648   2.620   2.083   1.084 -0.3887 -1.5366  0.9535
 2214TIP3    H2 6649   2.695   2.203   1.136  0.0638 -0.5549 -1.8305
 2215TIP3   OH2 6650   5.694   3.360   3.140  0.3982 -0.0504  0.1740
 2215TIP3    H1 6651   5.783   3.364   3.174  1.2257  0.2441 -1.8670
 2215TIP3    H2 6652   5.705   3.358   3.045 -1.7876  0.0874 -0.1337
 2216TIP3   OH2 6653   3.479   0.135   3.163 -0.3232 -0.0667  0.3600
 2216TIP3    H1 6654   3.558   0.101   3.204  0.5882  1.4262 -0.0526
 2216TIP3    H2 6655   3.509   0.213   3.116 -1.3863 -1.3389 -2.6861
 2217TIP3   OH2 6656   2.119   5.155   0.422 -0.4370  0.2642 -0.2977
 2217TIP3    H1 6657   2.072   5.170   0.340 -1.8886 -1.0932  0.2215
 2217TIP3    H2 6658   2.211   5.154   0.398 -0.7758  1.0002 -1.7092
 2218TIP3   OH2 6659   6.284   3.671   3.250  0.2225  0.1980  0.4488
 2218TIP3    H1 6660   6.262   3.584   3.285 -0.4802 -0.4161 -1.3489
 2218TIP3    H2 6661   6.379   3.670   3.239  0.0187 -1.3316 -1.8044
 2219TIP3   OH2 6662   2.716   1.623   4.473  0.1234  0.1880 -0.9304
 2219TIP3    H1 6663   2.765   1.696   4.510 -0.8271 -0.7286  2.4380
 2219TIP3    H2 6664   2.779   1.579   4.416  1.4985  2.1113 -0.9920
 2220TIP3   OH2 6665   5.258   3.190   0.186 -0.0979  0.0088 -0.1289
 2220TIP3    H1 6666   5.221   3.244   0.256 -1.1692  1.4617 -1.7375
 2220TIP3    H2 6667   5.184   3.141   0.151  0.5455 -1.1887  0.1177
 2221TIP3   OH2 6668   1.982   1.716   1.385  0.5284 -0.5719  0.0764
 2221TIP3    H1 6669   1.996   1.624   1.363 -2.1166 -0.4453 -2.7969
 2221TIP3    H2 6670   2.021   1.764   1.312  2.0868  0.6864  1.6534
 2222TIP3   OH2 6671   1.080   5.189   4.404 -0.2029  0.3410  0.7415
 2222TIP3    H1 6672   1.112   5.247   4.335 -1.1580  0.1009  0.0617
 2222TIP3    H2 6673   1.151   5.126   4.418 -0.0978  0.2227 -0.2406
 2223TIP3   OH2 6674   4.020   4.265   4.400 -0.1613  0.1220  0.9466
 2223TIP3    H1 6675   3.991   4.189   4.351 -2.5658  0.6440  1.3861
 2223TIP3    H2 6676   4.016   4.338   4.338  2.4768 -0.0864  0.4267
 2224TIP3   OH2 6677   2.419   2.737   0.376 -0.1613 -0.1018 -0.0442
 2224TIP3    H1 6678   2.473   2.814   0.392  0.0744 -0.2041 -0.3372
 2224TIP3    H2 6679   2.388   2.711   0.462  0.6509 -0.3378  0.1834
 2225TIP3   OH2 6680   1.559   2.438   1.214 -0.1657  0.5949 -0.4669
 2225TIP3    H1 6681   1.568   2.525   1.252  1.6892  0.7553 -1.1578
 2225TIP3    H2 6682   1.568   2.378   1.288 -0.6858  0.9735 -0.0932
 2226TIP3   OH2 6683   1.452   0.616   0.721  0.2935 -0.1148  0.3527
 2226TIP3    H1 6684   1.484   0.671   0.792  0.8238  1.5520 -1.0749
 2226TIP3    H2 6685   1.407   0.678   0.662  0.3286 -1.3214 -0.9921
 2227TIP3   OH2 6686   5.407   5.800   4.933  0.0213 -0.0344 -0.5461
 2227TIP3    H1 6687   5.393   5.768   4.844  0.2089 -0.0031 -0.5876
 2227TIP3    H2 6688   5.333   5.858   4.949 -0.6823 -1.0097 -0.2181
 2228TIP3   OH2 6689   0.967   1.596   2.988  0.2364 -0.1721  0.4812
 2228TIP3    H1 6690   0.924   1.530   2.934 -1.6674  0.7699  0.7663
 2228TIP3    H2 6691   0.973   1.556   3.075  0.0626 -0.3646  0.4054
 2229TIP3   OH2 6692   4.468   4.492   2.539  0.0686  0.3709 -0.5186
 2229TIP3    H1 6693   4.465   4.509   2.633 -1.6496  2.6950 -0.8933
 2229TIP3    H2 6694   4.461   4.397   2.532  0.6173  0.1037  1.6975
 2230TIP3   OH2 6695   3.886   4.637   1.230  0.1547  0.1638 -0.4070
 2230TIP3    H1 6696   3.799   4.676   1.219  0.0272 -0.6428 -2.9471
 2230TIP3    H2 6697   3.872   4.566   1.292 -0.8518  0.4861 -0.2361
 2231TIP3   OH2 6698   1.779   1.210   4.379 -0.5317 -0.9975 -0.3862
 2231TIP3    H1 6699   1.710   1.269   4.349  0.9668 -0.2423 -2.5588
 2231TIP3    H2 6700   1.810   1.167   4.300  1.9183 -0.8246  0.3935
 2232TIP3   OH2 6701   1.074   2.037   2.180 -0.0920 -0.4291 -0.0978
 2232TIP3    H1 6702   1.007   2.104   2.196  0.3447 -0.0292  0.0740
 2232TIP3    H2 6703   1.036   1.957   2.216  0.3385  0.1840  1.8379
 2233TIP3   OH2 6704   2.084   5.544   1.834  0.1456 -0.0001 -0.1821
 2233TIP3    H1 6705   2.056   5.477   1.897  2.1677 -1.2710 -0.5215
 2233TIP3    H2 6706   2.024   5.534   1.760 -0.2476 -0.7076  0.2212
 2234TIP3   OH2 6707   2.883   0.572   4.504  0.4889 -0.5968  0.3343
 2234TIP3    H1 6708   2.817   0.629   4.464 -0.7445 -0.9978  1.6776
 2234TIP3    H2 6709   2.872   0.488   4.459 -0.3194 -0.8134  0.9012
 2235TIP3   OH2 6710   5.600   2.850   0.216 -0.8137 -0.2575  0.2558
 2235TIP3    H1 6711   5.596   2.792   0.140 -2.7158  0.8449 -0.5520
 2235TIP3    H2 6712   5.607   2.791   0.291  0.9766 -1.3733 -0.7218
 2236TIP3   OH2 6713   0.281   4.955   0.146 -0.3528 -0.0386 -0.4324
 2236TIP3    H1 6714   0.270   4.862   0.124 -0.5795 -0.3840  1.0672
 2236TIP3    H2 6715   0.248   5.001   0.068  0.6352 -1.1957 -1.5909
 2237TIP3   OH2 6716   2.233   5.771   1.784 -0.4076 -0.1584  0.7958
 2237TIP3    H1 6717   2.140   5.749   1.777 -0.7169  0.8433  1.4786
 2237TIP3    H2 6718   2.245   5.796   1.876  0.8592 -1.6265  1.0684
 2238TIP3   OH2 6719   3.959   1.255   2.864  0.5917  0.1933 -1.0586
 2238TIP3    H1 6720   3.953   1.291   2.775  2.2509  1.2526 -0.7832
 2238TIP3    H2 6721   4.025   1.187   2.858  0.5295  0.0947 -0.6747
 2239TIP3   OH2 6722   5.793   1.048   3.879 -0.8062 -0.0265 -0.4263
 2239TIP3    H1 6723   5.828   1.130   3.914  0.6504 -0.3548 -1.0198
 2239TIP3    H2 6724   5.865   1.012   3.827 -1.0854 -2.1181  0.5291
 2240TIP3   OH2 6725   3.654   0.753   2.977  0.3361  0.4236 -0.3033
 2240TIP3    H1 6726   3.720   0.784   3.039  1.0196 -1.1579 -0.2148
 2240TIP3    H2 6727   3.627   0.668   3.011  0.8379 -0.5561 -2.2405
 2241TIP3   OH2 6728   2.807   0.872   1.894  0.6374 -0.4030  0.1916
 2241TIP3    H1 6729   2.754   0.795   1.913  1.4481 -1.8473 -2.8225
 2241TIP3    H2 6730   2.893   0.838   1.869  1.4513  1.5556  0.1055
 2242TIP3   OH2 6731   4.527   5.342   1.714 -0.4573  0.1631 -0.3607
 2242TIP3    H1 6732   4.449   5.396   1.731  0.0490  0.4900  1.1814
 2242TIP3    H2 6733   4.580   5.395   1.655 -1.3141  0.0185 -1.2761
 2243TIP3   OH2 6734   2.616   5.364   1.067  0.1843 -0.9828  0.4776
 2243TIP3    H1 6735   2.613   5.330   1.157 -1.2638 -1.3585  0.2989
 2243TIP3    H2 6736   2.539   5.327   1.024 -0.8746  1.5957 -0.0506
 2244TIP3   OH2 6737   5.929   2.639   4.844 -0.4125 -0.0167 -0.0838
 2244TIP3    H1 6738   5.835   2.630   4.828 -0.5473  0.1207  0.6039
 2244TIP3    H2 6739   5.937   2.721   4.891  0.3287  1.2843 -2.3205
 2245TIP3   OH2 6740   2.627   3.880   1.208  0.6482  0.9655  0.0666
 2245TIP3    H1 6741   2.568   3.941   1.251  1.4403  1.7528  0.0467
 2245TIP3    H2 6742   2.697   3.864   1.272  1.4340  1.5578 -0.6178
 2246TIP3   OH2 6743   2.057   1.339   2.993  0.2894  0.2859  0.1325
 2246TIP3    H1 6744   1.976   1.368   2.951 -0.6634 -2.7698 -0.3876
 2246TIP3    H2 6745   2.032   1.322   3.084  0.0425 -1.6043 -0.2615
 2247TIP3   OH2 6746   4.117   4.949   4.009 -0.0051  0.1214  0.7058
 2247TIP3    H1 6747   4.186   4.994   3.960 -0.7327  0.8239  0.2964
 2247TIP3    H2 6748   4.126   4.857   3.984  0.0605  0.3768 -0.2444
 2248TIP3   OH2 6749   5.198   0.086   2.021 -0.0939 -0.6741 -0.0471
 2248TIP3    H1 6750   5.276   0.092   2.076 -1.6199 -0.3005  2.2017
 2248TIP3    H2 6751   5.207   0.001   1.977  1.5979 -0.6021  0.0860
 2249TIP3   OH2 6752   2.345   5.341   0.150 -0.1319  0.0643  0.4633
 2249TIP3    H1 6753   2.395   5.264   0.123 -1.6820 -0.3542 -1.4306
 2249TIP3    H2 6754   2.315   5.321   0.238 -2.2334 -2.5001 -0.6960
 2250TIP3   OH2 6755   4.877   0.960   0.158  0.2132  0.0702  0.0016
 2250TIP3    H1 6756   4.898   1.040   0.110 -2.3391  0.7717 -0.1221
 2250TIP3    H2 6757   4.804   0.921   0.109  0.3381 -1.4802  0.9721
 2251TIP3   OH2 6758   2.665   0.652   1.985 -0.0657 -0.4341 -0.2035
 2251TIP3    H1 6759   2.574   0.635   2.008 -0.9387 -0.4471 -3.3225
 2251TIP3    H2 6760   2.705   0.565   1.981 -0.3714 -0.5639 -0.4880
 2252TIP3   OH2 6761   4.782   1.890   2.997 -0.0893 -0.9720 -0.1505
 2252TIP3    H1 6762   4.873   1.910   2.973 -0.6705 -0.4878 -2.1583
 2252TIP3    H2 6763   4.749   1.839   2.923 -2.4938  1.9738 -1.3135
 2253TIP3   OH2 6764   3.670   3.341   4.152  0.1686 -0.1144  0.2944
 2253TIP3    H1 6765   3.714   3.296   4.080  1.1645  0.8871  0.2499
 2253TIP3    H2 6766   3.587   3.294   4.162  2.0270 -3.4551  1.7717
 2254TIP3   OH2 6767   6.085   1.405   1.459 -0.0521 -0.5222 -0.3544
 2254TIP3    H1 6768   6.094   1.487   1.507  0.9523 -0.4244 -0.6877
 2254TIP3    H2 6769   6.141   1.415   1.382 -1.0907 -0.9471 -1.1965
 2255TIP3   OH2 6770   3.225   0.603   3.006  0.1087 -0.1392 -0.3556
 2255TIP3    H1 6771   3.259   0.586   3.093  0.2927 -1.9195 -0.7400
 2255TIP3    H2 6772   3.297   0.645   2.959  2.1879 -4.2101 -1.2926
 2256TIP3   OH2 6773   0.425   2.500   0.557 -0.3957  0.6824  0.6390
 2256TIP3    H1 6774   0.486   2.527   0.488 -0.3640 -1.5076 -0.2469
 2256TIP3    H2 6775   0.338   2.520   0.521 -0.3952 -0.7184 -0.2117
 2257TIP3   OH2 6776   0.356   0.365   1.765  0.5037 -0.3520 -0.1380
 2257TIP3    H1 6777   0.278   0.327   1.805  1.8760 -2.2406  0.9358
 2257TIP3    H2 6778   0.331   0.382   1.674 -1.7364  1.0544  0.6825
 2258TIP3   OH2 6779   5.848   4.523   4.924 -0.0289  0.2469  0.1296
 2258TIP3    H1 6780   5.884   4.457   4.983 -1.5972 -0.2095  0.6224
 2258TIP3    H2 6781   5.925   4.559   4.879  1.1126 -0.1695  1.6304
 2259TIP3   OH2 6782   6.347   5.722   3.867  0.1686  0.1223  0.7446
 2259TIP3    H1 6783   6.306   5.769   3.939 -1.9034 -0.5750  0.1071
 2259TIP3    H2 6784   6.358   5.788   3.798 -1.5168  0.0194  0.3229
 2260TIP3   OH2 6785   0.277   3.905   0.156  0.6995  0.1740  0.2322
 2260TIP3    H1 6786   0.274   3.814   0.185  0.2870 -0.1266 -0.7179
 2260TIP3    H2 6787   0.275   3.956   0.237  1.6071 -0.6635  0.8053
 2261TIP3   OH2 6788   2.160   1.237   2.302  0.5315  0.0626 -0.1385
 2261TIP3    H1 6789   2.094   1.187   2.350  0.4938 -1.8714 -2.0822
 2261TIP3    H2 6790   2.240   1.226   2.354  0.4045 -1.6650 -0.2482
 2262TIP3   OH2 6791   4.023   4.734   2.895 -0.8113 -0.5081 -0.2043
 2262TIP3    H1 6792   4.078   4.657   2.910  0.3838  0.4651  0.6520
 2262TIP3    H2 6793   4.083   4.809   2.905 -2.2808  0.6034  0.7259
 2263TIP3   OH2 6794   4.943   4.040   4.131 -0.3011  0.1709 -0.0917
 2263TIP3    H1 6795   4.976   3.956   4.099  0.1992 -0.2385  1.4342
 2263TIP3    H2 6796   5.021   4.088   4.158 -0.7747 -0.7188  3.3274
 2264TIP3   OH2 6797   4.895   4.537   3.290  0.1674  0.6096 -0.5078
 2264TIP3    H1 6798   4.801   4.545   3.278 -0.0145  0.8103  0.8702
 2264TIP3    H2 6799   4.932   4.608   3.238 -0.5551  1.5394  0.2100
 2265TIP3   OH2 6800   5.916   5.456   4.065  0.4168  0.5681  0.0283
 2265TIP3    H1 6801   5.902   5.420   3.978  1.7467 -1.4535  0.5988
 2265TIP3    H2 6802   5.863   5.401   4.123  0.3642  1.2364  0.6293
 2266TIP3   OH2 6803   0.420   5.035   1.453  0.9112 -0.0941 -0.3042
 2266TIP3    H1 6804   0.379   5.024   1.367  1.0562 -1.1391 -0.2543
 2266TIP3    H2 6805   0.475   5.112   1.444 -0.2302  0.6951 -0.7006
 2267TIP3   OH2 6806   0.229   1.901   2.616  0.4257  0.1761  0.0277
 2267TIP3    H1 6807   0.168   1.875   2.546  0.0090  0.4863  0.2682
 2267TIP3    H2 6808   0.296   1.833   2.616 -0.5189 -0.7691  0.4989
 2268TIP3   OH2 6809   4.957   4.581   1.594 -0.1696 -0.0238 -0.1695
 2268TIP3    H1 6810   5.000   4.664   1.574  1.0509 -0.5261  0.2550
 2268TIP3    H2 6811   4.865   4.596   1.573 -0.2748  1.9438  1.3827
 2269TIP3   OH2 6812   1.189   3.640   0.538  0.0092 -0.4751  0.2387
 2269TIP3    H1 6813   1.116   3.582   0.516 -1.2067  1.6329 -1.7519
 2269TIP3    H2 6814   1.152   3.701   0.602 -0.5120  1.4557 -1.7890
 2270TIP3   OH2 6815   4.951   4.487   0.988 -0.1140  0.0858 -0.1885
 2270TIP3    H1 6816   4.947   4.453   0.899  0.5761 -0.8579  0.1294
 2270TIP3    H2 6817   4.887   4.559   0.989  0.2918  0.4959 -1.5958
 2271TIP3   OH2 6818   3.958   0.960   5.033 -0.2223 -1.1938 -0.6364
 2271TIP3    H1 6819   3.958   0.891   5.099 -0.0824  0.1796  0.8569
 2271TIP3    H2 6820   3.875   1.005   5.045 -0.5980 -1.4529 -2.0348
 2272TIP3   OH2 6821   2.310   1.969   4.319 -0.4645 -0.9588 -0.2853
 2272TIP3    H1 6822   2.362   2.042   4.352 -2.1624  0.7617 -1.2067
 2272TIP3    H2 6823   2.369   1.894   4.323  1.5246  0.5389  0.2359
 2273TIP3   OH2 6824   2.996   0.549   2.000 -0.0860  0.5909  0.2551
 2273TIP3    H1 6825   2.917   0.518   1.954 -0.5975 -0.7889  1.9650
 2273TIP3    H2 6826   3.030   0.618   1.944  0.6296 -2.4200 -3.4343
 2274TIP3   OH2 6827   1.105   5.159   3.038 -0.1951  0.1315 -0.2584
 2274TIP3    H1 6828   1.034   5.218   3.064  1.3586  2.2180 -0.5210
 2274TIP3    H2 6829   1.127   5.112   3.118 -0.6213  0.8391  0.2901
 2275TIP3   OH2 6830   2.668   4.239   3.393  0.6248 -0.4949 -0.0144
 2275TIP3    H1 6831   2.749   4.290   3.396  1.1027 -1.2686  1.5260
 2275TIP3    H2 6832   2.697   4.150   3.372  0.3913 -1.1058  2.0908
 2276TIP3   OH2 6833   3.523   1.814   3.515  0.3439  0.0551 -0.0820
 2276TIP3    H1 6834   3.582   1.748   3.552 -1.7969 -0.5780  2.5572
 2276TIP3    H2 6835   3.496   1.867   3.590 -1.4425  1.1108 -1.3955
 2277TIP3   OH2 6836   1.285   4.878   1.441  0.3112  0.2426 -0.7709
 2277TIP3    H1 6837   1.294   4.973   1.444 -2.0076  0.5032  1.0248
 2277TIP3    H2 6838   1.192   4.862   1.459  0.8019 -2.3861 -0.1298
 2278TIP3   OH2 6839   4.939   2.151   0.029 -0.8897 -0.2960 -0.2602
 2278TIP3    H1 6840   4.904   2.092   0.095  1.1827 -0.3216  0.9014
 2278TIP3    H2 6841   5.021   2.110   0.001 -0.0857  1.3223 -0.4144
 2279TIP3   OH2 6842   4.017   3.833   1.213 -0.3282 -0.1666 -0.3138
 2279TIP3    H1 6843   4.045   3.759   1.158 -2.0163 -1.7430  0.8090
 2279TIP3    H2 6844   4.097   3.882   1.229  0.7196 -1.3008 -1.7857
 2280TIP3   OH2 6845   2.181   3.111   3.458 -0.7137  0.4006  0.0646
 2280TIP3    H1 6846   2.200   3.196   3.419  0.5285  0.5051  0.8308
 2280TIP3    H2 6847   2.240   3.106   3.533 -1.9027 -0.4773  0.9637
 2281TIP3   OH2 6848   4.712   0.267   1.908  0.8862  0.0894 -0.9006
 2281TIP3    H1 6849   4.720   0.354   1.870  0.1879  0.0091 -1.2440
 2281TIP3    H2 6850   4.649   0.222   1.853  0.4138 -0.2710 -0.0875
 2282TIP3   OH2 6851   2.785   3.618   3.861  0.1328  0.8820  0.1171
 2282TIP3    H1 6852   2.791   3.634   3.767  1.3614  0.4855  0.1158
 2282TIP3    H2 6853   2.835   3.538   3.876 -1.3600  0.0488  0.8997
 2283TIP3   OH2 6854   4.581   2.532   0.848  0.6431 -0.5048  0.6094
 2283TIP3    H1 6855   4.556   2.578   0.768 -0.6451 -0.1335  1.1949
 2283TIP3    H2 6856   4.537   2.581   0.918  1.5724 -0.9480  1.5274
 2284TIP3   OH2 6857   2.959   2.058   4.554 -0.7369  0.2766 -0.5764
 2284TIP3    H1 6858   2.915   2.142   4.537  0.4124  1.0384  0.0554
 2284TIP3    H2 6859   3.030   2.081   4.614  0.8818 -0.8166 -1.9983
 2285TIP3   OH2 6860   0.836   0.340   3.437 -0.6431  0.1903 -0.1508
 2285TIP3    H1 6861   0.797   0.425   3.417  0.2503  0.5838 -0.2574
 2285TIP3    H2 6862   0.900   0.326   3.367 -0.8194 -0.5980 -0.1627
 2286TIP3   OH2 6863   4.365   0.127   2.816  0.6437 -0.0694 -0.0719
 2286TIP3    H1 6864   4.420   0.133   2.894  0.3862  0.3568  0.0890
 2286TIP3    H2 6865   4.426   0.119   2.743  0.9485  1.0340  0.0455
 2287TIP3   OH2 6866   5.458   5.572   1.332  0.2014 -0.4800 -0.3660
 2287TIP3    H1 6867   5.509   5.631   1.275  0.2198 -1.2511 -1.1637
 2287TIP3    H2 6868   5.367   5.597   1.316  0.2869  2.2117  2.4781
 2288TIP3   OH2 6869   1.124   2.339   2.598  0.4324 -0.1729  0.5345
 2288TIP3    H1 6870   1.129   2.335   2.694 -0.0148 -0.6378  0.5445
 2288TIP3    H2 6871   1.155   2.254   2.568  1.2072  0.2113  0.2305
 2289TIP3   OH2 6872   2.934   3.679   2.449  0.5212  0.4050  0.5905
 2289TIP3    H1 6873   3.017   3.633   2.441  1.0259  1.1573  1.3860
 2289TIP3    H2 6874   2.869   3.609   2.462  1.2560 -0.1045  1.6925
 2290TIP3   OH2 6875   3.294   1.802   2.222 -0.6629  0.1463 -0.3425
 2290TIP3    H1 6876   3.208   1.762   2.240  0.0957 -2.1804 -1.5335
 2290TIP3    H2 6877   3.354   1.728   2.217  1.8860  1.8018  2.4110
 2291TIP3   OH2 6878   3.449   4.947   4.457 -0.0057  0.0570  0.3391
 2291TIP3    H1 6879   3.430   5.038   4.433 -0.0038 -0.2599 -0.9285
 2291TIP3    H2 6880   3.363   4.906   4.465  0.0086  0.0181  0.2920
 2292TIP3   OH2 6881   4.528   3.475   2.932  0.2898 -0.3192  0.1442
 2292TIP3    H1 6882   4.513   3.460   2.838  0.1476 -2.5866  0.4777
 2292TIP3    H2 6883   4.477   3.553   2.952 -2.7497 -1.8306 -0.9647
 2293TIP3   OH2 6884   3.338   1.386   2.660 -0.4025 -0.5619  0.4219
 2293TIP3    H1 6885   3.256   1.412   2.702 -1.5237 -0.1804 -1.8672
 2293TIP3    H2 6886   3.311   1.343   2.579  1.6655  0.5288 -0.9260
 2294TIP3   OH2 6887   4.108   5.690   3.068  0.1189 -0.3208 -0.4338
 2294TIP3    H1 6888   4.181   5.690   3.129  0.6496 -1.7902 -1.0215
 2294TIP3    H2 6889   4.032   5.711   3.122  1.0600  2.2634  0.0137
 2295TIP3   OH2 6890   2.792   0.759   4.978  0.0866 -0.2499  0.5707
 2295TIP3    H1 6891   2.785   0.730   4.887  0.5474 -0.8149  0.7047
 2295TIP3    H2 6892   2.884   0.743   5.001 -0.1209 -0.5073  1.2583
 2296TIP3   OH2 6893   4.075   5.814   0.211 -0.1855 -0.2682 -0.4535
 2296TIP3    H1 6894   4.069   5.881   0.143  1.1447  0.1404 -0.1909
 2296TIP3    H2 6895   4.079   5.863   0.293 -0.2472 -0.7005 -0.1884
 2297TIP3   OH2 6896   4.571   5.295   0.690 -0.0277 -0.3821  0.0940
 2297TIP3    H1 6897   4.596   5.357   0.621 -0.8686 -0.8843 -0.6934
 2297TIP3    H2 6898   4.527   5.349   0.756 -3.2480 -0.3637 -1.8288
 2298TIP3   OH2 6899   1.234   4.935   4.581 -0.1658 -0.3828  0.1370
 2298TIP3    H1 6900   1.322   4.918   4.546 -0.4877  0.6796 -1.2909
 2298TIP3    H2 6901   1.176   4.886   4.523 -0.5568 -0.5104  0.6397
 2299TIP3   OH2 6902   4.200   3.474   1.314  0.5545 -0.0667  0.3525
 2299TIP3    H1 6903   4.270   3.533   1.285  1.3744 -2.2000 -2.5041
 2299TIP3    H2 6904   4.122   3.505   1.269  0.2956  0.5587  1.2095
 2300TIP3   OH2 6905   1.181   4.478   5.122  0.7533  1.0134  0.0245
 2300TIP3    H1 6906   1.233   4.487   5.043 -0.3392 -0.1999 -0.8730
 2300TIP3    H2 6907   1.221   4.406   5.170 -0.4585 -0.4189 -1.0230
 2301TIP3   OH2 6908   6.321   3.973   4.883 -0.3173  0.5486 -0.1201
 2301TIP3    H1 6909   6.271   4.052   4.905 -0.9284  0.1954 -0.2248
 2301TIP3    H2 6910   6.347   3.986   4.792 -1.3630  0.1396 -0.4852
 2302TIP3   OH2 6911   3.992   1.060   0.046  0.2535  0.2537 -0.3267
 2302TIP3    H1 6912   3.937   1.132   0.076  1.7428  1.6612 -0.8382
 2302TIP3    H2 6913   3.994   1.069  -0.049 -1.2411 -1.7915 -0.6274
 2303TIP3   OH2 6914   3.575   1.296   2.582  0.3487 -0.0148 -0.5654
 2303TIP3    H1 6915   3.481   1.314   2.594  0.0753 -2.1144  0.9189
 2303TIP3    H2 6916   3.618   1.378   2.606 -1.0364  0.4023  0.6458
 2304TIP3   OH2 6917   1.033   0.496   0.269  0.3230 -0.1358  0.1892
 2304TIP3    H1 6918   1.094   0.567   0.288 -0.8780  0.3096  2.9101
 2304TIP3    H2 6919   1.007   0.463   0.356 -2.4278 -1.0165 -0.8687
 2305TIP3   OH2 6920   0.139   2.115   3.691 -0.2862  0.0486 -0.7614
 2305TIP3    H1 6921   0.076   2.140   3.623 -0.6455  0.6883 -0.2001
 2305TIP3    H2 6922   0.196   2.192   3.699  0.4111 -0.4233 -1.0756
 2306TIP3   OH2 6923   4.579   2.755   2.756 -0.3101  0.0164 -0.3805
 2306TIP3    H1 6924   4.599   2.774   2.665 -1.4598  0.5176 -0.5549
 2306TIP3    H2 6925   4.664   2.750   2.799  0.3711 -2.1987 -1.8308
 2307TIP3   OH2 6926   1.258   4.764   1.189  0.0210 -0.2489  0.2566
 2307TIP3    H1 6927   1.274   4.794   1.279 -0.2871  0.2089  0.1612
 2307TIP3    H2 6928   1.178   4.810   1.162 -0.9177 -1.7614  0.3766
 2308TIP3   OH2 6929   1.326   1.524   3.331  0.0371 -0.0955 -0.0646
 2308TIP3    H1 6930   1.261   1.573   3.280 -0.5155 -0.5353  0.2070
 2308TIP3    H2 6931   1.400   1.515   3.272 -0.4763 -0.3267 -0.6863
 2309TIP3   OH2 6932   4.702   0.315   4.409  0.4982 -0.3478  0.4429
 2309TIP3    H1 6933   4.691   0.262   4.487 -2.5177 -0.9690 -0.2976
 2309TIP3    H2 6934   4.613   0.334   4.379  1.5200  1.5023 -1.7543
 2310TIP3   OH2 6935   5.714   2.974   0.865 -0.1567 -0.1682  0.6253
 2310TIP3    H1 6936   5.684   3.061   0.838 -1.6989 -0.7521  0.3500
 2310TIP3    H2 6937   5.708   2.921   0.785 -0.2847 -0.8011  1.0466
 2311TIP3   OH2 6938   1.807   0.150   1.087 -0.6714  0.1447 -0.2062
 2311TIP3    H1 6939   1.727   0.196   1.114  0.0586  1.0133  0.5835
 2311TIP3    H2 6940   1.877   0.209   1.114  0.2535 -0.8478 -0.4061
 2312TIP3   OH2 6941   0.028   5.725   3.540  0.2795 -0.2490 -0.0981
 2312TIP3    H1 6942  -0.010   5.730   3.453  0.0993 -1.5513 -0.1205
 2312TIP3    H2 6943   0.003   5.807   3.583  1.7137  1.1401 -1.7675
 2313TIP3   OH2 6944   1.317   0.605   4.761  0.2533  0.7709  0.1349
 2313TIP3    H1 6945   1.258   0.551   4.708  0.2681 -1.1104  1.9115
 2313TIP3    H2 6946   1.336   0.681   4.706 -0.8096 -0.4017 -1.9683
 2314TIP3   OH2 6947   0.228   1.237   1.232 -0.0264 -0.0059 -0.4148
 2314TIP3    H1 6948   0.198   1.300   1.166 -1.9966 -0.1935  0.2585
 2314TIP3    H2 6949   0.240   1.289   1.311 -1.1897 -0.3714  0.0149
 2315TIP3   OH2 6950   3.268   5.235   4.217  0.3854 -0.1450  0.4309
 2315TIP3    H1 6951   3.263   5.324   4.183 -0.0455  0.0347  0.9525
 2315TIP3    H2 6952   3.354   5.232   4.260  0.2847  0.1046  0.6509
 2316TIP3   OH2 6953   0.307   1.459   0.931  0.6227 -0.5492  0.5842
 2316TIP3    H1 6954   0.283   1.548   0.903  1.9671 -0.5987 -0.8825
 2316TIP3    H2 6955   0.224   1.418   0.954 -0.0705  0.9604  0.9189
 2317TIP3   OH2 6956   0.883   5.944   4.851  0.1462 -0.1511 -0.3117
 2317TIP3    H1 6957   0.902   5.853   4.828 -0.7211 -0.9974  2.0316
 2317TIP3    H2 6958   0.789   5.945   4.870  0.2907  1.0236  0.4832
 2318TIP3   OH2 6959   0.192   0.334   5.018  0.0344 -0.4175  0.0399
 2318TIP3    H1 6960   0.148   0.261   4.974  0.2450 -0.5621  0.0645
 2318TIP3    H2 6961   0.142   0.348   5.098  0.8891 -1.5751  0.8285
 2319TIP3   OH2 6962   2.708   3.971   3.274 -0.7303 -0.5995 -0.6704
 2319TIP3    H1 6963   2.661   3.935   3.349 -1.6601  1.5766 -0.1363
 2319TIP3    H2 6964   2.640   3.985   3.207 -0.7438  1.6862 -0.2368
 2320TIP3   OH2 6965   4.851   1.704   1.965 -0.1269  0.1568  0.0633
 2320TIP3    H1 6966   4.876   1.747   2.047  1.8073  1.0933 -0.9546
 2320TIP3    H2 6967   4.811   1.621   1.993  2.3709 -0.5510  1.9343
 2321TIP3   OH2 6968   5.051   4.521   0.029  0.4051  0.2189 -0.2891
 2321TIP3    H1 6969   5.117   4.540  -0.037 -0.5298 -1.2379 -1.7049
 2321TIP3    H2 6970   5.057   4.595   0.090  0.1817  2.5246 -2.8682
 2322TIP3   OH2 6971   4.131   0.975   3.085  0.0433  0.2428  0.1543
 2322TIP3    H1 6972   4.155   0.884   3.102  1.2208  0.4917 -0.0938
 2322TIP3    H2 6973   4.144   1.019   3.168  3.0586  0.8864 -0.5254
 2323TIP3   OH2 6974   4.377   3.802   1.795 -0.3037 -0.0630  0.0200
 2323TIP3    H1 6975   4.324   3.880   1.779 -1.6918 -0.5833  1.6862
 2323TIP3    H2 6976   4.312   3.733   1.814  0.9238 -1.2031  0.2393
 2324TIP3   OH2 6977   3.523   3.563   4.926  0.4277  0.1174  0.5846
 2324TIP3    H1 6978   3.435   3.579   4.892  0.1775 -0.9639  0.6865
 2324TIP3    H2 6979   3.509   3.543   5.019  0.4702 -2.6484  0.0538
 2325TIP3   OH2 6980   1.912   2.287   4.570 -0.4541  0.1064 -0.2663
 2325TIP3    H1 6981   1.890   2.233   4.646 -0.2415 -1.2008 -1.0940
 2325TIP3    H2 6982   1.828   2.304   4.528 -0.4506 -0.1836 -0.3914
 2326TIP3   OH2 6983   1.535   1.665   2.799 -0.0195 -0.4559 -0.5410
 2326TIP3    H1 6984   1.581   1.601   2.854 -0.1637 -0.2400 -0.1691
 2326TIP3    H2 6985   1.456   1.686   2.847  0.8977  1.4034  0.2469
 2327TIP3   OH2 6986   4.298   3.054   3.066 -0.6138  0.6974 -0.5837
 2327TIP3    H1 6987   4.285   2.988   3.134 -0.8932 -0.4904 -1.7491
 2327TIP3    H2 6988   4.285   3.137   3.112  0.9074  0.0474  1.1819
 2328TIP3   OH2 6989   2.774   4.748   4.349  0.6424 -0.0918 -0.4413
 2328TIP3    H1 6990   2.685   4.740   4.383  1.1652 -1.1495  0.7408
 2328TIP3    H2 6991   2.776   4.835   4.310 -0.9611 -0.1138 -0.6525
 2329TIP3   OH2 6992   6.323   1.185   2.004 -0.1875 -0.0283 -0.0267
 2329TIP3    H1 6993   6.312   1.097   2.039  0.3152 -0.7460 -1.5938
 2329TIP3    H2 6994   6.249   1.198   1.946 -0.7453  0.9566  0.8646
 2330TIP3   OH2 6995   2.514   0.794   2.309  0.1212  0.1002  0.0485
 2330TIP3    H1 6996   2.488   0.722   2.252  2.6245 -1.0420  0.2091
 2330TIP3    H2 6997   2.577   0.844   2.258  2.1628 -0.7499  1.5937
 2331TIP3   OH2 6998   0.658   3.079   3.696 -0.3543 -1.1427 -0.1927
 2331TIP3    H1 6999   0.574   3.114   3.723 -0.8825 -0.9729 -1.9011
 2331TIP3    H2 7000   0.692   3.035   3.774  0.0966  2.5539  1.9188
 2332TIP3   OH2 7001   4.316   0.922   2.170 -0.1367 -0.1775 -0.3844
 2332TIP3    H1 7002   4.252   0.854   2.191  0.3244 -1.1093 -1.8497
 2332TIP3    H2 7003   4.371   0.929   2.248 -1.4208 -0.0128  0.5424
 2333TIP3   OH2 7004   5.329   0.924   4.412  0.1819  0.3352  0.4818
 2333TIP3    H1 7005   5.376   0.927   4.495 -0.1603  1.2118  0.6547
 2333TIP3    H2 7006   5.309   1.016   4.393 -0.3723  0.0769 -0.2056
 2334TIP3   OH2 7007   3.374   0.479   0.419  0.4453 -0.4963 -0.3155
 2334TIP3    H1 7008   3.428   0.404   0.394 -0.5632 -1.6294  0.7680
 2334TIP3    H2 7009   3.328   0.450   0.498 -0.1938  1.1698 -0.0394
 2335TIP3   OH2 7010   3.649   0.032   3.531 -0.3072 -0.0123 -0.2042
 2335TIP3    H1 7011   3.655  -0.060   3.555  0.1662  0.6451  2.5169
 2335TIP3    H2 7012   3.576   0.066   3.582 -0.5950  1.1121 -1.3075
 2336TIP3   OH2 7013   4.184   2.483   1.648 -0.7689 -0.2321 -0.0803
 2336TIP3    H1 7014   4.203   2.420   1.579  0.0546  0.4143 -0.4538
 2336TIP3    H2 7015   4.090   2.501   1.639 -0.6253  0.0099 -1.1728
 2337TIP3   OH2 7016   2.485   0.846   3.783 -0.2454  0.1807 -0.2291
 2337TIP3    H1 7017   2.492   0.863   3.689 -0.3329  1.5628 -0.0038
 2337TIP3    H2 7018   2.496   0.932   3.824  1.3553 -0.6056  1.1141
 2338TIP3   OH2 7019   2.162   3.014   1.662  0.6431 -0.6494 -0.2487
 2338TIP3    H1 7020   2.251   2.978   1.663  0.7906 -0.4784 -2.2525
 2338TIP3    H2 7021   2.166   3.086   1.599 -0.4974  0.5914  1.0389
 2339TIP3   OH2 7022   3.145   2.222   3.572  0.1414 -0.0422 -0.6595
 2339TIP3    H1 7023   3.187   2.136   3.562  0.7239  0.1347  0.1649
 2339TIP3    H2 7024   3.071   2.206   3.630 -0.2272 -0.1286 -1.1469
 2340TIP3   OH2 7025   0.578   3.499   4.677 -0.4444 -0.1003 -0.2074
 2340TIP3    H1 7026   0.642   3.557   4.634 -0.7360 -0.0281 -0.5445
 2340TIP3    H2 7027   0.518   3.559   4.722  0.7452 -0.1905  1.6258
 2341TIP3   OH2 7028   0.390   2.896   1.204 -0.1954  0.2140 -0.6257
 2341TIP3    H1 7029   0.347   2.910   1.289 -0.0354  1.1972 -0.6953
 2341TIP3    H2 7030   0.406   2.984   1.171  1.4325 -0.1356 -0.8317
 2342TIP3   OH2 7031   1.398   2.288   1.067 -0.3460  0.2524 -0.1638
 2342TIP3    H1 7032   1.450   2.368   1.074  0.4567 -0.2474 -0.2527
 2342TIP3    H2 7033   1.413   2.241   1.149  0.1961 -0.3802 -0.6034
 2343TIP3   OH2 7034   4.586   5.428   0.294 -0.2970  0.0886 -0.1708
 2343TIP3    H1 7035   4.610   5.500   0.236 -2.1013 -0.4137 -1.6512
 2343TIP3    H2 7036   4.608   5.458   0.382  1.0987  1.4973 -0.9594
 2344TIP3   OH2 7037   3.192   3.845   3.779  0.3292 -0.3394 -0.0878
 2344TIP3    H1 7038   3.104   3.844   3.742 -0.2420  0.8822  1.1635
 2344TIP3    H2 7039   3.245   3.891   3.714  0.0855 -1.1697 -0.8921
 2345TIP3   OH2 7040   5.836   3.158   2.399  0.0988  1.1366 -0.3254
 2345TIP3    H1 7041   5.828   3.233   2.457 -1.0792  1.2586 -0.6154
 2345TIP3    H2 7042   5.823   3.194   2.311  0.5694  0.7525 -0.5595
 2346TIP3   OH2 7043   1.560   4.079   2.810 -0.0306 -0.0760  0.3779
 2346TIP3    H1 7044   1.645   4.122   2.821  0.3634 -1.4245  3.9778
 2346TIP3    H2 7045   1.501   4.129   2.868 -0.7317 -1.3939  0.8283
 2347TIP3   OH2 7046   2.608   4.079   5.142 -0.3434  0.0873 -0.3709
 2347TIP3    H1 7047   2.645   4.041   5.222 -1.0680 -0.0549 -0.1009
 2347TIP3    H2 7048   2.674   4.060   5.075  0.2220  0.1102  0.1601
 2348TIP3   OH2 7049   4.537   0.980   0.953 -0.1618 -0.3713  0.3170
 2348TIP3    H1 7050   4.452   0.986   0.908 -0.8075  0.6889  1.6215
 2348TIP3    H2 7051   4.590   0.924   0.896 -0.4730  1.9451 -2.4862
 2349TIP3   OH2 7052   4.155   5.056   1.810  0.2094 -0.4429 -0.1534
 2349TIP3    H1 7053   4.165   5.147   1.838 -0.8040 -0.5354  0.5661
 2349TIP3    H2 7054   4.244   5.029   1.786  0.3958  0.9842 -1.2235
 2350TIP3   OH2 7055   3.554   5.507   4.686  0.2119 -0.3214 -0.8485
 2350TIP3    H1 7056   3.586   5.546   4.767 -0.3267 -0.5503 -0.5193
 2350TIP3    H2 7057   3.617   5.437   4.667 -0.7933 -1.6739  0.5362
 2351TIP3   OH2 7058   6.266   1.561   3.549  0.1265  0.1715  0.4023
 2351TIP3    H1 7059   6.199   1.619   3.588 -0.1493 -0.4519  0.8777
 2351TIP3    H2 7060   6.347   1.611   3.555 -0.1761  0.6666  0.4514
 2352TIP3   OH2 7061   1.424   2.767   0.641 -0.0862 -0.9923 -0.8283
 2352TIP3    H1 7062   1.458   2.766   0.552  0.9774 -0.0570 -0.4560
 2352TIP3    H2 7063   1.402   2.859   0.657 -1.9515 -1.4230 -0.7245
 2353TIP3   OH2 7064   0.236   2.872   3.592 -1.0839  0.2414 -0.0344
 2353TIP3    H1 7065   0.296   2.800   3.575 -1.5303 -0.0889 -0.2269
 2353TIP3    H2 7066   0.150   2.839   3.563 -1.4628  0.4802  0.7933
 2354TIP3   OH2 7067   4.601   1.306   3.002  0.0958  0.1529 -0.4919
 2354TIP3    H1 7068   4.556   1.238   2.951  0.4921  0.3826 -1.1754
 2354TIP3    H2 7069   4.532   1.363   3.034 -0.4552 -1.7190  1.8902
 2355TIP3   OH2 7070   5.192   1.940   0.965  0.5952 -0.1904  0.6597
 2355TIP3    H1 7071   5.133   1.891   1.022 -0.8758  0.4723 -0.2409
 2355TIP3    H2 7072   5.223   1.874   0.902 -1.0082 -0.1165 -0.2600
 2356TIP3   OH2 7073   1.911   4.514   0.273 -0.4818  0.2970 -0.2105
 2356TIP3    H1 7074   1.986   4.493   0.328 -0.0184  0.1513 -0.8862
 2356TIP3    H2 7075   1.934   4.481   0.186 -1.8705 -0.9312 -0.1606
 2357TIP3   OH2 7076   0.702   0.459   2.991  0.0725 -0.0283 -0.4204
 2357TIP3    H1 7077   0.620   0.459   3.041  0.0252  0.5419 -0.5006
 2357TIP3    H2 7078   0.755   0.527   3.032  0.9303 -1.1100  0.3184
 2358TIP3   OH2 7079   4.627   5.291   3.928  0.4573  0.5082 -0.3655
 2358TIP3    H1 7080   4.677   5.250   3.998  0.5968  0.5579 -0.4353
 2358TIP3    H2 7081   4.621   5.224   3.860 -1.1506 -0.1486  0.3774
 2359TIP3   OH2 7082   1.750   2.580   3.770 -0.3194 -0.1575  0.2643
 2359TIP3    H1 7083   1.728   2.606   3.681  0.1884  0.7981  0.4025
 2359TIP3    H2 7084   1.672   2.534   3.802 -0.5881 -0.3070 -0.5819
 2360TIP3   OH2 7085   2.577   1.522   3.452  0.2379 -0.6771 -0.2733
 2360TIP3    H1 7086   2.536   1.538   3.537 -1.1598 -1.6306 -0.7319
 2360TIP3    H2 7087   2.566   1.604   3.404 -0.9294 -0.8330 -0.2941
 2361TIP3   OH2 7088   1.263   1.098   2.939  0.1269  0.3406  0.3721
 2361TIP3    H1 7089   1.281   1.133   2.852  0.1102  0.6424  0.4888
 2361TIP3    H2 7090   1.288   1.006   2.933  0.2731  0.3961  0.0933
 2362TIP3   OH2 7091   3.944   3.847   0.631  0.3507 -0.1259  0.2127
 2362TIP3    H1 7092   3.909   3.765   0.667  1.6055 -0.3064  1.0548
 2362TIP3    H2 7093   3.949   3.831   0.537 -2.4009  0.1449 -0.0686
 2363TIP3   OH2 7094   4.049   5.306   2.457  0.5161  0.4787  0.3933
 2363TIP3    H1 7095   3.963   5.269   2.441  0.4152  1.3308 -1.2261
 2363TIP3    H2 7096   4.109   5.232   2.453  0.1726  0.2629 -1.4436
 2364TIP3   OH2 7097   1.678   3.173   3.504 -0.1790  0.2069  0.2255
 2364TIP3    H1 7098   1.689   3.207   3.416 -1.4168  1.2812  0.4630
 2364TIP3    H2 7099   1.642   3.085   3.492 -3.0559  1.3692 -0.3596
 2365TIP3   OH2 7100   5.187   2.608   2.458  0.4775 -0.3831 -0.5759
 2365TIP3    H1 7101   5.194   2.600   2.554 -0.8359 -0.4845 -0.4777
 2365TIP3    H2 7102   5.278   2.608   2.428  1.0184  1.5336  0.8182
 2366TIP3   OH2 7103   5.547   1.780   4.698  0.2452  0.1339  0.1469
 2366TIP3    H1 7104   5.595   1.770   4.780  1.6314 -0.6082 -0.7220
 2366TIP3    H2 7105   5.461   1.812   4.725  0.9641  0.7918  1.8110
 2367TIP3   OH2 7106   5.340   0.918   3.429 -0.3784  1.1508  0.5335
 2367TIP3    H1 7107   5.407   0.929   3.497  1.1631  0.7823 -0.8481
 2367TIP3    H2 7108   5.364   0.836   3.385 -3.0912 -0.2182  1.3971
 2368TIP3   OH2 7109   3.383   0.581   1.033 -0.4322  0.7815  0.6883
 2368TIP3    H1 7110   3.373   0.537   0.948 -0.5915  0.2077  1.0026
 2368TIP3    H2 7111   3.302   0.561   1.080 -0.7036  1.7802  0.6762
 2369TIP3   OH2 7112   3.346   1.441   3.364 -0.4674 -0.8881  0.1527
 2369TIP3    H1 7113   3.332   1.381   3.438 -1.9158 -0.1481  0.5206
 2369TIP3    H2 7114   3.436   1.424   3.336 -0.3544 -2.1806  1.1837
 2370TIP3   OH2 7115   4.774   3.327   2.976  0.0046  0.2859  0.0705
 2370TIP3    H1 7116   4.701   3.374   2.934 -1.0723 -1.1499  0.2401
 2370TIP3    H2 7117   4.812   3.390   3.036 -1.0582  1.1023 -0.0834
 2371TIP3   OH2 7118   4.074   0.323   4.740  0.1487  0.4520  0.0247
 2371TIP3    H1 7119   4.052   0.328   4.833 -0.9336 -2.1636 -0.0096
 2371TIP3    H2 7120   3.992   0.345   4.695  0.5508  1.2699 -0.3277
 2372TIP3   OH2 7121   1.237   2.297   2.862 -0.0355  0.1911 -0.2736
 2372TIP3    H1 7122   1.305   2.230   2.871  0.6773  0.9207 -0.1513
 2372TIP3    H2 7123   1.172   2.275   2.929 -0.6459 -1.3394 -1.3150
 2373TIP3   OH2 7124   4.536   1.736   1.316  0.3800  0.0720 -0.5120
 2373TIP3    H1 7125   4.514   1.677   1.243  1.6456 -1.0749 -0.0058
 2373TIP3    H2 7126   4.610   1.787   1.285  0.2065  0.3782 -0.4263
 2374TIP3   OH2 7127   2.400   2.470   2.720  0.0687 -0.0867 -0.0165
 2374TIP3    H1 7128   2.408   2.525   2.798 -1.9130  1.0903 -0.5671
 2374TIP3    H2 7129   2.325   2.506   2.673  0.4667 -1.5188 -1.8723
 2375TIP3   OH2 7130   2.034   4.680   2.187 -0.4354 -0.1975 -0.0957
 2375TIP3    H1 7131   1.942   4.685   2.161 -0.1682 -1.0676 -1.3324
 2375TIP3    H2 7132   2.067   4.602   2.141  1.0027  0.3131  0.0300
 2376TIP3   OH2 7133   3.947   3.437   4.281  0.0660  0.2577  0.8573
 2376TIP3    H1 7134   3.862   3.448   4.240  1.0555  0.3776 -1.2606
 2376TIP3    H2 7135   3.941   3.488   4.362 -1.4896  1.2110  0.1788
 2377TIP3   OH2 7136   5.298   4.338   4.310  0.1756 -0.0829 -0.1929
 2377TIP3    H1 7137   5.325   4.278   4.241  0.8302  1.6811 -1.5654
 2377TIP3    H2 7138   5.380   4.378   4.340 -0.2989  0.6496  0.1575
 2378TIP3   OH2 7139   4.237   4.914   2.072  0.3298 -0.2093  0.2913
 2378TIP3    H1 7140   4.301   4.946   2.135  0.4295 -1.4677  0.8662
 2378TIP3    H2 7141   4.290   4.874   2.003  0.1830 -0.6626  0.4388
 2379TIP3   OH2 7142   2.412   1.307   0.341  0.2383  0.3627  0.0027
 2379TIP3    H1 7143   2.457   1.352   0.413 -0.0121  1.1849 -0.3558
 2379TIP3    H2 7144   2.334   1.358   0.325  0.1452  0.0173 -0.6704
 2380TIP3   OH2 7145   4.027   3.077   2.943 -0.4896 -0.5247 -0.1398
 2380TIP3    H1 7146   4.003   3.152   2.889 -1.7742  1.3235  2.7784
 2380TIP3    H2 7147   4.121   3.090   2.961 -0.5199 -0.0709 -0.3016
 2381TIP3   OH2 7148   3.961   4.960   4.738 -0.0907  0.5491  0.3124
 2381TIP3    H1 7149   4.003   5.027   4.684 -1.3931  1.3934  0.3266
 2381TIP3    H2 7150   3.941   4.889   4.677  0.5777  0.4945  0.1472
 2382TIP3   OH2 7151   1.038   0.867   2.756  0.2946 -0.4149  0.5058
 2382TIP3    H1 7152   1.081   0.817   2.687  0.5626 -0.6089  0.8103
 2382TIP3    H2 7153   1.080   0.837   2.837 -0.1383 -0.3194  0.7694
 2383TIP3   OH2 7154   0.960   1.599   2.461 -0.5199 -0.3675 -0.2939
 2383TIP3    H1 7155   0.886   1.603   2.522  0.3394  2.7157  0.7088
 2383TIP3    H2 7156   0.920   1.595   2.375 -1.9207  1.2920  0.2189
 2384TIP3   OH2 7157   0.876   3.709   4.028 -0.2374 -0.1114 -0.2124
 2384TIP3    H1 7158   0.792   3.702   4.074 -0.3279  0.8081 -0.2281
 2384TIP3    H2 7159   0.887   3.802   4.011 -0.2912 -0.4261 -2.2219
 2385TIP3   OH2 7160   4.021   5.138   2.946 -0.1036 -0.0768  0.2666
 2385TIP3    H1 7161   4.090   5.073   2.931  0.4114  0.3511  0.7761
 2385TIP3    H2 7162   4.041   5.176   3.031  0.0001  1.2615 -0.3350
 2386TIP3   OH2 7163   4.819   2.205   1.974 -0.3934  0.4334  0.4106
 2386TIP3    H1 7164   4.804   2.274   1.909  0.6881  1.0984  0.8353
 2386TIP3    H2 7165   4.752   2.220   2.041 -0.1122  1.1270  0.5420
 2387TIP3   OH2 7166   2.385   4.594   1.777 -0.0190 -0.0085  0.5850
 2387TIP3    H1 7167   2.444   4.518   1.774  1.6387  1.1902  1.3551
 2387TIP3    H2 7168   2.378   4.615   1.870 -0.7251  0.5927  0.4007
 2388TIP3   OH2 7169   1.442   3.624   2.992  0.6995  0.3662 -0.2155
 2388TIP3    H1 7170   1.352   3.639   3.020  0.5865 -1.2841  0.4317
 2388TIP3    H2 7171   1.461   3.696   2.932 -1.6591 -0.1857 -1.7761
 2389TIP3   OH2 7172   1.777   2.491   4.785  0.6696  0.0197 -0.2125
 2389TIP3    H1 7173   1.785   2.473   4.692 -0.0315  0.6593 -0.4084
 2389TIP3    H2 7174   1.705   2.436   4.815  1.8289 -1.3030  0.2920
 2390TIP3   OH2 7175   3.459   0.483   1.921  0.3107 -0.2940  0.4252
 2390TIP3    H1 7176   3.505   0.529   1.991  0.7873  0.0261 -0.0937
 2390TIP3    H2 7177   3.528   0.440   1.871  0.0433  0.1132 -0.3022
 2391TIP3   OH2 7178   2.590   3.554   4.817  0.3173 -0.2493  0.6270
 2391TIP3    H1 7179   2.547   3.610   4.752  0.7446  0.4679  0.9540
 2391TIP3    H2 7180   2.561   3.465   4.795 -2.2328  0.2703  1.4689
 2392TIP3   OH2 7181   3.956   4.257   0.436 -0.5746  0.1914 -0.4841
 2392TIP3    H1 7182   3.865   4.247   0.408 -0.3281  3.2494 -2.9036
 2392TIP3    H2 7183   3.956   4.339   0.486  0.9101  0.4627 -0.9002
 2393TIP3   OH2 7184   5.680   3.780   2.391  0.1106 -0.1109 -0.3151
 2393TIP3    H1 7185   5.621   3.808   2.321 -1.4717  1.3318  1.4774
 2393TIP3    H2 7186   5.665   3.685   2.399  0.5934 -0.3628 -2.1236
 2394TIP3   OH2 7187   5.291   4.082   1.819  0.1295 -0.3273  0.2672
 2394TIP3    H1 7188   5.286   4.113   1.910 -1.3431 -0.9970  0.4436
 2394TIP3    H2 7189   5.382   4.095   1.794  0.1487  1.6622  1.1993
 2395TIP3   OH2 7190   3.723   2.139   0.801  0.5948  0.5600  0.3808
 2395TIP3    H1 7191   3.796   2.200   0.790  0.5579  0.2958 -1.8327
 2395TIP3    H2 7192   3.645   2.195   0.801  0.6613  0.6523  0.3193
 2396TIP3   OH2 7193   2.753   3.629   1.727  0.7371  0.2902  0.1274
 2396TIP3    H1 7194   2.844   3.623   1.755  0.7807 -1.2591 -0.2212
 2396TIP3    H2 7195   2.705   3.656   1.805  1.5530  1.7491  0.1496
 2397TIP3   OH2 7196   2.758   3.462   2.479 -0.1255 -0.0444 -0.0730
 2397TIP3    H1 7197   2.746   3.410   2.558 -0.1847 -0.1865 -0.1733
 2397TIP3    H2 7198   2.669   3.476   2.445  0.0066 -2.8352 -1.9249
 2398TIP3   OH2 7199   0.316   5.304   2.697  0.0408 -0.2894  0.1245
 2398TIP3    H1 7200   0.319   5.345   2.783 -0.2260 -1.5627  0.7767
 2398TIP3    H2 7201   0.240   5.342   2.655 -0.9614 -1.0043  1.2055
 2399TIP3   OH2 7202   3.790   4.862   3.954  0.4014  0.1056 -0.1530
 2399TIP3    H1 7203   3.875   4.849   3.996  0.2901  0.4923  0.1991
 2399TIP3    H2 7204   3.756   4.942   3.993  0.6963  0.9990 -1.6456
 2400TIP3   OH2 7205   0.244   4.660   4.354  0.0080 -0.1925  0.5659
 2400TIP3    H1 7206   0.306   4.587   4.354 -0.4201 -0.5700  1.2755
 2400TIP3    H2 7207   0.212   4.665   4.264  0.6597 -0.3425  0.3208
 2401TIP3   OH2 7208   3.191   4.266   0.969  0.9958  0.0179  0.3730
 2401TIP3    H1 7209   3.155   4.226   0.889  1.1437 -1.0201  0.8111
 2401TIP3    H2 7210   3.286   4.255   0.960  1.0275  0.1251  0.5779
 2402TIP3   OH2 7211   5.173   0.657   3.402  0.2627 -0.4010  0.3970
 2402TIP3    H1 7212   5.163   0.564   3.426 -0.6777  0.0174  1.7320
 2402TIP3    H2 7213   5.252   0.685   3.447  1.1843 -0.7977 -0.8997
 2403TIP3   OH2 7214   5.891   0.123   0.871 -0.3940  0.6518 -0.1156
 2403TIP3    H1 7215   5.866   0.068   0.797 -0.1085  1.1064 -0.5580
 2403TIP3    H2 7216   5.811   0.133   0.922 -0.7701  0.9389 -0.7573
 2404TIP3   OH2 7217   3.330   1.930   4.549  0.0186  0.7027  0.0382
 2404TIP3    H1 7218   3.367   1.854   4.595 -0.0434  1.2421  1.0165
 2404TIP3    H2 7219   3.397   1.998   4.561 -0.8464  1.4115  1.0114
 2405TIP3   OH2 7220   3.134   4.502   1.915 -0.2875  1.1437  0.0639
 2405TIP3    H1 7221   3.126   4.462   2.002 -1.4556 -0.6037 -0.7847
 2405TIP3    H2 7222   3.228   4.513   1.902  0.0295 -0.4614  0.7642
 2406TIP3   OH2 7223   4.686   2.926   2.298 -0.2675 -0.6319  0.6604
 2406TIP3    H1 7224   4.703   2.870   2.374 -1.1778  0.1396  1.4524
 2406TIP3    H2 7225   4.610   2.978   2.322  0.3743  0.7639 -0.1705
 2407TIP3   OH2 7226   0.067   0.095   4.925 -0.0791  0.2898  0.1862
 2407TIP3    H1 7227   0.115   0.076   4.844 -1.5483  0.9280 -0.8710
 2407TIP3    H2 7228   0.008   0.020   4.935  0.4201 -0.0156  0.9522
 2408TIP3   OH2 7229   2.995   0.159   4.606  0.1679  0.0393  0.2760
 2408TIP3    H1 7230   3.051   0.117   4.671  0.5032 -1.5016 -0.9557
 2408TIP3    H2 7231   2.931   0.093   4.582  0.7194  0.1604 -1.7317
 2409TIP3   OH2 7232   1.664   3.427   1.802 -0.0943 -0.3063 -0.2495
 2409TIP3    H1 7233   1.579   3.440   1.761  1.0713  1.5018 -2.2968
 2409TIP3    H2 7234   1.681   3.508   1.849 -0.2132 -1.3399  1.6929
 2410TIP3   OH2 7235   2.165   0.135   1.728  0.2110  0.0599 -0.2080
 2410TIP3    H1 7236   2.079   0.175   1.741  0.4765  0.6816 -0.3358
 2410TIP3    H2 7237   2.172   0.070   1.798 -0.9795 -1.0659 -1.1148
 2411TIP3   OH2 7238   1.479   5.116   3.136  0.0472 -0.0276 -0.3382
 2411TIP3    H1 7239   1.440   5.130   3.222 -0.0769  2.3475 -0.7169
 2411TIP3    H2 7240   1.573   5.110   3.152 -0.0051  0.0677  0.0083
 2412TIP3   OH2 7241   0.427   5.208   1.982  0.5819 -0.2795  0.9019
 2412TIP3    H1 7242   0.336   5.184   1.995  0.4165 -0.0849  0.1379
 2412TIP3    H2 7243   0.458   5.152   1.911  1.8136 -2.1600  2.7710
 2413TIP3   OH2 7244   1.876   2.855   3.518 -0.0214 -0.1776 -0.2814
 2413TIP3    H1 7245   1.956   2.883   3.472 -0.1584  1.5836  0.4774
 2413TIP3    H2 7246   1.819   2.931   3.515 -1.7299 -1.4196 -0.8274
 2414TIP3   OH2 7247   3.573   3.318   4.497 -0.6052  0.3554 -0.5241
 2414TIP3    H1 7248   3.523   3.382   4.445 -1.3207  0.3963  0.1930
 2414TIP3    H2 7249   3.517   3.240   4.498  0.5770 -0.5752 -2.0027
 2415TIP3   OH2 7250   1.613   1.226   1.877 -0.2388  0.2107  1.1742
 2415TIP3    H1 7251   1.693   1.268   1.909  0.2523 -0.0362  0.2934
 2415TIP3    H2 7252   1.617   1.236   1.782 -1.0518 -0.1768  1.0902
 2416TIP3   OH2 7253   5.713   2.127   4.838 -0.5104  0.2930  0.1669
 2416TIP3    H1 7254   5.724   2.149   4.745  1.3705 -1.5896 -0.1227
 2416TIP3    H2 7255   5.785   2.173   4.882 -0.5799  0.0847  0.5006
 2417TIP3   OH2 7256   3.751   5.694   4.240 -0.1638 -0.5122 -0.4336
 2417TIP3    H1 7257   3.702   5.775   4.227  0.9004  0.6837  2.2935
 2417TIP3    H2 7258   3.684   5.626   4.251 -1.0708 -0.1364 -2.9000
 2418TIP3   OH2 7259   4.871   3.737   3.960 -0.2943 -0.5127  0.2251
 2418TIP3    H1 7260   4.791   3.685   3.955  0.0642 -1.0236 -0.4697
 2418TIP3    H2 7261   4.911   3.727   3.873  0.6789 -0.5238  0.6655
 2419TIP3   OH2 7262   2.209   0.012   1.018  0.3126  0.6277 -0.2653
 2419TIP3    H1 7263   2.304   0.005   1.021  0.4022  1.7696  0.2167
 2419TIP3    H2 7264   2.182   0.020   1.110 -0.5228 -2.2921 -0.1546
 2420TIP3   OH2 7265   1.362   2.373   2.027  0.2631  0.2645 -0.1323
 2420TIP3    H1 7266   1.402   2.286   2.017 -2.5005 -0.8644 -2.8643
 2420TIP3    H2 7267   1.433   2.428   2.059  2.7038 -2.5330 -0.2998
 2421TIP3   OH2 7268   5.568   3.457   1.732  0.0524  0.3181  0.0200
 2421TIP3    H1 7269   5.529   3.499   1.808  2.2084  0.9962  0.8056
 2421TIP3    H2 7270   5.536   3.509   1.657 -2.2881 -0.5169  0.3553
 2422TIP3   OH2 7271   0.725   4.858   3.460 -0.2098 -0.2708 -0.3345
 2422TIP3    H1 7272   0.638   4.880   3.425 -0.4184 -1.4377 -0.5999
 2422TIP3    H2 7273   0.714   4.770   3.495  1.0347 -0.6909 -0.9463
 2423TIP3   OH2 7274   3.939   1.466   4.362  0.2131  0.3646  0.5937
 2423TIP3    H1 7275   3.956   1.422   4.445 -0.3813  0.4170  0.7521
 2423TIP3    H2 7276   3.964   1.403   4.295 -1.8364 -0.7660  0.8036
 2424TIP3   OH2 7277   1.797   3.025   4.660  0.4070 -0.5002  0.1357
 2424TIP3    H1 7278   1.846   2.962   4.713  1.0592 -0.6996 -0.6895
 2424TIP3    H2 7279   1.757   2.973   4.591  1.1856  0.0063 -0.7258
 2425TIP3   OH2 7280   0.697   0.490   0.835  0.0578 -0.3910  0.1833
 2425TIP3    H1 7281   0.792   0.501   0.837 -0.0496  1.3145 -1.2591
 2425TIP3    H2 7282   0.666   0.533   0.915  0.4251  0.2371 -0.0079
 2426TIP3   OH2 7283   0.131   3.973   0.985  0.4393  0.4452  0.5173
 2426TIP3    H1 7284   0.176   4.042   0.934 -0.0840 -1.0605 -2.1863
 2426TIP3    H2 7285   0.199   3.908   1.002  0.2867  0.2602  0.4252
 2427TIP3   OH2 7286   1.461   0.944   3.290  0.5583 -0.6909  0.5409
 2427TIP3    H1 7287   1.460   1.038   3.270  0.6936 -0.6175  0.8711
 2427TIP3    H2 7288   1.547   0.929   3.329  0.6043 -0.9877  0.3308
 2428TIP3   OH2 7289   4.813   0.665   2.066 -0.0317 -0.3865  0.0491
 2428TIP3    H1 7290   4.719   0.653   2.080  0.1048 -0.7462  0.6980
 2428TIP3    H2 7291   4.819   0.742   2.009 -0.7284 -0.5704 -0.2906
 2429TIP3   OH2 7292   5.251   5.862   2.309  0.1484  0.2765 -0.0969
 2429TIP3    H1 7293   5.171   5.915   2.299  0.5266  1.3730  2.1118
 2429TIP3    H2 7294   5.220   5.772   2.310 -0.9893  0.6465  0.0435
 2430TIP3   OH2 7295   0.889   5.531   1.681 -0.1781  0.2646 -0.3675
 2430TIP3    H1 7296   0.977   5.551   1.713 -0.7099 -1.1777  2.2794
 2430TIP3    H2 7297   0.881   5.436   1.688 -1.9553  0.3545 -0.5558
 2431TIP3   OH2 7298   2.960   5.738   3.992 -0.0697  0.4847  0.4326
 2431TIP3    H1 7299   3.002   5.778   3.917  0.2817 -2.6068 -1.1655
 2431TIP3    H2 7300   2.870   5.720   3.963 -0.5329  0.9822  1.4714
 2432TIP3   OH2 7301   3.103   5.228   0.200 -0.0201  0.1949  0.5616
 2432TIP3    H1 7302   3.053   5.309   0.194  2.7227  2.2594  3.0220
 2432TIP3    H2 7303   3.047   5.169   0.251 -0.8152  1.6466  1.4266
 2433TIP3   OH2 7304   4.067   1.464   4.805  0.0679  0.4514 -0.6173
 2433TIP3    H1 7305   4.029   1.395   4.860 -1.8764  3.1978  1.7758
 2433TIP3    H2 7306   4.034   1.446   4.718  0.1788 -1.9685 -0.2322
 2434TIP3   OH2 7307   0.285   2.136   2.432  0.8962  0.4838 -0.2848
 2434TIP3    H1 7308   0.243   2.081   2.498 -0.0939  0.3244 -1.0273
 2434TIP3    H2 7309   0.349   2.078   2.390  0.5244  0.1703 -0.4231
 2435TIP3   OH2 7310   1.184   4.846   5.037  0.2152  0.0790  0.0521
 2435TIP3    H1 7311   1.268   4.836   4.992 -1.0088 -2.1250 -1.9347
 2435TIP3    H2 7312   1.197   4.804   5.122  1.4467  0.8334  0.2566
 2436TIP3   OH2 7313   0.533   2.893   0.492 -0.2629  0.0024 -0.3575
 2436TIP3    H1 7314   0.551   2.901   0.398  0.7448 -1.3747 -0.3113
 2436TIP3    H2 7315   0.585   2.964   0.532  1.3987 -0.9835 -0.6557
 2437TIP3   OH2 7316   4.472   3.187   0.730 -0.7197  1.1057 -0.2342
 2437TIP3    H1 7317   4.397   3.171   0.674  0.5293  0.7163 -1.8562
 2437TIP3    H2 7318   4.464   3.122   0.800 -0.4192 -0.8860 -1.9425
 2438TIP3   OH2 7319   4.576   3.504   4.204  0.2077  0.7833  0.1687
 2438TIP3    H1 7320   4.670   3.514   4.187  0.4001 -0.3089  0.5247
 2438TIP3    H2 7321   4.555   3.576   4.263  1.2614 -0.1002  1.6747
 2439TIP3   OH2 7322   4.776   0.763   1.270  0.4581  0.4128  0.4102
 2439TIP3    H1 7323   4.692   0.806   1.255  1.0168  1.2227 -0.5362
 2439TIP3    H2 7324   4.757   0.669   1.265 -0.4522  0.5812  0.5867
 2440TIP3   OH2 7325   0.179   4.492   2.026  0.1262  0.5072  0.6104
 2440TIP3    H1 7326   0.260   4.446   2.047  0.4570  0.5940 -0.4005
 2440TIP3    H2 7327   0.110   4.426   2.037  0.5934 -0.2725 -0.8187
 2441TIP3   OH2 7328   1.587   0.470   2.414 -0.6463 -0.4359  0.2813
 2441TIP3    H1 7329   1.597   0.523   2.493  0.3674  1.5455 -1.0937
 2441TIP3    H2 7330   1.495   0.479   2.390 -0.8137 -0.5446  0.8748
 2442TIP3   OH2 7331   3.372   2.257   2.694  0.3064  0.1161  0.0614
 2442TIP3    H1 7332   3.320   2.265   2.614  1.3406  1.7188 -0.5050
 2442TIP3    H2 7333   3.344   2.174   2.733 -2.8737  0.9970 -0.0366
 2443TIP3   OH2 7334   5.693   4.546   1.402 -0.0217 -0.4301 -0.3968
 2443TIP3    H1 7335   5.699   4.565   1.309  0.1507  1.9870  0.0364
 2443TIP3    H2 7336   5.606   4.506   1.413 -1.5131  2.3228 -1.2144
 2444TIP3   OH2 7337   2.874   2.117   4.059 -0.5029 -0.9006 -0.5712
 2444TIP3    H1 7338   2.830   2.138   4.141  0.4207  0.7052 -0.4553
 2444TIP3    H2 7339   2.946   2.059   4.084 -0.0707 -0.2104 -0.2034
 2445TIP3   OH2 7340   3.032   0.993   2.843 -0.3004 -0.0362  0.7524
 2445TIP3    H1 7341   2.970   0.956   2.905 -2.3041  0.3577 -0.8852
 2445TIP3    H2 7342   3.055   0.921   2.785 -0.5074  0.1916  0.3810
 2446TIP3   OH2 7343   0.824   4.767   0.365  0.2757 -0.4411  0.2096
 2446TIP3    H1 7344   0.898   4.729   0.317 -0.2712 -1.1630 -0.0903
 2446TIP3    H2 7345   0.750   4.757   0.305 -0.0865  0.1629  0.5567
 2447TIP3   OH2 7346   0.492   1.311   0.329  0.3633 -0.0701 -0.4469
 2447TIP3    H1 7347   0.445   1.304   0.246 -1.0052  0.7370  0.2343
 2447TIP3    H2 7348   0.482   1.226   0.371 -1.6246  0.4514  0.2446
 2448TIP3   OH2 7349   5.990   2.788   3.454 -0.2028 -0.0135  0.1805
 2448TIP3    H1 7350   6.019   2.714   3.507 -0.0752  1.1598  1.8363
 2448TIP3    H2 7351   6.052   2.791   3.381  0.6557 -0.6997  0.8553
 2449TIP3   OH2 7352   6.070   4.822   1.379 -0.0742 -0.6662 -0.0551
 2449TIP3    H1 7353   6.141   4.786   1.325  1.0489 -0.3230  1.1312
 2449TIP3    H2 7354   6.017   4.872   1.318  1.9388  0.8585 -0.6903
 2450TIP3   OH2 7355   1.332   0.150   4.889  0.1490 -0.6576 -0.0123
 2450TIP3    H1 7356   1.370   0.069   4.920 -0.0903 -0.6185  0.3835
 2450TIP3    H2 7357   1.374   0.165   4.804 -0.1442 -1.4307 -0.3050
 2451TIP3   OH2 7358   5.596   2.962   3.591  0.1480 -0.3864  0.0811
 2451TIP3    H1 7359   5.628   2.995   3.675 -1.1200  1.1476  0.0125
 2451TIP3    H2 7360   5.674   2.954   3.537  0.9709 -1.3220  1.3631
 2452TIP3   OH2 7361   2.418   1.019   4.482 -0.5839  0.2439  1.0056
 2452TIP3    H1 7362   2.373   1.081   4.424 -0.7970 -0.4783  0.3754
 2452TIP3    H2 7363   2.359   1.007   4.556 -1.0830 -0.0969  0.5605
 2453TIP3   OH2 7364   3.588   1.433   3.239 -0.2420  0.4319 -0.0902
 2453TIP3    H1 7365   3.659   1.445   3.176  0.6346 -0.9952  0.5772
 2453TIP3    H2 7366   3.632   1.411   3.321 -1.4590 -1.4846  0.1028
 2454TIP3   OH2 7367   4.974   0.796   3.951 -0.3658 -0.1867  0.4345
 2454TIP3    H1 7368   4.878   0.796   3.947 -0.4839  2.7750  0.5977
 2454TIP3    H2 7369   5.001   0.844   3.873  0.9969 -0.8778  0.4568
 2455TIP3   OH2 7370   3.438   2.534   4.704  0.8725  0.0282 -0.2135
 2455TIP3    H1 7371   3.448   2.568   4.615  1.0805  0.0277 -0.1900
 2455TIP3    H2 7372   3.514   2.567   4.752  0.6137  0.2613  0.0404
 2456TIP3   OH2 7373   1.651   2.327   4.583  0.3096 -0.0416  0.3348
 2456TIP3    H1 7374   1.615   2.407   4.544 -0.5219 -0.4990  0.1387
 2456TIP3    H2 7375   1.574   2.274   4.603  0.7375 -0.0858  2.0360
 2457TIP3   OH2 7376   0.982   4.047   0.822 -0.4152  0.4889 -0.3749
 2457TIP3    H1 7377   0.997   4.032   0.915 -0.4607  1.9237 -0.1210
 2457TIP3    H2 7378   1.070   4.051   0.784 -0.3204  1.6810 -0.0783
 2458TIP3   OH2 7379   0.630   0.301   1.687 -0.3411 -0.1296 -0.2328
 2458TIP3    H1 7380   0.546   0.297   1.732 -0.7644  0.0366 -0.9924
 2458TIP3    H2 7381   0.614   0.359   1.612  0.7589  0.8609  0.2648
 2459TIP3   OH2 7382   2.372   4.742   5.005 -0.7007  0.0331  0.2482
 2459TIP3    H1 7383   2.392   4.682   4.933 -2.1298  1.5858 -1.5406
 2459TIP3    H2 7384   2.279   4.727   5.024 -0.4996  0.1026  1.3417
 2460TIP3   OH2 7385   1.794   3.911   4.251  0.5390  0.3306  0.2462
 2460TIP3    H1 7386   1.782   3.991   4.200  3.7454  0.1804 -0.9459
 2460TIP3    H2 7387   1.836   3.941   4.332  1.6412 -0.0748 -0.1530
 2461TIP3   OH2 7388   0.735   5.146   3.625  0.3115 -0.2349  0.2040
 2461TIP3    H1 7389   0.666   5.094   3.583 -0.9985 -0.2249  2.2156
 2461TIP3    H2 7390   0.795   5.080   3.661 -0.2850 -0.3616  1.0189
 2462TIP3   OH2 7391   0.141   4.794   4.652 -0.1222  0.5936 -0.2765
 2462TIP3    H1 7392   0.135   4.710   4.697 -2.4050  1.0349  0.3382
 2462TIP3    H2 7393   0.179   4.772   4.566  0.1370 -0.9067  0.1852
 2463TIP3   OH2 7394   0.582   5.748   1.859 -0.1866 -0.5966  0.4330
 2463TIP3    H1 7395   0.599   5.785   1.945 -1.4981 -2.1599  1.4148
 2463TIP3    H2 7396   0.496   5.779   1.834 -1.7457 -3.5025  1.6976
 2464TIP3   OH2 7397   6.009   5.306   3.722  0.0470 -0.1642  0.6867
 2464TIP3    H1 7398   6.053   5.388   3.742  0.0396 -0.0346  0.1709
 2464TIP3    H2 7399   5.923   5.314   3.763  1.0878 -1.1339  3.2808
 2465TIP3   OH2 7400   5.496   5.172   3.334  0.2438 -0.0986 -0.4113
 2465TIP3    H1 7401   5.555   5.158   3.408 -1.4483  1.1556  1.2737
 2465TIP3    H2 7402   5.438   5.096   3.334  0.0009  0.0858 -0.2033
 2466TIP3   OH2 7403   1.628   4.175   5.149  0.0426  0.1496  0.2255
 2466TIP3    H1 7404   1.595   4.195   5.062 -1.4587 -2.5408  0.0961
 2466TIP3    H2 7405   1.711   4.131   5.134 -1.6408 -3.2406 -0.2099
 2467TIP3   OH2 7406   4.166   0.375   2.281 -0.7920  0.1056  0.5663
 2467TIP3    H1 7407   4.238   0.313   2.296 -0.5757  0.4787  1.0793
 2467TIP3    H2 7408   4.123   0.342   2.202 -0.8547 -0.8727  0.9917
 2468TIP3   OH2 7409   3.719   3.954   4.259 -0.2741 -0.5143 -0.5878
 2468TIP3    H1 7410   3.624   3.956   4.250 -0.1413  0.6637 -2.4150
 2468TIP3    H2 7411   3.746   4.045   4.242  1.1409 -0.7044  0.4836
 2469TIP3   OH2 7412   2.245   3.485   4.191  0.4254  0.3414 -0.2817
 2469TIP3    H1 7413   2.305   3.440   4.131 -0.4044 -0.9191 -0.2302
 2469TIP3    H2 7414   2.158   3.458   4.160 -0.0595  1.0273  0.4736
 2470TIP3   OH2 7415   0.892   2.797   0.772  0.2437  0.1194  0.0101
 2470TIP3    H1 7416   0.832   2.723   0.764 -0.4789  0.5811  0.9722
 2470TIP3    H2 7417   0.950   2.774   0.844  0.3025  0.2998  0.0226
 2471TIP3   OH2 7418   2.319   5.368   2.594 -0.4134 -0.0789  0.0083
 2471TIP3    H1 7419   2.244   5.316   2.623  2.1042 -3.6049  0.8438
 2471TIP3    H2 7420   2.301   5.385   2.501 -2.8892  0.5447  0.5281
 2472TIP3   OH2 7421   3.474   4.750   2.403 -0.0871 -0.0419 -0.7778
 2472TIP3    H1 7422   3.518   4.672   2.436 -1.0655  0.1332  1.0598
 2472TIP3    H2 7423   3.384   4.723   2.388 -0.4435  0.7212 -0.0925
 2473TIP3   OH2 7424   2.017   2.768   0.088 -0.1955 -0.0860  0.0377
 2473TIP3    H1 7425   2.016   2.684   0.135  0.7337 -1.4174 -2.1711
 2473TIP3    H2 7426   2.075   2.823   0.140  0.7418 -1.4751  0.5324
 2474TIP3   OH2 7427   1.198   1.762   0.508  0.8029  0.2491 -0.2338
 2474TIP3    H1 7428   1.140   1.727   0.440  0.1165 -0.0673  0.4961
 2474TIP3    H2 7429   1.150   1.837   0.543  0.2209 -0.7838  1.2623
 2475TIP3   OH2 7430   3.058   3.256   4.256 -0.7169 -0.4103 -0.2688
 2475TIP3    H1 7431   3.125   3.202   4.298  0.1186 -0.4482 -1.5925
 2475TIP3    H2 7432   3.107   3.327   4.214 -1.3435 -1.1200 -2.3147
 2476TIP3   OH2 7433   1.732   2.764   0.181 -0.5222  0.5327  0.0076
 2476TIP3    H1 7434   1.826   2.745   0.176 -0.2561  1.2184  1.6566
 2476TIP3    H2 7435   1.690   2.679   0.176  0.2626  0.1117  0.4509
 2477TIP3   OH2 7436   3.821   6.007   3.999  0.0882  0.4760 -0.5379
 2477TIP3    H1 7437   3.862   5.921   4.008  0.6095  0.7739  0.0820
 2477TIP3    H2 7438   3.745   5.993   3.944 -1.6775 -0.9846  2.0819
 2478TIP3   OH2 7439   4.021   5.463   4.699  0.0836 -0.0698  0.1930
 2478TIP3    H1 7440   4.042   5.533   4.761 -0.4782 -1.2857  1.8302
 2478TIP3    H2 7441   3.929   5.443   4.716  0.8138 -2.7706  1.4956
 2479TIP3   OH2 7442   0.701   3.621   1.905 -0.0811 -0.6395 -0.0059
 2479TIP3    H1 7443   0.662   3.593   1.822  0.8978 -2.0918  0.0043
 2479TIP3    H2 7444   0.646   3.579   1.972  0.4695 -1.3025  0.0352
 2480TIP3   OH2 7445   2.608   1.134   0.667  0.7267  0.6647  0.0453
 2480TIP3    H1 7446   2.575   1.169   0.749  1.6942  2.7921 -0.3856
 2480TIP3    H2 7447   2.573   1.045   0.662 -1.7316  1.4724  1.3502
 2481TIP3   OH2 7448   5.149   3.458   1.307 -0.0808 -0.4272 -0.0325
 2481TIP3    H1 7449   5.061   3.424   1.317 -0.3264 -0.0950 -0.9704
 2481TIP3    H2 7450   5.137   3.546   1.271  0.6600 -0.9842 -1.7463
 2482TIP3   OH2 7451   3.893   4.523   3.095  0.6282  0.6814  0.4303
 2482TIP3    H1 7452   3.833   4.580   3.046  0.8223  0.2311 -0.3510
 2482TIP3    H2 7453   3.947   4.584   3.146  0.8764  1.2230 -0.4454
 2483TIP3   OH2 7454   2.897   2.862   3.211  0.1866 -0.1410 -0.1589
 2483TIP3    H1 7455   2.897   2.776   3.170  0.3911 -0.2120 -0.0110
 2483TIP3    H2 7456   2.990   2.883   3.224  0.1411 -0.9567  1.9984
 2484TIP3   OH2 7457   5.417   2.579   2.310 -0.0606 -0.1210  0.1775
 2484TIP3    H1 7458   5.490   2.582   2.248 -0.1321  1.0989  0.1368
 2484TIP3    H2 7459   5.362   2.507   2.279  0.1477  0.1745 -0.8975
 2485TIP3   OH2 7460   2.833   5.105   3.422  0.0758 -0.3044  0.8156
 2485TIP3    H1 7461   2.888   5.070   3.351 -0.9048  0.4600 -0.3421
 2485TIP3    H2 7462   2.841   5.039   3.492  2.2125 -0.3698  0.6004
 2486TIP3   OH2 7463   1.475   1.612   1.456  0.3319 -0.5857  0.2334
 2486TIP3    H1 7464   1.408   1.561   1.410  0.9577 -1.5144  0.3239
 2486TIP3    H2 7465   1.558   1.576   1.425  0.7684 -0.9561  1.7584
 2487TIP3   OH2 7466   0.269   2.769   0.546 -0.2055  0.3877 -0.3223
 2487TIP3    H1 7467   0.209   2.767   0.472 -0.5829  2.1663 -0.1112
 2487TIP3    H2 7468   0.349   2.810   0.512 -0.4293  1.3401  0.2601
 2488TIP3   OH2 7469   4.517   3.207   1.456  0.2940  0.0249  0.1590
 2488TIP3    H1 7470   4.502   3.219   1.550 -0.9387 -0.6762  0.0687
 2488TIP3    H2 7471   4.598   3.156   1.452 -0.2822 -0.9774  0.8952
 2489TIP3   OH2 7472   3.035   3.767   5.106  0.3389  0.2020 -0.1444
 2489TIP3    H1 7473   3.032   3.787   5.012  1.3872  1.4814  0.0512
 2489TIP3    H2 7474   3.124   3.791   5.132  0.5857 -1.6452  0.8769
 2490TIP3   OH2 7475   4.954   5.609   0.415  0.5795  0.2636  0.4319
 2490TIP3    H1 7476   4.946   5.607   0.320 -2.5987 -0.2978  0.5994
 2490TIP3    H2 7477   4.998   5.692   0.434  1.7673  0.1370 -1.4976
 2491TIP3   OH2 7478   5.001   5.046   0.925  0.1277 -0.0481  0.2441
 2491TIP3    H1 7479   4.975   5.083   0.840  0.4828  1.6782  0.8398
 2491TIP3    H2 7480   4.928   5.068   0.983  0.0299 -0.9438  0.4652
 2492TIP3   OH2 7481   2.685   2.944   2.360  0.0713  0.0981 -0.3319
 2492TIP3    H1 7482   2.714   3.034   2.378 -1.4671  0.6873 -0.5819
 2492TIP3    H2 7483   2.620   2.954   2.290 -1.7079 -0.9400  1.0810
 2493TIP3   OH2 7484   2.817   4.455   0.927 -0.4729 -0.1130  0.2004
 2493TIP3    H1 7485   2.756   4.454   0.853  2.2837  0.0346 -2.2315
 2493TIP3    H2 7486   2.872   4.532   0.913  0.0436  0.0485  2.5799
 2494TIP3   OH2 7487   3.208   5.813   4.133  0.1306  0.6293 -0.3114
 2494TIP3    H1 7488   3.230   5.901   4.163  0.0693  0.4157  0.3804
 2494TIP3    H2 7489   3.113   5.814   4.122  0.1492  0.6973 -0.4699
 2495TIP3   OH2 7490   3.299   1.401   0.368 -0.3300 -0.4215  0.1991
 2495TIP3    H1 7491   3.355   1.465   0.411 -2.1367  1.6023 -0.3421
 2495TIP3    H2 7492   3.356   1.324   0.357  2.1567  1.3129  0.1495
 2496TIP3   OH2 7493   5.344   2.210   2.830  0.0040  0.0263  0.2867
 2496TIP3    H1 7494   5.349   2.155   2.752 -0.1064  0.6083 -0.1474
 2496TIP3    H2 7495   5.425   2.261   2.829 -0.5677  0.9600 -0.1751
 2497TIP3   OH2 7496   4.147   5.850   3.880 -0.4977  0.1377 -0.3233
 2497TIP3    H1 7497   4.090   5.856   3.958 -1.5770 -1.0326 -0.9814
 2497TIP3    H2 7498   4.190   5.936   3.876 -0.5483  0.2939  1.4528
 2498TIP3   OH2 7499   2.651   4.748   0.863 -1.0877 -0.5417  0.1178
 2498TIP3    H1 7500   2.686   4.832   0.832  1.2371 -0.7555  1.9251
 2498TIP3    H2 7501   2.650   4.756   0.958 -0.3339 -2.7205  0.3557
 2499TIP3   OH2 7502   6.102   3.296   1.586  0.4513 -1.0871 -0.3253
 2499TIP3    H1 7503   6.038   3.321   1.653  1.6297 -0.4280  0.6054
 2499TIP3    H2 7504   6.077   3.207   1.560 -1.7856 -0.2731 -1.1813
 2500TIP3   OH2 7505   5.983   2.864   0.934  0.3541 -0.5137 -0.2442
 2500TIP3    H1 7506   5.952   2.861   0.844 -0.1284 -0.3184 -0.0904
 2500TIP3    H2 7507   5.929   2.799   0.980 -1.3688  1.3161  0.4759
 2501TIP3   OH2 7508   0.119   1.667   0.931 -0.4023  0.0015  0.5673
 2501TIP3    H1 7509   0.132   1.758   0.903 -0.0176  0.2757  1.5907
 2501TIP3    H2 7510   0.075   1.674   1.016  0.9142 -0.7310  1.3361
 2502TIP3   OH2 7511   6.278   2.221   4.711  0.6222 -0.1094  0.3451
 2502TIP3    H1 7512   6.236   2.163   4.774 -0.3945 -0.1325 -0.3354
 2502TIP3    H2 7513   6.244   2.193   4.626  2.8041 -0.8280 -0.3740
 2503TIP3   OH2 7514   3.006   3.337   1.907  0.1709 -0.1519 -0.2136
 2503TIP3    H1 7515   2.970   3.366   1.823  1.5142  0.8128 -0.4939
 2503TIP3    H2 7516   3.036   3.247   1.891 -1.0715 -0.5705 -0.2788
 2504TIP3   OH2 7517   3.824   0.034   0.049 -0.1512  0.5241  0.3680
 2504TIP3    H1 7518   3.863   0.119   0.070  0.3260  0.2999  0.3960
 2504TIP3    H2 7519   3.876  -0.029   0.098 -0.7699  0.2510  0.6749
 2505TIP3   OH2 7520   5.292   0.112   3.431  0.6419 -0.2929  0.2045
 2505TIP3    H1 7521   5.241   0.050   3.380  0.8567 -1.2485  1.1321
 2505TIP3    H2 7522   5.268   0.094   3.522  2.1965 -0.3842  0.6207
 2506TIP3   OH2 7523  -0.006   3.131   5.038  0.1518  0.0079 -0.4837
 2506TIP3    H1 7524  -0.034   3.080   5.114  1.8673  0.4308  0.4794
 2506TIP3    H2 7525   0.058   3.193   5.073 -1.3253  2.3760 -1.7465
 2507TIP3   OH2 7526   3.065   4.151   5.155 -0.0625 -0.4795  0.4649
 2507TIP3    H1 7527   3.154   4.183   5.169  0.3623 -2.0811  1.7061
 2507TIP3    H2 7528   3.016   4.228   5.125  1.8917  0.2647 -1.0543
 2508TIP3   OH2 7529   1.635   5.712   4.562  0.3862 -0.2146 -0.0739
 2508TIP3    H1 7530   1.712   5.765   4.540  0.9344 -0.2722  1.5240
 2508TIP3    H2 7531   1.568   5.739   4.500  1.4929  0.3499 -1.0545
 2509TIP3   OH2 7532   3.929   1.086   0.760 -0.1676  0.1263  0.0743
 2509TIP3    H1 7533   3.967   1.017   0.706  0.1218 -0.9450  1.5808
 2509TIP3    H2 7534   3.837   1.088   0.735  0.0018 -0.1994 -0.5918
 2510TIP3   OH2 7535   4.021   0.664   0.450 -0.3460 -0.0743  0.2767
 2510TIP3    H1 7536   4.023   0.577   0.491  0.3925 -0.5769 -0.7887
 2510TIP3    H2 7537   4.004   0.724   0.523 -1.1808 -1.1252  0.9860
 2511TIP3   OH2 7538   2.969   5.450   0.147  0.3113  0.2887  0.0683
 2511TIP3    H1 7539   3.004   5.438   0.059 -0.5865 -0.5807 -0.1779
 2511TIP3    H2 7540   2.986   5.542   0.167 -0.9406  0.9473 -1.6710
 2512TIP3   OH2 7541   4.504   5.202   2.927 -0.4476 -0.1736 -0.2810
 2512TIP3    H1 7542   4.416   5.195   2.889 -2.0007  1.4500  2.7322
 2512TIP3    H2 7543   4.507   5.134   2.995 -0.3782  1.3935  1.3459
 2513TIP3   OH2 7544   5.173   5.085   4.513 -0.8838 -0.1877  0.2361
 2513TIP3    H1 7545   5.125   5.167   4.505 -1.0661 -0.3411 -0.3237
 2513TIP3    H2 7546   5.246   5.104   4.572 -1.0025  0.3378  0.2129
 2514TIP3   OH2 7547   5.841   5.519   0.731  0.6948  0.1288  0.1419
 2514TIP3    H1 7548   5.761   5.467   0.738 -1.3435  3.1809  1.9551
 2514TIP3    H2 7549   5.861   5.519   0.638 -0.0297 -2.5273 -0.1096
 2515TIP3   OH2 7550   5.583   2.214   4.142 -0.0652 -0.1084  0.0527
 2515TIP3    H1 7551   5.677   2.234   4.138 -0.3550  1.2152 -0.8018
 2515TIP3    H2 7552   5.540   2.296   4.118 -1.4592 -0.6250  0.6831
 2516TIP3   OH2 7553   2.433   2.018   4.977 -0.1901 -0.2244 -0.4789
 2516TIP3    H1 7554   2.460   2.093   5.029  0.4773  0.3937 -1.6654
 2516TIP3    H2 7555   2.399   1.955   5.041 -2.1388  1.6237  0.4432
 2517TIP3   OH2 7556   6.013   0.969   0.199  0.5734  0.4624  0.6365
 2517TIP3    H1 7557   6.010   0.942   0.290 -0.3556 -1.1147  0.1750
 2517TIP3    H2 7558   5.921   0.985   0.175  0.9406  2.6680  0.4464
 2518TIP3   OH2 7559   0.372   0.231   2.459  0.4502 -0.3787  0.1133
 2518TIP3    H1 7560   0.371   0.232   2.555 -0.1420 -1.8721  0.1574
 2518TIP3    H2 7561   0.326   0.310   2.433 -3.2018 -1.9392  1.1731
 2519TIP3   OH2 7562   5.863   5.519   1.292 -0.1162  0.9426  0.1309
 2519TIP3    H1 7563   5.872   5.568   1.374 -1.5740  1.2849  0.1243
 2519TIP3    H2 7564   5.870   5.585   1.224 -0.1297  0.8506  0.0399
 2520TIP3   OH2 7565   0.886   3.161   3.554 -0.1385  0.0295 -0.3906
 2520TIP3    H1 7566   0.802   3.136   3.593 -0.3152 -0.3399 -0.9855
 2520TIP3    H2 7567   0.892   3.256   3.569  0.3273 -0.2625  1.4786
 2521TIP3   OH2 7568   0.206   3.845   0.610  0.1350 -0.2914  0.3735
 2521TIP3    H1 7569   0.143   3.914   0.631 -0.6439 -0.6789 -0.6017
 2521TIP3    H2 7570   0.193   3.779   0.678  0.5873  0.3320  1.0695
 2522TIP3   OH2 7571   2.454   1.210   2.349  0.3592 -0.3925 -0.2094
 2522TIP3    H1 7572   2.490   1.200   2.261 -0.7906  0.4058 -0.7886
 2522TIP3    H2 7573   2.528   1.193   2.407  1.3176 -0.1838 -1.3356
 2523TIP3   OH2 7574   3.556   3.695   3.245 -0.2939 -0.1410  0.0160
 2523TIP3    H1 7575   3.566   3.786   3.272  0.1224 -0.1118 -0.2219
 2523TIP3    H2 7576   3.525   3.650   3.323  0.4772  0.0237  0.4267
 2524TIP3   OH2 7577   5.157   1.508   5.160  0.1074  0.2879  0.0659
 2524TIP3    H1 7578   5.175   1.472   5.073 -2.7708 -0.5597 -0.3024
 2524TIP3    H2 7579   5.126   1.597   5.143 -0.4259  0.1324  0.1874
 2525TIP3   OH2 7580   3.598   3.873   2.095 -0.3478  0.2028  0.0648
 2525TIP3    H1 7581   3.527   3.930   2.066  0.1872  0.1487 -1.4921
 2525TIP3    H2 7582   3.656   3.929   2.146 -0.8288  0.5645  0.2147
 2526TIP3   OH2 7583   5.673   2.152   0.678 -0.2478 -0.1010 -0.1028
 2526TIP3    H1 7584   5.692   2.085   0.744  0.6127  2.0267  1.9591
 2526TIP3    H2 7585   5.734   2.132   0.606  1.2220 -0.5576  1.2081
 2527TIP3   OH2 7586   5.936   1.119   3.003  0.2657 -0.0977 -0.3764
 2527TIP3    H1 7587   5.891   1.203   3.003  0.8169  0.2012  0.1769
 2527TIP3    H2 7588   5.984   1.118   2.920 -0.2985 -0.1771 -0.7082
 2528TIP3   OH2 7589   1.818   4.397   3.716 -0.1673 -0.3892  0.0646
 2528TIP3    H1 7590   1.788   4.464   3.653  1.5104 -2.8060 -3.6620
 2528TIP3    H2 7591   1.886   4.441   3.766 -1.4053  1.5928  0.1550
 2529TIP3   OH2 7592   5.878   1.869   3.725  0.0877 -0.0706 -0.1698
 2529TIP3    H1 7593   5.795   1.822   3.719  0.5746 -0.8486 -1.1236
 2529TIP3    H2 7594   5.870   1.940   3.661  1.0597 -1.6585 -2.1839
 2530TIP3   OH2 7595   2.209   3.382   4.453  0.2624  0.4006  0.0993
 2530TIP3    H1 7596   2.216   3.423   4.367 -1.7643  0.2803 -0.1890
 2530TIP3    H2 7597   2.298   3.355   4.475  1.4459  3.5840 -0.3513
 2531TIP3   OH2 7598   4.771   4.662   4.122  0.3213  0.0579 -0.1198
 2531TIP3    H1 7599   4.699   4.717   4.094  0.9354  0.6975 -0.4858
 2531TIP3    H2 7600   4.732   4.600   4.183 -1.0213 -1.1886 -2.1001
 2532TIP3   OH2 7601   5.617   2.482   2.154  0.6270  0.2864 -0.0417
 2532TIP3    H1 7602   5.619   2.531   2.072  2.5773 -0.6707 -0.6351
 2532TIP3    H2 7603   5.701   2.500   2.195  0.0701 -0.0237  1.3060
 2533TIP3   OH2 7604   3.990   3.259   0.429 -0.0161  0.0601 -0.5885
 2533TIP3    H1 7605   3.951   3.172   0.424 -0.6394  0.3141 -0.2841
 2533TIP3    H2 7606   4.076   3.245   0.467 -0.3947 -0.3420  0.1258
 2534TIP3   OH2 7607   2.756   0.934   0.334 -0.5590  0.1411  0.5408
 2534TIP3    H1 7608   2.833   0.946   0.278 -1.1759 -1.2001 -0.6649
 2534TIP3    H2 7609   2.747   1.018   0.380  1.3729  0.4568  0.4368
 2535TIP3   OH2 7610   0.486   2.704   0.167  0.3856 -0.2504  0.3606
 2535TIP3    H1 7611   0.507   2.612   0.155  0.0774 -0.2743 -0.0179
 2535TIP3    H2 7612   0.392   2.706   0.184  0.5071 -0.0604  1.0700
 2536TIP3   OH2 7613   2.986   5.742   4.815  0.1424  0.6164 -0.1199
 2536TIP3    H1 7614   3.048   5.732   4.742 -0.4257  2.3434 -0.8881
 2536TIP3    H2 7615   2.924   5.670   4.802  0.5532  0.3730 -0.8234
 2537TIP3   OH2 7616   3.969   3.588   4.497  0.0665 -0.0077 -0.5479
 2537TIP3    H1 7617   4.046   3.633   4.533 -0.3155 -0.2166  0.5753
 2537TIP3    H2 7618   3.910   3.658   4.472  0.7952  0.1711 -1.8732
 2538TIP3   OH2 7619   3.074   6.008   4.809  0.6886 -0.1516  0.0275
 2538TIP3    H1 7620   3.021   5.980   4.734  0.2341 -0.1475  0.3392
 2538TIP3    H2 7621   3.074   5.932   4.868  1.0665 -0.1646  0.0147
 2539TIP3   OH2 7622   3.350   4.828   3.495  0.3523 -0.0265  0.4183
 2539TIP3    H1 7623   3.297   4.787   3.564  0.2911  0.4226  0.6443
 2539TIP3    H2 7624   3.287   4.849   3.426  0.6938 -2.2369 -0.6471
 2540TIP3   OH2 7625   1.801   0.788   2.286 -0.0742 -0.5372 -0.2865
 2540TIP3    H1 7626   1.779   0.829   2.369  2.6196 -1.5894  1.0599
 2540TIP3    H2 7627   1.780   0.855   2.220 -1.2413  0.7263  1.2884
 2541TIP3   OH2 7628   0.291   0.716   0.475 -0.4022 -0.0771  0.2872
 2541TIP3    H1 7629   0.381   0.705   0.507 -0.0018 -0.2336 -0.8426
 2541TIP3    H2 7630   0.239   0.726   0.555  0.7444  1.0581  0.9417
 2542TIP3   OH2 7631   2.213   1.500   3.266  0.2445 -0.2233  0.1748
 2542TIP3    H1 7632   2.213   1.595   3.260  0.4804 -0.2470 -0.1969
 2542TIP3    H2 7633   2.122   1.477   3.285  0.0936  0.0462 -0.2247
 2543TIP3   OH2 7634   3.713   0.677   3.537  0.1527 -0.6581  0.3384
 2543TIP3    H1 7635   3.692   0.643   3.449 -0.6608  0.0501  0.2479
 2543TIP3    H2 7636   3.643   0.643   3.592 -0.8546  1.0731  0.1936
 2544TIP3   OH2 7637   4.195   4.267   2.703  0.0488  0.7905 -0.5047
 2544TIP3    H1 7638   4.264   4.283   2.767 -0.0747  1.3850 -0.5114
 2544TIP3    H2 7639   4.172   4.175   2.715  0.6492  0.6610 -0.3172
 2545TIP3   OH2 7640   1.245   1.566   3.584 -0.2051 -0.1518 -0.4317
 2545TIP3    H1 7641   1.166   1.620   3.588  0.8126  1.3510  0.2876
 2545TIP3    H2 7642   1.270   1.568   3.491 -0.8446 -0.4093 -0.6170
 2546TIP3   OH2 7643   5.537   4.748   1.553  0.8582  0.4699  0.4233
 2546TIP3    H1 7644   5.598   4.685   1.591  2.0431  2.1773  1.5301
 2546TIP3    H2 7645   5.576   4.771   1.468 -1.0902 -2.3372 -1.3968
 2547TIP3   OH2 7646   4.008   0.723   5.139 -0.3397  0.0117  0.0364
 2547TIP3    H1 7647   4.008   0.630   5.161 -0.1919  0.0740  0.2995
 2547TIP3    H2 7648   3.993   0.768   5.222  0.8907  0.2727  0.1379
 2548TIP3   OH2 7649   4.866   1.710   0.093 -0.0208 -0.8647  0.2867
 2548TIP3    H1 7650   4.863   1.786   0.151  2.0440 -0.7930  0.3843
 2548TIP3    H2 7651   4.784   1.664   0.110 -0.7388  0.6478  1.1727
 2549TIP3   OH2 7652   3.818   5.310   1.106 -1.1276  0.4449 -0.2458
 2549TIP3    H1 7653   3.846   5.275   1.022 -0.5474  1.4880 -0.5000
 2549TIP3    H2 7654   3.845   5.244   1.170  2.1242  1.4142 -0.4499
 2550TIP3   OH2 7655   4.565   5.155   1.071  0.0205 -0.3086 -0.3483
 2550TIP3    H1 7656   4.476   5.122   1.076  0.7390 -2.2652  0.5809
 2550TIP3    H2 7657   4.560   5.242   1.111 -1.0311 -1.4919  2.3919
 2551TIP3   OH2 7658   2.194   4.325   1.875  0.0555  0.3582 -0.2612
 2551TIP3    H1 7659   2.149   4.241   1.869  2.1237 -1.2002  2.8591
 2551TIP3    H2 7660   2.255   4.325   1.801 -0.5596 -0.5056 -0.7877
 2552TIP3   OH2 7661   1.956   2.089   4.804 -0.4058  0.5365  0.6977
 2552TIP3    H1 7662   1.899   2.041   4.743 -1.9765  2.3608  0.6405
 2552TIP3    H2 7663   1.962   2.032   4.881 -1.7326 -0.0411  0.4086
 2553TIP3   OH2 7664   5.508   3.605   3.652  0.1143 -0.4564 -0.0139
 2553TIP3    H1 7665   5.534   3.614   3.561  0.1346  0.9224  0.0968
 2553TIP3    H2 7666   5.575   3.654   3.701 -0.8242  0.3041  0.5646
 2554TIP3   OH2 7667   4.720   3.704   2.760  0.2591 -0.7267  0.0585
 2554TIP3    H1 7668   4.732   3.769   2.691  1.6804 -0.7680  0.2289
 2554TIP3    H2 7669   4.808   3.671   2.777 -0.1053 -0.9627  1.6524
 2555TIP3   OH2 7670   4.663   3.969   3.142  0.2575 -0.2303  0.8776
 2555TIP3    H1 7671   4.669   4.065   3.142 -0.6220 -0.1318 -0.6113
 2555TIP3    H2 7672   4.656   3.946   3.049  2.2388 -1.8889  1.0705
 2556TIP3   OH2 7673   3.824   3.512   3.946 -0.1172 -0.1883 -0.2406
 2556TIP3    H1 7674   3.829   3.590   4.001 -3.2242  0.1258 -0.2506
 2556TIP3    H2 7675   3.915   3.482   3.939  0.7374  1.2895  2.8026
 2557TIP3   OH2 7676   2.192   2.066   2.834  0.2489  0.7429 -0.2252
 2557TIP3    H1 7677   2.264   2.012   2.868 -0.5321 -0.0163  0.2607
 2557TIP3    H2 7678   2.157   2.015   2.760 -1.8995 -0.5608  1.5582
 2558TIP3   OH2 7679   5.771   0.491   0.741 -0.3294 -0.1605  0.3012
 2558TIP3    H1 7680   5.722   0.568   0.711  0.4636  0.0736 -0.4574
 2558TIP3    H2 7681   5.767   0.430   0.668  2.4431  0.7969 -0.8125
 2559TIP3   OH2 7682   0.025   3.361   1.306 -0.6165 -0.0499  0.0401
 2559TIP3    H1 7683   0.041   3.404   1.222 -1.7268 -0.7642 -0.5572
 2559TIP3    H2 7684  -0.005   3.431   1.364 -2.8947 -0.0383 -1.0647
 2560TIP3   OH2 7685   1.807   3.809   3.493 -0.6225 -0.1088 -0.1741
 2560TIP3    H1 7686   1.757   3.852   3.424  0.9709  1.5729 -0.3520
 2560TIP3    H2 7687   1.898   3.834   3.476 -0.0534 -0.5975  1.8645
 2561TIP3   OH2 7688   2.813   0.053   3.051 -0.1295 -0.5623  0.0985
 2561TIP3    H1 7689   2.749   0.124   3.045  0.3437 -0.2687 -2.2658
 2561TIP3    H2 7690   2.898   0.096   3.045  0.1740 -1.2442 -0.8131
 2562TIP3   OH2 7691   3.125   1.767   1.444 -0.4797  0.2023 -0.4220
 2562TIP3    H1 7692   3.201   1.714   1.464 -0.7855 -0.2070 -0.3327
 2562TIP3    H2 7693   3.159   1.856   1.434 -0.1590  0.2373  0.8208
 2563TIP3   OH2 7694   2.578   1.447   4.194 -0.0840  0.1601 -0.2087
 2563TIP3    H1 7695   2.670   1.450   4.223 -0.1013  2.2326 -0.2250
 2563TIP3    H2 7696   2.530   1.413   4.269  0.8461 -2.7479 -0.8012
 2564TIP3   OH2 7697   4.310   4.448   0.560  0.4540 -0.0137 -0.3753
 2564TIP3    H1 7698   4.389   4.396   0.550  0.0579 -0.6900 -0.0346
 2564TIP3    H2 7699   4.333   4.516   0.624  0.0774 -1.6510  1.5850
 2565TIP3   OH2 7700   5.917   3.868   3.201 -0.2261  0.0250 -0.5354
 2565TIP3    H1 7701   5.843   3.906   3.249  0.0668  1.3258 -1.0717
 2565TIP3    H2 7702   5.957   3.942   3.155  2.8409 -0.1459  1.5347
 2566TIP3   OH2 7703   4.593   4.102   2.555 -0.1669  0.3407 -0.1954
 2566TIP3    H1 7704   4.529   4.127   2.488  0.4725 -1.1755 -1.4167
 2566TIP3    H2 7705   4.675   4.142   2.527  0.0228  0.0160 -0.1027
 2567TIP3   OH2 7706   0.082   2.694   0.734  0.1447 -0.3518 -0.1334
 2567TIP3    H1 7707   0.104   2.722   0.645 -0.3233  0.8176  0.1119
 2567TIP3    H2 7708   0.155   2.726   0.787  0.0740 -0.4346  0.0120
 2568TIP3   OH2 7709   2.659   2.857   3.990 -0.7658 -0.3428  0.0716
 2568TIP3    H1 7710   2.654   2.770   3.952  0.6393 -0.8693  1.0008
 2568TIP3    H2 7711   2.749   2.865   4.022 -0.2712  2.1749 -1.6232
 2569TIP3   OH2 7712   3.846   4.734   5.113  0.0614 -0.1221 -0.1833
 2569TIP3    H1 7713   3.766   4.699   5.152  0.0066  0.7542  0.5080
 2569TIP3    H2 7714   3.827   4.826   5.097  0.8859  0.0611 -0.1459
 2570TIP3   OH2 7715   5.188   2.572   2.723  0.6438  0.2267 -0.0835
 2570TIP3    H1 7716   5.159   2.640   2.784  1.8996  0.7698 -0.0806
 2570TIP3    H2 7717   5.204   2.496   2.779 -0.5837 -0.0536 -0.0661
 2571TIP3   OH2 7718   1.467   3.045   3.903 -0.2700  0.1496  0.3589
 2571TIP3    H1 7719   1.442   3.118   3.846  0.0046  0.1290  0.2131
 2571TIP3    H2 7720   1.484   2.973   3.843  0.6473  0.3066  0.4216
 2572TIP3   OH2 7721   2.180   5.648   2.773 -0.4929 -0.5519  0.0262
 2572TIP3    H1 7722   2.130   5.728   2.790  0.5324  0.1485 -0.0930
 2572TIP3    H2 7723   2.135   5.605   2.701  0.0441  0.9760 -1.2987
 2573TIP3   OH2 7724   2.692   4.083   2.722 -0.4514 -0.1182  0.4215
 2573TIP3    H1 7725   2.613   4.124   2.757 -0.1316  1.0206 -0.1617
 2573TIP3    H2 7726   2.659   4.005   2.676 -1.2325  0.3133  0.2251
 2574TIP3   OH2 7727   5.638   1.657   1.885  0.3116 -0.0302  0.3750
 2574TIP3    H1 7728   5.585   1.628   1.811  1.4597  0.0623 -0.5055
 2574TIP3    H2 7729   5.575   1.666   1.957 -0.3484 -3.5465  0.4185
 2575TIP3   OH2 7730   4.274   0.484   0.369 -0.3323 -0.3823 -0.0261
 2575TIP3    H1 7731   4.221   0.478   0.448 -0.4769 -0.2497 -0.1140
 2575TIP3    H2 7732   4.263   0.574   0.338 -2.9250 -1.2729 -2.0441
 2576TIP3   OH2 7733   0.894   2.075   1.862 -0.3584 -0.4882 -0.4567
 2576TIP3    H1 7734   0.977   2.110   1.897  0.2028 -1.1061 -1.1389
 2576TIP3    H2 7735   0.872   2.135   1.791  0.5695 -1.4303 -1.5832
 2577TIP3   OH2 7736   5.050   3.542   1.745  0.2163  0.7335  0.1641
 2577TIP3    H1 7737   5.138   3.513   1.723  0.3997 -0.8683  2.7084
 2577TIP3    H2 7738   5.039   3.623   1.694  1.8964 -0.6408 -2.6534
 2578TIP3   OH2 7739   3.107   1.534   4.861 -0.5953 -0.6564  0.1729
 2578TIP3    H1 7740   3.131   1.560   4.950  2.6891 -0.5803 -0.6398
 2578TIP3    H2 7741   3.083   1.442   4.868  2.1080 -1.3803  0.8189
 2579TIP3   OH2 7742   4.881   2.959   3.199 -0.2653  0.0681 -0.2877
 2579TIP3    H1 7743   4.869   2.960   3.294 -0.4730  0.5123 -0.3149
 2579TIP3    H2 7744   4.823   3.028   3.167  1.0647  1.0876 -0.5899
 2580TIP3   OH2 7745   2.423   4.276   4.495  0.4083  0.1776  0.2035
 2580TIP3    H1 7746   2.504   4.327   4.492  0.1678  0.6003  0.6709
 2580TIP3    H2 7747   2.448   4.189   4.465  1.1345  0.1801  0.7549
 2581TIP3   OH2 7748   1.021   1.551   5.130 -0.3969 -0.4761  0.1086
 2581TIP3    H1 7749   1.048   1.623   5.074  0.2457 -2.1986 -1.9469
 2581TIP3    H2 7750   0.948   1.510   5.083 -0.5640 -1.3325  1.0703
 2582TIP3   OH2 7751   1.102   3.327   4.286  0.0695 -0.0258  0.0693
 2582TIP3    H1 7752   1.177   3.317   4.344  0.6787 -0.4530 -0.7689
 2582TIP3    H2 7753   1.111   3.415   4.249  0.5397 -0.3302 -0.5479
 2583TIP3   OH2 7754   2.438   0.599   3.889 -0.0630 -0.2761 -0.3204
 2583TIP3    H1 7755   2.427   0.556   3.805 -0.2606 -1.3307  0.2175
 2583TIP3    H2 7756   2.447   0.691   3.869  1.0635 -0.6381 -1.5795
 2584TIP3   OH2 7757   0.414   0.132   5.008 -0.5724  0.3258  0.2680
 2584TIP3    H1 7758   0.377   0.213   5.042 -0.2715  0.6047 -0.0661
 2584TIP3    H2 7759   0.388   0.129   4.916 -1.4274 -0.4552  0.5226
 2585TIP3   OH2 7760   3.224   2.786   2.414  0.4888  0.0924  0.0395
 2585TIP3    H1 7761   3.139   2.766   2.374  0.5321 -1.7303  0.7623
 2585TIP3    H2 7762   3.269   2.839   2.348  0.0100 -1.6263 -1.7999
 2586TIP3   OH2 7763   1.836   5.642   3.277 -0.4426 -0.2823 -0.2236
 2586TIP3    H1 7764   1.905   5.685   3.327 -0.6120 -0.4848  0.1841
 2586TIP3    H2 7765   1.880   5.570   3.232 -0.4247 -0.5267  0.1857
 2587TIP3   OH2 7766   6.188   3.877   3.396 -0.1829 -0.5320 -0.1301
 2587TIP3    H1 7767   6.227   3.807   3.345  0.4850  0.0215 -0.3971
 2587TIP3    H2 7768   6.107   3.899   3.350 -0.6901 -1.4868  0.2649
 2588TIP3   OH2 7769   4.358   0.764   4.800 -0.4008 -0.3353 -0.1896
 2588TIP3    H1 7770   4.277   0.813   4.814 -1.9031 -2.8681  0.6780
 2588TIP3    H2 7771   4.391   0.795   4.715 -1.7136  1.4549 -0.1039
 2589TIP3   OH2 7772   0.174   2.792   3.876  0.7039  0.0241  0.0522
 2589TIP3    H1 7773   0.187   2.785   3.782  1.6150  0.2589  0.1506
 2589TIP3    H2 7774   0.126   2.713   3.900 -0.4524  0.4470 -0.7498
 2590TIP3   OH2 7775   1.031   1.367   4.807  0.2123  0.2169 -0.1527
 2590TIP3    H1 7776   1.007   1.324   4.725  1.3994 -2.8080  0.9466
 2590TIP3    H2 7777   1.057   1.455   4.781 -1.6398  0.1478 -2.6662
 2591TIP3   OH2 7778   4.456   5.469   0.863 -0.0878 -0.1564 -0.5061
 2591TIP3    H1 7779   4.534   5.504   0.906 -0.6567 -0.0990  0.5324
 2591TIP3    H2 7780   4.398   5.445   0.936 -0.3839 -1.7193 -1.2136
 2592TIP3   OH2 7781   5.265   5.444   4.154  0.1841 -0.1002 -0.2767
 2592TIP3    H1 7782   5.266   5.490   4.070  0.5668 -0.7889 -0.6622
 2592TIP3    H2 7783   5.172   5.433   4.174  0.0008  2.9175  1.0205
 2593TIP3   OH2 7784   1.582   5.097   3.426  0.0041  0.1439  0.6457
 2593TIP3    H1 7785   1.668   5.134   3.407 -0.0375  0.3109  0.7908
 2593TIP3    H2 7786   1.544   5.154   3.492 -0.0024 -0.2339  0.9738
 2594TIP3   OH2 7787   0.464   0.310   3.841  0.4726 -0.0149  0.0611
 2594TIP3    H1 7788   0.547   0.354   3.823  0.5726 -0.9810 -2.1706
 2594TIP3    H2 7789   0.407   0.334   3.768  0.1494 -2.5027 -0.6192
 2595TIP3   OH2 7790   6.166   5.908   3.988 -0.1209  0.3739 -0.1571
 2595TIP3    H1 7791   6.136   5.901   3.898 -0.1325  1.6238 -0.2622
 2595TIP3    H2 7792   6.122   5.985   4.023  1.5201  1.1735  0.2413
 2596TIP3   OH2 7793   3.554   4.379   1.160 -0.4075  0.2711 -0.6628
 2596TIP3    H1 7794   3.511   4.428   1.091  0.4747 -0.3620 -1.6959
 2596TIP3    H2 7795   3.602   4.445   1.210 -0.2227  0.6173 -1.2856
 2597TIP3   OH2 7796   0.724   5.601   2.668  0.4536  0.4930 -0.0591
 2597TIP3    H1 7797   0.710   5.635   2.757  0.4681  0.0960  0.0956
 2597TIP3    H2 7798   0.819   5.586   2.663  0.3691 -0.1149  0.0901
 2598TIP3   OH2 7799   2.545   5.674   5.052  0.1263  0.3156 -0.0040
 2598TIP3    H1 7800   2.494   5.725   4.990 -1.7646  0.6212  1.6977
 2598TIP3    H2 7801   2.552   5.730   5.129 -2.3712 -1.9486  2.0943
 2599TIP3   OH2 7802   5.399   4.251   4.755  0.2465 -0.7867 -0.1603
 2599TIP3    H1 7803   5.307   4.268   4.772  0.1403 -0.1429 -1.2830
 2599TIP3    H2 7804   5.442   4.335   4.769  0.5309 -0.8786 -0.4644
 2600TIP3   OH2 7805   3.736   4.243   4.326 -0.0081  0.2523  0.0282
 2600TIP3    H1 7806   3.790   4.321   4.317  1.0812 -0.3939  0.7439
 2600TIP3    H2 7807   3.724   4.234   4.421 -0.5409 -0.1764 -0.0768
 2601TIP3   OH2 7808   2.141   3.530   0.679  0.0819 -0.3710 -0.4997
 2601TIP3    H1 7809   2.138   3.574   0.594  0.3558  0.1198 -0.2623
 2601TIP3    H2 7810   2.051   3.535   0.712 -0.8898 -3.5674 -2.2197
 2602TIP3   OH2 7811   1.368   2.821   0.031 -0.1108  0.4298  0.1942
 2602TIP3    H1 7812   1.285   2.868   0.027 -0.1275  0.3234 -0.9357
 2602TIP3    H2 7813   1.432   2.888   0.056 -0.7062  0.2411  2.4635
 2603TIP3   OH2 7814   0.925   2.492   0.207  0.0385 -0.1938  1.0307
 2603TIP3    H1 7815   0.844   2.502   0.158  0.7088  1.5942  0.2060
 2603TIP3    H2 7816   0.985   2.448   0.145  0.3033  0.3458  0.8940
 2604TIP3   OH2 7817   1.603   5.599   3.086 -0.3362 -0.0006  0.1898
 2604TIP3    H1 7818   1.641   5.637   3.165 -1.0551 -0.8845  0.9916
 2604TIP3    H2 7819   1.654   5.636   3.014 -0.3425  1.6438  0.9848
 2605TIP3   OH2 7820   1.607   0.065   0.031  0.3410  0.0363  0.2837
 2605TIP3    H1 7821   1.566   0.044  -0.053  1.2675 -1.2904  0.1404
 2605TIP3    H2 7822   1.605   0.161   0.036 -2.9867  0.0881  0.3951
 2606TIP3   OH2 7823   6.147   1.150   1.470  0.3200  0.5872  0.4142
 2606TIP3    H1 7824   6.200   1.139   1.391  0.9895  2.0925  0.6238
 2606TIP3    H2 7825   6.120   1.241   1.468 -0.1836  0.4776  1.6125
 2607TIP3   OH2 7826   4.466   4.013   4.672  0.2546  0.2861  0.7536
 2607TIP3    H1 7827   4.552   4.055   4.662  0.7824 -0.7198  1.0222
 2607TIP3    H2 7828   4.438   3.998   4.582  0.4313  0.4640  0.6649
 2608TIP3   OH2 7829   1.352   2.433   4.159 -0.1124 -0.0360  0.2637
 2608TIP3    H1 7830   1.400   2.367   4.110  0.0964  0.9257 -0.8586
 2608TIP3    H2 7831   1.402   2.514   4.147 -1.8028  0.9222 -0.6608
 2609TIP3   OH2 7832   0.327   1.029   3.484 -0.2445 -0.4477 -0.0720
 2609TIP3    H1 7833   0.261   1.004   3.549  0.6102 -2.9458 -0.0349
 2609TIP3    H2 7834   0.408   1.038   3.535 -0.5056  3.1748 -0.0188
 2610TIP3   OH2 7835   3.243   4.625   4.923  0.1174 -0.2884 -0.1387
 2610TIP3    H1 7836   3.330   4.666   4.920 -0.1808  0.7922  2.8937
 2610TIP3    H2 7837   3.182   4.698   4.928 -0.6284 -0.9930  2.1710
 2611TIP3   OH2 7838   5.459   2.602   4.636 -0.1480 -0.2034  0.1062
 2611TIP3    H1 7839   5.481   2.641   4.551  0.6664 -0.4851  0.1862
 2611TIP3    H2 7840   5.367   2.626   4.649  0.1866  1.2746 -0.0777
 2612TIP3   OH2 7841   2.160   3.828   1.482 -0.7536 -0.1762 -0.4081
 2612TIP3    H1 7842   2.156   3.782   1.565  1.0588  1.6733  0.8058
 2612TIP3    H2 7843   2.101   3.903   1.492  0.0700  0.4968 -0.4586
 2613TIP3   OH2 7844   6.172   1.440   2.707 -0.1843  0.3348  0.1693
 2613TIP3    H1 7845   6.112   1.415   2.637  0.4843  0.7086 -0.5380
 2613TIP3    H2 7846   6.239   1.494   2.665  0.5239  0.1248  0.9873
 2614TIP3   OH2 7847   4.950   2.782   2.505 -0.4359 -0.0937 -0.3991
 2614TIP3    H1 7848   5.005   2.720   2.457 -1.5568 -2.5616  1.2628
 2614TIP3    H2 7849   5.010   2.822   2.568  0.2931  0.4842 -1.4300
 2615TIP3   OH2 7850   3.187   2.926   4.753  0.1374  0.6044 -0.0471
 2615TIP3    H1 7851   3.251   2.929   4.681 -0.4916 -0.7434 -0.7017
 2615TIP3    H2 7852   3.204   2.842   4.796 -0.0319  1.0421  0.8891
 2616TIP3   OH2 7853   2.387   2.539   2.099  0.3962  0.4258 -0.2129
 2616TIP3    H1 7854   2.302   2.522   2.140 -0.6452  1.7507 -1.6703
 2616TIP3    H2 7855   2.418   2.453   2.072 -0.9755 -0.0004 -0.5300
 2617TIP3   OH2 7856   2.558   5.959   4.134  0.2315  0.5939 -0.3525
 2617TIP3    H1 7857   2.516   5.956   4.048 -1.8525 -2.7398  0.5625
 2617TIP3    H2 7858   2.649   5.934   4.118  0.0038  0.5634 -1.6314
 2618TIP3   OH2 7859   3.934   5.719   0.637  0.4335 -0.3445  0.1413
 2618TIP3    H1 7860   3.945   5.632   0.597  0.2032 -1.1105  1.6774
 2618TIP3    H2 7861   4.021   5.740   0.671  0.6705  0.3877 -0.8592
 2619TIP3   OH2 7862   0.133   0.026   0.301 -0.2264  0.0312  0.3308
 2619TIP3    H1 7863   0.049  -0.004   0.335 -1.7606  0.4722 -2.7133
 2619TIP3    H2 7864   0.121   0.120   0.287  0.4508 -0.0237 -0.8303
 2620TIP3   OH2 7865   3.783   5.853   0.404  0.0697 -0.1655  0.1472
 2620TIP3    H1 7866   3.816   5.809   0.483 -0.5636  1.3184  1.3099
 2620TIP3    H2 7867   3.689   5.835   0.404 -0.1455  0.8894  0.4739
 2621TIP3   OH2 7868   5.213   4.556   3.796 -0.2912 -0.0447 -0.1006
 2621TIP3    H1 7869   5.120   4.540   3.808 -0.2176 -0.1213  0.3953
 2621TIP3    H2 7870   5.245   4.579   3.883  0.0830  0.3437 -0.3362
 2622TIP3   OH2 7871   4.494   0.852   1.202 -0.1478 -0.8262  0.6730
 2622TIP3    H1 7872   4.456   0.928   1.246  1.2500 -0.3507  1.0945
 2622TIP3    H2 7873   4.512   0.883   1.113 -0.4046 -0.9533  0.5735
 2623TIP3   OH2 7874   2.445   1.947   2.878  0.1434  0.0817 -0.1974
 2623TIP3    H1 7875   2.527   1.930   2.923  0.7218  1.3024 -0.7358
 2623TIP3    H2 7876   2.462   1.924   2.787 -0.5617 -0.9816 -0.0786
 2624TIP3   OH2 7877   5.010   2.037   0.569 -0.5606 -0.2642  0.6188
 2624TIP3    H1 7878   5.030   1.996   0.485 -0.4985  1.9927 -0.5425
 2624TIP3    H2 7879   5.096   2.059   0.606 -0.5712  2.5305 -0.7805
 2625TIP3   OH2 7880   4.648   5.640   1.033  0.5532 -0.1821 -0.5972
 2625TIP3    H1 7881   4.570   5.691   1.011  0.0646  0.3293  1.9800
 2625TIP3    H2 7882   4.704   5.702   1.079  2.0280 -0.8440 -1.4262
 2626TIP3   OH2 7883   4.165   4.780   0.107 -0.2294  0.4683 -0.3500
 2626TIP3    H1 7884   4.084   4.729   0.098  1.1392 -1.8214 -0.6476
 2626TIP3    H2 7885   4.232   4.724   0.068  1.8373  1.3257  1.7534
 2627TIP3   OH2 7886   5.296   1.974   1.997 -0.2533 -0.0073  0.2880
 2627TIP3    H1 7887   5.206   1.990   1.968  0.4200  0.7599 -1.4809
 2627TIP3    H2 7888   5.334   1.919   1.929  0.8132  0.2390  0.6712
 2628TIP3   OH2 7889   0.957   2.454   3.329 -0.3842  0.0262 -0.5549
 2628TIP3    H1 7890   0.910   2.377   3.296 -1.6571 -0.0034  1.1576
 2628TIP3    H2 7891   0.908   2.529   3.294 -1.2682 -0.0028  0.5476
 2629TIP3   OH2 7892   1.875   4.827   5.119  0.0371  0.1351  0.6437
 2629TIP3    H1 7893   1.815   4.840   5.192 -1.9415  1.0783 -1.0460
 2629TIP3    H2 7894   1.927   4.907   5.116  0.2398  0.0240  1.0955
 2630TIP3   OH2 7895   1.943   5.278   1.669 -0.1079  0.0464  0.1646
 2630TIP3    H1 7896   1.880   5.210   1.644 -0.0143 -0.2923  0.8423
 2630TIP3    H2 7897   2.023   5.255   1.621 -0.3822  0.2605 -0.4001
 2631TIP3   OH2 7898   2.035   1.284   3.991 -0.1352 -0.2424  0.0914
 2631TIP3    H1 7899   1.956   1.229   3.995 -1.2268  1.3407  1.7547
 2631TIP3    H2 7900   2.010   1.359   3.937  0.8807 -0.6221 -0.9532
 2632TIP3   OH2 7901   3.510   4.852   4.197  0.0944  0.7938 -0.1686
 2632TIP3    H1 7902   3.462   4.910   4.138 -0.1213  0.7621 -0.0266
 2632TIP3    H2 7903   3.490   4.885   4.285  1.9432  2.0480 -0.1576
 2633TIP3   OH2 7904   2.291   4.040   0.258 -0.2381 -0.2049 -0.2383
 2633TIP3    H1 7905   2.376   4.026   0.217 -0.1250 -1.4017  0.3845
 2633TIP3    H2 7906   2.310   4.046   0.352 -0.4488  2.8479 -0.2796
 2634TIP3   OH2 7907   1.007   2.019   2.789 -0.0358 -0.2810  0.8390
 2634TIP3    H1 7908   0.934   2.080   2.773 -3.2160 -3.7857  0.6011
 2634TIP3    H2 7909   1.074   2.046   2.726 -1.0293  3.1431  1.0456
 2635TIP3   OH2 7910   5.072   1.406   2.038 -0.6493  1.0707  0.2568
 2635TIP3    H1 7911   5.074   1.444   1.950  0.5137  0.4531 -0.0067
 2635TIP3    H2 7912   5.114   1.472   2.093  2.8807 -0.3574 -0.4744
 2636TIP3   OH2 7913   5.643   2.172   2.518 -0.4381  0.0770 -0.3791
 2636TIP3    H1 7914   5.594   2.101   2.476  1.4029 -1.0230 -0.8016
 2636TIP3    H2 7915   5.712   2.194   2.455  1.8618 -1.0175  1.5811
 2637TIP3   OH2 7916   5.019   0.716   0.431  0.0919  0.6782 -0.5262
 2637TIP3    H1 7917   4.992   0.807   0.436  0.6427  0.8169 -0.0259
 2637TIP3    H2 7918   5.011   0.683   0.520 -2.6317 -0.5267 -1.1041
 2638TIP3   OH2 7919   0.252   4.420   0.236 -0.4586  0.6310  0.5532
 2638TIP3    H1 7920   0.305   4.365   0.178 -1.5337 -1.9956  1.8417
 2638TIP3    H2 7921   0.200   4.474   0.177  0.1584 -0.2503 -0.8685
 2639TIP3   OH2 7922   6.002   4.723   1.054  0.2072 -0.0053 -0.2188
 2639TIP3    H1 7923   5.932   4.779   1.019  1.0848  0.2454 -1.6347
 2639TIP3    H2 7924   6.035   4.675   0.979  0.6438 -1.1564  0.6822
 2640TIP3   OH2 7925   2.367   0.489   2.754  0.1314 -0.2977 -0.1204
 2640TIP3    H1 7926   2.453   0.453   2.773  0.8806  2.2988  1.9474
 2640TIP3    H2 7927   2.372   0.516   2.662  0.3216 -2.9969 -1.0140
 2641TIP3   OH2 7928   0.877   1.778   1.282 -0.2227 -0.3323  0.0270
 2641TIP3    H1 7929   0.835   1.838   1.343 -0.3722  0.0181 -0.4177
 2641TIP3    H2 7930   0.918   1.712   1.338 -0.6468 -0.2065  0.4900
 2642TIP3   OH2 7931   3.361   3.729   4.543  0.3816 -0.1953  0.1052
 2642TIP3    H1 7932   3.437   3.739   4.600  0.7304  2.1843 -0.6660
 2642TIP3    H2 7933   3.316   3.814   4.548  0.6571  0.2846 -3.4513
 2643TIP3   OH2 7934   0.496   5.904   0.492  0.5364  0.3933 -0.0938
 2643TIP3    H1 7935   0.497   5.938   0.402 -0.1212 -1.9978 -1.0629
 2643TIP3    H2 7936   0.495   5.983   0.547 -0.7803  1.9313 -2.1950
 2644TIP3   OH2 7937   0.701   0.741   5.134  0.2215  0.2740 -0.3966
 2644TIP3    H1 7938   0.720   0.655   5.170 -2.4921 -1.0020 -1.7068
 2644TIP3    H2 7939   0.756   0.748   5.056  3.8577  1.7991  2.0220
 2645TIP3   OH2 7940   4.010   3.248   1.733 -0.3936  0.3776 -0.0319
 2645TIP3    H1 7941   4.054   3.282   1.656  1.6158 -2.6322 -0.3799
 2645TIP3    H2 7942   3.927   3.213   1.700 -1.0322  1.9660 -0.1915
 2646TIP3   OH2 7943   0.703   2.267   1.974 -0.1916  1.0681  0.0776
 2646TIP3    H1 7944   0.773   2.291   2.034 -0.5029 -1.8059  1.7515
 2646TIP3    H2 7945   0.737   2.191   1.927 -0.9241  1.7377 -1.6193
 2647TIP3   OH2 7946   4.856   2.495   2.790 -0.3312  0.2444  0.3992
 2647TIP3    H1 7947   4.940   2.462   2.822 -0.8990 -0.3437  1.3432
 2647TIP3    H2 7948   4.877   2.578   2.747  1.0490 -0.9457 -1.3901
 2648TIP3   OH2 7949   4.249   1.599   4.379  0.6593  0.2821 -0.3192
 2648TIP3    H1 7950   4.161   1.635   4.374  0.5702  0.5399  1.9571
 2648TIP3    H2 7951   4.258   1.544   4.302 -2.7638 -2.4959  1.0156
 2649TIP3   OH2 7952   1.222   1.294   3.670  0.5593  0.7029  0.2465
 2649TIP3    H1 7953   1.213   1.383   3.637  0.6007  0.3306 -0.8081
 2649TIP3    H2 7954   1.202   1.301   3.763  1.0694  1.9005  0.2871
 2650TIP3   OH2 7955   0.752   3.129   2.084  0.4210  0.2934 -0.2657
 2650TIP3    H1 7956   0.798   3.115   2.167  0.6901 -0.7304 -0.5697
 2650TIP3    H2 7957   0.791   3.064   2.024 -0.1483  0.6489 -1.0374
 2651TIP3   OH2 7958   1.429   3.697   4.798 -0.2487 -0.2545 -0.5536
 2651TIP3    H1 7959   1.364   3.739   4.854  1.0634  0.8831  0.1842
 2651TIP3    H2 7960   1.509   3.748   4.812  0.6216 -1.1655 -1.9746
 2652TIP3   OH2 7961   0.393   1.284   4.443 -0.7035 -0.2877  0.3534
 2652TIP3    H1 7962   0.427   1.306   4.530 -2.0857  0.4623  0.7376
 2652TIP3    H2 7963   0.463   1.232   4.403  0.6502  0.6981  1.2956
 2653TIP3   OH2 7964   0.807   3.738   3.561  0.1358  0.2200 -0.1276
 2653TIP3    H1 7965   0.713   3.726   3.577  0.0044 -0.5809 -1.3304
 2653TIP3    H2 7966   0.850   3.694   3.634 -0.4322 -0.7384 -0.3562
 2654TIP3   OH2 7967   6.031   1.858   3.342 -0.2258  0.0617 -0.7019
 2654TIP3    H1 7968   6.010   1.792   3.276 -0.2076  0.0379 -0.6840
 2654TIP3    H2 7969   6.083   1.923   3.295  1.7267 -1.0668 -0.2258
 2655TIP3   OH2 7970   0.810   3.134   4.953 -0.6149 -0.2221 -0.0854
 2655TIP3    H1 7971   0.806   3.229   4.940 -0.6849 -0.4020 -1.5114
 2655TIP3    H2 7972   0.884   3.121   5.012 -0.1747  0.6644 -0.4253
 2656TIP3   OH2 7973   5.395   2.836   3.435 -0.3461  0.2613  0.1807
 2656TIP3    H1 7974   5.465   2.874   3.487 -0.2392  0.4294 -0.0831
 2656TIP3    H2 7975   5.370   2.756   3.481  1.1065 -0.6632 -0.5759
 2657TIP3   OH2 7976   4.710   3.561   0.468  0.5799  0.5583  0.3211
 2657TIP3    H1 7977   4.669   3.486   0.513  1.8375 -0.0439  0.5076
 2657TIP3    H2 7978   4.740   3.525   0.385  0.0306  1.1893 -0.1537
 2658TIP3   OH2 7979   3.295   4.122   3.158 -0.1050  0.2754  0.5198
 2658TIP3    H1 7980   3.328   4.127   3.068  1.0967 -0.2063  0.9176
 2658TIP3    H2 7981   3.309   4.210   3.193  0.4897  0.1616  0.5841
 2659TIP3   OH2 7982   1.080   3.924   1.783 -0.1131  0.0793  0.2157
 2659TIP3    H1 7983   0.992   3.957   1.801 -0.2589 -0.1877 -0.0013
 2659TIP3    H2 7984   1.074   3.830   1.801  0.1536  0.0789  0.3006
 2660TIP3   OH2 7985   1.616   5.067   1.876  0.5469  0.4775  0.2653
 2660TIP3    H1 7986   1.587   5.157   1.888 -1.3849 -0.0649 -0.1187
 2660TIP3    H2 7987   1.649   5.041   1.962 -1.6169  0.6283  1.1965
 2661TIP3   OH2 7988   2.844   5.336   2.737  0.8696 -0.4136  0.4304
 2661TIP3    H1 7989   2.761   5.310   2.778  0.5355 -0.7457 -0.4187
 2661TIP3    H2 7990   2.826   5.329   2.643  1.7851 -0.2264  0.2390
 2662TIP3   OH2 7991   5.482   0.030   4.842  0.8826 -0.0758 -0.2494
 2662TIP3    H1 7992   5.420   0.017   4.914 -0.9847  0.5944 -1.6552
 2662TIP3    H2 7993   5.441  -0.014   4.767  1.9350  0.6821 -1.3021
 2663TIP3   OH2 7994   6.002   1.686   2.742 -0.5105 -0.0488  0.2558
 2663TIP3    H1 7995   6.008   1.591   2.752  0.3326 -0.0783 -0.4254
 2663TIP3    H2 7996   6.092   1.717   2.739 -0.7251  0.5754 -1.1806
 2664TIP3   OH2 7997   0.942   0.510  -0.002  0.7736 -0.0109 -0.1006
 2664TIP3    H1 7998   0.952   0.602  -0.026  0.9917  0.1210  0.4948
 2664TIP3    H2 7999   0.975   0.504   0.087 -1.0667 -0.2888  0.5973
 2665TIP3   OH2 8000   3.634   2.817   2.309  1.1172 -0.0822  0.3800
 2665TIP3    H1 8001   3.692   2.880   2.352  2.3745 -0.1045 -1.1658
 2665TIP3    H2 8002   3.610   2.859   2.227  3.0209 -2.0067 -1.2994
 2666TIP3   OH2 8003   6.209   0.760   2.904 -0.0201 -0.1567  0.1614
 2666TIP3    H1 8004   6.197   0.804   2.989 -1.7305 -1.6348  0.7348
 2666TIP3    H2 8005   6.120   0.750   2.869  0.6594  0.5716 -1.9248
 2667TIP3   OH2 8006   1.293   2.696   1.692 -0.0127  0.1733  0.4818
 2667TIP3    H1 8007   1.201   2.674   1.707  0.2291 -1.0894  0.1814
 2667TIP3    H2 8008   1.289   2.780   1.644 -1.0619 -0.5457 -0.7703
 2668TIP3   OH2 8009   6.008   2.191   2.536 -0.0300 -0.4847 -0.2267
 2668TIP3    H1 8010   5.944   2.122   2.519 -1.4331  0.7415 -0.1439
 2668TIP3    H2 8011   6.041   2.216   2.450  0.5484 -1.2776 -0.2527
 2669TIP3   OH2 8012   3.011   3.609   1.795  0.0942  0.4826  0.4793
 2669TIP3    H1 8013   3.016   3.525   1.749 -1.2655  0.2585  0.7162
 2669TIP3    H2 8014   3.085   3.659   1.760  2.4746 -1.6505  2.0786
 2670TIP3   OH2 8015   2.713   4.176   1.101 -0.3347  0.3403  0.5952
 2670TIP3    H1 8016   2.758   4.104   1.057 -0.0465  1.0584 -0.3306
 2670TIP3    H2 8017   2.695   4.144   1.189 -0.8388 -1.1125 -0.0121
 2671TIP3   OH2 8018   2.611   3.251   1.339  0.1830  0.4739 -0.3321
 2671TIP3    H1 8019   2.646   3.320   1.396 -0.7300  0.4706  0.2633
 2671TIP3    H2 8020   2.608   3.291   1.252 -1.1715  1.5287  0.1614
 2672TIP3   OH2 8021   4.238   3.497   3.586 -0.2133 -0.9086 -0.0937
 2672TIP3    H1 8022   4.297   3.430   3.551 -0.4013 -1.2590  0.2489
 2672TIP3    H2 8023   4.283   3.580   3.570  0.5822 -1.2084  0.5756
 2673TIP3   OH2 8024   1.085   0.746   3.021  0.2338  0.1144 -0.0788
 2673TIP3    H1 8025   1.084   0.836   3.054  0.4311 -0.1331  0.6376
 2673TIP3    H2 8026   1.178   0.726   3.010  0.1722  0.1580 -0.7040
 2674TIP3   OH2 8027   3.903   0.031   5.086 -0.7136 -0.3229  0.2150
 2674TIP3    H1 8028   3.987   0.074   5.104  0.1126 -1.7857  0.0045
 2674TIP3    H2 8029   3.838   0.085   5.132  0.2595  1.1478 -0.0713
 2675TIP3   OH2 8030   0.630   3.510   0.869  0.2493  0.0594 -0.5583
 2675TIP3    H1 8031   0.556   3.521   0.810  0.3183 -0.5628 -0.7612
 2675TIP3    H2 8032   0.707   3.518   0.812  0.3145 -0.5772 -0.5598
 2676TIP3   OH2 8033   3.783   4.893   1.599 -0.4224  0.2421  0.2890
 2676TIP3    H1 8034   3.690   4.894   1.573 -0.7413 -0.0407  1.3729
 2676TIP3    H2 8035   3.805   4.800   1.602  1.1694  0.2461 -4.1747
 2677TIP3   OH2 8036   3.947   5.427   0.566  0.2524 -0.0813 -0.0330
 2677TIP3    H1 8037   4.020   5.382   0.610  0.7840  0.6073 -0.1879
 2677TIP3    H2 8038   3.936   5.379   0.484 -0.2472 -0.9056  0.4917
 2678TIP3   OH2 8039   5.480   3.586   2.308  0.3380 -0.2551  0.0105
 2678TIP3    H1 8040   5.492   3.629   2.223  0.0942 -2.1740 -1.0674
 2678TIP3    H2 8041   5.387   3.599   2.328  0.4406  0.3759  0.0977
 2679TIP3   OH2 8042   2.069   5.019   1.198  0.0091 -0.1581  0.5667
 2679TIP3    H1 8043   2.124   5.049   1.126 -1.1243  1.6257  0.3690
 2679TIP3    H2 8044   1.982   5.056   1.179 -0.6479 -0.8068  2.1242
 2680TIP3   OH2 8045   1.082   3.068   4.785 -0.0488 -1.0407  0.1836
 2680TIP3    H1 8046   1.107   3.030   4.869  0.8341 -1.2796 -0.1734
 2680TIP3    H2 8047   1.145   3.138   4.771 -1.8740  0.8688  1.0044
 2681TIP3   OH2 8048   3.558   1.337   2.085  0.4246 -0.0579  0.1435
 2681TIP3    H1 8049   3.547   1.405   2.152  2.3905 -1.0699  1.5799
 2681TIP3    H2 8050   3.552   1.385   2.002 -2.4733  1.1800  0.9293
 2682TIP3   OH2 8051   5.041   3.555   3.472 -0.3602 -0.0678  0.1715
 2682TIP3    H1 8052   5.133   3.577   3.457 -0.3295 -0.1079  0.2913
 2682TIP3    H2 8053   5.031   3.467   3.436 -0.4955  0.1632 -0.3558
 2683TIP3   OH2 8054   2.261   2.325   3.894  0.2752  0.5926  0.3299
 2683TIP3    H1 8055   2.328   2.281   3.945  1.6585  0.4847 -1.4729
 2683TIP3    H2 8056   2.308   2.365   3.821 -1.5393  1.0704 -0.6607
 2684TIP3   OH2 8057   1.247   5.101   1.040  0.7386 -0.2208  0.1287
 2684TIP3    H1 8058   1.227   5.027   1.097  2.0944  1.0452  2.3826
 2684TIP3    H2 8059   1.309   5.065   0.976 -0.1120 -1.4739 -0.0216
 2685TIP3   OH2 8060   4.470   4.995   1.505 -0.0196  0.3819  0.0742
 2685TIP3    H1 8061   4.491   5.082   1.473  0.6561  0.0853 -0.3076
 2685TIP3    H2 8062   4.397   4.965   1.450 -1.0365  1.1499  0.9640
 2686TIP3   OH2 8063   4.117   3.694   4.157 -0.3951  0.3807 -0.5444
 2686TIP3    H1 8064   4.172   3.646   4.220 -0.4641  0.3557 -0.5032
 2686TIP3    H2 8065   4.043   3.636   4.140 -0.7745  0.7113 -0.0517
 2687TIP3   OH2 8066   5.617   1.422   0.780  1.1007 -0.2318 -0.0202
 2687TIP3    H1 8067   5.677   1.414   0.706 -0.3633 -0.7126 -1.2016
 2687TIP3    H2 8068   5.584   1.511   0.775 -0.7960 -0.9547 -1.4414
 2688TIP3   OH2 8069   5.844   0.349   3.640  0.6997  0.8322 -0.4006
 2688TIP3    H1 8070   5.860   0.396   3.722  1.2470  0.7601 -0.4636
 2688TIP3    H2 8071   5.908   0.278   3.639 -0.2670 -0.0745 -0.1976
 2689TIP3   OH2 8072   2.931   3.461   1.336 -0.4508  0.1493 -0.2253
 2689TIP3    H1 8073   2.983   3.541   1.327 -1.5469  1.3388  2.7152
 2689TIP3    H2 8074   2.862   3.470   1.271  0.3586  0.7971 -1.0182
 2690TIP3   OH2 8075   1.587   0.316   0.387 -0.5741 -0.1176 -0.1528
 2690TIP3    H1 8076   1.644   0.240   0.379  0.7018  0.8195 -0.3198
 2690TIP3    H2 8077   1.564   0.320   0.480 -0.3716 -0.5100 -0.0859
 2691TIP3   OH2 8078   0.082   0.299   0.343 -0.4449  0.1133  0.0904
 2691TIP3    H1 8079   0.096   0.394   0.340 -1.2698  0.2081 -1.8356
 2691TIP3    H2 8080   0.009   0.288   0.404 -0.1476  0.6592  0.5632
 2692TIP3   OH2 8081   1.298   3.851   0.865 -0.2873 -0.1455  0.1522
 2692TIP3    H1 8082   1.302   3.762   0.829  2.1926 -0.1326  0.2645
 2692TIP3    H2 8083   1.216   3.853   0.914  0.1497 -2.7704  1.1528
 2693TIP3   OH2 8084   6.072   1.214   1.142 -0.1882 -0.6032 -0.1792
 2693TIP3    H1 8085   6.133   1.157   1.188  0.3156  0.5127  0.5833
 2693TIP3    H2 8086   6.115   1.299   1.141 -1.1398 -0.1092 -0.8492
 2694TIP3   OH2 8087   0.455   2.684   4.537 -0.2871 -0.3458 -0.2995
 2694TIP3    H1 8088   0.390   2.627   4.496 -1.2290 -0.6907  1.5628
 2694TIP3    H2 8089   0.404   2.742   4.594  0.8312  1.0342 -0.6536
 2695TIP3   OH2 8090   4.874   4.866   3.789  0.3429 -0.1371 -0.4232
 2695TIP3    H1 8091   4.933   4.926   3.743  1.3163  1.1812  2.3055
 2695TIP3    H2 8092   4.932   4.813   3.844 -0.8331 -0.4113  0.5911
 2696TIP3   OH2 8093   4.110   2.663   0.858  0.6531 -1.0108 -0.2763
 2696TIP3    H1 8094   4.170   2.726   0.899  0.6109 -0.5107 -0.9587
 2696TIP3    H2 8095   4.135   2.579   0.895  3.1697 -1.1329 -2.0007
 2697TIP3   OH2 8096   6.183   0.232   0.478 -0.7319  0.1778 -0.0788
 2697TIP3    H1 8097   6.197   0.174   0.553  0.4782  0.4706 -0.0641
 2697TIP3    H2 8098   6.145   0.174   0.411  0.4896 -0.6552 -0.0792
 2698TIP3   OH2 8099   4.579   4.893   4.515 -0.1479  0.0799  0.6271
 2698TIP3    H1 8100   4.580   4.825   4.447 -0.9348  0.1493  0.5362
 2698TIP3    H2 8101   4.497   4.941   4.500  0.5222  1.2121  0.5382
 2699TIP3   OH2 8102   1.025   2.176   0.111  0.2447 -0.3333  0.4878
 2699TIP3    H1 8103   1.064   2.257   0.078 -1.4900  1.1587  1.8695
 2699TIP3    H2 8104   0.997   2.129   0.032  0.0326  1.0823 -0.2988
 2700TIP3   OH2 8105   3.383   3.533   0.080 -0.5980 -0.6274 -0.6865
 2700TIP3    H1 8106   3.380   3.473   0.005  0.0278 -0.3541 -0.9396
 2700TIP3    H2 8107   3.439   3.605   0.051 -0.4639 -0.4474 -0.0068
 2701TIP3   OH2 8108   5.418   0.819   5.138  0.7361  0.1375 -0.0536
 2701TIP3    H1 8109   5.330   0.814   5.101 -0.3356 -1.4484  2.4468
 2701TIP3    H2 8110   5.462   0.741   5.104  0.4028 -0.2853  0.4759
 2702TIP3   OH2 8111   5.948   3.802   4.239  0.1805 -0.0961  0.4481
 2702TIP3    H1 8112   5.946   3.871   4.306 -1.4893 -0.1106  0.4493
 2702TIP3    H2 8113   6.000   3.840   4.168 -1.5104  1.6389  0.0267
 2703TIP3   OH2 8114   0.936   1.334   0.345 -0.1647  0.3936 -0.4641
 2703TIP3    H1 8115   0.857   1.375   0.311 -0.0024  0.3285 -0.9261
 2703TIP3    H2 8116   0.910   1.242   0.360  0.4779 -0.2676 -2.9779
 2704TIP3   OH2 8117   6.158   5.014   1.042 -0.1529 -0.0753  0.1546
 2704TIP3    H1 8118   6.094   4.966   1.095 -1.1606  1.1473  0.0947
 2704TIP3    H2 8119   6.234   5.024   1.099 -0.5031 -0.4318  0.6907
 2705TIP3   OH2 8120   0.661   4.058   1.517  0.0362  0.1211 -0.4504
 2705TIP3    H1 8121   0.648   4.087   1.427 -0.6183 -0.5017 -0.5691
 2705TIP3    H2 8122   0.616   4.124   1.570 -0.6594 -0.1770 -0.6610
 2706TIP3   OH2 8123   3.943   1.659   4.149 -0.3863 -0.4989 -0.4328
 2706TIP3    H1 8124   3.974   1.726   4.209  1.6308 -2.0868  0.4172
 2706TIP3    H2 8125   3.933   1.580   4.203  0.3498 -1.6732 -1.9098
 2707TIP3   OH2 8126   5.352   0.826   3.118 -0.5185  0.2464 -0.4029
 2707TIP3    H1 8127   5.280   0.779   3.161  1.0781 -0.6988  1.4171
 2707TIP3    H2 8128   5.310   0.898   3.072 -2.8790 -1.7340 -1.5960
 2708TIP3   OH2 8129   2.308   3.101   2.878  0.2827  0.0480 -0.4745
 2708TIP3    H1 8130   2.400   3.127   2.869  0.1545  0.0569 -2.1356
 2708TIP3    H2 8131   2.281   3.137   2.963  1.9313 -0.3752  0.2715
 2709TIP3   OH2 8132   4.915   2.046   4.802 -0.2591 -0.2665  0.0376
 2709TIP3    H1 8133   4.968   2.064   4.880 -0.2194 -1.4017  0.2979
 2709TIP3    H2 8134   4.979   2.019   4.736 -0.2758  0.8667 -0.4556
 2710TIP3   OH2 8135   1.020   3.732   2.620  0.1674  0.0849 -0.2277
 2710TIP3    H1 8136   0.955   3.802   2.628  0.2261 -0.0408  2.0097
 2710TIP3    H2 8137   1.003   3.675   2.696  1.8382 -0.8519 -0.5151
 2711TIP3   OH2 8138   4.157   4.255   3.159  0.0740 -0.2544  0.0408
 2711TIP3    H1 8139   4.197   4.191   3.101  0.8262  1.3291 -1.2824
 2711TIP3    H2 8140   4.072   4.274   3.119 -1.6508 -2.7144  2.1902
 2712TIP3   OH2 8141   2.981   0.097   4.226  0.3038  0.7073  0.0108
 2712TIP3    H1 8142   2.992   0.102   4.131  0.6797  0.5225  0.0381
 2712TIP3    H2 8143   2.948   0.008   4.241  0.9190  0.4825  0.0999
 2713TIP3   OH2 8144   3.669   2.328   2.639  0.0587  0.1297 -0.6070
 2713TIP3    H1 8145   3.647   2.395   2.575 -0.3896  1.1179  0.5499
 2713TIP3    H2 8146   3.585   2.300   2.675  0.3959  1.0433  0.9748
 2714TIP3   OH2 8147   0.464   3.307   3.750  0.4102 -0.1771  0.3101
 2714TIP3    H1 8148   0.407   3.384   3.751 -0.0546 -0.5093 -0.3509
 2714TIP3    H2 8149   0.408   3.235   3.722  1.3622 -0.3329 -1.3161
 2715TIP3   OH2 8150   0.714   5.545   3.518 -0.5648  0.1615  0.0136
 2715TIP3    H1 8151   0.769   5.576   3.590  0.3806 -0.1855 -0.5425
 2715TIP3    H2 8152   0.725   5.611   3.449  0.8078 -0.9535 -0.8699
 2716TIP3   OH2 8153   1.455   5.126   4.655  0.6038  0.4543  0.4157
 2716TIP3    H1 8154   1.531   5.106   4.710  0.6025  1.5642  0.8461
 2716TIP3    H2 8155   1.380   5.104   4.710  0.6056  1.3070  0.7751
 2717TIP3   OH2 8156   0.795   2.038   3.541  0.4352 -0.2466 -0.4285
 2717TIP3    H1 8157   0.767   1.952   3.511 -1.7172  0.7601 -1.5115
 2717TIP3    H2 8158   0.829   2.082   3.463  2.9035 -0.5445  0.3856
 2718TIP3   OH2 8159   2.230   3.832   4.387  0.2399 -0.1787  0.1478
 2718TIP3    H1 8160   2.221   3.853   4.294 -1.2799  1.5597  0.6379
 2718TIP3    H2 8161   2.300   3.889   4.418 -0.5411  0.6389  0.4444
 2719TIP3   OH2 8162   3.894   5.450   0.034 -0.1465  0.0738 -0.2197
 2719TIP3    H1 8163   3.965   5.463   0.097 -0.4839 -0.3390  0.2575
 2719TIP3    H2 8164   3.910   5.363  -0.003 -1.8093 -1.1795  1.7898
 2720TIP3   OH2 8165   4.352   3.424   5.032 -0.1736  0.2801  0.6917
 2720TIP3    H1 8166   4.429   3.445   5.084  0.3166 -1.6903  0.8260
 2720TIP3    H2 8167   4.339   3.330   5.044 -2.7143  0.5808  0.8139
 2721TIP3   OH2 8168   3.477   0.834   4.015 -0.1556  0.1860  0.3678
 2721TIP3    H1 8169   3.449   0.743   4.020  0.0177  0.1301  0.3231
 2721TIP3    H2 8170   3.465   0.868   4.104 -0.0943  0.0816  0.4161
 2722TIP3   OH2 8171   5.510   4.223   3.304  0.2700  0.2100 -0.1623
 2722TIP3    H1 8172   5.502   4.194   3.394  0.0433  1.8088  0.3709
 2722TIP3    H2 8173   5.421   4.219   3.269  0.4955 -1.2736 -0.6277
 2723TIP3   OH2 8174   6.171   3.763   4.768 -0.4123  0.0997  0.5692
 2723TIP3    H1 8175   6.219   3.835   4.809 -0.1545  0.2328  0.0426
 2723TIP3    H2 8176   6.098   3.805   4.724  0.2655  0.1641 -0.5398
 2724TIP3   OH2 8177   1.896   4.256   3.951 -0.1198 -0.6676 -0.4610
 2724TIP3    H1 8178   1.964   4.320   3.934 -2.1781  2.3103  1.5039
 2724TIP3    H2 8179   1.933   4.201   4.021  0.6551  0.2244 -0.1444
 2725TIP3   OH2 8180   0.822   2.439   2.588  0.2014 -0.2307 -0.2978
 2725TIP3    H1 8181   0.837   2.527   2.621 -0.6628  0.1252 -0.8199
 2725TIP3    H2 8182   0.909   2.406   2.567  0.6005  0.1967  0.6431
 2726TIP3   OH2 8183   1.404   4.328   0.927  0.0120 -0.7236  0.3882
 2726TIP3    H1 8184   1.456   4.339   1.007  0.1772 -0.7923  0.2913
 2726TIP3    H2 8185   1.456   4.370   0.858 -0.1227 -0.6770  0.3140
 2727TIP3   OH2 8186   0.518   5.832   1.083 -0.2929 -0.4959  0.0155
 2727TIP3    H1 8187   0.447   5.896   1.084  0.0609 -0.0999  0.4549
 2727TIP3    H2 8188   0.490   5.765   1.021 -1.7334 -1.1212  1.2767
 2728TIP3   OH2 8189   3.766   1.152   5.067 -0.1157  0.2435  0.4616
 2728TIP3    H1 8190   3.688   1.157   5.011 -2.1485  0.5386  3.1373
 2728TIP3    H2 8191   3.785   1.244   5.088  0.1071  0.0859  0.9439
 2729TIP3   OH2 8192   5.009   4.660   3.967 -0.4637 -0.0307  0.3194
 2729TIP3    H1 8193   5.074   4.682   4.034 -1.4753  0.7949  1.0684
 2729TIP3    H2 8194   4.925   4.663   4.013 -1.2222  0.8855 -1.0328
 2730TIP3   OH2 8195   1.649   5.921   4.889  0.0431  0.5359 -0.0727
 2730TIP3    H1 8196   1.658   5.828   4.909 -0.2272  0.7309  1.0060
 2730TIP3    H2 8197   1.694   5.966   4.960  1.3304  1.2283 -1.2625
 2731TIP3   OH2 8198   1.354   0.999   2.566 -1.1830 -0.0361  0.0378
 2731TIP3    H1 8199   1.423   1.031   2.508 -0.1939 -0.7684  0.7765
 2731TIP3    H2 8200   1.335   1.072   2.625 -0.2688 -0.1813  0.5208
 2732TIP3   OH2 8201   3.461   4.208   0.953  0.3771  0.0830  0.6092
 2732TIP3    H1 8202   3.519   4.254   1.013  0.3682 -1.0667  1.5232
 2732TIP3    H2 8203   3.500   4.122   0.942 -0.9952 -0.6180  1.0135
 2733TIP3   OH2 8204   4.594   5.987   0.100 -0.0622  0.2210  0.1350
 2733TIP3    H1 8205   4.524   6.016   0.158 -0.0792  1.3267 -0.4126
 2733TIP3    H2 8206   4.550   5.936   0.032 -0.4417  1.4441 -0.5632
 2734TIP3   OH2 8207   0.872   4.280   1.556  0.2986 -0.0879 -0.0122
 2734TIP3    H1 8208   0.958   4.305   1.522 -0.1049  2.7468  0.8013
 2734TIP3    H2 8209   0.816   4.277   1.479  0.3192  2.0190 -0.1677
 2735TIP3   OH2 8210   0.362   3.737   1.818  0.0385 -0.0219 -0.2906
 2735TIP3    H1 8211   0.434   3.774   1.870  0.5013 -0.0924 -0.8731
 2735TIP3    H2 8212   0.384   3.758   1.727  0.2988 -1.6796 -0.6465
 2736TIP3   OH2 8213   4.064   4.765   0.787 -0.5531  0.4635 -0.1049
 2736TIP3    H1 8214   3.973   4.793   0.796 -0.3306  1.0384  0.4185
 2736TIP3    H2 8215   4.068   4.681   0.833 -1.0705 -0.1368 -1.1113
 2737TIP3   OH2 8216   3.436   0.115   3.662  0.8065 -0.2125  0.5162
 2737TIP3    H1 8217   3.462   0.188   3.719  0.8873 -0.0842  0.3148
 2737TIP3    H2 8218   3.358   0.079   3.704 -0.1831  0.9854 -0.2257
 2738TIP3   OH2 8219   5.540   5.330   0.744 -0.0270  0.3657 -0.3672
 2738TIP3    H1 8220   5.558   5.423   0.756  0.3028  0.4735 -1.5585
 2738TIP3    H2 8221   5.460   5.327   0.691  0.6456  0.0011 -1.3836
 2739TIP3   OH2 8222   0.373   4.192   0.041  0.1479 -0.0461 -0.1840
 2739TIP3    H1 8223   0.358   4.098   0.035 -0.6819  0.1048 -0.6550
 2739TIP3    H2 8224   0.464   4.204   0.012  0.1157 -0.6519 -0.5509
 2740TIP3   OH2 8225   1.137   1.737   4.925  0.1098  0.1850  0.0978
 2740TIP3    H1 8226   1.070   1.717   4.859  0.8888  0.2355 -0.7325
 2740TIP3    H2 8227   1.128   1.830   4.941  0.2199  0.2651 -0.2932
 2741TIP3   OH2 8228   5.372   4.140   4.103  0.1596  0.0457 -0.0946
 2741TIP3    H1 8229   5.458   4.178   4.120  1.3040 -1.5586 -1.8343
 2741TIP3    H2 8230   5.361   4.148   4.008 -2.1677  1.2429  0.2004
 2742TIP3   OH2 8231   3.445   3.187   4.230  0.2865 -0.0708 -0.4538
 2742TIP3    H1 8232   3.358   3.181   4.270 -0.6291  0.6101 -2.2183
 2742TIP3    H2 8233   3.499   3.126   4.280 -0.8547  0.4548  1.5369
 2743TIP3   OH2 8234   4.783   5.507   0.832  0.1589 -0.0337 -0.1968
 2743TIP3    H1 8235   4.852   5.451   0.868  1.7997  2.1012  0.1769
 2743TIP3    H2 8236   4.730   5.531   0.908  1.0119  0.9646  0.1018
 2744TIP3   OH2 8237   3.338   2.355   2.953 -0.1742  0.1216 -0.7457
 2744TIP3    H1 8238   3.397   2.303   3.007 -1.0307 -2.1014 -1.8474
 2744TIP3    H2 8239   3.337   2.310   2.869 -3.0393  0.3473 -0.9129
 2745TIP3   OH2 8240   3.292   0.911   1.724 -0.8533  0.0572  0.3100
 2745TIP3    H1 8241   3.311   0.849   1.795  2.5099 -1.3147 -1.5540
 2745TIP3    H2 8242   3.360   0.979   1.732 -0.5559  0.0097 -1.3834
 2746TIP3   OH2 8243   2.590   3.799   4.967  0.0817  0.2034  0.1523
 2746TIP3    H1 8244   2.596   3.711   4.932  1.5328  0.3373 -0.0114
 2746TIP3    H2 8245   2.574   3.787   5.061  0.8545 -0.2423  0.2298
 2747TIP3   OH2 8246   1.450   1.152   0.271  0.1807  0.1698 -0.6500
 2747TIP3    H1 8247   1.372   1.205   0.283 -0.2480 -0.8571  1.4723
 2747TIP3    H2 8248   1.425   1.087   0.205 -1.1513 -0.7785  0.7180
 2748TIP3   OH2 8249   2.296   4.237   5.162 -0.1522  1.1191  0.1794
 2748TIP3    H1 8250   2.242   4.218   5.085 -1.8461  2.7417  0.8913
 2748TIP3    H2 8251   2.306   4.153   5.206 -0.3197  0.4215 -1.0664
 2749TIP3   OH2 8252   2.491   5.369   3.928 -0.4164  0.0445 -0.9157
 2749TIP3    H1 8253   2.491   5.402   3.839 -0.0582  1.5899 -0.3682
 2749TIP3    H2 8254   2.582   5.344   3.945 -0.3490  0.3806 -0.7703
 2750TIP3   OH2 8255   5.784   2.535   3.792  0.5029 -0.5485  0.0940
 2750TIP3    H1 8256   5.827   2.605   3.841 -1.1434 -0.4437  1.4537
 2750TIP3    H2 8257   5.722   2.581   3.735  1.3973 -0.7649 -1.0967
 2751TIP3   OH2 8258   4.942   0.238   4.460 -0.6536  0.7457  0.5474
 2751TIP3    H1 8259   4.966   0.294   4.535 -1.0732  0.2533  1.0579
 2751TIP3    H2 8260   4.859   0.273   4.429 -0.2724  1.2132  0.0360
 2752TIP3   OH2 8261   5.423   1.639   3.724  0.3236  0.3539  0.2789
 2752TIP3    H1 8262   5.348   1.595   3.684  1.5488 -0.1652 -1.5873
 2752TIP3    H2 8263   5.388   1.677   3.805 -1.8925  0.0198 -0.4454
 2753TIP3   OH2 8264   5.823   4.225   2.569  0.0087  0.4715 -0.4402
 2753TIP3    H1 8265   5.780   4.273   2.640  0.6674  0.2505  0.1196
 2753TIP3    H2 8266   5.792   4.135   2.579  0.3448  0.3762 -0.2311
 2754TIP3   OH2 8267   1.759   5.962   4.654  0.0130  0.7273  0.0189
 2754TIP3    H1 8268   1.847   5.934   4.680  0.5335  3.1124  1.1058
 2754TIP3    H2 8269   1.702   5.929   4.724  0.5560  1.9304  1.0718
 2755TIP3   OH2 8270   5.093   5.687   1.072  0.1577  0.0741  0.0702
 2755TIP3    H1 8271   5.161   5.739   1.030 -1.2779  1.6752 -0.3996
 2755TIP3    H2 8272   5.074   5.617   1.010 -1.5050  2.0492 -1.8184
 2756TIP3   OH2 8273   5.138   5.607   3.963  0.2214 -0.3216  0.0331
 2756TIP3    H1 8274   5.052   5.564   3.960  0.1612 -0.2057  0.0867
 2756TIP3    H2 8275   5.155   5.632   3.872  0.7877 -1.4991 -0.2098
 2757TIP3   OH2 8276   0.792   5.441   0.072 -0.3988  0.1180  0.5751
 2757TIP3    H1 8277   0.762   5.531   0.068  0.8757  0.5407  0.3394
 2757TIP3    H2 8278   0.748   5.398  -0.001  0.8186  1.1171 -0.7844
 2758TIP3   OH2 8279   4.680   0.973   4.732  0.4430 -0.4544 -0.2851
 2758TIP3    H1 8280   4.656   0.996   4.642 -1.9635 -1.4702  0.0055
 2758TIP3    H2 8281   4.683   1.056   4.779 -0.9716 -0.1029 -0.7659
 2759TIP3   OH2 8282   5.156   2.807   0.770  0.0780 -0.2926  0.1779
 2759TIP3    H1 8283   5.181   2.795   0.861 -0.3763  0.2730  0.3784
 2759TIP3    H2 8284   5.180   2.897   0.750  0.1661 -0.4086 -0.2646
 2760TIP3   OH2 8285   5.946   1.857   1.702 -0.1292 -0.2092 -0.3498
 2760TIP3    H1 8286   6.030   1.875   1.661 -0.1948  0.1245 -0.3452
 2760TIP3    H2 8287   5.902   1.797   1.642 -0.6916  1.1572 -1.3566
 2761TIP3   OH2 8288   3.099   3.259   4.541  0.0941 -0.2553  0.1189
 2761TIP3    H1 8289   3.133   3.338   4.585  0.4579 -0.9804  1.1859
 2761TIP3    H2 8290   3.004   3.271   4.541  0.0826 -0.2163  1.1160
 2762TIP3   OH2 8291   1.577   4.139   3.855 -0.2872  0.3710  0.7263
 2762TIP3    H1 8292   1.507   4.201   3.875 -0.0678  0.2207  2.0649
 2762TIP3    H2 8293   1.539   4.079   3.791 -0.6691  1.5675 -0.2176
 2763TIP3   OH2 8294   3.850   0.088   1.758 -0.1827  0.1510 -0.3976
 2763TIP3    H1 8295   3.783   0.137   1.807  0.3530  0.3611  0.1298
 2763TIP3    H2 8296   3.924   0.147   1.753 -0.0536 -0.0600 -1.0453
 2764TIP3   OH2 8297   5.636   3.330   3.601 -0.5222 -0.4526 -0.2383
 2764TIP3    H1 8298   5.708   3.290   3.650 -1.0173 -0.2998  0.6232
 2764TIP3    H2 8299   5.625   3.417   3.638 -0.7173 -0.2234 -0.8135
 2765TIP3   OH2 8300   4.375   4.667   5.136  0.6839  0.1188 -0.0880
 2765TIP3    H1 8301   4.415   4.710   5.061  1.2731 -2.6993 -1.5400
 2765TIP3    H2 8302   4.293   4.631   5.102  0.8292 -0.9703  0.6659
 2766TIP3   OH2 8303   6.271   4.050   2.485 -0.2427  0.3925 -0.0904
 2766TIP3    H1 8304   6.331   4.031   2.413 -2.4667  1.3885 -2.3359
 2766TIP3    H2 8305   6.307   4.128   2.527 -0.0414  1.0568 -1.4735
 2767TIP3   OH2 8306   3.495   0.332   0.615 -0.3990  0.0023 -0.2877
 2767TIP3    H1 8307   3.477   0.262   0.552 -2.0867 -0.0576  0.1974
 2767TIP3    H2 8308   3.532   0.287   0.690  1.6176  0.0719 -1.1852
 2768TIP3   OH2 8309   4.634   5.662   5.069  0.2482  0.4207  0.2854
 2768TIP3    H1 8310   4.705   5.678   5.007 -0.8733  0.0642 -1.1258
 2768TIP3    H2 8311   4.555   5.690   5.023 -0.6780 -0.3690  1.3530
 2769TIP3   OH2 8312   5.098   1.414   4.255  0.2227 -0.0599 -0.1497
 2769TIP3    H1 8313   5.066   1.475   4.322  2.8240  0.5883  0.6168
 2769TIP3    H2 8314   5.119   1.469   4.180  2.1126 -0.0027  0.3692
 2770TIP3   OH2 8315   6.160   3.142   2.710  0.2569  0.2443  0.1465
 2770TIP3    H1 8316   6.096   3.167   2.776  0.9158 -1.6426  1.5877
 2770TIP3    H2 8317   6.242   3.133   2.758  0.9285 -0.4224 -1.0651
 2771TIP3   OH2 8318   0.202   3.896   4.181 -0.1937 -0.3482  0.3773
 2771TIP3    H1 8319   0.242   3.824   4.133  0.1178  0.2066 -0.2031
 2771TIP3    H2 8320   0.109   3.890   4.160 -0.0017  0.1442 -0.6370
 2772TIP3   OH2 8321   2.726   2.052   0.593  0.3269 -0.0206 -0.7104
 2772TIP3    H1 8322   2.741   2.144   0.571  0.2725  0.4609  1.1313
 2772TIP3    H2 8323   2.631   2.042   0.592  0.3553 -0.3661 -1.9766
 2773TIP3   OH2 8324   4.155   0.747   3.721 -0.4735 -0.3461 -0.0880
 2773TIP3    H1 8325   4.238   0.705   3.743 -0.4262  0.5555  1.6147
 2773TIP3    H2 8326   4.140   0.810   3.791 -1.6093  0.9658 -1.4332
 2774TIP3   OH2 8327   3.162   2.420   4.147 -0.4740 -0.2258 -0.6624
 2774TIP3    H1 8328   3.248   2.442   4.183 -1.8424  1.0053  2.1627
 2774TIP3    H2 8329   3.154   2.326   4.159 -0.8990  0.1278  2.6545
 2775TIP3   OH2 8330   2.569   5.717   1.785  0.2618  0.6744  0.1295
 2775TIP3    H1 8331   2.583   5.804   1.749  0.0707  0.8000  0.3518
 2775TIP3    H2 8332   2.569   5.730   1.880 -2.5832  0.9116  0.1847
 2776TIP3   OH2 8333   3.441   2.235   4.377 -0.1065  0.3696 -0.0710
 2776TIP3    H1 8334   3.490   2.161   4.343 -1.0493 -0.0575 -0.5395
 2776TIP3    H2 8335   3.428   2.215   4.470 -0.5861 -0.1965 -0.2521
 2777TIP3   OH2 8336   4.449   0.377   5.004  0.2504 -0.0692  0.6235
 2777TIP3    H1 8337   4.409   0.413   5.083  0.7041  0.4290  0.6312
 2777TIP3    H2 8338   4.504   0.448   4.970  0.0430 -0.2728 -0.1550
 2778TIP3   OH2 8339   0.797   2.979   4.508  0.3494  0.3207  0.1844
 2778TIP3    H1 8340   0.847   3.022   4.439 -0.8986  1.5930  0.0307
 2778TIP3    H2 8341   0.741   2.917   4.463 -0.8983  1.5736 -0.0542
 2779TIP3   OH2 8342   5.937   1.282   4.010  0.1168  0.2850  0.1713
 2779TIP3    H1 8343   5.881   1.323   4.075  0.2001  0.5620  0.0720
 2779TIP3    H2 8344   6.021   1.271   4.053  0.5613  1.6785 -0.2954
 2780TIP3   OH2 8345   3.390   0.469   0.077 -0.2483  0.8881 -0.2192
 2780TIP3    H1 8346   3.320   0.534   0.072  0.3692  1.5574 -0.2350
 2780TIP3    H2 8347   3.470   0.520   0.091  0.0807  0.0573  1.1385
 2781TIP3   OH2 8348   4.548   4.745   0.641 -0.0167 -0.5363  0.2995
 2781TIP3    H1 8349   4.536   4.785   0.555 -1.4082 -1.3259  0.0894
 2781TIP3    H2 8350   4.568   4.818   0.699 -0.8680  0.2567 -0.3674
 2782TIP3   OH2 8351   3.269   1.790   1.846 -0.7491 -0.2962  0.6851
 2782TIP3    H1 8352   3.187   1.775   1.799 -0.5608  0.3117  0.1555
 2782TIP3    H2 8353   3.335   1.740   1.797 -0.6533 -0.1061  0.6181
 2783TIP3   OH2 8354   3.308   3.584   0.343  0.0706 -0.1372 -0.0587
 2783TIP3    H1 8355   3.378   3.631   0.388  0.2408 -0.5438  0.0987
 2783TIP3    H2 8356   3.346   3.558   0.259  0.7219 -1.9785  0.7718
 2784TIP3   OH2 8357   0.665   2.958   0.893  0.7896  0.1228  0.1032
 2784TIP3    H1 8358   0.690   3.050   0.903 -0.5001  0.3875  1.1350
 2784TIP3    H2 8359   0.749   2.911   0.890  1.4516  1.1767  1.2725
 2785TIP3   OH2 8360   2.671   1.662   0.671 -0.2977  0.5718  0.1013
 2785TIP3    H1 8361   2.717   1.673   0.588 -0.4075 -0.8031 -0.1796
 2785TIP3    H2 8362   2.716   1.720   0.732  0.0947  1.2348 -0.7954
 2786TIP3   OH2 8363   3.191   1.960   3.510 -0.8119  0.1293  0.5559
 2786TIP3    H1 8364   3.126   1.935   3.575  0.2003 -0.5196  1.3449
 2786TIP3    H2 8365   3.225   1.876   3.477 -1.6588  0.4295 -1.1944
 2787TIP3   OH2 8366   0.102   0.354   3.387 -0.5450 -0.3101 -0.1180
 2787TIP3    H1 8367   0.101   0.352   3.292  1.1561 -0.7519 -0.1691
 2787TIP3    H2 8368   0.110   0.447   3.409 -1.3657 -0.1731 -0.3865
 2788TIP3   OH2 8369   3.439   2.995   0.048  0.5148  0.3230  0.5103
 2788TIP3    H1 8370   3.447   3.055  -0.026  0.7904 -0.8215 -0.4350
 2788TIP3    H2 8371   3.529   2.980   0.077  0.5201 -0.1908  0.2504
 2789TIP3   OH2 8372   4.383   5.155   3.311 -0.3511 -0.5423 -0.6382
 2789TIP3    H1 8373   4.384   5.193   3.399 -0.7589 -0.7052 -0.5608
 2789TIP3    H2 8374   4.381   5.230   3.252  1.0033 -0.4126 -0.5357
 2790TIP3   OH2 8375   2.015   5.896   3.283  0.1508  0.6608 -0.1220
 2790TIP3    H1 8376   2.070   5.820   3.304  0.4315  0.4300 -1.5705
 2790TIP3    H2 8377   2.065   5.971   3.313  0.7808  0.3802 -0.4394
 2791TIP3   OH2 8378   1.275   3.775   5.046  0.0261  0.0921 -0.0401
 2791TIP3    H1 8379   1.186   3.808   5.035 -0.5641 -1.2423  0.4403
 2791TIP3    H2 8380   1.267   3.707   5.114  1.2668 -0.5553 -0.5067
 2792TIP3   OH2 8381   5.127   0.250   5.112  0.2319 -0.1065 -0.1114
 2792TIP3    H1 8382   5.148   0.263   5.019 -0.5103  0.7049 -0.1725
 2792TIP3    H2 8383   5.049   0.302   5.126 -1.0134 -2.0330  0.4292
 2793TIP3   OH2 8384   0.900   3.422   4.073  0.1763  0.4236  0.5300
 2793TIP3    H1 8385   0.900   3.513   4.045 -0.2515 -0.4367 -2.6454
 2793TIP3    H2 8386   0.987   3.408   4.111  1.0401  1.6133 -0.9364
 2794TIP3   OH2 8387   3.341   1.184   4.295  0.1479  0.4830 -0.0460
 2794TIP3    H1 8388   3.246   1.181   4.278  0.1485  1.4810 -0.2758
 2794TIP3    H2 8389   3.347   1.182   4.391 -0.1454  1.0848 -0.0069
 2795TIP3   OH2 8390   2.433   5.008   1.297  0.8947 -0.1709  0.3098
 2795TIP3    H1 8391   2.476   5.062   1.231  0.8478 -0.4680  0.0277
 2795TIP3    H2 8392   2.504   4.979   1.354  0.8732  0.4497  0.6578
 2796TIP3   OH2 8393   2.355   4.597   1.516  0.0983  0.3682  0.0942
 2796TIP3    H1 8394   2.272   4.577   1.472  1.1851  0.2157 -2.0161
 2796TIP3    H2 8395   2.333   4.597   1.609 -2.7605  2.6163 -0.4439
 2797TIP3   OH2 8396   5.630   4.837   3.065 -0.4538 -0.2568 -0.2020
 2797TIP3    H1 8397   5.555   4.889   3.035  0.3958  1.0935 -0.0302
 2797TIP3    H2 8398   5.597   4.788   3.140 -1.1136  0.4698 -0.0125
 2798TIP3   OH2 8399   3.159   1.147   0.735 -0.2699  0.2550 -0.3582
 2798TIP3    H1 8400   3.240   1.163   0.687 -0.1177 -0.8616 -0.5057
 2798TIP3    H2 8401   3.092   1.140   0.667 -0.3044  0.1264 -0.3113
 2799TIP3   OH2 8402   1.306   0.251   1.097 -0.6930 -0.0802  0.3257
 2799TIP3    H1 8403   1.284   0.293   1.014 -0.5387 -0.5363  0.0498
 2799TIP3    H2 8404   1.275   0.312   1.164 -0.9308  0.2325 -0.0649
 2800TIP3   OH2 8405   3.698   3.214   1.986 -0.1549 -0.0325 -0.2152
 2800TIP3    H1 8406   3.710   3.309   1.987 -0.0698 -0.0106 -1.4654
 2800TIP3    H2 8407   3.783   3.179   1.960 -0.6667 -0.3135 -1.6304
 2801TIP3   OH2 8408   4.038   3.572   0.385  0.2596 -0.2508  0.9661
 2801TIP3    H1 8409   4.081   3.581   0.470  1.5258 -0.4688  0.3687
 2801TIP3    H2 8410   4.023   3.478   0.375 -3.2456 -0.0422  2.4994
 2802TIP3   OH2 8411   4.772   5.757   3.048 -0.3149  0.2261 -0.1251
 2802TIP3    H1 8412   4.852   5.754   3.099 -1.0278 -1.6118  0.9743
 2802TIP3    H2 8413   4.801   5.759   2.956  0.9625  2.1745  0.2544
 2803TIP3   OH2 8414   2.532   2.723   0.822  0.3565  0.1630  0.1280
 2803TIP3    H1 8415   2.625   2.743   0.828  0.5967 -0.2816 -1.5545
 2803TIP3    H2 8416   2.488   2.801   0.857  1.3436  0.3770  0.9280
 2804TIP3   OH2 8417   1.254   3.948   2.599 -0.0080  0.5005 -0.3052
 2804TIP3    H1 8418   1.203   4.026   2.579  0.2859  0.9437  0.6054
 2804TIP3    H2 8419   1.322   3.946   2.531  1.1369  2.1203  0.6932
 2805TIP3   OH2 8420   2.807   3.009   4.578 -0.4690  0.1712  0.3725
 2805TIP3    H1 8421   2.895   2.984   4.552 -0.1468  1.9122 -0.3208
 2805TIP3    H2 8422   2.797   2.973   4.667  1.4364  1.0829  1.0029
 2806TIP3   OH2 8423   5.627   5.442   1.536 -0.1554 -0.0898 -0.0049
 2806TIP3    H1 8424   5.546   5.491   1.518 -1.2098 -1.2154  1.4232
 2806TIP3    H2 8425   5.637   5.384   1.462 -0.5619  0.1807 -0.2760
 2807TIP3   OH2 8426   0.315   4.857   1.216  0.0938  0.2002 -0.5999
 2807TIP3    H1 8427   0.235   4.814   1.186 -0.2780  1.4551 -1.5072
 2807TIP3    H2 8428   0.336   4.814   1.299 -0.8114 -1.0045 -0.9695
 2808TIP3   OH2 8429   3.775   2.124   3.233 -0.0783 -0.2000 -0.3842
 2808TIP3    H1 8430   3.746   2.184   3.164  1.0085  0.9916  0.1502
 2808TIP3    H2 8431   3.761   2.173   3.315  0.7333 -0.6905  0.0659
 2809TIP3   OH2 8432   0.979   4.564   3.920  0.1557  0.9544  0.6019
 2809TIP3    H1 8433   0.899   4.516   3.900  1.0774 -0.9013  1.1710
 2809TIP3    H2 8434   1.018   4.517   3.994 -0.1910  4.1226  3.0055
 2810TIP3   OH2 8435   0.570   1.383   3.540 -0.2768  0.8766  0.1193
 2810TIP3    H1 8436   0.507   1.431   3.487 -0.1267  2.7947  1.5580
 2810TIP3    H2 8437   0.522   1.359   3.619 -0.3376 -1.4225 -0.5400
 2811TIP3   OH2 8438   2.066   2.542   3.221  0.1852 -1.0240  0.2379
 2811TIP3    H1 8439   1.997   2.609   3.221  0.3401 -0.8609 -0.0260
 2811TIP3    H2 8440   2.106   2.549   3.134  2.8408  1.2469  1.4918
 2812TIP3   OH2 8441   4.361   2.903   3.605  0.3966  0.0793  0.6832
 2812TIP3    H1 8442   4.299   2.930   3.672  0.0968 -2.1885  1.3764
 2812TIP3    H2 8443   4.337   2.954   3.528 -0.7503  0.9994  1.6208
 2813TIP3   OH2 8444   5.203   1.624   1.452  0.5372  0.2533 -0.1767
 2813TIP3    H1 8445   5.282   1.600   1.502 -0.6046 -1.1087  1.0827
 2813TIP3    H2 8446   5.131   1.597   1.509 -0.8623 -1.5761 -2.6536
 2814TIP3   OH2 8447   4.525   4.402   5.192 -0.5264  0.0340  0.4774
 2814TIP3    H1 8448   4.489   4.490   5.207  0.2757  0.2538  1.1962
 2814TIP3    H2 8449   4.549   4.401   5.100 -0.4074  0.6205  0.4991
 2815TIP3   OH2 8450   5.669   1.846   4.006 -0.1475 -0.1651 -0.6337
 2815TIP3    H1 8451   5.592   1.797   3.977 -0.6128 -0.5044  1.0673
 2815TIP3    H2 8452   5.738   1.780   4.012 -0.1377 -0.1577 -0.6659
 2816TIP3   OH2 8453   4.446   5.898   3.853 -0.4321 -0.2007  0.0699
 2816TIP3    H1 8454   4.466   5.963   3.919 -0.3046 -0.9601  0.7927
 2816TIP3    H2 8455   4.350   5.897   3.848 -0.4098  0.9340 -0.8640
 2817TIP3   OH2 8456   0.552   3.250   1.947 -0.4857  0.0162 -0.3803
 2817TIP3    H1 8457   0.637   3.219   1.977 -0.6634  1.3164  1.6416
 2817TIP3    H2 8458   0.494   3.174   1.956  0.2123 -0.5712 -0.7504
 2818TIP3   OH2 8459   5.900   5.141   1.968  0.3968 -0.4666 -0.2684
 2818TIP3    H1 8460   5.810   5.139   2.001  0.8450  0.1352  1.0884
 2818TIP3    H2 8461   5.954   5.150   2.047  1.5332  1.1576 -1.1744
 2819TIP3   OH2 8462   2.409   3.771   1.721 -0.5909 -0.3274  0.3713
 2819TIP3    H1 8463   2.438   3.730   1.802 -0.5147 -0.9068  0.0537
 2819TIP3    H2 8464   2.314   3.776   1.728 -0.8672 -2.8339 -0.6198
 2820TIP3   OH2 8465   5.510   2.577   0.708  0.3479  0.0071 -0.5036
 2820TIP3    H1 8466   5.550   2.495   0.738  1.9512  1.2704  0.9836
 2820TIP3    H2 8467   5.516   2.636   0.783 -3.8398  0.5387 -0.3570
 2821TIP3   OH2 8468   5.769   0.852   4.091  0.1226 -0.4526 -0.3023
 2821TIP3    H1 8469   5.766   0.906   4.170  3.5883 -1.9471  1.0674
 2821TIP3    H2 8470   5.707   0.781   4.108  1.0146 -0.8989  1.2431
 2822TIP3   OH2 8471   3.772   4.710   1.977 -0.3340 -0.7124 -0.5259
 2822TIP3    H1 8472   3.807   4.796   1.953 -0.0077 -0.5113  0.6442
 2822TIP3    H2 8473   3.677   4.719   1.961 -0.2658 -0.2447 -0.7066
 2823TIP3   OH2 8474   0.670   2.512   3.539  0.9923  0.2040  0.1557
 2823TIP3    H1 8475   0.615   2.465   3.601  0.9020  2.3418  1.8063
 2823TIP3    H2 8476   0.626   2.503   3.455  0.2403 -1.3895  0.6929
 2824TIP3   OH2 8477   0.963   0.561   1.629  0.4006 -0.0852  0.2079
 2824TIP3    H1 8478   1.046   0.600   1.656  0.2955  0.3546 -0.0986
 2824TIP3    H2 8479   0.986   0.470   1.607  0.5906 -0.2801  1.1826
 2825TIP3   OH2 8480   5.676   5.684   2.856 -0.7845  0.4402  0.0854
 2825TIP3    H1 8481   5.619   5.607   2.854  0.8079 -0.7637 -1.7837
 2825TIP3    H2 8482   5.647   5.737   2.781 -0.6826  0.7882  0.2880
 2826TIP3   OH2 8483   0.579   4.368   1.794  0.2387 -0.1003  0.2075
 2826TIP3    H1 8484   0.531   4.445   1.824 -1.5049 -0.3281 -1.7564
 2826TIP3    H2 8485   0.532   4.294   1.833  0.0900 -0.2570 -0.2604
 2827TIP3   OH2 8486   3.361   3.123   0.741 -0.2353 -0.2784 -0.5305
 2827TIP3    H1 8487   3.342   3.144   0.650 -1.4443  0.1317 -0.2086
 2827TIP3    H2 8488   3.448   3.083   0.739 -0.6028 -1.0760 -1.9696
 2828TIP3   OH2 8489   0.217   5.645   1.894  0.0005  1.1070  0.3794
 2828TIP3    H1 8490   0.142   5.611   1.943  1.0002  0.3148  1.4105
 2828TIP3    H2 8491   0.291   5.594   1.926  0.5650 -0.2283 -2.7154
 2829TIP3   OH2 8492   2.944   1.088   0.556 -0.4924 -0.3335 -0.3230
 2829TIP3    H1 8493   2.898   1.139   0.623 -0.0814  0.7545 -0.8414
 2829TIP3    H2 8494   2.903   1.115   0.474 -0.3354 -0.9330 -0.6036
 2830TIP3   OH2 8495   4.082   0.234   1.711  0.6370  0.2214 -0.8898
 2830TIP3    H1 8496   4.125   0.297   1.769  0.5896 -1.2723  0.8870
 2830TIP3    H2 8497   4.152   0.198   1.658  0.6783  1.6395 -1.8702
 2831TIP3   OH2 8498   1.548   3.830   0.624 -0.4124 -0.4065 -0.2652
 2831TIP3    H1 8499   1.613   3.900   0.625 -0.4888 -0.3133 -1.1759
 2831TIP3    H2 8500   1.544   3.800   0.715  1.6288 -1.1149 -0.3714
 2832TIP3   OH2 8501   4.184   4.729   2.634 -0.6923 -0.0632  0.1062
 2832TIP3    H1 8502   4.208   4.815   2.598 -1.5499  0.9971  1.9543
 2832TIP3    H2 8503   4.111   4.747   2.693 -0.1348 -1.8846  1.4455
 2833TIP3   OH2 8504   5.961   3.082   2.918 -0.0853  0.1961 -0.0692
 2833TIP3    H1 8505   5.962   3.084   3.013 -0.7459  0.1127 -0.0556
 2833TIP3    H2 8506   5.912   3.003   2.896 -0.7242  0.6921 -0.4734
 2834TIP3   OH2 8507   5.540   3.671   4.085  0.3495 -0.6348 -0.1441
 2834TIP3    H1 8508   5.576   3.695   4.170  3.7299 -0.3725 -1.4828
 2834TIP3    H2 8509   5.496   3.587   4.100 -2.8664  1.2707  2.5568
 2835TIP3   OH2 8510   2.174   3.614   0.421  0.3698 -0.4514  0.4200
 2835TIP3    H1 8511   2.190   3.705   0.447  1.0147 -0.8277  1.4023
 2835TIP3    H2 8512   2.261   3.578   0.406  0.0787 -0.6562 -0.9165
 2836TIP3   OH2 8513   4.728   2.809   0.703 -0.1976 -0.2508 -0.0796
 2836TIP3    H1 8514   4.705   2.740   0.641  0.2568  1.0524 -1.7804
 2836TIP3    H2 8515   4.776   2.873   0.651  0.6595  0.6813  1.7480
 2837TIP3   OH2 8516   2.773   4.982   2.539 -0.1791 -0.2173  0.2402
 2837TIP3    H1 8517   2.831   4.982   2.615 -0.4086 -0.0971  0.4161
 2837TIP3    H2 8518   2.703   4.920   2.562 -1.0540  0.9142  0.7521
 2838TIP3   OH2 8519   5.094   2.464   4.220 -0.4627 -0.2056 -0.3323
 2838TIP3    H1 8520   5.142   2.391   4.182 -1.8306 -0.6724 -1.2451
 2838TIP3    H2 8521   5.019   2.476   4.161 -2.4397 -0.6413  1.9490
 2839TIP3   OH2 8522   4.958   3.462   2.279  0.5781 -0.1568  0.6911
 2839TIP3    H1 8523   4.913   3.394   2.228  1.1938 -0.1302  0.0855
 2839TIP3    H2 8524   4.966   3.425   2.367 -2.1083  0.5277  1.3022
 2840TIP3   OH2 8525   0.247   3.988   2.853  0.0247  0.0092  0.0660
 2840TIP3    H1 8526   0.252   4.073   2.810  0.8261 -0.3544 -0.5866
 2840TIP3    H2 8527   0.178   3.941   2.807 -0.6214  0.3983  0.6182
 2841TIP3   OH2 8528   2.615   3.443   3.575 -0.1624  0.1847 -0.0790
 2841TIP3    H1 8529   2.634   3.365   3.523  1.0933 -0.1249  0.8043
 2841TIP3    H2 8530   2.617   3.413   3.666 -0.7196  1.0448  0.2336
 2842TIP3   OH2 8531   2.549   0.450   1.388  0.0954 -0.1726 -0.0171
 2842TIP3    H1 8532   2.516   0.539   1.384  1.2396  0.2466 -0.4247
 2842TIP3    H2 8533   2.534   0.423   1.479 -2.6622 -0.5549 -0.4897
 2843TIP3   OH2 8534   0.138   3.257   0.224  0.0423  0.1321  0.3392
 2843TIP3    H1 8535   0.096   3.321   0.167 -0.5764 -0.4318  0.1451
 2843TIP3    H2 8536   0.072   3.188   0.235  1.0096 -0.9304 -0.2411
 2844TIP3   OH2 8537   0.280   4.523   0.698  0.4819 -0.2218 -0.3151
 2844TIP3    H1 8538   0.334   4.467   0.641 -0.1011 -1.8605  0.6663
 2844TIP3    H2 8539   0.343   4.583   0.738  1.3572 -1.0465 -0.3936
 2845TIP3   OH2 8540   2.461   2.033   2.371  0.5188  0.0587 -0.4834
 2845TIP3    H1 8541   2.466   1.978   2.293 -0.2676 -1.4399  0.4837
 2845TIP3    H2 8542   2.368   2.038   2.391  0.7692 -0.3118  0.8580
 2846TIP3   OH2 8543   0.250   5.827   2.529  0.0860 -0.1755  0.2554
 2846TIP3    H1 8544   0.176   5.777   2.562  1.7254 -1.4370  2.2232
 2846TIP3    H2 8545   0.240   5.914   2.568  0.0952 -0.6043  1.2366
 2847TIP3   OH2 8546   5.851   3.342   3.814  0.3064 -0.1680  0.7398
 2847TIP3    H1 8547   5.833   3.403   3.886  1.7148  1.3940 -0.1652
 2847TIP3    H2 8548   5.859   3.256   3.856 -0.6887  0.4130  2.1890
 2848TIP3   OH2 8549   3.121   2.381   4.497 -0.2932 -0.3016  0.0696
 2848TIP3    H1 8550   3.195   2.423   4.453  0.2880 -0.2221  1.0864
 2848TIP3    H2 8551   3.160   2.340   4.574 -1.4482  0.5847  1.1582
 2849TIP3   OH2 8552   0.924   0.533   1.187  0.0204  0.9144  0.5515
 2849TIP3    H1 8553   0.859   0.502   1.251 -0.7377  0.3719 -0.4494
 2849TIP3    H2 8554   0.874   0.592   1.130  0.0411 -0.5579 -1.0634
 2850TIP3   OH2 8555   6.213   1.449   1.209  0.2509 -0.3290 -0.2105
 2850TIP3    H1 8556   6.145   1.495   1.159 -0.6972 -0.7448  0.6580
 2850TIP3    H2 8557   6.287   1.509   1.209 -0.0314  0.0525 -1.3518
 2851TIP3   OH2 8558   1.224   5.352   3.651  0.0197 -0.0187  0.2356
 2851TIP3    H1 8559   1.258   5.263   3.657  1.6096  0.2202 -3.2619
 2851TIP3    H2 8560   1.299   5.408   3.671 -0.9234  0.6524  2.2399
 2852TIP3   OH2 8561   1.240   3.534   2.059  0.2361  0.2420 -0.3262
 2852TIP3    H1 8562   1.256   3.445   2.091 -1.1268  0.4487  1.0338
 2852TIP3    H2 8563   1.303   3.588   2.107  1.2135  0.0162 -1.3124
 2853TIP3   OH2 8564   5.881   5.329   3.011 -0.2362  0.1510 -0.1580
 2853TIP3    H1 8565   5.924   5.289   3.087  0.3518  1.3887  0.1948
 2853TIP3    H2 8566   5.796   5.358   3.044 -0.1619  0.2956 -0.0953
 2854TIP3   OH2 8567   6.313   2.948   0.098  0.0697  0.1013 -0.1233
 2854TIP3    H1 8568   6.245   2.880   0.091  0.2598 -0.2533  1.2482
 2854TIP3    H2 8569   6.291   2.996   0.178  1.1038  0.3542  0.0195
 2855TIP3   OH2 8570   5.421   4.033   0.700 -0.2450  0.4011  0.2179
 2855TIP3    H1 8571   5.504   4.060   0.740 -0.2330  1.8121 -0.6792
 2855TIP3    H2 8572   5.427   3.938   0.694  1.0148  0.4245  0.8135
 2856TIP3   OH2 8573   1.365   3.867   1.643  0.3714  0.7462  0.0647
 2856TIP3    H1 8574   1.417   3.917   1.706 -1.7015  0.7319  1.9125
 2856TIP3    H2 8575   1.319   3.802   1.697 -0.1939 -0.3993 -1.7161
 2857TIP3   OH2 8576   5.755   5.392   3.394 -0.0456 -0.2842 -0.1028
 2857TIP3    H1 8577   5.695   5.463   3.415 -1.4313 -1.4957  0.1568
 2857TIP3    H2 8578   5.842   5.432   3.401 -0.7811  1.4813 -0.3788
 2858TIP3   OH2 8579   6.264   4.924   1.552 -0.2122 -0.0559  0.0070
 2858TIP3    H1 8580   6.175   4.900   1.528  0.0125 -0.8737 -0.0310
 2858TIP3    H2 8581   6.255   4.975   1.632 -0.6073 -1.5233  0.9249
 2859TIP3   OH2 8582   5.937   0.090   4.328  0.3255  0.6773 -0.4989
 2859TIP3    H1 8583   6.028   0.088   4.301  0.1837 -1.8336 -1.0548
 2859TIP3    H2 8584   5.889   0.053   4.254 -0.6967 -1.3418  1.0562
 2860TIP3   OH2 8585   1.466   3.039   0.721  0.1086 -0.5594 -0.0383
 2860TIP3    H1 8586   1.403   3.050   0.650 -0.4961 -1.0263  0.4171
 2860TIP3    H2 8587   1.469   3.123   0.766  1.0609 -0.0134 -1.0541
 2861TIP3   OH2 8588   0.019   0.630   1.681 -0.4948  0.0606  0.1079
 2861TIP3    H1 8589   0.059   0.710   1.647 -2.7082  1.2216  0.0524
 2861TIP3    H2 8590   0.091   0.583   1.723  1.1134  1.4685 -0.9479
 2862TIP3   OH2 8591   2.361   5.068   4.783 -0.0010 -0.4238 -0.4969
 2862TIP3    H1 8592   2.396   5.012   4.713 -0.0949 -0.0761 -0.8289
 2862TIP3    H2 8593   2.428   5.135   4.795  1.0281 -1.6964  1.2671
 2863TIP3   OH2 8594   2.167   3.170   5.059 -0.1540 -0.2097  0.1875
 2863TIP3    H1 8595   2.102   3.207   5.119 -0.4697 -1.9290  0.9601
 2863TIP3    H2 8596   2.199   3.245   5.009 -1.5824  0.9084  0.8924
 2864TIP3   OH2 8597   0.239   4.890   0.548 -0.3588 -0.2251 -0.5311
 2864TIP3    H1 8598   0.284   4.974   0.549  0.2101 -0.5294 -0.0891
 2864TIP3    H2 8599   0.173   4.897   0.618  1.1647 -0.9142  1.0576
 2865TIP3   OH2 8600   2.048   4.483   3.864  0.2119  0.2374  0.2956
 2865TIP3    H1 8601   2.132   4.455   3.827  0.5956  1.2414  0.3627
 2865TIP3    H2 8602   2.071   4.554   3.924 -0.7499  1.0876 -0.2983
 2866TIP3   OH2 8603   1.414   5.961   2.679  0.0133 -0.3476  0.2614
 2866TIP3    H1 8604   1.367   5.877   2.676  0.8968 -0.9092  1.1432
 2866TIP3    H2 8605   1.453   5.962   2.767  1.6587  0.0643 -0.4410
 2867TIP3   OH2 8606   6.023   1.027   3.267  0.0935  0.2618  0.2670
 2867TIP3    H1 8607   5.941   0.997   3.305 -0.1140  0.6502  0.1329
 2867TIP3    H2 8608   5.999   1.057   3.179  0.2789  0.8907  0.4261
 2868TIP3   OH2 8609   4.295   2.861   0.836 -0.2483 -0.0278  0.1353
 2868TIP3    H1 8610   4.390   2.864   0.827 -0.3716  0.2293 -1.2912
 2868TIP3    H2 8611   4.264   2.823   0.754 -1.4906  1.8335 -0.3278
 2869TIP3   OH2 8612   1.872   4.537   0.581  1.0833 -0.2741  0.5141
 2869TIP3    H1 8613   1.784   4.568   0.601  0.6772 -1.3090  0.3980
 2869TIP3    H2 8614   1.867   4.442   0.592  1.6703 -0.5639 -1.3677
 2870TIP3   OH2 8615   3.790   0.783   3.198  0.0661 -0.2466 -0.4732
 2870TIP3    H1 8616   3.785   0.871   3.235  0.6824  0.9021 -2.8990
 2870TIP3    H2 8617   3.714   0.737   3.234 -0.6223  1.4636  0.3565
 2871TIP3   OH2 8618   1.973   4.015   1.448  0.4958  0.0260  0.3685
 2871TIP3    H1 8619   1.911   3.979   1.385  0.3896 -0.4591  0.7451
 2871TIP3    H2 8620   1.936   4.101   1.472  0.6727  0.3237 -0.4132
 2872TIP3   OH2 8621   1.285   3.537   0.123  0.2095 -0.4679  0.4385
 2872TIP3    H1 8622   1.193   3.541   0.094  0.1908 -0.2636  0.5261
 2872TIP3    H2 8623   1.299   3.619   0.168  0.0976 -0.9830  1.4372
 2873TIP3   OH2 8624   3.921   3.588   0.741  0.7839 -0.5290 -0.2225
 2873TIP3    H1 8625   3.862   3.517   0.716  0.4807  0.1833 -1.6351
 2873TIP3    H2 8626   3.875   3.633   0.811  0.4312 -1.0047 -0.1416
 2874TIP3   OH2 8627   3.694   1.374   3.486  0.0684 -0.0666  0.1784
 2874TIP3    H1 8628   3.707   1.285   3.519  0.0823  0.0964  0.6182
 2874TIP3    H2 8629   3.772   1.422   3.513  0.5789 -0.1902 -1.0206
 2875TIP3   OH2 8630   5.550   2.782   2.430 -0.9649 -0.2469  0.3738
 2875TIP3    H1 8631   5.499   2.708   2.397 -0.5981 -0.5724  0.5217
 2875TIP3    H2 8632   5.561   2.839   2.354 -0.9530 -0.5191  0.1661
 2876TIP3   OH2 8633   3.897   0.365   5.021  0.0897  0.4624 -0.8980
 2876TIP3    H1 8634   3.840   0.305   4.971 -1.5040  1.5779 -0.5037
 2876TIP3    H2 8635   3.982   0.322   5.021 -1.0352 -1.9705 -0.3786
 2877TIP3   OH2 8636   2.909   0.305   4.397 -0.4747  0.0061  0.2214
 2877TIP3    H1 8637   2.904   0.218   4.357  0.5996 -0.1044  0.3167
 2877TIP3    H2 8638   2.940   0.288   4.486  2.2523  0.6638 -0.5311
 2878TIP3   OH2 8639   4.461   1.953   4.181 -0.2392 -0.3325  0.4177
 2878TIP3    H1 8640   4.524   2.018   4.209 -1.5311  0.7526  0.9264
 2878TIP3    H2 8641   4.429   1.914   4.262 -1.0537 -0.0336  0.2529
 2879TIP3   OH2 8642   4.860   3.453   1.279 -0.3465 -0.2290 -0.0372
 2879TIP3    H1 8643   4.783   3.427   1.228 -0.3937  0.2309 -0.2032
 2879TIP3    H2 8644   4.824   3.487   1.360 -0.2385 -1.9519  0.7894
 2880TIP3   OH2 8645   4.879   0.424   3.932  0.3087 -0.9384  0.0820
 2880TIP3    H1 8646   4.820   0.499   3.924 -0.9351 -1.9569 -0.8368
 2880TIP3    H2 8647   4.829   0.359   3.982  0.7699 -1.7119 -0.4339
 2881TIP3   OH2 8648   2.472   0.708   4.644  0.1708 -0.5117  0.1822
 2881TIP3    H1 8649   2.407   0.671   4.584 -1.2239  0.6387  0.9126
 2881TIP3    H2 8650   2.504   0.786   4.599 -0.5318  0.0916  0.7028
 2882TIP3   OH2 8651   3.233   1.442   1.812 -0.0333  0.7670 -0.0566
 2882TIP3    H1 8652   3.236   1.466   1.905  0.3778  0.3147  0.0495
 2882TIP3    H2 8653   3.322   1.414   1.792 -0.4761 -0.5644 -0.1980
 2883TIP3   OH2 8654   2.711   3.697   3.554  0.3207 -0.5406  0.9989
 2883TIP3    H1 8655   2.640   3.755   3.526  0.4677 -0.9200 -0.1924
 2883TIP3    H2 8656   2.674   3.609   3.546  0.7966 -0.7174  0.7529
 2884TIP3   OH2 8657   2.835   1.874   4.856  0.1343 -0.1033 -0.0054
 2884TIP3    H1 8658   2.907   1.818   4.885  0.2404 -0.2821 -0.6033
 2884TIP3    H2 8659   2.763   1.852   4.916  0.1011 -1.0585 -0.3755
 2885TIP3   OH2 8660   1.293   4.143   0.769 -0.0116 -0.3156  0.1490
 2885TIP3    H1 8661   1.336   4.200   0.832 -0.1426 -1.3598  1.2134
 2885TIP3    H2 8662   1.317   4.054   0.796 -1.6107 -0.8693 -0.1341
 2886TIP3   OH2 8663   4.373   3.184   0.338 -0.1076 -0.2140 -0.1833
 2886TIP3    H1 8664   4.336   3.152   0.256 -0.8926 -0.2860  0.1879
 2886TIP3    H2 8665   4.357   3.279   0.336 -0.2360 -0.2328 -0.0591
 2887TIP3   OH2 8666   3.118   4.442   3.174  0.2866  0.0571 -0.1546
 2887TIP3    H1 8667   3.179   4.501   3.218  3.2459 -2.9120  0.1499
 2887TIP3    H2 8668   3.108   4.368   3.234 -2.9248 -0.1130 -0.6884
 2888TIP3   OH2 8669   5.615   1.087   5.159 -0.0344 -0.4313 -0.3618
 2888TIP3    H1 8670   5.698   1.107   5.202 -0.2192 -0.7382  0.1385
 2888TIP3    H2 8671   5.572   1.172   5.149 -0.1102 -0.3939  0.2972
 2889TIP3   OH2 8672   5.540   3.677   3.082 -0.3268  0.2349 -0.5456
 2889TIP3    H1 8673   5.528   3.763   3.122  2.5779  0.1506  0.7691
 2889TIP3    H2 8674   5.630   3.653   3.104 -0.3665 -2.2563 -2.6307
 2890TIP3   OH2 8675   3.014   2.849   3.527 -0.1873 -0.1375  0.0279
 2890TIP3    H1 8676   3.027   2.925   3.470 -0.9402 -1.5395 -2.1348
 2890TIP3    H2 8677   3.103   2.824   3.552  0.6650 -1.7612 -3.8216
 2891TIP3   OH2 8678   0.633   2.222   3.676 -0.4458 -0.4676  0.3264
 2891TIP3    H1 8679   0.685   2.144   3.656 -1.1036 -1.1316  1.1220
 2891TIP3    H2 8680   0.655   2.243   3.767 -1.1666 -0.4519  0.5056
 2892TIP3   OH2 8681   3.334   4.565   2.150 -0.9072  0.3908 -0.0902
 2892TIP3    H1 8682   3.415   4.611   2.130 -0.5623  0.1256  0.6505
 2892TIP3    H2 8683   3.299   4.611   2.227 -0.6571 -0.4480  0.5438
 2893TIP3   OH2 8684   0.185   0.961   0.050  0.1096 -0.1645  0.2633
 2893TIP3    H1 8685   0.276   0.940   0.071 -0.0341 -1.7455 -0.5751
 2893TIP3    H2 8686   0.145   0.982   0.135  1.1234  0.0921  0.6932
 2894TIP3   OH2 8687   4.209   1.868   2.158 -0.2957  0.1155  0.0071
 2894TIP3    H1 8688   4.189   1.809   2.086 -1.4500  0.1886  0.2446
 2894TIP3    H2 8689   4.249   1.812   2.225  0.6064  0.0163 -0.6035
 2895TIP3   OH2 8690   0.881   4.696   4.612 -0.1278  0.0967  0.3988
 2895TIP3    H1 8691   0.788   4.676   4.625 -0.3217  0.4301 -0.4069
 2895TIP3    H2 8692   0.903   4.755   4.684 -0.6959  0.4869  0.2569
 2896TIP3   OH2 8693   4.206   2.963   3.339  0.2040 -0.6309  0.1624
 2896TIP3    H1 8694   4.166   2.877   3.328 -0.6520 -0.1392 -0.6608
 2896TIP3    H2 8695   4.141   3.015   3.385  0.4564 -0.2269  0.0729
 2897TIP3   OH2 8696   4.515   3.585   2.624 -0.1528  0.0372 -0.1616
 2897TIP3    H1 8697   4.581   3.638   2.669 -0.5145  1.9208 -1.6908
 2897TIP3    H2 8698   4.564   3.536   2.558  0.0376 -0.6488  0.4834
 2898TIP3   OH2 8699   5.158   1.168   1.659  0.2569  0.1341 -0.2152
 2898TIP3    H1 8700   5.102   1.113   1.714 -0.2859  0.7783 -0.1187
 2898TIP3    H2 8701   5.135   1.143   1.570  0.3513 -0.1321 -0.1667
 2899TIP3   OH2 8702   2.298   1.555   2.967  0.4443 -0.0815  0.3574
 2899TIP3    H1 8703   2.233   1.612   3.007  0.1413 -0.9977  1.2093
 2899TIP3    H2 8704   2.251   1.510   2.897 -0.0069 -1.1393  1.3158
 2900TIP3   OH2 8705   2.520   4.838   3.210 -0.0322 -0.3138  0.2171
 2900TIP3    H1 8706   2.525   4.909   3.274  0.8063  1.8213 -2.0503
 2900TIP3    H2 8707   2.612   4.820   3.186 -0.3363 -0.6818 -0.7383
 2901TIP3   OH2 8708   1.156   4.118   1.929 -0.2010  0.1697  0.2844
 2901TIP3    H1 8709   1.154   4.044   1.870 -0.2344  0.9196 -0.6802
 2901TIP3    H2 8710   1.087   4.100   1.993 -0.3274 -0.5318 -0.0492
 2902TIP3   OH2 8711   4.181   4.117   4.550  0.2071  0.0463 -0.2927
 2902TIP3    H1 8712   4.260   4.113   4.497  0.5903 -0.3544  0.2989
 2902TIP3    H2 8713   4.111   4.136   4.487  0.7614  0.3750 -0.8236
 2903TIP3   OH2 8714   2.013   1.937   2.633 -0.0219  0.0973 -0.0573
 2903TIP3    H1 8715   1.932   1.986   2.625  0.7983  1.4359 -0.5438
 2903TIP3    H2 8716   2.037   1.915   2.543  0.0883 -0.4155  0.0913
 2904TIP3   OH2 8717   5.452   0.133   2.244 -0.3239  0.5218  0.0616
 2904TIP3    H1 8718   5.529   0.187   2.225 -0.1909  0.1287 -0.5437
 2904TIP3    H2 8719   5.473   0.047   2.207 -1.0622  0.4165 -0.1250
 2905TIP3   OH2 8720   5.234   4.636   4.756 -0.1763  0.3034  0.2170
 2905TIP3    H1 8721   5.242   4.728   4.732 -1.0062  0.9802  2.3303
 2905TIP3    H2 8722   5.276   4.630   4.842 -0.5159 -1.2114  0.3101
 2906TIP3   OH2 8723   0.696   4.785   1.503  0.2902 -0.4915  0.2411
 2906TIP3    H1 8724   0.681   4.869   1.460 -1.2429 -0.5182  0.6795
 2906TIP3    H2 8725   0.787   4.789   1.533  0.2675  0.9644  0.1632
 2907TIP3   OH2 8726   3.110   0.396   0.341  0.0456  0.2571 -0.1043
 2907TIP3    H1 8727   3.115   0.399   0.437 -1.3538  1.4068 -0.0445
 2907TIP3    H2 8728   3.200   0.377   0.314  0.8461  1.6643  1.3842
 2908TIP3   OH2 8729   2.503   1.474   2.576 -0.5385 -0.1083 -0.3870
 2908TIP3    H1 8730   2.574   1.531   2.604 -1.8323  1.2154  0.3998
 2908TIP3    H2 8731   2.426   1.531   2.575 -1.8829 -1.8070  0.3335
 2909TIP3   OH2 8732   4.282   4.386   3.456 -0.2944 -0.2431  0.0281
 2909TIP3    H1 8733   4.290   4.332   3.535  0.0281  0.4699  0.4827
 2909TIP3    H2 8734   4.267   4.322   3.386 -0.4947 -0.8903  0.6429
 2910TIP3   OH2 8735   6.273   0.278   4.646 -0.2513 -0.2711  0.3642
 2910TIP3    H1 8736   6.216   0.321   4.582  0.3408  2.2944  1.4442
 2910TIP3    H2 8737   6.220   0.206   4.681 -1.0611 -0.8979 -1.9826
 2911TIP3   OH2 8738   3.094   5.726   4.546 -0.2553 -0.1027 -0.6464
 2911TIP3    H1 8739   3.180   5.752   4.580 -0.3688  0.1209 -0.5228
 2911TIP3    H2 8740   3.051   5.809   4.526 -0.8636 -0.1588  0.3328
 2912TIP3   OH2 8741   5.134   5.799   1.326 -0.3331 -0.0411  0.5677
 2912TIP3    H1 8742   5.150   5.747   1.405 -1.1079  1.2903  1.6491
 2912TIP3    H2 8743   5.121   5.734   1.257 -0.0598 -1.2525  1.6214
 2913TIP3   OH2 8744   1.251   1.244   1.486  0.1849 -0.2228  0.1654
 2913TIP3    H1 8745   1.320   1.185   1.516 -1.4588 -1.6686  1.2637
 2913TIP3    H2 8746   1.182   1.187   1.454 -1.0874  1.1386  0.3626
 2914TIP3   OH2 8747   1.733   4.695   2.145 -0.5116  0.3373 -0.9340
 2914TIP3    H1 8748   1.638   4.685   2.150 -0.3359 -1.2194  0.0789
 2914TIP3    H2 8749   1.756   4.749   2.220 -0.5662  0.3906 -0.9563
 2915TIP3   OH2 8750   3.952   4.981   3.297  0.0778  0.0294 -0.0418
 2915TIP3    H1 8751   3.866   4.960   3.261 -0.7164  0.1861  1.6890
 2915TIP3    H2 8752   3.933   5.027   3.379  1.7916  1.8961 -0.6061
 2916TIP3   OH2 8753   2.453   2.608   1.097 -0.0962 -0.5269  0.3580
 2916TIP3    H1 8754   2.478   2.516   1.102 -0.9147 -0.8467 -0.9490
 2916TIP3    H2 8755   2.449   2.627   1.003 -2.0607  0.2298  0.5459
 2917TIP3   OH2 8756   5.643   1.970   0.118  0.7618 -0.2050  0.7578
 2917TIP3    H1 8757   5.692   1.947   0.039  1.3085 -0.9541  1.3093
 2917TIP3    H2 8758   5.629   1.887   0.163  1.5215  0.3627  2.0637
 2918TIP3   OH2 8759   4.388   4.187   4.880 -0.3569  0.3615 -0.4214
 2918TIP3    H1 8760   4.363   4.117   4.941 -1.2531  1.1209  0.1080
 2918TIP3    H2 8761   4.407   4.141   4.798 -0.2294 -0.5702  0.1154
 2919TIP3   OH2 8762   3.397   5.024   4.892  0.3578  0.1752 -0.5966
 2919TIP3    H1 8763   3.344   4.958   4.847  0.1623  0.2685 -0.5062
 2919TIP3    H2 8764   3.445   4.976   4.959  0.6901  0.0269 -0.9369
 2920TIP3   OH2 8765   4.926   0.135   0.424  0.2691  0.4285 -0.8729
 2920TIP3    H1 8766   4.830   0.141   0.425  0.2091 -0.3236 -1.2791
 2920TIP3    H2 8767   4.954   0.191   0.497 -0.4577  0.9329 -0.9694
 2921TIP3   OH2 8768   2.611   3.172   0.313 -0.3513  0.4051  0.0330
 2921TIP3    H1 8769   2.673   3.199   0.381  0.4105  1.0031 -0.8781
 2921TIP3    H2 8770   2.666   3.147   0.239 -1.1939  1.2350 -0.9006
 2922TIP3   OH2 8771   5.515   4.925   0.665 -0.5794 -0.1466 -0.0404
 2922TIP3    H1 8772   5.431   4.943   0.706 -0.9045 -0.8993 -0.3569
 2922TIP3    H2 8773   5.501   4.942   0.572 -0.2210  0.2591 -0.0252
 2923TIP3   OH2 8774   1.515   2.809   2.637 -0.4363 -0.2763  0.0395
 2923TIP3    H1 8775   1.444   2.851   2.686 -0.0768 -0.9343  1.1528
 2923TIP3    H2 8776   1.554   2.748   2.699  0.7340 -0.3508 -0.7459
 2924TIP3   OH2 8777   5.940   4.352   4.313  0.1801 -0.3540 -0.4143
 2924TIP3    H1 8778   5.904   4.441   4.311 -0.7081 -0.6180  1.5566
 2924TIP3    H2 8779   6.035   4.366   4.321 -0.0728  0.5057  1.8827
 2925TIP3   OH2 8780   0.944   0.289   4.648  0.1424 -0.0918 -0.4753
 2925TIP3    H1 8781   1.017   0.311   4.589 -0.5450  1.5344 -0.7733
 2925TIP3    H2 8782   0.970   0.206   4.688  1.7269 -0.0234 -1.2758
 2926TIP3   OH2 8783   2.453   4.189   2.839 -0.2442 -0.4883 -0.5251
 2926TIP3    H1 8784   2.385   4.239   2.795 -0.5624 -0.8733 -0.4782
 2926TIP3    H2 8785   2.448   4.215   2.931  0.7757  0.7190 -0.7817
 2927TIP3   OH2 8786   2.122   4.093   4.449 -0.2365 -0.0614  0.7253
 2927TIP3    H1 8787   2.211   4.086   4.484  0.4722  0.5889 -0.8255
 2927TIP3    H2 8788   2.075   4.019   4.486  1.5804 -1.7339 -0.1399
 2928TIP3   OH2 8789   2.281   5.105   5.051 -0.4323  0.3422  0.1293
 2928TIP3    H1 8790   2.375   5.111   5.068 -0.3733 -0.5382  0.1336
 2928TIP3    H2 8791   2.274   5.094   4.957 -0.5871  1.3944  0.0051
 2929TIP3   OH2 8792   2.576   5.949   0.370  0.2975  0.3516  0.6510
 2929TIP3    H1 8793   2.517   5.948   0.445  0.2678 -1.1145  0.6383
 2929TIP3    H2 8794   2.618   5.863   0.372  0.4627  0.3746 -0.8835
 2930TIP3   OH2 8795   5.890   3.508   5.138 -0.0476  0.2462 -0.0097
 2930TIP3    H1 8796   5.972   3.525   5.091 -0.7221 -0.5388 -1.5412
 2930TIP3    H2 8797   5.863   3.594   5.171  1.4012  0.5049  0.5927
 2931TIP3   OH2 8798   6.296   5.320   0.259 -0.1309 -0.2087  0.1238
 2931TIP3    H1 8799   6.236   5.355   0.193 -0.3089 -0.1157  0.3372
 2931TIP3    H2 8800   6.249   5.328   0.342 -0.1525 -0.8864  0.1856
 2932TIP3   OH2 8801   1.739   4.188   4.240 -0.2713  0.5318 -0.1591
 2932TIP3    H1 8802   1.675   4.145   4.298  0.8956 -1.4152 -0.2108
 2932TIP3    H2 8803   1.783   4.252   4.296  0.8174 -1.2978  1.1985
 2933TIP3   OH2 8804   1.730   1.663   5.032 -0.2290  0.0550 -0.2160
 2933TIP3    H1 8805   1.723   1.613   5.113 -1.1644 -0.7105 -0.7397
 2933TIP3    H2 8806   1.823   1.661   5.011  0.0071  0.1667  0.7740
 2934TIP3   OH2 8807   3.594   4.553   4.532  0.0514  0.1925  0.0972
 2934TIP3    H1 8808   3.662   4.549   4.599  0.2775 -2.1303 -0.1641
 2934TIP3    H2 8809   3.637   4.590   4.456  0.6506 -0.0090  0.3323
 2935TIP3   OH2 8810   5.016   3.289   3.361 -0.4631  0.1081 -0.2462
 2935TIP3    H1 8811   5.021   3.199   3.393 -0.0178  0.5932  1.1384
 2935TIP3    H2 8812   5.032   3.282   3.267  0.2292 -1.1985 -0.0623
 2936TIP3   OH2 8813   5.682   5.144   1.676 -0.0088 -0.3610  0.1027
 2936TIP3    H1 8814   5.743   5.099   1.619  0.2219  0.0507  0.0189
 2936TIP3    H2 8815   5.699   5.237   1.660 -0.1369 -0.2451  0.6266
 2937TIP3   OH2 8816   5.436   3.225   3.956 -0.3874 -0.4138 -0.0042
 2937TIP3    H1 8817   5.516   3.208   3.906  0.3330  2.2030  0.1125
 2937TIP3    H2 8818   5.459   3.204   4.046 -0.0568 -0.3174 -0.0675
 2938TIP3   OH2 8819   1.220   2.869   3.668  0.2611  0.3734 -0.4190
 2938TIP3    H1 8820   1.237   2.811   3.594 -1.6173 -0.5563 -0.1695
 2938TIP3    H2 8821   1.165   2.818   3.727  0.8387  1.4647  1.1459
 2939TIP3   OH2 8822   2.391   3.785   1.082 -0.4221 -0.1850 -0.0815
 2939TIP3    H1 8823   2.352   3.870   1.064 -0.5240 -0.1250  0.4036
 2939TIP3    H2 8824   2.480   3.805   1.112 -0.7535 -0.1819  0.9471
 2940TIP3   OH2 8825   0.645   3.693   4.159  0.2737  0.2551  0.5706
 2940TIP3    H1 8826   0.595   3.775   4.165  1.1484  1.0375 -1.7213
 2940TIP3    H2 8827   0.578   3.625   4.160 -0.6885  1.1461 -0.1063
 2941TIP3   OH2 8828   4.998   4.141   3.063  0.4869 -0.2916  0.0142
 2941TIP3    H1 8829   4.950   4.115   2.985 -0.9523  0.7539  0.5066
 2941TIP3    H2 8830   5.086   4.105   3.051  0.1249 -0.6356 -1.7988
 2942TIP3   OH2 8831   5.303   3.441   1.536  0.2638  0.2078  0.6502
 2942TIP3    H1 8832   5.247   3.439   1.458 -0.0221 -3.0638  0.8028
 2942TIP3    H2 8833   5.386   3.476   1.505  0.3079 -1.4245 -1.3284
 2943TIP3   OH2 8834   4.213   3.824   0.297 -0.1295 -0.1306 -0.5775
 2943TIP3    H1 8835   4.205   3.919   0.286  1.0148  0.2491  1.4402
 2943TIP3    H2 8836   4.234   3.812   0.389 -1.9873 -2.4930 -0.3666
 2944TIP3   OH2 8837   1.345   3.872   1.142 -0.0135 -0.3397 -0.4111
 2944TIP3    H1 8838   1.297   3.877   1.059 -0.2461 -1.3827 -0.3549
 2944TIP3    H2 8839   1.338   3.959   1.179  0.0569  0.1345 -1.4691
 2945TIP3   OH2 8840   3.501   2.114   4.642  0.3694  0.1261  0.0592
 2945TIP3    H1 8841   3.595   2.096   4.651 -0.0787 -1.9861  1.1456
 2945TIP3    H2 8842   3.479   2.165   4.720  0.6193  0.6426 -0.2081
 2946TIP3   OH2 8843   2.666   0.256   1.221 -0.2372  0.3812 -0.1252
 2946TIP3    H1 8844   2.655   0.307   1.302  0.7656  1.7051 -0.7869
 2946TIP3    H2 8845   2.578   0.249   1.185 -0.4456  1.4790  0.1113
 2947TIP3   OH2 8846   0.705   2.030   0.698 -1.1066 -0.5072  0.3342
 2947TIP3    H1 8847   0.613   2.036   0.723 -0.8148  1.1077  1.1684
 2947TIP3    H2 8848   0.708   2.060   0.608 -1.2023  1.1322  0.8507
 2948TIP3   OH2 8849   1.172   5.572   3.977  0.4859 -0.8057  0.0512
 2948TIP3    H1 8850   1.116   5.496   3.964  0.5977 -1.1079  1.2170
 2948TIP3    H2 8851   1.131   5.620   4.050  0.5870  0.0931 -0.4655
 2949TIP3   OH2 8852   5.941   3.893   4.688 -0.3650 -0.7577  0.0710
 2949TIP3    H1 8853   5.855   3.852   4.701 -2.1515  2.9390  1.2202
 2949TIP3    H2 8854   5.940   3.923   4.597  0.0296 -1.3190 -0.1234
 2950TIP3   OH2 8855   2.229   1.370   2.577  0.6182 -0.0001  0.4351
 2950TIP3    H1 8856   2.233   1.448   2.522  1.6725  0.8865  1.7128
 2950TIP3    H2 8857   2.320   1.342   2.586  0.5223  0.0715  1.9564
 2951TIP3   OH2 8858   0.242   5.739   1.615  0.2742 -0.1599 -0.0904
 2951TIP3    H1 8859   0.263   5.661   1.564 -0.3770  0.4239 -1.3047
 2951TIP3    H2 8860   0.196   5.706   1.691  2.4878 -1.1688  0.9015
 2952TIP3   OH2 8861   1.346   4.911   0.804  0.1523  0.0321  0.2196
 2952TIP3    H1 8862   1.262   4.878   0.774 -0.4566  1.5160  0.2176
 2952TIP3    H2 8863   1.402   4.833   0.810 -0.9896 -0.8701 -0.4946
 2953TIP3   OH2 8864   4.075   5.394   1.405  0.0285 -0.3693 -0.1111
 2953TIP3    H1 8865   4.066   5.439   1.489 -0.0638 -2.5612  1.1231
 2953TIP3    H2 8866   3.989   5.356   1.389  0.0811 -0.0662 -1.1654
 2954TIP3   OH2 8867   1.136   4.425   0.151 -0.6639  0.2077  0.1663
 2954TIP3    H1 8868   1.072   4.433   0.081 -1.3699  3.1950  1.0076
 2954TIP3    H2 8869   1.220   4.443   0.109 -0.5537 -1.6771 -0.5339
 2955TIP3   OH2 8870   5.863   2.200   0.918 -0.1011  0.1354 -0.5219
 2955TIP3    H1 8871   5.832   2.116   0.951 -0.9635 -0.1542 -1.9403
 2955TIP3    H2 8872   5.930   2.228   0.980 -0.9540 -0.8025  0.8819
 2956TIP3   OH2 8873   1.243   3.864   2.080  0.6576  0.3754  0.4932
 2956TIP3    H1 8874   1.157   3.826   2.097  0.0887  0.5303 -1.6493
 2956TIP3    H2 8875   1.243   3.881   1.985  3.1192  0.2066  0.3954
 2957TIP3   OH2 8876   3.295   5.549   4.932  0.2816  0.2269 -0.0660
 2957TIP3    H1 8877   3.384   5.576   4.952  0.5775 -0.8206  0.0775
 2957TIP3    H2 8878   3.305   5.465   4.887 -0.6540 -0.0712  0.2649
 2958TIP3   OH2 8879   0.514   0.037   1.905  0.3039  0.0642 -0.0492
 2958TIP3    H1 8880   0.551   0.010   1.821  1.9915  0.1976  0.6131
 2958TIP3    H2 8881   0.541  -0.032   1.966 -0.7184  0.0762  0.4417
 2959TIP3   OH2 8882   2.036   4.040   2.623  0.5267 -0.1910 -0.0418
 2959TIP3    H1 8883   2.107   3.979   2.607  1.4294  0.3870  1.5151
 2959TIP3    H2 8884   1.961   4.003   2.577  1.4865 -1.5429 -0.5647
 2960TIP3   OH2 8885   0.888   4.195   3.358 -0.5328  0.0422  0.1935
 2960TIP3    H1 8886   0.900   4.238   3.442  0.9069 -1.3596  0.7515
 2960TIP3    H2 8887   0.913   4.261   3.293  1.1055  0.2574  0.9907
 2961TIP3   OH2 8888   3.443   3.901   4.304  0.2788 -0.1075 -0.2401
 2961TIP3    H1 8889   3.385   3.972   4.333  0.0754 -0.2865 -0.2084
 2961TIP3    H2 8890   3.444   3.839   4.377  0.1418 -0.3290 -0.4247
 2962TIP3   OH2 8891   2.926   1.089   4.990  0.1297  0.3003 -0.0932
 2962TIP3    H1 8892   2.868   1.015   5.005  0.7920  0.0356  1.3284
 2962TIP3    H2 8893   2.901   1.153   5.057 -0.1826  1.2264 -1.0634
 2963TIP3   OH2 8894   2.793   0.532   3.444 -0.1628 -0.5461 -0.1462
 2963TIP3    H1 8895   2.763   0.499   3.529 -0.3935  1.6498  0.7088
 2963TIP3    H2 8896   2.796   0.455   3.388 -0.9213 -1.9245  1.5888
 2964TIP3   OH2 8897   2.924   3.505   2.867 -0.1798  0.5737 -0.0855
 2964TIP3    H1 8898   2.991   3.551   2.918  0.8511  0.3732 -1.1958
 2964TIP3    H2 8899   2.967   3.487   2.783 -0.6762 -1.9675  0.1208
 2965TIP3   OH2 8900   2.961   1.353   2.026 -0.0580 -0.3288 -0.8434
 2965TIP3    H1 8901   3.016   1.414   2.076  0.1994 -0.9354 -0.3718
 2965TIP3    H2 8902   2.904   1.410   1.973  1.6213  0.3455 -2.0400
 2966TIP3   OH2 8903   5.447   3.968   4.290  0.1554  0.1940 -0.2960
 2966TIP3    H1 8904   5.528   3.919   4.277 -0.7304 -1.4385  0.1393
 2966TIP3    H2 8905   5.436   4.017   4.208  0.2396 -1.5898 -1.4234
 2967TIP3   OH2 8906   6.111   1.228   4.438  0.0425  0.3007 -0.3579
 2967TIP3    H1 8907   6.029   1.270   4.465 -0.8925 -0.4097 -1.9780
 2967TIP3    H2 8908   6.167   1.300   4.412 -0.2676  0.7601  0.2170
 2968TIP3   OH2 8909   0.089   5.708   1.282 -0.0178 -0.0061  0.5056
 2968TIP3    H1 8910   0.107   5.792   1.323  1.6602 -0.0553 -0.0432
 2968TIP3    H2 8911   0.170   5.659   1.292 -1.2620 -1.9617  1.6853
 2969TIP3   OH2 8912   6.163   0.773   2.616  0.0908  0.3089  0.0130
 2969TIP3    H1 8913   6.098   0.803   2.680 -0.0458 -0.9536  0.4745
 2969TIP3    H2 8914   6.131   0.809   2.533  0.8163  2.8505  0.7217
 2970TIP3   OH2 8915   6.179   2.878   2.205  0.3319 -0.0177 -0.1124
 2970TIP3    H1 8916   6.180   2.789   2.242 -1.7735  0.2382  0.7297
 2970TIP3    H2 8917   6.140   2.931   2.274  1.8759  1.6704 -0.4710
 2971TIP3   OH2 8918   3.007   5.609   2.957  0.1823  0.0829 -0.3483
 2971TIP3    H1 8919   2.954   5.634   2.882  0.2731  0.9748 -0.1277
 2971TIP3    H2 8920   3.033   5.519   2.939  2.2447  1.0239 -2.6245
 2972TIP3   OH2 8921   5.224   2.619   1.613  0.8569 -0.3692 -0.2612
 2972TIP3    H1 8922   5.203   2.617   1.706 -1.6445  0.3037 -0.7354
 2972TIP3    H2 8923   5.221   2.527   1.586 -4.1961 -0.3969 -0.6626
 2973TIP3   OH2 8924   0.785   5.528   1.043 -0.7753  0.0774 -0.2373
 2973TIP3    H1 8925   0.724   5.454   1.048 -0.1757 -0.4474 -0.5206
 2973TIP3    H2 8926   0.821   5.523   0.955 -1.5658  1.3993 -0.6739
 2974TIP3   OH2 8927   2.673   2.846   4.386 -0.1093  0.4680 -0.3750
 2974TIP3    H1 8928   2.705   2.916   4.443  1.3022 -0.1296 -0.3871
 2974TIP3    H2 8929   2.718   2.860   4.303  0.1219 -0.3857 -0.4034
 2975TIP3   OH2 8930   5.185   4.287   0.798  0.7227  0.2741 -0.0842
 2975TIP3    H1 8931   5.191   4.382   0.790  1.3736  0.5059  2.3455
 2975TIP3    H2 8932   5.248   4.265   0.867 -1.4186 -1.5371  1.4562
 2976TIP3   OH2 8933   0.717   5.795   4.261  0.2321 -0.2777 -0.4332
 2976TIP3    H1 8934   0.685   5.754   4.341  1.7717  1.5924  1.2340
 2976TIP3    H2 8935   0.679   5.743   4.190  0.1289 -2.9992  1.4977
 2977TIP3   OH2 8936   3.853   4.019   3.262  0.5322  0.0431 -0.3181
 2977TIP3    H1 8937   3.864   4.088   3.328 -0.8158 -0.8098  0.8491
 2977TIP3    H2 8938   3.889   3.941   3.304 -2.7124 -1.1209  0.5835
 2978TIP3   OH2 8939   2.167   4.070   0.732 -0.2394 -0.1609  0.0977
 2978TIP3    H1 8940   2.162   4.102   0.822  1.6366  2.1014 -0.4975
 2978TIP3    H2 8941   2.178   4.149   0.679 -1.4915 -1.4102 -2.1787
 2979TIP3   OH2 8942   3.713   4.133   2.744  0.0998 -0.7497 -0.0578
 2979TIP3    H1 8943   3.749   4.114   2.831 -0.1525 -2.3090 -0.2548
 2979TIP3    H2 8944   3.668   4.216   2.755  2.7964  0.7676  0.4695
 2980TIP3   OH2 8945   0.776   5.796   2.872  0.0817 -0.1335  0.1636
 2980TIP3    H1 8946   0.746   5.878   2.909  0.2558 -0.4357  1.0027
 2980TIP3    H2 8947   0.708   5.732   2.896  1.0840 -0.7126  1.6309
 2981TIP3   OH2 8948   5.790   3.058   0.051  0.2145 -0.3636  0.2468
 2981TIP3    H1 8949   5.726   2.995   0.085 -0.2395 -1.3484 -2.2018
 2981TIP3    H2 8950   5.737   3.133   0.023  0.3073 -0.4879 -0.2712
 2982TIP3   OH2 8951   3.823   4.326   0.895  0.0749  0.0122  0.0452
 2982TIP3    H1 8952   3.769   4.260   0.852 -0.4890  0.0286  0.7272
 2982TIP3    H2 8953   3.896   4.276   0.934  0.9789  0.0678 -1.4861
 2983TIP3   OH2 8954   1.330   2.228   5.133  0.7394 -0.0160 -0.5402
 2983TIP3    H1 8955   1.380   2.255   5.211  0.4765  0.0741 -0.4004
 2983TIP3    H2 8956   1.328   2.306   5.078 -0.2512  0.3483 -0.0135
 2984TIP3   OH2 8957   5.095   5.554   4.825  0.3081 -0.0624 -0.7094
 2984TIP3    H1 8958   5.150   5.610   4.771  0.3520 -0.8150 -1.4568
 2984TIP3    H2 8959   5.149   5.477   4.843 -0.9062 -1.4030 -2.5062
 2985TIP3   OH2 8960   0.738   1.158   4.479  0.6450 -0.5575  0.7056
 2985TIP3    H1 8961   0.815   1.200   4.518  0.1510  0.5258  0.5522
 2985TIP3    H2 8962   0.686   1.128   4.553  1.7806 -2.4322  0.8129
 2986TIP3   OH2 8963   1.286   0.386   0.857 -0.6558 -0.5110  0.1264
 2986TIP3    H1 8964   1.274   0.475   0.890 -0.2356 -0.4366  0.0825
 2986TIP3    H2 8965   1.235   0.383   0.776 -0.8773 -0.3884  0.2619
 2987TIP3   OH2 8966   0.683   0.421   3.675  0.3506  0.8239  0.0059
 2987TIP3    H1 8967   0.772   0.436   3.706  0.1498  0.2542  0.9048
 2987TIP3    H2 8968   0.693   0.379   3.590  1.0442 -2.4978  1.5853
 2988TIP3   OH2 8969   5.791   2.297   1.695  0.0836  0.2726 -0.3748
 2988TIP3    H1 8970   5.768   2.207   1.716 -1.6887  0.8040  0.1482
 2988TIP3    H2 8971   5.871   2.314   1.743 -0.5400 -0.4789  0.9686
 2989TIP3   OH2 8972   0.566   4.831   4.176  0.6807  0.1601  0.0914
 2989TIP3    H1 8973   0.626   4.760   4.158  0.3325 -0.0410 -0.3041
 2989TIP3    H2 8974   0.532   4.813   4.264 -0.7948 -1.1987 -0.6960
 2990TIP3   OH2 8975   3.347   4.967   3.784  0.3584 -0.7762 -0.0429
 2990TIP3    H1 8976   3.284   4.982   3.714  2.4876 -1.8347 -2.3290
 2990TIP3    H2 8977   3.324   4.880   3.819 -0.3113 -0.5260  0.1512
 2991TIP3   OH2 8978   0.091   3.669   1.295 -0.3295  0.2813 -0.0179
 2991TIP3    H1 8979   0.074   3.616   1.373 -0.9225 -0.0490 -0.3592
 2991TIP3    H2 8980   0.080   3.607   1.222  0.6942  0.4672 -0.3431
 2992TIP3   OH2 8981   1.553   2.701   0.401  0.1192  0.2663  0.2338
 2992TIP3    H1 8982   1.638   2.672   0.436  0.2024  0.2229 -0.0049
 2992TIP3    H2 8983   1.572   2.731   0.313 -0.2453 -0.4476 -0.0930
 2993TIP3   OH2 8984   3.411   4.125   4.457 -0.3046 -0.4467 -0.0171
 2993TIP3    H1 8985   3.500   4.110   4.486 -0.5764 -1.4120  0.3325
 2993TIP3    H2 8986   3.397   4.219   4.469  0.7979 -0.2106 -0.4909
 2994TIP3   OH2 8987   1.819   4.177   1.127 -0.3056 -0.0277 -0.3347
 2994TIP3    H1 8988   1.869   4.256   1.148  1.0641 -0.9807  0.1375
 2994TIP3    H2 8989   1.732   4.194   1.163  0.0853  1.0971  0.1431
 2995TIP3   OH2 8990   0.681   3.148   1.230  0.2566  0.0173 -0.2444
 2995TIP3    H1 8991   0.726   3.148   1.146 -0.7938  1.0462 -0.8221
 2995TIP3    H2 8992   0.589   3.139   1.208  0.0887 -1.5176  0.8991
 2996TIP3   OH2 8993   4.244   3.220   2.203 -0.4117 -0.3588  0.0860
 2996TIP3    H1 8994   4.154   3.233   2.231 -0.3114  0.7668 -0.0932
 2996TIP3    H2 8995   4.242   3.235   2.109 -0.2992 -1.8028 -0.1742
 2997TIP3   OH2 8996   4.730   5.430   2.506 -0.1663 -0.0503  0.2916
 2997TIP3    H1 8997   4.674   5.505   2.486 -0.1105  0.7475  2.7779
 2997TIP3    H2 8998   4.697   5.397   2.589  0.3812 -2.2850 -0.3094
 2998TIP3   OH2 8999   4.522   3.435   3.214  0.2584 -0.0339  0.0123
 2998TIP3    H1 9000   4.501   3.409   3.124  0.3080 -1.7688  0.4694
 2998TIP3    H2 9001   4.458   3.503   3.235  0.5339  0.7351 -1.4669
 2999TIP3   OH2 9002   2.128   1.047   3.777  0.4639  0.1067  0.0222
 2999TIP3    H1 9003   2.036   1.071   3.762  0.2122  0.5250  1.9553
 2999TIP3    H2 9004   2.126   0.997   3.859  1.4216 -3.7405 -2.0672
 3000TIP3   OH2 9005   3.052   2.050   2.525 -0.1284  0.1490 -0.1923
 3000TIP3    H1 9006   3.109   2.035   2.601 -0.5990  0.4393  0.2323
 3000TIP3    H2 9007   3.109   2.088   2.459  0.5824 -1.3306 -0.4635
 3001TIP3   OH2 9008   4.717   3.916   2.147 -0.3980  0.0139  1.0699
 3001TIP3    H1 9009   4.725   3.952   2.059  0.1182  1.1817  1.5570
 3001TIP3    H2 9010   4.751   3.827   2.140  0.3632  0.3512  0.2441
 3002TIP3   OH2 9011   2.630   2.959   1.949 -0.5943 -0.7687 -0.1612
 3002TIP3    H1 9012   2.645   2.879   1.897  1.8891 -0.8046  0.4737
 3002TIP3    H2 9013   2.661   3.029   1.892 -0.2957 -0.5484  0.2683
 3003TIP3   OH2 9014   3.330   5.500   2.315 -0.0745 -0.5919  0.1294
 3003TIP3    H1 9015   3.264   5.551   2.269 -0.3647  0.0587  1.2303
 3003TIP3    H2 9016   3.413   5.538   2.289 -0.3083  0.8164  1.3395
 3004TIP3   OH2 9017   6.107   4.378   1.037 -0.7366 -0.8559 -0.0375
 3004TIP3    H1 9018   6.063   4.323   0.972  1.1689 -1.8003 -0.5963
 3004TIP3    H2 9019   6.198   4.349   1.035 -0.3020  0.2308  1.8990
 3005TIP3   OH2 9020   5.023   3.058   0.098  0.6790  0.3152 -0.1366
 3005TIP3    H1 9021   4.947   3.010   0.132  0.6885  0.6950  0.4397
 3005TIP3    H2 9022   5.088   2.989   0.079 -0.1445 -0.0941 -1.5648
 3006TIP3   OH2 9023   5.896   3.929   2.380  0.4673  0.4909  0.0264
 3006TIP3    H1 9024   5.826   3.869   2.403 -0.6041  1.7776  0.2532
 3006TIP3    H2 9025   5.957   3.924   2.454 -0.2055  0.5602  0.5993
 3007TIP3   OH2 9026   0.699   4.735   2.291 -0.1205  0.4530 -0.6113
 3007TIP3    H1 9027   0.659   4.723   2.377 -0.9797  2.1668 -0.7294
 3007TIP3    H2 9028   0.643   4.685   2.232  0.0048 -0.0726 -0.2911
 3008TIP3   OH2 9029   4.470   5.744   0.272  0.0919 -0.1354 -0.5061
 3008TIP3    H1 9030   4.555   5.782   0.294 -1.0445  1.8080  0.8143
 3008TIP3    H2 9031   4.411   5.819   0.266 -2.0958 -1.5691  1.4037
 3009TIP3   OH2 9032   4.880   2.908   5.162  0.3329  0.6617 -0.1039
 3009TIP3    H1 9033   4.919   2.991   5.190  4.1610  0.1421 -3.1212
 3009TIP3    H2 9034   4.825   2.931   5.086  1.2286  0.5113 -0.8114
 3010TIP3   OH2 9035   4.711   0.479   3.620  0.2044  0.5578  0.2851
 3010TIP3    H1 9036   4.732   0.434   3.702  0.6031  2.1921  1.1268
 3010TIP3    H2 9037   4.769   0.438   3.556  0.9083  0.2127  1.1128
 3011TIP3   OH2 9038   5.675   0.429   1.604  0.1456 -0.0173 -0.3720
 3011TIP3    H1 9039   5.636   0.482   1.673  1.2899 -1.9850  1.9665
 3011TIP3    H2 9040   5.602   0.384   1.563 -0.4795  0.4088  0.2616
 3012TIP3   OH2 9041   0.277   5.527   1.318 -0.4882  0.5290 -0.0073
 3012TIP3    H1 9042   0.279   5.494   1.228  1.0186  1.5641 -0.3790
 3012TIP3    H2 9043   0.369   5.534   1.343 -0.8310  2.1210  0.9057
 3013TIP3   OH2 9044   5.473   1.000   0.173 -0.0535 -0.3484 -0.0732
 3013TIP3    H1 9045   5.396   0.945   0.163 -1.0294  1.0377 -0.5961
 3013TIP3    H2 9046   5.488   1.006   0.267 -1.5103  0.5546  0.1211
 3014TIP3   OH2 9047   0.343   4.693   0.326 -0.4120  0.0765 -0.4089
 3014TIP3    H1 9048   0.295   4.702   0.244 -1.7047 -0.9088  0.2040
 3014TIP3    H2 9049   0.275   4.680   0.392  0.6921 -1.0956  0.5395
 3015TIP3   OH2 9050   2.532   1.641   3.993 -0.4061 -0.2387 -0.1899
 3015TIP3    H1 9051   2.541   1.574   4.060  0.7168  0.2791  0.2001
 3015TIP3    H2 9052   2.576   1.718   4.030  2.8141 -0.7233 -2.5842
 3016TIP3   OH2 9053   3.722   2.613   3.082 -0.4898 -0.1696 -0.0646
 3016TIP3    H1 9054   3.812   2.617   3.051 -0.1576 -0.3980  0.8396
 3016TIP3    H2 9055   3.670   2.650   3.011  0.4793  1.4506  0.0238
 3017TIP3   OH2 9056   5.250   2.859   3.941  0.3449 -0.0872 -0.4955
 3017TIP3    H1 9057   5.193   2.800   3.892  1.2921 -1.0518 -0.4790
 3017TIP3    H2 9058   5.205   2.871   4.025  1.1443 -2.5995  0.3829
 3018TIP3   OH2 9059   5.263   4.953   1.254 -0.3067 -0.3173  0.6611
 3018TIP3    H1 9060   5.213   4.901   1.317 -0.2311 -1.6366 -0.3387
 3018TIP3    H2 9061   5.271   4.897   1.177  0.6900  0.7832 -0.0716
 3019TIP3   OH2 9062   2.242   0.416   2.400  0.2621 -0.0949  0.1094
 3019TIP3    H1 9063   2.253   0.338   2.345  0.3255 -0.1071  0.1384
 3019TIP3    H2 9064   2.213   0.484   2.339  1.4973  0.2089 -0.1754
 3020TIP3   OH2 9065   3.675   0.082   4.497 -0.2603 -0.4855  0.6972
 3020TIP3    H1 9066   3.606   0.016   4.497  0.2138 -1.1282 -2.2584
 3020TIP3    H2 9067   3.742   0.048   4.556 -1.2184 -1.2760  1.3502
 3021TIP3   OH2 9068   2.913   0.470   2.678 -0.6063  0.4811  0.2699
 3021TIP3    H1 9069   2.965   0.512   2.746 -0.4524  0.5516  0.1076
 3021TIP3    H2 9070   2.885   0.542   2.621  0.9071  0.2112 -0.8759
 3022TIP3   OH2 9071   0.449   1.743   2.531  0.3095 -0.2638 -0.1724
 3022TIP3    H1 9072   0.438   1.785   2.445 -2.2349 -4.0160 -1.9773
 3022TIP3    H2 9073   0.512   1.673   2.515  0.1970 -0.6900  1.1642
 3023TIP3   OH2 9074   5.820   2.526   1.902 -0.1375 -0.4035  0.4273
 3023TIP3    H1 9075   5.866   2.455   1.947 -1.0676 -0.8084  0.7584
 3023TIP3    H2 9076   5.728   2.499   1.901 -0.1705 -0.4249 -1.7154
 3024TIP3   OH2 9077   1.297   1.528   4.999 -0.5491 -0.9864  0.2655
 3024TIP3    H1 9078   1.261   1.460   5.056 -0.5810 -0.7187  0.5699
 3024TIP3    H2 9079   1.227   1.593   4.993 -0.4811 -0.9312  0.0587
 3025TIP3   OH2 9080   0.270   3.589   4.712  0.1322 -0.1199  0.5547
 3025TIP3    H1 9081   0.228   3.504   4.721 -1.7817  0.4757 -1.6531
 3025TIP3    H2 9082   0.285   3.619   4.802 -3.4048 -0.8184  1.5290
 3026TIP3   OH2 9083   2.297   3.638   2.031  0.1115 -0.0932 -0.3557
 3026TIP3    H1 9084   2.257   3.690   1.961 -0.1077  0.3240  0.0654
 3026TIP3    H2 9085   2.279   3.547   2.007 -2.9528  0.0739  0.8198
 3027TIP3   OH2 9086   1.385   5.478   0.967  0.5191  0.5057 -0.2770
 3027TIP3    H1 9087   1.441   5.424   0.912  1.3789 -1.1364  2.0396
 3027TIP3    H2 9088   1.302   5.430   0.972  0.8406  0.0186  0.7276
 3028TIP3   OH2 9089   5.524   3.911   3.941  0.1690 -0.0018  0.4316
 3028TIP3    H1 9090   5.452   3.919   3.878 -0.6283 -0.9468  1.1873
 3028TIP3    H2 9091   5.491   3.851   4.007  0.6868  1.5502  2.1872
 3029TIP3   OH2 9092   0.281   0.056   2.816 -0.5206 -0.1569  0.4868
 3029TIP3    H1 9093   0.287   0.150   2.797 -0.0061 -0.3880 -0.5204
 3029TIP3    H2 9094   0.277   0.052   2.912 -1.1833  0.9191  0.5268
 3030TIP3   OH2 9095   3.616   3.683   3.819  0.2740  0.1718  0.6217
 3030TIP3    H1 9096   3.541   3.674   3.878 -0.9116 -0.8667 -0.9551
 3030TIP3    H2 9097   3.681   3.623   3.855 -0.7375 -1.0763  0.4557
 3031TIP3   OH2 9098   4.547   3.422   0.861  0.1538  0.6895 -0.1316
 3031TIP3    H1 9099   4.624   3.391   0.908 -0.6264  1.4006  1.6925
 3031TIP3    H2 9100   4.516   3.345   0.813  1.4635  0.1642 -0.1627
 3032TIP3   OH2 9101   3.278   1.231   1.578 -0.2240 -0.6688  0.1604
 3032TIP3    H1 9102   3.358   1.182   1.600 -0.5312 -1.2611 -0.0103
 3032TIP3    H2 9103   3.237   1.249   1.663  1.6781  2.4715  0.5457
 3033TIP3   OH2 9104   3.675   1.762   0.821  0.5000  0.1287 -0.1221
 3033TIP3    H1 9105   3.703   1.772   0.730 -2.8598 -0.4145 -1.3381
 3033TIP3    H2 9106   3.682   1.668   0.838 -0.0057  0.0737 -0.2202
 3034TIP3   OH2 9107   3.197   1.487   2.353 -0.0365  0.3820  0.0518
 3034TIP3    H1 9108   3.280   1.525   2.384 -0.8187  0.3529  2.3544
 3034TIP3    H2 9109   3.200   1.396   2.383 -1.3187  0.6522  1.0387
 3035TIP3   OH2 9110   2.629   0.937   1.555  0.2837 -0.0334 -0.7748
 3035TIP3    H1 9111   2.623   0.962   1.463 -1.5562 -0.7642 -0.9117
 3035TIP3    H2 9112   2.672   0.852   1.554  1.8190  0.7258 -0.7823
 3036TIP3   OH2 9113   4.008   3.539   3.291 -0.1129 -0.6571 -0.4645
 3036TIP3    H1 9114   3.935   3.583   3.247  0.0459  1.8995  1.5841
 3036TIP3    H2 9115   3.966   3.489   3.361  0.0070  0.1239  0.1777
 3037TIP3   OH2 9116   2.823   1.699   1.395  0.5791 -0.1822  0.2517
 3037TIP3    H1 9117   2.915   1.711   1.372 -0.0340 -0.7287 -2.9359
 3037TIP3    H2 9118   2.785   1.787   1.390  0.0223 -0.4896 -3.5232
 3038TIP3   OH2 9119   1.347   4.455   3.702  0.3672  0.2887 -0.3722
 3038TIP3    H1 9120   1.412   4.513   3.742  1.0401 -0.8813  0.2898
 3038TIP3    H2 9121   1.290   4.514   3.652 -0.1961  1.7676  1.8484
 3039TIP3   OH2 9122   2.270   2.010   0.233  0.0959  0.7862 -0.0765
 3039TIP3    H1 9123   2.314   1.926   0.247  0.2260  0.8435 -0.1290
 3039TIP3    H2 9124   2.193   1.988   0.181 -0.1475  0.6348  0.3509
 3040TIP3   OH2 9125   3.527   0.139   0.822 -0.3652 -0.4703 -0.3787
 3040TIP3    H1 9126   3.493   0.058   0.784 -3.4972  0.9009 -0.8122
 3040TIP3    H2 9127   3.464   0.162   0.890  0.4074  1.6275 -0.2975
 3041TIP3   OH2 9128   3.674   3.153   3.690 -0.0253  0.2135 -0.2364
 3041TIP3    H1 9129   3.732   3.163   3.765 -0.9455  0.4786  0.4552
 3041TIP3    H2 9130   3.630   3.237   3.682 -0.7862 -0.1910 -0.3473
 3042TIP3   OH2 9131   5.558   1.922   2.432 -0.3850 -0.1715 -0.0539
 3042TIP3    H1 9132   5.587   1.903   2.343  0.6588 -1.7420  0.5795
 3042TIP3    H2 9133   5.543   1.836   2.471  2.2087  0.2606  2.2433
 3043TIP3   OH2 9134   6.007   5.206   0.430 -0.3142  0.3802  0.1505
 3043TIP3    H1 9135   6.038   5.127   0.475 -0.0466  0.3815 -0.0302
 3043TIP3    H2 9136   5.918   5.220   0.464 -0.3592  0.0063  0.1863
 3044TIP3   OH2 9137   0.102   0.311   1.098  0.2613 -0.1242  0.4212
 3044TIP3    H1 9138   0.113   0.275   1.011  1.5524  1.0007  0.0922
 3044TIP3    H2 9139   0.076   0.402   1.083 -0.7327 -0.2495  1.2305
 3045TIP3   OH2 9140   2.806   4.040   4.945  0.1721 -0.2429 -0.0123
 3045TIP3    H1 9141   2.841   4.127   4.924 -0.5401  0.6316  2.0900
 3045TIP3    H2 9142   2.774   4.006   4.862  2.2210  0.6533 -1.2532
 3046TIP3   OH2 9143   0.206   0.971   4.036  0.6498  0.1789  0.4474
 3046TIP3    H1 9144   0.248   1.055   4.056  0.6783  0.0613  0.8995
 3046TIP3    H2 9145   0.277   0.915   4.005  1.1476 -0.4751  2.5657
 3047TIP3   OH2 9146   1.930   5.219   3.762 -0.1111 -0.4317 -0.2875
 3047TIP3    H1 9147   1.919   5.161   3.837 -0.2701 -1.0836 -0.7985
 3047TIP3    H2 9148   1.966   5.300   3.798 -0.2532 -0.7118  0.4931
 3048TIP3   OH2 9149   6.076   5.352   1.668  0.6587 -0.6279 -0.2297
 3048TIP3    H1 9150   6.062   5.258   1.677 -1.1281 -0.2975  0.9501
 3048TIP3    H2 9151   6.009   5.392   1.724  2.0721  1.3376  0.1765
 3049TIP3   OH2 9152   1.579   1.969   2.508  0.5161  0.1108  0.3879
 3049TIP3    H1 9153   1.561   1.900   2.445  1.3306 -0.8248  1.1607
 3049TIP3    H2 9154   1.492   1.993   2.541  0.0950  0.4932 -0.9219
 3050TIP3   OH2 9155   5.437   0.968   4.688  0.4343 -0.1358 -0.0833
 3050TIP3    H1 9156   5.509   0.943   4.746  0.1618 -1.5023 -0.3112
 3050TIP3    H2 9157   5.359   0.927   4.727  0.0447 -0.0188 -0.7222
 3051TIP3   OH2 9158   4.773   1.723   1.692 -0.3288 -0.0968 -0.1159
 3051TIP3    H1 9159   4.785   1.700   1.784 -0.5860 -0.2914 -0.1322
 3051TIP3    H2 9160   4.774   1.639   1.646  1.8950  0.0945 -0.5356
 3052TIP3   OH2 9161   4.161   2.823   0.225 -0.3451 -0.4567 -0.0726
 3052TIP3    H1 9162   4.130   2.770   0.152  0.2821  0.9948 -1.4540
 3052TIP3    H2 9163   4.246   2.856   0.196  0.0758 -0.1200  1.4582
 3053TIP3   OH2 9164   6.002   1.687   3.127  0.0992 -0.1598  0.0549
 3053TIP3    H1 9165   6.002   1.619   3.195  1.4947 -1.4066 -1.1313
 3053TIP3    H2 9166   6.063   1.655   3.061  1.3489  2.5539 -0.2526
 3054TIP3   OH2 9167   4.001   1.896   1.323  0.0384  0.0659 -0.4204
 3054TIP3    H1 9168   3.972   1.857   1.406  1.1877 -1.8098 -0.8436
 3054TIP3    H2 9169   4.089   1.861   1.309 -0.3446 -0.1426 -2.7257
 3055TIP3   OH2 9170   5.734   3.238   2.128 -0.4031  0.0220 -0.5568
 3055TIP3    H1 9171   5.805   3.221   2.067  0.5351 -1.0236  0.7757
 3055TIP3    H2 9172   5.655   3.235   2.074  0.3418 -1.4427 -1.6303
 3056TIP3   OH2 9173   5.234   3.707   2.074  0.1132 -0.6560 -0.1369
 3056TIP3    H1 9174   5.301   3.660   2.024 -1.0920 -0.5006 -2.0348
 3056TIP3    H2 9175   5.195   3.767   2.010  1.5131  2.9728  2.1257
 3057TIP3   OH2 9176   2.782   3.627   5.075 -0.3571  0.4989  0.0878
 3057TIP3    H1 9177   2.790   3.683   4.999  2.7167  0.2497  0.1218
 3057TIP3    H2 9178   2.866   3.634   5.120  0.0509 -3.6312  0.4093
 3058TIP3   OH2 9179   3.102   3.114   3.406 -0.0134 -0.0742 -0.0642
 3058TIP3    H1 9180   3.179   3.135   3.459  0.6861 -2.5962  0.0808
 3058TIP3    H2 9181   3.139   3.073   3.327 -1.1412 -2.4409  0.5266
 3059TIP3   OH2 9182   5.846   2.931   1.460 -0.1593 -0.1422  0.4148
 3059TIP3    H1 9183   5.884   2.908   1.545 -0.3164 -0.4044  0.4139
 3059TIP3    H2 9184   5.802   2.851   1.430  0.8610 -0.4087 -0.4485
 3060TIP3   OH2 9185   3.603   2.643   0.909 -0.0396 -0.5062  0.0851
 3060TIP3    H1 9186   3.604   2.720   0.966 -3.3610  1.6034 -2.3007
 3060TIP3    H2 9187   3.656   2.669   0.834  0.6512 -1.4740  0.2287
 3061TIP3   OH2 9188   2.977   4.492   2.739  0.4966  0.8119 -0.1784
 3061TIP3    H1 9189   2.970   4.531   2.826 -3.4036 -1.3787  0.7365
 3061TIP3    H2 9190   2.983   4.398   2.756 -0.1164  0.3546 -2.2681
 3062TIP3   OH2 9191   2.586   5.274   2.867  0.2339 -0.3927  0.0618
 3062TIP3    H1 9192   2.562   5.362   2.839  1.5574 -0.2526 -0.7051
 3062TIP3    H2 9193   2.504   5.224   2.862 -0.6700  0.9225  1.1360
 3063TIP3   OH2 9194   0.508   1.835   4.005 -0.3589 -0.2242 -0.3047
 3063TIP3    H1 9195   0.561   1.901   3.960 -1.7057 -0.2304 -1.9968
 3063TIP3    H2 9196   0.494   1.871   4.092  3.3169 -0.7427  0.6751
 3064TIP3   OH2 9197   2.463   2.946   1.653  0.3798  0.0830 -0.1550
 3064TIP3    H1 9198   2.533   3.011   1.659 -0.7469  1.2192  1.1280
 3064TIP3    H2 9199   2.509   2.862   1.650  1.8800  0.9114 -2.4044
 3065TIP3   OH2 9200   1.400   5.278   4.918  0.0229 -0.9117 -0.9924
 3065TIP3    H1 9201   1.327   5.217   4.930 -1.2725  0.8724  0.7962
 3065TIP3    H2 9202   1.367   5.362   4.952  1.8902  0.6934 -2.8714
 3066TIP3   OH2 9203   6.320   4.494   3.786  0.1988 -0.3973  0.4790
 3066TIP3    H1 9204   6.265   4.415   3.781 -0.3297  0.0036 -0.0793
 3066TIP3    H2 9205   6.400   4.470   3.739 -0.5564 -0.1166 -0.9805
 3067TIP3   OH2 9206   4.683   2.376   2.964 -0.0014  0.5079  0.1638
 3067TIP3    H1 9207   4.623   2.324   2.912 -1.0246  0.1103  1.6653
 3067TIP3    H2 9208   4.746   2.411   2.901 -2.3625  1.8015 -1.6606
 3068TIP3   OH2 9209   1.154   4.131   4.263 -0.7308 -0.2188 -0.0612
 3068TIP3    H1 9210   1.082   4.130   4.200  0.5044 -1.7412 -1.5358
 3068TIP3    H2 9211   1.169   4.223   4.282 -1.9540  0.1999 -1.0282
 3069TIP3   OH2 9212   2.591   5.533   0.113 -0.2932 -0.1452 -0.1282
 3069TIP3    H1 9213   2.534   5.482   0.171 -1.4140  1.0193 -0.1660
 3069TIP3    H2 9214   2.535   5.603   0.079  0.7395  0.0681 -1.4687
 3070TIP3   OH2 9215   3.388   2.542   1.076  0.8432  0.3174 -0.1755
 3070TIP3    H1 9216   3.421   2.477   1.137  1.4971  0.3370 -0.4992
 3070TIP3    H2 9217   3.456   2.550   1.009  0.4264  0.7599 -0.5650
 3071TIP3   OH2 9218   2.196   4.423   2.150 -0.0164  0.4544  0.8519
 3071TIP3    H1 9219   2.253   4.366   2.201  0.7336  0.8363  0.4453
 3071TIP3    H2 9220   2.180   4.375   2.069 -2.9426 -1.1453  2.1877
 3072TIP3   OH2 9221   3.222   1.484   0.109 -0.3352  0.2648 -0.1382
 3072TIP3    H1 9222   3.241   1.442   0.194  1.9976 -1.7684 -1.5216
 3072TIP3    H2 9223   3.151   1.544   0.128  1.5018  1.5743  3.7586
 3073TIP3   OH2 9224   2.973   1.323   0.051 -0.2798 -0.1546  0.1644
 3073TIP3    H1 9225   3.056   1.370   0.063  0.0138 -0.3962 -0.8181
 3073TIP3    H2 9226   2.995   1.231   0.069 -0.0529 -0.3831 -1.1832
 3074TIP3   OH2 9227   4.004   2.783   3.349  0.1794  0.1515  0.4283
 3074TIP3    H1 9228   4.000   2.703   3.296  1.4648 -0.5458  1.3047
 3074TIP3    H2 9229   3.939   2.841   3.310 -0.7864 -1.3100 -0.2566
 3075TIP3   OH2 9230   2.051   2.983   3.780 -0.0090  0.4812 -0.2144
 3075TIP3    H1 9231   2.048   3.019   3.868 -0.8217  1.1396 -0.5061
 3075TIP3    H2 9232   1.998   3.042   3.727  1.0845  0.5287 -1.3080
 3076TIP3   OH2 9233   3.005   4.164   1.172  0.2299  1.1199 -0.0958
 3076TIP3    H1 9234   3.060   4.208   1.107  1.9344  0.1682  0.6366
 3076TIP3    H2 9235   3.020   4.071   1.158 -1.2719  0.8265  0.0988
 3077TIP3   OH2 9236   3.473   4.409   0.731 -0.6832  0.0562 -0.2384
 3077TIP3    H1 9237   3.500   4.317   0.737 -1.5473 -0.1238  1.6775
 3077TIP3    H2 9238   3.397   4.408   0.673  0.3197 -0.1434 -1.6174
 3078TIP3   OH2 9239   0.509   4.387   5.112  0.3125  0.1061 -0.2093
 3078TIP3    H1 9240   0.441   4.425   5.168 -0.8625 -1.4548 -0.4922
 3078TIP3    H2 9241   0.496   4.292   5.120  2.0380 -0.2157 -0.8148
 3079TIP3   OH2 9242   1.231   0.349   5.039 -0.5728 -0.9111 -0.1408
 3079TIP3    H1 9243   1.156   0.380   4.987 -0.3619 -0.4105 -0.1496
 3079TIP3    H2 9244   1.269   0.279   4.986  0.5021  0.5332 -1.3760
 3080TIP3   OH2 9245   4.930   3.084   2.920  0.3718 -0.0941  0.2250
 3080TIP3    H1 9246   4.954   3.140   2.993  0.1262 -1.2144  1.1874
 3080TIP3    H2 9247   4.839   3.104   2.902  0.5504  0.4840 -0.0723
 3081TIP3   OH2 9248  -0.016   3.035   1.698  0.2552  0.1473  0.0496
 3081TIP3    H1 9249  -0.025   3.074   1.611 -0.3453  1.7671  0.7964
 3081TIP3    H2 9250   0.077   3.048   1.720  0.6108 -1.0172 -0.6465
 3082TIP3   OH2 9251   1.298   2.415   2.326 -0.3338 -0.3308  0.2703
 3082TIP3    H1 9252   1.354   2.487   2.298  0.0741 -0.7884 -0.0967
 3082TIP3    H2 9253   1.357   2.342   2.341 -0.7636 -0.6450  0.4816
 3083TIP3   OH2 9254   1.963   3.439   1.199  0.3749 -0.2965  0.0841
 3083TIP3    H1 9255   2.005   3.398   1.123  1.0551 -0.4331  0.5267
 3083TIP3    H2 9256   2.004   3.526   1.206  0.6499 -0.4590  0.5640
 3084TIP3   OH2 9257   2.565   4.843   3.590  0.6211 -0.1853  0.0134
 3084TIP3    H1 9258   2.538   4.866   3.679 -0.2236 -1.1285  0.0286
 3084TIP3    H2 9259   2.659   4.861   3.588  1.2161 -2.4308  1.9171
 3085TIP3   OH2 9260   2.539   1.716   4.879  0.4450  0.4471  0.3677
 3085TIP3    H1 9261   2.446   1.724   4.857  0.8800  1.5143 -1.3258
 3085TIP3    H2 9262   2.555   1.784   4.943  0.2588  0.9791 -0.1395
 3086TIP3   OH2 9263   2.024   4.908   0.517  0.2550  0.1818 -0.1598
 3086TIP3    H1 9264   2.067   4.993   0.526  0.9967 -0.1310 -0.6027
 3086TIP3    H2 9265   2.090   4.845   0.546  0.4161 -0.3740 -1.6310
 3087TIP3   OH2 9266   1.853   2.799   1.411  0.4182 -0.3354  0.2390
 3087TIP3    H1 9267   1.802   2.788   1.492  1.4298  0.1738  0.9576
 3087TIP3    H2 9268   1.938   2.830   1.440  0.2713  1.5175 -1.1566
 3088TIP3   OH2 9269   1.197   2.216   1.641 -0.2307 -0.9322 -1.0526
 3088TIP3    H1 9270   1.252   2.280   1.594 -0.7689  0.7060  0.4265
 3088TIP3    H2 9271   1.118   2.210   1.588 -0.0648 -0.5644 -1.3493
 3089TIP3   OH2 9272   1.600   3.445   0.791 -0.1632  0.1470  0.5575
 3089TIP3    H1 9273   1.512   3.451   0.828 -1.0456  0.1478 -1.4198
 3089TIP3    H2 9274   1.642   3.376   0.841 -1.5989 -0.4715  0.9675
 3090TIP3   OH2 9275   1.932   4.879   3.187  0.1572  0.0352 -0.0089
 3090TIP3    H1 9276   1.973   4.831   3.259 -0.0516 -0.0081  0.0828
 3090TIP3    H2 9277   1.893   4.811   3.132 -0.1709  0.0970  0.1412
 3091TIP3   OH2 9278   5.796   3.638   3.197  0.2368 -0.1777  0.1070
 3091TIP3    H1 9279   5.841   3.721   3.211 -1.3642  1.0217 -1.3420
 3091TIP3    H2 9280   5.856   3.571   3.231  1.4614  1.5726  1.5368
 3092TIP3   OH2 9281   2.792   3.466   3.135 -0.5981  0.0659 -0.4071
 3092TIP3    H1 9282   2.849   3.494   3.063 -2.2224 -1.3237 -2.3745
 3092TIP3    H2 9283   2.849   3.461   3.211  1.4975  0.4735 -1.8753
 3093TIP3   OH2 9284   0.580   5.244   1.577 -0.3713  0.1646  0.0802
 3093TIP3    H1 9285   0.614   5.236   1.666  0.3489  0.9206 -0.1183
 3093TIP3    H2 9286   0.578   5.338   1.559 -1.6515  0.0911 -0.2807
 3094TIP3   OH2 9287   4.984   5.236   4.751  0.1806 -0.4562 -0.6136
 3094TIP3    H1 9288   4.916   5.258   4.814  1.0644 -2.2596  1.1106
 3094TIP3    H2 9289   4.985   5.309   4.689 -0.9913  1.2492  1.2509
 3095TIP3   OH2 9290   2.566   4.381   1.795 -0.4796 -0.0796 -0.2114
 3095TIP3    H1 9291   2.546   4.332   1.875 -0.5834 -0.3129 -0.3764
 3095TIP3    H2 9292   2.649   4.425   1.813 -0.1603 -0.6627 -0.2085
 3096TIP3   OH2 9293   3.315   0.057   5.126 -0.0812  0.2665  0.0301
 3096TIP3    H1 9294   3.259  -0.017   5.152 -0.2935  0.8553  1.3501
 3096TIP3    H2 9295   3.314   0.115   5.202  0.2516  1.5371 -0.9101
 3097TIP3   OH2 9296   2.216   0.929   2.231 -0.0901  0.1805  0.2535
 3097TIP3    H1 9297   2.186   1.015   2.201  1.4908  0.5928 -0.2743
 3097TIP3    H2 9298   2.302   0.919   2.190 -0.7646 -2.2060 -0.7003
 3098TIP3   OH2 9299   5.933   4.727   0.492  0.0981  0.4132 -0.3168
 3098TIP3    H1 9300   5.986   4.659   0.535 -0.1631 -0.5197 -1.4376
 3098TIP3    H2 9301   5.899   4.779   0.565  1.3492  0.1484  0.5126
 3099TIP3   OH2 9302   5.479   2.900   1.020  0.0086 -0.1110 -0.0909
 3099TIP3    H1 9303   5.478   2.805   1.029  1.2611  0.0078  1.6193
 3099TIP3    H2 9304   5.564   2.920   0.982 -0.9722  0.2510 -2.2816
 3100TIP3   OH2 9305   6.121   0.501   4.809 -0.0702 -0.0752  0.0443
 3100TIP3    H1 9306   6.181   0.551   4.865 -2.1071  1.6332  0.8463
 3100TIP3    H2 9307   6.177   0.437   4.765  2.4141  1.7146  0.3762
 3101TIP3   OH2 9308   1.688   2.889   1.631  0.0889  0.2320  0.1754
 3101TIP3    H1 9309   1.697   2.795   1.650  1.3565  0.0120 -1.2956
 3101TIP3    H2 9310   1.697   2.931   1.716  3.4008 -0.8069  0.4934
 3102TIP3   OH2 9311   2.381   3.364   5.022  0.4570 -0.0963 -0.2532
 3102TIP3    H1 9312   2.472   3.347   5.044  0.5980 -0.1023 -0.8234
 3102TIP3    H2 9313   2.344   3.404   5.101  0.4409 -1.8564  0.6597
 3103TIP3   OH2 9314   4.176   2.149   2.287  0.1679 -0.8352  0.0459
 3103TIP3    H1 9315   4.232   2.077   2.261 -1.3241 -2.6817  1.6179
 3103TIP3    H2 9316   4.192   2.159   2.381 -0.0652  0.5269 -0.0379
 3104TIP3   OH2 9317   5.407   3.812   1.761 -0.0239 -0.8816  0.1192
 3104TIP3    H1 9318   5.430   3.792   1.852 -0.5138 -0.3934  0.3609
 3104TIP3    H2 9319   5.444   3.899   1.746 -0.6733 -0.5963  0.1346
 3105TIP3   OH2 9320   0.179   4.709   4.076  0.2705 -0.1260  0.3426
 3105TIP3    H1 9321   0.223   4.787   4.044  2.1571 -1.2531  0.0808
 3105TIP3    H2 9322   0.216   4.637   4.025 -0.0590 -1.4106  1.8269
 3106TIP3   OH2 9323   3.521   0.494   1.509  0.3310 -0.4970  0.1851
 3106TIP3    H1 9324   3.444   0.523   1.460  1.0778  1.4826  0.0754
 3106TIP3    H2 9325   3.493   0.414   1.554 -1.6072 -0.1269 -0.2970
 3107TIP3   OH2 9326   3.987   0.601   3.229  0.9025 -0.2483 -0.6384
 3107TIP3    H1 9327   4.036   0.633   3.305  1.3165  0.4046 -1.1688
 3107TIP3    H2 9328   3.925   0.671   3.208 -0.6206 -1.2448  0.3002
 3108TIP3   OH2 9329   3.237   4.122   1.425 -0.0017  0.0788 -0.4683
 3108TIP3    H1 9330   3.184   4.158   1.497 -0.1078 -0.1119 -0.4513
 3108TIP3    H2 9331   3.250   4.030   1.448  1.8452  0.5266  0.4140
 3109TIP3   OH2 9332   3.046   5.935   1.112  0.7772 -0.3040 -0.6179
 3109TIP3    H1 9333   3.121   5.919   1.056 -0.1878 -0.6236 -1.8786
 3109TIP3    H2 9334   3.054   6.026   1.140  2.0545 -0.5808 -0.0350
 3110TIP3   OH2 9335   1.655   0.633   0.103 -0.8139 -0.3674  0.3685
 3110TIP3    H1 9336   1.595   0.678   0.043  1.1233  1.6187 -0.1925
 3110TIP3    H2 9337   1.643   0.678   0.187  0.2233  0.3579  0.1316
 3111TIP3   OH2 9338   0.381   4.246   4.564 -0.6730 -0.4942 -0.2480
 3111TIP3    H1 9339   0.462   4.276   4.522 -0.8650 -1.3632 -1.2694
 3111TIP3    H2 9340   0.408   4.224   4.654 -0.0917  0.6057 -0.1379
 3112TIP3   OH2 9341   4.594   4.391   4.867  0.2455  0.5509  0.5612
 3112TIP3    H1 9342   4.575   4.453   4.797  1.0134  0.2461  0.0710
 3112TIP3    H2 9343   4.540   4.315   4.847  1.8274 -0.2865 -0.7923
 3113TIP3   OH2 9344   5.672   5.874   4.985 -0.0650  0.9465  0.7084
 3113TIP3    H1 9345   5.735   5.836   5.047  1.0652  0.5930 -0.5938
 3113TIP3    H2 9346   5.597   5.814   4.988  1.5571 -1.3361 -1.0641
 3114TIP3   OH2 9347   6.018   1.687   4.068  0.2752 -0.4431 -0.0620
 3114TIP3    H1 9348   6.041   1.763   4.013 -0.4736 -0.8332 -0.9352
 3114TIP3    H2 9349   5.975   1.627   4.008 -2.6780  0.0652  1.3968
 3115TIP3   OH2 9350   6.160   3.043   2.451  0.0748  0.1048 -0.2148
 3115TIP3    H1 9351   6.240   2.993   2.464 -0.6212 -1.1530 -0.5838
 3115TIP3    H2 9352   6.131   3.067   2.539  1.2454  1.2512 -0.1114
 3116TIP3   OH2 9353   1.096   0.734   2.479 -0.6108  0.1205  0.3038
 3116TIP3    H1 9354   1.096   0.721   2.384 -2.6967  2.5799 -0.1253
 3116TIP3    H2 9355   1.088   0.646   2.515 -3.1721 -0.6879 -1.9217
 3117TIP3   OH2 9356   3.255   0.832   0.543 -0.3229 -0.3142  0.3212
 3117TIP3    H1 9357   3.315   0.905   0.527 -0.4695 -0.3583 -0.4400
 3117TIP3    H2 9358   3.312   0.760   0.569  0.0497 -0.5715 -1.1120
 3118TIP3   OH2 9359   0.790   1.790   2.059 -0.5460  0.4740 -0.0407
 3118TIP3    H1 9360   0.781   1.742   2.142  0.8094 -1.1015 -0.7321
 3118TIP3    H2 9361   0.870   1.754   2.020 -1.0762  1.2717 -1.9744
 3119TIP3   OH2 9362   3.675   0.656   3.952  0.0723  0.0623 -0.0741
 3119TIP3    H1 9363   3.604   0.720   3.962  0.4938  0.4426  0.5037
 3119TIP3    H2 9364   3.741   0.701   3.899  1.0697  0.7065  1.6479
 3120TIP3   OH2 9365   5.739   4.396   0.266  0.1874 -0.2610 -0.4115
 3120TIP3    H1 9366   5.691   4.407   0.184 -0.2849  0.8599 -0.0141
 3120TIP3    H2 9367   5.684   4.336   0.318  0.4999 -0.9893 -0.9111
 3121TIP3   OH2 9368   4.467   6.001   1.494 -0.2357  0.0916  0.2059
 3121TIP3    H1 9369   4.481   5.919   1.541 -0.9585  0.4985  1.1652
 3121TIP3    H2 9370   4.488   5.980   1.403 -0.0286 -1.0475  0.4946
 3122TIP3   OH2 9371   0.046   1.372   5.070  0.3672 -0.1159 -0.1912
 3122TIP3    H1 9372   0.028   1.337   5.157  1.0223  0.8794  0.3703
 3122TIP3    H2 9373   0.106   1.309   5.031 -0.8019 -1.1421 -0.3639
 3123TIP3   OH2 9374   0.068   0.054   1.754  0.0459 -0.1660 -0.2346
 3123TIP3    H1 9375   0.125   0.073   1.680  0.8262 -1.7820 -0.0946
 3123TIP3    H2 9376   0.126   0.053   1.830 -0.8810  2.3894  0.6128
 3124TIP3   OH2 9377   4.313   1.432   4.161 -0.0972 -0.2865  0.0091
 3124TIP3    H1 9378   4.314   1.470   4.073 -0.1156 -0.9688 -0.2927
 3124TIP3    H2 9379   4.405   1.429   4.187  0.2718 -2.9424 -1.2706
 3125TIP3   OH2 9380   3.588   2.572   2.477  0.2182 -0.0630  0.5174
 3125TIP3    H1 9381   3.505   2.536   2.446 -0.4215  0.4326  1.6019
 3125TIP3    H2 9382   3.605   2.647   2.421 -0.6466  0.4966  0.9835
 3126TIP3   OH2 9383   5.198   1.671   2.325  0.5848  0.3171  0.1629
 3126TIP3    H1 9384   5.137   1.613   2.370  0.1191 -0.1003 -0.9841
 3126TIP3    H2 9385   5.285   1.634   2.344  0.4765  0.7158  1.5125
 3127TIP3   OH2 9386   6.149   4.849   4.392 -0.2627 -0.2241 -0.2735
 3127TIP3    H1 9387   6.056   4.843   4.417 -0.4904  2.6510 -0.1959
 3127TIP3    H2 9388   6.172   4.940   4.405  2.5830 -0.8293 -0.4784
 3128TIP3   OH2 9389   6.204   4.440   4.337 -0.4874 -0.4084 -0.0916
 3128TIP3    H1 9390   6.226   4.471   4.249  0.6046 -0.4330  0.1524
 3128TIP3    H2 9391   6.286   4.450   4.386 -1.4074  0.8140  1.2802
 3129TIP3   OH2 9392   4.877  -0.024   1.141  0.2669  0.1060  0.1151
 3129TIP3    H1 9393   4.843   0.062   1.117  1.8320  1.1769  1.5606
 3129TIP3    H2 9394   4.971  -0.011   1.154  0.5767 -1.8631  0.2061
 3130TIP3   OH2 9395   0.471   1.514   3.789 -0.3650 -0.0045 -0.2015
 3130TIP3    H1 9396   0.454   1.601   3.825 -0.6502 -0.1207 -0.0586
 3130TIP3    H2 9397   0.426   1.514   3.704  1.1799  0.6487 -1.0756
 3131TIP3   OH2 9398   3.275   5.153   0.480  0.2069 -0.1925 -0.0594
 3131TIP3    H1 9399   3.213   5.212   0.523  0.6793 -0.7915  1.4967
 3131TIP3    H2 9400   3.349   5.209   0.455 -0.3443  0.2707 -0.7008
 3132TIP3   OH2 9401   0.787   1.444   2.303 -0.0607  0.4865  0.2626
 3132TIP3    H1 9402   0.753   1.372   2.249  0.2798  0.3255  0.2623
 3132TIP3    H2 9403   0.714   1.506   2.308  0.4682  1.4335 -2.0023
 3133TIP3   OH2 9404   0.365   3.322   4.595  0.0854 -1.1238 -0.2890
 3133TIP3    H1 9405   0.311   3.299   4.671 -0.4699 -0.5979 -0.5228
 3133TIP3    H2 9406   0.435   3.376   4.631 -1.2234  0.7194 -0.3884
 3134TIP3   OH2 9407   4.915   3.264   0.382 -0.8003  0.2727  0.4459
 3134TIP3    H1 9408   4.991   3.315   0.354 -0.8753 -0.2298 -0.7543
 3134TIP3    H2 9409   4.852   3.274   0.310 -0.6453 -1.8134 -0.0440
 3135TIP3   OH2 9410   4.759   0.756   2.837 -0.4722 -0.2148  0.1326
 3135TIP3    H1 9411   4.735   0.681   2.890 -0.3476  1.0798  2.1073
 3135TIP3    H2 9412   4.678   0.806   2.828  0.1988  1.3567  2.1612
 3136TIP3   OH2 9413   6.161   5.413   0.046 -0.7449 -0.2038  0.1983
 3136TIP3    H1 9414   6.109   5.377  -0.025  0.8832 -0.0085 -1.1509
 3136TIP3    H2 9415   6.097   5.455   0.104 -2.3746 -2.5427  0.2412
 3137TIP3   OH2 9416   1.647   5.686   5.034 -0.1680 -0.0988  0.3503
 3137TIP3    H1 9417   1.619   5.628   4.964  0.4266  0.6793 -0.5669
 3137TIP3    H2 9418   1.743   5.681   5.032 -0.1193  0.6697  0.4475
 3138TIP3   OH2 9419   4.117   5.528   0.186  0.2654 -0.2884 -0.2078
 3138TIP3    H1 9420   4.085   5.617   0.199 -2.1660 -1.1449  0.1786
 3138TIP3    H2 9421   4.197   5.523   0.240  0.1116  1.4517  0.2433
 3139TIP3   OH2 9422   3.007   1.531   4.615  0.6056 -0.0386  0.3861
 3139TIP3    H1 9423   2.997   1.619   4.578  1.6884 -0.1416 -0.1763
 3139TIP3    H2 9424   3.043   1.546   4.702  1.2996  0.0572  0.0870
 3140TIP3   OH2 9425   5.416   4.516   0.905 -0.4266 -0.1601  0.2849
 3140TIP3    H1 9426   5.421   4.572   0.982 -0.8503  0.1837  0.0633
 3140TIP3    H2 9427   5.377   4.571   0.837 -0.7942 -0.7006  0.0480
 3141TIP3   OH2 9428   3.616   2.401   4.230  0.3826 -0.0758  0.4149
 3141TIP3    H1 9429   3.572   2.352   4.299  0.2037  0.1255  0.4452
 3141TIP3    H2 9430   3.702   2.423   4.267  0.5956 -0.6577  0.2734
 3142TIP3   OH2 9431   2.574   2.855   2.590  0.4699  0.5195 -0.0672
 3142TIP3    H1 9432   2.661   2.884   2.618  0.3898  0.8665 -0.1860
 3142TIP3    H2 9433   2.578   2.855   2.495  0.1114  1.2254 -0.0869
 3143TIP3   OH2 9434   3.211   0.862   4.495 -0.0830  0.1222  0.1087
 3143TIP3    H1 9435   3.155   0.824   4.562  0.1410 -0.7802 -0.1972
 3143TIP3    H2 9436   3.242   0.787   4.444 -1.4851  0.8957 -1.9867
 3144TIP3   OH2 9437   2.624   4.296   4.762 -0.7342 -0.6159 -0.1495
 3144TIP3    H1 9438   2.562   4.223   4.767 -0.7306 -0.5972  0.1652
 3144TIP3    H2 9439   2.664   4.300   4.849 -0.1790 -0.7261 -0.4000
 3145TIP3   OH2 9440   5.237   5.045   0.024 -0.3587  0.1865  0.0776
 3145TIP3    H1 9441   5.325   5.060   0.056 -0.8152  1.3186  0.8669
 3145TIP3    H2 9442   5.241   4.959  -0.019  0.6543 -0.7030  1.8342
 3146TIP3   OH2 9443   1.623   2.448   1.762  0.1612  0.0136  0.0542
 3146TIP3    H1 9444   1.573   2.370   1.739  0.5185 -0.0572 -0.5148
 3146TIP3    H2 9445   1.557   2.514   1.782 -0.1347 -0.6252  1.2263
 3147TIP3   OH2 9446   2.169   4.691   4.469  0.0055  0.0961  0.1065
 3147TIP3    H1 9447   2.102   4.731   4.525 -1.0314  0.0545 -1.0562
 3147TIP3    H2 9448   2.252   4.713   4.512 -0.7147  0.5744  1.3211
 3148TIP3   OH2 9449   2.010   1.666   4.981 -0.2141 -0.4239  0.5548
 3148TIP3    H1 9450   2.056   1.597   5.029  1.9696  0.5093 -0.0457
 3148TIP3    H2 9451   2.019   1.641   4.889  0.3109  0.4675  0.3533
 3149TIP3   OH2 9452   0.307   0.501   2.399 -0.0578 -0.0783  0.5775
 3149TIP3    H1 9453   0.367   0.550   2.455  1.3243  0.4185 -1.2516
 3149TIP3    H2 9454   0.271   0.567   2.339  0.3823 -0.9619 -0.6932
 3150TIP3   OH2 9455   5.585   5.306   1.270  0.4255 -0.8827  0.1214
 3150TIP3    H1 9456   5.523   5.376   1.288  0.5376 -0.4736 -0.9948
 3150TIP3    H2 9457   5.536   5.226   1.287 -0.7362 -0.5926 -1.5797
 3151TIP3   OH2 9458   3.859   2.211   0.421 -0.1360  0.5421  0.2385
 3151TIP3    H1 9459   3.764   2.205   0.424 -0.0911 -1.1476 -0.2063
 3151TIP3    H2 9460   3.883   2.170   0.337  1.0522 -1.1629  1.3317
 3152TIP3   OH2 9461   1.464   0.312   3.302 -0.3021 -0.3444 -0.3585
 3152TIP3    H1 9462   1.500   0.296   3.216  0.4335 -0.1331 -0.1003
 3152TIP3    H2 9463   1.539   0.308   3.361 -0.7308 -0.1013  0.2204
 3153TIP3   OH2 9464   1.977   0.828   3.472  0.1464 -0.0340  0.1443
 3153TIP3    H1 9465   2.047   0.815   3.535  2.4955 -4.3460 -2.7728
 3153TIP3    H2 9466   1.903   0.779   3.508  0.5489 -0.2212  0.7314
 3154TIP3   OH2 9467   1.171   0.990   2.323 -0.4727 -0.0491 -0.0608
 3154TIP3    H1 9468   1.196   0.947   2.241 -1.7357 -0.1176 -0.4268
 3154TIP3    H2 9469   1.203   0.932   2.392  2.6824  1.1094 -0.3759
 3155TIP3   OH2 9470   5.863   5.555   0.106  0.3621  0.2414  0.8251
 3155TIP3    H1 9471   5.917   5.531   0.181  0.5673  0.4223  0.7351
 3155TIP3    H2 9472   5.773   5.537   0.135  0.4885 -0.3732  0.8551
 3156TIP3   OH2 9473   4.826   1.109   1.743 -0.3767  0.0025 -0.0351
 3156TIP3    H1 9474   4.763   1.045   1.708 -0.0998  0.0774 -0.6791
 3156TIP3    H2 9475   4.890   1.055   1.790 -0.3139 -0.1665 -0.3133
 3157TIP3   OH2 9476   1.143   3.388   2.416 -0.0276 -0.1355 -0.0315
 3157TIP3    H1 9477   1.188   3.404   2.499  0.1945 -0.9435  0.0046
 3157TIP3    H2 9478   1.099   3.304   2.427 -0.0663 -0.2140 -0.7011
 3158TIP3   OH2 9479   3.697   0.348   0.203 -0.2639 -0.3991  0.2315
 3158TIP3    H1 9480   3.644   0.271   0.180  0.3001 -1.0881  1.1654
 3158TIP3    H2 9481   3.735   0.376   0.120 -0.1894 -1.3475 -0.0702
 3159TIP3   OH2 9482   0.548   2.965   3.144  0.2006 -0.1380 -0.3091
 3159TIP3    H1 9483   0.526   3.003   3.229 -0.1399  1.4370 -1.0741
 3159TIP3    H2 9484   0.596   2.885   3.166  1.5754  1.0710  1.3830
 3160TIP3   OH2 9485   5.005   1.008   5.068 -0.6249  0.1982  0.2116
 3160TIP3    H1 9486   5.030   0.984   5.158 -1.6292 -0.1455  0.4138
 3160TIP3    H2 9487   4.929   1.064   5.079  1.3374  3.1884 -0.2817
 3161TIP3   OH2 9488   5.948   4.269   1.839  0.2496 -0.2106 -0.2399
 3161TIP3    H1 9489   5.951   4.261   1.934 -2.0416  2.4044  0.1569
 3161TIP3    H2 9490   5.955   4.363   1.822 -1.0230 -0.4533 -2.5658
 3162TIP3   OH2 9491   5.111   0.036   2.792  0.4031  0.5285 -0.2140
 3162TIP3    H1 9492   5.168   0.112   2.783 -0.2218  0.7590 -3.7171
 3162TIP3    H2 9493   5.035   0.068   2.839  1.2860  1.3226  0.7244
 3163TIP3   OH2 9494   4.706   4.785   2.224 -0.7116  0.4990  0.5796
 3163TIP3    H1 9495   4.789   4.737   2.216  0.5501  2.5685  0.4865
 3163TIP3    H2 9496   4.639   4.721   2.199  0.9556 -0.8742 -0.6486
 3164TIP3   OH2 9497   3.403   3.126   1.435 -0.0351  0.3063  0.0516
 3164TIP3    H1 9498   3.439   3.163   1.516 -0.2891 -0.4524  0.5174
 3164TIP3    H2 9499   3.327   3.180   1.416  0.0296  0.4946  0.3097
 3165TIP3   OH2 9500   2.034   2.579   4.561 -0.5838 -0.5406  0.0190
 3165TIP3    H1 9501   1.979   2.579   4.483  1.3948 -0.9351 -1.4532
 3165TIP3    H2 9502   2.010   2.499   4.608 -1.4745 -0.5346 -0.4173
 3166TIP3   OH2 9503   0.867   5.015   4.192  0.3575 -0.3139 -0.3970
 3166TIP3    H1 9504   0.881   5.075   4.118 -3.0930  0.0435 -0.8929
 3166TIP3    H2 9505   0.858   4.929   4.150 -2.0064 -0.0558 -0.5409
 3167TIP3   OH2 9506   3.027   0.707   1.314 -0.5978  0.1406 -0.1509
 3167TIP3    H1 9507   3.046   0.782   1.258  1.9438 -0.5860 -0.3680
 3167TIP3    H2 9508   2.974   0.649   1.258 -0.9969  0.9355 -0.6109
 3168TIP3   OH2 9509   2.311   2.694   1.317 -0.7046 -0.5746 -0.0316
 3168TIP3    H1 9510   2.255   2.749   1.262  1.9986  1.7876 -0.6989
 3168TIP3    H2 9511   2.380   2.664   1.257  1.6111  0.9874  1.6946
 3169TIP3   OH2 9512   4.236   5.144   0.353  0.6095  0.1364 -0.1342
 3169TIP3    H1 9513   4.325   5.167   0.324  1.2992 -0.2744  1.5224
 3169TIP3    H2 9514   4.234   5.049   0.350  0.2024  0.1503 -0.2361
 3170TIP3   OH2 9515   5.173   4.849   1.620  0.1045 -0.0611  0.4853
 3170TIP3    H1 9516   5.258   4.892   1.610 -0.2676  0.7370  0.7096
 3170TIP3    H2 9517   5.156   4.810   1.534  1.1071 -1.0181  0.6908
 3171TIP3   OH2 9518   4.418   4.445   1.300 -0.4522  0.3109 -0.2428
 3171TIP3    H1 9519   4.396   4.538   1.299  1.7089  1.0604  3.5024
 3171TIP3    H2 9520   4.363   4.408   1.369 -0.1845 -0.8984 -0.6482
 3172TIP3   OH2 9521   5.313   4.484   3.143 -0.1176  0.1667 -0.0086
 3172TIP3    H1 9522   5.261   4.448   3.215 -0.1213  0.2777  0.0449
 3172TIP3    H2 9523   5.272   4.449   3.064 -0.8312  0.9702 -0.0069
 3173TIP3   OH2 9524   6.194   3.419   0.198 -0.6466 -0.0451 -0.0552
 3173TIP3    H1 9525   6.105   3.394   0.176 -0.1322 -1.5602 -0.5261
 3173TIP3    H2 9526   6.202   3.399   0.291 -0.4380 -1.0387 -0.2839
 3174TIP3   OH2 9527   3.342   3.086   3.987 -0.7306 -0.1646  0.2308
 3174TIP3    H1 9528   3.379   3.125   4.066 -3.0183  0.0296  1.2847
 3174TIP3    H2 9529   3.358   2.992   3.996 -0.4343 -0.0804  0.5983
 3175TIP3   OH2 9530   4.016   0.425   3.634 -0.5012 -0.2635  0.0529
 3175TIP3    H1 9531   3.947   0.360   3.619  0.5123 -1.7453  1.5309
 3175TIP3    H2 9532   4.016   0.440   3.728  0.0052  1.1069 -0.1366
 3176TIP3   OH2 9533   2.662   3.129   1.631 -0.0127  0.2472  1.1992
 3176TIP3    H1 9534   2.753   3.113   1.606 -0.0331  1.1305  0.4914
 3176TIP3    H2 9535   2.631   3.194   1.567 -1.5486 -1.0223  0.6021
 3177TIP3   OH2 9536   2.294   2.836   2.780 -0.2528 -0.4889 -0.5687
 3177TIP3    H1 9537   2.293   2.929   2.803  1.2534 -0.2174 -1.5021
 3177TIP3    H2 9538   2.359   2.829   2.710 -0.8977 -2.1275 -1.0446
 3178TIP3   OH2 9539   1.782   4.592   3.512  0.1421 -0.3249 -0.8642
 3178TIP3    H1 9540   1.731   4.533   3.457 -1.5925 -1.4904  1.7802
 3178TIP3    H2 9541   1.729   4.671   3.518  0.4554 -0.0979 -1.0957
 3179TIP3   OH2 9542   2.032   4.391   0.815 -0.0187  0.1120  0.5026
 3179TIP3    H1 9543   2.034   4.392   0.910  0.7495  0.4075  0.4936
 3179TIP3    H2 9544   2.125   4.385   0.789 -0.2653 -1.2060 -0.2123
 3180TIP3   OH2 9545   3.279   4.591   3.319  0.7016 -0.3706 -0.0476
 3180TIP3    H1 9546   3.337   4.649   3.270  1.4496 -1.5488 -0.6159
 3180TIP3    H2 9547   3.320   4.581   3.404  1.1159 -0.8690 -0.3038
 3181TIP3   OH2 9548   3.492   3.502   0.839 -0.1807 -0.0156 -0.3040
 3181TIP3    H1 9549   3.561   3.455   0.885  0.7657  0.1720 -1.5157
 3181TIP3    H2 9550   3.413   3.450   0.855  0.4897 -0.9698 -0.0607
 3182TIP3   OH2 9551   1.000   4.843   1.400 -0.0624 -0.0396  0.1895
 3182TIP3    H1 9552   0.958   4.867   1.317 -1.5514  0.6300  1.0798
 3182TIP3    H2 9553   1.013   4.749   1.394  0.1179  0.0370 -0.9149
 3183TIP3   OH2 9554   2.663   0.979   5.088  0.1910 -0.4465 -0.2932
 3183TIP3    H1 9555   2.700   0.895   5.061  1.3726 -0.5159  1.4129
 3183TIP3    H2 9556   2.703   0.997   5.173 -1.6561  0.8413  0.3559
 3184TIP3   OH2 9557   0.117   5.780   0.465  0.1000 -0.1507 -0.2683
 3184TIP3    H1 9558   0.117   5.855   0.405 -1.2333 -0.7843 -1.1023
 3184TIP3    H2 9559   0.115   5.703   0.408  1.7025 -0.8701  0.5673
 3185TIP3   OH2 9560   0.400   0.403   3.181 -0.4677  0.1287 -0.1792
 3185TIP3    H1 9561   0.417   0.495   3.162 -0.0730  0.2922  0.9307
 3185TIP3    H2 9562   0.307   0.392   3.163 -0.9703  1.2296  1.4895
 3186TIP3   OH2 9563   1.224   4.819   1.774  0.9303  0.2279 -0.1715
 3186TIP3    H1 9564   1.211   4.887   1.841 -2.2271  0.2844 -0.7125
 3186TIP3    H2 9565   1.315   4.791   1.787  1.0642  1.5960  2.8340
 3187TIP3   OH2 9566   4.064   4.923   2.445  0.0989 -0.6276  0.1572
 3187TIP3    H1 9567   4.136   4.978   2.414 -1.4779  1.7291  0.4728
 3187TIP3    H2 9568   4.018   4.896   2.365  0.1901 -0.5060  0.0644
 3188TIP3   OH2 9569   1.924   3.683   4.180 -0.4309 -0.0195  0.2920
 3188TIP3    H1 9570   1.889   3.757   4.230 -0.2050  0.5273 -0.3397
 3188TIP3    H2 9571   2.009   3.715   4.148 -0.5542 -0.3778 -0.4008
 3189TIP3   OH2 9572   4.268   3.331   0.986 -0.4610 -0.4797  0.5304
 3189TIP3    H1 9573   4.190   3.283   1.014 -2.1745  2.8432  2.0365
 3189TIP3    H2 9574   4.324   3.334   1.063  0.7683 -1.9078 -0.2371
 3190TIP3   OH2 9575   0.669   0.032   4.959  0.1635 -0.0110 -0.1473
 3190TIP3    H1 9576   0.671  -0.002   4.869 -0.2085 -1.2001  0.2753
 3190TIP3    H2 9577   0.580   0.067   4.969  0.5794  1.2604 -0.6173
 3191TIP3   OH2 9578   4.395   2.337   2.007 -0.1861 -0.5082 -0.2362
 3191TIP3    H1 9579   4.347   2.391   2.070  1.7158  0.7280  0.2151
 3191TIP3    H2 9580   4.449   2.399   1.958  1.6734 -1.9163 -0.0710
 3192TIP3   OH2 9581   5.850   2.831   4.114 -0.2043 -0.3134  0.6118
 3192TIP3    H1 9582   5.924   2.781   4.150 -1.4119 -2.1378  0.6867
 3192TIP3    H2 9583   5.840   2.905   4.174  1.0525 -0.4849  1.0643
 3193TIP3   OH2 9584   3.934   5.016   2.674 -0.1257  0.2510 -0.1306
 3193TIP3    H1 9585   3.999   4.982   2.613 -1.0923 -1.1289 -0.4425
 3193TIP3    H2 9586   3.963   5.105   2.693  2.3360 -0.5899  0.4314
 3194TIP3   OH2 9587   1.679   3.952   2.082 -0.2854 -0.1523  0.2018
 3194TIP3    H1 9588   1.769   3.921   2.083 -0.7423 -1.5729 -0.0475
 3194TIP3    H2 9589   1.675   4.017   2.153  1.5709  1.9802 -1.4954
 3195TIP3   OH2 9590   5.943   4.000   4.446  0.6658 -0.1224  0.8737
 3195TIP3    H1 9591   5.900   4.042   4.372  1.3821 -0.4120  0.2780
 3195TIP3    H2 9592   6.020   4.055   4.464  0.2067  0.2593  1.7737
 3196TIP3   OH2 9593   0.980   5.874   1.336  0.2124 -0.2152  0.0732
 3196TIP3    H1 9594   1.066   5.840   1.312 -0.1015 -1.1753  0.2794
 3196TIP3    H2 9595   0.921   5.843   1.268 -0.1581 -0.4769  0.5015
 3197TIP3   OH2 9596   3.367   0.951   4.741 -0.3213 -0.1066 -0.1095
 3197TIP3    H1 9597   3.288   0.901   4.719 -1.1720  1.2935 -0.4280
 3197TIP3    H2 9598   3.369   0.952   4.836 -1.1575  0.5095 -0.0862
 3198TIP3   OH2 9599   2.455   5.203   3.534 -0.2438  0.3324  0.0661
 3198TIP3    H1 9600   2.366   5.210   3.502 -0.1911 -1.3301 -0.5683
 3198TIP3    H2 9601   2.498   5.142   3.473  1.1940  0.7462  0.6105
 3199TIP3   OH2 9602   4.435   1.086   0.660  0.2539 -0.3923 -0.0327
 3199TIP3    H1 9603   4.342   1.080   0.637 -0.1654  1.2439  1.0011
 3199TIP3    H2 9604   4.451   1.180   0.668  1.9064 -0.6673  0.2206
 3200TIP3   OH2 9605   1.450   4.711   1.555  0.1570  0.5239 -0.5657
 3200TIP3    H1 9606   1.511   4.774   1.593  2.0983 -0.1029 -2.4809
 3200TIP3    H2 9607   1.390   4.764   1.503 -0.0146  1.0229  0.1262
 3201TIP3   OH2 9608   4.139   5.827   2.762  0.0505  0.3858 -0.1417
 3201TIP3    H1 9609   4.226   5.805   2.730  0.7386  1.6425  0.7443
 3201TIP3    H2 9610   4.094   5.744   2.770  2.3691 -0.7529  2.7571
 3202TIP3   OH2 9611   0.861   5.222   4.045 -0.1913  0.4408 -0.4859
 3202TIP3    H1 9612   0.923   5.247   3.977 -0.4104 -2.5988 -1.9970
 3202TIP3    H2 9613   0.775   5.244   4.008 -0.2176  0.3984 -0.4505
 3203TIP3   OH2 9614   4.706   1.482   1.525  0.3141  0.5600  0.4031
 3203TIP3    H1 9615   4.632   1.472   1.466  0.4019  2.0569 -0.0125
 3203TIP3    H2 9616   4.774   1.521   1.471  1.9764 -2.1088  0.3865
 3204TIP3   OH2 9617   5.492   5.016   0.402  0.1509  0.7038  1.1928
 3204TIP3    H1 9618   5.502   5.111   0.411  0.6130  0.7532  0.2935
 3204TIP3    H2 9619   5.400   5.004   0.378  0.3260  1.0184  0.3187
 3205TIP3   OH2 9620   0.070   5.237   4.802  0.2429  0.3392 -0.3343
 3205TIP3    H1 9621   0.025   5.186   4.735 -1.0031  1.1791 -0.1752
 3205TIP3    H2 9622   0.132   5.176   4.841 -0.0279 -0.5696 -1.2693
 3206TIP3   OH2 9623   5.567   3.249   4.440 -0.4650  0.1433 -0.2811
 3206TIP3    H1 9624   5.642   3.206   4.482  0.1126  0.5166 -0.9129
 3206TIP3    H2 9625   5.495   3.238   4.502  0.6779  1.8548  1.4450
 3207TIP3   OH2 9626   1.235   4.975   3.538  0.0650 -0.2922 -0.1235
 3207TIP3    H1 9627   1.326   4.977   3.567  0.3187 -0.1475 -0.9012
 3207TIP3    H2 9628   1.183   4.981   3.619  0.7382  2.6908  0.1766
 3208TIP3   OH2 9629   0.125   4.927   2.458  0.0300 -0.3215  0.5205
 3208TIP3    H1 9630   0.124   4.902   2.365 -1.6307 -0.6679  0.6158
 3208TIP3    H2 9631   0.184   4.864   2.499  0.7988 -0.1555 -0.2837
 3209TIP3   OH2 9632   3.404   0.743   3.413 -0.2019 -0.2500  0.2302
 3209TIP3    H1 9633   3.380   0.812   3.350  3.6971  0.0273 -1.2085
 3209TIP3    H2 9634   3.387   0.782   3.499  0.1423  1.8198 -0.5795
 3210TIP3   OH2 9635   0.576   4.285   4.835 -0.1244 -0.3174 -0.5574
 3210TIP3    H1 9636   0.534   4.294   4.921  0.8188  1.6662 -0.2463
 3210TIP3    H2 9637   0.565   4.371   4.795  2.1774 -0.2291 -1.1213
 3211TIP3   OH2 9638   1.663   1.559   3.805  0.0471 -0.1925 -0.5312
 3211TIP3    H1 9639   1.732   1.558   3.870 -1.2498 -1.0328  0.9117
 3211TIP3    H2 9640   1.686   1.489   3.744  0.4676 -0.4575 -0.0743
 3212TIP3   OH2 9641   1.969   3.366   1.743  0.6582  0.0941 -0.1100
 3212TIP3    H1 9642   1.992   3.428   1.812  0.3660 -0.4614  0.5080
 3212TIP3    H2 9643   1.874   3.371   1.737  0.4921 -1.2365  0.8971
 3213TIP3   OH2 9644   6.143   2.963   4.000  0.0146  0.0605  0.0399
 3213TIP3    H1 9645   6.204   2.993   4.067  2.6432  0.5498 -2.3930
 3213TIP3    H2 9646   6.170   2.874   3.981  0.8295  0.6805 -1.8999
 3214TIP3   OH2 9647   5.256   1.546   4.635 -0.1602  0.2213 -0.6273
 3214TIP3    H1 9648   5.295   1.631   4.617  0.8766 -0.0713  0.1490
 3214TIP3    H2 9649   5.322   1.483   4.605 -0.7115 -0.3029 -0.7570
 3215TIP3   OH2 9650   2.487   3.408   0.064 -0.1787 -0.4500 -0.0158
 3215TIP3    H1 9651   2.425   3.435   0.131  0.6701  2.1502 -0.1558
 3215TIP3    H2 9652   2.522   3.325   0.096 -0.5803  0.1766  2.2282
 3216TIP3   OH2 9653   4.267   3.099   0.559  0.2690 -0.1727  0.3173
 3216TIP3    H1 9654   4.294   3.092   0.468 -2.8660  2.2989 -1.0039
 3216TIP3    H2 9655   4.203   3.029   0.570 -1.1177  0.9687 -0.2044
 3217TIP3   OH2 9656   0.411   3.473   1.044  0.1613 -0.4325  0.2157
 3217TIP3    H1 9657   0.420   3.527   1.122  0.4624 -1.9188  1.2601
 3217TIP3    H2 9658   0.494   3.484   0.998  0.0852  0.2442  0.2297
 3218TIP3   OH2 9659   4.259   1.082   3.324  0.1911 -0.2670 -0.3277
 3218TIP3    H1 9660   4.330   1.124   3.373  1.0694 -1.0291 -0.9144
 3218TIP3    H2 9661   4.233   1.008   3.378  1.4318 -1.3449 -1.1437
 3219TIP3   OH2 9662   0.577   5.629   2.946  0.1371 -0.7580  0.2968
 3219TIP3    H1 9663   0.519   5.660   2.876  0.8623  0.9455  0.3939
 3219TIP3    H2 9664   0.519   5.617   3.021 -0.0332  1.8576  0.6783
 3220TIP3   OH2 9665   6.105   4.310   2.660 -0.3233  0.4104 -0.4199
 3220TIP3    H1 9666   6.011   4.305   2.645  0.0166 -1.8251 -2.3743
 3220TIP3    H2 9667   6.129   4.223   2.692  0.8364  1.5530  2.0666
 3221TIP3   OH2 9668   4.457   0.432   0.692  0.5542 -0.2734  0.7617
 3221TIP3    H1 9669   4.439   0.366   0.625 -0.3006 -0.1005  0.8101
 3221TIP3    H2 9670   4.460   0.515   0.644 -0.0876 -0.1464  0.9325
 3222TIP3   OH2 9671   1.170   0.374   2.456 -0.3540 -0.4985 -0.0839
 3222TIP3    H1 9672   1.083   0.394   2.489 -0.2077  0.2827 -0.1568
 3222TIP3    H2 9673   1.156   0.337   2.369 -0.5453  1.1280 -0.7767
 3223TIP3   OH2 9674   5.623   4.888   3.360  0.0712  0.4912 -0.2619
 3223TIP3    H1 9675   5.717   4.894   3.373 -0.0032  0.2232  0.4326
 3223TIP3    H2 9676   5.587   4.879   3.448 -0.4406 -1.8688 -0.6622
 3224TIP3   OH2 9677   2.401   3.091   2.583  0.4191  0.3549  0.7946
 3224TIP3    H1 9678   2.321   3.040   2.572  0.9596 -0.4454  0.4761
 3224TIP3    H2 9679   2.471   3.031   2.557  1.0234  1.5023 -0.2918
 3225TIP3   OH2 9680   0.845   1.431   3.438  0.6574 -0.0046  0.2741
 3225TIP3    H1 9681   0.752   1.429   3.457  0.3161  2.7331 -0.6223
 3225TIP3    H2 9682   0.882   1.357   3.487 -1.7757 -0.4005  1.6437
 3226TIP3   OH2 9683   0.440   3.837   3.772  0.5302  0.4554  0.0022
 3226TIP3    H1 9684   0.369   3.901   3.783  0.2765  0.4510 -1.4083
 3226TIP3    H2 9685   0.450   3.797   3.858 -1.6219  0.0024  0.1034
 3227TIP3   OH2 9686   5.925   2.871   0.658 -0.2516  0.3095  0.1553
 3227TIP3    H1 9687   6.000   2.814   0.647 -0.4607 -0.1291  0.9569
 3227TIP3    H2 9688   5.929   2.931   0.583  1.8079  1.3453  1.0264
 3228TIP3   OH2 9689   5.644   4.729   0.826  0.0779 -0.6320  0.0884
 3228TIP3    H1 9690   5.583   4.769   0.764  1.6276 -0.4514 -1.4072
 3228TIP3    H2 9691   5.716   4.698   0.772  2.0696  0.5497  1.8772
 3229TIP3   OH2 9692   0.526   0.049   3.248  0.9079  0.2475 -0.1614
 3229TIP3    H1 9693   0.484  -0.036   3.264  3.1232 -0.9595 -0.3587
 3229TIP3    H2 9694   0.571   0.069   3.330  1.4734  0.5759 -0.5451
 3230TIP3   OH2 9695   3.679   4.602   3.920  0.0685 -0.0745  0.2197
 3230TIP3    H1 9696   3.722   4.687   3.924  1.2034 -0.6702  1.8123
 3230TIP3    H2 9697   3.751   4.539   3.932 -0.9381 -1.2069  0.4761
 3231TIP3   OH2 9698   1.536   5.245   1.223  0.1739  0.2530  0.5481
 3231TIP3    H1 9699   1.525   5.230   1.317 -0.6679 -3.2611  0.0401
 3231TIP3    H2 9700   1.476   5.317   1.204  0.8565  1.5079  2.7432
 3232TIP3   OH2 9701   3.217   3.043   4.309 -0.4378  0.2394 -0.4049
 3232TIP3    H1 9702   3.264   2.965   4.279  0.8442  1.1399 -0.8072
 3232TIP3    H2 9703   3.155   3.010   4.375 -0.5199 -1.2195 -1.1724
 3233TIP3   OH2 9704   3.317   4.093   2.898 -0.2861 -0.6095  0.1828
 3233TIP3    H1 9705   3.250   4.055   2.842 -1.4271 -0.3429  1.3175
 3233TIP3    H2 9706   3.308   4.188   2.885 -0.1603 -0.5715  0.3664
 3234TIP3   OH2 9707   5.138   0.871   1.408  0.7761  0.4913 -0.3318
 3234TIP3    H1 9708   5.144   0.967   1.410  1.1282  0.4841 -0.7208
 3234TIP3    H2 9709   5.193   0.841   1.480  0.7838  0.5813 -0.3009
 3235TIP3   OH2 9710   4.394   1.135   4.431  0.3041  0.2090  0.5527
 3235TIP3    H1 9711   4.300   1.120   4.427 -0.0190  2.1869 -0.6103
 3235TIP3    H2 9712   4.404   1.220   4.473  1.5200  0.3821 -0.0156
 3236TIP3   OH2 9713   0.575   2.326   4.462 -0.0345 -0.0641 -0.1564
 3236TIP3    H1 9714   0.489   2.284   4.461  0.1055 -0.3754 -1.4727
 3236TIP3    H2 9715   0.637   2.254   4.447  0.2704  0.4466 -1.5490
 3237TIP3   OH2 9716   3.362   3.938   0.771 -0.0018 -0.0627  0.7121
 3237TIP3    H1 9717   3.362   3.850   0.732 -0.4899  0.4115 -0.3982
 3237TIP3    H2 9718   3.360   3.922   0.866  1.9937 -1.2497  0.6042
 3238TIP3   OH2 9719   3.215   1.240   2.448 -0.9225 -0.0392  0.0504
 3238TIP3    H1 9720   3.156   1.181   2.495 -2.1129  0.5714 -0.6304
 3238TIP3    H2 9721   3.281   1.183   2.409 -2.2274 -0.9698 -0.8485
 3239TIP3   OH2 9722   4.832   2.927   0.219  0.0040 -0.3969  0.4506
 3239TIP3    H1 9723   4.778   2.991   0.266  2.3309  0.9043  1.4980
 3239TIP3    H2 9724   4.812   2.844   0.263 -2.6841 -0.4238 -0.6123
 3240TIP3   OH2 9725   0.327   1.823   3.801  0.4202  0.2520  0.5701
 3240TIP3    H1 9726   0.394   1.808   3.868  0.8144  0.5271  0.2435
 3240TIP3    H2 9727   0.249   1.848   3.850  0.9600  1.3686  0.8982
 3241TIP3   OH2 9728   1.225   2.766   3.073  0.1272 -0.2435 -0.0113
 3241TIP3    H1 9729   1.211   2.696   3.137 -1.1475  0.0905  0.1035
 3241TIP3    H2 9730   1.261   2.721   2.997 -0.1751 -0.9429  0.2477
 3242TIP3   OH2 9731   5.062   4.395   4.048  0.3446  0.2418 -0.5144
 3242TIP3    H1 9732   5.040   4.487   4.039 -0.2921  0.0769 -0.6690
 3242TIP3    H2 9733   5.083   4.384   4.141 -0.2331  0.4001 -0.3646
 3243TIP3   OH2 9734   3.149   4.118   2.254 -0.0692  0.1245 -0.3723
 3243TIP3    H1 9735   3.077   4.061   2.280 -0.0820 -0.1505 -0.9829
 3243TIP3    H2 9736   3.228   4.067   2.275 -0.0730  0.0369 -0.5687
 3244TIP3   OH2 9737   3.904   5.117   3.531  0.2479  0.4633  0.3752
 3244TIP3    H1 9738   3.865   5.051   3.588  1.2780 -1.0743 -0.5913
 3244TIP3    H2 9739   3.996   5.120   3.557  0.9033 -0.7801 -1.5504
 3245TIP3   OH2 9740   2.819   4.708   1.343 -0.0732  0.2848  0.4539
 3245TIP3    H1 9741   2.901   4.694   1.295 -0.3780 -1.1420  0.2921
 3245TIP3    H2 9742   2.825   4.648   1.417 -0.7325  0.5781  0.7450
 3246TIP3   OH2 9743   1.398   0.729   3.732  0.1767 -0.6920  0.2980
 3246TIP3    H1 9744   1.465   0.681   3.683  0.3083  0.7256 -1.0125
 3246TIP3    H2 9745   1.357   0.785   3.666 -1.6834 -0.8431  1.2579
 3247TIP3   OH2 9746   5.004   2.385   2.535 -0.0334 -0.0682  0.0111
 3247TIP3    H1 9747   5.059   2.463   2.535 -0.6350  0.3697 -1.0999
 3247TIP3    H2 9748   5.066   2.312   2.540  0.9992  0.2506 -4.4173
 3248TIP3   OH2 9749   3.062   4.748   1.185 -0.1395 -0.8402  0.0361
 3248TIP3    H1 9750   3.076   4.770   1.093 -1.6407 -1.7070 -0.4207
 3248TIP3    H2 9751   3.096   4.659   1.193  1.8383 -0.0663  0.8324
 3249TIP3   OH2 9752   5.386   2.348   3.931 -0.1069  0.1167  0.6695
 3249TIP3    H1 9753   5.395   2.440   3.907 -0.6070 -0.1194 -0.4734
 3249TIP3    H2 9754   5.328   2.311   3.864 -1.6399 -0.5600  2.2841
 3250TIP3   OH2 9755   5.325   2.913   2.673 -0.2205  0.3367  0.0635
 3250TIP3    H1 9756   5.359   2.947   2.591 -0.6747  1.4673  0.3224
 3250TIP3    H2 9757   5.234   2.942   2.676 -0.4696 -0.4556  0.5528
 3251TIP3   OH2 9758   4.427   3.290   4.753 -0.2188  0.7461 -0.2866
 3251TIP3    H1 9759   4.495   3.231   4.722  1.5102  2.6961 -0.4198
 3251TIP3    H2 9760   4.473   3.352   4.809 -1.9619  1.9091 -0.0682
 3252TIP3   OH2 9761   3.014   4.205   4.640  0.5878  0.5610  0.3153
 3252TIP3    H1 9762   3.109   4.210   4.651  0.8535 -0.6502 -1.0924
 3252TIP3    H2 9763   2.979   4.235   4.724  2.2109  0.4077  1.0967
 3253TIP3   OH2 9764   4.363   0.005   1.401 -0.0500  0.0043 -0.2914
 3253TIP3    H1 9765   4.429  -0.059   1.425  0.0044 -0.3302 -1.2839
 3253TIP3    H2 9766   4.411   0.074   1.355 -0.2862  0.1330 -0.3486
 3254TIP3   OH2 9767   4.508   5.021   2.493 -0.2035 -0.3197 -0.0839
 3254TIP3    H1 9768   4.445   5.038   2.562  1.6744  1.9785  1.2421
 3254TIP3    H2 9769   4.466   4.957   2.436 -2.0291 -1.9743  2.9037
 3255TIP3   OH2 9770   4.130   3.289   1.500 -0.2145 -0.0603  0.0056
 3255TIP3    H1 9771   4.151   3.210   1.450 -1.3514 -0.1884 -0.2885
 3255TIP3    H2 9772   4.156   3.361   1.442  1.9451 -0.1685  0.7468
 3256TIP3   OH2 9773   2.852   1.810   2.498  0.6298  0.4357  0.5246
 3256TIP3    H1 9774   2.817   1.770   2.578  1.6577  0.7685  1.1599
 3256TIP3    H2 9775   2.845   1.904   2.513  0.1251  0.5050 -0.1037
 3257TIP3   OH2 9776   5.673   5.827   2.494 -0.2410 -0.0347  0.1894
 3257TIP3    H1 9777   5.649   5.893   2.428  1.3188 -1.2136 -1.6865
 3257TIP3    H2 9778   5.745   5.867   2.542 -0.1965  0.1434 -0.0223
 3258TIP3   OH2 9779   4.147   0.631   2.934 -0.0374  0.1643 -0.2670
 3258TIP3    H1 9780   4.239   0.623   2.912  0.0381 -0.2133  0.1764
 3258TIP3    H2 9781   4.128   0.554   2.987 -0.3755  0.7125  0.4307
 3259TIP3   OH2 9782   4.641   4.046   0.703 -0.1659  0.0289  0.1218
 3259TIP3    H1 9783   4.601   4.076   0.622 -0.9792 -0.6544  0.2419
 3259TIP3    H2 9784   4.698   3.974   0.677  2.1628  1.8915 -0.2280
 3260TIP3   OH2 9785   4.202   1.404   3.480 -1.0773  0.0628  0.3114
 3260TIP3    H1 9786   4.130   1.466   3.469 -1.4598  0.2691  3.1362
 3260TIP3    H2 9787   4.162   1.326   3.517 -0.0731 -0.3683  0.5380
 3261TIP3   OH2 9788   4.352   0.975   1.439 -0.1922 -0.4623 -0.5877
 3261TIP3    H1 9789   4.397   0.891   1.422 -0.6590 -0.6053 -1.1391
 3261TIP3    H2 9790   4.304   0.960   1.520 -0.5870 -0.8609 -0.8920
 3262TIP3   OH2 9791   5.942   5.937   0.881 -0.3658 -0.1574 -0.0378
 3262TIP3    H1 9792   5.872   5.996   0.907  0.0099  0.7530 -0.9929
 3262TIP3    H2 9793   6.021   5.973   0.922 -0.1610 -0.0880 -0.4791
 3263TIP3   OH2 9794   4.077   3.265   0.741  0.6129 -0.1299 -0.5703
 3263TIP3    H1 9795   4.141   3.291   0.807  0.7051  1.3867 -1.2187
 3263TIP3    H2 9796   4.123   3.202   0.686  0.5612 -1.3390  0.7281
 3264TIP3   OH2 9797   6.114   1.806   1.246 -0.1073 -0.1658 -0.2046
 3264TIP3    H1 9798   6.075   1.758   1.172 -1.4321  0.0022  0.3487
 3264TIP3    H2 9799   6.054   1.879   1.261  0.5054  0.1807  0.6165
 3265TIP3   OH2 9800   2.071   3.565   2.432  0.1896 -0.3618 -0.8492
 3265TIP3    H1 9801   2.160   3.536   2.416  1.0992  0.6906  1.7664
 3265TIP3    H2 9802   2.034   3.499   2.492  0.0714  0.4418 -0.0128
 3266TIP3   OH2 9803   5.358   3.367   0.009 -0.5735  0.6207 -0.2109
 3266TIP3    H1 9804   5.304   3.406  -0.060 -1.0935  0.2027 -0.0445
 3266TIP3    H2 9805   5.295   3.323   0.067 -0.2613  1.8031  1.0949
 3267TIP3   OH2 9806   4.105   5.482   4.416 -0.4040  0.5728 -0.3119
 3267TIP3    H1 9807   4.117   5.568   4.374 -0.4671  0.6313 -0.2113
 3267TIP3    H2 9808   4.039   5.498   4.483 -0.3917  0.4519 -0.2718
 3268TIP3   OH2 9809   2.956   0.394   1.488 -0.0442  0.5591 -0.5719
 3268TIP3    H1 9810   2.868   0.380   1.524 -0.3333  0.7646 -1.1661
 3268TIP3    H2 9811   3.009   0.323   1.524 -1.2404 -1.6566 -2.8040
 3269TIP3   OH2 9812   5.563   0.302   0.699 -0.0152  0.1457  0.1390
 3269TIP3    H1 9813   5.475   0.335   0.680 -1.4776 -2.0184  2.4765
 3269TIP3    H2 9814   5.594   0.358   0.771  0.2373  0.4672 -0.2177
 3270TIP3   OH2 9815   1.702   4.579   0.995 -0.4877  0.1991 -0.2340
 3270TIP3    H1 9816   1.787   4.538   0.977 -0.9117 -0.6668 -0.3232
 3270TIP3    H2 9817   1.703   4.659   0.942  0.7770  0.8720  0.7606
 3271TIP3   OH2 9818   0.580   4.564   2.089 -0.2799 -0.1788  0.6060
 3271TIP3    H1 9819   0.572   4.573   1.994  0.8541 -2.1623  0.2816
 3271TIP3    H2 9820   0.501   4.607   2.124  0.3092  2.5420 -1.0614
 3272TIP3   OH2 9821   6.184   0.520   3.033 -0.3280  0.0468 -0.2300
 3272TIP3    H1 9822   6.199   0.596   2.976 -0.1890  0.5235  0.4368
 3272TIP3    H2 9823   6.138   0.458   2.977 -2.2225  1.3865 -0.2698
 3273TIP3   OH2 9824   1.341   1.066   1.234 -0.0034 -0.2531  0.1667
 3273TIP3    H1 9825   1.396   1.127   1.185  1.2711 -2.2692 -1.0433
 3273TIP3    H2 9826   1.265   1.052   1.179 -0.6752  0.7428  0.7903
 3274TIP3   OH2 9827   2.989   0.655   1.574  0.2966 -0.1432 -0.5464
 3274TIP3    H1 9828   2.998   0.559   1.575 -0.1066 -0.1821  0.4060
 3274TIP3    H2 9829   3.014   0.680   1.485 -1.1208 -1.2783 -1.3123
 3275TIP3   OH2 9830   4.188   0.976   0.534  0.2437  0.0963  0.0833
 3275TIP3    H1 9831   4.134   0.919   0.590 -0.7766 -0.7435 -1.6733
 3275TIP3    H2 9832   4.141   0.979   0.451  1.6925  1.3469 -0.7357
 3276TIP3   OH2 9833   1.858   1.346   5.034 -0.5429 -0.3437 -0.1938
 3276TIP3    H1 9834   1.928   1.385   5.088 -1.2415 -0.4266  0.7991
 3276TIP3    H2 9835   1.863   1.252   5.053 -0.9598 -0.3413 -0.0648
 3277TIP3   OH2 9836   5.856   0.541   5.120  0.4181  0.1167 -0.0858
 3277TIP3    H1 9837   5.910   0.620   5.111  0.5992 -0.0221 -0.2013
 3277TIP3    H2 9838   5.839   0.535   5.214  1.7079 -0.5858  0.1217
 3278TIP3   OH2 9839   2.364   5.557   4.068  0.4920 -0.4066 -0.2968
 3278TIP3    H1 9840   2.391   5.484   4.012 -1.1084 -1.9385  0.8018
 3278TIP3    H2 9841   2.275   5.578   4.038  1.3627  1.9668 -1.3912
 3279TIP3   OH2 9842   0.339   2.300   1.366  0.2906 -0.3799  0.0237
 3279TIP3    H1 9843   0.334   2.324   1.459  1.4223 -0.1238  0.0228
 3279TIP3    H2 9844   0.272   2.354   1.324  0.5958  0.3893  0.5101
 3280TIP3   OH2 9845   2.901   2.715   0.469 -0.1251 -0.3491  0.3888
 3280TIP3    H1 9846   2.833   2.677   0.524  0.0886 -1.0450  0.1838
 3280TIP3    H2 9847   2.912   2.804   0.502 -2.0867  0.2553 -0.4183
 3281TIP3   OH2 9848   5.984   4.390   3.669  0.8070  0.1664  0.6008
 3281TIP3    H1 9849   6.012   4.312   3.621  0.7875 -0.2503  1.2465
 3281TIP3    H2 9850   5.901   4.415   3.629  0.2931 -0.7650  1.0444
 3282TIP3   OH2 9851   2.070   0.240   0.777 -0.7343 -0.0699  0.2189
 3282TIP3    H1 9852   2.084   0.275   0.866  2.3808 -0.1059 -0.1235
 3282TIP3    H2 9853   2.055   0.146   0.791 -0.7788  0.0097  0.7463
 3283TIP3   OH2 9854   2.168   4.071   0.992  0.4697 -0.7570 -0.4209
 3283TIP3    H1 9855   2.177   4.081   1.086 -2.4302 -0.1108 -0.1095
 3283TIP3    H2 9856   2.112   3.995   0.981 -0.6137  0.1445 -1.4852
 3284TIP3   OH2 9857   4.468   1.189   1.697  0.0388  0.5777  0.1895
 3284TIP3    H1 9858   4.377   1.167   1.717  0.2474 -0.3248  0.1744
 3284TIP3    H2 9859   4.503   1.225   1.779  0.7079 -2.5178  1.4213
 3285TIP3   OH2 9860   2.683   2.029   2.590  0.1726 -0.2405  0.7864
 3285TIP3    H1 9861   2.612   1.965   2.582 -2.0210  2.3035 -2.3558
 3285TIP3    H2 9862   2.655   2.087   2.661 -0.0850 -0.1502  0.6104
 3286TIP3   OH2 9863   5.942   0.297   1.672 -0.0379 -0.2159  0.1034
 3286TIP3    H1 9864   5.849   0.314   1.661 -0.4554 -1.5038  1.3106
 3286TIP3    H2 9865   5.955   0.208   1.638 -0.0182 -1.4711  3.0427
 3287TIP3   OH2 9866   0.970   4.359   4.661 -0.0417 -0.5188  0.5065
 3287TIP3    H1 9867   1.008   4.428   4.607 -2.8952  0.4797 -0.3974
 3287TIP3    H2 9868   0.991   4.278   4.615  1.2110 -0.0583  0.2361
 3288TIP3   OH2 9869   1.790   3.258   2.433 -0.4694  0.0194 -0.4304
 3288TIP3    H1 9870   1.779   3.282   2.341  0.8598 -0.9654 -0.8909
 3288TIP3    H2 9871   1.749   3.172   2.440 -1.4132  0.5154  0.1370
 3289TIP3   OH2 9872   6.281   0.587   1.974 -0.3113  0.4433  0.3596
 3289TIP3    H1 9873   6.292   0.603   1.880 -2.1524  0.6015  0.1181
 3289TIP3    H2 9874   6.370   0.581   2.009  0.5738 -3.1133 -1.9613
 3290TIP3   OH2 9875   2.998   5.655   3.221  0.0450 -0.1950  0.0903
 3290TIP3    H1 9876   3.002   5.672   3.127 -0.2422 -0.5580  0.0104
 3290TIP3    H2 9877   2.923   5.596   3.232  0.1310 -0.2273  0.5347
 3291TIP3   OH2 9878   3.548   2.476   3.247  0.2819 -0.8406  0.1101
 3291TIP3    H1 9879   3.570   2.384   3.236  1.3466 -0.7282  1.0789
 3291TIP3    H2 9880   3.614   2.523   3.196 -0.3328 -0.5981 -0.4848
 3292TIP3   OH2 9881   0.188   0.901   3.026  0.1610  0.1697 -0.2900
 3292TIP3    H1 9882   0.160   0.965   2.961 -0.0814 -1.3434 -1.7196
 3292TIP3    H2 9883   0.283   0.914   3.032  0.1616  0.4402 -0.8162
 3293TIP3   OH2 9884   3.041   1.083   1.945  0.3030 -0.4110  0.0216
 3293TIP3    H1 9885   2.998   1.046   1.868  0.1295 -1.0464  0.4178
 3293TIP3    H2 9886   2.998   1.167   1.959 -0.6682 -0.9478  0.2894
 3294TIP3   OH2 9887   6.336   2.505   2.851  0.1482 -0.3612  0.0095
 3294TIP3    H1 9888   6.257   2.459   2.824 -0.4475  0.3902  0.4510
 3294TIP3    H2 9889   6.393   2.502   2.774 -0.6278 -0.2135 -0.5760
 3295TIP3   OH2 9890   5.113   0.268   1.813 -0.6507  0.1355  0.2064
 3295TIP3    H1 9891   5.051   0.321   1.863 -0.4143 -1.0637  1.8836
 3295TIP3    H2 9892   5.168   0.227   1.880  2.8280  2.0770 -1.1703
 3296TIP3   OH2 9893   5.478   3.298   2.386  0.4062  0.3866  0.6744
 3296TIP3    H1 9894   5.553   3.322   2.440 -1.1484  2.9046  1.9468
 3296TIP3    H2 9895   5.475   3.365   2.318 -0.5002  0.1782  0.4923
 3297TIP3   OH2 9896   2.379   3.335   0.336 -0.1313  0.1414 -0.1234
 3297TIP3    H1 9897   2.417   3.397   0.398 -0.7019 -1.0436  1.4838
 3297TIP3    H2 9898   2.452   3.278   0.310 -0.0709  0.0937  0.1537
 3298TIP3   OH2 9899   0.815   1.091   0.350  0.0987  0.0842 -0.2423
 3298TIP3    H1 9900   0.744   1.063   0.407  2.4868 -1.9290  2.0265
 3298TIP3    H2 9901   0.799   1.045   0.267  0.6697 -3.5334  1.4641
 3299TIP3   OH2 9902   4.254   4.854   0.343  0.5909 -0.3644 -0.7867
 3299TIP3    H1 9903   4.213   4.826   0.261 -0.6228  2.1294 -1.1460
 3299TIP3    H2 9904   4.185   4.841   0.409  0.7517 -0.2287 -0.5921
 3300TIP3   OH2 9905   1.596   3.378   0.514  0.2285 -0.0158  0.1247
 3300TIP3    H1 9906   1.565   3.452   0.461  1.9835  0.0227 -0.9071
 3300TIP3    H2 9907   1.612   3.416   0.600 -3.3378 -0.2183  1.0307
 3301TIP3   OH2 9908   5.663   1.839   4.313 -0.6449 -0.0797  0.1105
 3301TIP3    H1 9909   5.683   1.868   4.225  1.9808  1.8734  1.2200
 3301TIP3    H2 9910   5.587   1.892   4.339 -0.5833  0.3101 -0.4894
 3302TIP3   OH2 9911   0.462   3.862   4.739  0.0880 -0.1145 -0.0142
 3302TIP3    H1 9912   0.375   3.824   4.748 -0.6989  1.7241  0.6967
 3302TIP3    H2 9913   0.465   3.930   4.806  2.8752 -1.4716  1.4319
 3303TIP3   OH2 9914   2.211   0.798   0.916 -0.2740  0.0204  0.1943
 3303TIP3    H1 9915   2.194   0.745   0.994 -0.2946 -1.4022 -0.7494
 3303TIP3    H2 9916   2.287   0.852   0.940 -1.6306  1.2696  1.9597
 3304TIP3   OH2 9917   4.013   1.368   4.098  0.5018 -0.5048  0.1509
 3304TIP3    H1 9918   4.083   1.433   4.098  0.0024  0.0411 -0.5064
 3304TIP3    H2 9919   3.993   1.354   4.005  0.7260 -1.7326  0.2730
 3305TIP3   OH2 9920   5.464   5.086   1.361 -0.0449 -0.2327  0.3843
 3305TIP3    H1 9921   5.425   5.097   1.448 -0.1131 -0.5232  0.3901
 3305TIP3    H2 9922   5.398   5.038   1.311  0.8366 -1.9095  0.7759
 3306TIP3   OH2 9923   4.629   3.044   2.917 -0.5286 -0.3658 -0.0912
 3306TIP3    H1 9924   4.660   2.958   2.944 -0.8437  0.0799  1.8441
 3306TIP3    H2 9925   4.650   3.101   2.990  0.5157  1.4330 -1.7178
 3307TIP3   OH2 9926   2.356   3.863   3.984  0.4383  0.1754 -0.1688
 3307TIP3    H1 9927   2.366   3.951   3.948  2.0674  0.5171  0.9604
 3307TIP3    H2 9928   2.436   3.817   3.957 -0.2352 -0.8594 -0.4568
 3308TIP3   OH2 9929   3.928   4.367   2.772  0.3521 -0.4927  0.4203
 3308TIP3    H1 9930   4.010   4.329   2.741  0.7884  0.3749  0.4995
 3308TIP3    H2 9931   3.911   4.323   2.855  0.3835 -1.1475  0.0886
 3309TIP3   OH2 9932   3.205   3.236   2.968  0.0253  0.2439 -0.7725
 3309TIP3    H1 9933   3.284   3.290   2.971  0.8777 -0.8303 -2.4030
 3309TIP3    H2 9934   3.148   3.272   3.036  1.1814  2.1921 -0.7770
 3310TIP3   OH2 9935   5.742   2.315   1.228 -0.4369 -0.2432 -0.4514
 3310TIP3    H1 9936   5.755   2.410   1.223  1.1013 -0.4851 -1.8159
 3310TIP3    H2 9937   5.823   2.282   1.267 -1.0785 -1.0029  0.2924
 3311TIP3   OH2 9938   1.357   3.377   3.463 -0.8583  0.6906 -0.4767
 3311TIP3    H1 9939   1.314   3.419   3.389  0.6515  1.1355 -1.1552
 3311TIP3    H2 9940   1.450   3.394   3.448 -0.3436 -1.2978  0.2446
 3312TIP3   OH2 9941   2.528   3.810   0.678 -0.0497 -0.0144 -0.4395
 3312TIP3    H1 9942   2.581   3.887   0.700  0.0265 -0.2794  0.3507
 3312TIP3    H2 9943   2.445   3.824   0.723 -0.2471 -0.1231 -0.7669
 3313TIP3   OH2 9944   4.319   1.838   2.870  0.2068  0.3878 -0.3548
 3313TIP3    H1 9945   4.380   1.815   2.940  0.0880 -1.7295 -0.8741
 3313TIP3    H2 9946   4.233   1.836   2.912  0.1103 -1.1460 -0.5836
 3314TIP3   OH2 9947   1.940   5.452   4.910  0.5590  0.3696 -0.4213
 3314TIP3    H1 9948   1.880   5.496   4.850  1.3241  0.5305 -1.0958
 3314TIP3    H2 9949   1.947   5.362   4.876 -0.2557 -0.0155  0.3892
 3315TIP3   OH2 9950   5.047   0.351   0.565  0.8377 -0.3026  0.6897
 3315TIP3    H1 9951   5.089   0.415   0.508  0.4380  0.3823  1.1584
 3315TIP3    H2 9952   4.955   0.376   0.566  0.2667 -2.1276 -0.7730
 3316TIP3   OH2 9953   1.550   4.225   1.697  0.8539  0.5036 -0.0498
 3316TIP3    H1 9954   1.501   4.298   1.735  1.2698  0.9413 -0.3422
 3316TIP3    H2 9955   1.639   4.259   1.684  1.0796 -0.0815 -0.1125
 3317TIP3   OH2 9956   2.654   2.543   2.651 -0.3186  0.2715 -0.0731
 3317TIP3    H1 9957   2.567   2.505   2.639 -0.6849  0.9692  0.3490
 3317TIP3    H2 9958   2.640   2.637   2.650 -0.1106  0.4720  3.5295
 3318TIP3   OH2 9959   0.707   2.702   5.184 -0.5266 -0.0307  0.7107
 3318TIP3    H1 9960   0.638   2.766   5.168 -0.5437 -0.6973 -2.5696
 3318TIP3    H2 9961   0.664   2.617   5.171  0.7778 -0.4585 -1.3233
 3319TIP3   OH2 9962   5.193   0.315   4.855 -0.6592 -0.3295 -0.7152
 3319TIP3    H1 9963   5.206   0.231   4.810  0.3177 -0.7277  0.2493
 3319TIP3    H2 9964   5.260   0.373   4.818  0.4742 -0.8032  0.5184
 3320TIP3   OH2 9965   4.277   3.834   0.980 -0.1872 -0.2397  0.0733
 3320TIP3    H1 9966   4.225   3.755   0.992  0.2462 -0.7430 -1.2276
 3320TIP3    H2 9967   4.221   3.894   0.931  0.0068 -0.2995 -0.2225
 3321TIP3   OH2 9968   5.281   2.740   5.043  0.5177  0.7468  0.5273
 3321TIP3    H1 9969   5.220   2.813   5.053  0.6269  0.8446  0.4792
 3321TIP3    H2 9970   5.232   2.676   4.990  0.5763  0.9657  0.2022
 3322TIP3   OH2 9971   1.984   5.497   1.257 -0.1302 -0.4280  0.3563
 3322TIP3    H1 9972   1.973   5.502   1.163 -0.3859 -0.4270  0.3850
 3322TIP3    H2 9973   1.896   5.483   1.291 -0.4253  1.9472  0.7673
 3323TIP3   OH2 9974   6.031   0.400   0.846 -0.0558  0.0315 -0.2059
 3323TIP3    H1 9975   6.062   0.413   0.756  2.4774  3.0029  0.9459
 3323TIP3    H2 9976   5.936   0.414   0.841 -0.1273 -0.8132 -2.4982
 3324TIP3   OH2 9977   2.771   3.032   2.687  0.3315 -0.0101  0.3212
 3324TIP3    H1 9978   2.840   3.009   2.626  0.2410 -0.0735  0.2421
 3324TIP3    H2 9979   2.792   2.984   2.767 -0.7307 -1.6788 -0.3443
 3325TIP3   OH2 9980   4.297   3.504   4.285 -0.4224 -0.1987 -0.4285
 3325TIP3    H1 9981   4.358   3.466   4.348 -1.0165 -0.6012 -0.0836
 3325TIP3    H2 9982   4.338   3.489   4.199 -1.1782 -2.7577 -0.4203
 3326TIP3   OH2 9983   5.256   5.297   2.241 -0.4314  0.2415  0.1982
 3326TIP3    H1 9984   5.338   5.248   2.247 -0.4351  0.3747  1.7229
 3326TIP3    H2 9985   5.269   5.374   2.298 -0.4277  2.0667 -2.1149
 3327TIP3   OH2 9986   1.067   5.230   0.638  0.0570  0.2793  0.1076
 3327TIP3    H1 9987   1.083   5.171   0.711 -1.9703  0.9723  1.1921
 3327TIP3    H2 9988   1.091   5.179   0.560  2.1992 -0.4975  1.2020
 3328TIP3   OH2 9989   5.297   5.840   0.916 -0.4293  0.0499  0.3787
 3328TIP3    H1 9990   5.366   5.899   0.948  2.0782 -2.1263 -0.6261
 3328TIP3    H2 9991   5.323   5.821   0.826 -1.1070 -2.5547  0.6563
 3329TIP3   OH2 9992   0.853   4.262   1.031  0.2788  0.3433 -0.0103
 3329TIP3    H1 9993   0.857   4.351   1.068  1.1001 -0.1105  1.0516
 3329TIP3    H2 9994   0.939   4.224   1.050  0.2432 -0.3983 -1.2155
 3330TIP3   OH2 9995   2.886   5.396   3.433 -0.0002 -0.3890 -0.5535
 3330TIP3    H1 9996   2.818   5.437   3.378 -1.1137  0.7985  1.6002
 3330TIP3    H2 9997   2.859   5.304   3.437 -1.0393 -0.0987 -0.3969
 3331TIP3   OH2 9998   3.945   0.583   2.640  0.5278 -0.4380 -1.0403
 3331TIP3    H1 9999   3.874   0.558   2.699  1.7993  0.3542  0.9441
 3331TIP3    H210000   4.022   0.537   2.674  1.7656  1.7751 -0.6540
 3332TIP3   OH210001   5.086   5.241   2.047  0.3565  0.2949  0.2541
 3332TIP3    H110002   5.163   5.257   2.102  0.4627 -0.6853  0.4072
 3332TIP3    H210003   5.058   5.153   2.071  0.2549 -0.0552 -1.0913
 3333TIP3   OH210004   3.736   4.163   2.416  0.1583 -0.6013 -0.2382
 3333TIP3    H110005   3.692   4.130   2.494 -0.8662  2.2177  0.5010
 3333TIP3    H210006   3.800   4.226   2.450  0.2222  0.1117 -1.6196
 3334TIP3   OH210007   2.146   2.715   2.175 -0.3654 -0.0097  0.3530
 3334TIP3    H110008   2.129   2.640   2.119  0.1239 -0.0800  0.2950
 3334TIP3    H210009   2.164   2.787   2.114  1.1812 -0.3240  0.4181
 3335TIP3   OH210010   4.940   5.087   1.607 -0.1553  0.2389  0.3103
 3335TIP3    H110011   5.034   5.098   1.591  0.0734 -1.1839  0.4689
 3335TIP3    H210012   4.919   5.152   1.674  1.0112 -0.2582  1.2032
 3336TIP3   OH210013   1.892   3.536   0.827 -0.4717  0.4382  0.4565
 3336TIP3    H110014   1.840   3.574   0.898  0.1863 -1.7127  2.2056
 3336TIP3    H210015   1.828   3.516   0.758 -2.2940 -2.7951  2.8088
 3337TIP3   OH210016   4.064   4.712   1.947  0.2860 -0.3849 -0.3861
 3337TIP3    H110017   4.104   4.775   2.007 -1.4871 -0.3010  0.7934
 3337TIP3    H210018   3.985   4.757   1.916 -0.2786 -1.5065 -0.5938
 3338TIP3   OH210019   1.518   3.937   3.610 -0.1724  0.5056 -0.5472
 3338TIP3    H110020   1.508   3.895   3.524 -0.8788 -0.5326  0.0153
 3338TIP3    H210021   1.593   3.996   3.599  1.2002 -1.2465 -1.2747
 3339TIP3   OH210022   0.664   3.859   4.960  0.4347  0.2382 -0.3250
 3339TIP3    H110023   0.655   3.784   4.901  0.8500  1.0894 -1.5123
 3339TIP3    H210024   0.622   3.831   5.041 -0.6769 -0.7574 -1.2094
 3340TIP3   OH210025   2.839   4.578   3.989 -1.0149 -0.5481 -0.2028
 3340TIP3    H110026   2.821   4.624   4.071 -0.3757 -1.2781  0.3662
 3340TIP3    H210027   2.808   4.489   4.003 -1.5977 -0.4873 -1.0378
 3341TIP3   OH210028   0.991   0.875   1.868  0.3744  0.2925  0.4864
 3341TIP3    H110029   0.948   0.961   1.872  0.5356  0.4725 -1.1218
 3341TIP3    H210030   0.931   0.820   1.819  1.2893  0.1335 -0.4902
 3342TIP3   OH210031   5.584   2.790   1.446  0.0494  0.0547  0.2490
 3342TIP3    H110032   5.566   2.803   1.539  1.2828 -1.2196  0.7202
 3342TIP3    H210033   5.503   2.753   1.411 -0.0618 -0.5274  1.0799
 3343TIP3   OH210034   3.260   2.151   4.211  0.9470  0.0705  0.1715
 3343TIP3    H110035   3.210   2.088   4.262  1.0202 -0.0130  0.1403
 3343TIP3    H210036   3.314   2.196   4.275 -0.4057  1.3611  0.4656
 3344TIP3   OH210037   2.889   0.172   0.025 -0.0778  0.2029  0.1877
 3344TIP3    H110038   2.898   0.266   0.009 -0.4456  0.1411 -0.4127
 3344TIP3    H210039   2.968   0.133  -0.012  0.4366  0.3410  1.1070
 3345TIP3   OH210040   3.898   3.337   3.107 -0.1630  0.3332  0.5474
 3345TIP3    H110041   3.829   3.294   3.057  0.8883 -0.2518 -0.4471
 3345TIP3    H210042   3.855   3.409   3.151 -1.0557  1.1665 -1.5773
 3346TIP3   OH210043   0.573   0.736   1.428 -0.0737  0.2861 -0.3146
 3346TIP3    H110044   0.507   0.757   1.362 -0.3387 -0.2702 -0.2412
 3346TIP3    H210045   0.522   0.717   1.507  0.1334 -0.6054 -0.3813
 3347TIP3   OH210046   0.660   0.259   4.647 -0.4018  0.0236  0.8715
 3347TIP3    H110047   0.755   0.261   4.658 -0.1124 -1.1498 -1.0591
 3347TIP3    H210048   0.627   0.315   4.718  1.8152  2.0755  0.4338
 3348TIP3   OH210049   3.379   4.669   1.270  0.5406  0.4256  0.4112
 3348TIP3    H110050   3.318   4.599   1.247 -2.3853  2.7570  0.3943
 3348TIP3    H210051   3.418   4.642   1.353  1.2687 -2.1719 -0.6862
 3349TIP3   OH210052   3.337   2.313   1.721  0.3228 -0.3415  0.2951
 3349TIP3    H110053   3.264   2.263   1.757  0.0250 -1.5000 -1.7624
 3349TIP3    H210054   3.411   2.252   1.724  0.9628  0.4483  1.3238
 3350TIP3   OH210055   1.946   3.653   3.047  0.5894  0.0181 -0.6525
 3350TIP3    H110056   1.958   3.559   3.046  1.9400  0.1514 -2.7762
 3350TIP3    H210057   2.021   3.687   3.095 -0.0972  0.0340  0.4535
 3351TIP3   OH210058   0.972   4.189   2.119  0.1539 -0.3796 -0.1620
 3351TIP3    H110059   1.043   4.231   2.167  1.3420 -1.3943 -0.9578
 3351TIP3    H210060   0.913   4.260   2.096 -0.4348  0.1512  2.6742
 3352TIP3   OH210061   5.788   5.418   3.805 -0.3015  0.4440  0.1070
 3352TIP3    H110062   5.693   5.422   3.803 -0.4526 -0.1119  2.5901
 3352TIP3    H210063   5.817   5.491   3.749 -2.0568 -1.2838 -3.3307
 3353TIP3   OH210064   0.520   4.844   0.553  0.0884  0.3622 -0.2994
 3353TIP3    H110065   0.533   4.902   0.477 -0.2190 -0.2206 -0.7983
 3353TIP3    H210066   0.428   4.820   0.549 -0.6704  2.4778  1.8162
 3354TIP3   OH210067   2.789   5.865   5.014 -0.6208  0.4487 -0.8777
 3354TIP3    H110068   2.861   5.831   4.962 -1.0247 -2.0969  0.0884
 3354TIP3    H210069   2.723   5.795   5.012 -0.5449  0.0584  3.2068
 3355TIP3   OH210070   2.780   5.341   4.834 -0.4940 -0.2770 -0.4992
 3355TIP3    H110071   2.812   5.371   4.919 -0.7582  2.1554 -1.1848
 3355TIP3    H210072   2.819   5.254   4.823  1.0182  0.1114  1.2945
 3356TIP3   OH210073   6.017   0.656   3.468 -0.9957  0.1334 -0.1696
 3356TIP3    H110074   6.106   0.667   3.434  0.1262 -0.3724  2.4015
 3356TIP3    H210075   6.020   0.573   3.516 -1.3876  2.2486  3.9832
 3357TIP3   OH210076   3.276   0.391   0.788  0.1482  0.3546  0.9394
 3357TIP3    H110077   3.358   0.354   0.753 -1.0435 -0.5668 -1.0745
 3357TIP3    H210078   3.243   0.323   0.847 -1.4457 -1.5587 -1.8729
 3358TIP3   OH210079   2.463   1.016   0.320 -0.1210 -0.2885  0.1344
 3358TIP3    H110080   2.544   0.971   0.343 -1.0531 -2.7497 -1.0152
 3358TIP3    H210081   2.408   1.009   0.398  0.2188  0.0729  0.4097
 3359TIP3   OH210082   4.870   1.784   4.445  0.0711 -0.0256 -0.3535
 3359TIP3    H110083   4.774   1.777   4.452  0.2426 -1.1601  1.5351
 3359TIP3    H210084   4.884   1.847   4.375 -2.0922  2.2165  1.0573
 3360TIP3   OH210085   3.089   0.873   2.128  0.0974  0.0678 -0.1196
 3360TIP3    H110086   3.072   0.955   2.081  2.3247  1.6275  1.6208
 3360TIP3    H210087   3.182   0.856   2.116 -0.1533 -1.8113  0.2256
 3361TIP3   OH210088   3.487   0.308   3.429 -0.3759 -1.0522  0.2456
 3361TIP3    H110089   3.499   0.228   3.480 -1.0344 -1.5056 -0.2964
 3361TIP3    H210090   3.399   0.338   3.452 -0.6449 -1.2123 -0.5476
 3362TIP3   OH210091   5.667   2.598   4.828  0.3399 -0.6262  0.2173
 3362TIP3    H110092   5.595   2.596   4.766 -0.0669  1.0150  0.6010
 3362TIP3    H210093   5.628   2.570   4.911  0.9105 -2.9434 -0.2141
 3363TIP3   OH210094   5.268   2.477   2.080 -0.6569  0.2222 -0.1293
 3363TIP3    H110095   5.194   2.435   2.122  0.5289 -0.0315  1.8246
 3363TIP3    H210096   5.309   2.408   2.027  0.8893 -1.0544  2.5306
 3364TIP3   OH210097   4.143   3.555   1.994  0.2129  0.1973  0.5461
 3364TIP3    H110098   4.120   3.462   1.993 -0.4254  0.3323  1.5474
 3364TIP3    H210099   4.165   3.574   2.086 -0.5040  1.2309  0.5231
 3365TIP3   OH210100   4.496   0.857   2.876 -0.1927 -0.3684  0.0033
 3365TIP3    H110101   4.423   0.795   2.876 -0.0625 -0.5219  0.1856
 3365TIP3    H210102   4.520   0.866   2.968 -1.4721  1.4592  0.2085
 3366TIP3   OH210103   0.982   2.900   1.032  0.0011 -0.6052 -0.0248
 3366TIP3    H110104   0.972   2.974   1.091 -1.3890 -0.2831 -0.6219
 3366TIP3    H210105   0.947   2.825   1.080 -0.3475 -0.5043 -0.1180
 3367TIP3   OH210106   5.646   0.978   4.864 -0.5566 -0.2488 -0.2665
 3367TIP3    H110107   5.720   0.920   4.845  1.4270  2.0172  0.0853
 3367TIP3    H210108   5.628   0.964   4.957  0.3871  0.1884 -0.0067
 3368TIP3   OH210109   4.256   1.438   1.870 -1.2850 -0.2198  0.3479
 3368TIP3    H110110   4.265   1.456   1.777 -1.8236  0.8701  0.4975
 3368TIP3    H210111   4.293   1.350   1.881  2.6142  1.1391 -0.2167
 3369TIP3   OH210112   0.771   0.907   1.321  0.1619 -0.2124 -0.0104
 3369TIP3    H110113   0.750   1.000   1.333 -0.4732 -0.5449  1.6279
 3369TIP3    H210114   0.705   0.861   1.372  0.5475 -1.5828 -0.7108
 3370TIP3   OH210115   6.068   3.825   0.196 -0.3566 -0.2570  0.6562
 3370TIP3    H110116   6.158   3.849   0.215  0.3051 -0.3852 -2.0009
 3370TIP3    H210117   6.026   3.907   0.170 -0.4177 -0.5332 -0.1467
 3371TIP3   OH210118   5.938   2.590   1.639  0.0124 -0.0929 -0.2091
 3371TIP3    H110119   5.999   2.630   1.701  0.7631  0.7103 -1.4247
 3371TIP3    H210120   5.862   2.566   1.692  0.0139  1.9026  0.7734
 3372TIP3   OH210121   1.140   0.689   3.339  0.3428 -0.0342  0.1951
 3372TIP3    H110122   1.189   0.630   3.396  0.3360 -0.7685 -0.5417
 3372TIP3    H210123   1.119   0.636   3.262  1.7251  1.3539 -1.2119
 3373TIP3   OH210124   3.076   1.158   3.682 -0.1928 -0.1404 -1.0685
 3373TIP3    H110125   3.086   1.071   3.722  1.8866  0.7943  0.6733
 3373TIP3    H210126   3.038   1.211   3.751 -0.8133  0.5040 -1.8950
 3374TIP3   OH210127   1.075   1.213   3.949 -0.1605  0.4647 -0.8151
 3374TIP3    H110128   1.102   1.122   3.962  0.8999  1.0059  1.0119
 3374TIP3    H210129   0.988   1.206   3.908  0.0609 -1.3489 -1.0581
 3375TIP3   OH210130   2.622   2.734   1.790  0.0140  0.0742  0.1662
 3375TIP3    H110131   2.682   2.698   1.724 -0.4153  0.7004 -0.5695
 3375TIP3    H210132   2.633   2.675   1.865 -1.5367 -2.3684 -1.3789
 3376TIP3   OH210133   4.935   2.198   2.783  0.5026 -0.5016 -0.5033
 3376TIP3    H110134   4.898   2.263   2.723 -0.6818 -0.7518 -0.0829
 3376TIP3    H210135   4.916   2.113   2.741  1.5499 -0.6061 -0.7851
 3377TIP3   OH210136   1.012   2.248   1.396 -0.0433 -0.0110  0.2275
 3377TIP3    H110137   0.965   2.264   1.315  0.1806 -1.3961 -0.2013
 3377TIP3    H210138   1.077   2.318   1.400 -1.6356  1.5205  0.4836
 3378TIP3   OH210139   4.242   0.738   0.232 -0.0208  0.0151  0.3110
 3378TIP3    H110140   4.261   0.792   0.156  0.1741  0.2555  0.5282
 3378TIP3    H210141   4.162   0.774   0.269  0.8487  1.0377  1.2528
 3379TIP3   OH210142   1.122   1.415   4.148  0.7044  0.0498  0.1674
 3379TIP3    H110143   1.213   1.402   4.175  0.5282 -0.0744  0.7211
 3379TIP3    H210144   1.103   1.340   4.092  1.2353  0.5809 -0.7438
 3380TIP3   OH210145   2.709   1.327   0.154 -0.2424 -0.0581  0.3616
 3380TIP3    H110146   2.799   1.309   0.126  0.7981  0.2888  3.1995
 3380TIP3    H210147   2.681   1.399   0.098  1.6894  0.6075  0.1803
 3381TIP3   OH210148   5.887   3.117   3.967  0.1068 -0.3048  0.9043
 3381TIP3    H110149   5.953   3.048   3.959  0.9893  0.4728  1.2883
 3381TIP3    H210150   5.915   3.169   4.043 -0.7986  0.2060  0.9105
 3382TIP3   OH210151   5.333   4.649   0.214 -0.0556 -0.1781 -0.5346
 3382TIP3    H110152   5.336   4.615   0.304  0.7008  1.3627  0.0631
 3382TIP3    H210153   5.250   4.697   0.210 -0.7442 -1.3757 -1.1231
 3383TIP3   OH210154   2.584   2.820   3.652  0.0977 -0.2616 -0.0156
 3383TIP3    H110155   2.497   2.859   3.656 -0.5598 -1.7136  1.7243
 3383TIP3    H210156   2.580   2.747   3.714  2.0326 -1.4538 -1.1794
 3384TIP3   OH210157   1.339   5.170   2.165 -0.3001 -0.2940 -0.1893
 3384TIP3    H110158   1.406   5.125   2.217  0.0776 -0.3370 -0.7033
 3384TIP3    H210159   1.293   5.226   2.228  0.5458  0.1141  0.0831
 3385TIP3   OH210160   0.089   1.412   3.734 -0.4254 -0.1141  0.0780
 3385TIP3    H110161  -0.005   1.428   3.730 -0.5480 -0.8352  0.0947
 3385TIP3    H210162   0.100   1.343   3.799  0.1591  0.2813  0.4137
 3386TIP3   OH210163   0.527   1.052   0.406  0.1389 -0.2610 -0.9898
 3386TIP3    H110164   0.493   1.029   0.493  0.6887  0.2965 -0.6151
 3386TIP3    H210165   0.483   0.992   0.346 -0.6331 -0.3189 -0.3834
 3387TIP3   OH210166   0.936   4.180   3.639  0.0823  0.1261  0.1495
 3387TIP3    H110167   0.943   4.273   3.659  2.9957 -0.1622  1.0971
 3387TIP3    H210168   0.955   4.136   3.722 -0.7593 -1.3129 -0.3775
 3388TIP3   OH210169   3.149   0.877   1.128 -0.0437  0.3069  0.0823
 3388TIP3    H110170   3.193   0.896   1.211 -0.7662  1.4407  0.2135
 3388TIP3    H210171   3.202   0.920   1.062  0.6292 -0.7394 -0.0933
 3389TIP3   OH210172   5.326   0.069   4.322  0.2018  0.1547 -0.3266
 3389TIP3    H110173   5.276   0.135   4.275  0.3724 -0.3495 -1.2425
 3389TIP3    H210174   5.396   0.118   4.365 -0.2993  0.6969 -0.1158
 3390TIP3   OH210175   5.351   2.777   3.174 -0.2212 -0.5120 -0.1599
 3390TIP3    H110176   5.367   2.808   3.264  1.3061  0.1846 -0.6381
 3390TIP3    H210177   5.291   2.841   3.137  1.0895  0.6188 -0.3976
 3391TIP3   OH210178   6.363   0.558   2.561 -0.0332  0.1244  0.2381
 3391TIP3    H110179   6.381   0.596   2.475 -1.4589 -1.3006 -0.7707
 3391TIP3    H210180   6.277   0.593   2.585 -0.0389 -0.1770  0.6748
 3392TIP3   OH210181   1.487   3.147   1.196 -0.4621 -0.7598 -0.1000
 3392TIP3    H110182   1.542   3.224   1.204 -2.0221  0.2354  1.6079
 3392TIP3    H210183   1.530   3.081   1.252  0.6438 -1.0626 -1.2431
 3393TIP3   OH210184   0.296   3.159   3.374  0.6540  0.7507 -0.2228
 3393TIP3    H110185   0.252   3.150   3.290 -0.3549 -0.1113  0.3715
 3393TIP3    H210186   0.307   3.254   3.385 -0.2061  0.9323 -0.8272
 3394TIP3   OH210187   4.953   0.091   3.446  0.2880  0.1113  0.3263
 3394TIP3    H110188   5.015   0.155   3.481  0.0434  0.5914 -0.0926
 3394TIP3    H210189   4.996   0.055   3.369  0.0909  0.3787  0.0873
 3395TIP3   OH210190   4.667   3.143   4.659 -0.0731 -0.2404 -0.2531
 3395TIP3    H110191   4.644   3.053   4.638  0.1529 -0.3453 -0.0502
 3395TIP3    H210192   4.737   3.165   4.597 -0.3692 -0.0850 -0.5383
 3396TIP3   OH210193   0.077   3.058   3.886 -0.3713  0.0179 -0.2617
 3396TIP3    H110194   0.093   2.964   3.883  1.4313  0.2946 -2.1783
 3396TIP3    H210195  -0.005   3.068   3.934 -0.5876 -2.5140 -0.0052
 3397TIP3   OH210196   3.593   2.203   0.339  1.0616 -0.8580  0.0197
 3397TIP3    H110197   3.570   2.294   0.358  0.1031 -0.4387 -2.7660
 3397TIP3    H210198   3.510   2.160   0.321  1.6098 -2.0294  0.1667
 3398TIP3   OH210199   6.075   1.132   2.765 -0.2111  0.2228 -0.0367
 3398TIP3    H110200   6.011   1.090   2.707 -0.3772  0.8881 -0.3407
 3398TIP3    H210201   6.123   1.192   2.709  0.2978  0.1494  0.3145
 3399TIP3   OH210202   3.537   3.297   2.647  0.0397 -0.0011 -0.1308
 3399TIP3    H110203   3.530   3.305   2.742  0.9188 -0.5428 -0.0108
 3399TIP3    H210204   3.619   3.340   2.625 -0.4829  0.7161 -0.7347
 3400TIP3   OH210205   2.203   5.720   3.295  0.8744  0.3758  1.3484
 3400TIP3    H110206   2.178   5.643   3.243  0.9055  0.0457  1.8190
 3400TIP3    H210207   2.296   5.732   3.275  0.6751  0.8084  0.6221
 3401TIP3   OH210208   1.567   4.588   5.077  0.0646  0.1807 -0.1512
 3401TIP3    H110209   1.540   4.560   5.164  0.4797  0.0783 -0.0499
 3401TIP3    H210210   1.647   4.539   5.060  1.1865  1.7599  0.3069
 3402TIP3   OH210211   4.353   0.443   1.621 -0.0004  0.8771  0.3099
 3402TIP3    H110212   4.429   0.492   1.653  0.9926  1.3442 -2.5108
 3402TIP3    H210213   4.373   0.424   1.530 -3.0878  0.5803 -0.4217
 3403TIP3   OH210214   2.091   2.218   3.253  0.0840  0.1145 -0.4673
 3403TIP3    H110215   2.110   2.226   3.346 -0.7189 -1.5755 -0.1158
 3403TIP3    H210216   2.160   2.268   3.210  0.7483  0.5270  1.0032
 3404TIP3   OH210217   0.042   1.709   1.208 -0.0804 -0.1537 -0.3986
 3404TIP3    H110218   0.113   1.750   1.258  0.7409 -2.7329  0.6895
 3404TIP3    H210219  -0.037   1.755   1.236  0.9573  1.8691 -0.6222
 3405TIP3   OH210220   0.206   2.528   2.641  0.0307 -0.0171  0.2968
 3405TIP3    H110221   0.239   2.443   2.672  2.5180  0.3976 -0.9539
 3405TIP3    H210222   0.190   2.514   2.548  0.5216  0.8719  0.0708
 3406TIP3   OH210223   3.936   0.869   4.315  0.4240  0.3826 -0.0536
 3406TIP3    H110224   3.862   0.927   4.300 -0.6186 -0.9590 -0.2950
 3406TIP3    H210225   3.918   0.828   4.399  1.9275  1.5049  0.8688
 3407TIP3   OH210226   2.700   3.725   0.966  0.3726  0.1962 -0.2711
 3407TIP3    H110227   2.667   3.762   1.048  0.6219 -0.5478  0.1730
 3407TIP3    H210228   2.678   3.791   0.900 -1.7182 -0.1119  0.0480
 3408TIP3   OH210229   0.133   1.785   2.372 -0.4284  0.2475 -0.3160
 3408TIP3    H110230   0.201   1.811   2.310 -1.2479  1.5499 -0.7174
 3408TIP3    H210231   0.052   1.794   2.322 -1.1308  1.5956  1.0046
 3409TIP3   OH210232   5.772   4.286   3.491  0.3949  0.0173 -0.3908
 3409TIP3    H110233   5.782   4.309   3.399  0.9090  0.5223 -0.2116
 3409TIP3    H210234   5.795   4.193   3.495 -1.3341 -0.4750 -1.0538
 3410TIP3   OH210235   0.870   4.910   3.704 -0.3271 -0.3880  0.1271
 3410TIP3    H110236   0.860   4.873   3.616 -2.7768 -0.7961  0.5239
 3410TIP3    H210237   0.829   4.847   3.762 -0.8047  0.9496  1.3093
 3411TIP3   OH210238   4.998   2.459   0.056  0.5022  0.9339  0.0215
 3411TIP3    H110239   4.988   2.553   0.038 -0.7996  0.7070 -0.5277
 3411TIP3    H210240   5.003   2.418  -0.030 -0.7998  0.3226  0.2274
 3412TIP3   OH210241   3.893   2.071   2.931 -0.7967 -0.5791 -0.1607
 3412TIP3    H110242   3.813   2.032   2.896 -1.0553 -0.2311  0.0267
 3412TIP3    H210243   3.881   2.165   2.917 -0.6128 -0.4913  0.2706
 3413TIP3   OH210244   0.806   0.681   3.118 -1.0416  0.0288 -0.0619
 3413TIP3    H110245   0.773   0.766   3.086  0.3277  0.5991 -0.0486
 3413TIP3    H210246   0.902   0.690   3.114 -0.6675  0.2987  4.5370
 3414TIP3   OH210247   2.202   4.551   5.182 -0.7192  0.4078 -0.1679
 3414TIP3    H110248   2.255   4.478   5.214 -0.7341  0.2950 -0.3950
 3414TIP3    H210249   2.146   4.512   5.115 -1.8217  0.3191  0.7711
 3415TIP3   OH210250   1.963   3.924   2.040  0.2211  0.0912 -0.1926
 3415TIP3    H110251   1.989   3.869   2.115  0.5318 -0.4629 -0.7024
 3415TIP3    H210252   1.993   3.875   1.963 -1.0283  0.1565 -0.7358
 3416TIP3   OH210253   1.449   5.289   0.748 -0.0919  0.5318 -0.3268
 3416TIP3    H110254   1.520   5.232   0.777  1.5248  2.0310 -1.1659
 3416TIP3    H210255   1.436   5.268   0.656 -1.1518 -0.0919 -0.0635
 3417TIP3   OH210256   0.368   1.730   0.587  0.1747 -0.6117 -0.4240
 3417TIP3    H110257   0.361   1.634   0.591  0.3791 -0.6023  0.3144
 3417TIP3    H210258   0.281   1.760   0.563 -0.5946 -0.8535  1.8417
 3418TIP3   OH210259   0.204   3.202   1.728  0.1001 -0.2157 -0.2195
 3418TIP3    H110260   0.268   3.131   1.738  2.4675  1.8527  0.7064
 3418TIP3    H210261   0.242   3.259   1.661 -0.8585  0.9815  0.2138
 3419TIP3   OH210262   2.635   1.365   3.142 -0.3124 -0.2309 -0.5499
 3419TIP3    H110263   2.679   1.433   3.091 -1.1800  3.3273  2.8852
 3419TIP3    H210264   2.543   1.372   3.117 -0.1771 -1.5222 -1.4916
 3420TIP3   OH210265   3.972   5.769   4.086  0.0094 -0.2527  0.4531
 3420TIP3    H110266   3.925   5.751   4.168  0.3137 -2.4546  0.2146
 3420TIP3    H210267   3.988   5.682   4.049  0.9701  0.6456 -1.3393
 3421TIP3   OH210268   0.565   4.642   2.500 -0.1464 -0.2970  0.5268
 3421TIP3    H110269   0.580   4.688   2.582  1.5276  1.5107 -0.6900
 3421TIP3    H210270   0.584   4.550   2.519 -0.5866 -0.0478  2.3079
 3422TIP3   OH210271   1.429   0.801   0.090 -0.3710 -0.0505  0.8885
 3422TIP3    H110272   1.378   0.824   0.168 -0.3708  2.3042  0.2684
 3422TIP3    H210273   1.465   0.884   0.060 -0.4873 -0.8620 -1.7283
 3423TIP3   OH210274   5.311   1.777   1.246 -0.0943  0.2101  0.1654
 3423TIP3    H110275   5.282   1.868   1.252 -2.0658 -0.2951 -0.8682
 3423TIP3    H210276   5.272   1.734   1.322 -1.0182 -0.2034 -0.5237
 3424TIP3   OH210277   3.728   4.855   2.763 -0.0531  0.0215 -0.0523
 3424TIP3    H110278   3.753   4.769   2.731 -0.1675 -0.3473  0.8100
 3424TIP3    H210279   3.799   4.913   2.736  0.7348 -0.6195  0.5828
 3425TIP3   OH210280   1.680   4.397   4.065 -0.1163  0.1173 -0.2101
 3425TIP3    H110281   1.687   4.313   4.110  0.3963  0.5290  0.5031
 3425TIP3    H210282   1.738   4.388   3.989 -1.4962 -0.8135 -1.1828
 3426TIP3   OH210283   0.083   4.397   2.351  0.1339  0.4609  0.0372
 3426TIP3    H110284  -0.009   4.422   2.355 -0.0988 -0.4651  0.8778
 3426TIP3    H210285   0.127   4.473   2.315 -0.7973  1.3537  0.7287
 3427TIP3   OH210286   2.507   4.980   4.516  0.4780 -0.1727 -0.6329
 3427TIP3    H110287   2.570   5.007   4.449  0.1346 -0.2917 -1.0056
 3427TIP3    H210288   2.501   4.885   4.507  0.5260 -0.2050 -0.3461
 3428TIP3   OH210289   1.999   2.419   3.991  0.0766 -0.4933 -0.0998
 3428TIP3    H110290   1.994   2.385   4.081  0.3925 -1.2033 -0.3383
 3428TIP3    H210291   2.083   2.386   3.958 -0.4458 -1.0173 -0.9469
 3429TIP3   OH210292   3.116   5.087   4.400 -0.0859 -0.4759 -0.2679
 3429TIP3    H110293   3.031   5.087   4.356  0.3460  0.3164 -1.1397
 3429TIP3    H210294   3.173   5.137   4.342  0.8826 -0.6616  0.4951
 3430TIP3   OH210295   2.534   4.635   3.867 -0.3742  0.1774 -0.1810
 3430TIP3    H110296   2.563   4.726   3.863 -2.2272  0.8864  0.8226
 3430TIP3    H210297   2.531   4.606   3.775  3.0221  0.0828 -0.3799
 3431TIP3   OH210298   3.299   0.746   1.964 -0.1420  0.7028  0.4269
 3431TIP3    H110299   3.355   0.751   2.041 -0.0812 -1.6486  0.6105
 3431TIP3    H210300   3.300   0.654   1.939 -1.5356  1.1068 -1.3778
 3432TIP3   OH210301   4.418   5.240   3.565  0.2565 -0.2630  0.1250
 3432TIP3    H110302   4.446   5.325   3.596 -1.3165  0.3653 -0.0584
 3432TIP3    H210303   4.488   5.180   3.590  1.1649  0.9976  0.6694
 3433TIP3   OH210304   0.421   5.946   1.647 -0.0402 -0.1732  0.4407
 3433TIP3    H110305   0.475   5.951   1.568  0.1019 -0.7917  0.4923
 3433TIP3    H210306   0.386   5.856   1.646  1.0253 -0.6361  1.7721
 3434TIP3   OH210307   3.975   5.614   2.794 -0.1162 -0.5980 -0.2973
 3434TIP3    H110308   3.889   5.593   2.759 -0.4046  1.0443 -0.6198
 3434TIP3    H210309   3.962   5.623   2.888  0.0858 -2.0736 -0.0905
 3435TIP3   OH210310   1.413   0.328   1.582  0.4979  0.4617  0.3950
 3435TIP3    H110311   1.484   0.370   1.535 -1.1666  0.2154 -2.5682
 3435TIP3    H210312   1.388   0.253   1.528 -0.4017 -0.9452  2.6078
 3436TIP3   OH210313   2.830   2.636   3.477 -0.1577 -0.3147 -0.2175
 3436TIP3    H110314   2.866   2.722   3.499  0.4203 -0.6115  0.0268
 3436TIP3    H210315   2.906   2.578   3.477 -0.3384 -0.5790 -1.7454
 3437TIP3   OH210316   3.108   2.674   4.309  0.3775  0.0485 -0.1899
 3437TIP3    H110317   3.177   2.612   4.332 -0.4098 -0.6254  0.3926
 3437TIP3    H210318   3.036   2.620   4.276 -0.3813  0.6343  0.4786
 3438TIP3   OH210319   2.541   5.390   5.016  0.6599  0.0456 -0.0455
 3438TIP3    H110320   2.603   5.435   4.958  1.1376 -0.9436 -0.3441
 3438TIP3    H210321   2.457   5.433   5.001  0.7365 -0.2854 -1.6134
 3439TIP3   OH210322   5.180   2.055   1.641  0.8843 -0.1117  0.3260
 3439TIP3    H110323   5.224   2.098   1.567  0.9132  0.3592  0.6116
 3439TIP3    H210324   5.246   1.997   1.678  1.2180  0.4623  0.6456
 3440TIP3   OH210325   2.872   0.985   4.425 -0.0296 -0.1119 -0.1898
 3440TIP3    H110326   2.833   1.040   4.357 -1.5727 -0.6016  0.2744
 3440TIP3    H210327   2.936   1.043   4.468 -1.1340  1.1229 -0.1373
 3441TIP3   OH210328   2.241   2.169   2.138  0.1304 -0.2375 -0.2985
 3441TIP3    H110329   2.222   2.100   2.075  0.3253 -0.4486 -0.1312
 3441TIP3    H210330   2.164   2.170   2.196  0.7282 -1.2955  0.5588
 3442TIP3   OH210331   0.850   1.813   5.036  0.1889 -0.3082  0.0057
 3442TIP3    H110332   0.861   1.815   5.131 -2.0715  2.1377  0.3377
 3442TIP3    H210333   0.795   1.736   5.020  2.0459 -1.7848  0.3863
 3443TIP3   OH210334   0.518   1.456   4.102  0.2556 -0.1645  0.6079
 3443TIP3    H110335   0.609   1.472   4.125  0.4661 -0.8565  0.2945
 3443TIP3    H210336   0.470   1.528   4.142  1.0569  0.8030 -0.1307
 3444TIP3   OH210337   2.726   4.824   0.317  0.2289 -0.3352  0.0589
 3444TIP3    H110338   2.713   4.782   0.232  1.1348 -0.0120 -0.2491
 3444TIP3    H210339   2.639   4.855   0.342 -0.0904 -0.6568 -0.6265
 3445TIP3   OH210340   0.953   3.487   3.264  0.5874 -0.4122 -0.4393
 3445TIP3    H110341   0.924   3.564   3.215  1.1614  0.7367  0.9479
 3445TIP3    H210342   1.011   3.441   3.203  0.8085  0.6495 -1.0663
 3446TIP3   OH210343   6.020   5.505   0.332 -0.3735 -0.1614  0.2845
 3446TIP3    H110344   6.009   5.427   0.387  2.8178 -0.7473  0.2861
 3446TIP3    H210345   6.073   5.564   0.385  2.3569 -0.5116 -1.8645
 3447TIP3   OH210346   1.858   4.374   4.460  0.4489  0.4212 -0.0413
 3447TIP3    H110347   1.946   4.367   4.499  0.6722  1.8677 -0.2110
 3447TIP3    H210348   1.799   4.347   4.529  1.0012  0.0088  0.2809
 3448TIP3   OH210349   3.969   0.218   3.335  0.3882  0.8610 -0.3981
 3448TIP3    H110350   3.950   0.152   3.270  2.0555  2.3429 -2.5464
 3448TIP3    H210351   3.886   0.264   3.348 -0.3622 -0.5092 -0.1471
 3449TIP3   OH210352   5.165   2.843   0.313 -0.4539  0.5127  0.1033
 3449TIP3    H110353   5.134   2.913   0.370  0.0391  0.7917  0.0331
 3449TIP3    H210354   5.139   2.762   0.358 -0.7446  0.7348  0.3394
 3450TIP3   OH210355   4.427   3.761   4.049  0.1623  0.4026  0.0958
 3450TIP3    H110356   4.376   3.714   4.115  0.2480  0.9578  0.5562
 3450TIP3    H210357   4.494   3.808   4.099 -0.2122  1.3955 -0.3143
 3451TIP3   OH210358   4.425   4.748   2.425  0.3030  0.3253  0.0229
 3451TIP3    H110359   4.374   4.758   2.505 -0.5478 -0.1400 -0.4503
 3451TIP3    H210360   4.444   4.655   2.419  0.9069  0.4422 -0.0011
 3452TIP3   OH210361   0.729   2.230   0.236  0.0347 -0.0416 -0.4109
 3452TIP3    H110362   0.805   2.288   0.246 -0.2033  0.1821  0.1096
 3452TIP3    H210363   0.703   2.208   0.325 -2.4111  2.3531 -0.4225
 3453TIP3   OH210364   0.650   0.436   4.845 -0.6247 -0.1831 -0.1680
 3453TIP3    H110365   0.696   0.497   4.904  0.9703 -1.8328  0.3865
 3453TIP3    H210366   0.557   0.448   4.866 -0.2850  1.2748  0.6750
 3454TIP3   OH210367   4.374   4.164   3.312  0.8037 -0.8687  0.0753
 3454TIP3    H110368   4.326   4.222   3.252  0.2302  0.0251  1.3606
 3454TIP3    H210369   4.454   4.212   3.332  0.4675 -0.6372  0.9074
 3455TIP3   OH210370   0.866   3.485   1.592  0.3004 -0.6106  0.3949
 3455TIP3    H110371   0.813   3.435   1.529  0.8756  0.6294 -1.1269
 3455TIP3    H210372   0.803   3.519   1.655 -0.6934  0.3458 -1.0542
 3456TIP3   OH210373   1.897   4.271   1.496 -0.4238 -0.5162 -0.0593
 3456TIP3    H110374   1.863   4.310   1.576  0.4458 -0.7227  0.4219
 3456TIP3    H210375   1.875   4.333   1.427 -2.1086 -0.8137  0.1582
 3457TIP3   OH210376   2.363   1.201   1.625 -0.4116 -0.2306 -0.0467
 3457TIP3    H110377   2.454   1.229   1.635 -0.1707 -0.6709 -0.9650
 3457TIP3    H210378   2.348   1.200   1.531 -1.3382 -0.2729  0.0939
 3458TIP3   OH210379   0.824   1.487   4.512  0.2258  0.0135 -0.7214
 3458TIP3    H110380   0.909   1.451   4.537  0.8007  1.3792 -0.6228
 3458TIP3    H210381   0.820   1.475   4.417 -0.4409 -1.9983 -0.4916
 3459TIP3   OH210382   5.896   0.430   2.837 -0.3698 -0.3160 -0.5360
 3459TIP3    H110383   5.822   0.443   2.895  0.0876 -1.2684  0.3003
 3459TIP3    H210384   5.867   0.363   2.775 -1.1871  1.3589 -2.0581
 3460TIP3   OH210385   2.756   5.124   2.213 -0.1151  0.0521  0.3382
 3460TIP3    H110386   2.834   5.081   2.249 -0.6093 -1.0625  0.0933
 3460TIP3    H210387   2.791   5.200   2.166  0.7766 -0.1279  0.6772
 3461TIP3   OH210388   4.515   3.893   1.557  0.8691  0.5947  0.7196
 3461TIP3    H110389   4.610   3.883   1.556  0.8961  0.9091  0.2922
 3461TIP3    H210390   4.487   3.843   1.634  1.0982 -1.9041 -0.7020
 3462TIP3   OH210391   6.078   0.787   2.339 -0.4147  0.3820 -0.1248
 3462TIP3    H110392   6.120   0.759   2.258  0.5106  1.1299  0.0806
 3462TIP3    H210393   6.008   0.724   2.353 -0.3506  0.0367 -1.3140
 3463TIP3   OH210394   1.053   3.803   4.334 -0.1423 -0.1188  0.4978
 3463TIP3    H110395   0.983   3.742   4.357 -0.6385  0.7386  1.2979
 3463TIP3    H210396   1.007   3.884   4.309  0.4991 -0.1094 -0.7245
 3464TIP3   OH210397   2.651   0.430   2.833  0.2843 -0.3010  0.1532
 3464TIP3    H110398   2.729   0.406   2.784 -0.3697 -1.3672 -0.4233
 3464TIP3    H210399   2.645   0.364   2.902 -0.3866 -0.5658 -0.1459
 3465TIP3   OH210400   1.823   0.992   4.701  0.0095 -0.0582 -0.1596
 3465TIP3    H110401   1.740   1.034   4.676 -0.1995 -0.3339  0.0691
 3465TIP3    H210402   1.803   0.948   4.783  0.3720 -0.1694 -0.1333
 3466TIP3   OH210403   4.390   0.253   0.475 -0.3962 -0.1891 -0.3049
 3466TIP3    H110404   4.369   0.341   0.446  0.4401 -0.3289 -1.3877
 3466TIP3    H210405   4.309   0.204   0.466 -0.5774  0.1954 -0.7880
 3467TIP3   OH210406   3.099   5.109   5.000 -0.7378  0.3231 -0.7248
 3467TIP3    H110407   3.030   5.083   4.939 -0.9423  0.4789 -0.5623
 3467TIP3    H210408   3.180   5.097   4.951 -0.3957 -4.3420  0.4776
 3468TIP3   OH210409   5.805   1.057   2.206  0.4306 -0.5820  0.4157
 3468TIP3    H110410   5.808   0.964   2.227  0.3329 -0.6078  0.3236
 3468TIP3    H210411   5.881   1.072   2.149  0.0959 -0.7417 -0.0816
 3469TIP3   OH210412   2.903   2.240   3.321  0.1978 -0.5614  0.5530
 3469TIP3    H110413   2.852   2.311   3.281 -1.2005 -0.6908  1.9855
 3469TIP3    H210414   2.986   2.281   3.345  1.4612 -0.6809 -3.0886
 3470TIP3   OH210415   2.328   3.968   4.613 -0.1499  0.2593 -0.3787
 3470TIP3    H110416   2.410   4.011   4.636  1.0924 -1.5683 -1.1676
 3470TIP3    H210417   2.297   3.930   4.696  0.6597 -0.4176 -0.3781
 3471TIP3   OH210418   3.807   0.437   2.018  0.3237  0.1356  0.5386
 3471TIP3    H110419   3.760   0.419   2.099 -0.2880 -0.0136  0.1601
 3471TIP3    H210420   3.754   0.395   1.950  0.4750  0.8203 -0.0105
 3472TIP3   OH210421   4.804   5.762   2.024  0.7252 -0.0549 -0.0481
 3472TIP3    H110422   4.758   5.712   2.091 -0.1394  0.7582  0.0013
 3472TIP3    H210423   4.893   5.729   2.025  0.1522 -1.6737 -0.1215
 3473TIP3   OH210424   3.688   2.858   1.392  0.1022  0.0902 -0.4199
 3473TIP3    H110425   3.658   2.932   1.339  0.6724  1.9423  1.7375
 3473TIP3    H210426   3.783   2.864   1.389  0.1414  0.2739  0.8587
 3474TIP3   OH210427   0.938   2.768   0.514  0.6720 -0.1582 -0.1531
 3474TIP3    H110428   0.906   2.786   0.603  0.2215 -0.4644 -0.2487
 3474TIP3    H210429   0.908   2.679   0.496 -1.7724  0.8784 -1.7214
 3475TIP3   OH210430   6.003   4.472   3.928 -0.1431  0.5837  1.0458
 3475TIP3    H110431   6.024   4.384   3.959 -1.4965  0.3711  1.4605
 3475TIP3    H210432   6.009   4.467   3.833  0.4952  0.2396  1.1047
 3476TIP3   OH210433   5.058   5.368   0.508  0.0275 -0.1578 -0.6287
 3476TIP3    H110434   5.014   5.451   0.488 -1.1538 -0.7752 -0.6532
 3476TIP3    H210435   5.069   5.326   0.423  3.2309  1.1701 -1.0187
 3477TIP3   OH210436   4.887   4.351   2.880  0.4059 -0.0933  0.0687
 3477TIP3    H110437   4.835   4.271   2.879 -0.0326  0.1758 -0.9954
 3477TIP3    H210438   4.974   4.324   2.908 -0.5416 -0.3750  2.9912
 3478TIP3   OH210439   4.319   5.548   4.634  0.4035  0.2108  0.6318
 3478TIP3    H110440   4.320   5.622   4.573  1.5451 -0.0077  0.3590
 3478TIP3    H210441   4.227   5.526   4.644 -0.0105  1.9617  1.0838
 3479TIP3   OH210442   4.635   3.643   1.926 -0.2189  0.5873 -0.1180
 3479TIP3    H110443   4.706   3.706   1.914 -0.6469  1.3737  1.2328
 3479TIP3    H210444   4.566   3.673   1.866  0.5612 -0.2016 -1.4605
 3480TIP3   OH210445   6.223   4.046   3.812  0.0428 -0.3617  0.1780
 3480TIP3    H110446   6.300   3.993   3.792  1.2446  0.6211  1.8470
 3480TIP3    H210447   6.157   4.020   3.748  1.5049 -1.8125 -0.7991
 3481TIP3   OH210448   2.679   2.497   4.704  0.4608 -0.1158 -0.4336
 3481TIP3    H110449   2.638   2.565   4.759  2.2560  0.7122 -0.0650
 3481TIP3    H210450   2.704   2.543   4.624 -1.6404 -1.1989 -1.8158
 3482TIP3   OH210451   0.555   3.079   4.038  0.2049 -0.5151 -0.1207
 3482TIP3    H110452   0.628   3.025   4.069 -0.2352 -0.2802  1.3770
 3482TIP3    H210453   0.482   3.017   4.029 -0.1923 -0.2807  1.2236
 3483TIP3   OH210454   5.954   4.767   3.688  0.7758 -0.3619  0.1589
 3483TIP3    H110455   5.946   4.862   3.676 -0.1588 -0.2898  1.2157
 3483TIP3    H210456   6.048   4.751   3.690  0.9926  0.2757 -1.8230
 3484TIP3   OH210457   3.824   4.189   1.259  0.2532  0.0387 -0.3799
 3484TIP3    H110458   3.779   4.232   1.187  0.3304  0.6998 -0.0436
 3484TIP3    H210459   3.881   4.124   1.217 -0.2449 -0.0886 -0.8610
 3485TIP3   OH210460   2.385   4.145   0.539 -0.4020 -0.2260 -1.1478
 3485TIP3    H110461   2.437   4.114   0.613 -3.2576  2.7552  2.5405
 3485TIP3    H210462   2.449   4.181   0.478  2.2311  3.5596  3.1957
 3486TIP3   OH210463   0.338   0.674   1.619  0.1937  0.0150 -0.1738
 3486TIP3    H110464   0.316   0.668   1.712 -1.5139  1.7977 -0.4019
 3486TIP3    H210465   0.316   0.588   1.583  0.4508 -0.5455  0.9606
 3487TIP3   OH210466   2.686   0.237   5.130 -0.2491  0.1194  0.3714
 3487TIP3    H110467   2.765   0.191   5.157 -0.5312 -0.3672  0.3683
 3487TIP3    H210468   2.697   0.326   5.165  0.2338  0.0194  0.4822
 3488TIP3   OH210469   3.891   5.156   1.297 -0.4896 -0.0185 -0.9664
 3488TIP3    H110470   3.811   5.104   1.306 -0.8932  0.5144 -1.4383
 3488TIP3    H210471   3.937   5.143   1.380 -1.9176  1.0756  0.0423
 3489TIP3   OH210472   3.063   3.238   3.966 -0.0137 -0.2063 -0.5497
 3489TIP3    H110473   3.072   3.146   3.989 -3.0967 -0.3997  0.3027
 3489TIP3    H210474   3.083   3.285   4.048  0.7568 -0.1257 -0.7713
 3490TIP3   OH210475   5.536   2.599   0.972  1.1585  0.4791  0.3756
 3490TIP3    H110476   5.501   2.509   0.977  0.9578  0.6085  1.7034
 3490TIP3    H210477   5.590   2.608   1.050 -0.0709  2.0154  1.0971
 3491TIP3   OH210478   1.653   1.934   2.945 -0.7425  0.1761  0.8739
 3491TIP3    H110479   1.740   1.972   2.955 -1.2199  0.7807  3.8640
 3491TIP3    H210480   1.669   1.842   2.927  0.5332  0.3225  1.1470
 3492TIP3   OH210481   1.518   0.863   1.200 -0.2044 -0.7148  0.6656
 3492TIP3    H110482   1.489   0.778   1.233 -0.9711 -1.4937 -1.8410
 3492TIP3    H210483   1.456   0.925   1.239 -0.8790 -1.5281  0.9380
 3493TIP3   OH210484   4.361   1.949   0.288 -0.1960  0.3618 -0.6608
 3493TIP3    H110485   4.427   1.985   0.230  0.9376 -2.5137 -1.3245
 3493TIP3    H210486   4.380   1.988   0.374  2.9027 -0.8862 -0.6583
 3494TIP3   OH210487   1.680   1.581   1.144  0.5166  0.0436 -0.8061
 3494TIP3    H110488   1.749   1.534   1.098  1.1315 -1.5311  1.5905
 3494TIP3    H210489   1.654   1.651   1.083  1.9269 -1.3041 -3.0823
 3495TIP3   OH210490   1.059   1.333   2.759 -0.3126 -0.8240 -0.4647
 3495TIP3    H110491   1.018   1.257   2.800 -1.1868 -0.1442 -0.0308
 3495TIP3    H210492   1.010   1.347   2.678  0.5460 -1.3582 -1.0903
 3496TIP3   OH210493   1.568   0.281   1.197  0.2716  0.0636  0.5388
 3496TIP3    H110494   1.518   0.363   1.205 -1.9710 -1.3821  2.3317
 3496TIP3    H210495   1.513   0.225   1.142  0.8146 -0.9421  1.0086
 3497TIP3   OH210496   0.629   3.495   3.128 -0.2699 -0.6067  0.2467
 3497TIP3    H110497   0.664   3.406   3.127  2.2045  0.2515  1.3141
 3497TIP3    H210498   0.700   3.548   3.164 -1.7819  1.7681 -0.0355
 3498TIP3   OH210499   3.745   3.428   3.688 -0.5746 -0.1359  0.3336
 3498TIP3    H110500   3.837   3.451   3.698 -0.3334 -1.3065  0.8640
 3498TIP3    H210501   3.705   3.450   3.772 -0.9440  1.0234 -0.1197
 3499TIP3   OH210502   0.586   3.193   0.284  0.2728  0.4206 -0.1510
 3499TIP3    H110503   0.626   3.122   0.234 -1.6155 -1.8727  1.3790
 3499TIP3    H210504   0.659   3.246   0.315  1.9944 -2.2470  0.6142
 3500TIP3   OH210505   5.423   4.978   1.603  0.3400  0.3782 -1.2991
 3500TIP3    H110506   5.505   5.021   1.626 -0.2701  1.4260 -1.0476
 3500TIP3    H210507   5.449   4.888   1.580  1.2491 -0.1400  1.4033
 3501TIP3   OH210508   2.693   3.183   3.519 -0.4106  0.6044  0.5456
 3501TIP3    H110509   2.730   3.122   3.583 -2.7394 -0.2597  1.1720
 3501TIP3    H210510   2.711   3.142   3.435 -2.9290 -1.6677  0.9961
 3502TIP3   OH210511   2.677   0.737   1.289 -0.3823  0.0485  0.0908
 3502TIP3    H110512   2.747   0.688   1.332 -1.5225 -1.2489  0.5435
 3502TIP3    H210513   2.722   0.804   1.239  1.1630 -0.4990  0.6873
 3503TIP3   OH210514   0.654   3.125   0.586 -0.2245  0.4246 -0.3545
 3503TIP3    H110515   0.670   3.190   0.517  0.6091 -0.1033 -0.6659
 3503TIP3    H210516   0.599   3.171   0.649  1.3320  1.8497  0.0277
 3504TIP3   OH210517   3.436   1.874   4.068 -0.4758 -0.5146  0.1687
 3504TIP3    H110518   3.397   1.951   4.028 -1.3380  0.1253  2.1434
 3504TIP3    H210519   3.420   1.804   4.004 -2.8272  0.2115 -0.1520
 3505TIP3   OH210520   1.394   2.188   3.736 -0.6609  0.3427 -0.4621
 3505TIP3    H110521   1.310   2.204   3.779 -0.3906 -0.3862  0.3642
 3505TIP3    H210522   1.374   2.122   3.669 -0.7380  0.1741 -0.2714
 3506TIP3   OH210523   4.232   5.134   2.340  0.3367  0.6504  0.9305
 3506TIP3    H110524   4.304   5.190   2.368  1.1572 -0.2853  0.7124
 3506TIP3    H210525   4.213   5.162   2.250  0.7997  0.5242  0.7938
 3507TIP3   OH210526   6.186   3.310   4.830 -0.0206  0.2565 -0.6859
 3507TIP3    H110527   6.240   3.285   4.905 -1.1509 -0.7826 -0.1786
 3507TIP3    H210528   6.245   3.308   4.755  0.7183 -0.4791 -0.0955
 3508TIP3   OH210529   6.021   3.407   0.471 -0.5225  0.2386  0.3982
 3508TIP3    H110530   6.009   3.485   0.416  1.1464  0.8236  0.8309
 3508TIP3    H210531   6.000   3.437   0.560  2.3501  0.9027  0.9481
 3509TIP3   OH210532   1.300   2.077   0.365  0.3570 -0.1003  0.3832
 3509TIP3    H110533   1.302   2.133   0.287  0.6553 -0.3795  0.1855
 3509TIP3    H210534   1.207   2.066   0.385  0.2099 -1.1087 -0.7194
 3510TIP3   OH210535   3.788   1.684   4.457 -0.3018 -0.2852 -0.0687
 3510TIP3    H110536   3.827   1.605   4.420 -0.0981  0.0866 -0.6569
 3510TIP3    H210537   3.850   1.712   4.524 -0.6319 -0.9150  0.5175
 3511TIP3   OH210538   0.298   2.633   1.415 -0.2016 -0.7571  0.2113
 3511TIP3    H110539   0.209   2.666   1.424  0.0603 -0.1532  0.6504
 3511TIP3    H210540   0.332   2.676   1.336  0.7217  1.4461  1.7087
 3512TIP3   OH210541  -0.023   0.937   5.025  0.4740 -0.3464 -0.7025
 3512TIP3    H110542   0.053   0.994   5.016  1.3205 -1.5121 -1.1142
 3512TIP3    H210543  -0.028   0.891   4.941 -0.1828 -0.8985 -0.3696
 3513TIP3   OH210544   0.392   1.968   0.249 -0.0107 -0.0342  0.3533
 3513TIP3    H110545   0.365   2.014   0.329  0.9591 -0.0088  0.6735
 3513TIP3    H210546   0.315   1.971   0.192 -0.7142 -0.0630  1.2911
 3514TIP3   OH210547   3.281   4.427   1.421  0.0158 -0.2720 -0.1965
 3514TIP3    H110548   3.257   4.335   1.421 -0.7691 -0.0733  0.2620
 3514TIP3    H210549   3.241   4.463   1.342  1.2175 -0.5328 -0.9566
 3515TIP3   OH210550   4.933   4.799   1.113 -0.4059  0.3748  0.0860
 3515TIP3    H110551   4.849   4.756   1.133 -0.1940 -0.3014 -0.4239
 3515TIP3    H210552   4.908   4.885   1.079 -0.7923  1.2342  2.3896
 3516TIP3   OH210553   5.348   5.885   3.714  0.4420  0.4575 -0.6473
 3516TIP3    H110554   5.416   5.831   3.674 -0.1633  0.6424 -1.9923
 3516TIP3    H210555   5.374   5.893   3.805  0.2676 -2.5622 -0.2454
 3517TIP3   OH210556   4.061   1.025   0.325 -0.0882 -0.2419 -0.3678
 3517TIP3    H110557   3.974   1.010   0.362 -0.4690 -0.2911 -1.2475
 3517TIP3    H210558   4.044   1.057   0.236  0.7658  1.5022  0.0577
 3518TIP3   OH210559   2.875   5.871   1.730 -0.0122 -0.3523 -0.1456
 3518TIP3    H110560   2.812   5.941   1.711 -0.0767  0.0583  1.4377
 3518TIP3    H210561   2.839   5.827   1.807  0.5341 -1.5156 -0.5338
 3519TIP3   OH210562   1.629   0.665   2.712  0.1150 -0.2683 -0.2220
 3519TIP3    H110563   1.544   0.658   2.666  1.0219 -1.1495 -1.8721
 3519TIP3    H210564   1.663   0.750   2.686 -0.0328 -0.1251  0.0457
 3520TIP3   OH210565   5.224   0.816   4.764 -0.5060 -0.0251 -0.2909
 3520TIP3    H110566   5.135   0.835   4.735 -1.1246 -0.7078  1.0600
 3520TIP3    H210567   5.215   0.798   4.858  0.3344 -4.4040 -0.8621
 3521TIP3   OH210568   4.258   5.446   0.645 -0.8569 -0.0007  0.4638
 3521TIP3    H110569   4.327   5.437   0.711 -1.7305 -1.3871  1.2476
 3521TIP3    H210570   4.250   5.540   0.632  0.6529  0.2234  0.9125
 3522TIP3   OH210571   5.804   2.920   4.402 -0.6182  0.5931  0.7257
 3522TIP3    H110572   5.718   2.954   4.375 -1.0882 -1.4483 -0.6578
 3522TIP3    H210573   5.789   2.826   4.411  1.0390  0.4549  2.4362
 3523TIP3   OH210574   0.735   0.153   4.218 -0.7541 -0.3197 -0.2067
 3523TIP3    H110575   0.780   0.233   4.243 -0.7114 -0.1465 -0.8223
 3523TIP3    H210576   0.777   0.126   4.136  0.1512 -1.7082  0.6835
 3524TIP3   OH210577   0.112   5.528   4.471  0.3461 -0.2157  0.0061
 3524TIP3    H110578   0.201   5.521   4.439  0.0033 -1.2440 -0.7515
 3524TIP3    H210579   0.090   5.621   4.459  1.0588 -0.0999 -0.4820
 3525TIP3   OH210580   2.843   2.308   4.506  0.2450  0.4006  0.2952
 3525TIP3    H110581   2.758   2.350   4.521 -0.0745 -0.2124  0.2181
 3525TIP3    H210582   2.906   2.380   4.514 -0.2822  0.8778  0.2833
 3526TIP3   OH210583   2.809   4.821   3.096 -0.3239  0.1451  0.1968
 3526TIP3    H110584   2.798   4.852   3.006  0.8084  0.2790  0.0920
 3526TIP3    H210585   2.838   4.898   3.145 -2.4710  0.4891  1.0509
 3527TIP3   OH210586   0.818   3.701   3.182 -0.0983 -0.2518 -0.1871
 3527TIP3    H110587   0.852   3.762   3.247 -0.7261  0.3244 -0.3820
 3527TIP3    H210588   0.752   3.752   3.134  0.5693 -0.5657 -1.4829
 3528TIP3   OH210589   3.848   4.677   2.434 -0.0727 -0.3288 -0.0339
 3528TIP3    H110590   3.903   4.697   2.509 -0.0839  0.0783 -0.1322
 3528TIP3    H210591   3.795   4.602   2.462 -0.3183  0.0342  0.4766
 3529TIP3   OH210592   3.595   5.465   0.535  0.5448 -0.2298  0.3725
 3529TIP3    H110593   3.642   5.548   0.543  0.0407  0.2683 -1.2797
 3529TIP3    H210594   3.662   5.398   0.546  1.2756  0.4379  0.1038
 3530TIP3   OH210595   2.134   5.921   4.482 -0.1675  0.6545 -0.0472
 3530TIP3    H110596   2.199   5.953   4.419  1.1575 -0.4892  0.6783
 3530TIP3    H210597   2.084   5.999   4.506  0.4027  1.4209 -1.2337
 3531TIP3   OH210598   1.039   3.497   0.357  0.6861 -0.7554  0.3679
 3531TIP3    H110599   1.049   3.556   0.283  0.3289  1.9968  2.3457
 3531TIP3    H210600   1.071   3.413   0.325 -0.2583  0.0281 -3.1266
 3532TIP3   OH210601   5.603   1.828   1.410  0.1350 -0.3478  0.4352
 3532TIP3    H110602   5.556   1.912   1.412  0.6991  0.0030  3.3530
 3532TIP3    H210603   5.546   1.768   1.458  1.2284 -0.7100  1.3309
 3533TIP3   OH210604   1.849   2.702   3.204  0.0720  0.0281 -0.2441
 3533TIP3    H110605   1.776   2.743   3.157  0.4290  0.1619 -0.6875
 3533TIP3    H210606   1.874   2.766   3.271 -0.1656  0.0139 -0.1416
 3534TIP3   OH210607   5.132   4.376   4.771 -0.0959  0.3354  0.0316
 3534TIP3    H110608   5.053   4.352   4.818 -1.8271  0.9094 -2.3814
 3534TIP3    H210609   5.137   4.472   4.778  0.8766  0.2420  0.8499
 3535TIP3   OH210610   1.992   2.154   1.517 -0.0614 -0.2805  0.0267
 3535TIP3    H110611   2.004   2.137   1.611 -1.1500 -0.5429  0.1308
 3535TIP3    H210612   1.927   2.224   1.513  0.5928  0.3068 -0.5241
 3536TIP3   OH210613   2.752   1.987   2.265  0.2230 -0.6419  0.0465
 3536TIP3    H110614   2.764   1.894   2.246 -1.5956 -0.9045 -0.0505
 3536TIP3    H210615   2.751   2.029   2.179 -0.0897 -0.7157  0.0097
 3537TIP3   OH210616   3.514   0.269   5.074  0.4048  0.0440 -0.0157
 3537TIP3    H110617   3.455   0.344   5.077  1.6681  1.1465 -1.1835
 3537TIP3    H210618   3.457   0.193   5.068 -0.8934  0.9979 -0.0420
 3538TIP3   OH210619   1.259   1.010   1.795 -0.5616 -0.7880 -0.3326
 3538TIP3    H110620   1.299   0.993   1.710 -0.7717 -2.4138 -0.1448
 3538TIP3    H210621   1.172   0.970   1.789 -1.5924  1.2915 -0.1885
 3539TIP3   OH210622   1.708   2.651   2.770  0.5082 -0.5198  0.4469
 3539TIP3    H110623   1.724   2.556   2.765  0.9037 -0.5071  1.2890
 3539TIP3    H210624   1.764   2.681   2.841 -0.9816  0.0457  1.4347
 3540TIP3   OH210625   4.685   0.545   1.781  0.5074 -0.1060 -0.0975
 3540TIP3    H110626   4.765   0.597   1.773 -0.7780  1.7751 -1.9138
 3540TIP3    H210627   4.646   0.574   1.864  0.6878  0.5270 -0.2268
 3541TIP3   OH210628   1.182   5.312   2.332  0.3826  0.7261  0.2503
 3541TIP3    H110629   1.196   5.307   2.427 -1.4624  2.0507  0.6521
 3541TIP3    H210630   1.107   5.256   2.316  0.7172  0.4678 -0.4594
 3542TIP3   OH210631   0.033   2.124   1.390 -0.1867 -0.5731 -0.3416
 3542TIP3    H110632   0.063   2.129   1.299  0.9948 -1.9693 -0.0618
 3542TIP3    H210633   0.106   2.157   1.442 -0.3177 -1.0803  0.1814
 3543TIP3   OH210634   0.556   1.183   1.668  0.4769 -0.5285 -0.9439
 3543TIP3    H110635   0.542   1.275   1.692  0.4218 -0.7797  0.0262
 3543TIP3    H210636   0.618   1.151   1.732 -1.7111 -1.9554  0.6011
 3544TIP3   OH210637   1.002   1.138   1.418 -0.0797 -0.8326 -0.1260
 3544TIP3    H110638   0.955   1.177   1.490  0.4707  1.3144 -0.8540
 3544TIP3    H210639   0.965   1.179   1.339  1.5437 -0.6273 -0.8302
 3545TIP3   OH210640   6.085   2.332   2.848 -0.6852 -0.0264 -0.2394
 3545TIP3    H110641   6.021   2.354   2.780  1.3333 -0.6089 -2.4576
 3545TIP3    H210642   6.033   2.289   2.916 -2.6922 -0.2729 -1.8188
 3546TIP3   OH210643   6.270   2.769   1.711 -0.4751  0.0778 -0.4861
 3546TIP3    H110644   6.273   2.865   1.715  0.7688  0.0229  0.2909
 3546TIP3    H210645   6.295   2.740   1.798  3.2332 -0.9853 -1.7298
 3547TIP3   OH210646   5.598   0.886   3.246  0.6989 -0.2631 -0.1096
 3547TIP3    H110647   5.505   0.891   3.222  0.9504 -0.4031 -1.1543
 3547TIP3    H210648   5.603   0.813   3.307  0.1930 -0.5467 -0.3976
 3548TIP3   OH210649   3.602   5.191   2.021 -0.0133  0.0100 -0.4748
 3548TIP3    H110650   3.623   5.193   2.114  0.6470  0.7285 -0.6272
 3548TIP3    H210651   3.509   5.216   2.018  0.0254  0.2339 -0.0194
 3549TIP3   OH210652   5.988   3.495   0.730 -0.2441 -0.0256 -0.6596
 3549TIP3    H110653   5.926   3.472   0.799  0.5853 -0.4775 -0.0460
 3549TIP3    H210654   6.069   3.518   0.777 -0.9289  4.2126 -1.1630
 3550TIP3   OH210655   0.602   4.735   0.221 -0.2439 -0.0524  0.0026
 3550TIP3    H110656   0.559   4.684   0.153  0.2635 -1.5404  0.7426
 3550TIP3    H210657   0.535   4.747   0.289 -0.1237 -0.4790  0.1988
 3551TIP3   OH210658   2.640   5.296   4.509  0.9896 -0.3106  0.3944
 3551TIP3    H110659   2.594   5.306   4.425  0.8511 -2.4142  0.1823
 3551TIP3    H210660   2.703   5.226   4.494  2.4164  0.6641  1.4930
 3552TIP3   OH210661   0.115   4.117   1.769 -0.4838  0.3388 -0.1239
 3552TIP3    H110662   0.122   4.071   1.685 -0.4118 -0.2490  0.2049
 3552TIP3    H210663   0.047   4.183   1.754 -1.7259 -0.8985 -0.1259
 3553TIP3   OH210664   6.076   5.610   1.527 -0.0217 -0.1672  0.1098
 3553TIP3    H110665   6.150   5.611   1.466  1.6409  0.4492  2.0438
 3553TIP3    H210666   6.081   5.525   1.570  1.0521  0.7428  1.9008
 3554TIP3   OH210667   0.358   0.552   2.856 -0.0563 -0.0101 -0.0278
 3554TIP3    H110668   0.268   0.583   2.844  0.2525  0.3356 -1.6462
 3554TIP3    H210669   0.391   0.603   2.930 -0.8670  0.5993 -0.0792
 3555TIP3   OH210670   5.398   5.921   1.831 -0.3377  0.0576 -0.1517
 3555TIP3    H110671   5.372   6.012   1.814  0.2842  0.4461  0.9091
 3555TIP3    H210672   5.445   5.924   1.914 -0.8521 -1.3383  0.2254
 3556TIP3   OH210673   1.588   0.788   4.799 -0.1503  0.1418 -0.0780
 3556TIP3    H110674   1.518   0.851   4.820 -0.3150 -0.1638  0.3179
 3556TIP3    H210675   1.570   0.761   4.709  0.4663  1.3539 -0.5902
 3557TIP3   OH210676   4.157   4.481   1.835 -0.4197 -0.3483 -0.0471
 3557TIP3    H110677   4.089   4.414   1.822 -0.2367 -0.7307  0.8315
 3557TIP3    H210678   4.108   4.560   1.858 -0.5798 -0.6110  0.5368
 3558TIP3   OH210679   4.348   2.070   2.513 -0.4462  0.2899 -0.4918
 3558TIP3    H110680   4.440   2.052   2.535 -0.2160  1.2049 -0.6664
 3558TIP3    H210681   4.303   1.987   2.529  0.0411  0.3599  1.5761
 3559TIP3   OH210682   6.330   3.992   1.990  0.3119  0.1562  0.4336
 3559TIP3    H110683   6.260   3.936   1.957 -2.5829  2.6272  1.8064
 3559TIP3    H210684   6.377   4.021   1.912 -2.1339  0.7034 -0.9415
 3560TIP3   OH210685   5.669   4.224   1.798 -0.0199  0.1664 -0.3421
 3560TIP3    H110686   5.631   4.312   1.805 -0.8601 -0.1191 -1.0838
 3560TIP3    H210687   5.763   4.238   1.805 -0.1474  1.1249 -0.3585
 3561TIP3   OH210688   0.002   4.893   0.353 -0.0339 -0.4390 -0.1595
 3561TIP3    H110689  -0.036   4.967   0.402 -1.3716  0.7712 -2.7979
 3561TIP3    H210690   0.096   4.903   0.364 -0.2117  1.3614  0.0267
 3562TIP3   OH210691   4.807   1.497   3.052 -0.1599 -0.1091 -0.2108
 3562TIP3    H110692   4.783   1.489   3.144 -0.2146  0.0678 -0.2100
 3562TIP3    H210693   4.724   1.516   3.007 -0.4967 -2.1336 -0.5529
 3563TIP3   OH210694   1.115   4.895   0.524 -0.4043 -0.0546  0.1123
 3563TIP3    H110695   1.145   4.806   0.507  2.9803  1.1718 -1.1853
 3563TIP3    H210696   1.116   4.938   0.438 -0.8091  1.5441  0.8655
 3564TIP3   OH210697   2.732   4.238   3.831  0.4678 -0.1452  0.0785
 3564TIP3    H110698   2.806   4.177   3.828  0.5656 -0.0415  0.3399
 3564TIP3    H210699   2.747   4.297   3.757  0.0449 -0.8119 -0.5483
 3565TIP3   OH210700   1.102   3.802   1.320  0.3004 -0.5239  0.1694
 3565TIP3    H110701   1.103   3.873   1.385 -1.1536  0.4349 -0.7872
 3565TIP3    H210702   1.035   3.742   1.352 -1.3887  0.6223 -1.0474
 3566TIP3   OH210703   1.330   4.488   2.515 -0.2817 -0.1386 -0.4007
 3566TIP3    H110704   1.298   4.494   2.605 -1.9177 -0.7709 -0.9051
 3566TIP3    H210705   1.392   4.561   2.507 -0.1082 -0.0580  1.2154
 3567TIP3   OH210706   3.714   5.972   1.950  0.8489  0.6091 -0.5135
 3567TIP3    H110707   3.708   5.896   1.893 -1.0612 -0.2681  0.7624
 3567TIP3    H210708   3.804   5.970   1.983 -0.1400 -3.7897  2.8581
 3568TIP3   OH210709   2.821   5.666   4.380  0.5305 -0.2977  0.2869
 3568TIP3    H110710   2.893   5.676   4.442  0.9208  0.0439 -0.2149
 3568TIP3    H210711   2.744   5.650   4.435  1.0959 -1.3249  0.8027
 3569TIP3   OH210712   0.708   4.614   3.578 -0.6361 -0.5352  0.0905
 3569TIP3    H110713   0.670   4.657   3.655  0.5680 -3.1376  2.2910
 3569TIP3    H210714   0.633   4.580   3.530 -1.3656 -0.0115  0.8255
 3570TIP3   OH210715   4.367   1.937   0.760 -0.0863  0.0765 -0.2844
 3570TIP3    H110716   4.340   1.987   0.682 -1.9889 -1.6034 -0.7751
 3570TIP3    H210717   4.421   1.866   0.725  1.3949  0.8982  0.2628
 3571TIP3   OH210718   6.253   5.283   1.370  0.2957  0.0985 -0.7260
 3571TIP3    H110719   6.307   5.362   1.383  1.1492 -0.7272  1.2022
 3571TIP3    H210720   6.213   5.267   1.456 -0.3714 -1.2115 -1.2512
 3572TIP3   OH210721   5.619   0.728   1.696  0.7615  0.5756 -0.1431
 3572TIP3    H110722   5.676   0.686   1.631  0.0258 -0.3626 -0.2065
 3572TIP3    H210723   5.616   0.820   1.670  0.6829  0.2654 -1.2901
 3573TIP3   OH210724   0.933   4.516   4.883  0.0526  0.0097  0.0770
 3573TIP3    H110725   0.931   4.462   4.804  0.4218 -0.3265  0.2919
 3573TIP3    H210726   0.930   4.452   4.955  1.6301  0.2017  0.3501
 3574TIP3   OH210727   2.997   3.740   3.516 -0.8471 -0.4118 -0.1981
 3574TIP3    H110728   3.048   3.665   3.545  1.8727  1.5932  0.6543
 3574TIP3    H210729   2.913   3.731   3.561 -0.7430 -3.0169 -0.3748
 3575TIP3   OH210730   2.817   1.004   3.456 -0.0655 -0.2771  0.2393
 3575TIP3    H110731   2.844   0.965   3.539 -0.4908 -0.1849  0.4245
 3575TIP3    H210732   2.789   0.930   3.403  0.8721 -0.4136 -0.0863
 3576TIP3   OH210733   0.984   2.010   4.325 -0.0294  0.0584  0.2005
 3576TIP3    H110734   0.938   1.948   4.383  1.4222 -0.8990  0.3835
 3576TIP3    H210735   1.074   1.979   4.324  0.8032  2.3053  0.4385
 3577TIP3   OH210736   1.202   2.205   3.505 -0.5090 -0.3417 -0.3515
 3577TIP3    H110737   1.139   2.235   3.571 -0.1987  1.1014 -0.6588
 3577TIP3    H210738   1.228   2.118   3.534  1.2367  1.0140  2.7222
 3578TIP3   OH210739   0.597   4.511   0.400  0.0677  0.2364  0.3779
 3578TIP3    H110740   0.609   4.604   0.381  1.8295  0.4914  2.3522
 3578TIP3    H210741   0.661   4.466   0.345 -1.4444  0.0508 -1.3006
 3579TIP3   OH210742   5.216   0.261   0.758  0.5531  0.0030 -0.0658
 3579TIP3    H110743   5.289   0.305   0.715 -0.1885  2.1050  0.6916
 3579TIP3    H210744   5.143   0.269   0.697 -0.2105  2.0391  1.0063
 3580TIP3   OH210745   5.869   1.121   2.584  0.1385  0.1008  0.1541
 3580TIP3    H110746   5.790   1.083   2.546 -0.3350 -0.9959  2.0934
 3580TIP3    H210747   5.909   1.171   2.513 -2.0244  0.2624 -1.0094
 3581TIP3   OH210748   4.055   4.033   3.014  0.6392 -0.0731 -0.0307
 3581TIP3    H110749   3.981   4.092   3.029  0.5127 -0.3880  0.6382
 3581TIP3    H210750   4.081   4.048   2.924  0.5359  0.9256  0.1038
 3582TIP3   OH210751   5.505   5.096   0.051  0.0130  0.2661 -0.1171
 3582TIP3    H110752   5.561   5.100  -0.027 -0.9972 -3.4016 -1.2381
 3582TIP3    H210753   5.555   5.044   0.114 -0.1314  1.2575  0.8521
 3583TIP3   OH210754   2.033   1.605   2.304 -0.6487 -0.1554 -0.1526
 3583TIP3    H110755   2.095   1.663   2.348 -2.5003  2.2110 -0.4717
 3583TIP3    H210756   2.084   1.562   2.236  1.2130 -0.4167  1.3112
 3584TIP3   OH210757   2.968   5.503   4.142 -0.2000  0.3240  0.4940
 3584TIP3    H110758   3.058   5.475   4.127 -0.0265  0.9379  0.3527
 3584TIP3    H210759   2.959   5.583   4.090 -1.3277 -0.5988 -0.8316
 3585TIP3   OH210760   5.606   3.008   0.567  0.2056  0.1413  0.6322
 3585TIP3    H110761   5.567   3.014   0.480  1.2740  0.9399  0.1742
 3585TIP3    H210762   5.615   2.915   0.583  0.0522 -0.0134 -0.1489
 3586TIP3   OH210763   1.824   0.183   4.044 -0.0797  0.8527 -0.1159
 3586TIP3    H110764   1.729   0.194   4.043 -0.8365 -3.4607  1.3745
 3586TIP3    H210765   1.852   0.229   4.123 -1.8941 -1.8605  2.3554
 3587TIP3   OH210766   2.353   2.322   1.639 -0.5066  0.2676 -0.0758
 3587TIP3    H110767   2.428   2.376   1.613  1.0804 -1.4905  0.6189
 3587TIP3    H210768   2.333   2.270   1.561 -0.0558 -0.2844  0.1717
 3588TIP3   OH210769   4.759   3.043   1.059 -0.2653  0.1293  0.2985
 3588TIP3    H110770   4.851   3.057   1.040 -0.4952  1.1305 -0.1232
 3588TIP3    H210771   4.748   3.073   1.149 -0.0979 -0.4130  0.5054
 3589TIP3   OH210772   1.262   3.609   4.288  0.1718  0.2877  0.2015
 3589TIP3    H110773   1.248   3.559   4.208  1.7314  0.1800 -0.0353
 3589TIP3    H210774   1.200   3.681   4.283 -0.4066 -0.2508 -0.6332
 3590TIP3   OH210775   2.002   3.968   0.270 -0.1337  0.0659 -0.3177
 3590TIP3    H110776   2.009   3.883   0.226  0.4180  0.7981 -1.7402
 3590TIP3    H210777   2.093   3.998   0.276 -0.3379  0.6022  0.0626
 3591TIP3   OH210778   0.412   4.573   1.869  0.4709 -0.2959 -0.3637
 3591TIP3    H110779   0.321   4.562   1.898  0.0122  0.1062 -1.5454
 3591TIP3    H210780   0.411   4.657   1.821  1.4825 -0.2520 -0.3233
 3592TIP3   OH210781   3.465   1.117   3.383 -0.1001  0.0528  0.2563
 3592TIP3    H110782   3.442   1.067   3.304 -1.1076 -2.8560  2.2311
 3592TIP3    H210783   3.561   1.120   3.382 -0.0409 -1.2102 -0.3842
 3593TIP3   OH210784   3.520   3.612   3.526  0.0777  0.1426  0.2416
 3593TIP3    H110785   3.591   3.629   3.588 -0.8008  1.1232  1.0177
 3593TIP3    H210786   3.442   3.604   3.581 -0.7533  1.1817 -0.7471
 3594TIP3   OH210787   0.425   3.570   0.706  0.6497  0.2979  0.3074
 3594TIP3    H110788   0.453   3.661   0.698  0.5537  0.2380 -0.9337
 3594TIP3    H210789   0.330   3.576   0.719  0.7080  0.3872  0.6983
 3595TIP3   OH210790   0.239   5.264   4.157  0.4288 -0.2373 -0.0989
 3595TIP3    H110791   0.191   5.338   4.119 -0.0949 -0.2437  0.5401
 3595TIP3    H210792   0.324   5.266   4.113  1.0079  1.6867  1.0096
 3596TIP3   OH210793   0.092   4.651   3.334  0.3421  0.6248 -0.3722
 3596TIP3    H110794   0.150   4.709   3.384  0.3645 -0.2996  0.7175
 3596TIP3    H210795   0.006   4.663   3.373 -0.1290  1.6001 -1.6436
 3597TIP3   OH210796   0.055   4.231   0.374  0.0911  0.1491 -0.3727
 3597TIP3    H110797   0.108   4.310   0.360 -1.9460  1.5716 -0.6345
 3597TIP3    H210798   0.030   4.203   0.286 -0.4444  0.1438 -0.2252
 3598TIP3   OH210799   0.764   0.979   0.076 -0.5486  0.1320 -0.1890
 3598TIP3    H110800   0.793   0.901   0.029  0.1863 -0.3945  1.1090
 3598TIP3    H210801   0.811   1.051   0.034 -0.7030 -0.1829 -0.9292
 3599TIP3   OH210802   2.289   0.580   1.480  0.1268 -0.3378  0.7568
 3599TIP3    H110803   2.244   0.496   1.482 -0.9230  0.1974  0.2214
 3599TIP3    H210804   2.225   0.643   1.513  0.7566  0.3187  0.7611
 3600TIP3   OH210805   2.804   2.819   5.104 -0.6822 -0.5851  0.2678
 3600TIP3    H110806   2.747   2.874   5.049 -1.6740 -1.1501  0.7112
 3600TIP3    H210807   2.867   2.782   5.042 -0.7567  0.0901 -0.2276
 3601TIP3   OH210808   4.117   0.028   2.389  0.5739  0.0033 -0.3836
 3601TIP3    H110809   4.185   0.092   2.367 -0.0858  0.7616 -0.2385
 3601TIP3    H210810   4.159  -0.057   2.375  1.5532  0.4599 -0.3115
 3602TIP3   OH210811   4.163   5.718   0.836 -0.0603 -0.4549  0.0627
 3602TIP3    H110812   4.113   5.642   0.866 -1.1133 -0.2762 -1.1769
 3602TIP3    H210813   4.129   5.791   0.888 -0.6495 -0.4493 -0.3197
 3603TIP3   OH210814   2.950   5.053   1.919 -0.1683 -0.7794 -0.6862
 3603TIP3    H110815   3.019   5.002   1.963 -0.8880 -1.3037 -0.1363
 3603TIP3    H210816   2.893   4.986   1.880 -1.7235 -0.4671  0.9423
 3604TIP3   OH210817   6.243   0.194   2.483 -0.3660 -0.1006 -0.3643
 3604TIP3    H110818   6.204   0.111   2.454  2.1081 -0.9677 -1.5222
 3604TIP3    H210819   6.172   0.240   2.528 -2.3688 -1.9724 -1.4310
 3605TIP3   OH210820   3.363   3.309   4.986 -0.3287 -0.1053 -0.1608
 3605TIP3    H110821   3.376   3.399   5.015 -0.8427  0.0580 -0.4198
 3605TIP3    H210822   3.443   3.288   4.938  0.7350 -0.5451  1.7193
 3606TIP3   OH210823   1.772   5.623   4.777  0.3602  0.3853  0.1436
 3606TIP3    H110824   1.709   5.619   4.705  1.4734  1.1908 -0.9143
 3606TIP3    H210825   1.847   5.669   4.740  1.6704 -0.7399  1.2976
 3607TIP3   OH210826   4.259   2.939   2.581 -0.2043  0.3358 -0.4138
 3607TIP3    H110827   4.290   2.856   2.545 -0.3823  1.0153 -2.2313
 3607TIP3    H210828   4.298   2.944   2.668  2.1577 -0.3357 -1.3666
 3608TIP3   OH210829   3.580   3.367   0.480  0.1967 -0.2154  0.1969
 3608TIP3    H110830   3.605   3.450   0.438  0.2044  0.4724  1.5059
 3608TIP3    H210831   3.657   3.341   0.530  0.3330 -1.2457 -0.5171
 3609TIP3   OH210832   2.706   3.761   1.451 -0.2930  0.1179  0.4129
 3609TIP3    H110833   2.716   3.684   1.507  1.1749  0.7544  1.0740
 3609TIP3    H210834   2.791   3.772   1.409 -1.0119  0.3866 -1.0231
 3610TIP3   OH210835   1.816   0.820   3.060  0.2224  0.3334  0.1830
 3610TIP3    H110836   1.740   0.763   3.071  0.3518  0.2554  0.7412
 3610TIP3    H210837   1.845   0.806   2.970 -1.4964  1.7201 -0.6380
 3611TIP3   OH210838   0.197   1.883   4.200 -1.1991  0.0133 -0.0449
 3611TIP3    H110839   0.287   1.853   4.216 -0.5544  2.2638  0.9275
 3611TIP3    H210840   0.144   1.834   4.264 -0.3085  0.3346  0.9807
 3612TIP3   OH210841   2.541   4.051   4.390 -0.0457 -0.4029  0.5853
 3612TIP3    H110842   2.525   3.997   4.312  0.3683  0.3436 -0.0338
 3612TIP3    H210843   2.629   4.026   4.419  0.3699  0.3152 -0.0273
 3613TIP3   OH210844   1.297   2.058   4.378 -0.2155 -0.5838 -0.1969
 3613TIP3    H110845   1.286   2.029   4.469 -1.1549 -0.0978 -0.1397
 3613TIP3    H210846   1.301   2.153   4.383 -1.0750 -0.5031 -0.7171
 3614TIP3   OH210847   3.846   0.685   1.889 -0.1531  0.4842  0.8947
 3614TIP3    H110848   3.800   0.663   1.808  1.2774  1.8604 -0.3559
 3614TIP3    H210849   3.839   0.606   1.943 -2.5137  0.0796  0.1114
 3615TIP3   OH210850   2.717   4.257   2.472 -0.1289  0.0399  0.3529
 3615TIP3    H110851   2.695   4.282   2.562 -0.6093  1.2130 -0.0628
 3615TIP3    H210852   2.810   4.236   2.476 -0.1235  0.1497  1.1080
 3616TIP3   OH210853   1.226   1.940   4.613 -0.1429 -0.0753 -0.5397
 3616TIP3    H110854   1.294   1.873   4.618  0.9794  1.0946  1.3991
 3616TIP3    H210855   1.158   1.910   4.674  1.2961  1.3796  1.9933
 3617TIP3   OH210856   0.199   4.666   2.570  0.4124 -0.0267 -0.1392
 3617TIP3    H110857   0.121   4.693   2.618  1.1990  0.3887  0.9743
 3617TIP3    H210858   0.177   4.580   2.533 -0.1023 -0.5847  1.3755
 3618TIP3   OH210859   0.086   3.959   4.649 -0.1315 -0.0523 -0.2554
 3618TIP3    H110860   0.120   3.874   4.622  0.5078 -0.6794  2.2525
 3618TIP3    H210861   0.106   4.017   4.576  2.5131 -1.3285 -0.6796
 3619TIP3   OH210862   1.397   1.818   3.795  0.4964 -0.4265 -0.1506
 3619TIP3    H110863   1.486   1.830   3.764  0.1145  2.3621 -0.3983
 3619TIP3    H210864   1.394   1.864   3.879 -0.5645 -1.0141  0.1546
 3620TIP3   OH210865   5.865   0.227   2.650  0.5393 -0.6300  0.4927
 3620TIP3    H110866   5.883   0.236   2.557 -3.1307 -0.0346 -0.3224
 3620TIP3    H210867   5.908   0.145   2.675  0.8285 -1.3006 -1.9721
 3621TIP3   OH210868   1.918   0.366   1.257 -0.3228  0.6563 -0.7749
 3621TIP3    H110869   1.977   0.321   1.317  0.3093 -2.1821 -3.3081
 3621TIP3    H210870   1.842   0.388   1.310  0.6619 -0.6342  1.2938
 3622TIP3   OH210871   1.254   5.874   1.757  0.2864 -0.3348 -0.1265
 3622TIP3    H110872   1.220   5.828   1.834  0.5236  0.0061  0.1818
 3622TIP3    H210873   1.309   5.944   1.793  1.4565 -0.9735 -0.6195
 3623TIP3   OH210874   0.183   3.320   2.030 -0.5297  0.3886  0.8139
 3623TIP3    H110875   0.172   3.252   1.964  0.5347  0.6175  0.3844
 3623TIP3    H210876   0.205   3.272   2.110  0.4407  0.2257  0.4619
 3624TIP3   OH210877   2.287   5.435   5.029  0.1446 -0.4286 -0.2740
 3624TIP3    H110878   2.193   5.420   5.025  0.3829 -2.1303 -0.4515
 3624TIP3    H210879   2.309   5.424   5.122  0.4714 -2.4766 -0.5428
 3625TIP3   OH210880   1.768   0.513   3.146 -0.4640  0.2575  0.0685
 3625TIP3    H110881   1.684   0.552   3.121  1.3249  3.9191 -0.9021
 3625TIP3    H210882   1.809   0.491   3.062 -1.4146 -4.3359  0.5423
 3626TIP3   OH210883   5.647   2.658   1.204 -0.0567 -0.0778 -0.1063
 3626TIP3    H110884   5.629   2.682   1.295 -0.3985  1.5254 -0.5776
 3626TIP3    H210885   5.731   2.697   1.184  0.1054 -0.5786 -0.4413
 3627TIP3   OH210886   4.491   1.633   1.077 -0.3989 -0.0325 -0.4012
 3627TIP3    H110887   4.506   1.545   1.042 -0.1735  0.0871 -0.6108
 3627TIP3    H210888   4.407   1.660   1.042 -1.2766 -0.8262  1.0086
 3628TIP3   OH210889   5.758   2.361   5.102 -0.0250  0.2032 -0.6044
 3628TIP3    H110890   5.668   2.329   5.107  0.1097 -0.2998 -1.2414
 3628TIP3    H210891   5.760   2.436   5.161 -1.1846  0.9671 -1.4854
 3629TIP3   OH210892   5.671   3.737   4.313  0.4049  0.2356  0.0876
 3629TIP3    H110893   5.673   3.682   4.392 -0.7249  0.4085  0.2556
 3629TIP3    H210894   5.763   3.760   4.298  0.5349  1.3922  2.1810
 3630TIP3   OH210895   2.922   4.529   5.145  0.4585 -0.0672  0.0729
 3630TIP3    H110896   2.901   4.623   5.151 -0.6735 -0.3149  0.3468
 3630TIP3    H210897   2.913   4.497   5.235  0.6240 -0.4757 -0.0548
 3631TIP3   OH210898   5.658   5.853   0.770  0.5591 -0.5221 -0.2378
 3631TIP3    H110899   5.740   5.889   0.735  0.3161  1.1196  0.7598
 3631TIP3    H210900   5.595   5.862   0.699  0.4329  1.4217  0.0566
 3632TIP3   OH210901   1.431   4.496   1.769 -0.0579  0.1863 -0.1073
 3632TIP3    H110902   1.430   4.558   1.843  2.8648  1.3357 -0.9131
 3632TIP3    H210903   1.457   4.549   1.694  2.4925 -1.9388 -0.8612
 3633TIP3   OH210904   0.221   3.449   2.640 -0.2905  0.3342 -0.1532
 3633TIP3    H110905   0.247   3.359   2.619  0.2108  0.5597 -0.4979
 3633TIP3    H210906   0.229   3.496   2.558  0.9940  1.0621  0.3736
 3634TIP3   OH210907   5.299   3.330   0.597 -0.1651  0.2649 -0.3257
 3634TIP3    H110908   5.381   3.375   0.576  1.0630 -1.1864  1.0951
 3634TIP3    H210909   5.241   3.399   0.630  0.7470  1.1982 -0.6279
 3635TIP3   OH210910   0.442   2.074   0.775 -0.3733  0.0014 -1.0082
 3635TIP3    H110911   0.413   2.053   0.864 -2.1766  0.3273 -1.4886
 3635TIP3    H210912   0.430   2.168   0.767  2.4183  0.4840 -0.7264
 3636TIP3   OH210913   2.201   1.895   3.514  0.5175 -0.2829  0.6029
 3636TIP3    H110914   2.176   1.805   3.534 -0.8914 -0.0713 -0.0612
 3636TIP3    H210915   2.191   1.902   3.419  0.6838  0.5415  0.6385
 3637TIP3   OH210916   0.042   1.100   0.549  0.3580 -0.3756  0.5578
 3637TIP3    H110917   0.091   1.080   0.468 -0.0286 -0.4342  0.3365
 3637TIP3    H210918  -0.011   1.022   0.565 -1.0370  0.3777 -0.2200
 3638TIP3   OH210919   2.389   1.100   3.269  0.4047 -0.2346  0.0184
 3638TIP3    H110920   2.456   1.129   3.331 -0.0369  1.8176 -0.4017
 3638TIP3    H210921   2.381   1.172   3.207 -1.0333 -1.1392 -0.9026
 3639TIP3   OH210922   2.476   5.380   0.549  0.3192  0.2414 -0.7999
 3639TIP3    H110923   2.422   5.437   0.495  0.9956  0.3637 -1.3614
 3639TIP3    H210924   2.485   5.426   0.632 -2.5597 -0.9428  0.2697
 3640TIP3   OH210925   0.256   0.412   1.521  0.0652 -0.0603  0.1628
 3640TIP3    H110926   0.204   0.474   1.470 -0.1319  0.5693  1.1253
 3640TIP3    H210927   0.197   0.339   1.538 -0.5283  0.6698  1.2904
 3641TIP3   OH210928   4.803   4.016   1.013  0.3587  0.4715  0.0581
 3641TIP3    H110929   4.737   3.962   0.971  0.1569  1.1916 -0.5723
 3641TIP3    H210930   4.863   4.041   0.943  1.1330  0.0865  0.5644
 3642TIP3   OH210931   1.793   1.718   2.301  0.0644 -0.3684  0.6448
 3642TIP3    H110932   1.869   1.662   2.290 -1.3089 -2.7105  2.1331
 3642TIP3    H210933   1.722   1.672   2.256 -0.5368  1.7920 -0.7747
 3643TIP3   OH210934   0.473   4.398   4.004  0.0413 -0.0818 -0.2816
 3643TIP3    H110935   0.454   4.339   3.930  0.2656  1.0257 -1.2510
 3643TIP3    H210936   0.457   4.486   3.969  1.0745  0.5235  0.7108
 3644TIP3   OH210937   6.026   2.459   3.171  0.1502  0.9080 -0.1885
 3644TIP3    H110938   5.973   2.449   3.092  0.7651  0.3733 -0.5440
 3644TIP3    H210939   5.962   2.474   3.240 -0.4657  0.3542 -0.6167
 3645TIP3   OH210940   5.791   2.173   2.268  0.2520 -0.2594  0.2293
 3645TIP3    H110941   5.864   2.200   2.213  0.6374  0.7920  1.2055
 3645TIP3    H210942   5.716   2.171   2.209  0.5746  1.2331 -0.2860
 3646TIP3   OH210943   4.538   0.175   3.107 -0.0936  0.1172  0.3108
 3646TIP3    H110944   4.529   0.161   3.201 -1.3161  0.1844  0.2214
 3646TIP3    H210945   4.537   0.271   3.098 -1.7782  0.1256  0.1173
 3647TIP3   OH210946   0.302   2.071   4.445  0.1938  0.0488 -0.0342
 3647TIP3    H110947   0.298   1.982   4.480 -2.1706  0.1635  0.1254
 3647TIP3    H210948   0.253   2.124   4.508 -2.2423  0.6548 -2.2760
 3648TIP3   OH210949   2.417   2.954   1.000 -0.0852 -0.1227  0.4010
 3648TIP3    H110950   2.415   3.013   0.925 -1.7512 -1.3766 -0.5880
 3648TIP3    H210951   2.405   3.012   1.076  0.3209  1.0130 -0.3749
 3649TIP3   OH210952   2.439   0.138   5.037 -0.1610 -0.3810  0.2705
 3649TIP3    H110953   2.449   0.045   5.056 -0.4176 -0.6815 -0.9513
 3649TIP3    H210954   2.520   0.178   5.069  1.4664 -1.5403 -2.1095
 3650TIP3   OH210955   4.827   4.071   1.910  0.5065  0.5785 -0.2981
 3650TIP3    H110956   4.753   4.022   1.873  1.7070 -0.2549 -1.7211
 3650TIP3    H210957   4.790   4.155   1.937 -1.2451 -0.4066  0.4864
 3651TIP3   OH210958   2.098   0.968   4.866  0.2865 -0.2018 -0.5473
 3651TIP3    H110959   2.098   0.892   4.807  1.9066 -0.4103 -0.3492
 3651TIP3    H210960   2.177   1.017   4.842 -0.1800  0.8720  0.0223
 3652TIP3   OH210961   0.496   2.491   5.007 -0.3381 -1.0517 -0.0446
 3652TIP3    H110962   0.569   2.430   5.008  0.2162 -0.3998  0.3080
 3652TIP3    H210963   0.474   2.504   5.099  1.7992  1.8454  0.2231
 3653TIP3   OH210964   4.266   5.168   0.903 -0.3068  0.0877  0.3368
 3653TIP3    H110965   4.222   5.221   0.837  2.0990  0.7065 -0.9033
 3653TIP3    H210966   4.287   5.086   0.858  1.1134  0.4113  0.3558
 3654TIP3   OH210967   5.100   3.243   1.502  0.3950 -0.0206 -0.1578
 3654TIP3    H110968   5.081   3.203   1.587 -0.8050  2.1587  0.6807
 3654TIP3    H210969   5.167   3.309   1.521 -0.1344  0.7278 -0.8139
 3655TIP3   OH210970   4.611   0.870   3.404  0.1304 -0.5303  0.0858
 3655TIP3    H110971   4.688   0.870   3.461 -0.1762 -0.3620  0.5058
 3655TIP3    H210972   4.544   0.917   3.454 -0.1844 -0.4946 -0.3602
 3656TIP3   OH210973   2.395   2.974   4.693  0.4666 -0.1909 -0.2193
 3656TIP3    H110974   2.424   3.057   4.730 -2.7419  0.6363  0.8000
 3656TIP3    H210975   2.380   2.993   4.600  1.8140 -0.2966 -0.4780
 3657TIP3   OH210976   3.191   2.957   3.197 -0.0534 -0.1293 -0.4110
 3657TIP3    H110977   3.247   2.884   3.222 -1.1822 -0.8670  0.0595
 3657TIP3    H210978   3.208   2.970   3.104  0.3488 -0.8259 -0.4420
 3658TIP3   OH210979   2.510   1.748   4.336 -0.2305  0.4834 -0.1228
 3658TIP3    H110980   2.579   1.713   4.394  1.6960  3.1509 -0.6140
 3658TIP3    H210981   2.484   1.673   4.283  1.6059 -0.8826  0.7702
 3659TIP3   OH210982   6.260   5.376   0.551 -0.3598  0.4840 -0.2049
 3659TIP3    H110983   6.344   5.412   0.579  0.8619 -2.5133  0.4849
 3659TIP3    H210984   6.203   5.387   0.627  0.5534 -0.5998  0.6859
 3660TIP3   OH210985   5.267   5.509   3.617 -0.8398  0.4043  0.2522
 3660TIP3    H110986   5.206   5.437   3.634 -0.4006 -0.2253 -0.7316
 3660TIP3    H210987   5.325   5.475   3.549  1.1387  0.6832  1.7004
 3661TIP3   OH210988   1.765   2.649   5.029  0.7043 -0.3155 -0.0550
 3661TIP3    H110989   1.776   2.598   5.110  0.2126 -0.9483 -0.3781
 3661TIP3    H210990   1.785   2.587   4.959 -0.8057 -0.3516 -0.4939
 3662TIP3   OH210991   1.844   4.407   2.738 -0.2358  0.8240 -0.5967
 3662TIP3    H110992   1.831   4.324   2.692  0.9919  0.8587 -1.0691
 3662TIP3    H210993   1.790   4.401   2.816 -0.2221 -0.3977 -0.6678
 3663TIP3   OH210994   3.467   1.448   1.151 -0.0882  0.5191  0.1235
 3663TIP3    H110995   3.543   1.479   1.201 -0.2577  1.2936 -0.0798
 3663TIP3    H210996   3.409   1.409   1.216  0.6633 -0.4641  0.2260
 3664TIP3   OH210997   2.443   2.964   4.100  0.5848  0.5525 -0.4665
 3664TIP3    H110998   2.430   2.934   4.190 -0.3259  1.9375 -0.1053
 3664TIP3    H210999   2.514   2.910   4.067 -0.3323 -1.3129  0.4495
 3665TIP3   OH211000   5.119   0.614   2.916  0.2583 -0.6620 -0.4959
 3665TIP3    H111001   5.082   0.700   2.898  0.6215 -0.5624 -0.7742
 3665TIP3    H211002   5.103   0.600   3.010  2.0666  0.6219  0.0612
 3666TIP3   OH211003   4.256   1.767   1.346  0.3736 -0.2618 -0.0478
 3666TIP3    H111004   4.243   1.673   1.355  1.5745 -0.3054  1.8957
 3666TIP3    H211005   4.345   1.777   1.313 -0.6191  0.2057 -2.8297
 3667TIP3   OH211006   0.892   5.099   0.322  0.0595 -0.1008 -0.4240
 3667TIP3    H111007   0.848   5.036   0.264 -1.3515 -0.4915  1.0268
 3667TIP3    H211008   0.868   5.071   0.410 -0.8147  2.6223  0.2793
 3668TIP3   OH211009   5.984   4.306   0.603  0.1391 -0.8338 -0.4142
 3668TIP3    H111010   5.988   4.341   0.514 -0.3508 -0.8595 -0.4495
 3668TIP3    H211011   5.942   4.375   0.654 -0.2692 -1.1198 -0.3585
 3669TIP3   OH211012   0.811   2.527   2.914 -0.2830  0.0733  0.5585
 3669TIP3    H111013   0.730   2.565   2.948 -1.5464 -1.8820 -0.1348
 3669TIP3    H211014   0.806   2.434   2.936  0.7101 -0.5050 -1.4064
 3670TIP3   OH211015   1.895   1.550   3.307  0.0426  0.1769  0.8465
 3670TIP3    H111016   1.871   1.464   3.275 -0.1640 -0.1252  1.7703
 3670TIP3    H211017   1.933   1.595   3.232  0.4114 -0.8138  0.4356
 3671TIP3   OH211018   1.519   1.238   5.133 -1.1536 -0.2813 -0.1691
 3671TIP3    H111019   1.429   1.254   5.161 -0.7057  1.0710  0.6526
 3671TIP3    H211020   1.536   1.306   5.067 -0.2857  0.4867  0.8036
 3672TIP3   OH211021   5.743   3.950   1.950 -0.0282  0.0945 -0.0183
 3672TIP3    H111022   5.810   3.927   2.014 -0.3731 -0.4861  0.1370
 3672TIP3    H211023   5.792   3.986   1.876  0.3672  0.9054  0.6186
 3673TIP3   OH211024   5.884   0.293   2.366  0.6491 -0.9984  0.1132
 3673TIP3    H111025   5.796   0.298   2.329  0.1855 -1.1553  1.1539
 3673TIP3    H211026   5.943   0.295   2.290 -0.2491 -0.9394 -0.5923
 3674TIP3   OH211027   0.213   1.799   4.550 -0.1199 -0.3437 -0.0702
 3674TIP3    H111028   0.151   1.774   4.482  1.3118 -0.3554 -1.4525
 3674TIP3    H211029   0.159   1.835   4.620 -2.1380 -4.9437  1.0773
 3675TIP3   OH211030   4.258   4.591   3.623  0.0749  0.1951  0.2656
 3675TIP3    H111031   4.187   4.649   3.593  0.5290  0.7080  0.1666
 3675TIP3    H211032   4.266   4.526   3.553 -2.3080 -1.6997  1.6250
 3676TIP3   OH211033   2.706   3.983   2.258  0.7613 -0.2191 -0.2244
 3676TIP3    H111034   2.793   3.944   2.263  1.0618  0.0692 -2.4136
 3676TIP3    H211035   2.719   4.066   2.211 -0.7454 -0.3881 -1.0219
 3677TIP3   OH211036   2.745   0.745   0.960 -0.2055 -0.4045 -0.6635
 3677TIP3    H111037   2.815   0.810   0.969 -0.9216  0.1837  1.0500
 3677TIP3    H211038   2.666   0.791   0.990 -0.8348 -1.8687  0.0125
 3678TIP3   OH211039   3.511   5.988   0.235 -0.4075  0.5440  0.0905
 3678TIP3    H111040   3.478   6.020   0.319 -0.8879 -0.4594  0.3034
 3678TIP3    H211041   3.453   5.915   0.214  1.1365 -0.7092  0.0356
 3679TIP3   OH211042   1.871   1.709   4.520  0.0032  0.1052  0.0952
 3679TIP3    H111043   1.954   1.675   4.488  0.5800  0.5954  1.0131
 3679TIP3    H211044   1.886   1.803   4.531 -0.8191  0.2806 -0.1615
 3680TIP3   OH211045   5.921   0.068   3.263  0.7820  0.1166 -0.1412
 3680TIP3    H111046   5.923   0.163   3.250 -1.3954  0.1818 -0.3931
 3680TIP3    H211047   5.833   0.051   3.298  1.2526 -1.7824  0.2245
 3681TIP3   OH211048   1.395   5.409   1.999  0.6676 -0.0535  0.1046
 3681TIP3    H111049   1.378   5.329   2.048  0.4555 -0.3033 -0.3753
 3681TIP3    H211050   1.490   5.409   1.984  0.7388  0.0391  0.5304
 3682TIP3   OH211051   2.907   5.292   2.051 -0.1672  0.3028  0.6411
 3682TIP3    H111052   2.928   5.216   1.996  1.1839  2.4392 -2.0121
 3682TIP3    H211053   2.983   5.301   2.108 -0.7476 -0.8088  1.6520
 3683TIP3   OH211054   3.750   2.070   2.683 -0.0398 -0.3105  0.6465
 3683TIP3    H111055   3.759   2.044   2.591  0.2736 -0.2686  0.6639
 3683TIP3    H211056   3.726   2.162   2.679  2.1047  0.3103  0.6203
 3684TIP3   OH211057   4.743   5.852   0.329 -0.0038 -0.3180  0.1949
 3684TIP3    H111058   4.742   5.947   0.323  0.4066 -0.1962  1.7189
 3684TIP3    H211059   4.798   5.824   0.255  0.5674  0.6726  0.2269
 3685TIP3   OH211060   4.055   2.939   0.485 -0.3606  0.2897 -0.5144
 3685TIP3    H111061   3.962   2.958   0.474  0.2293  3.2178 -1.3280
 3685TIP3    H211062   4.082   2.902   0.400 -1.0563 -2.4130  0.3311
 3686TIP3   OH211063   2.898   1.190   0.856 -0.2171  0.6123 -0.3103
 3686TIP3    H111064   2.960   1.241   0.803 -0.4098  0.4211 -0.7216
 3686TIP3    H211065   2.937   1.103   0.862 -0.6338  0.3856 -0.8934
 3687TIP3   OH211066   3.017   4.346   2.127 -0.2352 -0.2935  0.0518
 3687TIP3    H111067   3.083   4.284   2.159  0.9990 -0.2687 -2.2818
 3687TIP3    H211068   2.959   4.294   2.072 -0.3459  0.2679 -0.3718
 3688TIP3   OH211069   5.172   4.399   2.915  0.6983 -0.4184 -0.3027
 3688TIP3    H111070   5.183   4.317   2.867 -0.9299 -0.1134 -1.2682
 3688TIP3    H211071   5.199   4.467   2.854  0.1522 -0.1152 -0.2086
 3689TIP3   OH211072   1.768   4.384   1.718 -0.2932  0.3827  0.7145
 3689TIP3    H111073   1.733   4.461   1.672  1.7818  0.0195 -1.6854
 3689TIP3    H211074   1.816   4.421   1.792 -0.6428  1.2815  0.5115
 3690TIP3   OH211075   2.188   4.317   1.422  0.1055  0.1886  0.1876
 3690TIP3    H111076   2.260   4.270   1.463  0.7967 -2.0311 -3.1487
 3690TIP3    H211077   2.110   4.289   1.470  1.0251 -0.5305  1.3078
 3691TIP3   OH211078   0.919   2.105   0.893  0.3264 -0.2728 -0.2106
 3691TIP3    H111079   0.907   2.046   0.967  1.1315 -0.6439 -0.3672
 3691TIP3    H211080   0.830   2.118   0.858  0.2078 -2.0791 -0.7043
 3692TIP3   OH211081   1.456   4.728   1.916 -0.2335 -0.1012 -0.3705
 3692TIP3    H111082   1.548   4.745   1.894 -0.2405 -1.1711 -1.3755
 3692TIP3    H211083   1.456   4.715   2.010  0.4941  0.7922 -0.2292
 3693TIP3   OH211084   2.541   4.775   2.607  0.4019  0.4574  0.3314
 3693TIP3    H111085   2.592   4.694   2.603  0.2034  0.2871  1.1698
 3693TIP3    H211086   2.454   4.750   2.574  0.1285  0.1528  1.2677
 3694TIP3   OH211087   0.011   4.965   1.824 -0.8700 -0.6402  0.2549
 3694TIP3    H111088   0.089   4.941   1.873 -0.3049 -1.0693 -0.8357
 3694TIP3    H211089  -0.004   4.892   1.765 -1.9700 -0.4602  0.2803
 3695TIP3   OH211090   2.411   2.841   4.333  0.4286  0.1388  0.2522
 3695TIP3    H111091   2.348   2.772   4.351  0.6667  0.3581  2.1743
 3695TIP3    H211092   2.496   2.801   4.350  0.7922  0.0913 -1.4973
 3696TIP3   OH211093   0.190   3.523   1.833  0.4800  0.0890  0.0151
 3696TIP3    H111094   0.179   3.451   1.895  0.8038  0.9198  1.0898
 3696TIP3    H211095   0.237   3.590   1.884  3.3069 -0.2379 -1.9401
 3697TIP3   OH211096   1.196   4.316   3.364 -0.1227  0.4138 -0.1642
 3697TIP3    H111097   1.174   4.400   3.323 -1.0505 -0.3179 -1.2241
 3697TIP3    H211098   1.189   4.252   3.293  0.2648 -0.6110  0.6981
 3698TIP3   OH211099   2.737   1.693   2.200 -0.3813 -0.0826  0.6670
 3698TIP3    H111100   2.829   1.678   2.221 -0.5234  0.3707  1.6507
 3698TIP3    H211101   2.691   1.615   2.230 -0.6828  0.8576  2.8169
 3699TIP3   OH211102   0.393   0.525   4.962  0.7560 -0.3497  0.2537
 3699TIP3    H111103   0.396   0.514   5.057 -2.3273  2.3068  0.8139
 3699TIP3    H211104   0.312   0.483   4.935  1.7807 -1.4067 -1.3221
 3700TIP3   OH211105   5.878   5.598   5.059 -0.2112 -0.4259  0.0272
 3700TIP3    H111106   5.943   5.630   4.996 -0.9272 -1.2307 -1.1403
 3700TIP3    H211107   5.845   5.517   5.021 -2.7147  0.5157  0.0377
 3701TIP3   OH211108   1.998   0.621   1.337 -0.0066  0.0130 -0.4709
 3701TIP3    H111109   1.970   0.530   1.327  0.8361 -0.3132  0.0217
 3701TIP3    H211110   1.969   0.646   1.425  0.6128 -0.1078 -0.2237
 3702TIP3   OH211111   0.303   3.816   1.336 -0.0855  0.0134 -0.2455
 3702TIP3    H111112   0.337   3.845   1.251 -1.1394  0.1902 -0.6133
 3702TIP3    H211113   0.234   3.754   1.315  1.5870 -2.2494  0.5182
 3703TIP3   OH211114   0.045   5.752   5.009 -0.0717  0.1198  0.0966
 3703TIP3    H111115   0.022   5.825   4.951 -2.4053  0.7113  1.6190
 3703TIP3    H211116   0.088   5.688   4.952  2.6851  2.8705 -1.1861
 3704TIP3   OH211117   1.465   3.916   3.067 -0.2570 -0.1838 -0.2222
 3704TIP3    H111118   1.409   3.960   3.003  0.5236  0.2583 -0.6221
 3704TIP3    H211119   1.535   3.877   3.015  0.3571  0.1376  0.3404
 3705TIP3   OH211120   3.774   4.563   1.691 -0.0368 -0.0281 -0.4682
 3705TIP3    H111121   3.758   4.469   1.681  1.4633 -0.3312 -0.2894
 3705TIP3    H211122   3.751   4.582   1.782 -2.4959  0.2889 -1.0828
 3706TIP3   OH211123   3.821   0.091   2.315 -0.0095  0.0692 -0.4179
 3706TIP3    H111124   3.788   0.177   2.342  0.4445  0.6421 -1.5904
 3706TIP3    H211125   3.908   0.086   2.355 -0.4927 -0.3552  0.6026
 3707TIP3   OH211126   0.348   5.216   4.398 -0.2174  0.0601 -0.4885
 3707TIP3    H111127   0.404   5.161   4.342 -1.0625 -0.5444 -0.7604
 3707TIP3    H211128   0.276   5.243   4.340 -0.9779 -0.3724  0.2316
 3708TIP3   OH211129   2.145   1.488   5.131 -0.1703  0.2522 -1.0727
 3708TIP3    H111130   2.189   1.417   5.084 -2.3058 -1.7514 -0.2646
 3708TIP3    H211131   2.206   1.511   5.201  0.0823 -1.7533 -0.5559
 3709TIP3   OH211132   1.071   4.094   1.126  0.3198  0.0305 -0.1889
 3709TIP3    H111133   1.026   4.038   1.190 -1.1022  1.9785  0.6170
 3709TIP3    H211134   1.162   4.097   1.156  0.0770 -0.5721  0.6467
 3710TIP3   OH211135   0.586   0.365   1.400 -0.2983  0.1188 -0.1662
 3710TIP3    H111136   0.535   0.415   1.336  0.5121 -0.2415 -1.1224
 3710TIP3    H211137   0.672   0.408   1.401 -0.1199 -0.2365  0.2443
 3711TIP3   OH211138   4.898   5.952   4.661 -0.4312 -0.0577  0.1358
 3711TIP3    H111139   4.855   6.034   4.637 -0.7020 -0.3182 -0.2838
 3711TIP3    H211140   4.943   5.924   4.582 -0.0865 -0.1581  0.3672
 3712TIP3   OH211141   3.314   5.807   0.116 -0.1918 -0.1121  0.0266
 3712TIP3    H111142   3.319   5.820   0.022  1.2168 -1.0301 -0.0537
 3712TIP3    H211143   3.242   5.745   0.128 -2.4246  2.2932 -0.1347
 3713TIP3   OH211144   1.901   5.033   3.967  0.4668  0.0484  0.3827
 3713TIP3    H111145   1.989   5.016   4.001  0.9649  1.3303 -0.1806
 3713TIP3    H211146   1.877   4.952   3.921  1.8711  0.0900 -0.4885
 3714TIP3   OH211147   5.715   0.755   0.263 -0.0471  0.2078  0.5107
 3714TIP3    H111148   5.743   0.836   0.220 -0.9875  0.9718  1.3023
 3714TIP3    H211149   5.797   0.712   0.288  0.4775  0.5947 -0.4790
 3715TIP3   OH211150   1.494   3.987   1.873  0.4057  0.0894 -0.0144
 3715TIP3    H111151   1.574   3.952   1.913  0.1829 -1.2289 -0.6620
 3715TIP3    H211152   1.519   4.072   1.839  0.9845  0.5968  1.6099
 3716TIP3   OH211153   2.790   1.872   0.803  0.0003 -0.8578 -0.6652
 3716TIP3    H111154   2.884   1.889   0.797  0.0718 -0.9076  0.1676
 3716TIP3    H211155   2.751   1.932   0.740  0.6148 -1.1439 -1.3422
 3717TIP3   OH211156   3.643   1.565   2.631  0.6099 -0.2966 -0.3510
 3717TIP3    H111157   3.715   1.600   2.579  1.9937 -0.4889  1.3433
 3717TIP3    H211158   3.661   1.595   2.720 -1.0711 -0.8822  0.2162
 3718TIP3   OH211159   3.588   4.354   2.794 -0.4788 -0.0681  0.2538
 3718TIP3    H111160   3.540   4.413   2.853  0.6260  0.1004  1.0059
 3718TIP3    H211161   3.590   4.400   2.711 -0.4407  0.5358  0.5850
 3719TIP3   OH211162   4.518   5.593   2.559 -0.1143 -0.2572 -0.1037
 3719TIP3    H111163   4.522   5.525   2.626 -1.0349 -0.8913 -0.6646
 3719TIP3    H211164   4.452   5.655   2.590  2.2223  1.6492  1.4829
 3720TIP3   OH211165   5.960   0.899   3.685 -0.2284  0.5871 -0.2420
 3720TIP3    H111166   5.955   0.820   3.631 -0.0683  0.9614 -0.8261
 3720TIP3    H211167   6.003   0.964   3.628 -1.2408  1.3848 -0.1272
 3721TIP3   OH211168   4.578   2.119   1.438  0.5015  0.1532  0.1478
 3721TIP3    H111169   4.565   2.212   1.457  0.3939  0.4119 -1.1125
 3721TIP3    H211170   4.490   2.084   1.430  0.5217  0.2984 -0.9277
 3722TIP3   OH211171   0.194   4.879   2.017 -0.6879 -0.7227  0.5320
 3722TIP3    H111172   0.174   4.816   2.085 -0.3281 -1.9887 -0.4986
 3722TIP3    H211173   0.290   4.878   2.010 -0.5663  0.9514  1.4145
 3723TIP3   OH211174   4.610   0.899   3.120  0.5276 -0.2051 -0.0235
 3723TIP3    H111175   4.563   0.905   3.203  1.4711  0.6988  0.4686
 3723TIP3    H211176   4.659   0.817   3.126  2.0526  0.7323  1.1392
 3724TIP3   OH211177   5.542   3.516   4.921 -0.7185  0.1067 -0.0477
 3724TIP3    H111178   5.547   3.510   5.017 -0.1237  1.1997  0.0032
 3724TIP3    H211179   5.466   3.573   4.905  0.7541  2.1746 -0.1041
 3725TIP3   OH211180   2.172   2.034   0.644  0.6114  0.7209 -0.1759
 3725TIP3    H111181   2.146   2.118   0.681  0.8452  0.0053  1.6799
 3725TIP3    H211182   2.234   1.997   0.707 -0.7293 -1.5933 -0.0951
 3726TIP3   OH211183   3.208   0.328   4.356 -0.0008  0.6052  0.4130
 3726TIP3    H111184   3.225   0.361   4.444  0.3770  2.6646 -0.3751
 3726TIP3    H211185   3.133   0.269   4.366 -0.3653  1.3037  1.9947
 3727TIP3   OH211186   2.836   0.878   2.997 -0.4216  0.8743 -0.5532
 3727TIP3    H111187   2.754   0.832   2.980  0.5968 -1.0978 -0.3636
 3727TIP3    H211188   2.809   0.960   3.039 -2.2466 -0.1793  0.4597
 3728TIP3   OH211189   6.224   1.471   4.392  0.4017  0.5369  0.2202
 3728TIP3    H111190   6.195   1.476   4.300 -1.1772  1.0487  0.7012
 3728TIP3    H211191   6.317   1.452   4.387  0.0127 -1.2691 -1.4680
 3729TIP3   OH211192   3.915   2.136   3.644  0.1547 -0.4764 -0.1023
 3729TIP3    H111193   3.964   2.206   3.602  0.7854  0.3979  1.9831
 3729TIP3    H211194   3.981   2.078   3.681 -0.3328 -0.2576  1.1819
 3730TIP3   OH211195   1.590   3.743   0.902 -0.0474 -0.3587 -0.5966
 3730TIP3    H111196   1.622   3.667   0.950  0.0531  0.7160  1.1213
 3730TIP3    H211197   1.514   3.773   0.952  0.7450  1.4763 -0.4186
 3731TIP3   OH211198   3.682   1.604   4.078  0.3240  0.3649 -0.2051
 3731TIP3    H111199   3.673   1.561   3.993 -1.0291 -0.9724  0.5541
 3731TIP3    H211200   3.776   1.604   4.095  0.5258 -0.3710 -1.2114
 3732TIP3   OH211201   5.254   5.464   2.910 -0.3001  0.5674  0.3544
 3732TIP3    H111202   5.247   5.447   2.816 -0.3908  0.3912  0.3913
 3732TIP3    H211203   5.192   5.403   2.949 -0.5781  0.9450  0.4999
 3733TIP3   OH211204   2.236   4.572   3.627  0.0263  0.1663  0.3271
 3733TIP3    H111205   2.180   4.629   3.576 -0.8827 -0.1486  0.9396
 3733TIP3    H211206   2.291   4.528   3.563 -0.1319  0.7997 -0.2507
 3734TIP3   OH211207   5.980   2.507   3.578  0.1205  0.6513 -0.5644
 3734TIP3    H111208   5.936   2.496   3.662  1.0565  2.9558  0.3220
 3734TIP3    H211209   5.909   2.527   3.517 -0.3169  2.4094  0.4458
 3735TIP3   OH211210   6.292   1.435   2.150 -0.0146  0.6028  0.0817
 3735TIP3    H111211   6.239   1.471   2.221  0.0494  1.2311 -0.1816
 3735TIP3    H211212   6.274   1.341   2.152  0.4585  0.5199  1.3228
 3736TIP3   OH211213   0.453   0.863   2.408  0.0622 -0.0256  0.3142
 3736TIP3    H111214   0.442   0.820   2.493 -1.1963 -1.3453 -0.4747
 3736TIP3    H211215   0.541   0.837   2.379 -1.1790 -3.3979 -0.7911
 3737TIP3   OH211216   3.233   0.351   3.550 -0.3501  0.4368 -0.2664
 3737TIP3    H111217   3.150   0.399   3.551  0.5594  2.0736  0.0505
 3737TIP3    H211218   3.238   0.312   3.637 -1.2197 -0.5134 -0.6144
 3738TIP3   OH211219   1.660   0.250   1.433 -0.8548 -0.5758  0.1328
 3738TIP3    H111220   1.624   0.246   1.344 -1.6144  1.5942  0.2894
 3738TIP3    H211221   1.649   0.161   1.467 -1.3923 -1.2237 -1.6130
 3739TIP3   OH211222   1.089   0.097   4.781  0.1688 -0.1450  0.1778
 3739TIP3    H111223   1.179   0.092   4.812  0.2647 -0.2922 -0.1130
 3739TIP3    H211224   1.035   0.079   4.858  0.3564  0.8893  0.5763
 3740TIP3   OH211225   2.492   5.122   0.028  0.1890  0.0612  0.0229
 3740TIP3    H111226   2.475   5.028   0.027  1.9154 -0.2881  0.3041
 3740TIP3    H211227   2.586   5.130   0.012 -0.0890  1.8021 -1.1533
 3741TIP3   OH211228   4.927   0.326   0.051  0.2321 -0.0197  0.5869
 3741TIP3    H111229   4.912   0.237   0.082  0.3814  0.1740  1.2311
 3741TIP3    H211230   5.022   0.332   0.041  0.2311  0.0988  0.6461
 3742TIP3   OH211231   0.804   5.289   0.618 -0.2986 -0.6264 -0.1143
 3742TIP3    H111232   0.796   5.339   0.536  0.8971 -0.0025  0.1320
 3742TIP3    H211233   0.888   5.244   0.611 -0.9008 -1.8280  0.1190
 3743TIP3   OH211234   3.994   3.501   2.507 -0.2246  0.2107  0.2455
 3743TIP3    H111235   4.037   3.582   2.478  1.3571 -0.5501  0.3744
 3743TIP3    H211236   3.944   3.472   2.430 -2.5451  2.3514  0.8143
 3744TIP3   OH211237   0.957   3.428   1.047  0.3713  0.0025 -0.5085
 3744TIP3    H111238   1.034   3.415   1.102  0.7296  0.4270 -0.9054
 3744TIP3    H211239   0.989   3.416   0.958 -0.1009 -0.1827 -0.6552
 3745TIP3   OH211240   3.579   0.707   0.061  0.4740 -0.1062 -0.1535
 3745TIP3    H111241   3.639   0.781   0.049 -0.8900  1.3070  1.2330
 3745TIP3    H211242   3.525   0.732   0.136 -0.4999 -2.2274 -0.0827
 3746TIP3   OH211243   1.027   5.329   4.860  0.6761  0.0922 -0.4179
 3746TIP3    H111244   1.067   5.383   4.792  1.5846  1.1084  0.8682
 3746TIP3    H211245   1.080   5.249   4.860 -0.0572 -0.4166 -1.6646
 3747TIP3   OH211246   0.172   2.145   4.158  0.5770 -0.4511 -1.4763
 3747TIP3    H111247   0.184   2.054   4.186  0.7560 -0.2901 -1.0212
 3747TIP3    H211248   0.077   2.158   4.160  0.6342  0.2293  1.3312
 3748TIP3   OH211249   5.509   3.623   1.509  0.7007 -0.2038 -0.0551
 3748TIP3    H111250   5.509   3.715   1.535  0.6988 -0.0543 -0.5684
 3748TIP3    H211251   5.588   3.614   1.455  1.8636 -1.0055  1.6744
 3749TIP3   OH211252   3.499   5.754   0.471 -0.4553  0.8516 -0.0196
 3749TIP3    H111253   3.424   5.723   0.420 -0.2482 -0.4035  0.3942
 3749TIP3    H211254   3.461   5.807   0.541 -0.7427  2.5964 -1.4462
 3750TIP3   OH211255   5.708   4.311   2.156  0.2092 -0.1115 -0.8666
 3750TIP3    H111256   5.667   4.333   2.239 -1.9796 -0.5376 -1.7572
 3750TIP3    H211257   5.801   4.307   2.175 -0.2555 -0.5265  1.6313
 3751TIP3   OH211258   1.553   2.822   3.697 -0.6402 -0.3928 -0.2688
 3751TIP3    H111259   1.502   2.742   3.688 -0.5305 -0.4734 -0.1896
 3751TIP3    H211260   1.567   2.852   3.607 -2.7508  0.8822 -0.2215
 3752TIP3   OH211261   3.680   1.001   4.285 -0.9284  0.1729  0.1371
 3752TIP3    H111262   3.642   1.075   4.236 -1.7369 -0.0584  0.3984
 3752TIP3    H211263   3.604   0.948   4.310 -0.4549 -0.1088  0.9962
 3753TIP3   OH211264   2.802   4.408   3.633  0.0861  0.1881 -0.2303
 3753TIP3    H111265   2.729   4.470   3.629 -1.6912 -1.7476  0.5610
 3753TIP3    H211266   2.824   4.391   3.541  0.2708  1.5641 -0.4624
 3754TIP3   OH211267   5.721   2.027   1.730 -0.1659 -0.2087 -0.5060
 3754TIP3    H111268   5.693   2.023   1.822  0.1004  2.3209 -0.2501
 3754TIP3    H211269   5.791   1.962   1.724 -0.2035 -0.4400  1.0601
 3755TIP3   OH211270   0.705   1.483   0.223 -0.0784 -0.2558 -0.2493
 3755TIP3    H111271   0.688   1.569   0.259 -0.5068 -1.3929  2.5329
 3755TIP3    H211272   0.623   1.435   0.235  1.0794 -1.9690  1.3587
 3756TIP3   OH211273   3.246   4.297   3.530  0.5062 -0.6948 -0.6197
 3756TIP3    H111274   3.335   4.328   3.513  0.1347  0.2319 -0.8817
 3756TIP3    H211275   3.249   4.264   3.620  0.7199  0.8192 -0.0473
 3757TIP3   OH211276   2.506   0.885   0.689 -0.3765  0.5022 -0.0433
 3757TIP3    H111277   2.480   0.914   0.776  0.3733  1.0601  0.0086
 3757TIP3    H211278   2.425   0.882   0.639 -1.2612 -2.4247  1.3581
 3758TIP3   OH211279   0.336   5.802   4.799 -0.3575 -0.0372  0.2514
 3758TIP3    H111280   0.260   5.754   4.768 -0.9558  1.7155 -1.1971
 3758TIP3    H211281   0.374   5.747   4.867 -3.1755 -0.7544  1.3570
 3759TIP3   OH211282   0.373   2.285   2.984 -0.2111  0.4233 -0.2538
 3759TIP3    H111283   0.345   2.211   2.930 -0.1990  0.1459  0.1100
 3759TIP3    H211284   0.294   2.308   3.034  0.0928 -0.1146  0.4961
 3760TIP3   OH211285   5.599   0.129   3.327 -0.3307 -0.4017 -0.4814
 3760TIP3    H111286   5.552   0.150   3.407  0.5566 -0.0803 -0.0246
 3760TIP3    H211287   5.606   0.212   3.281 -0.5619 -0.5249 -0.7379
 3761TIP3   OH211288   5.964   0.037   4.968 -0.3827  0.1472 -0.2549
 3761TIP3    H111289   5.945   0.131   4.969 -0.1528  0.1938 -0.3214
 3761TIP3    H211290   5.882  -0.004   4.939 -0.2260  0.3885 -1.0712
 3762TIP3   OH211291   0.078   1.343   1.032  0.2148 -0.3128 -0.0402
 3762TIP3    H111292   0.013   1.350   1.102 -0.0759  1.5215 -0.4381
 3762TIP3    H211293   0.032   1.298   0.961 -0.3265  0.0910  0.0444
 3763TIP3   OH211294   0.676   4.524   1.195  0.1246 -0.2051 -0.0437
 3763TIP3    H111295   0.635   4.601   1.156 -1.2558 -0.6896  0.3998
 3763TIP3    H211296   0.769   4.535   1.177  0.4224  3.0401  2.4383
 3764TIP3   OH211297   0.053   2.156   3.063 -0.0585 -0.4436  0.5449
 3764TIP3    H111298   0.084   2.245   3.050 -1.1601 -0.2707 -1.3293
 3764TIP3    H211299   0.128   2.108   3.097  1.7629  0.3688 -2.0229
 3765TIP3   OH211300   4.009   5.973   2.350 -0.0261  0.4534  0.1062
 3765TIP3    H111301   3.996   6.016   2.265 -0.9055  2.5659  1.2361
 3765TIP3    H211302   3.932   5.918   2.361  0.3914 -0.3283 -0.7039
 3766TIP3   OH211303   1.236   3.176   3.639 -0.4946  0.0696  0.1445
 3766TIP3    H111304   1.277   3.226   3.568 -1.8006 -0.2503 -0.8746
 3766TIP3    H211305   1.303   3.113   3.665  0.6652  1.3834  0.4756
 3767TIP3   OH211306   3.257   1.706   3.418 -0.0219  0.3108 -0.4674
 3767TIP3    H111307   3.176   1.657   3.433  0.1718  0.3577  0.8697
 3767TIP3    H211308   3.311   1.648   3.364 -1.2421  0.6184 -2.1052
 3768TIP3   OH211309   5.416   5.629   1.695 -0.3867  0.6322 -0.0886
 3768TIP3    H111310   5.473   5.583   1.756  1.3941  0.9786 -1.4079
 3768TIP3    H211311   5.449   5.719   1.694 -1.1857  0.9319 -0.6297
 3769TIP3   OH211312   2.608   3.717   4.556  0.4284  0.4514 -0.4508
 3769TIP3    H111313   2.522   3.695   4.519  0.7069  0.4176 -1.0935
 3769TIP3    H211314   2.670   3.700   4.485  0.8944  1.1433 -0.2236
 3770TIP3   OH211315   0.983   2.263   0.690 -0.1641  0.1361 -0.4317
 3770TIP3    H111316   0.963   2.197   0.756  0.9083 -0.0269 -0.2470
 3770TIP3    H211317   1.075   2.247   0.667 -0.4561  0.3092 -1.8201
 3771TIP3   OH211318   1.483   2.284   2.654 -0.3118  0.8521 -0.8079
 3771TIP3    H111319   1.496   2.241   2.569 -1.6295  0.4759 -0.8483
 3771TIP3    H211320   1.393   2.317   2.650 -0.4478  0.6998  0.4991
 3772TIP3   OH211321   6.212   0.484   2.226  0.3316  0.3172  0.0553
 3772TIP3    H111322   6.145   0.419   2.248 -0.6170  1.4830  0.7434
 3772TIP3    H211323   6.191   0.511   2.137  0.0450  0.4631  0.1629
 3773TIP3   OH211324   1.106   2.409   4.041  0.1097  0.4864  0.1640
 3773TIP3    H111325   1.059   2.441   4.118 -0.7727  1.0416 -0.5779
 3773TIP3    H211326   1.198   2.414   4.066 -0.1240  1.3499  0.9262
 3774TIP3   OH211327   6.101   4.575   2.599 -0.2047  0.6092  0.5179
 3774TIP3    H111328   6.109   4.586   2.694  2.0018 -0.2493  0.4815
 3774TIP3    H211329   6.113   4.481   2.585 -0.0879  0.7897 -0.6556
 3775TIP3   OH211330   5.844   4.593   4.128  0.0084  0.1437 -0.7500
 3775TIP3    H111331   5.752   4.609   4.103 -0.0995  1.4523  0.3806
 3775TIP3    H211332   5.882   4.551   4.051 -1.2977  0.4613 -1.6107
 3776TIP3   OH211333   0.419   1.305   2.301 -0.1890 -0.3422 -0.0842
 3776TIP3    H111334   0.353   1.374   2.296 -1.3510 -1.4366 -0.1031
 3776TIP3    H211335   0.370   1.226   2.320  0.9719 -1.4138 -1.3765
 3777TIP3   OH211336   5.378   5.031   2.426 -0.0871  0.1733  0.4345
 3777TIP3    H111337   5.294   4.999   2.458 -0.6022 -0.1807 -1.1694
 3777TIP3    H211338   5.371   5.023   2.331  1.9734 -0.3774  0.2975
 3778TIP3   OH211339   1.521   3.262   3.723  0.2545 -0.6629 -0.5179
 3778TIP3    H111340   1.509   3.357   3.729 -0.7933 -0.5910 -2.6589
 3778TIP3    H211341   1.578   3.250   3.647 -1.5889 -1.7867 -1.7987
 3779TIP3   OH211342   4.794   0.486   0.562 -0.3706 -0.7112  0.5410
 3779TIP3    H111343   4.734   0.424   0.520  0.3200 -0.5041 -0.7967
 3779TIP3    H211344   4.747   0.516   0.640 -3.3257  1.6500 -1.9016
 3780TIP3   OH211345   0.722   3.910   1.182  0.2379  0.2979  0.0876
 3780TIP3    H111346   0.763   3.826   1.158 -0.9032 -1.3039  3.1342
 3780TIP3    H211347   0.793   3.962   1.218  0.4844 -0.5087  0.7934
 3781TIP3   OH211348   1.196   5.862   0.526 -0.2670  0.4466  0.3111
 3781TIP3    H111349   1.264   5.855   0.593 -0.4942  1.2183  0.6400
 3781TIP3    H211350   1.171   5.954   0.528 -0.6723  0.3569 -0.4520
 3782TIP3   OH211351   1.452   0.370   4.114 -0.2848  0.0223 -0.1235
 3782TIP3    H111352   1.390   0.364   4.187  0.5490 -0.6399  0.5390
 3782TIP3    H211353   1.446   0.462   4.086  0.1095  0.5435  1.4140
 3783TIP3   OH211354   6.320   1.147   3.228 -0.0052 -0.5239 -0.1737
 3783TIP3    H111355   6.280   1.225   3.268 -0.7420 -0.5503 -0.8379
 3783TIP3    H211356   6.253   1.079   3.235  0.0082 -0.6364 -1.0889
 3784TIP3   OH211357   3.850   4.137   1.800  0.0582  0.1832 -0.0018
 3784TIP3    H111358   3.868   4.177   1.885 -1.4322 -0.0858  0.4772
 3784TIP3    H211359   3.822   4.048   1.821  0.7217 -0.2440 -0.8608
 3785TIP3   OH211360   1.246   0.053   2.355  0.2960 -0.1439 -0.1152
 3785TIP3    H111361   1.187   0.102   2.299  1.0681  1.8735  0.7377
 3785TIP3    H211362   1.194  -0.021   2.386 -0.5957 -0.4687 -2.2407
 3786TIP3   OH211363   0.802   4.173   0.434 -0.2881 -0.4416  0.1435
 3786TIP3    H111364   0.788   4.107   0.501 -0.3121  1.0058  1.6168
 3786TIP3    H211365   0.893   4.161   0.406 -0.5173 -1.5634 -0.1803
 3787TIP3   OH211366   1.499   0.840   0.395 -0.0867 -0.9485 -0.4703
 3787TIP3    H111367   1.567   0.908   0.401 -0.1854 -0.6373 -2.1823
 3787TIP3    H211368   1.549   0.758   0.387  0.0599 -0.9070  0.0083
 3788TIP3   OH211369   0.618   2.495   3.989 -0.0944 -0.7219  0.2562
 3788TIP3    H111370   0.674   2.418   3.983 -0.1084 -0.7442  0.4097
 3788TIP3    H211371   0.575   2.487   4.074  0.3176 -0.2620  0.5176
 3789TIP3   OH211372   0.465   0.953   4.676 -0.4646 -0.0333 -0.5140
 3789TIP3    H111373   0.557   0.927   4.671 -0.3612  0.5389 -2.0650
 3789TIP3    H211374   0.466   1.048   4.663 -1.3652 -0.2014 -2.0127
 3790TIP3   OH211375   3.790   3.129   0.038 -0.1292 -0.3062  0.6879
 3790TIP3    H111376   3.772   3.211   0.084  0.0535  1.6014 -2.4215
 3790TIP3    H211377   3.880   3.107   0.062 -0.1598  0.4035  1.4982
 3791TIP3   OH211378   5.765   3.723   0.058 -0.2663  0.4031  0.1666
 3791TIP3    H111379   5.728   3.636   0.074 -1.5426  1.0801  1.0638
 3791TIP3    H211380   5.698   3.784   0.089  0.5259  1.7194 -0.6092
 3792TIP3   OH211381   5.066   1.906   4.623  0.0234 -0.5685  0.0976
 3792TIP3    H111382   4.997   1.867   4.568 -1.2074  0.5054  0.8321
 3792TIP3    H211383   5.080   1.841   4.692 -1.6755  0.0120  1.0451
 3793TIP3   OH211384   4.408   4.108   4.384 -0.2989  0.4259  0.4764
 3793TIP3    H111385   4.473   4.163   4.429  0.7602 -1.2170  1.0524
 3793TIP3    H211386   4.419   4.128   4.291  2.1740 -0.9126  0.4038
 3794TIP3   OH211387   4.988   1.721   3.656 -0.0500  0.0066  0.0753
 3794TIP3    H111388   4.916   1.678   3.611  0.8764 -1.4462 -0.0760
 3794TIP3    H211389   4.947   1.795   3.701 -1.3750  0.1259 -1.2355
 3795TIP3   OH211390   2.320   3.348   1.117 -0.2897 -0.1622 -0.5886
 3795TIP3    H111391   2.323   3.254   1.133  0.1596 -0.1677 -0.6745
 3795TIP3    H211392   2.248   3.360   1.056 -0.0990 -0.4996 -0.8808
 3796TIP3   OH211393   5.526   2.365   3.215  0.2318 -0.3395 -0.0772
 3796TIP3    H111394   5.511   2.395   3.305  0.5898 -0.5056  0.0378
 3796TIP3    H211395   5.439   2.367   3.175  0.3504  1.8492 -0.3843
 3797TIP3   OH211396   2.831   0.751   4.704 -0.2226  0.6358 -0.0583
 3797TIP3    H111397   2.858   0.677   4.650 -1.0340 -1.1681  1.8758
 3797TIP3    H211398   2.751   0.784   4.663 -0.3238 -0.1066 -0.4619
 3798TIP3   OH211399   2.604   2.208   2.812  0.1870 -0.3095 -0.0375
 3798TIP3    H111400   2.591   2.215   2.906  1.7859 -0.6557  0.2343
 3798TIP3    H211401   2.516   2.219   2.775 -0.7853 -2.0602  1.5691
 3799TIP3   OH211402   2.026   4.554   2.432  0.1385  0.0403  0.3366
 3799TIP3    H111403   2.109   4.564   2.479  0.2916  0.1836  0.0390
 3799TIP3    H211404   2.036   4.609   2.355  0.1299 -0.6934 -0.1904
 3800TIP3   OH211405   5.960   0.567  -0.004 -0.4077 -0.1098  0.0562
 3800TIP3    H111406   6.008   0.588   0.076 -1.4374  0.4573  0.5340
 3800TIP3    H211407   5.901   0.496   0.020 -0.8724  0.2047 -0.1522
 3801TIP3   OH211408   5.577   1.364   3.878  0.2220 -0.2665 -0.2346
 3801TIP3    H111409   5.505   1.335   3.822  0.2979 -1.4386  0.2601
 3801TIP3    H211410   5.534   1.412   3.949 -0.1105 -1.1953  0.2060
 3802TIP3   OH211411   4.548   0.730   1.499 -0.1181  0.4231  0.1540
 3802TIP3    H111412   4.478   0.739   1.563 -0.0343  1.1713  0.1389
 3802TIP3    H211413   4.581   0.641   1.514  0.7129  0.9879  1.9772
 3803TIP3   OH211414   4.718   5.817   4.108 -0.0154 -0.7412 -0.4092
 3803TIP3    H111415   4.719   5.728   4.145 -0.1174  0.1120  1.7535
 3803TIP3    H211416   4.669   5.808   4.026 -0.1078 -2.6579 -0.1875
 3804TIP3   OH211417   1.724   2.886   1.142  0.4863 -0.1105  0.5001
 3804TIP3    H111418   1.707   2.932   1.224  0.5255 -1.3297  1.2214
 3804TIP3    H211419   1.797   2.933   1.102  0.3084  0.6407  1.0406
 3805TIP3   OH211420   3.405   3.773   2.693  0.0679 -0.1843 -0.3015
 3805TIP3    H111421   3.476   3.769   2.757 -0.4784 -1.2625  0.2634
 3805TIP3    H211422   3.325   3.776   2.745 -0.3244  1.1969 -0.9253
 3806TIP3   OH211423   3.459   4.852   0.551  0.3688 -0.1595 -0.4087
 3806TIP3    H111424   3.485   4.831   0.461  1.6997  0.9531 -0.3290
 3806TIP3    H211425   3.407   4.932   0.542  0.6018  0.0178 -0.1780
 3807TIP3   OH211426   4.364   5.551   2.878  0.1496  0.1621  0.3507
 3807TIP3    H111427   4.269   5.540   2.884  0.2764 -0.7660  0.8695
 3807TIP3    H211428   4.382   5.632   2.924 -0.2550 -0.3958  1.5264
 3808TIP3   OH211429   4.405   4.883   1.058 -0.5726 -0.0961  0.0327
 3808TIP3    H111430   4.319   4.917   1.084 -1.6505 -0.7041 -2.3471
 3808TIP3    H211431   4.403   4.888   0.962  1.6046 -1.2281 -0.1144
 3809TIP3   OH211432   5.778   0.727   4.463 -0.1055 -0.3864 -0.3118
 3809TIP3    H111433   5.802   0.660   4.398 -0.5290  1.1028 -2.0898
 3809TIP3    H211434   5.824   0.805   4.434 -0.8113  0.4781  0.8420
 3810TIP3   OH211435   4.094   3.987   0.819 -0.0156 -0.5053  0.6554
 3810TIP3    H111436   4.040   3.940   0.755 -1.8063  0.3921  1.4169
 3810TIP3    H211437   4.164   4.027   0.767 -1.2171 -0.0853 -0.7197
 3811TIP3   OH211438   4.305   1.196   0.962  0.1506  0.2528  0.2697
 3811TIP3    H111439   4.339   1.158   1.043 -0.5133 -0.9689  0.0091
 3811TIP3    H211440   4.292   1.120   0.905 -1.3977  0.8523 -0.2226
 3812TIP3   OH211441   1.317   0.606   2.844  0.1462  0.2535 -0.2828
 3812TIP3    H111442   1.224   0.609   2.821  0.2556 -0.0155 -0.7710
 3812TIP3    H211443   1.355   0.541   2.784  1.0162  1.6995 -1.3851
 3813TIP3   OH211444   3.250  -0.015   4.276  0.2419 -0.3505  0.2597
 3813TIP3    H111445   3.255  -0.037   4.369 -0.5199 -0.8346  0.1914
 3813TIP3    H211446   3.195   0.063   4.272  0.7832  0.0311  0.2704
 3814TIP3   OH211447   4.620   4.260   3.413  0.0598  0.5971  0.1082
 3814TIP3    H111448   4.628   4.350   3.446 -0.3635  0.3449  0.9243
 3814TIP3    H211449   4.695   4.249   3.355  0.5056  1.2445  0.5502
 3815TIP3   OH211450   4.492   3.479   1.406 -0.3254  0.3396  0.4196
 3815TIP3    H111451   4.569   3.509   1.453  0.2152 -0.6802  0.2070
 3815TIP3    H211452   4.478   3.390   1.437 -0.9574  0.2379 -0.1295
 3816TIP3   OH211453   3.608   3.725   0.030 -0.3283 -0.5398  0.1623
 3816TIP3    H111454   3.698   3.745   0.006 -0.6616 -0.0963 -0.7888
 3816TIP3    H211455   3.614   3.650   0.090  0.7080 -0.0176  0.7271
 3817TIP3   OH211456   0.345   3.414   3.467  0.4129 -0.1245  0.2166
 3817TIP3    H111457   0.358   3.380   3.556  1.1516  0.0178  0.1668
 3817TIP3    H211458   0.418   3.379   3.417 -0.2422 -0.5554 -0.4454
 3818TIP3   OH211459   2.401   0.317   1.025  0.3428  0.2103 -0.3629
 3818TIP3    H111460   2.308   0.340   1.025  0.5832  1.2370  0.4851
 3818TIP3    H211461   2.446   0.398   1.046  1.4980 -0.0943 -1.5409
 3819TIP3   OH211462   1.734   3.307   3.171  0.3065  0.3014 -0.5325
 3819TIP3    H111463   1.646   3.343   3.166  0.6540  1.1072 -0.9968
 3819TIP3    H211464   1.786   3.363   3.114  0.7345 -1.3426 -1.8322
 3820TIP3   OH211465   0.671   2.533   4.617 -0.0125 -0.4536 -0.2618
 3820TIP3    H111466   0.634   2.463   4.564 -1.3822  0.2041 -0.2138
 3820TIP3    H211467   0.611   2.607   4.605  0.8040  0.3748  0.5441
 3821TIP3   OH211468   3.811   5.382   3.725 -0.0950  0.1357  0.2819
 3821TIP3    H111469   3.885   5.397   3.667  0.3663 -0.8764  0.5834
 3821TIP3    H211470   3.746   5.448   3.700  0.1757 -0.1540 -1.2403
 3822TIP3   OH211471   5.514   1.231   2.376  0.4656  0.1841  0.3147
 3822TIP3    H111472   5.429   1.200   2.346  1.3161 -1.9686 -0.0974
 3822TIP3    H211473   5.555   1.154   2.416  2.5382  0.9079 -0.2681
 3823TIP3   OH211474   4.952   4.154   0.787  0.1960 -0.0977  0.7527
 3823TIP3    H111475   5.039   4.188   0.808  0.0723  0.8430 -0.2044
 3823TIP3    H211476   4.904   4.230   0.755 -0.4375 -0.9580 -0.3687
 3824TIP3   OH211477   4.715   2.043   4.571 -0.4916  0.3429  0.3920
 3824TIP3    H111478   4.677   1.956   4.558  1.5754 -0.5684  0.0423
 3824TIP3    H211479   4.788   2.029   4.631  0.6667  1.6094 -0.6607
 3825TIP3   OH211480   5.224   5.341   2.683 -0.6755 -0.5300 -0.3376
 3825TIP3    H111481   5.274   5.261   2.663  0.2976  0.0757 -0.4222
 3825TIP3    H211482   5.132   5.314   2.678 -0.3660 -1.8304  0.4235
 3826TIP3   OH211483   5.995   1.248   0.587  0.0974  0.3131  0.0028
 3826TIP3    H111484   5.978   1.198   0.667  0.3628  0.5469  0.2053
 3826TIP3    H211485   5.945   1.202   0.520 -0.1639  0.1397  0.3103
 3827TIP3   OH211486   2.164   2.807   1.107 -0.1676  0.2650 -0.2094
 3827TIP3    H111487   2.118   2.770   1.032  1.8284 -1.6836 -0.5647
 3827TIP3    H211488   2.244   2.844   1.070 -1.2020  3.4177  0.4176
 3828TIP3   OH211489   1.637   0.388   3.512 -0.1782 -0.2965 -0.0296
 3828TIP3    H111490   1.718   0.425   3.476  0.2811  1.4441  2.5037
 3828TIP3    H211491   1.651   0.387   3.607 -2.3420 -1.9715  0.3511
 3829TIP3   OH211492   0.049   5.360   2.583 -0.5139  0.3347  0.3498
 3829TIP3    H111493   0.081   5.376   2.494 -0.8115  1.1407  0.3790
 3829TIP3    H211494   0.018   5.270   2.582 -1.1677  0.5602 -0.5674
 3830TIP3   OH211495   2.592   3.717   1.931 -0.8317  0.2097 -0.1037
 3830TIP3    H111496   2.636   3.800   1.947 -2.2965  1.2913 -1.3588
 3830TIP3    H211497   2.538   3.702   2.008  1.7026 -1.2269  1.5416
 3831TIP3   OH211498   2.830   1.478   1.216  0.3335 -0.8215  0.2633
 3831TIP3    H111499   2.766   1.426   1.265  0.4426  0.6552  2.0921
 3831TIP3    H211500   2.820   1.567   1.251  1.0767  0.1316 -1.8028
 3832TIP3   OH211501   5.607   5.888   3.181 -0.2919 -0.0831  0.5358
 3832TIP3    H111502   5.518   5.855   3.195  0.2420 -1.3535  1.1491
 3832TIP3    H211503   5.658   5.810   3.158  0.7381  0.5706  0.5084
 3833TIP3   OH211504   3.272   5.488   1.873  0.4402  0.1475  0.1416
 3833TIP3    H111505   3.185   5.508   1.907 -0.4636  1.3650 -2.5903
 3833TIP3    H211506   3.271   5.394   1.858  0.0501 -0.0334  1.1865
 3834TIP3   OH211507   4.016   2.029   4.055 -0.4126  0.3208 -0.0901
 3834TIP3    H111508   3.935   1.981   4.036  0.6918 -1.1032 -1.5722
 3834TIP3    H211509   4.020   2.034   4.150 -0.7293 -2.4140  0.1610
 3835TIP3   OH211510   0.258   0.076   4.450  0.0920 -0.1666 -0.4414
 3835TIP3    H111511   0.209   0.156   4.429  1.0610  0.3018 -0.9714
 3835TIP3    H211512   0.342   0.087   4.405  0.9353 -0.6667  0.9638
 3836TIP3   OH211513   6.293   5.030   1.264 -0.0402 -0.3914  0.4994
 3836TIP3    H111514   6.310   5.115   1.304 -0.2004  0.6746 -1.5535
 3836TIP3    H211515   6.285   4.970   1.338  2.4164  0.8952  1.9465
 3837TIP3   OH211516   4.012   1.168   3.330 -0.4826  0.0025 -0.6780
 3837TIP3    H111517   4.107   1.163   3.320 -0.0867  1.4235  1.7320
 3837TIP3    H211518   3.991   1.260   3.315 -1.6289 -0.4129 -1.8451
 3838TIP3   OH211519   2.406   4.845   2.927  0.0903 -0.1914 -0.4131
 3838TIP3    H111520   2.435   4.835   3.018  1.1403  1.5205 -0.5157
 3838TIP3    H211521   2.485   4.871   2.880 -0.5494 -0.5858 -1.7442
 3839TIP3   OH211522   5.243   0.557   3.722  0.0121  0.2070  0.0525
 3839TIP3    H111523   5.332   0.570   3.687  0.2746  1.0695  0.9745
 3839TIP3    H211524   5.239   0.616   3.798 -1.0851 -0.4141  0.4949
 3840TIP3   OH211525   1.691   3.633   3.181  0.1296  0.3263  0.2054
 3840TIP3    H111526   1.771   3.663   3.137  0.3122 -1.0993 -0.4893
 3840TIP3    H211527   1.631   3.612   3.110 -0.9193  1.4540  0.7259
 3841TIP3   OH211528   0.159   3.329   4.803 -0.4785  0.6033  0.2467
 3841TIP3    H111529   0.177   3.242   4.839 -0.4334  0.3749 -0.3171
 3841TIP3    H211530   0.155   3.386   4.879  1.5185  0.4847  0.5033
 3842TIP3   OH211531   5.122   5.504   3.364  0.3905 -0.7619 -0.7497
 3842TIP3    H111532   5.120   5.563   3.440  1.0729 -1.8861  0.1670
 3842TIP3    H211533   5.079   5.554   3.294 -0.3478  0.2635  0.3924
 3843TIP3   OH211534   0.115   1.785   3.611 -0.0368 -0.3666 -0.5446
 3843TIP3    H111535   0.155   1.862   3.652 -0.1854 -1.0928  1.0289
 3843TIP3    H211536   0.047   1.758   3.672 -1.4365 -0.5117 -2.0885
 3844TIP3   OH211537   3.920   2.739   3.824 -0.4279 -0.1782  0.3080
 3844TIP3    H111538   3.933   2.796   3.749 -1.1472 -1.1185 -0.5635
 3844TIP3    H211539   3.951   2.653   3.795  0.2121 -0.3486  1.4380
 3845TIP3   OH211540   6.259   4.974   4.719 -0.1780 -0.1095 -0.0432
 3845TIP3    H111541   6.339   4.957   4.670 -1.1319 -1.4327 -1.2245
 3845TIP3    H211542   6.237   4.890   4.759 -2.0459 -0.3699 -1.4435
 3846TIP3   OH211543   1.811   2.019   2.057 -0.3874  0.1252 -0.3671
 3846TIP3    H111544   1.768   2.104   2.049  0.0777  0.6314  1.8526
 3846TIP3    H211545   1.738   1.956   2.059 -0.6939  0.1204 -4.1811
 3847TIP3   OH211546   4.721   2.417   0.485  0.1525 -0.2336 -0.3768
 3847TIP3    H111547   4.701   2.341   0.541  0.5389  0.6440  0.9937
 3847TIP3    H211548   4.814   2.407   0.464  0.2598 -0.0382 -0.0111
 3848TIP3   OH211549   3.601   5.573   2.292 -0.1216  0.2534  0.2196
 3848TIP3    H111550   3.584   5.606   2.380 -1.5404 -0.5383  0.2749
 3848TIP3    H211551   3.696   5.571   2.285  0.0786 -1.2962  2.3862
 3849TIP3   OH211552   5.082   3.309   4.512  0.0221 -0.5133  0.6181
 3849TIP3    H111553   5.153   3.259   4.552 -0.9008 -0.3843  2.4986
 3849TIP3    H211554   5.017   3.243   4.488  0.3714 -0.5409 -0.3228
 3850TIP3   OH211555   5.579   5.450   2.155 -0.1021 -0.0275 -0.1232
 3850TIP3    H111556   5.641   5.446   2.228 -1.0695 -0.9615  0.6859
 3850TIP3    H211557   5.496   5.477   2.195 -0.8353 -1.3007 -0.7065
 3851TIP3   OH211558   2.205   3.572   3.894 -0.4526 -0.2046 -0.1226
 3851TIP3    H111559   2.249   3.584   3.810 -1.7596 -0.7484 -0.9220
 3851TIP3    H211560   2.261   3.512   3.942  0.4672  0.3557 -0.4806
 3852TIP3   OH211561   6.044   1.083   2.054 -0.4801 -0.5858  0.0276
 3852TIP3    H111562   6.080   0.999   2.025 -0.9698 -0.5478 -0.7210
 3852TIP3    H211563   5.979   1.105   1.987 -0.7463  0.1215  0.5144
 3853TIP3   OH211564   0.786   3.342   0.402  0.1068  0.0499  0.2222
 3853TIP3    H111565   0.807   3.427   0.363  0.7405  0.5077  1.5126
 3853TIP3    H211566   0.867   3.315   0.444 -0.9623  0.3832  2.6501
 3854TIP3   OH211567   3.298   4.432   2.633  0.3621 -0.1431  0.0853
 3854TIP3    H111568   3.284   4.520   2.668 -0.4068  0.3062 -1.2743
 3854TIP3    H211569   3.215   4.408   2.593 -0.3678 -2.7000  2.8340
 3855TIP3   OH211570   4.922   4.317   4.394 -0.0095  0.2008  0.2274
 3855TIP3    H111571   4.946   4.229   4.425  0.5214  0.1612 -0.2794
 3855TIP3    H211572   4.863   4.301   4.320  1.5739  0.2036 -1.1073
 3856TIP3   OH211573   5.081   2.688   2.962 -0.4117  0.2837 -0.3580
 3856TIP3    H111574   5.092   2.643   3.046 -1.5396 -1.1967 -0.9527
 3856TIP3    H211575   4.988   2.676   2.941 -0.8326  3.0397 -0.5245
 3857TIP3   OH211576   5.788   2.268   3.788 -0.2948  0.4932 -0.3584
 3857TIP3    H111577   5.773   2.362   3.800 -0.8392  0.4647 -0.7386
 3857TIP3    H211578   5.875   2.262   3.749  0.3473  0.7445  1.0061
 3858TIP3   OH211579   1.376   5.413   4.441  0.2162  0.4714  0.0741
 3858TIP3    H111580   1.380   5.331   4.394 -0.4050  0.5978 -0.2118
 3858TIP3    H211581   1.428   5.399   4.520  0.1817 -0.1628 -0.0177
 3859TIP3   OH211582   3.839   2.536   2.389 -0.0221  0.2886 -0.4255
 3859TIP3    H111583   3.879   2.575   2.466  1.0659 -0.7862 -0.4184
 3859TIP3    H211584   3.745   2.533   2.409  0.2377  0.0757  0.8176
 3860TIP3   OH211585   4.663   3.723   1.139 -0.3851  0.1752  0.2382
 3860TIP3    H111586   4.744   3.751   1.181  0.3943 -0.6511 -0.6651
 3860TIP3    H211587   4.688   3.704   1.049 -1.1143 -2.1816  0.4761
 3861TIP3   OH211588   1.242   2.076   0.974 -0.1982  0.2605  0.3684
 3861TIP3    H111589   1.300   2.147   1.001  1.0276 -0.5630 -0.0124
 3861TIP3    H211590   1.258   2.066   0.880 -0.0514 -0.7492  0.4831
 3862TIP3   OH211591   0.778   5.452   3.058  0.5314 -0.6956  0.3077
 3862TIP3    H111592   0.725   5.514   3.008  1.1157 -0.0276  0.5003
 3862TIP3    H211593   0.751   5.464   3.149  1.2242 -0.1384  0.4409
 3863TIP3   OH211594   3.839   0.109   3.062  0.2779 -0.3250  0.3398
 3863TIP3    H111595   3.805   0.183   3.112 -1.2503 -0.5649 -0.2912
 3863TIP3    H211596   3.832   0.034   3.121  0.4081 -0.2401  0.4628
 3864TIP3   OH211597   1.663   2.159   1.000  0.2868  0.0910 -0.1781
 3864TIP3    H111598   1.618   2.195   1.076  0.3926 -1.0574  0.4592
 3864TIP3    H211599   1.738   2.217   0.987  0.0089  0.5708  0.3030
 3865TIP3   OH211600   2.140   4.524   3.063 -0.6055  0.0054 -0.4808
 3865TIP3    H111601   2.111   4.445   3.108 -1.1213  0.3691 -0.1534
 3865TIP3    H211602   2.229   4.538   3.094 -0.2435 -0.8532 -1.1088
 3866TIP3   OH211603   4.550   3.879   0.889  0.0683  0.3974  0.0449
 3866TIP3    H111604   4.455   3.888   0.901  0.4783  2.5942  2.8485
 3866TIP3    H211605   4.572   3.944   0.822 -0.2448  0.9928  0.5107
 3867TIP3   OH211606   6.003   5.720   2.532 -0.3852 -0.7558  0.2525
 3867TIP3    H111607   5.964   5.724   2.445  1.0711  0.3406 -0.4048
 3867TIP3    H211608   6.032   5.630   2.542  0.3899 -0.6470 -0.8634
 3868TIP3   OH211609   2.624   0.687   2.950 -0.5155 -0.1142  0.4427
 3868TIP3    H111610   2.529   0.697   2.942 -0.8902 -1.3436  2.5603
 3868TIP3    H211611   2.641   0.597   2.921 -0.0450 -0.0235  0.4328
 3869TIP3   OH211612   3.067   0.200   1.676 -0.1803 -0.3509  0.1799
 3869TIP3    H111613   3.112   0.218   1.758  0.4547  2.1495 -0.6378
 3869TIP3    H211614   3.118   0.130   1.636  0.3508 -0.6001  1.2415
 3870TIP3   OH211615   1.405   5.190   3.811 -0.3554  0.2148 -0.2453
 3870TIP3    H111616   1.463   5.237   3.871 -0.8462 -0.6452  0.9449
 3870TIP3    H211617   1.318   5.200   3.850 -0.6414 -0.6180 -0.6530
 3871TIP3   OH211618   5.854   5.021   4.843 -0.1596  0.3339 -0.0656
 3871TIP3    H111619   5.884   5.112   4.838 -0.0784  0.3211  0.1467
 3871TIP3    H211620   5.776   5.025   4.899  1.1098 -0.0084  1.8343
 3872TIP3   OH211621   5.779   0.993   3.399  0.3105  0.0938  0.1087
 3872TIP3    H111622   5.694   0.986   3.355  0.0921 -0.6778  0.6423
 3872TIP3    H211623   5.790   0.909   3.443  1.4287  0.1277 -0.0908
 3873TIP3   OH211624   1.768   5.679   2.616  0.5941 -0.0281 -0.4557
 3873TIP3    H111625   1.742   5.765   2.583  1.2894 -0.4790 -2.2816
 3873TIP3    H211626   1.770   5.689   2.711 -1.2381  1.4228 -0.5183
 3874TIP3   OH211627   2.216   2.557   3.582 -0.1219 -0.8612 -0.3926
 3874TIP3    H111628   2.132   2.573   3.626 -0.4549  1.5479 -1.7127
 3874TIP3    H211629   2.281   2.560   3.652 -0.8581  0.4021  0.2695
 3875TIP3   OH211630   1.643   0.298   2.636 -0.0107  0.3391  0.5139
 3875TIP3    H111631   1.720   0.247   2.663 -0.1857 -0.2397 -0.0432
 3875TIP3    H211632   1.655   0.311   2.542 -1.3370 -1.1178  0.0918
 3876TIP3   OH211633   5.973   2.053   1.145  0.4816 -0.4200  0.0160
 3876TIP3    H111634   5.882   2.040   1.118  1.0237 -0.4156 -1.9835
 3876TIP3    H211635   5.967   2.081   1.237 -1.4713 -1.1127  0.1496
 3877TIP3   OH211636   5.930   1.430   2.894  0.2078 -0.0381 -0.1342
 3877TIP3    H111637   5.920   1.450   2.987 -1.0704 -2.7779  0.4352
 3877TIP3    H211638   6.025   1.424   2.881  0.4182 -2.2123  1.7318
 3878TIP3   OH211639   0.413   2.760   2.420  0.2084 -0.1282 -0.3307
 3878TIP3    H111640   0.465   2.766   2.500  0.3271 -0.8464 -0.3453
 3878TIP3    H211641   0.403   2.666   2.405  0.2230 -0.0063 -1.1796
 3879TIP3   OH211642   0.112   2.520   5.153  0.0112 -0.4217  0.2487
 3879TIP3    H111643   0.112   2.448   5.090 -2.9367 -1.2992  1.1227
 3879TIP3    H211644   0.150   2.483   5.232 -0.0665 -0.5323  0.2337
 3880TIP3   OH211645   5.197   3.938   1.329 -0.2453 -0.2022  0.3838
 3880TIP3    H111646   5.291   3.921   1.333  0.1561  1.7938  0.8533
 3880TIP3    H211647   5.186   3.996   1.253 -1.0293 -0.1191  0.5474
 3881TIP3   OH211648   6.025   3.114   0.504  0.2790  0.1905  0.8081
 3881TIP3    H111649   6.022   3.201   0.463  0.9014  0.3555  1.1020
 3881TIP3    H211650   6.051   3.131   0.594 -0.7266 -0.2060  1.1856
 3882TIP3   OH211651   1.286   1.265   3.138 -0.6176  0.4220 -0.1015
 3882TIP3    H111652   1.256   1.332   3.077 -1.7850  1.8344  1.8818
 3882TIP3    H211653   1.265   1.182   3.096 -4.8054  1.3098 -0.1263
 3883TIP3   OH211654   1.524   5.967   2.932  0.4519 -0.2702  0.0260
 3883TIP3    H111655   1.601   6.011   2.968  2.0051 -2.3408 -0.5902
 3883TIP3    H211656   1.470   5.947   3.009  1.8737 -1.2261  0.8215
 3884TIP3   OH211657   6.179   1.390   4.143 -0.1262 -0.2629  0.4491
 3884TIP3    H111658   6.223   1.310   4.115  1.7934  0.9182 -0.0583
 3884TIP3    H211659   6.163   1.439   4.062  0.2662  0.6109  0.8828
 3885TIP3   OH211660   5.595   1.569   3.192  0.4953  0.5695  0.1648
 3885TIP3    H111661   5.538   1.612   3.128 -1.6036  0.2878  1.7490
 3885TIP3    H211662   5.624   1.489   3.149 -1.9230 -0.2705 -0.0463
 3886TIP3   OH211663   3.322   5.889   2.016  0.2537 -0.0790  0.1537
 3886TIP3    H111664   3.395   5.826   2.012  0.3202 -0.3080  3.1492
 3886TIP3    H211665   3.271   5.869   1.938  1.5203 -2.3066 -0.2198
 3887TIP3   OH211666   0.113   2.520   1.768  0.2166  0.2867  0.1591
 3887TIP3    H111667   0.168   2.514   1.847 -1.3613  1.0289  1.3720
 3887TIP3    H211668   0.025   2.503   1.800 -0.4366  0.3824 -1.5208
 3888TIP3   OH211669   4.812   4.539   2.707 -0.3496  0.1940  0.0492
 3888TIP3    H111670   4.829   4.486   2.785  0.0250  1.1227  0.6247
 3888TIP3    H211671   4.876   4.510   2.643 -1.1562 -1.1198 -0.2127
 3889TIP3   OH211672   0.713   0.915   3.834 -0.4433 -0.6918  0.5466
 3889TIP3    H111673   0.698   0.933   3.927  1.1822 -3.0204  1.3563
 3889TIP3    H211674   0.721   0.820   3.829 -2.1229 -0.7836 -2.2957
 3890TIP3   OH211675   4.119   4.084   0.297 -0.5886 -0.2542 -0.0771
 3890TIP3    H111676   4.152   4.123   0.215  0.2219 -0.3601  0.1917
 3890TIP3    H211677   4.053   4.146   0.327 -0.3015  0.2129 -0.3828
 3891TIP3   OH211678   3.818   0.395   4.664 -0.4054  0.3633 -0.2589
 3891TIP3    H111679   3.770   0.357   4.591 -0.7686 -2.0265  1.0901
 3891TIP3    H211680   3.770   0.365   4.742  1.6137  0.3139  1.0379
 3892TIP3   OH211681   2.126   4.984   4.396  0.3854  0.0047 -0.4470
 3892TIP3    H111682   2.033   5.002   4.387  0.7501  1.4550 -1.8373
 3892TIP3    H211683   2.134   4.890   4.378 -0.8659 -0.3139  0.5106
 3893TIP3   OH211684   1.340   4.497   4.889 -0.1252 -0.0085  0.1546
 3893TIP3    H111685   1.412   4.536   4.938  0.9811 -0.9454 -0.6615
 3893TIP3    H211686   1.323   4.559   4.818 -1.0924  0.8860  1.1259
 3894TIP3   OH211687   5.053   0.311   3.186 -0.2812 -0.0931  0.2560
 3894TIP3    H111688   5.015   0.324   3.273 -0.7892  0.9402 -0.1006
 3894TIP3    H211689   5.145   0.290   3.203  0.1786  2.2327  1.0195
 3895TIP3   OH211690   2.338   0.959   1.158  0.0421  0.5420  0.4023
 3895TIP3    H111691   2.244   0.941   1.161  0.2292 -0.6950 -0.1945
 3895TIP3    H211692   2.379   0.878   1.189  0.9389  0.3084 -1.2544
 3896TIP3   OH211693   0.771   5.522   1.938  0.1819  0.4905 -0.0008
 3896TIP3    H111694   0.798   5.522   1.846  0.0107  1.6960 -0.0652
 3896TIP3    H211695   0.848   5.489   1.985  0.7016  1.0084 -0.4664
 3897TIP3   OH211696   5.164   5.943   4.996 -0.2244  0.0800  0.5954
 3897TIP3    H111697   5.080   5.988   4.992 -0.9128 -1.1460 -3.8980
 3897TIP3    H211698   5.142   5.856   5.028 -0.2736  0.3967  1.4457
 3898TIP3   OH211699   5.084   1.126   4.716  0.2245  0.1435 -0.3205
 3898TIP3    H111700   5.044   1.040   4.729 -1.2757  0.9073  0.3388
 3898TIP3    H211701   5.042   1.161   4.637  0.6985  0.3440 -0.4873
 3899TIP3   OH211702   1.703   0.705   1.488  0.0513 -0.1445  0.1068
 3899TIP3    H111703   1.756   0.744   1.419  0.9226 -2.3650 -0.5924
 3899TIP3    H211704   1.750   0.625   1.512 -1.7407 -0.9448  1.1965
 3900TIP3   OH211705   5.276   4.300   1.629 -0.0994  0.3757  0.7198
 3900TIP3    H111706   5.216   4.343   1.690 -2.5764 -1.0355 -0.5132
 3900TIP3    H211707   5.279   4.209   1.659  0.6027  0.2110  0.1583
 3901TIP3   OH211708   3.084   2.429   1.010  0.0337 -0.1280 -0.5050
 3901TIP3    H111709   3.147   2.359   0.991 -1.2013 -1.3000 -0.4789
 3901TIP3    H211710   3.133   2.491   1.064  0.9194 -1.4521  0.2959
 3902TIP3   OH211711   0.658   2.169   5.166 -0.8594  0.0956 -0.2539
 3902TIP3    H111712   0.743   2.125   5.177 -0.2704  1.2909  0.0994
 3902TIP3    H211713   0.661   2.204   5.077 -1.3981 -0.7052 -0.5959
 3903TIP3   OH211714   3.423   3.529   4.371 -1.1339  0.4180 -0.1296
 3903TIP3    H111715   3.417   3.598   4.438 -1.3750 -0.3539  0.6572
 3903TIP3    H211716   3.339   3.533   4.326 -0.9468  0.9859 -0.4366
 3904TIP3   OH211717   1.583   4.635   1.329  0.3992  0.1610  0.0074
 3904TIP3    H111718   1.606   4.725   1.303 -2.0758  0.3059 -2.1753
 3904TIP3    H211719   1.522   4.646   1.402 -2.2025  0.6073 -2.0414
 3905TIP3   OH211720   2.599   0.271   4.675 -0.0308  0.1873 -0.5159
 3905TIP3    H111721   2.545   0.194   4.658 -0.3153  0.4808 -0.9835
 3905TIP3    H211722   2.664   0.242   4.738 -0.2431 -0.3889 -0.5586
 3906TIP3   OH211723   1.214   5.335   2.630 -0.3393 -0.0431  0.5918
 3906TIP3    H111724   1.303   5.348   2.662  0.5289 -0.6788 -1.4048
 3906TIP3    H211725   1.205   5.241   2.622 -0.3786  0.0690 -1.2069
 3907TIP3   OH211726   6.215   0.878   1.538 -0.8284  0.5116  0.4665
 3907TIP3    H111727   6.309   0.888   1.526 -0.9698 -0.4268 -1.9140
 3907TIP3    H211728   6.178   0.959   1.505 -0.9290  0.1079 -0.4470
 3908TIP3   OH211729   5.304   5.439   2.446  0.7931 -0.4844  0.0756
 3908TIP3    H111730   5.262   5.404   2.524 -2.2343  2.2260 -0.1453
 3908TIP3    H211731   5.376   5.493   2.480  1.2578 -1.4905  0.7445
 3909TIP3   OH211732   5.690   4.031   0.321  0.1595  0.2971  0.0103
 3909TIP3    H111733   5.664   3.944   0.354 -1.3406  0.6419 -0.1932
 3909TIP3    H211734   5.629   4.091   0.363  1.1215  1.2547  0.0572
 3910TIP3   OH211735   3.338   3.830   3.005  0.2166 -0.2172  0.5703
 3910TIP3    H111736   3.329   3.835   3.100  0.4669 -0.6975  0.6223
 3910TIP3    H211737   3.315   3.917   2.974 -1.8038 -0.5716  0.9099
 3911TIP3   OH211738   6.286   4.538   3.103  0.1916  0.2008 -0.1825
 3911TIP3    H111739   6.243   4.590   3.035  0.9117 -1.8858 -2.3638
 3911TIP3    H211740   6.354   4.596   3.137 -1.2814  1.8941  0.0222
 3912TIP3   OH211741   0.316   2.738   3.122  0.1292  0.0344  0.3191
 3912TIP3    H111742   0.227   2.715   3.096  0.8806 -1.6392 -0.8967
 3912TIP3    H211743   0.334   2.819   3.075 -1.7935  2.2405  3.0099
 3913TIP3   OH211744   3.998   3.169   3.438 -0.1350  0.0042 -0.1977
 3913TIP3    H111745   4.012   3.183   3.344 -0.2172  1.6217  0.0059
 3913TIP3    H211746   3.938   3.239   3.464 -1.2023 -1.2252  0.8107
 3914TIP3   OH211747   1.394   3.753   3.790 -0.0849 -0.3881  0.2401
 3914TIP3    H111748   1.412   3.807   3.713 -2.9082 -0.1015 -0.3320
 3914TIP3    H211749   1.473   3.758   3.843  1.0913  1.2658 -1.5616
 3915TIP3   OH211750   4.993   3.371   0.827 -0.0533 -0.4396 -0.6473
 3915TIP3    H111751   5.002   3.402   0.736 -0.9281 -0.4517 -0.7464
 3915TIP3    H211752   4.918   3.311   0.824  0.9458 -1.7559 -0.2414
 3916TIP3   OH211753   3.910   0.600   4.156  0.2899  0.2068  0.1988
 3916TIP3    H111754   3.893   0.688   4.188 -0.2482 -0.1339  0.8846
 3916TIP3    H211755   3.824   0.569   4.126  0.9585  0.9856 -2.8757
 3917TIP3   OH211756   1.805   3.252   4.337  0.3656 -0.5724 -0.2375
 3917TIP3    H111757   1.803   3.347   4.331  0.0695 -0.5370  0.3786
 3917TIP3    H211758   1.754   3.222   4.263 -0.3011 -0.2316  0.0780
 3918TIP3   OH211759   5.003   5.713   3.182 -0.0868  0.3540  0.6802
 3918TIP3    H111760   5.034   5.804   3.186  1.3061 -0.1063  0.8752
 3918TIP3    H211761   5.043   5.677   3.103 -0.2133 -0.2493  0.8863
 3919TIP3   OH211762   5.680   1.646   4.500 -0.4065 -0.1431  0.1296
 3919TIP3    H111763   5.693   1.699   4.422 -2.5326 -1.1487 -1.0009
 3919TIP3    H211764   5.656   1.708   4.569  0.8009  0.6810 -0.1819
 3920TIP3   OH211765   1.587   0.471   4.365 -0.0171 -0.1277  0.0464
 3920TIP3    H111766   1.568   0.378   4.374 -2.0158 -0.2870 -3.7351
 3920TIP3    H211767   1.670   0.474   4.317  1.0005  0.1817  1.7360
 3921TIP3   OH211768   1.094   1.844   4.044 -0.7392  0.2124 -0.6378
 3921TIP3    H111769   1.090   1.762   3.995  1.8274  0.1497 -0.8872
 3921TIP3    H211770   1.157   1.827   4.114 -3.5714  0.6003  2.2489
 3922TIP3   OH211771   1.251   1.456   2.926  0.0412 -0.3670 -0.4377
 3922TIP3    H111772   1.168   1.441   2.880 -0.0692 -0.6065 -0.1623
 3922TIP3    H211773   1.246   1.547   2.954  0.7345  0.2408 -2.1550
 3923TIP3   OH211774   4.731   5.341   4.941  0.2880  0.4803  0.0382
 3923TIP3    H111775   4.777   5.380   5.015 -0.8263 -1.5819  1.9561
 3923TIP3    H211776   4.644   5.382   4.942 -0.5740 -1.2362  1.4986
 3924TIP3   OH211777   5.545   4.086   4.962 -0.0685 -0.2191 -0.3258
 3924TIP3    H111778   5.523   4.159   5.020 -0.6292 -0.7432  0.1435
 3924TIP3    H211779   5.468   4.075   4.907  0.7474  0.7515 -1.7072
 3925TIP3   OH211780   5.833   0.554   4.726  0.0624  0.1502 -0.4248
 3925TIP3    H111781   5.815   0.473   4.678  0.1924 -0.8362  1.1267
 3925TIP3    H211782   5.929   0.556   4.736 -0.0906 -1.0066  1.9410
 3926TIP3   OH211783   6.055   1.952   3.942  0.5180  0.3181  0.1160
 3926TIP3    H111784   6.016   1.939   3.856 -0.0292  1.4012  0.1849
 3926TIP3    H211785   5.999   2.017   3.985  2.0716  1.5383  0.4266
 3927TIP3   OH211786   3.562   2.440   1.653  0.2793 -0.1630 -0.4953
 3927TIP3    H111787   3.474   2.428   1.689  0.9088 -0.6073  1.0189
 3927TIP3    H211788   3.570   2.375   1.584 -0.6079 -0.0733 -0.6803
 3928TIP3   OH211789   4.121   4.463   2.508 -0.1217 -0.1913 -0.1414
 3928TIP3    H111790   4.173   4.543   2.513 -0.7518  0.1586  1.1621
 3928TIP3    H211791   4.158   4.407   2.577 -2.2716  0.5803  1.7465
 3929TIP3   OH211792   1.942   0.510   4.433  0.7630  0.3600  0.4387
 3929TIP3    H111793   1.917   0.561   4.510  0.5077 -0.4171  0.8847
 3929TIP3    H211794   1.912   0.562   4.359 -0.3941  0.4028  0.9154
 3930TIP3   OH211795   3.499   4.484   0.115 -0.0320  0.9015 -0.2182
 3930TIP3    H111796   3.492   4.517   0.026 -1.6952 -0.2627 -0.5735
 3930TIP3    H211797   3.413   4.499   0.154  0.0979 -0.2360  0.5758
 3931TIP3   OH211798   1.000   2.049   0.363 -0.4778  0.2930  0.0354
 3931TIP3    H111799   0.973   2.119   0.422 -0.4693  1.3516 -1.1497
 3931TIP3    H211800   1.008   2.093   0.278 -0.4307 -1.1560 -0.7288
 3932TIP3   OH211801   0.346   2.918   4.055 -0.3387 -0.2517  0.1036
 3932TIP3    H111802   0.289   2.875   3.992  2.4097 -2.4979 -1.0898
 3932TIP3    H211803   0.385   2.847   4.105  0.1420  1.2762  2.0262
 3933TIP3   OH211804   2.599   4.247   0.425  0.5063 -0.3763  0.1402
 3933TIP3    H111805   2.653   4.176   0.460  1.0083 -0.3587 -0.5753
 3933TIP3    H211806   2.652   4.285   0.356 -0.0191  0.2985  0.0969
 3934TIP3   OH211807   0.362   0.731   3.956  0.2428  0.1341  0.3631
 3934TIP3    H111808   0.280   0.716   3.909 -0.3732 -2.0260  1.9738
 3934TIP3    H211809   0.428   0.737   3.887 -1.1506  1.3706 -0.9458
 3935TIP3   OH211810   2.153   2.262   4.904 -0.0355 -0.2604  0.2276
 3935TIP3    H111811   2.080   2.201   4.890  0.7682 -1.4235  0.9335
 3935TIP3    H211812   2.187   2.280   4.817  1.5436 -3.1663  0.1263
 3936TIP3   OH211813   1.775   0.249   1.854  0.1560  0.1094  0.1319
 3936TIP3    H111814   1.820   0.174   1.891  0.2617 -0.1740 -0.5468
 3936TIP3    H211815   1.682   0.229   1.861  0.1753  0.0879  0.3063
 3937TIP3   OH211816   4.038   4.805   0.516  0.2458  0.0688 -0.2467
 3937TIP3    H111817   4.037   4.832   0.608 -0.8890 -2.6169  0.6365
 3937TIP3    H211818   3.946   4.800   0.492  0.4149 -1.9396 -0.6123
 3938TIP3   OH211819   3.167   1.785   3.879 -0.2187  0.0675 -0.4249
 3938TIP3    H111820   3.242   1.726   3.891  0.3452  0.7627 -0.4491
 3938TIP3    H211821   3.186   1.831   3.797 -1.0984 -0.3588 -0.8794
 3939TIP3   OH211822   5.595   2.137   1.503 -0.1587 -0.1581 -0.3279
 3939TIP3    H111823   5.629   2.090   1.579  1.8723 -0.0295 -1.0904
 3939TIP3    H211824   5.673   2.167   1.456 -1.3575  0.6001 -1.9536
 3940TIP3   OH211825   5.050   1.070   1.077  0.2114 -0.2482  0.3593
 3940TIP3    H111826   5.117   1.118   1.125  0.5759 -0.8158  0.4229
 3940TIP3    H211827   5.077   0.979   1.082  0.0520 -0.3602 -0.5911
 3941TIP3   OH211828   1.614   2.669   1.323 -0.1653 -0.2746 -0.2198
 3941TIP3    H111829   1.556   2.738   1.291 -1.9097 -1.9970 -0.8967
 3941TIP3    H211830   1.699   2.713   1.331 -1.7816  2.7946  2.4154
 3942TIP3   OH211831   6.184   0.582   1.398 -0.3500  0.2912 -0.2059
 3942TIP3    H111832   6.172   0.488   1.410 -0.4846  0.4312  0.8067
 3942TIP3    H211833   6.181   0.618   1.486 -0.9265  1.3284 -0.6384
 3943TIP3   OH211834   4.364   5.035   4.435 -0.2671  0.3321 -0.2699
 3943TIP3    H111835   4.368   5.059   4.527  1.1042  0.5398 -0.3676
 3943TIP3    H211836   4.354   5.119   4.389 -1.0862  0.2176 -0.3104
 3944TIP3   OH211837   5.536   1.557   5.148  0.4978  0.4209 -0.2467
 3944TIP3    H111838   5.512   1.479   5.098  1.0066 -1.5482  2.3511
 3944TIP3    H211839   5.629   1.547   5.166 -0.0047 -0.0564  2.6528
 3945TIP3   OH211840   0.478   0.050   4.264 -0.0081 -0.4378  0.3333
 3945TIP3    H111841   0.491  -0.030   4.213  1.3352 -0.4764  0.7123
 3945TIP3    H211842   0.557   0.101   4.250 -0.8884  0.8888  0.0279
 3946TIP3   OH211843   6.122   5.947   1.298  0.1016 -0.6387 -0.4927
 3946TIP3    H111844   6.072   6.003   1.239 -0.3386 -1.1513 -0.6101
 3946TIP3    H211845   6.107   5.858   1.266  1.2103 -0.7945 -0.6232
 3947TIP3   OH211846   5.935   4.947   5.097  0.2585 -0.2144  0.0026
 3947TIP3    H111847   5.947   4.983   5.009 -1.2519 -0.7665 -0.4660
 3947TIP3    H211848   5.869   4.879   5.086 -0.2098 -0.0676  1.6251
 3948TIP3   OH211849   4.131   0.170   3.993  0.1486 -0.6044 -0.2498
 3948TIP3    H111850   4.224   0.180   3.975 -0.0651  1.7154 -0.4163
 3948TIP3    H211851   4.117   0.216   4.076 -0.8441 -0.9353 -0.2172
 3949TIP3   OH211852   0.065   1.138   4.568 -0.6134 -0.1325  0.1070
 3949TIP3    H111853   0.006   1.212   4.553 -1.4732 -0.7039  0.6018
 3949TIP3    H211854   0.150   1.178   4.588 -1.1398  0.7203  0.6791
 3950TIP3   OH211855   3.193   2.609   3.719 -0.3223 -0.3236 -0.0470
 3950TIP3    H111856   3.147   2.564   3.648  1.0804 -2.0561  0.0505
 3950TIP3    H211857   3.206   2.698   3.686 -1.1100 -0.6268 -1.2834
 3951TIP3   OH211858   5.819   1.451   0.570  0.1861 -0.3661 -0.4482
 3951TIP3    H111859   5.830   1.491   0.484  2.1501 -1.7686 -0.9347
 3951TIP3    H211860   5.885   1.381   0.572 -0.4201 -0.9556  1.8573
 3952TIP3   OH211861   2.969   5.286   1.050  0.3598 -0.1751  0.4054
 3952TIP3    H111862   3.001   5.376   1.043 -0.6016  0.1663  0.2405
 3952TIP3    H211863   2.970   5.268   1.144 -1.1292  0.6632  0.6152
 3953TIP3   OH211864   5.999   2.559   4.009 -0.0396  0.5268 -0.1729
 3953TIP3    H111865   6.030   2.475   3.976  0.0005  0.5983 -0.3203
 3953TIP3    H211866   6.011   2.554   4.103  0.4210  0.5542 -0.2285
 3954TIP3   OH211867   3.252   3.357   0.883 -0.1867 -0.3980  0.2543
 3954TIP3    H111868   3.215   3.323   0.964 -1.6665 -2.6140 -1.2234
 3954TIP3    H211869   3.266   3.279   0.829 -0.1267  1.0577 -1.9565
 3955TIP3   OH211870   1.214   1.141   4.787 -0.2831 -0.1698  0.4139
 3955TIP3    H111871   1.187   1.188   4.708 -1.1686  0.5524  1.1267
 3955TIP3    H211872   1.192   1.200   4.859  0.0077 -1.0429  1.2377
 3956TIP3   OH211873   3.050   2.152   3.837  0.4886 -0.0911 -0.3294
 3956TIP3    H111874   3.007   2.172   3.921  0.2504  1.0342 -0.6979
 3956TIP3    H211875   3.019   2.064   3.815  2.1034 -1.2674  1.7006
 3957TIP3   OH211876   2.335   4.446   0.787  0.4974 -0.1516  0.4707
 3957TIP3    H111877   2.404   4.477   0.728  1.9537 -1.5013  1.3814
 3957TIP3    H211878   2.383   4.407   0.860 -1.2498  0.6893  2.1414
 3958TIP3   OH211879   0.534   0.252   0.837 -0.1169  0.8108  0.0420
 3958TIP3    H111880   0.450   0.267   0.794 -1.3061  0.9844  2.3103
 3958TIP3    H211881   0.575   0.339   0.839  0.0507  0.7687 -0.8528
 3959TIP3   OH211882   4.555   3.368   3.719  0.2923  0.0777  0.9288
 3959TIP3    H111883   4.610   3.400   3.648 -1.1598  0.6274 -0.0004
 3959TIP3    H211884   4.501   3.443   3.744 -0.7694 -0.7094  1.0821
 3960TIP3   OH211885   3.769   4.044   0.765  0.0104  0.1467  0.3578
 3960TIP3    H111886   3.734   4.090   0.689  1.0001 -0.2332 -0.3465
 3960TIP3    H211887   3.819   3.971   0.728 -1.1404 -1.2401  1.4330
 3961TIP3   OH211888   0.885   0.079   1.056  0.1164 -0.1500  0.4821
 3961TIP3    H111889   0.925   0.150   1.006 -0.9873  1.0568  1.2462
 3961TIP3    H211890   0.862   0.014   0.990  0.4569  0.5396 -0.3407
 3962TIP3   OH211891   1.288   2.749   1.383  0.3670 -0.2771  0.1563
 3962TIP3    H111892   1.325   2.805   1.451  0.3731 -1.1413  0.8774
 3962TIP3    H211893   1.194   2.764   1.387  0.1712 -1.6711  1.6165
 3963TIP3   OH211894   2.503   0.368   1.891  0.5568 -0.1256 -0.4404
 3963TIP3    H111895   2.463   0.448   1.858  0.7969 -0.3951 -1.4051
 3963TIP3    H211896   2.430   0.311   1.912  0.4029  0.0231 -0.5727
 3964TIP3   OH211897   3.715   0.952   0.105 -0.1899  0.0855 -0.1296
 3964TIP3    H111898   3.661   0.978   0.031 -3.2899  0.5945  2.1036
 3964TIP3    H211899   3.741   1.035   0.147  1.2442 -0.2016 -0.3774
 3965TIP3   OH211900   4.439   2.306   0.294 -0.5636  0.3824  0.5078
 3965TIP3    H111901   4.360   2.314   0.346 -0.2892  0.6186  0.8938
 3965TIP3    H211902   4.443   2.387   0.243 -0.7004  0.2609  0.3025
 3966TIP3   OH211903   6.063   3.548   4.945 -0.3644 -0.0139  0.8547
 3966TIP3    H111904   6.070   3.460   4.909 -1.7820  0.2425 -0.1212
 3966TIP3    H211905   6.100   3.606   4.878 -0.5686  0.2441  0.9601
 3967TIP3   OH211906   3.946   2.793   1.565 -0.2553 -0.0108 -0.3372
 3967TIP3    H111907   3.876   2.732   1.591  0.6509 -1.5106 -1.2363
 3967TIP3    H211908   3.934   2.805   1.471  1.0722 -0.8388 -0.6351
 3968TIP3   OH211909   5.033   4.544   0.427  1.2285  0.1137  0.5234
 3968TIP3    H111910   5.113   4.503   0.393  0.3901 -0.9058 -0.2580
 3968TIP3    H211911   5.007   4.606   0.359  1.8842  1.1866  1.2198
 3969TIP3   OH211912   1.932   5.711   1.609  0.1295  0.3746 -0.1147
 3969TIP3    H111913   1.844   5.720   1.571 -0.3008  2.3707  1.2127
 3969TIP3    H211914   1.923   5.744   1.698  2.2747  0.7700  0.0083
 3970TIP3   OH211915   5.739   0.020   4.539  0.2145  0.3680 -0.2005
 3970TIP3    H111916   5.778   0.051   4.457 -0.5016 -0.5458 -0.9071
 3970TIP3    H211917   5.659  -0.025   4.512  0.0525 -0.0910  0.9959
 3971TIP3   OH211918   5.120   2.334   2.896  0.5597 -0.0581 -0.0344
 3971TIP3    H111919   5.196   2.279   2.876  0.4005 -0.9828  1.7442
 3971TIP3    H211920   5.045   2.276   2.887  0.2546  0.2640  0.4110
 3972TIP3   OH211921   2.012   1.788   1.798  0.0211  0.3872  0.1791
 3972TIP3    H111922   2.079   1.749   1.855  2.5388  0.0410 -2.7476
 3972TIP3    H211923   1.985   1.717   1.741  1.2146  1.7121 -2.1758
 3973TIP3   OH211924   5.448   4.633   0.487  0.3350  0.4873 -0.3437
 3973TIP3    H111925   5.534   4.665   0.463  0.8736 -0.4975  0.2202
 3973TIP3    H211926   5.420   4.690   0.558  0.5043  0.8154 -0.5365
 3974TIP3   OH211927   3.954   1.010   4.682 -0.0128  0.0678  0.1069
 3974TIP3    H111928   3.869   0.970   4.698  0.6618 -1.0770  1.0924
 3974TIP3    H211929   4.015   0.958   4.736  1.6402 -0.4969 -2.1314
 3975TIP3   OH211930   5.545   2.903   4.996 -0.0757  0.0213  0.3175
 3975TIP3    H111931   5.619   2.907   5.057 -1.1523  0.9742  1.6253
 3975TIP3    H211932   5.524   2.810   4.990  0.0049 -0.0896  1.4957
 3976TIP3   OH211933   3.475   0.134   1.997 -0.0784  0.3559  0.0127
 3976TIP3    H111934   3.501   0.057   2.046 -0.8667 -0.1568 -0.3456
 3976TIP3    H211935   3.442   0.195   2.063  1.9992  1.0478  0.4789
 3977TIP3   OH211936   4.121   4.810   1.488 -0.0130 -0.1007 -0.0252
 3977TIP3    H111937   4.157   4.723   1.500 -0.8424 -0.3670  0.6531
 3977TIP3    H211938   4.069   4.804   1.407  1.5806  0.3441 -1.1240
 3978TIP3   OH211939   4.530   1.820   1.597 -0.1276  0.5589  0.2852
 3978TIP3    H111940   4.527   1.792   1.505  1.5321  2.0329 -0.2656
 3978TIP3    H211941   4.617   1.796   1.627 -1.0166 -0.9126  1.8769
 3979TIP3   OH211942   5.627   4.405   4.837 -0.7825 -0.1517 -0.4023
 3979TIP3    H111943   5.715   4.434   4.862 -0.6252 -0.3831 -0.6814
 3979TIP3    H211944   5.583   4.386   4.920 -0.9072  0.9294 -0.2024
 3980TIP3   OH211945   5.619   1.699   0.270 -0.6440 -0.2277  0.0904
 3980TIP3    H111946   5.661   1.618   0.241 -1.6668 -0.5532 -0.5007
 3980TIP3    H211947   5.542   1.670   0.318 -0.2189  0.3692  1.1774
 3981TIP3   OH211948   0.057   0.211   1.448  0.1203  0.5023  0.9776
 3981TIP3    H111949   0.125   0.146   1.465  0.4236 -0.0519 -1.9154
 3981TIP3    H211950   0.075   0.243   1.360 -1.2748  3.0124  1.4991
 3982TIP3   OH211951   2.816   5.847   4.196  0.0866  0.0986 -0.0138
 3982TIP3    H111952   2.798   5.769   4.249 -0.9979 -1.2576 -2.2193
 3982TIP3    H211953   2.882   5.818   4.133 -0.8515  0.6962 -1.3240
 3983TIP3   OH211954   4.432   3.391   1.929 -0.0663 -1.0725 -0.0359
 3983TIP3    H111955   4.386   3.444   1.864 -2.1535  0.0709  2.2247
 3983TIP3    H211956   4.451   3.451   2.001  0.2357 -2.7254  1.3305
 3984TIP3   OH211957   4.958   0.228   2.942  0.7514  0.8513  0.3711
 3984TIP3    H111958   4.990   0.252   3.029 -0.9345  1.0715  0.9737
 3984TIP3    H211959   4.896   0.157   2.958  1.3793  0.0108 -0.8081
 3985TIP3   OH211960   1.750   1.906   4.721  0.1075  0.5984 -0.0077
 3985TIP3    H111961   1.740   1.820   4.761  0.1860 -0.2158 -1.6489
 3985TIP3    H211962   1.666   1.949   4.733 -1.2973 -1.2174 -2.4927
 3986TIP3   OH211963   2.466   1.758   3.328 -0.5926  0.3140  0.0242
 3986TIP3    H111964   2.466   1.850   3.354  2.2491  0.8528 -1.5460
 3986TIP3    H211965   2.402   1.754   3.256 -0.0718  1.2818 -0.5160
 3987TIP3   OH211966   3.252   3.639   4.909 -0.3007  0.3350 -0.2749
 3987TIP3    H111967   3.227   3.633   5.002  0.1463  1.5572 -0.0515
 3987TIP3    H211968   3.192   3.704   4.873  1.5441  2.2641 -0.0546
 3988TIP3   OH211969   4.670   4.250   0.219  0.3789 -0.8415  0.0328
 3988TIP3    H111970   4.607   4.192   0.176 -0.6109  0.3148 -0.1292
 3988TIP3    H211971   4.731   4.276   0.150 -1.5421  1.4733 -0.9454
 3989TIP3   OH211972   1.908   1.007   3.993 -0.5140  0.4488  0.4093
 3989TIP3    H111973   1.879   1.036   4.080 -0.9121  1.5369 -0.0751
 3989TIP3    H211974   1.865   0.922   3.980 -0.1612  0.0946  1.4132
 3990TIP3   OH211975   4.474   2.464   4.772  0.2911  0.1148 -0.3128
 3990TIP3    H111976   4.442   2.502   4.690  0.1883  0.0035 -0.3246
 3990TIP3    H211977   4.509   2.378   4.748  1.1606  0.4866 -0.3972
 3991TIP3   OH211978   5.108   1.161   2.141  0.0789 -0.5397 -0.0516
 3991TIP3    H111979   5.155   1.111   2.074 -0.5622 -0.7708 -0.3334
 3991TIP3    H211980   5.100   1.248   2.104  0.3465 -0.4776  0.0304
 3992TIP3   OH211981   3.269   3.964   4.608 -0.0255 -0.6159  0.0218
 3992TIP3    H111982   3.323   4.029   4.564 -1.2721 -0.8259 -1.9493
 3992TIP3    H211983   3.191   3.956   4.553 -0.6069 -2.6570  1.0213
 3993TIP3   OH211984   5.949   3.474   2.246 -0.1092 -0.0837  0.2015
 3993TIP3    H111985   5.950   3.507   2.336 -1.1773 -0.1718  0.2513
 3993TIP3    H211986   5.986   3.546   2.195 -0.0887  0.2180  0.6279
 3994TIP3   OH211987   3.677   2.638   4.989 -1.0103 -0.3454 -0.0021
 3994TIP3    H111988   3.760   2.631   4.944 -1.8405  0.1465 -1.6997
 3994TIP3    H211989   3.692   2.598   5.075  0.7246 -0.9838 -0.5687
 3995TIP3   OH211990   3.993   4.248   1.575  0.3258  0.3504  0.2845
 3995TIP3    H111991   3.934   4.210   1.640 -1.1135  0.7664 -0.7387
 3995TIP3    H211992   4.043   4.174   1.541  0.4285 -0.0069  1.1745
 3996TIP3   OH211993   3.523   0.873   0.808 -0.1318 -0.3219 -0.1739
 3996TIP3    H111994   3.545   0.838   0.894 -2.2468 -0.9200  0.1724
 3996TIP3    H211995   3.472   0.804   0.766 -0.6619  0.6601 -1.2053
 3997TIP3   OH211996   3.061   1.979   3.270 -0.5593 -0.4178  0.2137
 3997TIP3    H111997   3.087   1.969   3.362  0.5900 -0.6291 -0.1215
 3997TIP3    H211998   3.041   2.072   3.261 -1.0289 -0.4564  0.7529
 3998TIP3   OH211999   4.007   2.933   4.329 -0.2242  0.2130 -0.2417
 3998TIP3    H112000   4.002   2.887   4.245 -0.2890  0.6352 -0.4676
 3998TIP3    H212001   3.985   3.023   4.309  1.6219  0.7422 -0.1272
 3999TIP3   OH212002   0.076   5.582   3.244 -0.1414 -0.6909 -0.1448
 3999TIP3    H112003   0.087   5.667   3.286  1.0829 -0.2100 -1.3688
 3999TIP3    H212004   0.054   5.603   3.153  0.7237 -1.6545 -0.5939
 4000TIP3   OH212005   3.956   2.920   3.617  0.1757 -0.1567 -0.2850
 4000TIP3    H112006   3.959   2.853   3.549  0.9987 -0.1703 -0.2423
 4000TIP3    H212007   3.934   3.001   3.570 -1.0941 -0.4907 -0.2974
 4001TIP3   OH212008   4.937   1.206   0.058  0.0019 -0.1427  0.0063
 4001TIP3    H112009   4.884   1.272   0.103  0.1283 -0.8189  1.1673
 4001TIP3    H212010   5.021   1.250   0.044 -0.0398  0.0763  0.4181
 4002TIP3   OH212011   1.670   0.125   3.196 -0.5144 -0.7937 -0.2588
 4002TIP3    H112012   1.644   0.196   3.137  1.4428 -0.2219 -0.5019
 4002TIP3    H212013   1.725   0.069   3.143  1.4526 -0.1647  1.0226
 4003TIP3   OH212014   4.515   4.088   0.461  0.0225 -0.0541  0.2851
 4003TIP3    H112015   4.506   4.139   0.380  1.4191 -1.0728 -0.5588
 4003TIP3    H212016   4.490   3.999   0.436 -0.8513 -0.1135  1.3337
 4004TIP3   OH212017   1.689   0.371   4.637  0.0674 -0.5352 -0.1702
 4004TIP3    H112018   1.693   0.420   4.719  0.1866 -1.0042  0.1009
 4004TIP3    H212019   1.696   0.439   4.569  2.3958 -0.3410  0.1976
 4005TIP3   OH212020   1.713   0.399   2.187  0.2426 -0.3626  0.1012
 4005TIP3    H112021   1.648   0.367   2.124  0.3256  0.6225 -0.5017
 4005TIP3    H212022   1.664   0.456   2.245  0.7212  1.2958 -1.0362
 4006TIP3   OH212023   1.248   3.348   0.634 -0.6825  0.3968  0.5200
 4006TIP3    H112024   1.191   3.332   0.559 -1.1006 -0.1076  0.9394
 4006TIP3    H212025   1.336   3.352   0.597 -0.8895  0.2070 -0.0010
 4007TIP3   OH212026   2.250   3.345   2.446 -0.1336  0.2229 -0.2889
 4007TIP3    H112027   2.312   3.290   2.493 -0.3216 -1.1145 -1.5213
 4007TIP3    H212028   2.254   3.314   2.355 -1.1714  1.4207 -0.7836
 4008TIP3   OH212029   4.045   5.494   0.946  0.2966 -0.6253  0.5000
 4008TIP3    H112030   3.996   5.499   1.028  0.6194 -1.4390  0.7497
 4008TIP3    H212031   3.988   5.443   0.887  0.9132 -1.7548  0.8579
 4009TIP3   OH212032   4.656   3.335   2.409 -0.2503  0.0924 -0.8318
 4009TIP3    H112033   4.705   3.307   2.331  0.6227  0.1257 -0.3159
 4009TIP3    H212034   4.570   3.361   2.376 -0.1669 -0.6520 -1.6755
 4010TIP3   OH212035   1.072   4.243   0.346  0.1296 -0.3894  0.5039
 4010TIP3    H112036   1.145   4.266   0.403 -0.0853  0.2607  0.5275
 4010TIP3    H212037   1.093   4.285   0.262  0.0640 -0.6878  0.3356
 4011TIP3   OH212038   4.258   1.639   0.537 -0.3016  0.3946 -0.2231
 4011TIP3    H112039   4.190   1.687   0.585 -1.2767 -2.1447  1.1514
 4011TIP3    H212040   4.340   1.669   0.575 -0.9161  0.4436  1.1271
 4012TIP3   OH212041   3.712   4.400   1.941  0.4224 -0.3328  0.2934
 4012TIP3    H112042   3.709   4.379   2.034  1.1235  1.9513  0.9173
 4012TIP3    H212043   3.621   4.397   1.912  0.3997 -3.2406  0.4377
 4013TIP3   OH212044   4.484   4.613   2.133  0.7641  0.1516 -0.0995
 4013TIP3    H112045   4.430   4.623   2.055  0.2099  0.2971  0.2939
 4013TIP3    H212046   4.460   4.526   2.167 -2.3894  1.7543  2.3791
 4014TIP3   OH212047   0.431   0.975   4.303 -0.2321 -0.1760 -0.2077
 4014TIP3    H112048   0.384   0.977   4.386 -0.5388 -0.9186 -0.3603
 4014TIP3    H212049   0.416   0.887   4.269  0.4663 -0.0995 -0.7217
 4015TIP3   OH212050   2.201   1.810   3.225  0.9279  0.0943 -0.2183
 4015TIP3    H112051   2.125   1.796   3.168  1.7612 -1.9911 -0.9226
 4015TIP3    H212052   2.247   1.884   3.185  0.3722  0.0251 -1.0131
 4016TIP3   OH212053   1.168   0.763   4.977 -0.2923 -0.6013 -0.3333
 4016TIP3    H112054   1.082   0.740   4.942 -0.9022  0.9381  0.0373
 4016TIP3    H212055   1.229   0.704   4.934 -1.3501 -0.6466 -1.8309
 4017TIP3   OH212056   2.185   0.917   1.428  0.0010 -0.3514 -0.3470
 4017TIP3    H112057   2.171   0.840   1.374 -0.1195 -0.1585 -0.5953
 4017TIP3    H212058   2.221   0.883   1.510  0.6518 -0.6111 -0.7275
 4018TIP3   OH212059   0.084   2.700   1.169 -0.0795 -0.2060  0.6743
 4018TIP3    H112060   0.121   2.716   1.082  0.2326 -1.7542  0.4910
 4018TIP3    H212061   0.046   2.784   1.195  0.3574  0.4421 -0.6945
 4019TIP3   OH212062   1.720   2.124   2.683  0.4708  0.8163 -0.3112
 4019TIP3    H112063   1.680   2.070   2.615 -1.2373  2.1201 -0.4273
 4019TIP3    H212064   1.646   2.172   2.721  1.7748  2.2959  0.4671
 4020TIP3   OH212065   2.234   2.772   4.832  0.0573  0.0261 -0.4759
 4020TIP3    H112066   2.286   2.832   4.778 -0.9944  0.4069 -1.1215
 4020TIP3    H212067   2.232   2.691   4.782 -0.0661  0.0600 -0.5294
 4021TIP3   OH212068   2.745   2.599   0.651  0.2331 -0.4610 -0.3485
 4021TIP3    H112069   2.787   2.588   0.737  1.4048 -0.8307 -0.9455
 4021TIP3    H212070   2.659   2.636   0.671  0.8931  0.4882  0.9296
 4022TIP3   OH212071   1.350   3.264   1.943  0.6734 -0.6177 -0.3477
 4022TIP3    H112072   1.368   3.351   1.908  3.2066 -0.8236  0.2004
 4022TIP3    H212073   1.436   3.232   1.972 -0.5522 -2.3375  1.6652
 4023TIP3   OH212074   6.213   4.659   3.460 -0.3819 -0.1472 -0.1055
 4023TIP3    H112075   6.122   4.684   3.444 -0.6458 -1.2751 -0.4159
 4023TIP3    H212076   6.211   4.565   3.473  0.7717 -0.2155 -0.2572
 4024TIP3   OH212077   3.052   2.459   2.850 -0.2765 -0.4815 -0.3640
 4024TIP3    H112078   3.121   2.422   2.906  0.2192  0.6765 -0.1842
 4024TIP3    H212079   3.003   2.382   2.820  0.9078 -1.3172 -0.2645
 4025TIP3   OH212080   0.891   1.264   1.632 -0.1140 -0.3368  0.4192
 4025TIP3    H112081   0.934   1.349   1.621 -1.6386  0.2419 -1.7209
 4025TIP3    H212082   0.926   1.230   1.714  2.2070  1.3492  0.2180
 4026TIP3   OH212083   4.717   3.627   2.292 -0.3643  0.1963  0.2810
 4026TIP3    H112084   4.798   3.578   2.308  0.1643  1.6529  2.6571
 4026TIP3    H212085   4.651   3.559   2.276  1.1966 -1.0414 -1.3225
 4027TIP3   OH212086   5.539   1.079   3.986 -0.4945 -0.0233  0.1365
 4027TIP3    H112087   5.627   1.047   3.965 -0.7937  0.8965 -3.0234
 4027TIP3    H212088   5.552   1.139   4.059  1.4555 -0.1349 -0.0640
 4028TIP3   OH212089   4.300   1.489   1.328 -0.0778 -0.5789  0.7757
 4028TIP3    H112090   4.357   1.437   1.270 -1.3378  0.8665 -1.9197
 4028TIP3    H212091   4.212   1.472   1.296 -0.5908  2.6935  0.1471
 4029TIP3   OH212092   5.432   0.696   1.466  0.1990  0.2406  0.5677
 4029TIP3    H112093   5.453   0.773   1.413 -2.8176  2.5033  2.3279
 4029TIP3    H212094   5.460   0.720   1.554 -0.5405 -0.8171  1.1089
 4030TIP3   OH212095   1.490   3.807   2.793  0.2316  0.0274  0.0218
 4030TIP3    H112096   1.492   3.898   2.763  1.2055  0.1112  0.2953
 4030TIP3    H212097   1.582   3.784   2.806  0.0053 -1.0395 -0.1542
 4031TIP3   OH212098   2.357   2.435   0.053  1.1281 -0.8020  0.1349
 4031TIP3    H112099   2.394   2.484  -0.021 -0.2798  1.0996  0.6214
 4031TIP3    H212100   2.385   2.345   0.038  1.8309 -0.2778 -2.1146
 4032TIP3   OH212101   5.613   0.973   2.014 -0.6738  0.1170  0.3820
 4032TIP3    H112102   5.609   1.041   1.946  1.6965 -0.8363 -0.8159
 4032TIP3    H212103   5.692   0.994   2.064  0.3861 -1.9696 -0.3296
 4033TIP3   OH212104   4.282   2.242   3.698 -0.3743  0.1329  0.0581
 4033TIP3    H112105   4.266   2.178   3.767 -0.9743  0.8122  0.5578
 4033TIP3    H212106   4.335   2.194   3.633 -2.7098 -1.6399 -0.7020
 4034TIP3   OH212107   3.332   0.960   0.195  0.3586 -0.0674  0.4377
 4034TIP3    H112108   3.399   0.954   0.263 -1.5169 -0.3978  2.3660
 4034TIP3    H212109   3.291   0.874   0.194 -2.1133  0.9838  1.6406
 4035TIP3   OH212110   4.315   3.638   4.840  0.2705  1.0826  1.2587
 4035TIP3    H112111   4.334   3.559   4.891  1.8237 -0.1733 -1.0744
 4035TIP3    H212112   4.401   3.670   4.813 -0.4158  2.8335  1.0493
 4036TIP3   OH212113   5.100   4.549   0.678 -0.5163 -1.1014 -0.2231
 4036TIP3    H112114   5.022   4.584   0.722  0.2933  0.3358  0.1636
 4036TIP3    H212115   5.076   4.545   0.586 -0.5313  1.0268 -0.3757
 4037TIP3   OH212116   5.311   1.015   3.847 -0.2423  0.2715  0.3837
 4037TIP3    H112117   5.346   1.016   3.758 -1.4410  0.2377 -0.0963
 4037TIP3    H212118   5.382   1.050   3.901  0.4653  0.3635 -0.5923
 4038TIP3   OH212119   5.093   2.591   0.410 -0.1393 -0.0588  0.2718
 4038TIP3    H112120   5.146   2.537   0.351  0.2625 -0.4010  0.9297
 4038TIP3    H212121   5.119   2.563   0.498 -1.5031 -0.3151  0.6141
 4039TIP3   OH212122   2.707   0.679   1.594 -0.4638 -0.4419  0.0183
 4039TIP3    H112123   2.678   0.589   1.608 -0.3195 -0.4055  0.5596
 4039TIP3    H212124   2.799   0.679   1.617 -0.5754 -0.0527  0.4776
 4040TIP3   OH212125   2.865   4.253   2.867 -0.2821  0.0589  0.1985
 4040TIP3    H112126   2.893   4.164   2.890  0.3956  0.7576  2.4256
 4040TIP3    H212127   2.806   4.242   2.793  2.6780 -1.8832 -2.1346
 4041TIP3   OH212128   3.077   2.480   3.483 -0.2825 -0.4462 -0.0792
 4041TIP3    H112129   3.090   2.392   3.519  0.7096  0.3773  1.7123
 4041TIP3    H212130   3.166   2.514   3.471 -0.5789  1.4113  2.2469
 4042TIP3   OH212131   5.965   4.210   0.878 -0.2616 -0.0784 -0.2758
 4042TIP3    H112132   5.997   4.123   0.900  0.6481 -0.2996 -2.2187
 4042TIP3    H212133   5.992   4.223   0.787  1.1824  2.9344  0.4406
 4043TIP3   OH212134   1.473   5.479   3.707  0.2170 -0.1751 -0.0700
 4043TIP3    H112135   1.524   5.527   3.641 -0.2501 -0.5189 -0.7026
 4043TIP3    H212136   1.537   5.450   3.771  0.7475 -0.1738 -0.5864
 4044TIP3   OH212137   4.744   5.050   2.134  0.3443 -0.0466 -0.4654
 4044TIP3    H112138   4.721   5.108   2.206  0.4876 -0.4254 -0.1079
 4044TIP3    H212139   4.777   4.970   2.177 -0.1413 -0.5094 -0.9394
 4045TIP3   OH212140   3.848   2.871   0.686  0.6037  0.0599 -0.4034
 4045TIP3    H112141   3.819   2.934   0.620  0.8422  0.4694 -0.1196
 4045TIP3    H212142   3.912   2.919   0.739  0.2038 -0.1752  0.3053
 4046TIP3   OH212143   0.133   3.357   4.385  0.1229  0.2008  0.4747
 4046TIP3    H112144   0.185   3.339   4.307 -0.4356  2.1103 -0.3987
 4046TIP3    H212145   0.190   3.413   4.439  0.3533 -0.7750  1.2693
 4047TIP3   OH212146   0.410   1.203   0.956 -0.1506  0.3293 -0.4885
 4047TIP3    H112147   0.366   1.162   0.881  0.4028 -0.4435 -0.4037
 4047TIP3    H212148   0.386   1.296   0.950  0.0875  0.3263 -1.7678
 4048TIP3   OH212149   1.766   1.363   3.657  0.2058  0.7121 -0.1735
 4048TIP3    H112150   1.687   1.318   3.628 -0.0933  1.6672 -0.8786
 4048TIP3    H212151   1.831   1.293   3.666 -0.8240 -0.1589  0.8973
 4049TIP3   OH212152   2.447   0.927   2.559  0.0883 -0.2045 -0.3489
 4049TIP3    H112153   2.542   0.918   2.553  0.0165 -0.6030 -0.8816
 4049TIP3    H212154   2.412   0.874   2.487 -0.5459 -0.2144 -0.0430
 4050TIP3   OH212155   2.397   0.235   1.654 -0.2776  0.1425 -0.3405
 4050TIP3    H112156   2.303   0.221   1.663 -0.2055 -0.0297  0.1454
 4050TIP3    H212157   2.433   0.148   1.640 -0.2813  0.2973 -1.4499
 4051TIP3   OH212158   3.850   0.330   1.316 -0.3340  0.1660 -0.2769
 4051TIP3    H112159   3.790   0.385   1.264 -0.3715 -0.8270 -1.3054
 4051TIP3    H212160   3.924   0.314   1.258  0.1745  0.0146  0.4090
 4052TIP3   OH212161   2.159   2.286   3.531 -0.1179 -0.1795  0.0369
 4052TIP3    H112162   2.193   2.374   3.552  0.0670  0.4298 -2.4284
 4052TIP3    H212163   2.142   2.246   3.616  1.9468  1.3957  1.3167
 4053TIP3   OH212164   2.052   5.802   3.802  0.0938 -0.0984  0.1507
 4053TIP3    H112165   1.999   5.735   3.757 -0.3907  0.1921  0.2811
 4053TIP3    H212166   2.001   5.883   3.793  0.5662  0.2073  0.1955
 4054TIP3   OH212167   3.603   5.873   2.189 -0.8612 -0.3846 -0.5588
 4054TIP3    H112168   3.575   5.785   2.165  0.9404 -1.1695  0.0178
 4054TIP3    H212169   3.638   5.909   2.107  1.8916 -1.6962 -0.0983
 4055TIP3   OH212170   2.621   1.492   1.032 -0.2021 -0.2694  0.2210
 4055TIP3    H112171   2.536   1.479   1.073 -0.1852  0.3403  0.4544
 4055TIP3    H212172   2.683   1.499   1.105 -0.1377  0.5696  0.1002
 4056TIP3   OH212173   4.243   1.613   0.965  0.3008  0.4892  0.1539
 4056TIP3    H112174   4.282   1.545   0.910  0.7040 -0.0966  1.1437
 4056TIP3    H212175   4.150   1.593   0.965  0.4401 -0.1626  0.5748
 4057TIP3   OH212176   1.614   1.129   2.838 -0.0231 -0.5995  0.6587
 4057TIP3    H112177   1.560   1.154   2.763  0.4692 -1.8670 -0.1648
 4057TIP3    H212178   1.656   1.047   2.810  1.6861 -0.0764  1.5726
 4058TIP3   OH212179   1.391   4.783   4.820 -0.0738 -0.0158 -0.4813
 4058TIP3    H112180   1.339   4.823   4.751  0.1259  0.4248 -0.3817
 4058TIP3    H212181   1.455   4.850   4.844 -2.5230  1.4420  2.8360
 4059TIP3   OH212182   4.976   5.530   2.128  0.4563 -0.5836 -0.1579
 4059TIP3    H112183   5.028   5.472   2.072  1.3147 -1.5159  1.5186
 4059TIP3    H212184   5.040   5.574   2.183 -0.3992 -0.0936  0.4661
 4060TIP3   OH212185   0.484   3.942   4.196  0.2639 -0.8120 -0.1678
 4060TIP3    H112186   0.428   3.986   4.132 -0.3045 -1.0947  0.1266
 4060TIP3    H212187   0.423   3.895   4.253  0.8238 -1.5197 -0.1311
 4061TIP3   OH212188   0.916   4.335   1.827 -0.1313 -0.0062  0.1013
 4061TIP3    H112189   1.009   4.348   1.808 -0.1189  0.3548  0.4099
 4061TIP3    H212190   0.892   4.258   1.775 -0.1500  1.0632 -1.5575
 4062TIP3   OH212191   3.786   3.077   2.412  0.0070  0.0364  0.4229
 4062TIP3    H112192   3.718   3.089   2.477  0.3039 -1.1455  0.9826
 4062TIP3    H212193   3.863   3.050   2.462  0.4410 -0.1884 -0.3473
 4063TIP3   OH212194   1.459   4.835   4.467  0.1118  0.5642  0.2808
 4063TIP3    H112195   1.540   4.865   4.507 -0.1126  2.3844 -0.5357
 4063TIP3    H212196   1.484   4.809   4.378 -0.0576  0.2585  0.3194
 4064TIP3   OH212197   2.155   4.226   0.122 -0.3846 -0.3861 -0.6553
 4064TIP3    H112198   2.167   4.232   0.217 -0.1679 -1.3449 -0.6059
 4064TIP3    H212199   2.197   4.143   0.099 -0.4401 -0.1560 -1.5886
 4065TIP3   OH212200   3.305   0.997   2.905 -0.0385 -0.9020  0.5542
 4065TIP3    H112201   3.214   0.973   2.892 -0.1923 -1.1486  1.9801
 4065TIP3    H212202   3.343   0.994   2.817 -1.6285  0.2668 -0.2225
 4066TIP3   OH212203   3.464   1.184   0.340  0.2422 -0.4150 -0.4074
 4066TIP3    H112204   3.480   1.103   0.291  0.1529 -0.8476  0.2514
 4066TIP3    H212205   3.546   1.232   0.335  0.1830 -0.3781 -1.1064
 4067TIP3   OH212206   3.746   0.367   3.920  0.5616 -0.8199 -0.4563
 4067TIP3    H112207   3.694   0.446   3.939  2.0487 -0.1968  1.2521
 4067TIP3    H212208   3.745   0.361   3.824  0.3925  1.2618 -0.6349
 4068TIP3   OH212209   3.802   0.900   2.049 -0.2686  0.5064 -0.5490
 4068TIP3    H112210   3.805   0.841   1.973  0.9465  0.6364 -0.6076
 4068TIP3    H212211   3.743   0.970   2.022 -1.6610 -0.5898 -0.5195
 4069TIP3   OH212212   5.985   4.668   0.015  0.1103 -0.1027 -0.5726
 4069TIP3    H112213   6.013   4.671   0.106  1.5409  0.4090 -1.0112
 4069TIP3    H212214   5.942   4.583   0.006  0.3193 -0.3326  0.4617
 4070TIP3   OH212215   0.435   0.842   0.255  0.0496  0.1757  0.0903
 4070TIP3    H112216   0.384   0.819   0.332  1.3366 -0.9513  0.6364
 4070TIP3    H212217   0.402   0.783   0.186  1.2512 -1.2828  0.7051
 4071TIP3   OH212218   6.130   5.903   2.354 -0.0796  0.0581  0.3513
 4071TIP3    H112219   6.111   5.990   2.387  1.4514 -0.0552  1.6184
 4071TIP3    H212220   6.102   5.844   2.424 -0.2031 -0.4245 -0.0928
 4072TIP3   OH212221   3.555   5.393   1.185  0.3467  0.2471 -0.2313
 4072TIP3    H112222   3.629   5.344   1.150 -1.4403 -1.1889 -2.3100
 4072TIP3    H212223   3.514   5.334   1.247 -0.0497  0.3090 -0.4299
 4073TIP3   OH212224   4.246   4.945   2.980  0.0771  0.6146  0.1064
 4073TIP3    H112225   4.232   4.936   3.074 -0.8215  0.0061 -0.0748
 4073TIP3    H212226   4.330   4.902   2.964 -0.0453  0.1968  0.5490
 4074TIP3   OH212227   1.284   0.573  -0.006  0.4797 -0.3018 -0.4653
 4074TIP3    H112228   1.306   0.666   0.007 -2.9911  0.5027  0.4985
 4074TIP3    H212229   1.299   0.533   0.080 -1.3519  0.1897  0.1194
 4075TIP3   OH212230   0.523   1.469   1.713  0.0198  0.1613  0.1110
 4075TIP3    H112231   0.606   1.470   1.664 -0.3997  0.2402 -0.6093
 4075TIP3    H212232   0.550   1.462   1.805  0.8155 -0.3517 -0.1454
 4076TIP3   OH212233   5.434   5.338   4.918 -0.2453  0.7554  0.0445
 4076TIP3    H112234   5.405   5.357   4.829  0.7498  0.9297 -0.2492
 4076TIP3    H212235   5.361   5.288   4.956  0.0324 -0.9006 -1.4548
 4077TIP3   OH212236   4.422   3.388   2.311 -0.0028 -0.4105  0.1438
 4077TIP3    H112237   4.408   3.447   2.237 -2.6458  0.4703  1.2438
 4077TIP3    H212238   4.343   3.335   2.316  0.9235 -1.7860  1.2190
 4078TIP3   OH212239   5.332   2.275   1.895  0.2805  0.0167  0.7951
 4078TIP3    H112240   5.341   2.187   1.932 -0.1535  0.5114  2.1479
 4078TIP3    H212241   5.362   2.266   1.805  1.7084 -1.1903  1.3452
 4079TIP3   OH212242   4.793   2.834   4.340 -0.0201 -0.2751  0.3849
 4079TIP3    H112243   4.841   2.802   4.263 -0.4352 -1.8152  0.7239
 4079TIP3    H212244   4.705   2.851   4.307 -0.0239 -0.2994  0.3832
 4080TIP3   OH212245   1.324   1.121   4.404  0.0220  0.0556  0.3805
 4080TIP3    H112246   1.231   1.139   4.419  0.0065  0.0992  0.2294
 4080TIP3    H212247   1.370   1.178   4.466 -0.0648 -0.2968  0.7780
 4081TIP3   OH212248   4.036   2.314   3.484 -0.2541 -0.7681  0.1057
 4081TIP3    H112249   4.004   2.392   3.439  0.1373 -0.8000 -0.2432
 4081TIP3    H212250   4.115   2.289   3.435  1.4783  0.4648  2.0696
 4082TIP3   OH212251   0.748   0.605   3.394 -0.1179  0.1829  0.1999
 4082TIP3    H112252   0.661   0.621   3.429 -0.0835  0.7842  0.0275
 4082TIP3    H212253   0.742   0.629   3.302  0.2762  0.4055  0.2297
 4083TIP3   OH212254   2.959   1.459   0.609  0.4793  0.2819  0.0573
 4083TIP3    H112255   2.873   1.491   0.581  0.6987  1.0415  0.2247
 4083TIP3    H212256   2.995   1.416   0.531  0.3234  0.7711 -0.2877
 4084TIP3   OH212257   5.121   4.738   1.378  0.1808 -0.7779 -0.4756
 4084TIP3    H112258   5.167   4.655   1.363  0.7684 -0.7786  1.1777
 4084TIP3    H212259   5.044   4.733   1.322  0.0733 -2.5574 -0.2169
 4085TIP3   OH212260   1.097   2.319   0.393  0.0414 -0.8032 -0.8476
 4085TIP3    H112261   1.153   2.375   0.446  0.8255 -1.2275 -1.1972
 4085TIP3    H212262   1.153   2.293   0.320 -1.1518  0.1703 -2.1638
 4086TIP3   OH212263   5.052   4.388   1.786 -0.6378 -0.2691  0.5784
 4086TIP3    H112264   5.016   4.432   1.709  0.9831 -0.0169 -0.0776
 4086TIP3    H212265   5.015   4.437   1.860 -0.7170  0.7155 -0.0860
 4087TIP3   OH212266   2.144   5.847   4.121 -0.0644 -0.2346 -0.0854
 4087TIP3    H112267   2.083   5.789   4.167  0.4952  0.3381  1.4207
 4087TIP3    H212268   2.143   5.815   4.031  0.1129 -2.5071  0.6559
 4088TIP3   OH212269   0.595   4.661   4.472  0.5544 -0.8856 -0.1281
 4088TIP3    H112270   0.572   4.690   4.560  0.9172 -1.3692  0.1335
 4088TIP3    H212271   0.676   4.707   4.451  0.5767 -0.9238 -0.1266
 4089TIP3   OH212272   4.092   3.782   5.030  0.0525  0.3494  0.2983
 4089TIP3    H112273   4.158   3.824   5.086  0.5352 -0.9492  0.7448
 4089TIP3    H212274   4.136   3.703   4.997 -0.9234  0.0380 -0.2879
 4090TIP3   OH212275   3.228   5.437   4.020  0.8589 -0.2647 -0.0516
 4090TIP3    H112276   3.217   5.422   3.926 -0.9520  2.1963 -0.3387
 4090TIP3    H212277   3.303   5.496   4.026 -0.2684  1.2597 -0.2224
 4091TIP3   OH212278   3.442   5.645   1.710 -0.1887  0.0382 -0.2692
 4091TIP3    H112279   3.379   5.606   1.770  0.4011 -0.7015 -0.1260
 4091TIP3    H212280   3.434   5.595   1.629  0.2460 -0.0889 -0.2371
 4092TIP3   OH212281   5.427   3.405   3.215  0.3591  0.2231  0.0443
 4092TIP3    H112282   5.388   3.323   3.247 -0.1564 -0.9691 -3.2452
 4092TIP3    H212283   5.520   3.386   3.208  0.0940 -0.6233 -1.8868
 4093TIP3   OH212284   2.916   4.700   2.408  0.1531 -0.1958 -0.0166
 4093TIP3    H112285   2.893   4.629   2.347 -0.1108 -1.4010  1.4272
 4093TIP3    H212286   2.859   4.685   2.484  0.5769  1.1823  0.5916
 4094TIP3   OH212287   3.341   0.247   4.136  0.2868 -0.0080  0.7295
 4094TIP3    H112288   3.292   0.280   4.212  1.9696  1.3115  1.3034
 4094TIP3    H212289   3.422   0.212   4.173  0.6016 -0.4785 -0.3565
 4095TIP3   OH212290   4.056   1.730   0.298 -0.0955  0.0591 -0.7597
 4095TIP3    H112291   4.046   1.743   0.203  1.9307 -1.9760 -1.3444
 4095TIP3    H212292   4.150   1.734   0.313 -0.2438 -1.4473  0.8628
 4096TIP3   OH212293   3.068   0.793   5.016  0.1204  0.6223  0.0851
 4096TIP3    H112294   3.108   0.710   4.991 -0.7567 -0.0205  0.7374
 4096TIP3    H212295   3.069   0.792   5.112 -1.4355  0.5787  0.1254
 4097TIP3   OH212296   1.521   2.009   3.397 -0.5129  0.7352 -0.0603
 4097TIP3    H112297   1.558   2.053   3.473 -1.4544  1.6009 -0.0729
 4097TIP3    H212298   1.433   1.983   3.425  0.1612 -1.6530  0.1178
 4098TIP3   OH212299   3.201   5.183   2.605 -0.1463  0.3410 -0.4205
 4098TIP3    H112300   3.177   5.140   2.687  1.2825 -0.5753 -0.4493
 4098TIP3    H212301   3.252   5.118   2.558  0.9914  1.6207 -1.0316
 4099TIP3   OH212302   1.178   2.179   3.895  0.7613  0.1430  0.6422
 4099TIP3    H112303   1.109   2.145   3.838 -0.0687  1.8970  0.5407
 4099TIP3    H212304   1.138   2.252   3.941  2.2058  0.4340  1.5077
 4100TIP3   OH212305   3.198   5.837   5.037  0.3415 -0.1855  0.3076
 4100TIP3    H112306   3.127   5.817   5.099 -0.2526  2.0801  0.4232
 4100TIP3    H212307   3.209   5.756   4.987 -3.3182 -0.2493 -0.6937
 4101TIP3   OH212308   3.196   1.497   5.143  0.4049  0.1731 -0.1961
 4101TIP3    H112309   3.154   1.413   5.159  0.3412  0.3390  0.5675
 4101TIP3    H212310   3.227   1.525   5.229  1.6361  0.2972 -0.6525
 4102TIP3   OH212311   5.055   4.683   2.946 -0.7275 -0.1648  0.2203
 4102TIP3    H112312   5.060   4.588   2.939 -2.8228 -0.3546  0.7729
 4102TIP3    H212313   5.069   4.701   3.040 -0.7143  0.0397  0.1804
 4103TIP3   OH212314   6.129   1.389   1.911 -0.0386  0.6426 -0.2769
 4103TIP3    H112315   6.185   1.433   1.975  1.2817  1.2357 -1.7428
 4103TIP3    H212316   6.056   1.449   1.897  0.1172  0.9119  0.0506
 4104TIP3   OH212317   0.370   5.474   0.513 -0.4099 -0.2898  0.2112
 4104TIP3    H112318   0.465   5.485   0.520 -0.5107  2.7053 -1.2866
 4104TIP3    H212319   0.341   5.552   0.466 -3.7764 -0.5162  1.6424
 4105TIP3   OH212320   1.920   3.004   5.147 -0.5971 -0.8820  0.3436
 4105TIP3    H112321   1.993   3.016   5.087  0.5564 -2.4433  1.3386
 4105TIP3    H212322   1.861   3.077   5.129  0.4183 -0.4765 -1.6152
 4106TIP3   OH212323   2.553   3.167   4.210  0.4894  0.0379 -0.6944
 4106TIP3    H112324   2.494   3.108   4.165 -1.2658  1.8106 -0.8613
 4106TIP3    H212325   2.630   3.173   4.153  0.2786 -1.2689 -1.1430
 4107TIP3   OH212326   1.235   0.524   2.089 -0.0036  0.2733  0.4587
 4107TIP3    H112327   1.262   0.473   2.012  0.5432  0.1279  0.7408
 4107TIP3    H212328   1.175   0.590   2.054  1.1192  0.9347 -0.2751
 4108TIP3   OH212329   2.086   4.676   0.672  0.1781  0.1543  0.0913
 4108TIP3    H112330   2.018   4.615   0.642  0.4021  0.1750 -0.4764
 4108TIP3    H212331   2.043   4.731   0.736 -0.5520  0.6488 -0.7956
 4109TIP3   OH212332   4.783   4.372   2.229  0.4419  0.4183  0.6667
 4109TIP3    H112333   4.803   4.335   2.315 -0.4978 -2.8639 -0.3638
 4109TIP3    H212334   4.840   4.325   2.169 -1.0818  0.3681 -0.8207
 4110TIP3   OH212335   2.896   1.527   0.287 -0.5280 -0.1861  0.0230
 4110TIP3    H112336   2.939   1.504   0.205 -1.4633  0.9125 -0.7985
 4110TIP3    H212337   2.812   1.482   0.284 -1.3004  1.2223 -0.4441
 4111TIP3   OH212338   2.985   0.459   3.147  0.0182  0.3261 -0.0774
 4111TIP3    H112339   3.003   0.498   3.062  1.1548 -0.6779 -0.3346
 4111TIP3    H212340   3.000   0.530   3.210 -0.5592  0.9963 -0.6766
 4112TIP3   OH212341   5.169   4.657   2.416 -0.6835 -0.0534 -0.0206
 4112TIP3    H112342   5.235   4.690   2.356 -0.0369  0.2180  0.8206
 4112TIP3    H212343   5.190   4.699   2.500 -1.5501 -0.4408  0.4014
 4113TIP3   OH212344   0.182   5.112   1.559 -0.2870  0.0188 -0.1375
 4113TIP3    H112345   0.105   5.055   1.561 -0.8513  0.4888 -3.1489
 4113TIP3    H212346   0.255   5.055   1.536 -0.6746  0.2421 -2.1311
 4114TIP3   OH212347   0.601   5.281   1.155 -0.1664  0.3016  0.0356
 4114TIP3    H112348   0.639   5.254   1.072  1.6225 -1.2782  1.3002
 4114TIP3    H212349   0.524   5.225   1.166  0.6766 -0.8406  0.2860
 4115TIP3   OH212350   5.556   0.361   3.735  0.1808 -0.0662 -0.0515
 4115TIP3    H112351   5.559   0.318   3.821 -0.0402  1.2776  0.6577
 4115TIP3    H212352   5.637   0.333   3.692  0.7269 -0.0998  0.9445
 4116TIP3   OH212353   1.786   2.395   2.355  0.5642  0.2281  0.2365
 4116TIP3    H112354   1.712   2.427   2.406 -0.2103  1.5127 -1.6301
 4116TIP3    H212355   1.818   2.471   2.307 -0.0677 -1.2828 -2.8215
 4117TIP3   OH212356   5.803   4.003   3.573  0.0057  0.0458 -0.2733
 4117TIP3    H112357   5.763   4.050   3.646  1.1716  0.1876  0.2978
 4117TIP3    H212358   5.864   3.942   3.614 -0.3044 -0.8282 -1.0798
 4118TIP3   OH212359   4.792   2.006   1.597  0.7129  0.6258 -0.3636
 4118TIP3    H112360   4.820   1.915   1.586  1.1964  0.9644 -2.3858
 4118TIP3    H212361   4.730   2.021   1.526  0.3935  1.7990  0.1390
 4119TIP3   OH212362   5.701   2.780   3.168 -0.0904  0.7019 -0.4680
 4119TIP3    H112363   5.625   2.722   3.161  1.7315 -2.5561  2.9393
 4119TIP3    H212364   5.664   2.864   3.194 -2.6001 -0.6092  0.5732
 4120TIP3   OH212365   4.258   0.568   4.244  0.6091  0.1243 -0.1321
 4120TIP3    H112366   4.316   0.609   4.309 -0.4327  0.7453  0.4398
 4120TIP3    H212367   4.276   0.614   4.163  1.5937 -0.3378 -0.1833
 4121TIP3   OH212368   2.091   5.482   3.144  0.0423 -0.0916  0.3696
 4121TIP3    H112369   2.185   5.468   3.130  0.6916  0.9527  3.0680
 4121TIP3    H212370   2.054   5.485   3.056  2.5820 -0.2115 -0.7980
 4122TIP3   OH212371   1.956   0.151   0.049  0.5991  0.1470  0.4810
 4122TIP3    H112372   1.915   0.193  -0.026 -0.7583 -0.2835  0.9399
 4122TIP3    H212373   1.922   0.061   0.048  0.4686  0.1565  1.6507
 4123TIP3   OH212374   0.168   2.442   3.146  0.7155  0.4600 -0.6021
 4123TIP3    H112375   0.226   2.471   3.216  2.6617  0.1892 -2.0306
 4123TIP3    H212376   0.125   2.522   3.116  1.7574  0.9746 -0.7494
 4124TIP3   OH212377   2.048   4.228   2.390 -0.7279  0.1792  0.5028
 4124TIP3    H112378   2.015   4.199   2.476 -0.4762 -0.2734  0.4515
 4124TIP3    H212379   2.028   4.321   2.387  2.0766  0.9551  2.3700
 4125TIP3   OH212380   4.767   1.969   0.711  0.3140  0.1809  0.0150
 4125TIP3    H112381   4.841   2.024   0.686 -0.6687  1.0509 -1.1114
 4125TIP3    H212382   4.795   1.881   0.689  1.0956  0.4650 -0.1901
 4126TIP3   OH212383   0.284   5.881   0.111 -0.0926 -0.0888  0.1976
 4126TIP3    H112384   0.189   5.879   0.119 -0.0755  1.2071  0.9574
 4126TIP3    H212385   0.314   5.814   0.172 -0.4779  0.5431  1.1027
 4127TIP3   OH212386   4.114   2.240   4.552  0.5132 -0.4277 -0.5284
 4127TIP3    H112387   4.131   2.267   4.642  1.2385  0.1756 -0.8387
 4127TIP3    H212388   4.104   2.321   4.503  0.4681 -0.7411 -1.0540
 4128TIP3   OH212389   3.594   1.466   4.324  0.2659 -0.1696  0.4779
 4128TIP3    H112390   3.599   1.375   4.295 -1.7185 -0.3706  0.6251
 4128TIP3    H212391   3.601   1.517   4.243 -1.6453 -0.5974  0.0040
 4129TIP3   OH212392   4.687   4.607   1.660  0.3582 -0.0529 -0.0955
 4129TIP3    H112393   4.674   4.677   1.724  0.4078  0.6116 -0.7876
 4129TIP3    H212394   4.686   4.527   1.711 -0.0696  0.4300  0.6729
 4130TIP3   OH212395   1.729   5.544   3.561 -0.1696 -0.0745  0.1925
 4130TIP3    H112396   1.733   5.456   3.524 -0.1222  0.0970 -0.2143
 4130TIP3    H212397   1.757   5.602   3.489 -1.7860  0.4159 -0.0706
 4131TIP3   OH212398   3.707   3.183   2.996  0.1273  0.3379 -0.4535
 4131TIP3    H112399   3.626   3.170   3.045 -0.1760  0.4439 -0.9254
 4131TIP3    H212400   3.719   3.101   2.948  0.1699  0.4201 -0.5808
 4132TIP3   OH212401   5.157   5.605   0.791  0.1322 -0.3747 -0.2266
 4132TIP3    H112402   5.231   5.593   0.850  0.2370 -2.4693 -0.7093
 4132TIP3    H212403   5.179   5.553   0.713 -1.2127  0.1093 -0.9680
 4133TIP3   OH212404   4.998   1.505   2.426  0.1174  0.3304  0.2971
 4133TIP3    H112405   5.000   1.410   2.437  1.1018  0.2151 -0.7485
 4133TIP3    H212406   4.914   1.531   2.463 -0.2568 -0.9658  0.4181
 4134TIP3   OH212407   0.520   4.547   3.391 -0.0537  0.1084 -0.2487
 4134TIP3    H112408   0.560   4.467   3.357 -0.8422 -1.0206  1.3432
 4134TIP3    H212409   0.483   4.590   3.313  0.6340 -0.9079 -1.1719
 4135TIP3   OH212410   6.185   2.310   2.316  0.3128 -0.0790  0.8553
 4135TIP3    H112411   6.172   2.220   2.289  1.4450 -0.0620  0.2216
 4135TIP3    H212412   6.275   2.315   2.346  0.4693  0.9787  0.2878
 4136TIP3   OH212413   3.734   4.030   0.140  0.1025 -0.4901 -0.4823
 4136TIP3    H112414   3.691   4.068   0.064  1.5367  2.0953 -0.0930
 4136TIP3    H212415   3.799   3.970   0.102  0.8181  0.7793 -1.3594
 4137TIP3   OH212416   5.058   2.615   4.911  0.0207 -0.1042  0.0515
 4137TIP3    H112417   4.965   2.628   4.929  0.4405  2.0062  1.0728
 4137TIP3    H212418   5.085   2.545   4.970 -0.1084  2.0873  2.9386
 4138TIP3   OH212419   6.364   1.740   4.382 -0.3698 -0.3847 -0.7337
 4138TIP3    H112420   6.333   1.683   4.452 -1.6347  0.6427 -0.4240
 4138TIP3    H212421   6.286   1.762   4.332 -0.1761  2.0787 -0.0786
 4139TIP3   OH212422   1.528   3.374   4.772 -0.3455  0.3214  0.0342
 4139TIP3    H112423   1.477   3.446   4.734  0.7281  0.8815 -0.3687
 4139TIP3    H212424   1.619   3.403   4.766  0.0609 -0.8449  0.3573
 4140TIP3   OH212425   5.945   1.270   4.714 -0.1085 -0.5919 -0.6144
 4140TIP3    H112426   5.973   1.340   4.773 -0.8441  0.8722 -1.9144
 4140TIP3    H212427   5.995   1.193   4.742  1.2203  0.6050  0.4631
 4141TIP3   OH212428   4.607   0.604   5.149  0.2280 -0.3402 -0.6144
 4141TIP3    H112429   4.528   0.657   5.155  1.0590  0.9472 -0.5416
 4141TIP3    H212430   4.623   0.594   5.055  1.5038  1.8853 -0.7262
 4142TIP3   OH212431   6.350   3.108   1.015 -0.0056  0.0855 -0.1498
 4142TIP3    H112432   6.318   3.030   1.061 -1.1140  0.6228  0.0055
 4142TIP3    H212433   6.308   3.181   1.060  2.0979  0.8936  0.6233
 4143TIP3   OH212434   0.861   1.473   4.227  0.1226 -0.2909  0.1412
 4143TIP3    H112435   0.859   1.559   4.185 -0.3598 -1.0188 -1.4037
 4143TIP3    H212436   0.953   1.448   4.227  0.3308  0.3979  1.0331
 4144TIP3   OH212437   3.970   1.600   0.948  0.5844  0.2295 -0.4217
 4144TIP3    H112438   3.915   1.632   1.019  1.2394 -0.6804  0.5266
 4144TIP3    H212439   3.943   1.509   0.935  2.7693 -0.7305  1.0800
 4145TIP3   OH212440   0.693   1.624   4.692  0.1014 -0.0625 -0.2708
 4145TIP3    H112441   0.719   1.561   4.625 -0.9364 -3.2180  2.0914
 4145TIP3    H212442   0.607   1.656   4.663 -0.6896 -1.9621 -0.1607
 4146TIP3   OH212443   3.922   4.211   2.065 -0.1282 -0.2108  0.5788
 4146TIP3    H112444   3.837   4.249   2.086 -0.5302  0.2786 -1.7212
 4146TIP3    H212445   3.983   4.284   2.072 -0.0942 -0.2778  0.9969
 4147TIP3   OH212446   1.562   2.414   4.960  0.4202  0.0671 -0.4414
 4147TIP3    H112447   1.576   2.500   5.000 -0.5808  0.0370 -0.0081
 4147TIP3    H212448   1.471   2.416   4.931  0.5316 -0.6804 -0.8624
 4148TIP3   OH212449   5.355   4.488   1.934  0.2911  0.7967  0.0591
 4148TIP3    H112450   5.325   4.467   2.022 -0.9000 -0.4357 -0.6030
 4148TIP3    H212451   5.275   4.499   1.883  0.9402  2.2952 -0.7293
 4149TIP3   OH212452   5.526   5.677   3.528  0.2468  0.3635  0.4988
 4149TIP3    H112453   5.619   5.693   3.514  0.1490  0.7111  0.2102
 4149TIP3    H212454   5.505   5.603   3.471  0.4070  0.0839  0.7956
 4150TIP3   OH212455   3.186   0.631   0.016  0.1269  0.3009 -0.3609
 4150TIP3    H112456   3.174   0.695  -0.054 -1.2899 -0.1328 -0.5571
 4150TIP3    H212457   3.198   0.684   0.095 -2.3732  0.9117 -0.2841
 4151TIP3   OH212458   5.827   1.596   2.203  0.5886  0.2219  0.5740
 4151TIP3    H112459   5.797   1.515   2.162  0.2065  1.1747 -1.1436
 4151TIP3    H212460   5.751   1.629   2.250  0.2639  0.3797 -0.0540
 4152TIP3   OH212461   5.498   4.330   3.001  0.4043 -0.5766 -0.0256
 4152TIP3    H112462   5.440   4.274   2.950 -0.5113  1.3316 -1.1943
 4152TIP3    H212463   5.439   4.379   3.060  0.6524  1.7147 -1.5392
 4153TIP3   OH212464   4.988   5.179   2.587 -0.3589 -0.8482 -0.0900
 4153TIP3    H112465   4.970   5.219   2.502 -0.4191 -0.8125 -0.0606
 4153TIP3    H212466   4.913   5.122   2.604 -0.5947 -0.4748  0.1658
 4154TIP3   OH212467   4.927   0.117   0.823 -0.0493 -0.6702  0.0858
 4154TIP3    H112468   4.971   0.080   0.747  0.1880 -1.6076  0.6456
 4154TIP3    H212469   4.998   0.146   0.880 -0.1717 -1.0940  0.4684
 4155TIP3   OH212470   2.780   4.803   5.158 -0.4281  0.1682 -0.4270
 4155TIP3    H112471   2.704   4.793   5.216 -1.2792  1.6275 -1.2193
 4155TIP3    H212472   2.742   4.812   5.071  0.6619  0.8862 -0.8501
 4156TIP3   OH212473   1.080   3.272   0.182 -0.2463  0.2058  0.1684
 4156TIP3    H112474   1.110   3.288   0.092  0.5503 -0.7351  0.2506
 4156TIP3    H212475   1.009   3.209   0.172  0.0177 -0.0997  0.2166
 4157TIP3   OH212476   1.185   5.024   3.272 -0.4058  0.4288 -0.4113
 4157TIP3    H112477   1.211   5.055   3.359  1.7420 -1.7371 -0.1385
 4157TIP3    H212478   1.104   4.976   3.287  0.1162 -0.2004  0.4970
 4158TIP3   OH212479   2.831   3.652   4.417 -0.2070 -0.2118 -0.2067
 4158TIP3    H112480   2.879   3.686   4.340  0.9585  0.1766  0.6547
 4158TIP3    H212481   2.832   3.557   4.405  0.1440 -0.1690 -0.5794
 4159TIP3   OH212482   1.052   0.943   1.580  0.2827  0.4919  0.1301
 4159TIP3    H112483   1.031   1.003   1.508 -0.8329 -0.9110 -0.7719
 4159TIP3    H212484   0.967   0.908   1.607  0.7786  0.3513  1.5725
 4160TIP3   OH212485   2.810   3.377   4.315 -0.0993 -0.2681  0.3916
 4160TIP3    H112486   2.883   3.326   4.280 -0.5223  0.6877 -2.0918
 4160TIP3    H212487   2.798   3.343   4.403  2.8967 -0.9134  0.6669
 4161TIP3   OH212488   6.112   1.768   3.610 -0.0329 -0.5825  0.1893
 4161TIP3    H112489   6.103   1.810   3.524 -0.8935 -1.2149 -0.0460
 4161TIP3    H212490   6.033   1.793   3.657 -0.0810 -1.1317  0.4003
 4162TIP3   OH212491   3.216   0.208   3.204 -0.0653  0.2360 -0.3937
 4162TIP3    H112492   3.309   0.190   3.189 -0.2544 -0.4921 -0.7891
 4162TIP3    H212493   3.205   0.200   3.299  0.2244  0.0374 -0.3738
 4163TIP3   OH212494   1.507   5.455   2.635  0.1788 -0.1401 -0.1608
 4163TIP3    H112495   1.592   5.499   2.637  1.2376 -2.0332  2.4305
 4163TIP3    H212496   1.522   5.377   2.582  0.8135 -1.6342  2.0770
 4164TIP3   OH212497   5.077   4.858   4.227 -1.0992 -0.2933 -0.5455
 4164TIP3    H112498   5.142   4.788   4.239 -1.8330 -0.9294 -0.1669
 4164TIP3    H212499   5.116   4.917   4.164 -0.5792 -1.2075 -1.0991
 4165TIP3   OH212500   1.190   1.776   1.706  0.5335  0.6085  0.1102
 4165TIP3    H112501   1.235   1.807   1.627  0.0683  1.5560  0.1892
 4165TIP3    H212502   1.099   1.803   1.692  0.7031  2.1467  1.6061
 4166TIP3   OH212503   5.931   1.879   5.013  0.2365  0.5652 -0.1833
 4166TIP3    H112504   5.918   1.838   5.098 -1.2815  1.0466 -0.1549
 4166TIP3    H212505   5.940   1.972   5.033  1.3455  0.5279 -0.4436
 4167TIP3   OH212506   5.143   5.225   0.290 -0.0725  0.2214  0.0946
 4167TIP3    H112507   5.055   5.210   0.255 -0.2180  0.7121  0.2442
 4167TIP3    H212508   5.180   5.293   0.233 -0.5503  1.4948  1.2648
 4168TIP3   OH212509   0.960   4.291   5.188  0.3039 -0.5347 -0.1870
 4168TIP3    H112510   1.002   4.377   5.175 -0.0128 -0.4019 -0.3434
 4168TIP3    H212511   0.997   4.236   5.120  1.5469 -0.9130  0.7614
 4169TIP3   OH212512   2.274   4.820   2.462  0.2670  0.5777 -0.0757
 4169TIP3    H112513   2.284   4.900   2.411  1.6614  1.5311  1.5877
 4169TIP3    H212514   2.333   4.757   2.420  0.3357  0.8998 -0.4680
 4170TIP3   OH212515   2.369   4.551   4.207 -0.0305 -0.6039 -0.6401
 4170TIP3    H112516   2.274   4.539   4.216 -0.1599  0.2155 -0.7853
 4170TIP3    H212517   2.403   4.535   4.295 -0.6288  1.6364  0.0779
 4171TIP3   OH212518   4.014   0.027   2.652  0.3561 -0.5345 -0.0442
 4171TIP3    H112519   4.055   0.034   2.566 -1.7574  1.7494 -0.9920
 4171TIP3    H212520   3.921   0.009   2.632 -0.3180  0.7819  1.6933
 4172TIP3   OH212521   4.340   0.700   5.116 -0.0495 -0.7701  0.6535
 4172TIP3    H112522   4.314   0.783   5.156 -0.4336 -0.3465 -0.4369
 4172TIP3    H212523   4.319   0.711   5.024 -2.6660 -3.0419  0.8599
 4173TIP3   OH212524   1.804   4.255   3.348  0.3938 -0.0648 -0.6752
 4173TIP3    H112525   1.780   4.208   3.268 -0.4323 -1.8214  0.5513
 4173TIP3    H212526   1.883   4.303   3.324  0.2438 -0.6444 -2.5073
 4174TIP3   OH212527   0.467   2.034   1.460  0.5395 -0.0197  0.0879
 4174TIP3    H112528   0.435   2.118   1.427 -0.7723  0.3823  2.1677
 4174TIP3    H212529   0.478   2.048   1.554  0.3021 -2.1711  0.4942
 4175TIP3   OH212530   1.175   2.591   3.665 -0.6621 -0.0368  0.0521
 4175TIP3    H112531   1.142   2.639   3.741 -1.2490  0.5220 -0.5477
 4175TIP3    H212532   1.113   2.519   3.653 -0.1884 -0.5260  0.5102
 4176TIP3   OH212533   5.206   1.026   3.015 -0.0148 -0.0422  0.1371
 4176TIP3    H112534   5.143   1.099   3.020  0.1932  0.3095 -1.6021
 4176TIP3    H212535   5.154   0.953   2.980  0.0031 -0.4525  0.9604
 4177TIP3   OH212536   5.958   2.961   0.272  0.2252  0.2854  0.7508
 4177TIP3    H112537   5.965   3.036   0.330 -0.6676  2.0451 -1.2848
 4177TIP3    H212538   5.912   2.994   0.195  0.2795 -2.2260 -0.4736
 4178TIP3   OH212539   0.694   1.579   1.171  0.4316  0.8975 -0.1655
 4178TIP3    H112540   0.620   1.536   1.128  1.0824  0.6439 -1.0680
 4178TIP3    H212541   0.678   1.566   1.264 -0.0306 -0.2228 -0.3825
 4179TIP3   OH212542   0.899   0.502   3.799 -0.0388  0.4725  0.4793
 4179TIP3    H112543   0.990   0.533   3.796 -0.2858  1.3504  1.3897
 4179TIP3    H212544   0.872   0.516   3.890 -1.5930  1.7860 -0.1275
 4180TIP3   OH212545   2.722   2.430   0.005  0.0293 -0.2726  0.1360
 4180TIP3    H112546   2.691   2.488   0.074 -0.5796 -1.0294  0.5114
 4180TIP3    H212547   2.817   2.440   0.005  0.2207 -1.5063  2.2506
 4181TIP3   OH212548   3.857   1.540   0.394 -0.0514  0.6536 -0.7918
 4181TIP3    H112549   3.929   1.580   0.345  1.6585 -0.1893  0.9350
 4181TIP3    H212550   3.844   1.455   0.353  1.2787  0.0106  0.0570
 4182TIP3   OH212551   4.182   2.322   1.403  0.1008 -0.3509  0.9436
 4182TIP3    H112552   4.091   2.306   1.425  0.0392  0.4237  1.2861
 4182TIP3    H212553   4.219   2.235   1.389  0.3042 -1.0568  4.7052
 4183TIP3   OH212554   1.096   4.299   3.084 -0.1430  0.1303  0.3352
 4183TIP3    H112555   1.043   4.274   3.009  1.3363  1.9540 -1.4138
 4183TIP3    H212556   1.119   4.216   3.126 -2.5027 -0.8191 -0.0972
 4184TIP3   OH212557   4.763   1.094   1.246  0.4339  0.3398 -0.0039
 4184TIP3    H112558   4.757   1.056   1.334  0.0133  1.0664  0.2900
 4184TIP3    H212559   4.817   1.031   1.197  1.9926  0.6765  1.1865
 4185TIP3   OH212560  -0.024   0.588   4.982  0.1932  0.0766  0.6836
 4185TIP3    H112561   0.027   0.603   4.902 -0.1425  2.4423  0.8637
 4185TIP3    H212562   0.034   0.615   5.053 -0.2991  0.0856  1.0861
 4186TIP3   OH212563   0.713   4.972   0.113 -0.1478  0.1639 -0.2749
 4186TIP3    H112564   0.667   4.908   0.167  0.2238  1.1317  1.2611
 4186TIP3    H212565   0.658   5.051   0.116  0.9927  0.9682  0.6521
 4187TIP3   OH212566   4.683   2.649   4.084 -0.5536 -0.2624 -0.0559
 4187TIP3    H112567   4.617   2.632   4.017 -2.0238  0.7639  1.0670
 4187TIP3    H212568   4.636   2.697   4.152  0.7604 -1.7317  1.9813
 4188TIP3   OH212569   2.288   4.843   0.123  0.0345  0.3165 -0.5880
 4188TIP3    H112570   2.375   4.834   0.085 -0.0426 -0.5021 -0.5926
 4188TIP3    H212571   2.299   4.820   0.215 -0.6455 -2.6836 -1.1296
 4189TIP3   OH212572   0.770   4.601   2.753  0.3954 -0.0314 -0.9189
 4189TIP3    H112573   0.690   4.597   2.805 -0.3036 -1.2093 -2.0515
 4189TIP3    H212574   0.798   4.692   2.761 -1.3512  0.5449 -0.9400
 4190TIP3   OH212575   1.496   2.187   0.761 -0.2075 -0.0189 -0.0248
 4190TIP3    H112576   1.538   2.110   0.722  1.4507  2.1169 -2.8099
 4190TIP3    H212577   1.518   2.182   0.854  0.5074 -2.4338 -0.2572
 4191TIP3   OH212578   3.360   2.812   1.221  0.6324  0.6799 -0.0669
 4191TIP3    H112579   3.366   2.761   1.141  1.3288  0.6227  0.0149
 4191TIP3    H212580   3.392   2.754   1.290 -0.4092  0.5635  0.3345
 4192TIP3   OH212581   4.384   0.085   5.118 -0.0163  0.1145 -0.7786
 4192TIP3    H112582   4.317   0.054   5.179  1.4643 -0.1377  0.8224
 4192TIP3    H212583   4.374   0.180   5.117 -0.4845  0.0653 -0.6563
 4193TIP3   OH212584   3.650   4.119   3.037  0.4139 -0.6789 -0.1819
 4193TIP3    H112585   3.601   4.186   2.990 -0.1528 -0.6586  0.4278
 4193TIP3    H212586   3.587   4.048   3.050  0.7152 -0.8989  0.0925
 4194TIP3   OH212587   4.804   2.401   1.456  0.0753 -0.4306 -0.1099
 4194TIP3    H112588   4.822   2.355   1.374  1.8969  0.3928 -0.2228
 4194TIP3    H212589   4.860   2.358   1.521 -0.7905 -0.5854  0.5561
 4195TIP3   OH212590   5.028   5.322   3.142  0.5832  0.2623  0.3962
 4195TIP3    H112591   5.059   5.235   3.167 -1.5780  0.5295  5.0650
 4195TIP3    H212592   5.070   5.381   3.206 -1.5294  1.9351  0.3463
 4196TIP3   OH212593   1.104   3.726   4.722  0.0387  0.5232 -0.7914
 4196TIP3    H112594   1.051   3.782   4.779 -0.8227  0.6727 -1.6978
 4196TIP3    H212595   1.169   3.786   4.683  0.1045  0.5833 -0.5891
 4197TIP3   OH212596   1.914   2.222   5.144  0.2859 -0.0876  0.1954
 4197TIP3    H112597   1.857   2.164   5.194  2.1755 -1.3838  0.9557
 4197TIP3    H212598   1.935   2.172   5.065  0.8025  0.1427  0.1882
 4198TIP3   OH212599   3.765   2.096   4.666  0.2171  0.8322  0.4873
 4198TIP3    H112600   3.847   2.132   4.700  0.4088 -0.1670  1.1465
 4198TIP3    H212601   3.751   2.017   4.719 -0.3084  0.0854 -0.7276
 4199TIP3   OH212602   0.608   1.903   3.311 -0.2725  0.3174  0.3186
 4199TIP3    H112603   0.687   1.850   3.299 -1.1046 -0.5209 -2.1442
 4199TIP3    H212604   0.561   1.860   3.382  0.0977 -0.9921 -0.1965
 4200TIP3   OH212605   2.580   5.470   1.357 -0.1404 -0.1472 -0.3947
 4200TIP3    H112606   2.616   5.537   1.299 -2.6282  0.4846 -1.3277
 4200TIP3    H212607   2.612   5.495   1.444 -0.9340  2.2442 -0.7106
 4201TIP3   OH212608   1.984   1.882   3.751  0.1304  0.9771 -0.2386
 4201TIP3    H112609   2.026   1.966   3.731  0.9726  0.9281  1.2114
 4201TIP3    H212610   1.995   1.872   3.845 -1.7337  0.1675 -0.0729
 4202TIP3   OH212611   5.149   4.947   2.600 -0.0768  0.0667  0.1512
 4202TIP3    H112612   5.084   4.882   2.626 -1.6359  0.5780 -2.1662
 4202TIP3    H212613   5.102   5.030   2.603  1.4632  0.9419  1.6094
 4203TIP3   OH212614   1.402   3.425   1.700 -0.0885  0.3786  0.0821
 4203TIP3    H112615   1.324   3.478   1.685  0.9709  1.7049 -1.1035
 4203TIP3    H212616   1.437   3.409   1.612  0.3230 -1.2339  0.5094
 4204TIP3   OH212617   3.281   2.729   0.692 -0.8212  0.0603 -0.5272
 4204TIP3    H112618   3.309   2.638   0.680 -1.6446 -0.1294 -1.1266
 4204TIP3    H212619   3.314   2.774   0.615  0.1276  0.4119  0.0767
 4205TIP3   OH212620   6.321   1.564   4.885 -0.2623 -0.5193 -0.3748
 4205TIP3    H112621   6.368   1.507   4.945 -0.2796 -0.0772  0.0669
 4205TIP3    H212622   6.327   1.651   4.925 -0.7383 -0.3142 -0.7350
 4206TIP3   OH212623   2.896   2.226   2.734  0.0011 -0.6882 -0.3819
 4206TIP3    H112624   2.805   2.226   2.763 -0.2315 -1.8572 -1.0354
 4206TIP3    H212625   2.904   2.147   2.681  1.0880  0.0047 -1.3118
 4207TIP3   OH212626   5.150   1.208   3.979 -0.1889  0.0069 -0.4159
 4207TIP3    H112627   5.137   1.156   4.057 -0.2872  0.4613 -0.1255
 4207TIP3    H212628   5.191   1.148   3.916 -1.0447 -0.6489 -0.3705
 4208TIP3   OH212629   6.197   0.167   0.796 -0.6141 -0.1425 -0.0534
 4208TIP3    H112630   6.121   0.225   0.797 -0.3493  0.2180  1.1528
 4208TIP3    H212631   6.166   0.087   0.838 -0.6628 -0.4634 -0.6880
 4209TIP3   OH212632   5.753   1.010   0.140  0.8004 -0.6249 -0.1687
 4209TIP3    H112633   5.658   1.016   0.143  0.8250  0.1099 -0.4911
 4209TIP3    H212634   5.779   1.083   0.083  1.4225 -2.2013 -1.9860
 4210TIP3   OH212635   3.089   0.842   4.742 -0.7732  0.1311 -0.3143
 4210TIP3    H112636   3.081   0.837   4.837 -1.1292  0.9694 -0.2919
 4210TIP3    H212637   3.004   0.811   4.709 -0.8316  0.3283 -0.3469
 4211TIP3   OH212638   3.633   4.085   1.422  0.7335 -0.4150 -0.3371
 4211TIP3    H112639   3.546   4.084   1.382  0.4997  0.2744  0.1287
 4211TIP3    H212640   3.691   4.118   1.354  0.0632  2.4915  0.3461
 4212TIP3   OH212641   4.736   2.767   4.646 -0.0564  0.1512  0.3693
 4212TIP3    H112642   4.643   2.784   4.630  0.1412  1.2593  0.3100
 4212TIP3    H212643   4.777   2.778   4.560 -0.0207 -1.6409  0.1110
 4213TIP3   OH212644   2.197   0.953   2.695 -0.4647 -0.5448  0.3137
 4213TIP3    H112645   2.292   0.950   2.678 -0.5381  0.0223 -0.2446
 4213TIP3    H212646   2.168   0.862   2.686  0.0180 -0.7139  0.4381
 4214TIP3   OH212647   4.893   0.757   3.606  0.2331 -0.0711 -0.1450
 4214TIP3    H112648   4.898   0.664   3.625  1.1229 -0.0909 -0.4421
 4214TIP3    H212649   4.972   0.776   3.555 -0.5643  0.5783 -1.2027
 4215TIP3   OH212650   5.096   2.212   3.293  0.1303 -0.6480  0.0619
 4215TIP3    H112651   5.026   2.196   3.231  1.8020  0.0429 -2.1319
 4215TIP3    H212652   5.101   2.131   3.345 -0.1075 -2.0533 -1.9871
 4216TIP3   OH212653   3.240   1.614   1.190  0.4327 -0.0480 -0.4244
 4216TIP3    H112654   3.236   1.539   1.250 -1.6598  0.0404 -0.3739
 4216TIP3    H212655   3.289   1.581   1.114  1.5781 -0.7071  0.5568
 4217TIP3   OH212656   0.676   5.950   4.564 -0.8225 -1.1399 -0.2283
 4217TIP3    H112657   0.670   5.858   4.539 -0.3007 -1.6548  1.4369
 4217TIP3    H212658   0.587   5.983   4.556 -0.9258 -1.6451 -1.3150
 4218TIP3   OH212659   2.687   1.090   3.094  0.6170 -0.6920  0.1084
 4218TIP3    H112660   2.609   1.062   3.142  0.1795 -1.2191 -0.8838
 4218TIP3    H212661   2.680   1.186   3.091  0.4332 -0.6827  0.7105
 4219TIP3   OH212662   0.653   3.999   3.629  0.3499 -0.4682 -0.1690
 4219TIP3    H112663   0.616   3.922   3.674 -0.3318 -0.3242 -0.4824
 4219TIP3    H212664   0.748   3.990   3.643  0.1255 -0.0146  1.9745
 4220TIP3   OH212665   5.397   0.478   4.762 -0.1114 -0.5498 -0.3665
 4220TIP3    H112666   5.366   0.505   4.675  0.3781 -2.0930 -1.0578
 4220TIP3    H212667   5.437   0.556   4.799 -3.0019  1.0136 -0.2367
 4221TIP3   OH212668   1.891   0.523   0.009  0.0602  0.1903  0.3038
 4221TIP3    H112669   1.857   0.546  -0.077 -0.2987  0.4743  0.5152
 4221TIP3    H212670   1.821   0.550   0.070  0.3047 -0.0139  0.6783
 4222TIP3   OH212671   0.289   4.155   1.346  0.4899 -0.0499  0.0842
 4222TIP3    H112672   0.351   4.127   1.278  0.5477  0.5809 -0.1263
 4222TIP3    H212673   0.343   4.197   1.412  0.0951  3.0033 -1.3499
 4223TIP3   OH212674   1.619   2.190   3.585  0.4486  0.5949 -0.8758
 4223TIP3    H112675   1.586   2.276   3.610 -0.0472  0.3835 -0.7752
 4223TIP3    H212676   1.618   2.140   3.667  2.5973  1.0541 -0.5113
 4224TIP3   OH212677   5.891   2.247   4.231  0.5748  0.6659  0.3108
 4224TIP3    H112678   5.855   2.197   4.158 -1.1888  0.1694  1.4517
 4224TIP3    H212679   5.983   2.260   4.208  0.1346  0.3347 -1.8690
 4225TIP3   OH212680   2.125   5.541   3.910 -0.0814  0.0339 -0.6064
 4225TIP3    H112681   2.064   5.612   3.889 -0.1635  0.1756  0.0894
 4225TIP3    H212682   2.172   5.525   3.828 -3.2755 -2.3268 -2.1929
 4226TIP3   OH212683   4.155   0.918   3.523 -0.0096 -0.0548 -0.5960
 4226TIP3    H112684   4.179   0.861   3.596  0.7792  1.9621  0.8447
 4226TIP3    H212685   4.060   0.918   3.522 -0.0201 -1.3447 -0.6111
 4227TIP3   OH212686   5.617   0.832   2.302 -0.2940  0.5420  0.2840
 4227TIP3    H112687   5.553   0.808   2.235  1.1559 -0.7621 -0.6993
 4227TIP3    H212688   5.648   0.749   2.337 -0.0545  1.1791  1.6695
 4228TIP3   OH212689   3.010   1.575   3.699 -0.2180  0.1160 -0.3171
 4228TIP3    H112690   3.011   1.563   3.604  1.8707 -1.9308 -0.1266
 4228TIP3    H212691   3.060   1.501   3.733 -0.9868  0.7422  2.4118
 4229TIP3   OH212692   0.540   2.250   1.138 -0.5364  0.0667 -0.2916
 4229TIP3    H112693   0.496   2.273   1.220 -1.0689 -0.5180 -0.4121
 4229TIP3    H212694   0.500   2.168   1.111  1.4549 -1.1675  0.2500
 4230TIP3   OH212695   4.862   3.090   1.869 -0.2436 -0.0560 -0.1718
 4230TIP3    H112696   4.802   3.164   1.866 -0.4234 -0.2147 -0.7175
 4230TIP3    H212697   4.814   3.021   1.916 -1.4209 -0.9611 -2.5358
 4231TIP3   OH212698   2.113   3.874   4.112 -0.5959 -0.2140 -1.1042
 4231TIP3    H112699   2.101   3.969   4.123 -1.4645 -0.5113  1.1322
 4231TIP3    H212700   2.192   3.866   4.059  0.6336  1.7791  0.2685
 4232TIP3   OH212701   3.099   4.824   0.930 -0.5177  0.3144  0.1408
 4232TIP3    H112702   3.104   4.757   0.862  3.2848 -0.7411  1.2379
 4232TIP3    H212703   3.149   4.898   0.895  1.1110 -0.0702  1.5527
 4233TIP3   OH212704   0.064   0.330   1.819 -0.1675  0.1181  0.4022
 4233TIP3    H112705  -0.008   0.387   1.844  0.1090  1.2495 -1.2686
 4233TIP3    H212706   0.022   0.258   1.771 -0.2476  0.3474  0.1313
 4234TIP3   OH212707   4.953   5.308   2.311  0.6302  0.0978  0.4642
 4234TIP3    H112708   5.029   5.258   2.281  0.0259  0.0663 -1.1197
 4234TIP3    H212709   4.932   5.366   2.238  1.0632  2.4571  2.1123
 4235TIP3   OH212710   1.881   3.591   0.165 -0.7350  0.0198  0.2598
 4235TIP3    H112711   1.897   3.517   0.106 -1.2860 -0.1455  0.3171
 4235TIP3    H212712   1.958   3.648   0.153  0.2570 -1.0974  1.0594
 4236TIP3   OH212713   0.221   2.832   0.273  0.2291 -0.1674 -0.3929
 4236TIP3    H112714   0.270   2.904   0.232  3.8297 -2.5163 -0.6674
 4236TIP3    H212715   0.170   2.794   0.201 -0.7249  1.2459 -0.5093
 4237TIP3   OH212716   2.718   3.711   2.927 -0.0042  0.0957  0.1207
 4237TIP3    H112717   2.624   3.707   2.944  0.0777  0.1218  0.5906
 4237TIP3    H212718   2.749   3.621   2.941  0.2866  0.3813  1.4653
 4238TIP3   OH212719   5.732   5.632   3.129  0.4422 -0.1998 -0.0431
 4238TIP3    H112720   5.821   5.608   3.155  0.0473 -2.0880 -0.2379
 4238TIP3    H212721   5.732   5.623   3.034  0.3574  1.0141 -0.1650
 4239TIP3   OH212722   3.193   2.892   1.462  0.2744  0.9740  0.1292
 4239TIP3    H112723   3.279   2.931   1.475  1.1718 -0.9461  0.2944
 4239TIP3    H212724   3.184   2.883   1.367  0.0103  1.6568  0.0839
 4240TIP3   OH212725   4.947   3.650   0.221 -0.2169 -0.3899  0.2531
 4240TIP3    H112726   4.920   3.729   0.270 -0.5626  0.1421 -0.7648
 4240TIP3    H212727   4.887   3.646   0.147 -1.2713 -2.5575  1.1483
 4241TIP3   OH212728   3.103   1.134   4.563 -0.1576 -0.8907  0.5360
 4241TIP3    H112729   3.193   1.161   4.544 -0.5260  0.6201  0.7666
 4241TIP3    H212730   3.112   1.056   4.617  0.9902 -1.5840 -0.6111
 4242TIP3   OH212731   6.069   1.040   0.928 -0.3781 -0.0509  0.3648
 4242TIP3    H112732   6.002   1.066   0.865 -0.5897 -0.2683  0.4969
 4242TIP3    H212733   6.053   1.094   1.005 -0.3319 -0.0232  0.3547
 4243TIP3   OH212734   2.120   5.099   0.931 -0.0083 -0.2596  0.2066
 4243TIP3    H112735   2.048   5.053   0.887  0.6389 -0.0589 -1.1248
 4243TIP3    H212736   2.194   5.089   0.872  1.1027 -0.5532  1.6130
 4244TIP3   OH212737   4.920   5.750   0.787  0.2348  0.3733 -0.1866
 4244TIP3    H112738   4.862   5.678   0.813 -0.4771  1.4127  1.3018
 4244TIP3    H212739   5.008   5.713   0.792 -0.0676 -0.2367  1.2078
 4245TIP3   OH212740   3.936   1.722   1.525  0.0461  0.4889  0.2332
 4245TIP3    H112741   3.926   1.732   1.620  0.7691 -0.0724  0.3810
 4245TIP3    H212742   3.850   1.695   1.494  0.4771 -2.1904  1.1376
 4246TIP3   OH212743   0.808   5.151   3.147  0.2961  0.2467 -0.8493
 4246TIP3    H112744   0.715   5.137   3.128  0.1473  0.0426 -0.0336
 4246TIP3    H212745   0.815   5.246   3.161  0.1105  0.1988 -0.4241
 4247TIP3   OH212746   4.229   3.023   4.451 -0.1043 -0.1744  0.0875
 4247TIP3    H112747   4.195   3.111   4.470 -0.1410  0.4480 -2.5548
 4247TIP3    H212748   4.151   2.971   4.431 -0.0377 -0.7452  1.1815
 4248TIP3   OH212749   2.885   1.296   4.608  0.0476 -0.3472 -0.1301
 4248TIP3    H112750   2.952   1.252   4.556  0.1506 -0.2704 -0.0612
 4248TIP3    H212751   2.913   1.387   4.612 -0.8163 -0.0072 -1.3345
 4249TIP3   OH212752   4.761   5.516   1.593  0.1813 -0.7651  0.2140
 4249TIP3    H112753   4.817   5.476   1.660  0.5176 -1.7971 -0.6541
 4249TIP3    H212754   4.764   5.609   1.612 -0.2188 -1.0783  2.0046
 4250TIP3   OH212755   4.079   0.358   4.232  0.3721  0.3081 -0.5543
 4250TIP3    H112756   4.152   0.416   4.255 -1.3278  2.2598  0.1827
 4250TIP3    H212757   4.006   0.416   4.213 -1.2054 -1.5870 -0.6843
 4251TIP3   OH212758   3.400   1.991   3.731  0.2826  0.4143  0.0073
 4251TIP3    H112759   3.366   2.024   3.814  1.0645  1.8277 -0.1983
 4251TIP3    H212760   3.484   2.036   3.720  0.2238  0.2111 -1.5116
 4252TIP3   OH212761   0.028   3.428   0.005  0.0566 -0.1987  0.3670
 4252TIP3    H112762  -0.041   3.421   0.071 -0.4828  1.0828 -0.0389
 4252TIP3    H212763   0.033   3.521  -0.015  1.5244 -0.3430 -0.0344
 4253TIP3   OH212764   4.151   4.375   3.828  0.2399 -0.0590  0.4408
 4253TIP3    H112765   4.193   4.329   3.755 -0.2531  1.1272 -0.6532
 4253TIP3    H212766   4.222   4.396   3.888  0.4517 -2.3733  1.1023
 4254TIP3   OH212767   0.299   0.037   3.615 -0.6823 -0.1155 -0.3159
 4254TIP3    H112768   0.280  -0.012   3.695  0.1558  0.7185  0.4145
 4254TIP3    H212769   0.221   0.091   3.601 -0.2513  0.8801  0.8424
 4255TIP3   OH212770   2.760   4.568   0.663  0.0697 -0.3110  0.6974
 4255TIP3    H112771   2.674   4.536   0.638 -0.1236  0.3439  0.5080
 4255TIP3    H212772   2.746   4.661   0.684  0.9294  0.0853 -0.3991
 4256TIP3   OH212773   6.311   5.590   0.929 -0.1186  0.2856 -0.6579
 4256TIP3    H112774   6.321   5.661   0.865  0.3486 -0.5584 -1.5412
 4256TIP3    H212775   6.250   5.529   0.887 -0.5004  0.1427  0.0874
 4257TIP3   OH212776   5.374   4.808   2.683 -0.3366  0.1588 -0.0544
 4257TIP3    H112777   5.310   4.875   2.658 -0.1135 -0.0619 -1.2902
 4257TIP3    H212778   5.438   4.808   2.612 -1.2205 -2.4751 -1.0162
 4258TIP3   OH212779   4.870   5.701   4.928 -0.2606  0.1724 -0.0987
 4258TIP3    H112780   4.945   5.646   4.908 -0.6143 -0.3916  0.1125
 4258TIP3    H212781   4.902   5.765   4.992 -0.2727 -0.8617  0.9687
 4259TIP3   OH212782   2.302   5.085   0.743  0.1203 -0.7735 -0.0310
 4259TIP3    H112783   2.282   5.016   0.679  0.1270  0.8671 -1.9082
 4259TIP3    H212784   2.397   5.082   0.753  0.1117 -1.0897 -0.0402
 4260TIP3   OH212785   5.022   1.277   0.625  0.3439  0.9644  0.2259
 4260TIP3    H112786   5.097   1.217   0.622 -2.0637 -2.4116  1.2663
 4260TIP3    H212787   4.999   1.282   0.718 -1.5914  0.6035 -0.1830
 4261TIP3   OH212788   5.630   1.012   2.501  0.3867 -0.1424 -0.2010
 4261TIP3    H112789   5.594   0.964   2.576  0.1441  1.3610  0.6916
 4261TIP3    H212790   5.617   0.953   2.427 -2.8559 -0.2276  0.2587
 4262TIP3   OH212791   3.406   3.948   4.872 -0.3663  0.3113  0.1475
 4262TIP3    H112792   3.352   3.906   4.804  0.3782 -2.2956  1.0324
 4262TIP3    H212793   3.422   3.878   4.936  0.2566  2.2465  2.2475
 4263TIP3   OH212794   0.224   0.031   1.971  0.1444 -0.0877 -0.1951
 4263TIP3    H112795   0.197  -0.034   2.036 -1.5574 -0.3412 -1.0972
 4263TIP3    H212796   0.320   0.033   1.977  0.0887 -0.9692  1.4636
 4264TIP3   OH212797   2.993   2.478   0.040  0.1992  0.4032  0.2324
 4264TIP3    H112798   3.029   2.408  -0.014  0.7444  1.5261 -0.9441
 4264TIP3    H212799   3.053   2.485   0.114  1.0334  0.6414 -0.4524
 4265TIP3   OH212800   0.719   0.734   0.249 -0.1101 -0.4597 -0.4005
 4265TIP3    H112801   0.656   0.803   0.228  0.7608  0.6019  0.3799
 4265TIP3    H212802   0.802   0.779   0.260  0.9058 -1.8775 -1.7624
 4266TIP3   OH212803   4.446   0.574   1.151  0.0515 -0.5972  0.1563
 4266TIP3    H112804   4.393   0.582   1.072 -1.6570 -1.3864  1.1628
 4266TIP3    H212805   4.467   0.665   1.174 -2.8136 -0.0199  0.9298
 4267TIP3   OH212806   1.116   5.747   1.969 -0.6446 -0.2483  0.7284
 4267TIP3    H112807   1.033   5.740   1.921  1.1801 -1.2258 -2.6223
 4267TIP3    H212808   1.117   5.671   2.027 -1.6018 -0.8753 -0.0511
 4268TIP3   OH212809   3.586   2.865   1.878 -0.1243  0.1554  0.3849
 4268TIP3    H112810   3.667   2.821   1.900  0.0114  0.8646  1.3577
 4268TIP3    H212811   3.602   2.902   1.791  1.4167  2.1464  1.4326
 4269TIP3   OH212812   1.476   4.994   2.352 -0.1115 -0.2344 -0.1173
 4269TIP3    H112813   1.549   4.944   2.314  0.0699 -0.1029  0.0554
 4269TIP3    H212814   1.486   4.981   2.447  1.0369  1.6113  0.0781
 4270TIP3   OH212815   5.711   2.097   2.768 -0.1298 -0.2278 -0.0939
 4270TIP3    H112816   5.659   2.122   2.692  0.2365  1.2484  0.1137
 4270TIP3    H212817   5.775   2.034   2.735 -0.0213  0.3471 -0.9939
 4271TIP3   OH212818   3.698   0.567   5.006  0.4889  0.1440  0.2644
 4271TIP3    H112819   3.773   0.511   5.026  0.5259  0.1608  0.1752
 4271TIP3    H212820   3.690   0.624   5.082  1.9828  1.6786 -0.6582
 4272TIP3   OH212821   0.859   3.928   3.333  0.2089  0.4473 -0.1948
 4272TIP3    H112822   0.845   3.875   3.412  2.9610  0.3188  0.2957
 4272TIP3    H212823   0.880   4.015   3.366 -0.9348  1.0210 -0.9067
 4273TIP3   OH212824   5.212   2.216   0.892 -0.4893 -0.0114 -0.1480
 4273TIP3    H112825   5.184   2.129   0.920  0.1019 -0.3202 -0.4866
 4273TIP3    H212826   5.131   2.266   0.884 -0.7912 -0.3881  0.5215
 4274TIP3   OH212827   4.306   4.899   0.785  0.5411 -0.6628  0.0522
 4274TIP3    H112828   4.228   4.849   0.761  0.0087 -0.2936  0.9563
 4274TIP3    H212829   4.349   4.920   0.702  0.1966 -1.6915 -0.3934
 4275TIP3   OH212830   0.633   2.928   0.232 -0.5982  0.6871  0.1932
 4275TIP3    H112831   0.699   2.953   0.167  0.5612 -0.3686  0.9227
 4275TIP3    H212832   0.582   2.860   0.189 -0.1669  0.3561  0.2037
 4276TIP3   OH212833   0.640   2.097   4.691 -0.5047 -0.2704  0.1214
 4276TIP3    H112834   0.580   2.039   4.738 -0.0702 -0.5302  0.3650
 4276TIP3    H212835   0.622   2.184   4.727 -0.3574 -0.4289  0.5865
 4277TIP3   OH212836   6.014   3.670   2.034  0.4197 -0.0428 -0.0673
 4277TIP3    H112837   6.019   3.762   2.059 -0.4140 -0.1367  0.4955
 4277TIP3    H212838   6.105   3.642   2.026  0.6882  1.1727 -1.5847
 4278TIP3   OH212839   2.495   0.428   0.750 -0.2230  0.6232  0.3600
 4278TIP3    H112840   2.411   0.473   0.754 -0.9920 -0.6273 -0.9630
 4278TIP3    H212841   2.518   0.412   0.842 -2.8661 -1.5122  0.7803
 4279TIP3   OH212842   1.656   2.896   4.928  0.1860 -0.2260  0.4842
 4279TIP3    H112843   1.667   2.948   5.008  2.2480 -2.0016  1.4470
 4279TIP3    H212844   1.688   2.809   4.950  1.6179 -0.5994 -2.4866
 4280TIP3   OH212845   3.051   1.168   4.180 -0.1539  0.1237 -0.0497
 4280TIP3    H112846   3.070   1.233   4.112 -1.2675  1.0230  0.4584
 4280TIP3    H212847   2.956   1.156   4.175  0.0219 -1.4416 -0.0932
 4281TIP3   OH212848   1.982   1.836   0.674  0.0873  0.1316 -0.4539
 4281TIP3    H112849   1.923   1.825   0.599  1.2155 -0.4328 -1.2892
 4281TIP3    H212850   2.052   1.894   0.641  1.7716 -1.8602 -0.5746
 4282TIP3   OH212851   5.144   2.874   1.839  0.0170  0.3002 -0.2737
 4282TIP3    H112852   5.071   2.845   1.894 -0.2911  0.6989 -0.4604
 4282TIP3    H212853   5.220   2.827   1.872  0.4291  2.6205  2.4115
 4283TIP3   OH212854   4.621   0.925   1.673 -0.6046 -0.2574 -0.5412
 4283TIP3    H112855   4.578   1.011   1.669  0.4095  0.4153  1.3932
 4283TIP3    H212856   4.607   0.887   1.587 -0.6500  2.0731 -1.6513
 4284TIP3   OH212857   5.776   3.946   1.516  0.1663 -0.2792  0.2449
 4284TIP3    H112858   5.755   4.035   1.486 -2.7161 -0.6427  0.8892
 4284TIP3    H212859   5.826   3.959   1.596 -1.8500  0.8659  1.3951
 4285TIP3   OH212860   5.989   2.970   1.747 -0.2350  0.3786 -0.2674
 4285TIP3    H112861   6.052   2.908   1.784  0.4079  1.3038  0.2488
 4285TIP3    H212862   6.029   3.056   1.762 -0.8326  0.8891 -1.4724
 4286TIP3   OH212863   3.818   2.073   1.338  0.0305 -0.0930 -0.3276
 4286TIP3    H112864   3.770   2.076   1.255 -0.9721 -0.4948  0.2251
 4286TIP3    H212865   3.896   2.022   1.318 -0.0803  0.0220 -1.0871
 4287TIP3   OH212866   3.770   5.373   4.783 -0.0614 -0.2561 -0.3604
 4287TIP3    H112867   3.772   5.383   4.879 -1.8781  0.8180 -0.3933
 4287TIP3    H212868   3.707   5.302   4.768 -0.7825  0.4577 -0.7842
 4288TIP3   OH212869   2.367   2.275   3.317  0.3606 -0.2939  0.3075
 4288TIP3    H112870   2.324   2.257   3.401 -1.6269 -0.0369 -0.5879
 4288TIP3    H212871   2.352   2.368   3.302 -0.5748 -0.6055 -0.9439
 4289TIP3   OH212872   1.544   1.470   0.483 -0.6185  1.0746 -0.4309
 4289TIP3    H112873   1.539   1.558   0.445 -1.0055  1.2856  0.0950
 4289TIP3    H212874   1.455   1.452   0.514 -0.1747  1.2024  1.0002
 4290TIP3   OH212875   4.598   4.554   3.272  0.4813  0.1959  0.5068
 4290TIP3    H112876   4.594   4.523   3.363  2.5110 -0.5432  0.4024
 4290TIP3    H212877   4.552   4.638   3.273  0.6489  0.3046  2.2609
 4291TIP3   OH212878   1.182   1.728   2.735 -0.1456  0.3682  0.1541
 4291TIP3    H112879   1.148   1.689   2.816  0.6777  0.0578  0.3582
 4291TIP3    H212880   1.196   1.653   2.677 -2.1578  0.7003 -0.8540
 4292TIP3   OH212881   6.249   0.726   4.559 -0.0410  0.4270  0.1454
 4292TIP3    H112882   6.273   0.779   4.483  3.0227 -1.7171 -0.5653
 4292TIP3    H212883   6.181   0.667   4.528 -0.5622  1.1785 -0.1807
 4293TIP3   OH212884   5.188   2.231   4.126 -0.0914 -0.0559  0.3243
 4293TIP3    H112885   5.275   2.211   4.090  0.7474  0.3984  1.9994
 4293TIP3    H212886   5.127   2.206   4.057  1.4462  1.3923 -1.6730
 4294TIP3   OH212887   4.169   2.062   0.132  0.3575  0.9615  0.1741
 4294TIP3    H112888   4.231   2.024   0.194 -0.4816 -0.3637  0.2488
 4294TIP3    H212889   4.191   2.021   0.048 -0.5771  0.2530  0.2594
 4295TIP3   OH212890   3.890   4.459   4.251 -0.4414 -0.2931  0.3827
 4295TIP3    H112891   3.895   4.450   4.156  0.0351 -1.7563  0.5175
 4295TIP3    H212892   3.819   4.521   4.266  0.7085  1.4506 -0.9719
 4296TIP3   OH212893   5.603   0.526   4.497 -0.2682  0.5522  0.1585
 4296TIP3    H112894   5.672   0.591   4.505  0.5561 -0.2894  0.0814
 4296TIP3    H212895   5.523   0.573   4.521  0.2395  1.6870 -0.2891
 4297TIP3   OH212896   3.013   4.683   1.732  0.3689  0.3593  0.0618
 4297TIP3    H112897   3.037   4.626   1.805 -2.0962  1.8507  2.2029
 4297TIP3    H212898   2.957   4.628   1.677 -0.8309  0.2268  1.3483
 4298TIP3   OH212899   2.329   3.561   3.651  0.3363 -0.1322  0.2393
 4298TIP3    H112900   2.269   3.557   3.577  0.9634 -1.4183 -0.2273
 4298TIP3    H212901   2.415   3.539   3.613  0.8301  0.1313  1.1795
 4299TIP3   OH212902   1.496   4.121   1.438 -0.1278  0.0438 -0.0865
 4299TIP3    H112903   1.516   4.171   1.517  0.3111 -0.3796  0.0680
 4299TIP3    H212904   1.537   4.036   1.451  3.0837  1.1069 -2.2498
 4300TIP3   OH212905   4.412   2.824   1.919 -0.2256 -0.8249 -0.1417
 4300TIP3    H112906   4.357   2.903   1.911  0.0630 -0.4828  1.0622
 4300TIP3    H212907   4.349   2.753   1.929 -0.4933 -0.7866 -1.3387
 4301TIP3   OH212908   3.152   3.013   0.106  0.2008 -0.2813  0.1350
 4301TIP3    H112909   3.234   3.062   0.116 -0.1319  0.0729  1.3835
 4301TIP3    H212910   3.168   2.952   0.034  0.6698  1.5875 -1.4460
 4302TIP3   OH212911   5.079   2.105   4.340 -0.0899 -0.1942 -0.6773
 4302TIP3    H112912   4.987   2.100   4.316 -0.4169  1.5504  0.0861
 4302TIP3    H212913   5.115   2.174   4.283 -0.2718  2.0986  1.8021
 4303TIP3   OH212914   4.082   0.510   0.109 -0.9847  0.0709  0.0336
 4303TIP3    H112915   4.020   0.578   0.084  1.4174  1.7207 -1.8611
 4303TIP3    H212916   4.149   0.556   0.161  0.8166 -0.6996 -1.4725
 4304TIP3   OH212917   1.856   2.672   4.362  0.6565  0.1329 -0.0665
 4304TIP3    H112918   1.788   2.710   4.417  0.9433  0.0686  0.3416
 4304TIP3    H212919   1.913   2.745   4.339  1.2372 -0.0483  0.7617
 4305TIP3   OH212920   4.095   1.915   3.650 -0.7076 -0.0505  0.0240
 4305TIP3    H112921   4.020   1.868   3.613 -1.0762  1.0234 -0.6472
 4305TIP3    H212922   4.155   1.926   3.575 -0.5300  0.3511  0.2248
 4306TIP3   OH212923   4.953   1.750   2.220  0.1416 -0.1832 -0.1207
 4306TIP3    H112924   5.042   1.726   2.247 -0.1157 -0.7259  0.2411
 4306TIP3    H212925   4.929   1.821   2.280 -0.5564 -1.6032  1.3439
 4307TIP3   OH212926   0.978   5.197   0.021  0.0982 -0.3885  0.1793
 4307TIP3    H112927   1.050   5.138   0.045 -0.4331 -1.1596 -0.0762
 4307TIP3    H212928   0.905   5.168   0.075 -0.5404 -0.8263 -0.8835
 4308TIP3   OH212929   5.815   0.172   3.031 -0.2915  0.0310 -0.2226
 4308TIP3    H112930   5.754   0.105   3.000  0.5479 -0.1574 -1.5290
 4308TIP3    H212931   5.901   0.144   3.000  0.3336  0.8025  0.7369
 4309TIP3   OH212932   0.174   0.624   3.489  0.1330  0.2008 -0.2146
 4309TIP3    H112933   0.154   0.678   3.413 -2.4965 -1.9066 -1.1798
 4309TIP3    H212934   0.128   0.668   3.562 -0.2597  0.3747 -0.5615
 4310TIP3   OH212935   2.804   5.951   2.377 -0.7762  0.0334  0.0198
 4310TIP3    H112936   2.890   5.938   2.416 -0.4029 -0.8657 -1.0794
 4310TIP3    H212937   2.819   6.005   2.300 -0.4174 -3.7956 -2.8624
 4311TIP3   OH212938   5.925   1.533   0.350 -0.2447 -0.0930  0.7208
 4311TIP3    H112939   5.925   1.448   0.307  2.0950 -0.9792  2.2579
 4311TIP3    H212940   6.004   1.577   0.319  0.5035 -0.0074  2.5998
 4312TIP3   OH212941   1.759   3.033   0.563  0.7702 -0.7546  0.0445
 4312TIP3    H112942   1.672   3.062   0.536  0.7417 -0.9566 -0.0873
 4312TIP3    H212943   1.743   2.951   0.609  0.7032  0.1343  1.6698
 4313TIP3   OH212944   1.441   2.566   3.755  0.0023 -0.5826  0.1508
 4313TIP3    H112945   1.438   2.610   3.839  0.1427  0.7570 -0.5238
 4313TIP3    H212946   1.353   2.577   3.718  0.6747  1.3043 -1.0549
 4314TIP3   OH212947   4.572   1.423   2.251  0.1332 -0.2711 -0.4856
 4314TIP3    H112948   4.514   1.352   2.221 -0.0610 -0.3407  0.0383
 4314TIP3    H212949   4.645   1.421   2.190  0.2659 -1.1135 -0.3243
 4315TIP3   OH212950   5.336   3.495   3.978  0.2712 -0.3604  0.0602
 4315TIP3    H112951   5.382   3.411   3.986 -0.7536 -0.8573  0.9038
 4315TIP3    H212952   5.312   3.500   3.886 -2.2620 -2.4523  0.4911
 4316TIP3   OH212953   5.546   0.059   3.612 -0.1776 -0.7043  0.5684
 4316TIP3    H112954   5.637   0.028   3.609  0.0509 -0.0210 -1.4004
 4316TIP3    H212955   5.509   0.019   3.690  2.2022  0.0967  2.2362
 4317TIP3   OH212956   1.937   4.622   1.684  0.0770  0.5803  0.4495
 4317TIP3    H112957   1.985   4.625   1.601  1.0436 -1.4069  0.8864
 4317TIP3    H212958   1.979   4.552   1.734 -2.3896 -0.3282  1.4189
 4318TIP3   OH212959   1.858   5.794   4.406 -0.7025 -0.2648 -0.0260
 4318TIP3    H112960   1.877   5.887   4.404 -0.7790 -0.2260  0.7754
 4318TIP3    H212961   1.918   5.756   4.342 -1.9339  0.5348 -1.7310
 4319TIP3   OH212962   1.212   5.376   4.235  0.1705  0.4012 -0.0141
 4319TIP3    H112963   1.183   5.466   4.215 -0.9832  0.8236  3.0646
 4319TIP3    H212964   1.284   5.387   4.297  1.2243 -0.8386 -0.9614
 4320TIP3   OH212965   5.288   5.029   1.885 -0.2578  0.4316 -0.4521
 4320TIP3    H112966   5.195   5.008   1.894 -0.4795  0.5087 -2.1858
 4320TIP3    H212967   5.332   4.944   1.887 -0.4573  0.3280 -0.4401
 4321TIP3   OH212968   1.358   4.325   3.974 -0.6148 -0.1998 -0.0936
 4321TIP3    H112969   1.340   4.383   3.899 -1.6292  0.2939  0.4986
 4321TIP3    H212970   1.399   4.382   4.039 -1.2295 -0.2215  0.3306
 4322TIP3   OH212971   3.274   0.455   2.539  0.4819  0.0317  0.7391
 4322TIP3    H112972   3.274   0.542   2.499  0.2726  1.2622  3.2121
 4322TIP3    H212973   3.208   0.406   2.490  0.1047  1.4829 -0.2640
 4323TIP3   OH212974   2.063   0.544   3.160  0.0040  0.3564  0.2246
 4323TIP3    H112975   1.996   0.532   3.092 -0.8241  0.1981  1.0545
 4323TIP3    H212976   2.100   0.630   3.142 -1.6904  1.2483  0.8197
 4324TIP3   OH212977   2.214   1.042   0.122  0.1893  0.1173 -0.0502
 4324TIP3    H112978   2.201   0.966   0.178 -0.7698  1.6534  1.8972
 4324TIP3    H212979   2.144   1.103   0.145  0.7205  1.4922 -1.7881
 4325TIP3   OH212980   2.749   5.909   3.637  0.3188  0.3559  0.4160
 4325TIP3    H112981   2.787   5.968   3.572 -0.5834  0.4510 -0.0270
 4325TIP3    H212982   2.772   5.822   3.606 -1.7684  0.3021 -1.1231
 4326TIP3   OH212983   5.486   1.421   1.093  0.8279 -0.2592  0.0557
 4326TIP3    H112984   5.485   1.412   1.189 -1.3706 -1.3211 -0.0072
 4326TIP3    H212985   5.473   1.514   1.077  0.7411 -0.1434  0.7795
 4327TIP3   OH212986   1.484   1.984   4.769  0.4199 -0.5021  0.0117
 4327TIP3    H112987   1.415   2.043   4.737  2.1046  0.7224 -1.6240
 4327TIP3    H212988   1.437   1.913   4.811 -1.8303  0.4819 -0.6611
 4328TIP3   OH212989   2.086   0.012   4.370 -0.1209 -0.1922  0.1616
 4328TIP3    H112990   2.021  -0.034   4.424  0.8445 -0.6425  0.9926
 4328TIP3    H212991   2.035   0.051   4.299 -1.1502 -1.4373  0.1768
 4329TIP3   OH212992   2.524   3.324   1.804  0.0173 -0.0513 -0.4049
 4329TIP3    H112993   2.434   3.340   1.777  0.3071  0.4308 -1.1394
 4329TIP3    H212994   2.561   3.271   1.733  0.2147 -0.5153  0.0482
 4330TIP3   OH212995   4.285   2.081   1.358  0.5627 -0.1369  0.0484
 4330TIP3    H112996   4.216   2.025   1.393  1.4985 -1.2783  0.1403
 4330TIP3    H212997   4.304   2.045   1.271  2.4554 -1.2219  0.8294
 4331TIP3   OH212998   0.396   5.973   3.293 -0.7630 -0.5159  0.0143
 4331TIP3    H112999   0.395   5.938   3.204 -0.3509 -1.6495  0.4398
 4331TIP3    H213000   0.313   6.020   3.302 -0.3134  0.6154 -1.3351
 4332TIP3   OH213001   3.657   1.487   0.835  0.1763 -0.2712  0.4180
 4332TIP3    H113002   3.644   1.436   0.755 -1.8878  1.1389 -0.2298
 4332TIP3    H213003   3.664   1.421   0.904 -0.1838 -1.4825 -0.6539
 4333TIP3   OH213004   0.277   2.398   1.973 -0.0190 -0.6972  0.2371
 4333TIP3    H113005   0.304   2.315   2.011  0.9694 -0.5360 -0.0997
 4333TIP3    H213006   0.238   2.447   2.046 -1.3778 -1.7684  0.2627
 4334TIP3   OH213007   5.011   1.855   1.466  0.2172  0.0236 -0.5401
 4334TIP3    H113008   5.058   1.921   1.415  2.4868  0.0690  1.4281
 4334TIP3    H213009   5.042   1.868   1.556 -0.2636 -2.8542  0.1248
 4335TIP3   OH213010   4.453   5.239   2.122  0.1663  0.1751 -0.2376
 4335TIP3    H113011   4.481   5.168   2.064 -0.8173 -0.1556 -0.3342
 4335TIP3    H213012   4.508   5.230   2.199 -0.6870 -1.4455  0.2504
 4336TIP3   OH213013   4.357   1.972   1.118 -0.1827 -0.1951  0.2712
 4336TIP3    H113014   4.303   1.959   1.041 -2.5938  0.8370  1.6906
 4336TIP3    H213015   4.430   1.911   1.106 -0.8417 -0.5696 -2.4400
 4337TIP3   OH213016   0.562   5.940   1.406  0.2749  0.0107  0.2940
 4337TIP3    H113017   0.572   6.028   1.370  0.8597 -0.6690 -1.2834
 4337TIP3    H213018   0.507   5.894   1.343  0.5359 -0.9594  0.7592
 4338TIP3   OH213019   4.986   0.862   0.833 -0.9518  0.0777  0.0793
 4338TIP3    H113020   4.990   0.849   0.927 -0.0316 -1.3678 -0.1203
 4338TIP3    H213021   5.041   0.939   0.816 -0.1511 -0.3685  0.6105
 4339TIP3   OH213022   5.232   1.272   1.154 -0.4489  0.3387  0.6762
 4339TIP3    H113023   5.179   1.351   1.157 -0.3650  0.5113 -1.4902
 4339TIP3    H213024   5.319   1.301   1.128  0.1618 -0.2301  1.9767
 4340TIP3   OH213025   5.376   0.117   3.955 -0.2982 -0.6773 -0.3046
 4340TIP3    H113026   5.282   0.134   3.957 -0.0968  0.6705 -1.0364
 4340TIP3    H213027   5.386   0.045   3.893 -0.8046 -0.4776 -0.6214
 4341TIP3   OH213028   2.596   3.978   1.616  0.0254  0.0166 -0.3218
 4341TIP3    H113029   2.553   3.920   1.679  2.5169  0.4443  1.9804
 4341TIP3    H213030   2.635   3.919   1.552  2.4336 -1.0301  1.9172
 4342TIP3   OH213031   2.618   5.572   4.551  0.3624  0.3975  0.8629
 4342TIP3    H113032   2.671   5.492   4.547  1.8538  1.2953  1.9437
 4342TIP3    H213033   2.528   5.541   4.537  1.0316 -1.2936 -0.0360
 4343TIP3   OH213034   2.874   3.140   3.019 -0.4011  0.4481 -0.4726
 4343TIP3    H113035   2.919   3.060   3.046  0.8822  1.0732 -0.6885
 4343TIP3    H213036   2.898   3.152   2.927  0.5009  1.7575 -0.0997
 4344TIP3   OH213037   0.438   2.343   0.786  0.3280  0.1198 -0.3470
 4344TIP3    H113038   0.441   2.407   0.714 -0.1838  1.9281  1.1819
 4344TIP3    H213039   0.397   2.390   0.858 -0.1769 -2.0141  0.8084
 4345TIP3   OH213040   0.565   3.986   2.703 -0.3507 -0.0989  0.6246
 4345TIP3    H113041   0.546   4.036   2.624  1.4957  1.3444  1.0134
 4345TIP3    H213042   0.497   3.919   2.706 -0.6885  0.0032 -1.9947
 4346TIP3   OH213043   5.120   1.508   1.216 -0.7649 -0.2176 -0.1092
 4346TIP3    H113044   5.098   1.591   1.173 -1.7106  0.2296  1.1911
 4346TIP3    H213045   5.156   1.534   1.301 -0.6853 -1.1360  0.1495
 4347TIP3   OH213046   3.693   5.366   1.842 -0.1556 -0.7199  0.1654
 4347TIP3    H113047   3.726   5.297   1.785 -0.9917 -1.3928  0.4962
 4347TIP3    H213048   3.655   5.321   1.917  1.2115  0.1477  1.4600
 4348TIP3   OH213049   3.111   4.169   0.402 -0.0686 -0.0705 -0.5431
 4348TIP3    H113050   3.099   4.196   0.311  0.4889 -0.2181 -0.6648
 4348TIP3    H213051   3.071   4.082   0.406  0.4495 -0.3281 -0.8082
 4349TIP3   OH213052   3.203   4.832   4.489 -0.3885 -0.0037  0.1816
 4349TIP3    H113053   3.137   4.764   4.498  0.2015 -1.0441 -2.4564
 4349TIP3    H213054   3.154   4.908   4.457 -0.7089  0.0882  0.8878
 4350TIP3   OH213055   6.225   1.269   2.950 -0.5176 -0.5240  0.6143
 4350TIP3    H113056   6.235   1.211   3.025 -0.7243  0.4248  1.4040
 4350TIP3    H213057   6.170   1.221   2.888  0.4890 -1.7237  0.6231
 4351TIP3   OH213058   1.061   4.136   4.928  0.2553  0.5875 -0.1561
 4351TIP3    H113059   1.128   4.150   4.862 -0.4737 -0.1793 -1.0716
 4351TIP3    H213060   0.980   4.121   4.879 -0.4485  0.7215  0.9129
 4352TIP3   OH213061   3.393   1.610   0.734  0.0027 -0.3731 -0.1020
 4352TIP3    H113062   3.333   1.539   0.757 -1.0656 -0.1498 -1.9558
 4352TIP3    H213063   3.471   1.594   0.787 -1.5465 -0.8593  2.1862
 4353TIP3   OH213064   4.545   2.258   0.909  0.3599 -0.3097  0.4844
 4353TIP3    H113065   4.559   2.345   0.873 -0.7091 -0.6487 -0.7907
 4353TIP3    H213066   4.460   2.263   0.952  0.7286 -0.4742  1.2552
 4354TIP3   OH213067   6.310   3.215   4.581  0.4443  0.3734  0.4328
 4354TIP3    H113068   6.283   3.149   4.517  0.7887  0.9761 -0.3635
 4354TIP3    H213069   6.383   3.261   4.538 -0.7217  2.2275  0.3182
 4355TIP3   OH213070   1.784   1.750   0.419  0.2350 -0.2078 -0.0024
 4355TIP3    H113071   1.718   1.773   0.353  0.4386  0.3878  0.0057
 4355TIP3    H213072   1.868   1.768   0.377  0.4046 -0.9494 -0.0053
 4356TIP3   OH213073   5.397   3.733   4.889  0.0641 -0.0514 -0.0562
 4356TIP3    H113074   5.335   3.688   4.830  0.7163  0.0221 -0.8159
 4356TIP3    H213075   5.372   3.825   4.883  0.1727 -0.0349 -0.2815
 4357TIP3   OH213076   1.578   2.552   4.423  0.6046 -0.2279 -0.0909
 4357TIP3    H113077   1.495   2.577   4.381  0.0144 -2.3982 -0.3106
 4357TIP3    H213078   1.623   2.500   4.357  1.0958 -1.0276  0.8577
 4358TIP3   OH213079   6.224   0.073   4.229 -0.0713  0.4292 -0.2202
 4358TIP3    H113080   6.278   0.023   4.169  0.5402  0.3681  0.3773
 4358TIP3    H213081   6.278   0.148   4.253  0.0738 -0.0690  1.0354
 4359TIP3   OH213082   1.203   2.564   0.792  0.0277 -0.2219  1.0834
 4359TIP3    H113083   1.165   2.484   0.829  1.9177 -1.2380  0.9366
 4359TIP3    H213084   1.239   2.537   0.707 -2.1786  1.5487 -0.5578
 4360TIP3   OH213085   5.505   1.686   2.568 -0.3757 -0.1114  0.0497
 4360TIP3    H113086   5.596   1.678   2.598 -0.2402 -3.1411 -0.8127
 4360TIP3    H213087   5.456   1.624   2.623 -1.5897  0.1373 -0.7172
 4361TIP3   OH213088   6.373   5.921   2.221  0.2678 -0.1122 -0.0949
 4361TIP3    H113089   6.355   5.937   2.128 -2.0994  0.8358  0.4541
 4361TIP3    H213090   6.288   5.896   2.258  1.7928 -4.1349  1.1866
 4362TIP3   OH213091   0.093   0.560   0.340 -0.5546  0.1074 -0.7632
 4362TIP3    H113092   0.175   0.595   0.377 -0.1251 -0.6440 -0.9899
 4362TIP3    H213093   0.033   0.558   0.414 -0.7264  1.6788 -0.8120
 4363TIP3   OH213094   2.303   4.645   1.038 -0.1449  0.4863 -0.3628
 4363TIP3    H113095   2.310   4.561   1.084 -1.3484  1.3628  1.5841
 4363TIP3    H213096   2.264   4.623   0.953  1.2563 -1.0983 -0.6374
 4364TIP3   OH213097   5.444   0.329   4.424  0.4671  0.0779  0.1676
 4364TIP3    H113098   5.492   0.411   4.412 -1.0862  1.0880  0.5423
 4364TIP3    H213099   5.472   0.297   4.510  0.9859  0.2602  0.0748
 4365TIP3   OH213100   5.297   3.419   2.959  0.5258 -0.2364  0.0762
 4365TIP3    H113101   5.331   3.399   3.046  1.4275  0.5880 -0.0618
 4365TIP3    H213102   5.263   3.509   2.967  0.0675 -0.3782 -0.2710
 4366TIP3   OH213103   3.989   4.337   5.140  0.1808  0.5103 -0.7344
 4366TIP3    H113104   3.922   4.343   5.208  0.6783  1.6793 -0.3214
 4366TIP3    H213105   3.986   4.423   5.096  0.2905 -0.0078 -1.7941
 4367TIP3   OH213106   4.524   2.220   4.663  0.2922  0.3653  0.0333
 4367TIP3    H113107   4.462   2.159   4.705  0.5063  0.9624  1.2664
 4367TIP3    H213108   4.587   2.163   4.619 -1.6090 -0.2594 -2.0431
 4368TIP3   OH213109   4.080   5.151   2.086 -0.0357 -0.1705 -0.3844
 4368TIP3    H113110   4.121   5.070   2.056 -0.2039 -0.1675 -0.6283
 4368TIP3    H213111   4.004   5.122   2.137 -1.9822 -0.1946 -3.0706
 4369TIP3   OH213112   2.682   5.705   0.335 -0.4749 -0.1879  0.5465
 4369TIP3    H113113   2.665   5.658   0.253  0.9205 -0.7288  0.5554
 4369TIP3    H213114   2.695   5.637   0.400 -1.1043  0.2425  1.1373
 4370TIP3   OH213115   2.720   4.669   0.071  0.0823 -0.2919  0.2500
 4370TIP3    H113116   2.672   4.607   0.126 -2.4319  0.9523 -0.4110
 4370TIP3    H213117   2.760   4.615   0.003  0.4839 -1.4666  1.3677
 4371TIP3   OH213118   5.762   2.478   3.026 -0.0737  0.2040 -0.0539
 4371TIP3    H113119   5.673   2.514   3.029  0.7167  2.2500 -0.1173
 4371TIP3    H213120   5.813   2.543   2.978  1.8100 -0.1688  1.3546
 4372TIP3   OH213121  -0.012   3.300   0.798 -0.1169  0.1990 -0.0746
 4372TIP3    H113122   0.032   3.385   0.792 -0.6064  0.5227  0.6811
 4372TIP3    H213123   0.043   3.249   0.859 -1.1351  0.8601  1.4601
 4373TIP3   OH213124   0.717   1.413   1.412 -0.2127 -0.2669 -0.3717
 4373TIP3    H113125   0.757   1.484   1.464 -2.9457  1.3114 -0.2342
 4373TIP3    H213126   0.788   1.381   1.357  1.3568  2.0188  0.1747
 4374TIP3   OH213127   1.639   5.964   0.510 -0.2170 -0.3188 -0.1166
 4374TIP3    H113128   1.706   5.952   0.576 -0.2083  1.7992  0.3393
 4374TIP3    H213129   1.557   5.939   0.553 -0.1690  0.7297  0.6254
 4375TIP3   OH213130   4.742   5.492   0.552  0.2224  0.2937 -0.0870
 4375TIP3    H113131   4.803   5.553   0.512  0.1824  0.1093 -0.4334
 4375TIP3    H213132   4.767   5.490   0.645 -0.9718  2.2791  0.3234
 4376TIP3   OH213133   0.181   1.912   4.812 -0.3910 -0.4758 -0.1522
 4376TIP3    H113134   0.092   1.876   4.811  0.2588 -2.2244  0.3099
 4376TIP3    H213135   0.171   1.999   4.850 -2.1343  0.1406 -1.8342
 4377TIP3   OH213136   3.449   1.303   0.922  0.7267 -0.2373  0.0012
 4377TIP3    H113137   3.402   1.226   0.954 -0.9392  0.5420 -0.4555
 4377TIP3    H213138   3.433   1.370   0.988 -2.5705  1.3259 -2.0939
 4378TIP3   OH213139   1.238   1.583   2.454  0.2209 -0.8093  0.5185
 4378TIP3    H113140   1.263   1.664   2.409  0.9323 -1.5338 -0.4392
 4378TIP3    H213141   1.144   1.573   2.436  0.2595 -0.5019  0.1385
 4379TIP3   OH213142   6.101   5.463   0.810  0.1469 -0.3944  0.0396
 4379TIP3    H113143   6.007   5.477   0.798  0.3675 -0.7107 -2.6884
 4379TIP3    H213144   6.108   5.412   0.890 -1.6975  2.6044  2.3265
 4380TIP3   OH213145   0.867   2.546   1.479  0.2527 -0.2200  0.2649
 4380TIP3    H113146   0.816   2.532   1.400  1.7630  4.4441 -1.8744
 4380TIP3    H213147   0.806   2.526   1.550 -2.1015 -1.8357 -2.0300
 4381TIP3   OH213148   4.644   2.689   3.217  0.3011 -0.2251 -0.0893
 4381TIP3    H113149   4.736   2.672   3.196  0.0590  0.0747 -1.4910
 4381TIP3    H213150   4.609   2.732   3.139 -1.0259 -0.3115  0.4314
 4382TIP3   OH213151   5.370   5.400   4.646 -0.2617 -0.4804  0.2236
 4382TIP3    H113152   5.364   5.429   4.555 -1.0383  0.3735  0.5346
 4382TIP3    H213153   5.459   5.367   4.655  0.3850  1.0486 -0.3761
 4383TIP3   OH213154   4.677   5.544   4.136  0.1635 -0.1720 -0.5676
 4383TIP3    H113155   4.587   5.519   4.115  0.1014 -0.6284  0.1795
 4383TIP3    H213156   4.717   5.463   4.169  0.5247  0.2834  0.1344
 4384TIP3   OH213157   2.270   0.378   4.204  0.6272 -0.4821  0.3645
 4384TIP3    H113158   2.294   0.308   4.264 -0.4734 -0.8896  0.3532
 4384TIP3    H213159   2.309   0.352   4.120  2.1002  0.0537  0.8661
 4385TIP3   OH213160   0.732   1.115   1.865  0.2432  0.2420  0.1447
 4385TIP3    H113161   0.703   1.133   1.954  0.1825 -0.7229  0.3293
 4385TIP3    H213162   0.819   1.155   1.859 -0.6173  2.1812 -0.0656
 4386TIP3   OH213163   6.038   4.508   1.754 -0.1538  0.0797 -0.1308
 4386TIP3    H113164   6.047   4.588   1.805 -0.5023  0.9884 -1.4361
 4386TIP3    H213165   6.007   4.538   1.668 -0.5645 -1.4820 -0.5546
 4387TIP3   OH213166   0.974   3.480   1.890  0.2880  0.1431 -0.2402
 4387TIP3    H113167   0.901   3.539   1.870 -0.5434 -0.6028  0.5179
 4387TIP3    H213168   1.020   3.523   1.963  0.4622  0.4737 -0.5360
 4388TIP3   OH213169   4.813   0.384   4.774  0.0243 -0.4282  0.1981
 4388TIP3    H113170   4.899   0.401   4.735  0.7715 -1.3688  1.3669
 4388TIP3    H213171   4.776   0.315   4.720 -0.7429  1.1034 -1.3176
 4389TIP3   OH213172   5.489   2.905   4.082  0.4032 -0.6595 -0.7058
 4389TIP3    H113173   5.409   2.927   4.033 -1.0627  0.6071  1.9752
 4389TIP3    H213174   5.486   2.810   4.091 -0.4808 -0.6953 -1.1722
 4390TIP3   OH213175   6.355   3.113   0.553 -0.2511  0.2276 -0.2914
 4390TIP3    H113176   6.323   3.032   0.593  0.5913  0.0020 -0.0456
 4390TIP3    H213177   6.337   3.181   0.618 -1.1955  0.2965 -0.6053
 4391TIP3   OH213178   5.014   5.000   1.904 -0.6908 -0.0046  0.2574
 4391TIP3    H113179   4.945   5.066   1.908  0.4840  1.4825 -1.9037
 4391TIP3    H213180   5.001   4.957   1.819  0.7845  0.0512 -0.0188
 4392TIP3   OH213181   4.608   1.807   4.494 -0.6927 -0.1213  0.0588
 4392TIP3    H113182   4.525   1.855   4.502  0.0046  0.9988  0.7871
 4392TIP3    H213183   4.596   1.729   4.549 -0.9133  0.5533  0.9908
 4393TIP3   OH213184   1.380   2.507   4.714  0.2255 -0.2140  0.2132
 4393TIP3    H113185   1.313   2.538   4.651  1.2867 -1.0125 -1.3747
 4393TIP3    H213186   1.417   2.588   4.750 -1.2059  0.2460  0.7085
 4394TIP3   OH213187   2.855   1.639   0.955 -0.2205 -0.2434 -0.3600
 4394TIP3    H113188   2.796   1.572   0.989 -1.1817  1.4806  1.5648
 4394TIP3    H213189   2.805   1.683   0.886  0.6840 -1.8663 -2.1715
 4395TIP3   OH213190   2.518   4.447   0.578 -0.5390  0.5191  0.3025
 4395TIP3    H113191   2.482   4.500   0.507 -0.7162 -0.0864 -0.0661
 4395TIP3    H213192   2.558   4.372   0.535 -1.1531 -0.1552  0.8646
 4396TIP3   OH213193   0.960   3.018   2.745 -0.1277  0.3645 -0.1386
 4396TIP3    H113194   1.030   3.023   2.680  0.4365 -0.9380  0.3332
 4396TIP3    H213195   0.966   3.101   2.793 -0.1528  1.0744 -1.3239
 4397TIP3   OH213196   5.511   0.856   2.727 -0.1478 -0.4795  0.7209
 4397TIP3    H113197   5.569   0.809   2.786 -0.6915 -0.5389  1.2268
 4397TIP3    H213198   5.471   0.924   2.782  1.7481  1.6075 -0.3208
 4398TIP3   OH213199   4.122   4.673   4.539 -0.2445 -0.2935  0.4636
 4398TIP3    H113200   4.189   4.719   4.589 -0.0251  0.9867 -0.9059
 4398TIP3    H213201   4.074   4.621   4.603  0.8022  0.3133  1.7717
 4399TIP3   OH213202   4.812   4.637   4.852 -0.7348 -0.3879  0.2603
 4399TIP3    H113203   4.748   4.609   4.787 -2.1525  0.1981  1.3589
 4399TIP3    H213204   4.839   4.724   4.823 -2.8436  0.7400  1.4085
 4400TIP3   OH213205   4.080   3.117   0.136 -0.3170 -0.0244  0.1656
 4400TIP3    H113206   4.145   3.157   0.078 -0.9976 -0.8427 -1.2148
 4400TIP3    H213207   4.128   3.049   0.183 -0.1378 -0.5938 -0.8141
 4401TIP3   OH213208   3.833   3.195   3.914  0.1832  0.4130 -0.0335
 4401TIP3    H113209   3.874   3.118   3.954  0.5781 -0.7524 -2.4930
 4401TIP3    H213210   3.905   3.252   3.890  0.1020  0.3153 -0.5400
 4402TIP3   OH213211   3.480   1.176   4.950  0.5123  0.1907 -0.2588
 4402TIP3    H113212   3.439   1.229   4.883  0.6543 -1.3123 -1.5957
 4402TIP3    H213213   3.408   1.126   4.989  0.6877 -0.4859 -0.7744
 4403TIP3   OH213214   6.241   3.546   1.468 -0.5121  0.4069  0.5228
 4403TIP3    H113215   6.211   3.463   1.505  1.1786 -0.4359  0.0582
 4403TIP3    H213216   6.161   3.587   1.434 -1.2490 -1.4633 -0.1238
 4404TIP3   OH213217   3.252   0.338   2.797 -1.0448 -0.0997  0.0005
 4404TIP3    H113218   3.251   0.383   2.713 -0.8938 -0.5027 -0.2233
 4404TIP3    H213219   3.291   0.401   2.858  0.2004 -0.3149 -0.5417
 4405TIP3   OH213220   5.005   1.760   1.103  0.2986  0.0394  0.4338
 4405TIP3    H113221   4.929   1.709   1.074 -0.7984  0.9781  1.5483
 4405TIP3    H213222   4.970   1.819   1.170  1.4568  2.4126 -0.9132
 4406TIP3   OH213223   2.341   3.475   2.920 -0.4233 -0.2960  0.0887
 4406TIP3    H113224   2.264   3.525   2.892 -1.2876 -1.1185  0.9353
 4406TIP3    H213225   2.367   3.426   2.843 -0.0121  0.8858 -0.5443
 4407TIP3   OH213226   1.955   4.799   0.875  0.5285  0.2975 -0.2746
 4407TIP3    H113227   1.867   4.781   0.843  0.2904 -1.6955  1.3062
 4407TIP3    H213228   1.943   4.870   0.939  0.4019  1.3807 -1.4652
 4408TIP3   OH213229   4.429   5.464   3.954  0.8908 -0.3435 -0.1367
 4408TIP3    H113230   4.496   5.401   3.929  1.0977 -0.1449 -0.0842
 4408TIP3    H213231   4.418   5.519   3.876 -2.0476 -2.7600 -1.6744
 4409TIP3   OH213232   3.936   2.641   2.162  0.2623 -0.1252 -0.1396
 4409TIP3    H113233   3.909   2.607   2.248  3.3009 -0.5066  0.7894
 4409TIP3    H213234   3.976   2.726   2.182 -0.5177  0.5950 -1.4697
 4410TIP3   OH213235   1.926   3.763   2.335 -0.3387 -0.5719 -0.0059
 4410TIP3    H113236   2.006   3.786   2.287 -0.9124 -1.1224 -1.2663
 4410TIP3    H213237   1.951   3.687   2.387  0.3396  0.1297  0.7156
 4411TIP3   OH213238   5.328   5.301   1.826 -0.4604  0.0794 -0.3069
 4411TIP3    H113239   5.321   5.322   1.733  0.5644  0.9238 -0.2213
 4411TIP3    H213240   5.313   5.206   1.831 -1.0827  0.1161 -1.2479
 4412TIP3   OH213241   3.001   1.861   4.091  0.0049 -0.1610  0.1690
 4412TIP3    H113242   3.064   1.822   4.031 -0.9366 -1.4010 -0.0533
 4412TIP3    H213243   3.045   1.861   4.176  1.0549  0.8941 -0.3520
 4413TIP3   OH213244   4.825   3.901   0.331 -0.2172  0.1863  0.3981
 4413TIP3    H113245   4.791   3.852   0.406  0.0998 -1.8089 -0.6825
 4413TIP3    H213246   4.832   3.991   0.362 -0.6540 -0.4701  2.5652
 4414TIP3   OH213247   1.797   0.826   3.822 -0.6397 -0.0868  0.1542
 4414TIP3    H113248   1.804   0.903   3.765  0.3684 -0.5043 -0.3184
 4414TIP3    H213249   1.797   0.752   3.762  1.3945 -0.5874  0.6789
 4415TIP3   OH213250   5.803   3.226   3.419 -0.0594  0.0243 -0.3651
 4415TIP3    H113251   5.827   3.154   3.477  0.7386 -0.0970 -0.8221
 4415TIP3    H213252   5.726   3.266   3.459 -0.3864 -0.9522  0.0045
 4416TIP3   OH213253   4.380   3.341   4.477 -0.0545 -0.4123  0.1905
 4416TIP3    H113254   4.293   3.300   4.473 -0.3804  0.0277  1.8464
 4416TIP3    H213255   4.402   3.341   4.570  0.8575  1.3027  0.0113
 4417TIP3   OH213256   5.756   5.917   4.312 -0.1633 -0.0099  0.1821
 4417TIP3    H113257   5.669   5.886   4.338 -0.5215  0.4220 -0.4806
 4417TIP3    H213258   5.816   5.847   4.340 -0.7120 -0.2838  0.6936
 4418TIP3   OH213259   4.552   4.090   3.651  0.0899 -0.2740  0.0081
 4418TIP3    H113260   4.564   3.995   3.650  0.3785 -0.2387  0.1428
 4418TIP3    H213261   4.576   4.118   3.563  1.2468 -0.1763  0.3372
 4419TIP3   OH213262   5.030   3.835   3.340 -0.2432 -0.1670  0.2568
 4419TIP3    H113263   5.015   3.758   3.395  0.1703 -0.0511  0.5384
 4419TIP3    H213264   5.052   3.905   3.402 -0.8246  0.2326  0.0187
 4420TIP3   OH213265   4.554   4.878   0.397 -0.0684 -0.5604 -0.1604
 4420TIP3    H113266   4.624   4.815   0.383 -0.3297 -1.4665  2.1517
 4420TIP3    H213267   4.484   4.849   0.339 -0.9210 -3.7301  2.1695
 4421TIP3   OH213268   4.518   4.228   1.157  0.6948  0.0849 -0.5015
 4421TIP3    H113269   4.508   4.135   1.137  0.8100  0.0785 -0.5354
 4421TIP3    H213270   4.465   4.243   1.235 -0.6399  0.3390 -1.4138
 4422TIP3   OH213271   5.346   0.461   2.901 -0.6022  0.4065  0.5277
 4422TIP3    H113272   5.256   0.491   2.893 -1.6908 -2.2844  1.6004
 4422TIP3    H213273   5.350   0.381   2.848  1.3518  0.7950 -0.0067
 4423TIP3   OH213274   5.789   5.691   3.476 -0.1962  0.0988  0.3444
 4423TIP3    H113275   5.820   5.782   3.471 -0.6075  0.3665  2.0111
 4423TIP3    H213276   5.840   5.653   3.547 -0.1065 -0.9624 -0.2755
 4424TIP3   OH213277   0.366   1.006   4.944 -0.3561 -0.3415 -0.3495
 4424TIP3    H113278   0.381   0.922   4.986  0.0498 -0.3548 -0.5149
 4424TIP3    H213279   0.376   0.989   4.851  0.2639 -0.0026 -0.3468
 4425TIP3   OH213280   5.637   0.310   2.202  0.3553  0.1795  0.1444
 4425TIP3    H113281   5.689   0.333   2.125 -0.1857 -1.2584 -0.6944
 4425TIP3    H213282   5.622   0.393   2.247  0.9100  1.0123 -1.1453
 4426TIP3   OH213283   4.961   1.041   2.620 -0.2834 -0.4096  0.0053
 4426TIP3    H113284   4.964   1.067   2.528 -0.2575  0.6811  0.3057
 4426TIP3    H213285   5.034   1.088   2.661 -0.9989  0.0207  0.8033
 4427TIP3   OH213286   4.063   1.229   5.014  0.0956  0.0134  0.2432
 4427TIP3    H113287   4.140   1.223   4.958  0.7465 -1.1724  1.2128
 4427TIP3    H213288   4.004   1.161   4.983 -0.6910  1.0540 -0.6318
 4428TIP3   OH213289   6.227   4.129   0.129 -0.7314 -0.4281 -0.4686
 4428TIP3    H113290   6.207   4.161   0.041  0.8527 -0.4364 -0.8659
 4428TIP3    H213291   6.165   4.174   0.186  0.0783  1.7978 -1.2411
 4429TIP3   OH213292   1.688   5.130   4.088  0.8087 -0.0188  0.9003
 4429TIP3    H113293   1.764   5.092   4.043  1.7306  1.8433  0.7470
 4429TIP3    H213294   1.727   5.188   4.154 -0.4190  1.9064  0.0140
 4430TIP3   OH213295   4.557   4.263   2.059 -1.1783 -0.2735  0.0161
 4430TIP3    H113296   4.629   4.264   2.122 -0.8429 -0.6045 -0.3621
 4430TIP3    H213297   4.573   4.338   2.002  0.0505 -1.5348 -1.3809
 4431TIP3   OH213298   4.115   5.358   3.460 -0.3695 -0.4039 -0.0450
 4431TIP3    H113299   4.177   5.417   3.416  0.4649 -0.6318  0.7926
 4431TIP3    H213300   4.050   5.415   3.499 -0.7045 -0.1583 -0.9409
 4432TIP3   OH213301   2.524   2.400   0.690 -0.1520  0.0380 -0.1169
 4432TIP3    H113302   2.573   2.336   0.639  0.0860 -0.4127  0.6581
 4432TIP3    H213303   2.533   2.370   0.781 -0.9166  0.5815  0.1480
 4433TIP3   OH213304   0.169   4.191   0.800  0.5758  0.0564  0.3045
 4433TIP3    H113305   0.255   4.192   0.758  0.4233  0.0500 -0.0099
 4433TIP3    H213306   0.107   4.205   0.729  0.2506 -1.0331  0.3538
 4434TIP3   OH213307   0.863   1.281   1.205  0.5000  0.5624 -0.2645
 4434TIP3    H113308   0.809   1.291   1.126 -0.5238 -0.3699  0.2891
 4434TIP3    H213309   0.931   1.348   1.196 -1.0829  2.2044 -0.7101
 4435TIP3   OH213310   4.588   1.620   4.693  0.2039  0.1959  0.0576
 4435TIP3    H113311   4.503   1.580   4.708 -0.5347  1.4581 -0.5487
 4435TIP3    H213312   4.602   1.678   4.768  1.2363 -1.0921  0.9016
 4436TIP3   OH213313   5.980   4.335   5.049 -0.0900 -0.1976 -0.3085
 4436TIP3    H113314   6.006   4.260   4.996 -0.1384  0.0481 -0.6854
 4436TIP3    H213315   5.919   4.300   5.113 -0.4194 -0.4075 -0.7382
 4437TIP3   OH213316   4.187   2.678   4.263  0.5673  0.0336 -0.0995
 4437TIP3    H113317   4.170   2.772   4.261  0.2881 -0.0209 -0.4349
 4437TIP3    H213318   4.253   2.663   4.195 -0.3897 -0.1969 -1.0047
 4438TIP3   OH213319   1.842   5.632   3.807  0.4750 -0.0046  0.3323
 4438TIP3    H113320   1.775   5.691   3.842  1.5129  0.1675  2.1164
 4438TIP3    H213321   1.811   5.612   3.718 -1.2241  1.1493  0.6052
 4439TIP3   OH213322   4.457   1.191   4.048  0.0310 -0.3878  0.2979
 4439TIP3    H113323   4.523   1.248   4.088  0.2091 -0.3160 -0.1004
 4439TIP3    H213324   4.481   1.103   4.078  1.8288 -0.7001 -1.8513
 4440TIP3   OH213325   5.680   2.763   0.664 -0.2925  0.0382  0.7657
 4440TIP3    H113326   5.771   2.791   0.652 -0.7776  0.5548 -3.2031
 4440TIP3    H213327   5.684   2.668   0.671  0.5918  0.1586  2.3011
 4441TIP3   OH213328   4.827   1.951   0.243 -0.3597  0.0895  0.1754
 4441TIP3    H113329   4.803   2.042   0.265  0.3561  0.2692  0.2466
 4441TIP3    H213330   4.913   1.940   0.283  0.0021 -0.2975 -0.7127
 4442TIP3   OH213331   3.115   4.930   0.566 -0.3213  0.1438 -0.0311
 4442TIP3    H113332   3.173   5.004   0.553  0.9147 -0.7296  0.3705
 4442TIP3    H213333   3.173   4.854   0.571 -1.5084 -0.7840  0.1461
 4443TIP3   OH213334   2.944   5.075   3.172  0.6769 -0.0822  0.0383
 4443TIP3    H113335   3.015   5.110   3.118  0.0823 -0.4859 -1.0199
 4443TIP3    H213336   2.869   5.131   3.151  0.7581  0.6244  1.4788
 4444TIP3   OH213337   1.589   4.636   4.163  0.1840  0.2298 -0.0941
 4444TIP3    H113338   1.623   4.636   4.252 -1.5378  2.1760  0.6372
 4444TIP3    H213339   1.617   4.552   4.127  2.8334  0.3237  1.4889
 4445TIP3   OH213340   4.067   1.247   2.008 -0.1587  0.2427 -0.8113
 4445TIP3    H113341   4.009   1.201   2.069 -0.8605  0.6514 -1.1539
 4445TIP3    H213342   4.084   1.331   2.050  0.7820 -0.1536 -0.3795
 4446TIP3   OH213343   2.114   2.451   2.073 -0.4683 -0.3118 -0.2378
 4446TIP3    H113344   2.088   2.404   2.152 -0.0510 -0.9103 -0.4406
 4446TIP3    H213345   2.127   2.382   2.008  1.2107 -0.0409 -0.2579
 4447TIP3   OH213346   1.698   2.490   3.094 -0.5265  0.1842  0.5462
 4447TIP3    H113347   1.720   2.400   3.068  0.6758  0.9012 -1.1409
 4447TIP3    H213348   1.783   2.530   3.115 -0.4503  1.9790 -2.5310
 4448TIP3   OH213349   3.383   4.467   2.968 -0.0347 -0.5198 -0.0718
 4448TIP3    H113350   3.302   4.420   2.948 -1.1938  0.9267  1.0131
 4448TIP3    H213351   3.409   4.435   3.054 -1.1462  1.1256  0.9366
 4449TIP3   OH213352   0.309   2.870   4.667 -0.2571 -0.1296  0.4325
 4449TIP3    H113353   0.223   2.853   4.707  0.6875 -1.9612  1.8286
 4449TIP3    H213354   0.370   2.870   4.741  1.2001 -0.8151 -0.7435
 4450TIP3   OH213355   6.210   3.305   4.000 -0.2558 -0.1894  0.1551
 4450TIP3    H113356   6.136   3.351   4.041  1.7099  2.0655  1.3829
 4450TIP3    H213357   6.243   3.247   4.068 -0.0055 -0.1168  0.0960
 4451TIP3   OH213358   3.041   3.245   0.301 -0.6657  0.5712 -0.2521
 4451TIP3    H113359   3.000   3.324   0.335 -0.8334  0.4102 -0.0787
 4451TIP3    H213360   2.969   3.185   0.285 -0.5102  0.3224 -0.0353
 4452TIP3   OH213361   1.560   2.933   3.424 -0.6048  0.1514 -0.0058
 4452TIP3    H113362   1.556   2.976   3.339 -2.2213 -0.9708 -0.5453
 4452TIP3    H213363   1.482   2.878   3.427 -0.6584  0.2375  2.2597
 4453TIP3   OH213364   3.273   3.295   0.507  0.3569 -0.0957 -0.0187
 4453TIP3    H113365   3.359   3.337   0.499 -0.2549  1.1810 -0.1083
 4453TIP3    H213366   3.255   3.261   0.420  0.8478 -0.5464  0.0478
 4454TIP3   OH213367   0.852   5.308   1.389 -0.1326 -0.0161  0.0175
 4454TIP3    H113368   0.843   5.265   1.474 -0.9902  0.3644  0.1264
 4454TIP3    H213369   0.820   5.396   1.404 -0.7340 -0.0906 -0.8229
 4455TIP3   OH213370   0.461   4.971   4.571  0.1178  0.1332 -0.3227
 4455TIP3    H113371   0.545   4.951   4.530  0.4022 -0.3311  0.4760
 4455TIP3    H213372   0.473   4.952   4.663 -0.6890  0.6346 -0.0944
 4456TIP3   OH213373   5.751   1.097   1.284  0.7880  0.2772 -0.2247
 4456TIP3    H113374   5.799   1.160   1.337  1.9214 -0.3948 -0.4205
 4456TIP3    H213375   5.819   1.040   1.248 -0.3032 -3.3111  2.7489
 4457TIP3   OH213376   1.225   5.050   1.947 -0.0977  0.0685  0.6868
 4457TIP3    H113377   1.154   5.111   1.927  0.3423  0.0513 -1.1014
 4457TIP3    H213378   1.255   5.075   2.035 -0.4087  1.9617  0.2883
 4458TIP3   OH213379   1.826   0.135   4.721 -0.1577 -0.4991  0.1647
 4458TIP3    H113380   1.808   0.151   4.813 -0.8234  0.1327 -0.0721
 4458TIP3    H213381   1.787   0.209   4.675  1.1864 -0.1822 -0.5393
 4459TIP3   OH213382   4.616   0.113   2.147 -0.1757  0.0397  0.2169
 4459TIP3    H113383   4.630   0.165   2.067  1.4042  0.9155  1.0178
 4459TIP3    H213384   4.684   0.046   2.144  0.1593  0.3302  1.0027
 4460TIP3   OH213385   3.730   1.110   3.595 -0.0286  0.1601 -0.8310
 4460TIP3    H113386   3.654   1.087   3.649 -0.6273 -0.8497 -2.0579
 4460TIP3    H213387   3.791   1.038   3.608  0.3083  0.4747 -0.6426
 4461TIP3   OH213388   1.496   4.785   0.038 -0.0531  0.1986  0.6051
 4461TIP3    H113389   1.515   4.692   0.027 -1.7195 -0.0596 -0.4805
 4461TIP3    H213390   1.469   4.793   0.130 -0.8784 -0.5993  0.4502
 4462TIP3   OH213391   3.984   1.306   4.574  0.3603  0.2000  1.0348
 4462TIP3    H113392   4.069   1.262   4.567 -0.3666 -1.2676  1.0349
 4462TIP3    H213393   3.921   1.234   4.586 -0.6701  1.3581  3.0177
 4463TIP3   OH213394   4.295   0.401   3.559  0.0183  0.4011 -0.4987
 4463TIP3    H113395   4.321   0.434   3.473  0.6513 -1.0865 -0.9094
 4463TIP3    H213396   4.200   0.390   3.552 -0.0548  1.0913 -0.7038
 4464TIP3   OH213397   3.285   0.374   4.800  0.0368 -0.1985  0.2172
 4464TIP3    H113398   3.247   0.384   4.713 -1.7797 -0.7921  0.8759
 4464TIP3    H213399   3.244   0.294   4.834 -0.0035  0.5095  1.9389
 4465TIP3   OH213400   4.124   3.292   1.974 -0.2533 -1.1697  0.6575
 4465TIP3    H113401   4.058   3.248   2.027 -0.6419 -2.8785 -1.1537
 4465TIP3    H213402   4.102   3.270   1.884  2.7329 -1.7548 -0.0550
 4466TIP3   OH213403   3.246   3.460   1.585  0.2523  0.1384  0.4027
 4466TIP3    H113404   3.266   3.550   1.560 -2.3581  1.3214  2.1928
 4466TIP3    H213405   3.272   3.454   1.677  1.3801 -1.3239  0.0246
 4467TIP3   OH213406   5.940   3.423   3.279  0.0155 -0.1224 -0.2724
 4467TIP3    H113407   6.013   3.378   3.238 -0.8867 -1.2080 -0.7570
 4467TIP3    H213408   5.899   3.356   3.335  1.5516  1.4454  2.9552
 4468TIP3   OH213409   2.647   3.533   0.778  0.4400 -0.6801 -0.1454
 4468TIP3    H113410   2.638   3.624   0.806 -0.7939 -0.6891 -0.4906
 4468TIP3    H213411   2.558   3.500   0.773  0.8558 -1.8236 -0.3457
 4469TIP3   OH213412   3.705   4.214   0.331 -0.1126  0.2284  0.1407
 4469TIP3    H113413   3.721   4.153   0.259  2.1388  0.4360  0.3778
 4469TIP3    H213414   3.613   4.238   0.323 -0.0614 -0.1202 -2.3845
 4470TIP3   OH213415   0.120   3.326   3.156 -0.4893 -0.0176 -0.2978
 4470TIP3    H113416   0.196   3.369   3.118 -0.7896 -0.1695 -1.0764
 4470TIP3    H213417   0.067   3.397   3.191 -0.0371  0.0950  0.1825
 4471TIP3   OH213418   5.091   3.788   4.571  0.1658 -0.2720 -0.1363
 4471TIP3    H113419   5.185   3.768   4.563 -0.2050 -1.7717 -1.1065
 4471TIP3    H213420   5.047   3.710   4.538 -1.4384  0.6512 -0.2679
 4472TIP3   OH213421   4.959   3.952   0.101  0.1240 -0.0059  0.0582
 4472TIP3    H113422   4.945   3.969   0.194  1.9812 -0.9757  0.5696
 4472TIP3    H213423   5.028   3.886   0.099  1.2076  1.1001 -2.0460
 4473TIP3   OH213424   2.537   4.226   2.033 -0.6548 -0.3262 -0.2352
 4473TIP3    H113425   2.475   4.154   2.042 -1.9550  0.8039  0.3229
 4473TIP3    H213426   2.512   4.288   2.102  1.4674 -0.0662  0.3726
 4474TIP3   OH213427   3.382   2.544   2.736  0.1696  0.3857  0.1550
 4474TIP3    H113428   3.357   2.454   2.757 -0.2177  0.6797  0.9952
 4474TIP3    H213429   3.356   2.555   2.644  1.6786 -0.8444 -0.4570
 4475TIP3   OH213430   2.139   1.282   1.253  0.0869 -0.6695  0.3092
 4475TIP3    H113431   2.114   1.221   1.184  1.7522 -1.1627  0.0864
 4475TIP3    H213432   2.152   1.365   1.208 -0.6300 -0.5340  0.3462
 4476TIP3   OH213433   0.378   0.659   0.962 -0.7028 -0.4573  0.6901
 4476TIP3    H113434   0.299   0.680   0.913 -1.0386  0.4912  1.6132
 4476TIP3    H213435   0.351   0.590   1.023 -0.2498 -1.7434 -0.5147
 4477TIP3   OH213436   4.438   5.556   1.410  0.3513  0.0752  0.0742
 4477TIP3    H113437   4.407   5.589   1.326  2.3536 -0.3115 -0.8731
 4477TIP3    H213438   4.471   5.634   1.456 -2.4535  0.6048  1.3809
 4478TIP3   OH213439   1.046   4.736   3.500 -0.1537  0.3057  0.1798
 4478TIP3    H113440   1.059   4.678   3.426  0.0754  0.7612 -0.1407
 4478TIP3    H213441   1.013   4.817   3.462  0.2132  0.6313  0.5491
 4479TIP3   OH213442   6.122   5.537   3.868  0.4820  0.4401  0.2612
 4479TIP3    H113443   6.206   5.583   3.869  1.3864 -1.0574 -1.3132
 4479TIP3    H213444   6.127   5.475   3.941  1.2407 -0.4079 -0.4838
 4480TIP3   OH213445   2.315   5.362   1.924 -0.3200 -0.0277 -0.1351
 4480TIP3    H113446   2.372   5.287   1.904  0.5176  0.5963 -0.1268
 4480TIP3    H213447   2.286   5.394   1.839  2.5054  2.0557 -0.4592
 4481TIP3   OH213448   0.253   5.503   1.032 -0.1242  0.4292  0.1595
 4481TIP3    H113449   0.173   5.556   1.023 -0.2597  0.1390 -0.3992
 4481TIP3    H213450   0.320   5.555   0.987  0.1332  0.9368  1.1113
 4482TIP3   OH213451   4.498   2.355   3.980 -0.9298 -0.1992  0.2189
 4482TIP3    H113452   4.444   2.393   3.910 -4.1445  1.0425  3.0711
 4482TIP3    H213453   4.507   2.263   3.955  1.1214  0.7862 -3.4506
 4483TIP3   OH213454   4.429   4.806   3.681  0.1280  0.0103 -0.4371
 4483TIP3    H113455   4.345   4.775   3.646  0.3631  0.5666 -1.5230
 4483TIP3    H213456   4.406   4.851   3.762 -0.6504  0.3265 -0.8247
 4484TIP3   OH213457   6.084   4.141   3.533 -0.1114 -0.2781  0.1119
 4484TIP3    H113458   6.076   4.118   3.440 -1.8417  0.5962  0.0066
 4484TIP3    H213459   6.101   4.057   3.576  2.3102 -0.5076 -1.1014
 4485TIP3   OH213460   5.485   0.129   1.411  0.0673  0.3635  0.0957
 4485TIP3    H113461   5.556   0.071   1.439 -1.8971 -2.2692  0.0249
 4485TIP3    H213462   5.426   0.133   1.486 -1.6261 -0.7661 -1.0985
 4486TIP3   OH213463   1.448   2.022   1.967  0.0826  0.1883  0.3807
 4486TIP3    H113464   1.512   1.951   1.973 -0.7053 -0.6019 -0.2690
 4486TIP3    H213465   1.404   2.022   2.052 -1.0632 -1.2474 -0.1773
 4487TIP3   OH213466   0.626   2.912   4.304 -0.1728 -0.3408  0.0429
 4487TIP3    H113467   0.545   2.962   4.316  0.0577 -0.0537  0.4236
 4487TIP3    H213468   0.693   2.979   4.293  0.3501 -0.5267  1.8724
 4488TIP3   OH213469   4.993   4.760   2.685  0.6591  0.1164 -0.5626
 4488TIP3    H113470   4.914   4.711   2.664  0.4359  0.0043  0.5007
 4488TIP3    H213471   5.019   4.728   2.771  2.0613 -0.0957 -1.0404
 4489TIP3   OH213472   3.731   0.628   1.636  0.0037  0.3941  0.3979
 4489TIP3    H113473   3.651   0.601   1.589 -0.1073  0.8955  0.2911
 4489TIP3    H213474   3.799   0.570   1.602 -0.3993 -0.3491  0.8230
 4490TIP3   OH213475   4.171   2.494   2.143  0.5246  0.6392 -0.6018
 4490TIP3    H113476   4.108   2.566   2.144 -0.6081 -0.3147 -1.1154
 4490TIP3    H213477   4.121   2.418   2.112  1.5943 -0.4598  0.2318
 4491TIP3   OH213478   5.353   4.174   2.848 -0.5272 -0.0331 -0.2815
 4491TIP3    H113479   5.292   4.126   2.905  0.6235 -2.6595 -1.1223
 4491TIP3    H213480   5.368   4.116   2.774  1.5896  1.3020 -0.9981
 4492TIP3   OH213481   0.805   4.805   1.071 -0.1232 -0.6249  0.1812
 4492TIP3    H113482   0.824   4.711   1.077 -2.0770 -0.9999  1.1835
 4492TIP3    H213483   0.711   4.810   1.055  0.2275  1.1743 -1.7864
 4493TIP3   OH213484   1.794   5.252   3.527 -0.2664  0.6087  0.2288
 4493TIP3    H113485   1.841   5.233   3.608  0.4233 -3.9899 -0.9839
 4493TIP3    H213486   1.862   5.283   3.467 -0.1574  0.8095  0.4538
 4494TIP3   OH213487   2.713   3.171   0.761 -0.8680  0.1687  0.1059
 4494TIP3    H113488   2.769   3.096   0.783  0.1651  0.6211 -0.9329
 4494TIP3    H213489   2.737   3.238   0.824 -0.4443  0.2678 -0.1628
 4495TIP3   OH213490   4.625   1.723   4.072 -0.5690 -0.2684  0.0313
 4495TIP3    H113491   4.567   1.646   4.072 -0.6713 -0.2220  1.4947
 4495TIP3    H213492   4.591   1.778   4.143  0.2385  0.5659 -0.2154
 4496TIP3   OH213493   0.130   2.410   1.223  0.4504 -0.0721  0.3484
 4496TIP3    H113494   0.058   2.415   1.286 -1.3557 -0.9479 -1.5053
 4496TIP3    H213495   0.154   2.501   1.205 -0.3672  0.2479  0.8292
 4497TIP3   OH213496   0.130   3.737   4.519  0.4266  0.3902 -0.0823
 4497TIP3    H113497   0.140   3.686   4.600  3.5205 -0.5058 -0.8985
 4497TIP3    H213498   0.193   3.697   4.458 -1.8219  0.9674 -3.0067
 4498TIP3   OH213499   1.145   0.450   4.505 -0.0030  0.1174 -0.3015
 4498TIP3    H113500   1.184   0.364   4.488 -0.2092  0.0384 -0.3872
 4498TIP3    H213501   1.209   0.513   4.473  0.4554  0.0087  0.4008
 4499TIP3   OH213502   0.346   2.079   0.529  0.3215 -0.1060  0.0845
 4499TIP3    H113503   0.296   1.997   0.536 -2.0770  1.4000  1.8959
 4499TIP3    H213504   0.378   2.096   0.618  2.5782 -0.0168 -0.6595
 4500TIP3   OH213505   0.414   5.040   3.361  0.2353  0.3153 -0.1576
 4500TIP3    H113506   0.460   5.033   3.444 -0.3567 -1.1962  0.0657
 4500TIP3    H213507   0.454   5.116   3.318  0.0888  1.5444  1.7673
 4501TIP3   OH213508   2.221   4.356   1.117 -0.6564 -0.1391 -1.0910
 4501TIP3    H113509   2.243   4.288   1.054  0.3800 -0.2765 -0.6089
 4501TIP3    H213510   2.238   4.316   1.202 -3.1800 -0.3706 -0.6072
 4502TIP3   OH213511   6.033   5.840   2.081 -0.8645  0.2108 -0.3198
 4502TIP3    H113512   6.011   5.753   2.049 -0.7197 -0.3589  1.0354
 4502TIP3    H213513   6.009   5.838   2.174  1.4063  0.7835  0.3576
 4503TIP3   OH213514   1.212   2.606   4.485  0.2196 -0.1911  0.1228
 4503TIP3    H113515   1.172   2.680   4.532  1.7148  0.5975  0.2263
 4503TIP3    H213516   1.268   2.647   4.419  0.3044 -1.2612 -0.4922
 4504TIP3   OH213517   0.152   5.564   4.838 -0.0404 -0.6678  0.0838
 4504TIP3    H113518   0.210   5.494   4.809  0.0827 -0.1830 -0.8987
 4504TIP3    H213519   0.064   5.529   4.823 -0.0084 -1.0969  0.8267
 4505TIP3   OH213520   5.739   5.405   2.375  0.7354  0.0520  0.2567
 4505TIP3    H113521   5.824   5.370   2.347 -0.9396 -2.4212 -2.2595
 4505TIP3    H213522   5.724   5.364   2.460  1.5230 -0.4709  0.1625
 4506TIP3   OH213523   3.808   5.645   4.844 -0.2077  0.5301 -0.2634
 4506TIP3    H113524   3.779   5.599   4.923 -1.8239 -0.5931 -1.4431
 4506TIP3    H213525   3.894   5.681   4.868  0.1982 -1.3323  1.4229
 4507TIP3   OH213526   2.218   2.183   1.076  0.1644 -0.5768  0.1654
 4507TIP3    H113527   2.169   2.106   1.104 -1.4063  0.1304 -0.5600
 4507TIP3    H213528   2.245   2.226   1.158 -1.0130 -0.6229  0.5851
 4508TIP3   OH213529   5.993   4.592   4.648 -0.5600  0.0825 -0.8758
 4508TIP3    H113530   6.007   4.603   4.554  1.0487  2.5430 -0.4228
 4508TIP3    H213531   5.981   4.497   4.659 -0.4542 -0.3068 -3.4934
 4509TIP3   OH213532   5.907   1.302   0.227  0.1161 -0.0905 -0.7156
 4509TIP3    H113533   5.899   1.224   0.282  1.6497  0.5429  0.4762
 4509TIP3    H213534   5.913   1.268   0.138 -1.5223 -1.1879 -0.4557
 4510TIP3   OH213535   2.606   4.072   4.063  0.1979  0.6683 -0.1125
 4510TIP3    H113536   2.587   3.984   4.093  0.7484  0.6151  0.0905
 4510TIP3    H213537   2.653   4.060   3.980 -2.6195  0.8324 -1.8590
 4511TIP3   OH213538   6.348   5.858   0.084 -0.3028  0.4687  0.5552
 4511TIP3    H113539   6.372   5.765   0.079 -0.1105  0.5939 -2.3045
 4511TIP3    H213540   6.252   5.858   0.082 -0.2999  0.3372 -1.7743
 4512TIP3   OH213541   1.974   3.083   0.395  0.1351  0.7618  0.0585
 4512TIP3    H113542   1.888   3.086   0.436 -1.2926  0.2057 -2.6582
 4512TIP3    H213543   2.004   2.993   0.407 -0.5540  0.4357 -0.5870
 4513TIP3   OH213544   3.673   4.161   4.066  0.1047 -0.5164  0.1049
 4513TIP3    H113545   3.666   4.223   4.138  0.0771  0.1611 -0.4647
 4513TIP3    H213546   3.760   4.176   4.029 -0.3600  0.0395 -0.7885
 4514TIP3   OH213547   6.055   5.774   3.328 -0.0680 -0.6067  0.7527
 4514TIP3    H113548   6.004   5.759   3.249  0.8791  1.2882 -0.3103
 4514TIP3    H213549   6.006   5.842   3.375 -0.7171 -1.8448  1.9262
 4515TIP3   OH213550   2.671   0.755   3.369  0.3016  0.3547 -0.6192
 4515TIP3    H113551   2.717   0.681   3.409 -0.7710 -0.9708 -1.7140
 4515TIP3    H213552   2.680   0.740   3.274  0.1158  1.6704 -0.8573
 4516TIP3   OH213553   4.109   3.752   2.494 -0.0985  0.8788 -0.3766
 4516TIP3    H113554   4.035   3.812   2.505  0.7968  2.1592 -1.0745
 4516TIP3    H213555   4.152   3.751   2.580 -2.1484 -1.6593  0.7395
 4517TIP3   OH213556   5.402   5.489   4.391  0.2350  0.0396 -0.9594
 4517TIP3    H113557   5.486   5.515   4.354  0.0265 -2.9965 -4.0406
 4517TIP3    H213558   5.344   5.482   4.315 -1.9992 -0.7968  0.7183
 4518TIP3   OH213559   1.329   1.300   0.622 -0.2416 -0.2570  0.4748
 4518TIP3    H113560   1.244   1.276   0.658  0.1677 -1.7818  0.5166
 4518TIP3    H213561   1.318   1.292   0.527 -0.6074  1.2336  0.3788
 4519TIP3   OH213562   2.909   4.108   2.047 -0.3653 -0.0996 -0.1244
 4519TIP3    H113563   2.842   4.046   2.021  0.3506 -0.8196 -0.2935
 4519TIP3    H213564   2.986   4.083   1.996  0.6473 -0.5991  1.5704
 4520TIP3   OH213565   5.714   4.663   0.370  0.2281  0.5457  0.3308
 4520TIP3    H113566   5.732   4.571   0.347  0.2217  0.7937 -0.7270
 4520TIP3    H213567   5.797   4.695   0.406  0.7446  0.5574 -0.7974
 4521TIP3   OH213568   5.644   1.382   3.469 -0.7534 -0.2438 -0.2677
 4521TIP3    H113569   5.656   1.476   3.454 -1.1193 -0.5618 -3.1479
 4521TIP3    H213570   5.731   1.349   3.490 -0.5379  0.6506  0.2862
 4522TIP3   OH213571   6.166   2.071   4.948  0.4999 -0.3451  0.1667
 4522TIP3    H113572   6.098   2.127   4.986  1.4181  0.8965  0.0366
 4522TIP3    H213573   6.213   2.034   5.023 -1.1854 -2.3975  0.3036
 4523TIP3   OH213574   6.278   1.063   1.248  0.3385  0.4969  0.1681
 4523TIP3    H113575   6.363   1.108   1.251  0.7626 -0.2662 -0.0859
 4523TIP3    H213576   6.299   0.976   1.214 -0.5433  0.2828  0.1652
 4524TIP3   OH213577   0.396   1.265   5.071 -0.1238 -0.3322  0.3243
 4524TIP3    H113578   0.365   1.175   5.071  1.0611 -0.7902  1.8812
 4524TIP3    H213579   0.473   1.264   5.128 -0.2761  1.7264  0.6569
 4525TIP3   OH213580   3.553   1.433   1.449  0.3331  0.6320  0.0656
 4525TIP3    H113581   3.617   1.411   1.380  0.8230  0.4400  0.5709
 4525TIP3    H213582   3.538   1.349   1.494 -2.0156  0.1519 -1.4502
 4526TIP3   OH213583   1.656   5.356   2.244  0.1759  0.4810 -0.0246
 4526TIP3    H113584   1.725   5.325   2.303 -0.0732  0.9649  0.5294
 4526TIP3    H213585   1.624   5.436   2.285 -0.3316  0.5613 -0.5734
 4527TIP3   OH213586   0.498   3.571   3.896  0.3650 -0.4748  0.5615
 4527TIP3    H113587   0.550   3.581   3.816  2.9403 -0.6916  2.1032
 4527TIP3    H213588   0.414   3.535   3.866  0.3985  1.4797 -2.2376
 4528TIP3   OH213589   6.046   5.094   4.556  0.3054 -0.1447 -0.5385
 4528TIP3    H113590   6.125   5.064   4.601  0.9448  3.1930  0.8552
 4528TIP3    H213591   5.980   5.098   4.626 -0.0017  0.7477 -0.8766
 4529TIP3   OH213592   4.123   1.798   1.885  0.9699 -0.4411 -0.1210
 4529TIP3    H113593   4.191   1.775   1.822  0.1592  0.5606 -1.4302
 4529TIP3    H213594   4.051   1.738   1.866  0.0806  0.9349 -1.3646
 4530TIP3   OH213595   1.416   0.669   1.403  0.2136 -0.2846  0.0341
 4530TIP3    H113596   1.348   0.666   1.471 -0.5171  0.7615 -0.6131
 4530TIP3    H213597   1.496   0.689   1.450 -0.6237  2.5619  0.4187
 4531TIP3   OH213598   0.897   5.033   2.016 -0.3836 -0.1499  0.1061
 4531TIP3    H113599   0.957   5.050   2.089 -0.6632  0.9255  0.1140
 4531TIP3    H213600   0.867   5.120   1.990  0.6031 -0.3688 -2.0492
 4532TIP3   OH213601   0.101   0.248   0.835 -0.0497 -0.7465 -0.0649
 4532TIP3    H113602   0.147   0.193   0.772  0.2196  2.1560 -2.6795
 4532TIP3    H213603   0.009   0.229   0.821  0.0537 -0.8507 -0.6175
 4533TIP3   OH213604   0.420   4.790   2.671 -0.2683 -0.4738  0.2110
 4533TIP3    H113605   0.352   4.742   2.624  0.3752 -0.2327 -1.0132
 4533TIP3    H213606   0.434   4.869   2.619  1.3411 -0.7873  0.1170
 4534TIP3   OH213607   6.330   5.525   1.980 -0.2432  0.0064 -0.5678
 4534TIP3    H113608   6.255   5.497   2.033  0.4461 -0.7221  0.0418
 4534TIP3    H213609   6.338   5.457   1.913  0.3825 -0.3678 -0.1214
 4535TIP3   OH213610   4.622   2.281   2.193  0.8194  0.0036 -0.0461
 4535TIP3    H113611   4.543   2.253   2.146  1.8084 -1.4058 -0.9650
 4535TIP3    H213612   4.611   2.375   2.205 -1.4877 -0.3290  0.8490
 4536TIP3   OH213613   5.902   0.648   1.295  0.1161  0.1173 -0.4980
 4536TIP3    H113614   5.973   0.590   1.319 -1.6345 -2.0081 -0.1284
 4536TIP3    H213615   5.861   0.673   1.378  1.8283  3.4151 -0.4705
 4537TIP3   OH213616   0.679   4.135   4.357 -0.0496  0.6434  0.1400
 4537TIP3    H113617   0.620   4.068   4.326  2.6667 -1.3484 -1.1273
 4537TIP3    H213618   0.720   4.097   4.435  2.5285  0.1138 -1.3708
 4538TIP3   OH213619   5.448   0.295   1.851 -0.7072 -0.7004  0.0126
 4538TIP3    H113620   5.484   0.208   1.871  0.3029 -0.5847 -1.1835
 4538TIP3    H213621   5.512   0.356   1.886 -0.9737 -0.4430  0.0578
 4539TIP3   OH213622   4.355   2.983   2.253  0.6327  0.3050 -0.5615
 4539TIP3    H113623   4.403   2.998   2.334 -0.6875  0.2028  0.2770
 4539TIP3    H213624   4.306   3.064   2.239 -0.9050 -0.4855  0.0148
 4540TIP3   OH213625   1.395   0.462   0.244  0.3356  0.5725 -0.0233
 4540TIP3    H113626   1.347   0.385   0.212  0.7965  0.0373  0.5693
 4540TIP3    H213627   1.468   0.426   0.293 -0.0617  1.3898  1.2052
 4541TIP3   OH213628   5.603   5.362   3.125 -0.9468  0.2223 -0.2946
 4541TIP3    H113629   5.543   5.287   3.131  0.5172 -0.8681  1.8431
 4541TIP3    H213630   5.648   5.365   3.209 -0.3960  3.1005 -0.5805
 4542TIP3   OH213631   5.015   3.643   3.736  0.0800  0.4094  0.2466
 4542TIP3    H113632   5.093   3.587   3.735  0.4378  0.8771  0.8659
 4542TIP3    H213633   4.986   3.645   3.645  0.8020  0.2408  0.0032
 4543TIP3   OH213634   0.420   5.247   3.949  0.0910  0.0240  0.1223
 4543TIP3    H113635   0.464   5.295   3.879  0.8778  0.3479  0.8173
 4543TIP3    H213636   0.346   5.205   3.906  0.8908 -0.2732 -1.0242
 4544TIP3   OH213637   4.310   2.103   3.991 -0.0173 -0.2429  0.3177
 4544TIP3    H113638   4.218   2.099   4.016 -0.2827 -2.0122 -0.7507
 4544TIP3    H213639   4.356   2.059   4.063 -0.2059 -0.7831  0.1150
 4545TIP3   OH213640   1.521   0.368   0.655 -0.2164 -0.6317  0.4827
 4545TIP3    H113641   1.485   0.451   0.687  0.2883 -0.4922  0.7054
 4545TIP3    H213642   1.446   0.320   0.620 -0.5008 -0.0471  0.2826
 4546TIP3   OH213643   6.005   0.835   0.524  0.1936 -0.3712  0.0082
 4546TIP3    H113644   5.953   0.824   0.603  0.5126 -2.0986  0.0188
 4546TIP3    H213645   5.977   0.764   0.467 -0.3769  1.1158 -1.6685
 4547TIP3   OH213646   5.420   4.069   2.606 -0.5416 -0.5745 -0.0621
 4547TIP3    H113647   5.512   4.090   2.586 -1.0409  0.8887 -1.0521
 4547TIP3    H213648   5.396   4.003   2.541 -0.1758 -1.0071  0.2385
 4548TIP3   OH213649   0.201   3.625   3.273  0.3848 -0.3736  0.4960
 4548TIP3    H113650   0.277   3.568   3.281 -0.6323 -1.7258  0.9115
 4548TIP3    H213651   0.236   3.713   3.286  1.5581 -1.0942  2.9247
 4549TIP3   OH213652   6.200   5.869   1.633  0.4887  0.5774 -0.1165
 4549TIP3    H113653   6.159   5.909   1.709 -1.0526  0.1313 -0.6799
 4549TIP3    H213654   6.141   5.797   1.609  2.4559 -1.1722  0.0325
 4550TIP3   OH213655   2.342   3.332   3.365 -0.5807 -0.4901  0.0040
 4550TIP3    H113656   2.400   3.282   3.422 -0.5686 -1.7311 -1.0422
 4550TIP3    H213657   2.401   3.389   3.315 -0.2981 -1.3094 -0.6254
 4551TIP3   OH213658   4.407   2.198   4.388 -0.3865  0.3440 -0.3314
 4551TIP3    H113659   4.355   2.273   4.362 -2.6569  0.0788  2.8647
 4551TIP3    H213660   4.426   2.212   4.481  0.7975 -2.1202 -0.1016
 4552TIP3   OH213661   5.550   0.570   0.112  0.0626  0.3749  0.0209
 4552TIP3    H113662   5.617   0.618   0.161 -1.5554  2.2356  0.5480
 4552TIP3    H213663   5.558   0.480   0.143  1.0014  0.9417  1.5563
 4553TIP3   OH213664   0.378   3.526   1.412  0.7092  0.3895  0.0268
 4553TIP3    H113665   0.401   3.616   1.389  1.5204  0.0923 -0.3586
 4553TIP3    H213666   0.333   3.534   1.497 -1.8621  1.4401 -1.3353
 4554TIP3   OH213667   1.558   3.040   0.333 -0.5062 -0.2894  0.4934
 4554TIP3    H113668   1.568   3.135   0.325 -3.6140  0.0625 -0.2400
 4554TIP3    H213669   1.554   3.009   0.242 -0.4132 -1.0226  0.7301
 4555TIP3   OH213670   2.370   5.122   0.378  0.1716 -0.4837  0.1275
 4555TIP3    H113671   2.427   5.188   0.418  0.6445  0.5129 -2.0071
 4555TIP3    H213672   2.409   5.038   0.402  1.6567  0.1348 -0.0000
 4556TIP3   OH213673   0.111   5.548   0.331  0.4442 -0.3161  0.1756
 4556TIP3    H113674   0.200   5.518   0.314  0.5945  0.7186 -0.9440
 4556TIP3    H213675   0.057   5.470   0.318  1.0715 -0.6807 -0.3006
 4557TIP3   OH213676   1.084   0.226   2.231  0.1841  0.0222  0.0469
 4557TIP3    H113677   1.063   0.280   2.155  0.4065  0.3569  0.2191
 4557TIP3    H213678   1.000   0.190   2.259  0.2700 -1.2446 -1.2023
 4558TIP3   OH213679   3.875   3.712   2.689 -0.4094  0.3677  0.0147
 4558TIP3    H113680   3.897   3.635   2.636 -1.8031  1.1700 -1.8697
 4558TIP3    H213681   3.951   3.726   2.745  0.8633 -0.9730 -1.2982
 4559TIP3   OH213682   5.497   1.289   0.111  0.3421 -0.4672  0.3941
 4559TIP3    H113683   5.442   1.314   0.185 -0.4478 -1.8082  0.2772
 4559TIP3    H213684   5.502   1.194   0.115 -0.1812 -0.6186 -1.5987
 4560TIP3   OH213685   0.709   0.739   2.061  0.4696  0.3627  0.3017
 4560TIP3    H113686   0.695   0.646   2.040 -1.4650  0.1857  2.1037
 4560TIP3    H213687   0.655   0.786   1.997 -0.1495  0.1535  0.6713
 4561TIP3   OH213688   1.256   2.262   0.635 -0.6444  0.0965  0.0681
 4561TIP3    H113689   1.257   2.347   0.592 -1.8507  1.0935  1.8451
 4561TIP3    H213690   1.347   2.234   0.636 -0.3398  0.9602 -1.2976
 4562TIP3   OH213691   2.308   3.634   4.612  0.1712  0.5419  0.4902
 4562TIP3    H113692   2.297   3.687   4.533  0.7539  1.4043  0.9817
 4562TIP3    H213693   2.287   3.545   4.584 -0.8153  1.0151 -0.3481
 4563TIP3   OH213694   2.095   4.708   3.450  0.2553  0.3932 -0.7814
 4563TIP3    H113695   2.149   4.783   3.473  0.1112  0.9494 -2.1986
 4563TIP3    H213696   2.006   4.734   3.474  0.3268  0.2850 -0.3831
 4564TIP3   OH213697   4.824   5.116   0.728  0.2860  0.0010  0.0211
 4564TIP3    H113698   4.846   5.070   0.647  0.0807  2.1762 -1.3507
 4564TIP3    H213699   4.758   5.181   0.702  0.0755  0.6340  1.9624
 4565TIP3   OH213700   4.328   4.827   1.680 -0.3029 -0.0268 -0.4566
 4565TIP3    H113701   4.370   4.913   1.674  0.2414 -0.3346 -1.0544
 4565TIP3    H213702   4.255   4.832   1.618 -0.3035  0.0148 -0.4529
 4566TIP3   OH213703   1.454   4.657   0.407 -0.5457  0.1320 -0.1714
 4566TIP3    H113704   1.515   4.659   0.481  0.0189  0.9517 -0.6513
 4566TIP3    H213705   1.492   4.592   0.347  0.5774  1.5527 -1.0551
 4567TIP3   OH213706   4.877   1.809   3.980  0.5582 -0.1630 -0.5583
 4567TIP3    H113707   4.790   1.768   3.971  0.9480 -0.6302 -2.7523
 4567TIP3    H213708   4.935   1.737   4.004  0.2064  0.3602  2.1324
 4568TIP3   OH213709   6.229   4.691   2.396 -0.4582  0.8103 -0.4513
 4568TIP3    H113710   6.194   4.662   2.480  0.3654  0.8057 -0.0999
 4568TIP3    H213711   6.323   4.700   2.411 -0.1720 -0.0327 -1.6073
 4569TIP3   OH213712   3.155   5.872   1.807 -0.3893  0.1522  0.2257
 4569TIP3    H113713   3.165   5.933   1.734 -1.3220  1.0600  0.8340
 4569TIP3    H213714   3.068   5.834   1.795 -0.4010  0.0373  0.6603
 4570TIP3   OH213715   3.443   4.153   0.266  0.3059  0.6189  0.2862
 4570TIP3    H113716   3.350   4.166   0.252  0.4726  0.0330 -1.6831
 4570TIP3    H213717   3.466   4.079   0.209  2.1300  1.3130  0.0560
 4571TIP3   OH213718   3.598   0.447   4.196 -0.1960 -0.2107  0.4239
 4571TIP3    H113719   3.603   0.503   4.274 -2.1275  0.6396  0.0040
 4571TIP3    H213720   3.591   0.509   4.123 -0.2677 -1.0062 -0.2550
 4572TIP3   OH213721   1.408   0.964   4.902  0.0952  0.1809 -0.3075
 4572TIP3    H113722   1.358   1.024   4.846 -0.3788  0.6986  0.6505
 4572TIP3    H213723   1.363   0.966   4.986 -0.0451 -1.6904 -0.2908
 4573TIP3   OH213724   0.777   5.763   1.176 -0.0218  0.3333  0.0067
 4573TIP3    H113725   0.786   5.670   1.155  0.3892  0.0756  1.2329
 4573TIP3    H213726   0.684   5.782   1.161 -0.6427 -0.8871  1.9178
 4574TIP3   OH213727   1.379   1.493   3.823  0.5638 -0.3805  0.0525
 4574TIP3    H113728   1.473   1.512   3.825  0.5316 -0.3296  1.8656
 4574TIP3    H213729   1.343   1.557   3.762  1.3295  1.3760  1.3797
 4575TIP3   OH213730   2.857   1.521   4.250 -0.1617 -0.3323 -0.0200
 4575TIP3    H113731   2.891   1.549   4.165 -0.9580 -0.4034 -0.3671
 4575TIP3    H213732   2.935   1.493   4.299  0.4589  0.8786 -0.2633
 4576TIP3   OH213733   4.242   2.600   1.886  0.1991 -0.3049 -0.1291
 4576TIP3    H113734   4.227   2.539   1.814  2.0572 -0.9779 -0.0032
 4576TIP3    H213735   4.216   2.552   1.964  0.9907 -0.7027 -0.0978
 4577TIP3   OH213736   5.959   2.159   1.401 -0.3271 -0.7235 -0.2590
 4577TIP3    H113737   5.966   2.225   1.469 -0.1145 -0.5460 -0.4508
 4577TIP3    H213738   6.007   2.084   1.435  1.0846 -0.1258 -0.8215
 4578TIP3   OH213739   5.993   5.599   1.966 -0.0250  0.0052 -0.3386
 4578TIP3    H113740   5.955   5.511   1.959  1.7242 -0.6879 -1.8259
 4578TIP3    H213741   6.068   5.597   1.907 -0.1343  2.6253 -0.6478
 4579TIP3   OH213742   5.177   4.073   0.294  0.5781 -0.1502 -0.6642
 4579TIP3    H113743   5.196   4.090   0.386  1.9264  2.2094 -1.2700
 4579TIP3    H213744   5.105   4.132   0.273 -0.0465 -1.0276 -1.0220
 4580TIP3   OH213745   1.798   3.308   4.675 -0.3665 -0.4038  0.3824
 4580TIP3    H113746   1.792   3.311   4.580  2.0318  0.4351  0.2083
 4580TIP3    H213747   1.792   3.214   4.697 -1.9993 -0.5349 -0.4446
 4581TIP3   OH213748   2.095   4.465   2.808 -0.2156 -0.6234 -0.2945
 4581TIP3    H113749   2.081   4.486   2.901 -2.0320  1.1017 -0.8869
 4581TIP3    H213750   2.011   4.430   2.779  0.0187 -0.1980 -1.5286
 4582TIP3   OH213751   2.365   0.248   4.433  0.4018 -0.0752 -0.4978
 4582TIP3    H113752   2.367   0.196   4.514 -0.0536 -1.0956 -1.1098
 4582TIP3    H213753   2.457   0.254   4.406  0.5733  0.4468  0.2061
 4583TIP3   OH213754   2.182   2.077   3.729  0.1202 -0.3301 -0.1682
 4583TIP3    H113755   2.238   2.059   3.804 -0.7219 -1.8762  0.1497
 4583TIP3    H213756   2.209   2.013   3.663  1.0229  1.1720 -1.3263
 4584TIP3   OH213757   5.162   4.196   2.616 -0.2099  0.3072 -0.0895
 4584TIP3    H113758   5.249   4.166   2.644  0.4507 -0.6471 -2.8430
 4584TIP3    H213759   5.116   4.117   2.591 -1.1698  0.9853 -0.5205
 4585TIP3   OH213760   6.051   4.184   2.340 -0.4521 -0.1202  0.0432
 4585TIP3    H113761   6.111   4.140   2.401  1.0272 -1.2011 -2.0947
 4585TIP3    H213762   5.965   4.146   2.360 -0.8022  2.0696  3.7583
 4586TIP3   OH213763   2.226   1.504   3.623 -0.1250 -0.0408  0.1129
 4586TIP3    H113764   2.196   1.525   3.535 -1.3180  1.2466  0.7881
 4586TIP3    H213765   2.238   1.409   3.623 -1.3927 -0.2275 -1.0483
 4587TIP3   OH213766   4.808   5.770   2.451  0.8702 -0.2322  0.7566
 4587TIP3    H113767   4.806   5.761   2.546 -0.0443  0.2261  0.7962
 4587TIP3    H213768   4.869   5.842   2.435 -1.9888  2.5200  1.3019
 4588TIP3   OH213769   5.913   1.287   3.532  0.2374 -0.0674 -0.4353
 4588TIP3    H113770   5.940   1.195   3.535  2.5119  0.5102 -0.8850
 4588TIP3    H213771   5.893   1.310   3.623 -1.4022 -1.2449 -0.4592
 4589TIP3   OH213772   2.702   3.579   0.281  0.0602 -0.6637 -0.0306
 4589TIP3    H113773   2.646   3.503   0.297 -2.4660  0.6328 -1.8689
 4589TIP3    H213774   2.738   3.601   0.367 -1.2798 -2.3303  1.0297
 4590TIP3   OH213775   3.520   5.236   4.324  0.0158  0.1302  0.1631
 4590TIP3    H113776   3.576   5.292   4.377 -0.4263  1.1024 -0.3730
 4590TIP3    H213777   3.576   5.163   4.299  0.3838 -0.0520  1.4841
 4591TIP3   OH213778   0.041   0.917   2.100  0.2132  0.2899 -0.0828
 4591TIP3    H113779   0.132   0.891   2.089 -0.1909 -1.5227  0.4717
 4591TIP3    H213780   0.006   0.919   2.010  0.1367 -1.7600 -0.1430
 4592TIP3   OH213781   5.961   3.375   1.233 -0.0390  0.3211 -0.2073
 4592TIP3    H113782   6.046   3.338   1.256 -0.4869 -0.4938  0.1797
 4592TIP3    H213783   5.952   3.451   1.291  0.7665  0.9007 -0.8162
 4593TIP3   OH213784   5.743   4.769   4.998  0.3172  0.0774  0.0784
 4593TIP3    H113785   5.770   4.680   4.974  1.6452  0.1466  1.1858
 4593TIP3    H213786   5.652   4.760   5.025  0.3712 -0.9116 -0.0362
 4594TIP3   OH213787   2.026   3.426   5.128  0.6416  0.3053  0.4961
 4594TIP3    H113788   2.028   3.422   5.033  0.1403  2.1216  0.3777
 4594TIP3    H213789   1.949   3.479   5.149  2.6105  2.8584  1.7570
 4595TIP3   OH213790   4.317   3.155   5.101  0.6161  0.4506  0.1557
 4595TIP3    H113791   4.273   3.143   5.016 -1.0212  1.4825  0.8099
 4595TIP3    H213792   4.254   3.125   5.165  1.3645  0.8175  1.0837
 4596TIP3   OH213793   4.804   4.089   2.847 -0.8446  0.1254 -0.1291
 4596TIP3    H113794   4.847   4.056   2.768 -1.2420  1.0043 -0.7145
 4596TIP3    H213795   4.730   4.030   2.860 -2.1300  1.2857 -1.7295
 4597TIP3   OH213796   3.957   1.893   2.339  0.6243 -0.2588 -0.3962
 4597TIP3    H113797   3.898   1.875   2.265 -0.2350  2.9416 -0.6136
 4597TIP3    H213798   4.045   1.883   2.303  0.2643 -2.0724 -0.8856
 4598TIP3   OH213799   1.721   1.568   2.968 -0.0620  0.2934  0.2469
 4598TIP3    H113800   1.809   1.600   2.987  0.4532 -0.6883 -0.4061
 4598TIP3    H213801   1.734   1.476   2.944 -1.1646  0.3742 -0.7074
 4599TIP3   OH213802   5.902   3.554   1.474  0.4116  0.1472  0.1080
 4599TIP3    H113803   5.837   3.511   1.529  0.3205 -0.3829 -0.3972
 4599TIP3    H213804   5.855   3.628   1.435 -0.2921 -0.9602 -1.2422
 4600TIP3   OH213805   5.054   0.571   4.903  0.1176  0.1279  0.2207
 4600TIP3    H113806   5.020   0.572   4.814  1.8969 -2.4666 -0.6110
 4600TIP3    H213807   5.089   0.483   4.914 -0.3781  0.2296  3.6590
 4601TIP3   OH213808   3.408   0.921   4.256  0.5009  0.2111 -0.0083
 4601TIP3    H113809   3.393   1.016   4.258  1.0280  0.3327 -0.9992
 4601TIP3    H213810   3.354   0.886   4.326  1.2126  1.3814  1.1768
 4602TIP3   OH213811   5.480   5.646   2.548 -0.1614  0.5383  0.0961
 4602TIP3    H113812   5.557   5.690   2.511 -1.5359  1.0713 -2.3849
 4602TIP3    H213813   5.417   5.717   2.563 -1.0885 -0.1629 -0.4059
 4603TIP3   OH213814   2.160   3.526   3.418 -0.1632 -0.1613  0.5886
 4603TIP3    H113815   2.216   3.457   3.382 -0.1866 -0.2777  0.7772
 4603TIP3    H213816   2.071   3.498   3.396 -0.2405 -0.7363  1.6111
 4604TIP3   OH213817   2.050   2.590   1.836 -0.2222 -0.3713  0.2470
 4604TIP3    H113818   2.125   2.644   1.810 -0.8134  0.4583  0.2569
 4604TIP3    H213819   2.086   2.529   1.900  0.0520  1.2960  1.7415
 4605TIP3   OH213820   1.072   4.082   4.533  0.1100 -0.2771  0.0028
 4605TIP3    H113821   1.090   4.104   4.442  3.1072  0.3162  0.6258
 4605TIP3    H213822   1.149   4.032   4.561 -0.7899 -0.5540  2.1491
 4606TIP3   OH213823   2.960   1.845   3.632  0.3478 -0.7602  0.5664
 4606TIP3    H113824   2.999   1.758   3.640  2.4558  0.1177  0.4945
 4606TIP3    H213825   2.913   1.858   3.714 -0.6333 -2.2433  0.2690
 4607TIP3   OH213826   5.422   5.073   4.688  0.0757 -0.1714 -0.1078
 4607TIP3    H113827   5.409   5.069   4.783  1.0346 -0.1408  0.0355
 4607TIP3    H213828   5.498   5.130   4.677 -0.2812  0.1574 -0.9230
 4608TIP3   OH213829   5.207   2.547   0.651  0.0667 -0.2168 -0.2178
 4608TIP3    H113830   5.301   2.556   0.634  0.2351 -0.0492  0.7259
 4608TIP3    H213831   5.180   2.635   0.680  0.0864 -0.7771  1.6113
 4609TIP3   OH213832   6.210   1.541   3.002 -0.0821 -0.3218 -0.0169
 4609TIP3    H113833   6.260   1.534   3.084 -0.8266  0.1265  0.4899
 4609TIP3    H213834   6.218   1.455   2.962  0.7341 -0.3875  0.2712
 4610TIP3   OH213835   1.041   0.365   3.248  0.2895  0.3346 -0.4395
 4610TIP3    H113836   1.106   0.435   3.249  0.3205  0.3042  0.5009
 4610TIP3    H213837   1.092   0.285   3.245  0.2610  0.3374 -1.1321
 4611TIP3   OH213838   0.386   3.437   4.175 -0.1846  0.3411  0.2046
 4611TIP3    H113839   0.473   3.417   4.143 -0.5480  1.7864 -1.8718
 4611TIP3    H213840   0.327   3.393   4.114 -0.9365  0.0756  1.0911
 4612TIP3   OH213841   5.582   3.192   2.782  0.2828  0.3422  0.4861
 4612TIP3    H113842   5.501   3.237   2.757  0.5097 -0.0194 -0.9843
 4612TIP3    H213843   5.559   3.099   2.778  0.5767  0.2598  0.7431
 4613TIP3   OH213844   2.319   2.921   5.053 -0.3601  0.2248  0.0211
 4613TIP3    H113845   2.269   2.878   4.984 -0.9605  0.7813  0.1006
 4613TIP3    H213846   2.296   3.014   5.046  1.6813  0.7352 -0.8040
 4614TIP3   OH213847   1.959   5.435   0.964  0.2790  0.3482  0.6528
 4614TIP3    H113848   1.892   5.424   0.896  1.6327  1.6902 -1.0001
 4614TIP3    H213849   2.036   5.389   0.930  0.4633 -0.4992  2.1455
 4615TIP3   OH213850   2.097   5.095   3.085  0.7384 -0.1003  0.6131
 4615TIP3    H113851   2.025   5.048   3.126  0.3936  0.7850  1.0470
 4615TIP3    H213852   2.113   5.048   3.003 -0.7639  0.0730  0.1959
 4616TIP3   OH213853   4.610   4.957   0.864 -0.0559 -0.0993 -0.9002
 4616TIP3    H113854   4.660   5.021   0.814  0.0182 -0.0940 -0.8193
 4616TIP3    H213855   4.595   4.998   0.949  0.0089 -0.1956 -0.8414
 4617TIP3   OH213856   1.864   2.433   3.401 -0.0140  0.1665 -0.2440
 4617TIP3    H113857   1.937   2.473   3.353 -0.3543  0.1071 -0.8214
 4617TIP3    H213858   1.895   2.345   3.421  0.0965  0.1593 -0.4370
 4618TIP3   OH213859   2.762   2.489   2.916  0.5380 -0.1565 -0.2938
 4618TIP3    H113860   2.717   2.503   2.833 -1.1810 -0.3537  0.5591
 4618TIP3    H213861   2.721   2.410   2.952  0.4589  0.5534  1.2380
 4619TIP3   OH213862   0.484   1.729   0.171 -0.3156  0.0929  1.0697
 4619TIP3    H113863   0.403   1.679   0.184 -0.3815  0.1764  0.9874
 4619TIP3    H213864   0.469   1.811   0.219 -2.2188  2.2163 -2.6976
 4620TIP3   OH213865   3.670   0.259   1.856  0.1967  0.0019 -0.1656
 4620TIP3    H113866   3.607   0.225   1.920  0.3882 -0.3028 -0.1373
 4620TIP3    H213867   3.617   0.283   1.780 -0.0244  0.3097  0.0859
 4621TIP3   OH213868   3.027   5.908   2.531 -0.6515  0.3750  0.4609
 4621TIP3    H113869   3.055   5.818   2.545  1.7687  1.1924  1.4881
 4621TIP3    H213870   3.008   5.941   2.619 -1.4582  0.9001  0.1005
 4622TIP3   OH213871   0.673   1.734   1.788  0.3200 -0.1922 -0.1534
 4622TIP3    H113872   0.666   1.829   1.801 -1.7522 -0.4524  1.1479
 4622TIP3    H213873   0.694   1.700   1.874  0.1691 -0.9825 -0.4230
 4623TIP3   OH213874   4.413   5.820   2.672  0.2454  0.7328 -0.2437
 4623TIP3    H113875   4.404   5.877   2.595  1.7322  1.7220  0.2728
 4623TIP3    H213876   4.456   5.875   2.737  0.0739 -0.4578  0.9085
 4624TIP3   OH213877   1.758   2.735   2.498  0.9173 -0.1210 -0.2614
 4624TIP3    H113878   1.733   2.711   2.588  0.9178 -1.0518 -0.5007
 4624TIP3    H213879   1.753   2.831   2.497 -1.2367 -0.1742  0.1285
 4625TIP3   OH213880   0.082   5.917   1.473 -0.0273  0.1282 -0.4124
 4625TIP3    H113881   0.139   5.860   1.525 -1.1143 -0.3860  0.2523
 4625TIP3    H213882  -0.004   5.911   1.516 -0.6757  0.6035 -1.5932
 4626TIP3   OH213883   0.230   0.649   1.861  0.0192 -0.0312  0.5086
 4626TIP3    H113884   0.274   0.584   1.916  0.2806 -0.2565  0.0342
 4626TIP3    H213885   0.241   0.731   1.909  2.3009  0.2143 -0.3128
 4627TIP3   OH213886   0.745   1.886   2.514 -0.1289 -0.2466  0.6452
 4627TIP3    H113887   0.679   1.928   2.570 -0.8342  0.1267 -0.4391
 4627TIP3    H213888   0.733   1.793   2.529  0.0996 -0.1349  1.5688
 4628TIP3   OH213889   3.589   4.032   5.171 -0.0814 -0.0592 -0.1304
 4628TIP3    H113890   3.514   4.083   5.141 -0.6416 -1.5676 -1.4487
 4628TIP3    H213891   3.662   4.066   5.120 -0.3905 -0.3358 -0.7735
 4629TIP3   OH213892   5.498   1.288   3.256  0.5479 -0.4134 -0.6452
 4629TIP3    H113893   5.433   1.221   3.275 -0.3075  0.7825  0.7902
 4629TIP3    H213894   5.530   1.316   3.342  1.3708  0.5529 -1.2466
 4630TIP3   OH213895   5.548   4.512   3.914 -0.1068  0.0342 -0.2890
 4630TIP3    H113896   5.568   4.594   3.960  0.0093 -0.3806  0.4153
 4630TIP3    H213897   5.592   4.521   3.829  0.4216  0.4479  0.0218
 4631TIP3   OH213898   5.277   3.665   0.406  0.5278 -0.0334 -0.6350
 4631TIP3    H113899   5.255   3.668   0.499  0.7208 -0.6147 -0.5665
 4631TIP3    H213900   5.359   3.616   0.402 -0.3596 -1.5381 -1.2610
 4632TIP3   OH213901   4.792   1.468   3.339  0.1948 -0.2098 -0.0100
 4632TIP3    H113902   4.763   1.529   3.406 -3.0721 -1.2595 -0.3206
 4632TIP3    H213903   4.802   1.385   3.384  0.4377 -0.3869 -0.3804
 4633TIP3   OH213904   3.952   2.216   1.520  0.5062 -0.5429 -0.4640
 4633TIP3    H113905   3.901   2.281   1.569 -0.9189 -0.4051 -2.0360
 4633TIP3    H213906   3.887   2.164   1.474  1.7608 -1.0613 -1.7283
 4634TIP3   OH213907   0.625   4.053   3.936 -0.5597  0.0585 -0.0423
 4634TIP3    H113908   0.643   4.139   3.975  1.4775 -0.2388 -0.2283
 4634TIP3    H213909   0.530   4.043   3.943 -0.8742  2.4031 -0.1891
 4635TIP3   OH213910   0.357   4.189   1.872  0.5281 -0.0853  0.4857
 4635TIP3    H113911   0.276   4.163   1.828  0.0619  0.2728  1.0994
 4635TIP3    H213912   0.358   4.137   1.952  3.0469 -3.2534 -1.3681
 4636TIP3   OH213913   1.641   3.145   2.735  0.6570  0.1093  0.5298
 4636TIP3    H113914   1.607   3.218   2.787  2.2676 -0.3616  2.3339
 4636TIP3    H213915   1.600   3.156   2.649  1.9437  4.0559  0.2038
 4637TIP3   OH213916   2.638   1.588   5.147 -0.0200  0.1501  0.4131
 4637TIP3    H113917   2.612   1.622   5.061 -2.6778  1.0627  1.4907
 4637TIP3    H213918   2.727   1.555   5.133  0.1459  1.4549 -2.3514
 4638TIP3   OH213919   1.655   4.143   3.117 -0.3731  0.4934  0.3046
 4638TIP3    H113920   1.610   4.071   3.162  0.7542  0.6339  1.7681
 4638TIP3    H213921   1.589   4.182   3.061 -0.9612 -1.8125 -0.7103
 4639TIP3   OH213922   1.259   5.758   3.411  0.0661 -0.2142 -0.2711
 4639TIP3    H113923   1.231   5.824   3.347 -2.7035 -2.3656 -1.4825
 4639TIP3    H213924   1.223   5.676   3.378  0.0744 -1.7456  3.1428
 4640TIP3   OH213925   6.045   0.731   5.030  0.2520  0.0192  0.3687
 4640TIP3    H113926   6.140   0.718   5.029  0.6429  2.3133  1.1863
 4640TIP3    H213927   6.028   0.778   4.948 -0.0979  0.0839  0.4812
 4641TIP3   OH213928   0.596   5.795   2.482  0.2160  0.4287 -0.1584
 4641TIP3    H113929   0.560   5.717   2.440  1.2639  0.4559 -1.1563
 4641TIP3    H213930   0.646   5.762   2.556  1.6004  0.0195 -1.2358
 4642TIP3   OH213931   0.616   3.609   1.639 -0.2315  0.1048  0.4502
 4642TIP3    H113932   0.578   3.693   1.612  0.3139  0.9270  2.0480
 4642TIP3    H213933   0.551   3.544   1.615  0.2819  0.6707 -2.8775
 4643TIP3   OH213934   1.486   1.788   2.317 -0.3269  0.6659 -0.0311
 4643TIP3    H113935   1.516   1.712   2.268 -0.7771 -0.5462  1.4881
 4643TIP3    H213936   1.422   1.830   2.260 -1.8501 -1.4639  0.0208
 4644TIP3   OH213937   5.231   4.976   0.381 -0.0219  0.0775 -1.1417
 4644TIP3    H113938   5.193   4.906   0.328 -0.1148 -0.5653 -0.2354
 4644TIP3    H213939   5.207   5.056   0.334 -1.5938 -0.3670 -1.1517
 4645TIP3   OH213940   5.614   4.555   2.050  0.2744  0.6294 -0.6614
 4645TIP3    H113941   5.653   4.469   2.066  1.0151  1.3424  1.6663
 4645TIP3    H213942   5.529   4.535   2.010 -0.5079 -1.3302  1.7028
 4646TIP3   OH213943   2.185   1.108   4.318  0.7646  0.4581  0.1718
 4646TIP3    H113944   2.200   1.049   4.244  2.8398 -0.1929  1.0229
 4646TIP3    H213945   2.111   1.069   4.365 -0.1497  0.5156 -1.1669
 4647TIP3   OH213946   0.013   1.033   2.654  0.5278 -0.6184  0.0698
 4647TIP3    H113947  -0.003   1.061   2.564  0.3360 -0.0013  0.2925
 4647TIP3    H213948  -0.001   0.939   2.653  0.0598 -0.5441 -0.4405
 4648TIP3   OH213949   4.051   0.290   2.048 -0.3419  0.2304  0.3717
 4648TIP3    H113950   4.109   0.329   1.982  0.4944  1.0079  1.5264
 4648TIP3    H213951   3.972   0.344   2.045  0.0973  0.9037  0.6985
 4649TIP3   OH213952   1.209   0.881   2.038 -0.4125  0.5434 -0.9734
 4649TIP3    H113953   1.266   0.952   2.008  1.9186 -0.7772  0.0365
 4649TIP3    H213954   1.135   0.882   1.978  0.9699  1.9784 -2.7591
 4650TIP3   OH213955   1.548   1.895   1.431  0.7051 -0.7691  0.0225
 4650TIP3    H113956   1.641   1.907   1.447  0.3380  1.6998  0.7563
 4650TIP3    H213957   1.535   1.800   1.433  3.6907 -1.4614 -3.3095
 4651TIP3   OH213958   4.141   3.380   4.051 -0.1114  0.4369  0.4495
 4651TIP3    H113959   4.135   3.357   4.144 -1.3095  0.6628  0.4410
 4651TIP3    H213960   4.224   3.427   4.044  0.3047 -0.1315  1.2742
 4652TIP3   OH213961   2.415   1.102   5.179  0.1010  0.2594  0.2660
 4652TIP3    H113962   2.356   1.031   5.153 -0.3215  0.6028  0.2811
 4652TIP3    H213963   2.502   1.071   5.154 -0.2460  0.4281 -1.2440
 4653TIP3   OH213964   5.151   3.188   2.125  0.0975 -0.3985  0.7961
 4653TIP3    H113965   5.137   3.245   2.050  2.6015 -0.8744 -0.1083
 4653TIP3    H213966   5.078   3.125   2.121 -0.8993  0.7703 -0.0492
 4654TIP3   OH213967   6.266   2.021   2.529 -0.1744 -0.5911  0.0373
 4654TIP3    H113968   6.285   2.005   2.621  0.2669  0.3264  0.1176
 4654TIP3    H213969   6.237   2.112   2.526 -0.9651 -0.8547 -0.6226
 4655TIP3   OH213970   4.989   0.877   2.892  0.0722  0.4333  0.0344
 4655TIP3    H113971   4.969   0.969   2.879 -1.4789 -0.0211 -1.1055
 4655TIP3    H213972   4.904   0.833   2.888  0.7071 -0.9913  1.1797
 4656TIP3   OH213973   0.174   0.988   1.060 -0.1482 -0.0355  0.3598
 4656TIP3    H113974   0.255   0.963   1.015 -0.7537  0.3638 -1.0006
 4656TIP3    H213975   0.197   1.066   1.110  0.4811 -0.3413  0.5518
 4657TIP3   OH213976   2.813   2.129   4.976 -0.8284  0.2273  0.0402
 4657TIP3    H113977   2.758   2.176   4.912 -0.8673  0.7934  0.4870
 4657TIP3    H213978   2.834   2.046   4.933 -1.5037  0.2788 -0.3953
 4658TIP3   OH213979   0.293   3.670   2.945 -0.0940  0.2090  0.9914
 4658TIP3    H113980   0.296   3.736   3.015 -4.1116  1.6564  0.0539
 4658TIP3    H213981   0.200   3.654   2.932  0.2955  0.7222 -4.6134
 4659TIP3   OH213982   4.997   4.258   2.070  0.0689  0.2052  0.0247
 4659TIP3    H113983   5.088   4.279   2.092 -0.1007  0.1682  0.7674
 4659TIP3    H213984   5.003   4.175   2.023  0.4945  0.6269 -0.6927
 4660TIP3   OH213985   3.143   1.960   4.359  0.5306 -0.3348  0.5746
 4660TIP3    H113986   3.064   1.977   4.409 -0.2447 -2.3224  0.0947
 4660TIP3    H213987   3.206   1.926   4.423  0.7791  0.5526  0.8191
 4661TIP3   OH213988   1.324   5.768   0.953 -0.6911 -0.1614 -0.1645
 4661TIP3    H113989   1.281   5.811   1.027  2.6639  1.4682  1.0685
 4661TIP3    H213990   1.324   5.675   0.977  0.0280  0.2858  1.8425
 4662TIP3   OH213991   3.395   2.407   2.380 -0.5106 -0.0858  0.1197
 4662TIP3    H113992   3.380   2.408   2.286 -3.0763 -0.1803  0.4654
 4662TIP3    H213993   3.319   2.452   2.417  0.6563  0.3360  2.1396
 4663TIP3   OH213994   4.465   0.372   1.373 -0.4045 -0.7003 -0.4379
 4663TIP3    H113995   4.432   0.426   1.301 -1.2084  0.7262  0.9616
 4663TIP3    H213996   4.451   0.282   1.343 -0.1948 -0.1738 -2.2877
 4664TIP3   OH213997   5.805   5.747   4.773  0.5126  0.4779 -0.3699
 4664TIP3    H113998   5.750   5.791   4.838  0.2587 -2.5195  1.6103
 4664TIP3    H213999   5.748   5.683   4.732  1.7758 -0.7314 -0.3122
 4665TIP3   OH214000   4.249   2.155   0.892  0.1711  0.4976  0.7014
 4665TIP3    H114001   4.179   2.094   0.915 -0.3930  1.2690  1.0718
 4665TIP3    H214002   4.324   2.099   0.872 -0.4296 -0.3229  0.7088
 4666TIP3   OH214003   5.624   4.214   3.751 -0.3910 -0.0100  0.2938
 4666TIP3    H114004   5.551   4.233   3.810 -2.1268 -0.9870 -1.4593
 4666TIP3    H214005   5.646   4.299   3.713 -1.0622  0.1885  0.3317
 4667TIP3   OH214006   1.948   4.185   2.092  0.5437 -0.0148  0.1294
 4667TIP3    H114007   1.992   4.185   2.177 -1.6667 -0.4520  1.3509
 4667TIP3    H214008   1.945   4.093   2.066 -1.5468 -0.2866  1.1610
 4668TIP3   OH214009   0.982   2.149   3.708  0.0091  0.2067 -0.4184
 4668TIP3    H114010   0.979   2.239   3.676 -1.2343  0.4547  0.3072
 4668TIP3    H214011   0.917   2.102   3.656 -1.3203  0.3919  0.9962
 4669TIP3   OH214012   3.219   5.416   5.193 -1.0524  0.2326  0.3901
 4669TIP3    H114013   3.313   5.430   5.204 -1.0769 -0.0075  0.9046
 4669TIP3    H214014   3.198   5.460   5.110 -0.1029 -1.5251 -0.8447
 4670TIP3   OH214015   0.435   0.774   5.094  0.7450  0.5004  0.0993
 4670TIP3    H114016   0.425   0.712   5.022  0.7074 -0.0603  0.5708
 4670TIP3    H214017   0.529   0.773   5.113  0.7008  0.3224  0.3246
 4671TIP3   OH214018   5.976   3.224   4.212 -0.2972 -0.1717  0.7191
 4671TIP3    H114019   5.956   3.317   4.212 -0.0762 -0.1220  1.4073
 4671TIP3    H214020   6.019   3.208   4.296  1.0086 -0.6087 -0.0076
 4672TIP3   OH214021   2.983   5.274   1.310  0.0359  0.0930 -0.6398
 4672TIP3    H114022   2.981   5.368   1.326 -0.1388  0.3425 -2.0081
 4672TIP3    H214023   2.899   5.242   1.344  0.0530  0.4334 -0.2658
 4673TIP3   OH214024   0.869   3.683   1.069 -0.0964  0.5017  0.3842
 4673TIP3    H114025   0.850   3.603   1.020 -0.6219  0.2671  0.9504
 4673TIP3    H214026   0.916   3.653   1.146  0.9671  0.8976 -0.0914
 4674TIP3   OH214027   0.145   3.563   1.576 -0.2390 -0.0163  0.5694
 4674TIP3    H114028   0.158   3.544   1.669 -0.9477  0.5761  0.7998
 4674TIP3    H214029   0.053   3.591   1.570  0.2090  1.3949 -0.0634
 4675TIP3   OH214030   5.225   3.082   0.727 -0.2803  0.6821  0.4155
 4675TIP3    H114031   5.310   3.088   0.770 -0.2285  0.5597  0.3295
 4675TIP3    H214032   5.199   3.173   0.712 -0.6029  0.7514  1.3025
 4676TIP3   OH214033   2.935   5.031   0.330  0.3641  0.1914 -0.0334
 4676TIP3    H114034   2.858   4.974   0.325  0.9850 -0.6125 -1.0345
 4676TIP3    H214035   3.004   4.974   0.364  0.8023  0.5565 -0.3115
 4677TIP3   OH214036   0.376   4.322   2.156  0.3558 -0.4933  0.3510
 4677TIP3    H114037   0.308   4.260   2.131 -1.1834  1.1768  0.2715
 4677TIP3    H214038   0.454   4.267   2.169 -0.8359 -2.3783 -0.0798
 4678TIP3   OH214039   1.361   5.155   4.376 -0.1545 -0.7485  1.0449
 4678TIP3    H114040   1.398   5.089   4.316 -0.3836 -2.4028  2.6504
 4678TIP3    H214041   1.403   5.137   4.460 -1.2781  0.2689  1.8534
 4679TIP3   OH214042   4.810   5.042   1.102 -0.4124 -0.1487  0.4953
 4679TIP3    H114043   4.833   5.042   1.195  0.1040  0.2824  0.3771
 4679TIP3    H214044   4.730   5.094   1.097  1.2601  2.6216  0.3401
 4680TIP3   OH214045   0.566   3.868   0.324  0.4432  1.2001 -0.2684
 4680TIP3    H114046   0.500   3.807   0.292  0.0077  0.8700  1.1976
 4680TIP3    H214047   0.549   3.949   0.275 -0.8338  1.0191 -0.1513
 4681TIP3   OH214048   2.573   1.629   2.952  0.8838 -0.1832 -0.2838
 4681TIP3    H114049   2.572   1.720   2.983  1.4913 -1.1270  2.8730
 4681TIP3    H214050   2.481   1.603   2.950  0.8219 -0.1487  1.1128
 4682TIP3   OH214051   1.236   0.631   0.968 -0.2325 -0.2446  0.1826
 4682TIP3    H114052   1.217   0.649   1.060 -3.2796 -0.8953 -0.1993
 4682TIP3    H214053   1.237   0.718   0.927 -0.8931 -0.0664  0.5254
 4683TIP3   OH214054   4.593   1.354   4.241 -1.3011 -0.2515 -0.3645
 4683TIP3    H114055   4.649   1.343   4.318 -0.4607 -1.3439 -1.0897
 4683TIP3    H214056   4.639   1.419   4.187 -1.7602  0.3264 -0.0669
 4684TIP3   OH214057   0.113   0.478   0.677  0.2227  0.1049  0.2598
 4684TIP3    H114058   0.202   0.455   0.653 -0.1030 -0.8321 -0.1091
 4684TIP3    H214059   0.094   0.426   0.755 -0.3844 -0.5829 -0.3315
 4685TIP3   OH214060   4.668   5.723   4.710  0.1644  0.5098 -0.1623
 4685TIP3    H114061   4.699   5.769   4.632 -0.1186  0.4824 -0.2915
 4685TIP3    H214062   4.742   5.727   4.771  1.3644 -1.6269 -1.3247
 4686TIP3   OH214063   1.415   3.197   2.558 -0.8180 -0.7139  0.0362
 4686TIP3    H114064   1.421   3.258   2.485 -1.7708 -0.7610 -0.0886
 4686TIP3    H214065   1.339   3.143   2.538  0.0615 -2.0180  0.0927
 4687TIP3   OH214066   0.388   0.498   1.261  0.1158 -1.3180 -0.2157
 4687TIP3    H114067   0.328   0.457   1.323 -2.4475 -0.4910 -1.9703
 4687TIP3    H214068   0.371   0.592   1.269  0.2744 -1.1470 -1.5950
 4688TIP3   OH214069   4.918   1.270   3.505  0.0732  0.2606  0.2126
 4688TIP3    H114070   4.950   1.240   3.420 -0.1892  2.1809 -0.6112
 4688TIP3    H214071   4.989   1.250   3.566 -0.1955 -2.2031 -0.1827
 4689TIP3   OH214072   5.285   3.270   4.239  0.0636 -0.0295 -0.2060
 4689TIP3    H114073   5.292   3.357   4.277 -1.3596 -0.2983  0.7470
 4689TIP3    H214074   5.249   3.215   4.309 -0.8131 -0.9705 -1.3444
 4690TIP3   OH214075   2.874   5.304   5.080 -0.6247 -0.0363 -0.0635
 4690TIP3    H114076   2.959   5.277   5.047 -0.3479  0.9229 -0.1566
 4690TIP3    H214077   2.837   5.225   5.120 -0.8857 -1.2054 -2.4640
 4691TIP3   OH214078   2.072   1.151   0.470 -0.3496  0.0907 -0.6261
 4691TIP3    H114079   2.084   1.229   0.415  0.5396 -0.5336 -1.3438
 4691TIP3    H214080   2.038   1.084   0.409 -2.4524  0.2716  0.2577
 4692TIP3   OH214081   1.951   3.932   0.595  0.1472 -0.0006 -0.1637
 4692TIP3    H114082   2.028   3.975   0.634  0.7355  0.0775 -1.3613
 4692TIP3    H214083   1.885   3.935   0.663  1.0945  0.2685  0.7722
 4693TIP3   OH214084   1.473   3.661   0.436  0.3869  0.2645 -0.1978
 4693TIP3    H114085   1.382   3.641   0.459  0.0913  1.6412 -0.1309
 4693TIP3    H214086   1.506   3.709   0.512  1.2436 -0.3839 -0.1427
 4694TIP3   OH214087   2.065   0.616   1.846 -0.1582  0.1030 -0.2307
 4694TIP3    H114088   2.021   0.600   1.930  2.0011 -1.6907  0.6518
 4694TIP3    H214089   2.037   0.543   1.791  0.1994  0.0381 -0.3238
 4695TIP3   OH214090   4.491   1.491   5.069 -0.4232  0.5696  0.1886
 4695TIP3    H114091   4.408   1.457   5.100  0.2017 -1.6286 -0.3460
 4695TIP3    H214092   4.488   1.479   4.974  1.0131 -0.9364  0.2831
 4696TIP3   OH214093   1.535   3.804   4.472 -0.1921 -0.2472 -0.7226
 4696TIP3    H114094   1.539   3.767   4.384 -1.0077 -2.6229  0.1505
 4696TIP3    H214095   1.617   3.778   4.513  0.2290  0.9381 -0.7654
 4697TIP3   OH214096   4.206   0.362   3.007  0.1216  0.0794 -0.3613
 4697TIP3    H114097   4.163   0.285   2.969  0.4764 -1.0619  1.3981
 4697TIP3    H214098   4.298   0.353   2.979  0.9341 -2.0891  2.4464
 4698TIP3   OH214099   3.820   3.849   5.060  0.0177  0.7427 -0.2124
 4698TIP3    H114100   3.912   3.843   5.032 -0.3689 -1.9437 -1.2931
 4698TIP3    H214101   3.777   3.898   4.990  0.4530  1.2435 -0.1388
 4699TIP3   OH214102   5.688   2.167   3.393  0.1145  0.1500  0.3771
 4699TIP3    H114103   5.634   2.097   3.357  0.4561  0.4984 -0.8849
 4699TIP3    H214104   5.635   2.246   3.383  1.2642  0.7110 -2.0874
 4700TIP3   OH214105   4.726   3.803   2.499  0.1185 -0.2626 -0.5689
 4700TIP3    H114106   4.674   3.878   2.473 -1.5607 -1.0733  0.3055
 4700TIP3    H214107   4.728   3.747   2.421  1.0368  0.4579 -1.0922
 4701TIP3   OH214108   3.274   5.016   1.526 -0.0722 -0.1782 -0.2165
 4701TIP3    H114109   3.249   5.107   1.542 -0.6738 -0.4477  0.4505
 4701TIP3    H214110   3.219   4.988   1.453 -1.9386 -0.8119  1.3341
 4702TIP3   OH214111   0.233   4.699   5.151  0.1249 -0.0532  0.1400
 4702TIP3    H114112   0.303   4.749   5.193  0.0609 -0.9264  1.3553
 4702TIP3    H214113   0.159   4.760   5.148 -0.4604 -0.4368  3.0682
 4703TIP3   OH214114   5.110   2.935   4.163 -0.6315 -0.1334 -0.4772
 4703TIP3    H114115   5.033   2.880   4.149 -1.9702  1.0325  1.7217
 4703TIP3    H214116   5.130   2.925   4.256  0.7539  1.0313 -0.6052
 4704TIP3   OH214117   4.805   5.284   4.170 -0.0554  0.6828  0.2276
 4704TIP3    H114118   4.841   5.208   4.125  0.2848  0.8581  0.1937
 4704TIP3    H214119   4.754   5.249   4.242  0.3770  0.4322  0.4116
 4705TIP3   OH214120   4.684   0.276   4.145 -0.2020 -0.4091  0.2468
 4705TIP3    H114121   4.671   0.184   4.124  0.7097 -0.4015 -0.4034
 4705TIP3    H214122   4.717   0.275   4.235 -0.7676 -0.6792  0.4512
 4706TIP3   OH214123   5.886   0.592   2.422  0.2490 -0.2734  0.0481
 4706TIP3    H114124   5.916   0.502   2.433 -0.6744 -0.6652 -0.5094
 4706TIP3    H214125   5.833   0.610   2.500  0.8756 -0.0263  0.4168
 4707TIP3   OH214126   0.610   4.691   4.739  0.2213  0.6882 -0.1127
 4707TIP3    H114127   0.527   4.643   4.745 -0.4810  1.9356  0.5927
 4707TIP3    H214128   0.643   4.692   4.829  1.3265 -0.3128 -0.4860
 4708TIP3   OH214129   5.225   1.153   5.065  0.0259 -0.1701 -0.0021
 4708TIP3    H114130   5.133   1.128   5.066 -0.6671  2.1364  0.7205
 4708TIP3    H214131   5.243   1.177   4.974  0.0094 -0.8933 -0.2006
 4709TIP3   OH214132   0.829   3.118   1.503 -0.5028  0.5760 -0.4873
 4709TIP3    H114133   0.790   3.061   1.569  1.4490  3.2619  3.3437
 4709TIP3    H214134   0.758   3.177   1.478 -0.5836  1.5500  1.7757
 4710TIP3   OH214135   3.393   0.559   4.063 -0.5046 -0.4180 -0.5096
 4710TIP3    H114136   3.417   0.491   4.126 -0.4255  0.3716  0.3231
 4710TIP3    H214137   3.335   0.515   4.001 -2.4149 -0.6802  1.3804
 4711TIP3   OH214138   2.987   1.668   2.806 -0.9608  0.1613  0.6329
 4711TIP3    H114139   2.992   1.702   2.895  0.2607 -0.4203  0.8216
 4711TIP3    H214140   3.041   1.588   2.809  0.1993  0.8427 -0.9319
 4712TIP3   OH214141   4.425   0.939   1.924  0.8924  0.2750  0.1029
 4712TIP3    H114142   4.374   0.951   2.004  0.5306 -0.6248  0.0171
 4712TIP3    H214143   4.401   1.013   1.869  0.5690  0.4883  0.5244
 4713TIP3   OH214144   0.401   3.189   1.196  0.2131 -1.0249  0.0336
 4713TIP3    H114145   0.392   3.273   1.151  1.8259  0.4826  2.3050
 4713TIP3    H214146   0.351   3.199   1.277 -1.4446 -3.1423 -0.6501
 4714TIP3   OH214147   6.095   3.357   4.452  0.1257 -0.4930  0.3042
 4714TIP3    H114148   6.145   3.436   4.473  1.8805 -0.5773 -3.0115
 4714TIP3    H214149   6.148   3.285   4.485  0.9788 -0.4589 -0.9397
 4715TIP3   OH214150   6.252   3.308   1.876  0.0447 -0.8187 -0.3257
 4715TIP3    H114151   6.251   3.240   1.943 -0.5524 -0.8915 -0.3964
 4715TIP3    H214152   6.293   3.267   1.800  0.1589 -0.9342 -0.1998
 4716TIP3   OH214153   0.149   5.191   2.027  0.0000 -0.5680  0.7606
 4716TIP3    H114154   0.102   5.237   1.957  0.8183 -0.1683  0.4561
 4716TIP3    H214155   0.085   5.130   2.063 -0.4258 -0.8053 -0.3687
 4717TIP3   OH214156   0.237   4.955   3.912 -0.4708 -0.8138 -0.3476
 4717TIP3    H114157   0.186   4.964   3.831 -0.1007  1.6513 -0.4060
 4717TIP3    H214158   0.192   5.010   3.975  1.7861  1.2063 -0.3136
 4718TIP3   OH214159   2.655   4.861   2.177 -0.2448 -0.4025 -0.4891
 4718TIP3    H114160   2.738   4.821   2.150 -0.3495 -0.8262 -0.1973
 4718TIP3    H214161   2.670   4.955   2.167  0.8720 -0.3520  1.1513
 4719TIP3   OH214162   0.189   1.529   2.136 -0.0342 -0.4024 -0.3553
 4719TIP3    H114163   0.220   1.506   2.048 -1.1819  0.3038 -0.9813
 4719TIP3    H214164   0.123   1.464   2.156 -1.6179  0.8799 -1.1467
 4720TIP3   OH214165   4.009   5.303   0.332  0.3935 -0.2651  0.2289
 4720TIP3    H114166   4.078   5.240   0.312 -0.1695 -0.2569 -2.0650
 4720TIP3    H214167   4.026   5.376   0.272 -1.4354 -0.1537 -0.2080
 4721TIP3   OH214168   4.442   5.677   4.404 -0.3096 -0.5330  0.6123
 4721TIP3    H114169   4.501   5.602   4.418  2.4263  1.1491 -1.0985
 4721TIP3    H214170   4.375   5.644   4.344  1.3304 -1.4564 -0.8109
 4722TIP3   OH214171   1.661   5.073   0.834 -0.2181 -0.1072 -0.0416
 4722TIP3    H114172   1.733   5.126   0.802  0.6561 -1.1481  0.1345
 4722TIP3    H214173   1.686   4.983   0.813 -0.9559 -0.5792  0.9982
 4723TIP3   OH214174   5.299   3.130   3.265  0.2755 -0.2264 -0.2996
 4723TIP3    H114175   5.294   3.142   3.360 -0.0063 -2.2968  0.0016
 4723TIP3    H214176   5.246   3.052   3.248  2.0063 -1.1614 -1.8647
 4724TIP3   OH214177   2.943   3.385   1.639  0.3031  0.8559  0.3631
 4724TIP3    H114178   2.947   3.434   1.557 -0.8433  1.5727  0.7023
 4724TIP3    H214179   2.880   3.315   1.623  0.0101  1.0494  0.6465
 4725TIP3   OH214180   4.715   2.397   0.097 -0.5035  0.1637  0.0867
 4725TIP3    H114181   4.709   2.323   0.158  0.0303 -0.1459 -0.2286
 4725TIP3    H214182   4.807   2.421   0.098 -0.2197 -0.7068 -1.6059
 4726TIP3   OH214183   2.233   3.867   0.513 -0.2235  0.2764 -0.5954
 4726TIP3    H114184   2.149   3.899   0.479 -0.5130  0.8193  0.5776
 4726TIP3    H214185   2.260   3.933   0.577  0.1694 -0.8178  0.4125
 4727TIP3   OH214186   3.028   2.302   5.097 -0.6005 -0.0260 -0.3879
 4727TIP3    H114187   3.039   2.219   5.142  0.4503  0.8643  1.0851
 4727TIP3    H214188   2.980   2.280   5.017 -1.9783 -1.7597  0.8364
 4728TIP3   OH214189   2.741   1.185   0.386  0.2533  0.2368  0.2671
 4728TIP3    H114190   2.676   1.212   0.451  0.5168  0.1473  0.5696
 4728TIP3    H214191   2.708   1.222   0.303  1.0337  2.2267  0.7814
 4729TIP3   OH214192   0.927   2.771   4.338 -0.1087  0.0137 -0.2628
 4729TIP3    H114193   0.943   2.828   4.413  0.3594  1.8857 -1.7256
 4729TIP3    H214194   0.991   2.797   4.273 -0.8372 -1.2019 -1.5263
 4730TIP3   OH214195   1.825   2.901   2.214  0.5308  0.1699 -0.4184
 4730TIP3    H114196   1.911   2.917   2.253  1.0571  0.2062 -1.5735
 4730TIP3    H214197   1.775   2.981   2.233  1.1735  0.6817 -0.8608
 4731TIP3   OH214198   4.705   1.988   4.958 -0.1149  0.2552 -0.1368
 4731TIP3    H114199   4.659   2.061   5.001  0.4239 -0.0375  0.9854
 4731TIP3    H214200   4.781   2.029   4.918  0.7560  0.2099  1.3777
 4732TIP3   OH214201   2.924   3.536   0.109  0.1974  0.1280 -0.0438
 4732TIP3    H114202   2.853   3.506   0.165  0.0749 -1.2910 -0.9151
 4732TIP3    H214203   2.956   3.457   0.066  0.4265  1.1225 -1.8008
 4733TIP3   OH214204   1.723   1.105   3.110 -0.0241  0.6237 -0.1769
 4733TIP3    H114205   1.771   1.028   3.080  0.2724  0.2188  1.2503
 4733TIP3    H214206   1.678   1.138   3.032 -1.4673 -1.9368 -0.5242
 4734TIP3   OH214207   3.041   0.457   4.099 -0.2182  0.1043 -0.3407
 4734TIP3    H114208   2.968   0.417   4.052  0.9972 -2.8469  0.0594
 4734TIP3    H214209   3.028   0.429   4.190  0.2356  1.4344  0.1542
 4735TIP3   OH214210   2.388   5.191   1.057 -0.4816  0.0605 -0.1748
 4735TIP3    H114211   2.374   5.098   1.035 -1.3010  0.0073  0.5401
 4735TIP3    H214212   2.307   5.218   1.099 -0.9395  1.5872 -1.9293
 4736TIP3   OH214213   3.980   1.654   3.151  0.1179  0.3113  0.1432
 4736TIP3    H114214   4.055   1.710   3.132 -0.3788  0.3911 -1.8207
 4736TIP3    H214215   3.906   1.715   3.155 -0.6647 -0.2115 -3.4502
 4737TIP3   OH214216   6.047   5.694   4.186 -0.0246 -0.1039  0.3147
 4737TIP3    H114217   6.009   5.607   4.179 -0.2999  0.0421  0.0291
 4737TIP3    H214218   6.052   5.727   4.097 -0.6142  0.4723  0.4846
 4738TIP3   OH214219   5.612   2.969   2.214 -0.0710  0.0595  0.4930
 4738TIP3    H114220   5.705   2.949   2.204  0.0962 -0.1587  2.1800
 4738TIP3    H214221   5.609   3.065   2.223 -0.1475  0.1802 -0.6562
 4739TIP3   OH214222   0.975   0.946   4.373 -0.0984 -0.0894  0.1597
 4739TIP3    H114223   1.033   0.907   4.438 -0.2701  0.1303  0.4450
 4739TIP3    H214224   0.978   1.040   4.391 -0.8194 -0.1095  0.4031
 4740TIP3   OH214225   1.302   2.815   2.445 -0.4367  0.6666  0.2427
 4740TIP3    H114226   1.281   2.778   2.359  2.9181  2.0561 -1.3874
 4740TIP3    H214227   1.388   2.778   2.467  0.3364  2.8748  1.3217
 4741TIP3   OH214228   0.384   5.709   0.305 -0.1318  0.9468 -0.0376
 4741TIP3    H114229   0.439   5.631   0.312 -0.8211  0.3410 -1.0929
 4741TIP3    H214230   0.421   5.771   0.368  1.2827  0.2810 -0.1927
 4742TIP3   OH214231   1.661   4.267   0.392  0.6255  0.2121  0.4605
 4742TIP3    H114232   1.674   4.362   0.388 -1.0729  0.4460 -0.4959
 4742TIP3    H214233   1.624   4.245   0.306 -2.0001 -0.7914  1.7316
 4743TIP3   OH214234   6.300   5.030   0.115  0.2016  0.3058  0.5345
 4743TIP3    H114235   6.319   4.974   0.190 -2.6721 -0.4518  0.8241
 4743TIP3    H214236   6.234   5.092   0.147  2.4045  3.2068 -0.1141
 4744TIP3   OH214237   0.744   5.837   3.875 -0.6455 -0.0839 -0.1885
 4744TIP3    H114238   0.692   5.760   3.898 -3.1335  1.1333 -1.2997
 4744TIP3    H214239   0.782   5.815   3.790  0.6270 -0.9203  0.5562
 4745TIP3   OH214240   5.485   3.577   1.962  0.2192  0.2953 -0.8229
 4745TIP3    H114241   5.570   3.561   2.003 -0.6907 -0.2864  0.9339
 4745TIP3    H214242   5.427   3.513   2.002 -1.9912  3.3385  1.2300
 4746TIP3   OH214243   4.942   1.205   2.382 -0.7251  0.1158  0.5009
 4746TIP3    H114244   5.013   1.187   2.321  0.0053 -1.0351  1.6251
 4746TIP3    H214245   4.862   1.178   2.335  0.0130 -3.0272  0.8166
 4747TIP3   OH214246   5.364   4.813   4.257  0.1307 -0.3371 -0.2148
 4747TIP3    H114247   5.392   4.902   4.234 -3.6274  1.0227 -0.2566
 4747TIP3    H214248   5.361   4.813   4.353 -0.7680 -0.0387 -0.2307
 4748TIP3   OH214249   1.769   3.653   4.903  0.4097 -0.3018 -0.2370
 4748TIP3    H114250   1.760   3.645   4.998  1.1240 -1.7176 -0.2572
 4748TIP3    H214251   1.817   3.734   4.890 -0.4086  0.3255  0.5590
 4749TIP3   OH214252   2.745   4.008   0.463 -0.3662  0.5867 -0.2701
 4749TIP3    H114253   2.794   3.999   0.545 -3.5887  0.2037  1.7807
 4749TIP3    H214254   2.772   3.932   0.411  1.7078  0.8047  0.3738
 4750TIP3   OH214255   4.073   0.077   1.410 -0.1567 -0.1957 -0.1626
 4750TIP3    H114256   4.082   0.143   1.341  0.0894  0.3552  0.3912
 4750TIP3    H214257   4.163   0.059   1.438 -0.2423 -0.5450 -0.0966
 4751TIP3   OH214258   4.336   3.193   3.668 -0.1753  0.5297 -0.2890
 4751TIP3    H114259   4.426   3.211   3.694  0.9839 -2.4210 -1.9048
 4751TIP3    H214260   4.328   3.230   3.580 -0.4219  0.4289 -0.3113
 4752TIP3   OH214261   5.998   2.434   1.403  0.1210 -0.5860 -0.1563
 4752TIP3    H114262   5.946   2.488   1.463 -0.4538 -1.8457  0.5338
 4752TIP3    H214263   6.089   2.456   1.423 -0.0891 -0.3055  0.5322
 4753TIP3   OH214264   5.887   1.595   3.818  0.5354 -0.6176  0.1716
 4753TIP3    H114265   5.838   1.623   3.895 -0.7720 -0.3140 -0.7436
 4753TIP3    H214266   5.841   1.518   3.786  0.5365 -0.2266 -0.8007
 4754TIP3   OH214267   5.024   4.658   1.959 -0.3644 -0.0324 -0.0502
 4754TIP3    H114268   4.987   4.740   1.927 -2.5471 -0.6985  0.5729
 4754TIP3    H214269   4.975   4.640   2.040  0.8739 -1.3790  0.4477
 4755TIP3   OH214270   0.606   2.810   3.652  0.4488  0.6225 -0.0119
 4755TIP3    H114271   0.671   2.755   3.609 -0.8539 -1.1197  0.1232
 4755TIP3    H214272   0.581   2.874   3.585  3.1445  2.1858  0.3366
 4756TIP3   OH214273   5.272   0.529   1.710 -0.1379 -0.0254 -0.1267
 4756TIP3    H114274   5.226   0.452   1.742  0.8396 -1.4849 -2.0502
 4756TIP3    H214275   5.330   0.554   1.781 -0.1361 -1.3439  0.3625
 4757TIP3   OH214276   1.721   0.525   4.841 -0.4089 -0.1111 -0.2858
 4757TIP3    H114277   1.715   0.619   4.860  1.7463  0.4591 -1.9639
 4757TIP3    H214278   1.656   0.485   4.898  0.0295  2.1791  2.0359
 4758TIP3   OH214279   3.465   2.889   0.481 -0.2940 -0.3721 -0.0737
 4758TIP3    H114280   3.478   2.977   0.446  2.0790 -1.2368 -1.5760
 4758TIP3    H214281   3.553   2.853   0.489 -1.1370 -2.2498  1.5766
 4759TIP3   OH214282   5.522   5.051   4.141 -0.2986  0.3680  0.3393
 4759TIP3    H114283   5.495   5.057   4.049 -0.4342  0.4331  0.3835
 4759TIP3    H214284   5.454   5.098   4.189 -0.1532  0.4568  0.4594
 4760TIP3   OH214285   1.964   1.022   5.104 -0.6905 -0.4253  0.1755
 4760TIP3    H114286   1.998   1.017   5.015  1.4185  0.9493  0.8389
 4760TIP3    H214287   2.015   1.092   5.146 -0.6312 -1.9474  2.8798
 4761TIP3   OH214288   5.954   2.130   4.675  0.1073 -0.3371  0.0057
 4761TIP3    H114289   5.947   2.190   4.749 -1.8102  0.4213 -0.7200
 4761TIP3    H214290   6.029   2.162   4.625 -0.0040  0.5799  0.4056
 4762TIP3   OH214291   3.920   3.952   2.516 -0.7799 -0.6917  0.7478
 4762TIP3    H114292   3.906   4.045   2.498 -1.5981 -0.6768  1.4256
 4762TIP3    H214293   3.856   3.930   2.583 -0.0059 -1.5417  1.2377
 4763TIP3   OH214294   0.918   4.949   3.276 -0.6019  0.1790 -0.2451
 4763TIP3    H114295   0.890   5.040   3.265  0.2853  0.6402  1.0644
 4763TIP3    H214296   0.845   4.906   3.319 -0.1120  0.9056  1.3970
 4764TIP3   OH214297   2.209   0.453   4.886 -0.1639  0.1485 -0.1631
 4764TIP3    H114298   2.226   0.464   4.792 -2.5087  0.3086 -0.6334
 4764TIP3    H214299   2.124   0.410   4.890  1.0992 -2.4549  1.9018
 4765TIP3   OH214300   5.272   2.415   3.156  0.0037  0.3865 -0.3449
 4765TIP3    H114301   5.215   2.371   3.219 -0.6156 -0.6365 -1.5651
 4765TIP3    H214302   5.217   2.429   3.079  0.5974  2.0430 -0.5253
 4766TIP3   OH214303   1.562   3.892   4.011  0.6780  0.1395  0.0479
 4766TIP3    H114304   1.502   3.936   4.071  0.4996  0.1322 -0.1278
 4766TIP3    H214305   1.595   3.962   3.955 -0.8068 -0.1785 -1.2751
 4767TIP3   OH214306   5.529   1.141   4.506 -0.0311  0.3053 -0.5407
 4767TIP3    H114307   5.470   1.100   4.568 -0.1316  0.8954 -0.2354
 4767TIP3    H214308   5.582   1.201   4.559  1.0999 -0.4822 -0.7534
 4768TIP3   OH214309   4.197   1.110   4.113 -0.5111  0.3254  0.2468
 4768TIP3    H114310   4.282   1.151   4.100  0.2650 -1.2390  0.1031
 4768TIP3    H214311   4.140   1.181   4.141  0.3934  1.7461 -1.3400
 4769TIP3   OH214312   0.720   5.182   0.925 -0.4954 -0.0569 -0.1145
 4769TIP3    H114313   0.760   5.200   0.840  0.4479 -1.1244  0.0712
 4769TIP3    H214314   0.651   5.118   0.907 -1.5095  1.0574 -0.3007
 4770TIP3   OH214315   0.848   2.262   1.667 -0.9589  0.2280  0.0726
 4770TIP3    H114316   0.760   2.297   1.650 -0.2156  1.3861 -1.6396
 4770TIP3    H214317   0.893   2.270   1.583  0.7550 -0.4785  0.8949
 4771TIP3   OH214318   4.962   3.959   2.339  0.1468 -0.5474  0.3042
 4771TIP3    H114319   4.878   3.915   2.323 -0.7078  1.0001  0.3785
 4771TIP3    H214320   4.993   3.983   2.251 -0.9325  1.3940  0.3831
 4772TIP3   OH214321   5.195   3.848   4.234  0.3126  0.2181  0.1890
 4772TIP3    H114322   5.279   3.886   4.261 -0.1219  0.3942  1.3691
 4772TIP3    H214323   5.191   3.764   4.279 -0.7878  0.8737  1.3919
 4773TIP3   OH214324   3.633   4.230   3.407 -0.2401  0.7089  1.0252
 4773TIP3    H114325   3.654   4.223   3.500  2.6474 -3.4171  0.3103
 4773TIP3    H214326   3.704   4.283   3.370  0.5703 -0.5522  0.7349
 4774TIP3   OH214327   0.172   1.849   0.461  0.0024  0.1046 -0.4029
 4774TIP3    H114328   0.195   1.793   0.387  0.6397  1.1896 -1.0733
 4774TIP3    H214329   0.093   1.896   0.432  1.0425  1.5640 -1.0147
 4775TIP3   OH214330   0.408   5.915   3.586  0.5827  0.0773 -0.0280
 4775TIP3    H114331   0.479   5.931   3.647  0.8947  0.0262 -0.3747
 4775TIP3    H214332   0.442   5.941   3.500 -0.3565  1.5713  0.0083
 4776TIP3   OH214333   2.712   0.518   5.161  0.2652 -0.2607 -0.3110
 4776TIP3    H114334   2.767   0.539   5.086  0.9684 -2.5896 -0.5077
 4776TIP3    H214335   2.626   0.553   5.139  0.2753 -1.5116 -2.5326
 4777TIP3   OH214336   0.616   2.110   0.449 -0.2693 -0.3592 -0.2464
 4777TIP3    H114337   0.603   2.018   0.430  1.0100 -0.8912  1.2378
 4777TIP3    H214338   0.534   2.138   0.489 -0.0877 -1.2988  0.8221
 4778TIP3   OH214339   2.885   2.499   4.186  0.2475 -0.1913 -0.0764
 4778TIP3    H114340   2.821   2.550   4.137 -0.4668  0.6509  1.6574
 4778TIP3    H214341   2.948   2.469   4.120 -0.2278  1.5484 -1.3816
 4779TIP3   OH214342   5.785   1.473   0.999 -0.0289  0.2134  0.2549
 4779TIP3    H114343   5.809   1.389   1.037  0.5491  0.3378  0.1715
 4779TIP3    H214344   5.715   1.452   0.937  1.1417 -0.4470 -0.8989
 4780TIP3   OH214345   0.454   4.755   3.545 -0.6290 -0.6187 -0.2680
 4780TIP3    H114346   0.367   4.788   3.520 -0.9342 -1.9791 -1.1344
 4780TIP3    H214347   0.467   4.679   3.489  0.4205 -1.4237  1.0158
 4781TIP3   OH214348   5.977   5.894   3.052 -0.3148 -0.5059  0.3059
 4781TIP3    H114349   5.902   5.844   3.019 -0.3270  0.5772 -1.4292
 4781TIP3    H214350   6.054   5.844   3.024 -0.3565 -0.3645 -0.0696
 4782TIP3   OH214351   5.444   2.339   0.930  0.0450  0.0687 -0.0552
 4782TIP3    H114352   5.358   2.300   0.915 -0.5286  1.7691 -1.6085
 4782TIP3    H214353   5.506   2.270   0.909 -0.9169 -0.8136 -0.0863
 4783TIP3   OH214354   2.949   1.321   1.546 -0.5884 -0.3130 -0.3206
 4783TIP3    H114355   2.971   1.409   1.514  0.5797 -0.3808  0.2458
 4783TIP3    H214356   2.965   1.325   1.640 -2.1679 -0.6645 -0.0119
 4784TIP3   OH214357   0.440   3.076   4.491  0.1095 -0.2350 -0.1677
 4784TIP3    H114358   0.418   3.016   4.563  0.5882  0.0082  0.1888
 4784TIP3    H214359   0.398   3.159   4.515 -0.9685 -0.5449 -0.9051
 4785TIP3   OH214360   4.014   5.608   1.221  0.3804 -0.9299  0.4595
 4785TIP3    H114361   3.945   5.667   1.250 -0.4787 -1.0618 -1.2169
 4785TIP3    H214362   4.022   5.543   1.291 -1.1141 -0.8429  0.7235
 4786TIP3   OH214363   4.885   5.525   3.917  0.0618  0.5250 -0.4828
 4786TIP3    H114364   4.816   5.529   3.983  0.5094  0.2063  0.0104
 4786TIP3    H214365   4.896   5.616   3.889  0.2273  0.7465  0.2698
 4787TIP3   OH214366   1.780   3.166   4.988 -0.5437 -0.3707  0.6791
 4787TIP3    H114367   1.750   3.115   4.913 -0.2475 -0.8179  0.8587
 4787TIP3    H214368   1.836   3.234   4.949 -0.0417 -0.8632  0.5261
 4788TIP3   OH214369   5.498   2.695   4.388  0.2540  0.1886  0.0848
 4788TIP3    H114370   5.496   2.785   4.356 -0.5914  0.3013  0.4585
 4788TIP3    H214371   5.442   2.647   4.327  1.1075 -0.1940 -0.4187
 4789TIP3   OH214372   4.307   3.994   3.942  0.0273  0.3912  0.3612
 4789TIP3    H114373   4.332   3.905   3.965  2.0186  0.7796 -0.1182
 4789TIP3    H214374   4.253   3.984   3.863 -0.1388 -0.4010  0.5657
 4790TIP3   OH214375   5.140   4.394   3.353 -0.6032  0.3941  0.2200
 4790TIP3    H114376   5.205   4.441   3.406  0.0518  1.2168 -1.2600
 4790TIP3    H214377   5.060   4.445   3.363 -0.9289 -0.3228  1.6186
 4791TIP3   OH214378   1.349   0.115   1.416  0.0926 -0.2376  0.6139
 4791TIP3    H114379   1.281   0.131   1.351  0.9201  2.0580  0.2247
 4791TIP3    H214380   1.411   0.058   1.371  0.6998  1.3859 -0.7235
 4792TIP3   OH214381   4.302   1.056   2.513 -0.4343  0.5604 -0.0360
 4792TIP3    H114382   4.250   1.042   2.592  1.6589  3.1543  1.9540
 4792TIP3    H214383   4.244   1.104   2.454 -0.5974  2.9820  1.9434
 4793TIP3   OH214384   4.672   5.007   3.436 -0.1368  0.2824 -0.1716
 4793TIP3    H114385   4.605   4.999   3.368 -1.1871 -0.7764  0.9296
 4793TIP3    H214386   4.732   4.935   3.419  0.0843  0.5376 -0.4797
 4794TIP3   OH214387   4.471   5.751   1.595  0.0395 -0.1798 -0.4564
 4794TIP3    H114388   4.544   5.739   1.655 -0.5101 -0.1745  0.2214
 4794TIP3    H214389   4.394   5.721   1.644 -0.1933 -1.9207 -1.7742
 4795TIP3   OH214390   2.398   5.899   3.002  0.3445 -0.7442 -0.1751
 4795TIP3    H114391   2.403   5.837   3.074 -0.1621 -1.3367 -0.6398
 4795TIP3    H214392   2.387   5.984   3.045 -0.6047 -1.1580  0.4467
 4796TIP3   OH214393   3.972   0.278   0.037  0.4556  0.3501  0.1926
 4796TIP3    H114394   3.986   0.355   0.093 -0.1342 -0.0806  0.9584
 4796TIP3    H214395   4.055   0.265  -0.008  0.3012  2.0014 -0.6837
 4797TIP3   OH214396   2.647   1.862   5.064  0.3639  0.0078 -0.1500
 4797TIP3    H114397   2.691   1.807   5.128 -1.0579  0.4476  1.2778
 4797TIP3    H214398   2.635   1.946   5.108 -3.1845 -0.5270  0.1883
 4798TIP3   OH214399   2.180   0.782   0.241 -0.5404  0.0911 -0.3965
 4798TIP3    H114400   2.230   0.731   0.305 -1.3738 -2.0762 -1.4010
 4798TIP3    H214401   2.193   0.737   0.158 -2.4062  0.7108 -1.0848
 4799TIP3   OH214402   1.371   1.772   0.751 -0.3160 -0.1397 -0.0746
 4799TIP3    H114403   1.461   1.802   0.738 -0.3199 -0.8550 -2.0364
 4799TIP3    H214404   1.317   1.849   0.735 -0.0893  0.2187  0.8179
 4800TIP3   OH214405   2.221   2.435   5.136 -0.4652  0.5751 -0.1095
 4800TIP3    H114406   2.161   2.447   5.210  0.3637  0.0637  0.6708
 4800TIP3    H214407   2.175   2.373   5.079 -1.3558  1.3951 -0.3184
 4801TIP3   OH214408   5.707   4.963   0.263 -0.1085  0.4034 -0.4832
 4801TIP3    H114409   5.752   4.898   0.317  2.4990  2.6913  0.3302
 4801TIP3    H214410   5.627   4.985   0.312  0.0986 -0.5812  0.3127
 4802TIP3   OH214411   2.595   1.406   0.532 -0.2695 -0.0696 -0.1599
 4802TIP3    H114412   2.617   1.483   0.584  2.0444 -0.6866 -0.1286
 4802TIP3    H214413   2.576   1.338   0.596  0.4167 -0.2388 -0.1249
 4803TIP3   OH214414   2.070   3.341   0.982  0.5032  0.1215 -0.3129
 4803TIP3    H114415   2.021   3.404   0.929  1.0501  0.1390 -0.8154
 4803TIP3    H214416   2.062   3.258   0.934  0.2348 -0.0712  0.0620
 4804TIP3   OH214417   4.454   2.187   0.037 -0.0562 -0.0644 -0.5567
 4804TIP3    H114418   4.390   2.233   0.091 -1.4722 -1.6450 -0.8412
 4804TIP3    H214419   4.480   2.252  -0.029 -2.6845  0.1106 -1.5121
 4805TIP3   OH214420   1.983   5.775   4.674  0.2363 -0.3529  0.0313
 4805TIP3    H114421   1.987   5.780   4.579  0.7157 -0.2785  0.0552
 4805TIP3    H214422   2.070   5.800   4.704 -0.2636  0.8690  0.5487
 4806TIP3   OH214423   5.882   0.716   3.891 -0.4418 -0.4799  0.5409
 4806TIP3    H114424   5.939   0.777   3.845  0.7664 -1.8861  0.0814
 4806TIP3    H214425   5.823   0.771   3.943  1.0043  1.0358  0.6291
 4807TIP3   OH214426   5.284   1.123   1.899  0.2408  0.1736  0.5042
 4807TIP3    H114427   5.232   1.159   1.826 -1.1273 -0.8033  0.9666
 4807TIP3    H214428   5.374   1.123   1.866 -0.6044 -2.8009 -2.3411
 4808TIP3   OH214429   3.463   4.815   0.893  0.0920  0.2577 -0.5652
 4808TIP3    H114430   3.491   4.855   0.976  1.2576 -1.2215 -0.1922
 4808TIP3    H214431   3.389   4.868   0.864 -0.6964  0.4941  1.7053
 4809TIP3   OH214432   0.875   0.575   0.513  0.4863 -0.1303  0.1244
 4809TIP3    H114433   0.817   0.595   0.440 -0.4053 -1.2695  0.4841
 4809TIP3    H214434   0.866   0.650   0.572  0.9224  0.6182 -0.7549
 4810TIP3   OH214435   1.807   3.985   2.458 -0.1757  0.1153  0.1405
 4810TIP3    H114436   1.755   4.018   2.385 -1.7439 -0.8022  0.7898
 4810TIP3    H214437   1.855   3.911   2.422 -1.8050 -1.0533  0.2372
 4811TIP3   OH214438   4.684   2.742   2.519 -0.2009  0.1365  0.3920
 4811TIP3    H114439   4.674   2.646   2.525 -1.7739  0.0972 -1.6705
 4811TIP3    H214440   4.778   2.755   2.505  0.0647 -1.0895  0.8609
 4812TIP3   OH214441   4.065   1.622   3.446 -0.3786  0.4413 -0.8185
 4812TIP3    H114442   4.139   1.677   3.470 -0.7351  0.9359 -0.8106
 4812TIP3    H214443   4.041   1.652   3.357 -0.6573  0.3953 -0.7613
 4813TIP3   OH214444   6.027   0.172   3.597  0.4215  0.1660 -0.0180
 4813TIP3    H114445   6.105   0.142   3.645  0.5144 -0.2969 -0.4526
 4813TIP3    H214446   6.063   0.215   3.519  0.2130 -1.5893 -1.1105
 4814TIP3   OH214447   0.651   1.130   3.466  0.8197 -0.0359 -0.2063
 4814TIP3    H114448   0.619   1.220   3.475  0.0272 -0.3845  0.6539
 4814TIP3    H214449   0.744   1.139   3.444  0.6536  0.9910 -0.5138
 4815TIP3   OH214450   0.888   4.578   0.790  0.4323  0.2937 -0.3384
 4815TIP3    H114451   0.978   4.589   0.761  0.7235  1.7193  0.9779
 4815TIP3    H214452   0.861   4.494   0.753  3.7887 -2.5122  2.7950
 4816TIP3   OH214453   5.345   5.818   3.250 -0.4910  0.7687  0.6473
 4816TIP3    H114454   5.348   5.813   3.346 -1.9085  0.8314  0.7176
 4816TIP3    H214455   5.366   5.730   3.221  0.7291  0.9317  0.9733
 4817TIP3   OH214456   3.645   5.109   4.057  0.4369 -0.2341 -0.2794
 4817TIP3    H114457   3.643   5.196   4.019 -1.4661 -0.1693 -0.1202
 4817TIP3    H214458   3.556   5.075   4.045  0.8201 -1.6871  0.7045
 4818TIP3   OH214459   5.666   5.166   3.543 -0.5555  0.6007 -0.2812
 4818TIP3    H114460   5.680   5.251   3.501 -0.5500  0.7437  0.0078
 4818TIP3    H214461   5.575   5.169   3.573 -0.5503  0.5111 -0.2570
 4819TIP3   OH214462   3.074   2.624   1.299  0.3596 -0.1138 -0.4563
 4819TIP3    H114463   3.098   2.694   1.360 -0.4101  0.7207 -1.0808
 4819TIP3    H214464   2.987   2.648   1.267  0.6515 -0.6366 -1.7275
 4820TIP3   OH214465   1.928   0.464   2.930 -0.7042 -0.4355 -0.4205
 4820TIP3    H114466   1.847   0.429   2.892 -1.4835 -0.5303  1.2306
 4820TIP3    H214467   1.998   0.419   2.883 -1.5855 -0.4652 -1.7843
 4821TIP3   OH214468   1.476   4.597   0.797 -0.8945  0.0306 -0.3845
 4821TIP3    H114469   1.472   4.604   0.892 -0.2684  1.1279 -0.4142
 4821TIP3    H214470   1.541   4.663   0.771 -0.5305 -0.7423 -1.5136
 4822TIP3   OH214471   6.318   0.419   3.700  0.0510  0.1291  0.4540
 4822TIP3    H114472   6.367   0.398   3.779  0.3571  1.4350  0.6369
 4822TIP3    H214473   6.249   0.479   3.730 -0.2151  0.1486 -0.1746
 4823TIP3   OH214474   4.556   5.418   2.755 -0.5222 -0.0565  0.4777
 4823TIP3    H114475   4.490   5.468   2.804 -1.2100 -1.0868  0.6335
 4823TIP3    H214476   4.552   5.330   2.792  0.8859 -0.1680  0.4105
 4824TIP3   OH214477   0.461   0.612   3.475 -0.9089  0.2599  0.1224
 4824TIP3    H114478   0.375   0.586   3.508 -0.8725  1.0332  0.8471
 4824TIP3    H214479   0.443   0.687   3.418 -0.8635 -0.4844 -0.9099
 4825TIP3   OH214480   2.628   5.129   1.684  0.0485  0.1522 -1.1877
 4825TIP3    H114481   2.607   5.205   1.737 -0.6055 -0.9251  0.1792
 4825TIP3    H214482   2.546   5.107   1.640  0.1337  0.0149 -1.2810
 4826TIP3   OH214483   2.161   0.839   4.153 -0.6207  0.2637  0.3839
 4826TIP3    H114484   2.164   0.744   4.160  0.2176  0.2834  0.4428
 4826TIP3    H214485   2.072   0.863   4.178 -0.7025 -0.4679  0.8119
 4827TIP3   OH214486   3.912   2.523   1.655 -0.3964  0.1796 -0.1241
 4827TIP3    H114487   3.866   2.447   1.693 -0.4660 -0.8648 -2.1982
 4827TIP3    H214488   3.881   2.527   1.565 -0.4599  2.7788 -0.0594
 4828TIP3   OH214489   3.360   5.506   4.461 -0.4184 -0.5215 -0.5424
 4828TIP3    H114490   3.400   5.492   4.547 -1.0334 -0.3507 -0.2271
 4828TIP3    H214491   3.273   5.467   4.468 -0.4534 -0.5485 -1.1061
 4829TIP3   OH214492   0.188   2.221   4.643 -0.5679 -0.2755 -1.1671
 4829TIP3    H114493   0.227   2.240   4.728  0.3767 -0.6595 -1.4994
 4829TIP3    H214494   0.094   2.223   4.658 -0.4283  0.7115 -0.3416
 4830TIP3   OH214495   0.368   3.621   4.959 -0.1055  0.5936  0.4704
 4830TIP3    H114496   0.437   3.569   4.998  1.1451  2.0046  0.2162
 4830TIP3    H214497   0.309   3.642   5.032 -2.4810 -3.6809  0.1358
 4831TIP3   OH214498   3.058   0.915   3.808 -0.2177  0.5502  0.0288
 4831TIP3    H114499   3.066   0.820   3.798  2.2194  0.6537  0.2696
 4831TIP3    H214500   2.965   0.932   3.800 -0.8178 -1.9452  0.6996
 4832TIP3   OH214501   2.025   0.758   1.583 -0.1174  0.5175 -0.4313
 4832TIP3    H114502   2.023   0.853   1.589  1.9736  0.5911 -0.2502
 4832TIP3    H214503   2.023   0.727   1.673  0.0548  0.4247 -0.4582
 4833TIP3   OH214504   4.707   4.925   1.681  0.0775  0.0054 -0.6834
 4833TIP3    H114505   4.752   5.007   1.700  0.7416 -0.6784  0.7642
 4833TIP3    H214506   4.632   4.952   1.627 -0.1891  1.6599  0.4451
 4834TIP3   OH214507   1.809   4.775   2.797  0.8442 -0.6265  0.3026
 4834TIP3    H114508   1.894   4.766   2.754  1.2501  2.0859  0.3641
 4834TIP3    H214509   1.826   4.756   2.889  1.5666  0.4918  0.4214
 4835TIP3   OH214510   0.948   3.079   4.023 -0.5895 -0.4400  0.3518
 4835TIP3    H114511   0.894   3.030   3.960 -0.8302  0.1537  0.0871
 4835TIP3    H214512   0.997   3.141   3.969  1.4677 -1.9102  0.4109
 4836TIP3   OH214513   4.800   2.032   3.381 -0.0354 -0.3518 -0.3395
 4836TIP3    H114514   4.810   2.108   3.324  0.8500  1.4483  2.0479
 4836TIP3    H214515   4.789   1.958   3.321  1.1144  1.3532 -2.8183
 4837TIP3   OH214516   3.567   2.919   4.965 -0.2221 -0.4457  0.0790
 4837TIP3    H114517   3.565   2.948   4.874  0.1022 -0.3693  0.0960
 4837TIP3    H214518   3.572   2.823   4.959 -2.1673 -0.5852  0.0236
 4838TIP3   OH214519   4.522   1.724   0.621  0.4849  0.4110  0.1372
 4838TIP3    H114520   4.584   1.711   0.549  1.7994  1.8401  0.9219
 4838TIP3    H214521   4.565   1.684   0.697 -1.1714 -1.6477  0.0722
 4839TIP3   OH214522   1.795   0.820   0.997  0.3080  0.3289  0.0640
 4839TIP3    H114523   1.780   0.752   0.931 -0.2178  0.9155 -0.4387
 4839TIP3    H214524   1.770   0.779   1.079  1.2479 -0.5125 -0.0451
 4840TIP3   OH214525   4.237   1.452   5.151  0.3849  0.1468 -0.0251
 4840TIP3    H114526   4.194   1.414   5.228  1.4485 -0.4618  0.2799
 4840TIP3    H214527   4.228   1.384   5.084 -0.5423  0.6775 -0.4500
 4841TIP3   OH214528   4.524   4.788   4.140  0.4205 -0.7680 -0.6675
 4841TIP3    H114529   4.535   4.723   4.210  1.9589  0.9493  0.7726
 4841TIP3    H214530   4.439   4.829   4.158  0.5936 -0.6606 -0.0939
 4842TIP3   OH214531   2.915   2.481   2.595 -1.0592 -0.5925 -1.0065
 4842TIP3    H114532   2.957   2.505   2.677  0.4571 -1.5050 -1.4683
 4842TIP3    H214533   2.822   2.500   2.608 -0.4027  2.8764 -0.4083
 4843TIP3   OH214534   6.043   1.433   4.916  0.4390  0.4937 -0.1323
 4843TIP3    H114535   6.130   1.472   4.908  0.7993  0.2370  1.8405
 4843TIP3    H214536   5.982   1.502   4.891  1.1760  0.8310 -1.0649
 4844TIP3   OH214537   2.295   0.268   0.263  0.3632  0.3057 -0.0789
 4844TIP3    H114538   2.279   0.179   0.293  2.3135  0.3503  1.2225
 4844TIP3    H214539   2.207   0.307   0.257 -0.5060 -1.5743 -0.4286
 4845TIP3   OH214540   2.503   0.281   2.553  0.1352  0.0094  0.5213
 4845TIP3    H114541   2.447   0.348   2.515  1.3870  0.4923 -0.5515
 4845TIP3    H214542   2.587   0.325   2.568  0.6379 -1.0243  0.8501
 4846TIP3   OH214543   5.205   5.317   0.880 -0.1713  0.3190 -0.4812
 4846TIP3    H114544   5.126   5.279   0.841 -0.6507  0.6194  0.1721
 4846TIP3    H214545   5.226   5.260   0.954  1.0042 -0.5143 -1.4218
 4847TIP3   OH214546   0.900   2.711   2.085  0.1890 -0.0534  0.5117
 4847TIP3    H114547   0.961   2.640   2.103 -0.7500 -1.1540 -0.5170
 4847TIP3    H214548   0.814   2.669   2.081 -0.1723  0.7925 -2.0185
 4848TIP3   OH214549   5.746   1.456   2.469 -0.2730  0.1789  0.1958
 4848TIP3    H114550   5.836   1.424   2.465 -0.5669 -0.5733 -0.5363
 4848TIP3    H214551   5.693   1.377   2.480 -1.1119  0.2331 -2.7880
 4849TIP3   OH214552   0.848   0.099   2.938 -0.0513  0.2967 -0.2391
 4849TIP3    H114553   0.765   0.097   2.891  0.5824  0.2447 -1.4085
 4849TIP3    H214554   0.831   0.052   3.020 -0.6394 -1.6612 -1.4001
 4850TIP3   OH214555   3.293   2.018   3.092  0.7253 -0.5765  0.2905
 4850TIP3    H114556   3.220   1.972   3.133 -0.0793  1.1793  0.9256
 4850TIP3    H214557   3.371   1.971   3.120  0.0733 -0.4374  2.5100
 4851TIP3   OH214558   2.954   0.941   0.925  0.0845  0.3785  0.1660
 4851TIP3    H114559   3.024   0.923   0.988 -1.0572 -1.8134  0.8785
 4851TIP3    H214560   2.986   0.904   0.843 -0.2180 -0.6056  0.4860
 4852TIP3   OH214561   3.165   3.249   1.122  0.1413 -0.3258  0.2758
 4852TIP3    H114562   3.153   3.156   1.141  1.4568 -0.3465  1.1081
 4852TIP3    H214563   3.178   3.290   1.207 -1.7904  0.8669  0.0478
 4853TIP3   OH214564   0.199   4.451   5.045 -0.5681 -0.0276  0.2912
 4853TIP3    H114565   0.131   4.409   5.098 -1.8100  0.3992 -0.9025
 4853TIP3    H214566   0.212   4.536   5.086  0.9959 -0.9761  1.9220
 4854TIP3   OH214567   1.445   4.637   1.068  0.0318 -0.2229  0.3212
 4854TIP3    H114568   1.533   4.665   1.091 -1.0309  2.0838  2.0392
 4854TIP3    H214569   1.388   4.687   1.127 -2.4256 -1.5902 -0.7480
 4855TIP3   OH214570   5.617   4.648   2.795  0.8892  0.6260  0.2933
 4855TIP3    H114571   5.541   4.661   2.850  0.3283  0.6340 -0.4641
 4855TIP3    H214572   5.599   4.701   2.717  1.0019 -0.4947 -0.5225
 4856TIP3   OH214573   2.559   4.414   2.675  0.1700  0.4703 -0.1353
 4856TIP3    H114574   2.556   4.339   2.736 -2.3031  0.8893  0.3656
 4856TIP3    H214575   2.548   4.491   2.731 -0.7491  0.9580 -0.9496
 4857TIP3   OH214576   4.744   3.677   0.881  0.3873  0.8853 -0.1099
 4857TIP3    H114577   4.694   3.753   0.850  0.3068  0.6766 -0.5105
 4857TIP3    H214578   4.689   3.602   0.858  0.3996  0.7155  0.4151
 4858TIP3   OH214579   2.590   4.569   3.571  0.8854 -0.2052 -0.0470
 4858TIP3    H114580   2.581   4.663   3.559 -0.3357 -0.2520  0.3424
 4858TIP3    H214581   2.510   4.532   3.533  0.7768 -0.9749  0.8760
 4859TIP3   OH214582   2.390   0.715   1.265  0.1766 -0.6792  0.2113
 4859TIP3    H114583   2.482   0.708   1.239 -0.0335  0.2065 -0.8313
 4859TIP3    H214584   2.386   0.672   1.350  1.0224 -3.2420 -0.9226
 4860TIP3   OH214585   4.211   3.140   4.846 -0.0360 -0.2790 -0.3845
 4860TIP3    H114586   4.152   3.205   4.883 -1.4323 -1.7189  0.0081
 4860TIP3    H214587   4.261   3.187   4.780 -1.4465  1.0427 -0.5461
 4861TIP3   OH214588   4.889   0.666   5.134 -0.0224 -1.0902  0.1481
 4861TIP3    H114589   4.822   0.713   5.184  1.4591  0.4737  0.7529
 4861TIP3    H214590   4.870   0.688   5.043  1.5976  2.2410  0.4690
 4862TIP3   OH214591   2.096  -0.011   2.668  0.0720  0.6720  0.1566
 4862TIP3    H114592   2.047   0.066   2.637 -0.7948  0.3756  0.7407
 4862TIP3    H214593   2.187   0.019   2.672  0.1659  0.8945 -2.0970
 4863TIP3   OH214594   4.966   0.140   2.160 -0.0984 -0.3049  0.3414
 4863TIP3    H114595   5.046   0.138   2.107  1.1356  2.2845  1.8797
 4863TIP3    H214596   4.906   0.194   2.109  0.1948  0.1114  0.4244
 4864TIP3   OH214597   2.181   2.307   1.852 -0.0851  0.5232  0.2149
 4864TIP3    H114598   2.179   2.211   1.851 -1.1388  0.5282 -1.3072
 4864TIP3    H214599   2.234   2.331   1.777  0.4291  1.1534  0.7675
 4865TIP3   OH214600   2.319   1.922   4.003 -0.2195  0.4964 -0.0665
 4865TIP3    H114601   2.380   1.974   3.951 -1.4675  1.2855 -0.7957
 4865TIP3    H214602   2.330   1.833   3.970 -1.0054  0.9776 -1.7566
 4866TIP3   OH214603   5.211   1.959   2.273 -0.5265 -0.8253 -0.8050
 4866TIP3    H114604   5.246   1.970   2.185 -0.6830  0.7628 -0.6958
 4866TIP3    H214605   5.259   1.884   2.308  2.0781  0.5811 -1.0430
 4867TIP3   OH214606   3.457   4.358   3.217 -0.5136 -0.0283  0.5576
 4867TIP3    H114607   3.516   4.297   3.261  0.1518  0.4700  0.3848
 4867TIP3    H214608   3.411   4.403   3.289 -0.2054  0.0350  0.7170
 4868TIP3   OH214609   2.727   0.418   0.275 -0.0719 -0.3239  0.0118
 4868TIP3    H114610   2.681   0.370   0.207 -0.4848  1.5958 -1.1164
 4868TIP3    H214611   2.723   0.360   0.352 -0.7937 -1.9305 -1.1767
 4869TIP3   OH214612   2.450   3.657   0.208 -0.6073 -0.2357  0.0287
 4869TIP3    H114613   2.484   3.721   0.271 -1.0224  0.7151 -0.6903
 4869TIP3    H214614   2.528   3.611   0.177 -0.3105 -0.1472  0.6350
 4870TIP3   OH214615   2.974   0.604   2.904 -0.2238  0.5300 -0.1282
 4870TIP3    H114616   2.927   0.685   2.925 -0.0658  0.3142  1.1033
 4870TIP3    H214617   3.066   0.625   2.919 -0.2220 -0.0084  0.6552
 4871TIP3   OH214618   3.645   4.530   0.371 -0.5068  0.1925 -0.4594
 4871TIP3    H114619   3.689   4.446   0.359  1.6787  1.2528 -0.3988
 4871TIP3    H214620   3.592   4.540   0.293  0.3118 -0.6224 -1.1478
 4872TIP3   OH214621   3.236   0.624   4.341  0.2633  0.3773 -0.0807
 4872TIP3    H114622   3.257   0.629   4.247 -1.5038  2.1531 -0.4461
 4872TIP3    H214623   3.217   0.531   4.355  1.4406 -0.0907 -1.2328
 4873TIP3   OH214624   0.834   0.250   2.336 -0.0700 -0.3114  0.1620
 4873TIP3    H114625   0.745   0.281   2.354  0.5479  0.1002  3.2304
 4873TIP3    H214626   0.889   0.298   2.399  2.1167 -1.6681 -0.5845
 4874TIP3   OH214627   4.229   1.429   3.149  0.5587  0.1452  0.3321
 4874TIP3    H114628   4.135   1.414   3.133  0.4299  1.2792 -0.0091
 4874TIP3    H214629   4.239   1.421   3.244 -0.2314  1.8432  0.5838
 4875TIP3   OH214630   2.853   3.364   3.826  0.3192 -0.5771 -0.0931
 4875TIP3    H114631   2.940   3.340   3.858  0.6101  0.9113  0.3070
 4875TIP3    H214632   2.797   3.291   3.852  1.1005 -0.7174  1.2884
 4876TIP3   OH214633   5.348   3.333   2.724  0.0780 -0.1628  0.0332
 4876TIP3    H114634   5.319   3.343   2.815  0.5584  1.4908  0.0367
 4876TIP3    H214635   5.287   3.270   2.687 -0.0191 -1.0105  1.5434
 4877TIP3   OH214636   0.814   2.916   1.920 -0.4192 -0.3303 -0.4043
 4877TIP3    H114637   0.835   2.844   1.979 -1.9633  0.1030  0.7507
 4877TIP3    H214638   0.865   2.898   1.841  1.0056 -1.4226  0.7054
 4878TIP3   OH214639   4.366   2.571   4.513 -0.4460 -0.2626  0.1555
 4878TIP3    H114640   4.336   2.661   4.507 -0.3596 -0.2896 -0.9838
 4878TIP3    H214641   4.359   2.537   4.423 -0.0204 -1.2349  0.4702
 4879TIP3   OH214642   5.018   2.249   3.927  0.5018 -0.2265  0.0138
 4879TIP3    H114643   5.080   2.288   3.865 -0.8263  0.0221 -1.2131
 4879TIP3    H214644   4.968   2.323   3.962  0.3556 -0.4941  0.3825
 4880TIP3   OH214645   3.094   3.954   4.402 -0.0970 -0.7946  0.1991
 4880TIP3    H114646   3.087   3.865   4.368 -1.6599 -0.9042  0.7202
 4880TIP3    H214647   3.051   4.008   4.336 -1.5098 -0.7862  1.0769
 4881TIP3   OH214648   5.901   3.632   0.334  0.5068 -0.3078 -0.2509
 4881TIP3    H114649   5.968   3.686   0.293  1.0737  0.1338  1.1921
 4881TIP3    H214650   5.821   3.684   0.326  0.7466  0.0761 -0.1937
 4882TIP3   OH214651   2.563   1.200   3.449 -0.0045 -0.3839  0.3181
 4882TIP3    H114652   2.543   1.294   3.449 -1.4136 -0.6558  0.0450
 4882TIP3    H214653   2.656   1.195   3.469  0.5821  1.1768 -1.6839
 4883TIP3   OH214654   2.465   2.844   3.373  0.4604 -0.1141 -0.4222
 4883TIP3    H114655   2.522   2.823   3.447 -0.4606 -1.1960  0.0131
 4883TIP3    H214656   2.376   2.833   3.408 -0.0085  0.8770 -1.2682
 4884TIP3   OH214657   2.380   2.026   3.221 -0.3377  0.2161 -0.3146
 4884TIP3    H114658   2.355   2.108   3.262 -1.2711 -1.1767  2.1078
 4884TIP3    H214659   2.475   2.022   3.230 -0.0746  1.7146 -1.9497
 4885TIP3   OH214660   4.737   2.660   1.483 -0.1119 -0.5772 -0.0588
 4885TIP3    H114661   4.751   2.566   1.496  1.3762 -0.2520  0.9226
 4885TIP3    H214662   4.776   2.701   1.560 -0.9406  0.8441 -0.3627
 4886TIP3   OH214663   4.246   2.383   4.270 -0.0903  0.7090 -0.1675
 4886TIP3    H114664   4.220   2.359   4.181 -2.3856 -1.0735  0.8496
 4886TIP3    H214665   4.233   2.478   4.275 -0.6620  0.7182 -1.5002
 4887TIP3   OH214666   3.955   0.770   0.081 -0.8114  0.4663 -0.4907
 4887TIP3    H114667   3.928   0.861   0.080 -2.6633 -0.0342 -1.7583
 4887TIP3    H214668   3.910   0.732   0.156 -2.5162 -0.0017 -1.6691
 4888TIP3   OH214669   2.409   2.000   1.712  0.2942  0.1971  0.1814
 4888TIP3    H114670   2.471   2.058   1.669 -1.5340  1.8879 -0.3194
 4888TIP3    H214671   2.444   1.988   1.801  2.8640 -1.4136 -0.9371
 4889TIP3   OH214672   1.851   5.322   2.423  0.1341  0.1353 -0.4196
 4889TIP3    H114673   1.911   5.377   2.373 -0.8433 -1.1135 -3.2028
 4889TIP3    H214674   1.902   5.292   2.498  2.7503 -0.2829 -2.2489
 4890TIP3   OH214675   0.024   4.065   1.286  0.1728 -0.0875 -0.3301
 4890TIP3    H114676   0.019   4.080   1.192 -4.5000  2.7963  0.0650
 4890TIP3    H214677   0.105   4.110   1.313  0.8144  0.3639 -2.7423
 4891TIP3   OH214678   0.851   0.366   4.338  0.3748  0.8306 -0.4519
 4891TIP3    H114679   0.894   0.451   4.341 -0.3009  1.1726  0.0926
 4891TIP3    H214680   0.819   0.352   4.428 -0.4411  0.4947 -0.7825
 4892TIP3   OH214681   3.622   1.487   0.059  0.1050  0.3537  0.2787
 4892TIP3    H114682   3.638   1.561   0.118 -0.1283  0.8498 -0.2733
 4892TIP3    H214683   3.669   1.414   0.100  1.7970  1.2009 -0.0558
 4893TIP3   OH214684   3.257   4.745   3.970 -0.2418 -0.2768  0.1718
 4893TIP3    H114685   3.203   4.668   3.988 -0.3206 -0.2356  0.1087
 4893TIP3    H214686   3.336   4.732   4.023 -0.5000 -0.1286  0.6006
 4894TIP3   OH214687   2.694   5.503   4.170  0.5508  0.1241 -0.4120
 4894TIP3    H114688   2.642   5.565   4.222  1.2167  0.7839 -0.5082
 4894TIP3    H214689   2.785   5.527   4.188  0.8673 -1.5860  0.4525
 4895TIP3   OH214690   3.415   1.146   1.315  0.3780 -0.3558  0.4346
 4895TIP3    H114691   3.454   1.168   1.400 -0.2831  0.9698  0.4144
 4895TIP3    H214692   3.328   1.185   1.317 -0.1134 -1.3455 -0.4040
 4896TIP3   OH214693   5.544   2.745   1.710 -0.8043 -0.4274 -0.6282
 4896TIP3    H114694   5.451   2.758   1.729 -1.0224 -2.4083 -0.1407
 4896TIP3    H214695   5.560   2.653   1.732  1.2108 -0.1926 -0.9769
 4897TIP3   OH214696   4.548   3.717   4.380 -0.1545 -0.0455  0.3848
 4897TIP3    H114697   4.592   3.790   4.335 -0.6526  0.4617  0.7078
 4897TIP3    H214698   4.465   3.754   4.409 -0.0362 -0.5002  1.3239
 4898TIP3   OH214699   3.622   0.661   4.355  0.5581 -0.5269 -0.0629
 4898TIP3    H114700   3.706   0.664   4.401  0.4499  1.5560  0.0654
 4898TIP3    H214701   3.557   0.682   4.423  0.1999  0.5182 -0.7117
 4899TIP3   OH214702   4.994   5.061   3.631 -0.3601  0.3729  0.3299
 4899TIP3    H114703   4.996   5.146   3.676  0.5752  0.3583  0.3275
 4899TIP3    H214704   5.037   5.077   3.547 -1.9837  0.3679 -0.5399
 4900TIP3   OH214705   5.066   5.290   1.777 -0.3691  0.5816  0.1035
 4900TIP3    H114706   5.010   5.368   1.784  1.1513  1.8333 -0.9990
 4900TIP3    H214707   5.090   5.270   1.867  0.9744  2.7726  0.3096
 4901TIP3   OH214708   2.778   1.158   4.235 -0.4197 -0.1481 -0.0158
 4901TIP3    H114709   2.712   1.139   4.168 -0.3928 -2.5190  0.5396
 4901TIP3    H214710   2.734   1.218   4.295 -0.7319  1.3564 -1.6551
 4902TIP3   OH214711   0.833   3.351   4.413 -0.2231 -0.1973 -0.5425
 4902TIP3    H114712   0.834   3.430   4.358 -0.5122 -0.1293 -0.4494
 4902TIP3    H214713   0.917   3.308   4.394  0.7363  1.0412  0.7265
 4903TIP3   OH214714   2.794   5.560   5.175 -0.4839 -0.0891 -0.2217
 4903TIP3    H114715   2.808   5.465   5.164  2.2180  0.2032 -0.0340
 4903TIP3    H214716   2.713   5.578   5.127 -0.0123 -2.1864 -1.9730
 4904TIP3   OH214717   2.446   2.077   0.582 -0.0785 -0.8433 -0.5489
 4904TIP3    H114718   2.365   2.123   0.603 -0.0021 -1.2474  0.7471
 4904TIP3    H214719   2.418   1.995   0.543 -0.2736 -0.7026 -0.7073
 4905TIP3   OH214720   4.621   3.072   5.088 -0.5795  0.0473 -0.0574
 4905TIP3    H114721   4.586   3.003   5.144 -0.3386  0.4190  0.5645
 4905TIP3    H214722   4.543   3.113   5.049 -0.7011 -0.8953 -0.8426
 4906TIP3   OH214723   1.560   0.719   3.114  0.0360  0.4284  0.5039
 4906TIP3    H114724   1.485   0.750   3.064 -1.7780 -2.7759  0.9642
 4906TIP3    H214725   1.568   0.781   3.187 -0.0152  2.6725 -1.2798
 4907TIP3   OH214726   0.411   2.957   1.730  0.3537  0.2268  0.0623
 4907TIP3    H114727   0.418   2.985   1.821  1.8206 -0.4193  0.1910
 4907TIP3    H214728   0.389   2.864   1.735  0.7998  0.0990 -0.2183
 4908TIP3   OH214729   6.056   5.701   4.869  0.1873  0.3181 -0.0393
 4908TIP3    H114730   5.987   5.739   4.815  0.9138  0.8853 -0.5852
 4908TIP3    H214731   6.119   5.666   4.806  0.2428 -0.5061  0.4522
 4909TIP3   OH214732   3.241   1.482   2.082 -0.3225 -0.2107  0.4163
 4909TIP3    H114733   3.220   1.480   2.175  0.0025 -1.8534  0.4797
 4909TIP3    H214734   3.336   1.499   2.079 -0.4776  0.7133  0.3345
 4910TIP3   OH214735   5.199   0.527   0.364 -0.6459  1.0129  0.0010
 4910TIP3    H114736   5.159   0.612   0.384  0.7620  1.9319 -0.9130
 4910TIP3    H214737   5.254   0.544   0.287  0.3859 -0.5107  0.3634
 4911TIP3   OH214738   4.738   3.803   0.614  0.0803  0.7408 -0.0197
 4911TIP3    H114739   4.727   3.715   0.579 -0.0387  1.5583 -2.2103
 4911TIP3    H214740   4.831   3.822   0.603 -0.2070  1.5250 -1.2906
 4912TIP3   OH214741   6.116   5.668   0.525  0.0064 -0.0904 -0.5356
 4912TIP3    H114742   6.151   5.662   0.613 -1.7808  0.7064  0.2930
 4912TIP3    H214743   6.106   5.762   0.509 -1.7528 -0.2548 -0.6653
 4913TIP3   OH214744   5.982   3.607   2.506 -0.2182  0.2705  0.0273
 4913TIP3    H114745   5.907   3.612   2.566 -0.1389  0.5322  0.1062
 4913TIP3    H214746   6.033   3.686   2.525 -1.6221  1.8628 -2.3153
 4914TIP3   OH214747   5.365   3.200   4.625  0.8350 -0.0639 -1.0336
 4914TIP3    H114748   5.392   3.109   4.638 -1.5949 -0.6535  0.6802
 4914TIP3    H214749   5.369   3.239   4.713 -0.0387  0.8979 -1.3954
 4915TIP3   OH214750   6.115   5.172   3.491 -0.8884  0.0122 -0.1325
 4915TIP3    H114751   6.196   5.222   3.483 -0.5704 -0.7600 -3.3639
 4915TIP3    H214752   6.061   5.222   3.551  1.2667  1.5556  0.6172
 4916TIP3   OH214753   5.520   5.809   4.371 -0.2473 -0.1520 -0.7592
 4916TIP3    H114754   5.446   5.858   4.405 -0.5284  0.1024 -1.7095
 4916TIP3    H214755   5.490   5.774   4.287  0.1938 -1.3310 -0.4481
 4917TIP3   OH214756   5.014   0.985   4.150  0.1778 -0.1112  0.5475
 4917TIP3    H114757   5.000   0.914   4.212  0.6013  0.0693  0.8624
 4917TIP3    H214758   5.018   0.943   4.065 -0.8551 -0.3124  0.5934
 4918TIP3   OH214759   2.779   3.262   0.508  0.0871  0.7532  0.2974
 4918TIP3    H114760   2.859   3.283   0.556  0.1636 -0.3888  0.6998
 4918TIP3    H214761   2.710   3.266   0.574 -0.2262  1.8757 -0.0778
 4919TIP3   OH214762   3.631   1.081   1.951  0.6409  0.0703 -0.1893
 4919TIP3    H114763   3.579   1.077   1.871 -0.1932 -0.6333  0.3593
 4919TIP3    H214764   3.622   1.172   1.981 -1.2555 -0.2820  0.4839
 4920TIP3   OH214765   4.825   0.620   2.387  0.0859 -0.2951 -0.1332
 4920TIP3    H114766   4.841   0.683   2.457 -2.3140  1.5030 -1.0280
 4920TIP3    H214767   4.823   0.674   2.307 -1.7631 -1.5066 -0.9707
 4921TIP3   OH214768   4.877   5.601   4.424  0.0307  0.5323 -0.3375
 4921TIP3    H114769   4.804   5.661   4.439 -2.4438 -2.1620 -0.8177
 4921TIP3    H214770   4.869   5.535   4.492  1.6835 -0.1856 -0.7819
 4922TIP3   OH214771   5.117   3.424   0.313 -0.3445 -0.8666 -0.3218
 4922TIP3    H114772   5.057   3.494   0.288 -1.0593 -0.9584  1.0315
 4922TIP3    H214773   5.187   3.467   0.362  0.3356 -0.8519 -1.2835
 4923TIP3   OH214774   0.630   3.640   1.304 -0.0712 -0.5221  0.2793
 4923TIP3    H114775   0.688   3.564   1.314  0.4467 -0.4429 -1.7110
 4923TIP3    H214776   0.689   3.714   1.294 -0.5779  0.1454  2.0045
 4924TIP3   OH214777   5.735   0.921   2.915  0.2406 -0.5149 -0.1904
 4924TIP3    H114778   5.795   0.975   2.966  0.8477  1.5046 -2.8031
 4924TIP3    H214779   5.658   0.976   2.901 -0.0557 -1.1330 -1.1246
 4925TIP3   OH214780   5.090   0.766   3.157 -0.0161 -0.5049  0.0368
 4925TIP3    H114781   5.107   0.730   3.245  2.2430  1.1889  0.3770
 4925TIP3    H214782   5.020   0.830   3.171  0.9162  0.3868  0.8315
 4926TIP3   OH214783   2.428   0.987   0.910 -0.6604  0.6477  0.1022
 4926TIP3    H114784   2.421   0.994   1.006  0.0753  0.8392  0.1451
 4926TIP3    H214785   2.464   1.072   0.883 -0.8075  0.5692 -0.3452
 4927TIP3   OH214786   4.862   1.613   0.374  0.0431 -0.7314  0.2271
 4927TIP3    H114787   4.800   1.666   0.324  1.5557  1.6602  0.7351
 4927TIP3    H214788   4.827   1.614   0.463  0.5629  0.3146  0.4399
 4928TIP3   OH214789   0.475   2.919   2.896 -0.0734 -0.1899 -0.0976
 4928TIP3    H114790   0.526   2.917   2.977  1.9728  2.0528 -1.2145
 4928TIP3    H214791   0.532   2.878   2.831 -0.4137  0.7671 -1.0215
 4929TIP3   OH214792   0.832   1.400   4.981 -0.3473  0.1877 -0.3228
 4929TIP3    H114793   0.782   1.329   4.940  0.7924 -0.5055 -0.5561
 4929TIP3    H214794   0.919   1.395   4.941 -0.7772  2.9988 -1.8403
 4930TIP3   OH214795   4.766   1.651   2.678  0.1426 -0.0237 -0.0298
 4930TIP3    H114796   4.734   1.649   2.588 -2.8109  0.6781  0.8926
 4930TIP3    H214797   4.818   1.571   2.687  0.8559  0.1020 -2.4184
 4931TIP3   OH214798   5.221   3.590   4.427  0.2594 -0.3888  0.1982
 4931TIP3    H114799   5.162   3.518   4.446 -0.9107  0.8198  1.3339
 4931TIP3    H214800   5.306   3.548   4.410 -0.5674 -2.0522  0.0056
 4932TIP3   OH214801   3.960   2.512   4.809 -0.4449  0.4875 -0.4678
 4932TIP3    H114802   3.996   2.571   4.874  1.7651 -1.9609  0.7416
 4932TIP3    H214803   3.964   2.561   4.727  1.9269  1.8130  0.3390
 4933TIP3   OH214804   3.700   2.022   3.750 -0.0315  0.2513 -0.3920
 4933TIP3    H114805   3.710   1.995   3.841 -2.4702 -1.9724 -0.6681
 4933TIP3    H214806   3.789   2.017   3.714  0.7934  0.0456  1.5475
 4934TIP3   OH214807   0.699   2.076   2.965 -0.4331  0.1056  0.9926
 4934TIP3    H114808   0.713   2.118   2.880 -1.3861 -1.2488  0.1318
 4934TIP3    H214809   0.743   1.992   2.958  1.6844  0.9435  2.7855
 4935TIP3   OH214810   4.558   3.234   2.722  0.3446 -0.2090  0.0045
 4935TIP3    H114811   4.627   3.231   2.656  0.2228 -0.6520 -0.1093
 4935TIP3    H214812   4.563   3.150   2.766 -0.1788 -0.2850 -0.0699
 4936TIP3   OH214813   4.245   3.966   3.449 -0.6320  0.5229  0.1876
 4936TIP3    H114814   4.313   4.022   3.413 -0.7669  0.9718  0.6252
 4936TIP3    H214815   4.173   3.973   3.386 -0.9862  1.5580  0.6846
 4937TIP3   OH214816   5.821   1.328   3.773 -0.2100  0.4792  0.0457
 4937TIP3    H114817   5.728   1.343   3.790 -0.0255  2.0821 -0.1345
 4937TIP3    H214818   5.860   1.316   3.859 -0.4826  0.4631  0.1674
 4938TIP3   OH214819   0.848   1.571   0.832 -0.0953 -0.5621 -0.1657
 4938TIP3    H114820   0.755   1.561   0.813 -0.0693  1.1714 -1.4638
 4938TIP3    H214821   0.892   1.535   0.755  0.1653  1.5795 -1.0919
 4939TIP3   OH214822   2.880   4.617   0.411 -0.4224  0.1525  0.3617
 4939TIP3    H114823   2.824   4.590   0.483 -1.0711 -1.0191 -0.5347
 4939TIP3    H214824   2.841   4.698   0.378  0.1182  0.9215  1.5535
 4940TIP3   OH214825   2.096   1.663   0.914 -0.3544 -0.0850  0.5605
 4940TIP3    H114826   2.088   1.698   0.825 -2.2127 -2.3668 -0.2615
 4940TIP3    H214827   2.124   1.739   0.967  0.3821  1.4334 -1.8461
 4941TIP3   OH214828   5.199   4.132   0.563  0.2995  0.6196 -0.2254
 4941TIP3    H114829   5.200   4.195   0.634 -0.4121 -1.2618  1.5678
 4941TIP3    H214830   5.272   4.072   0.582  0.1203  0.1006 -1.0922
 4942TIP3   OH214831   0.022   0.152   3.550  0.0289 -0.2090 -0.5468
 4942TIP3    H114832   0.011   0.199   3.467  0.4280 -0.3509 -0.6807
 4942TIP3    H214833  -0.005   0.215   3.617 -0.1374 -0.0381 -0.7712
 4943TIP3   OH214834   3.506   2.232   3.124  0.1523  0.0331 -0.7690
 4943TIP3    H114835   3.466   2.191   3.201  0.4779 -0.8732 -1.0770
 4943TIP3    H214836   3.529   2.159   3.067 -1.1617  0.7486 -2.2764
 4944TIP3   OH214837   2.857   4.107   4.251  0.2445 -0.1138  0.2654
 4944TIP3    H114838   2.848   4.042   4.320 -0.4527 -0.2753  0.0308
 4944TIP3    H214839   2.782   4.166   4.263 -1.2003 -1.4044 -1.6725
 4945TIP3   OH214840   5.906   4.375   1.256  0.5141  0.3328 -0.5050
 4945TIP3    H114841   5.958   4.362   1.336  1.5189 -0.5617 -1.2730
 4945TIP3    H214842   5.971   4.381   1.186 -0.3341  1.6008 -1.2160
 4946TIP3   OH214843   4.684   3.295   1.914 -0.3662  0.3147  0.0460
 4946TIP3    H114844   4.671   3.375   1.863  1.1451  1.5199  1.4510
 4946TIP3    H214845   4.596   3.271   1.943 -0.8200  1.7103 -0.0754
 4947TIP3   OH214846   5.297   4.551   3.522 -0.0230 -0.0857 -0.6872
 4947TIP3    H114847   5.390   4.567   3.537 -0.4412  1.1119  0.9075
 4947TIP3    H214848   5.260   4.540   3.610 -1.6190  0.8642 -1.1890
 4948TIP3   OH214849   0.397   5.272   4.787  0.3278 -0.3707  0.3109
 4948TIP3    H114850   0.486   5.253   4.758  0.1296 -0.6529 -0.1208
 4948TIP3    H214851   0.352   5.188   4.784 -0.4839  0.0921 -1.3479
 4949TIP3   OH214852   5.365   3.196   1.714 -0.1075  0.2693  0.3936
 4949TIP3    H114853   5.371   3.283   1.674  0.3478  0.8233  1.6263
 4949TIP3    H214854   5.271   3.182   1.727 -0.1341  1.0303  1.1194
 4950TIP3   OH214855   4.175   3.746   4.622  0.6355 -0.2271 -0.0949
 4950TIP3    H114856   4.229   3.704   4.689  0.5192 -0.7934 -0.3503
 4950TIP3    H214857   4.151   3.830   4.660  0.0384 -0.7963  0.8375
 4951TIP3   OH214858   3.491   1.586   2.018 -0.3254 -0.5667 -0.3439
 4951TIP3    H114859   3.516   1.632   1.938 -2.1621  1.6533  0.2452
 4951TIP3    H214860   3.558   1.611   2.081 -1.2365  1.3705 -0.0625
 4952TIP3   OH214861   4.811   2.782   2.911  0.0796  0.1048  0.3925
 4952TIP3    H114862   4.882   2.842   2.929 -0.9816  0.9932  1.8665
 4952TIP3    H214863   4.793   2.740   2.995  0.4547 -1.9563 -0.4788
 4953TIP3   OH214864   4.747   2.168   1.233 -0.9823  0.3821 -0.1236
 4953TIP3    H114865   4.712   2.247   1.192 -1.3747  0.2945  0.0318
 4953TIP3    H214866   4.692   2.156   1.311 -1.4489 -0.4850 -0.5678
 4954TIP3   OH214867   5.769   2.914   2.815  0.2470  0.2897  0.1288
 4954TIP3    H114868   5.783   2.933   2.722  1.9761 -1.9220 -0.1488
 4954TIP3    H214869   5.680   2.945   2.833  1.3678  4.9010 -1.0474
 4955TIP3   OH214870   3.528   3.280   2.225 -0.3992  0.2646 -0.5933
 4955TIP3    H114871   3.578   3.201   2.205  0.0220  0.2294  0.4987
 4955TIP3    H214872   3.595   3.343   2.255 -0.5528  1.4866 -2.6742
 4956TIP3   OH214873   3.175   2.374   1.404 -0.0274  0.1388 -0.3676
 4956TIP3    H114874   3.112   2.338   1.466  1.7351 -0.4876  1.1510
 4956TIP3    H214875   3.133   2.453   1.370 -0.3890  1.6169  3.0751
 4957TIP3   OH214876   1.497   0.213   4.682  0.4537  0.1688 -0.2047
 4957TIP3    H114877   1.516   0.176   4.596 -0.0069  0.2434 -0.3433
 4957TIP3    H214878   1.562   0.282   4.694  0.5733  0.0996 -0.4565
 4958TIP3   OH214879   6.140   1.630   0.703 -0.1262  0.0627  0.5778
 4958TIP3    H114880   6.077   1.687   0.746  1.1440  1.1357  1.1017
 4958TIP3    H214881   6.155   1.670   0.618  1.4037  1.0635  1.2687
 4959TIP3   OH214882   5.999   0.198   4.562  0.2591 -0.2226 -0.3922
 4959TIP3    H114883   5.989   0.154   4.478 -1.8142  1.6229 -1.2087
 4959TIP3    H214884   5.909   0.214   4.591  0.9526  0.3968  1.5166
 4960TIP3   OH214885   3.213   3.265   2.424 -0.0557 -0.6000  0.6567
 4960TIP3    H114886   3.185   3.174   2.427 -0.0453 -0.7352 -1.5646
 4960TIP3    H214887   3.309   3.260   2.425 -0.0438 -0.4839  2.2157
 4961TIP3   OH214888   2.927   0.600   0.265 -0.6266 -0.0039 -0.0905
 4961TIP3    H114889   2.858   0.543   0.231 -0.4126  0.5367 -1.5136
 4961TIP3    H214890   3.000   0.542   0.284 -1.5745 -0.6471  1.8472
 4962TIP3   OH214891   1.008   3.872   4.921  0.2508  0.6457 -0.1949
 4962TIP3    H114892   1.029   3.964   4.936  0.0013  1.1179 -2.3579
 4962TIP3    H214893   0.917   3.863   4.948  0.1129  1.1761 -0.4707
 4963TIP3   OH214894   2.731   0.164   2.127 -0.6403  0.2962 -0.2507
 4963TIP3    H114895   2.760   0.230   2.064 -1.0176 -0.3704 -1.1539
 4963TIP3    H214896   2.808   0.109   2.143 -1.0140 -0.6691 -1.6138
 4964TIP3   OH214897   3.346   2.394   0.617 -0.3407 -0.0466  0.1611
 4964TIP3    H114898   3.266   2.409   0.567 -1.2009 -0.2792  1.4252
 4964TIP3    H214899   3.345   2.300   0.636  1.4257 -0.5017 -1.7541
 4965TIP3   OH214900   1.005   0.282   2.805  0.1623  0.0006  0.3234
 4965TIP3    H114901   0.948   0.235   2.865  2.1882 -0.9308  1.6094
 4965TIP3    H214902   1.071   0.217   2.779  0.0023  0.6938 -2.0601
 4966TIP3   OH214903   2.496   0.921   3.516 -0.2049  0.6545 -0.9428
 4966TIP3    H114904   2.520   1.013   3.505 -0.3085  0.6404 -1.3084
 4966TIP3    H214905   2.547   0.875   3.450 -0.1059  0.4424 -0.7153
 4967TIP3   OH214906   5.904   5.714   4.440 -0.6022  0.4360 -0.0703
 4967TIP3    H114907   5.910   5.622   4.466 -2.3054  0.1102 -0.7266
 4967TIP3    H214908   5.961   5.720   4.363  0.7424  0.3246  0.8729
 4968TIP3   OH214909   0.603   0.130   0.334 -0.0403 -0.6283 -1.1809
 4968TIP3    H114910   0.578   0.209   0.382 -1.7655  0.1638 -3.2343
 4968TIP3    H214911   0.696   0.143   0.315  1.1376 -1.6137  2.9251
 4969TIP3   OH214912   0.522   1.857   1.240  0.2920 -1.1098  0.3452
 4969TIP3    H114913   0.499   1.892   1.326 -0.5744 -3.0803  0.9613
 4969TIP3    H214914   0.594   1.797   1.257 -0.7240 -2.4995 -0.0677
 4970TIP3   OH214915   5.922   5.145   0.168  0.5170  0.1311  0.7393
 4970TIP3    H114916   5.855   5.077   0.179 -1.1995  1.7489  0.8224
 4970TIP3    H214917   5.960   5.155   0.255  0.2206 -0.1584  0.9039
 4971TIP3   OH214918   0.198   0.051   4.114  0.2753  0.5000 -0.1515
 4971TIP3    H114919   0.223  -0.014   4.180  1.0023  0.1772 -0.7228
 4971TIP3    H214920   0.251   0.128   4.135  1.2289  0.0762 -0.9013
 4972TIP3   OH214921   6.083   1.076   5.112  0.2049 -0.2930  0.1321
 4972TIP3    H114922   6.065   1.077   5.018  0.3091  1.1232  0.1005
 4972TIP3    H214923   6.170   1.037   5.120  0.7486  0.7670 -0.4811
 4973TIP3   OH214924   2.619   0.250   0.075  0.4920 -0.0325  0.7159
 4973TIP3    H114925   2.565   0.205   0.010  0.5614  0.1840  0.5108
 4973TIP3    H214926   2.707   0.249   0.039  0.5970 -0.2307  0.9714
 4974TIP3   OH214927   4.499   3.762   0.381 -0.1615  0.0122  0.2314
 4974TIP3    H114928   4.428   3.762   0.445  0.1986 -0.2012  0.6359
 4974TIP3    H214929   4.558   3.692   0.410 -0.1411 -0.2879 -0.4976
 4975TIP3   OH214930   0.474   5.015   0.341  0.2825 -0.2501  0.9199
 4975TIP3    H114931   0.404   4.980   0.286  1.4906 -0.0259 -0.8591
 4975TIP3    H214932   0.512   5.086   0.289  0.1038  1.4530  2.9937
 4976TIP3   OH214933   2.646   2.158   1.567 -0.3299 -0.3095  0.2250
 4976TIP3    H114934   2.590   2.179   1.492  0.0951  0.1816  0.0350
 4976TIP3    H214935   2.618   2.219   1.635  0.6394  0.6440 -0.1978
 4977TIP3   OH214936   0.833   3.392   2.678  0.1936 -0.1379 -0.3447
 4977TIP3    H114937   0.873   3.356   2.757 -2.0807  0.6297  1.2527
 4977TIP3    H214938   0.865   3.483   2.674 -2.0545  0.8530  1.5889
 4978TIP3   OH214939   2.398   3.450   0.721  0.0912 -0.2941 -0.0046
 4978TIP3    H114940   2.307   3.479   0.729  0.0699 -0.7050  1.9223
 4978TIP3    H214941   2.397   3.361   0.756  0.9962 -0.8462 -1.3313
 4979TIP3   OH214942   1.643   3.202   1.956  0.0463  0.4917  0.0664
 4979TIP3    H114943   1.675   3.153   1.880  0.1388 -0.1303  0.5029
 4979TIP3    H214944   1.644   3.293   1.927  1.8982  0.4677 -0.0428
 4980TIP3   OH214945   4.299   0.581   0.911  0.1189 -0.0534 -0.0250
 4980TIP3    H114946   4.352   0.533   0.847 -1.5411 -2.3267  0.1532
 4980TIP3    H214947   4.230   0.621   0.859  0.9568  1.4266 -0.0515
 4981TIP3   OH214948   2.629   4.472   4.346 -0.0118 -0.5025 -0.6502
 4981TIP3    H114949   2.615   4.443   4.256  0.0839 -0.1294 -0.7893
 4981TIP3    H214950   2.717   4.511   4.345  0.3329 -1.2594 -0.1976
 4982TIP3   OH214951   5.734   5.049   2.374 -0.2498  0.1771  0.2984
 4982TIP3    H114952   5.718   4.988   2.302  0.4939  0.2151  0.0975
 4982TIP3    H214953   5.796   5.003   2.431  0.2508  0.7103  0.1866
 4983TIP3   OH214954   3.022   5.936   3.273  0.5822 -0.4756 -0.2105
 4983TIP3    H114955   3.059   5.958   3.187 -0.8134 -1.0643 -0.9998
 4983TIP3    H214956   3.001   5.843   3.267  0.1786 -0.4500  0.6579
 4984TIP3   OH214957   5.163   4.454   1.321 -0.8264  0.5510 -0.1806
 4984TIP3    H114958   5.257   4.471   1.316 -1.0816  2.0176 -0.4137
 4984TIP3    H214959   5.155   4.359   1.309  0.5540  0.5154 -0.9977
 4985TIP3   OH214960   3.059   4.469   3.646  0.2911 -0.2378  0.2969
 4985TIP3    H114961   2.970   4.442   3.672  0.1146  1.4113  1.5816
 4985TIP3    H214962   3.089   4.399   3.588 -2.0842 -0.5290 -0.6963
 4986TIP3   OH214963   1.041   4.951   0.777  0.2919 -0.6889  0.1839
 4986TIP3    H114964   1.043   4.924   0.685 -1.0572  1.4580 -0.5483
 4986TIP3    H214965   0.948   4.957   0.798  0.4243  2.6590  0.3896
 4987TIP3   OH214966   2.074   2.625   0.630  0.2798  0.4840 -0.1344
 4987TIP3    H114967   2.024   2.549   0.660 -0.1965  0.0132 -1.9442
 4987TIP3    H214968   2.165   2.595   0.627  0.4764  0.8330  1.6327
 4988TIP3   OH214969   1.856   0.784   4.930  0.0628 -0.1230  0.5823
 4988TIP3    H114970   1.912   0.844   4.980 -0.8803 -0.0309  1.5636
 4988TIP3    H214971   1.767   0.813   4.950 -0.3521 -0.1105 -1.1441
 4989TIP3   OH214972   5.844   2.069   0.455  0.2404 -0.0934 -0.1223
 4989TIP3    H114973   5.848   2.097   0.364 -0.1396  0.2989 -0.0251
 4989TIP3    H214974   5.837   1.974   0.452  3.1989 -0.3863 -0.4325
 4990TIP3   OH214975   2.878   2.018   2.935  0.3222  0.2496  0.1394
 4990TIP3    H114976   2.934   2.072   2.880  0.8670 -1.2614 -0.8399
 4990TIP3    H214977   2.939   1.963   2.984 -0.1944  0.9456  1.6236
 4991TIP3   OH214978   6.154   4.755   5.199 -0.8612  0.2702  0.1972
 4991TIP3    H114979   6.119   4.831   5.153  0.7749  0.6963 -0.4273
 4991TIP3    H214980   6.188   4.699   5.130 -2.2301 -1.1736  0.6314
 4992TIP3   OH214981   1.295   3.905   4.622 -0.0083  0.1223 -0.1867
 4992TIP3    H114982   1.319   3.939   4.709 -0.0925 -0.3571  0.0238
 4992TIP3    H214983   1.376   3.867   4.589 -0.5443 -1.8874  0.7030
 4993TIP3   OH214984   6.152   2.391   3.865 -0.1052 -0.3849 -0.4028
 4993TIP3    H114985   6.243   2.381   3.894 -0.1638  0.1638 -0.0158
 4993TIP3    H214986   6.142   2.326   3.795  0.5631 -0.5002 -0.3987
 4994TIP3   OH214987   3.786   3.597   3.116 -0.4819 -0.1330  0.6075
 4994TIP3    H114988   3.706   3.631   3.155  0.0392  0.8795  0.8329
 4994TIP3    H214989   3.823   3.671   3.068  0.2850 -0.5999  0.4460
 4995TIP3   OH214990   6.315   3.989   0.716 -0.2516  0.2043  0.7347
 4995TIP3    H114991   6.319   4.083   0.734 -0.9378  0.2269  0.7878
 4995TIP3    H214992   6.289   3.949   0.799 -1.7316  0.1457  0.2746
 4996TIP3   OH214993   1.303   4.832   0.263 -0.2227  0.1569 -0.1478
 4996TIP3    H114994   1.357   4.796   0.333 -1.8726  0.4311  1.3363
 4996TIP3    H214995   1.217   4.795   0.277 -0.8402  1.0083 -1.4470
 4997TIP3   OH214996   4.610   4.537   4.302 -0.0494  0.5816  0.3342
 4997TIP3    H114997   4.531   4.525   4.354 -0.0972  0.7733  0.3066
 4997TIP3    H214998   4.682   4.529   4.364 -0.0251 -0.9062  0.1512
 4998TIP3   OH214999   2.297   3.884   2.775 -0.2715 -0.2709  0.3224
 4998TIP3    H115000   2.313   3.968   2.732  0.0044 -0.8794 -0.8146
 4998TIP3    H215001   2.249   3.832   2.709  0.5071 -1.3696  0.5923
 4999TIP3   OH215002   1.802   0.672   4.212 -0.4413 -0.0226  0.2996
 4999TIP3    H115003   1.741   0.744   4.195 -0.2494  0.0429 -0.1174
 4999TIP3    H215004   1.774   0.602   4.154 -0.7205 -0.3429  0.8136
 5000TIP3   OH215005   5.571   0.322   0.255  0.3132 -0.3113  0.3946
 5000TIP3    H115006   5.491   0.301   0.304 -0.9379 -0.4613 -1.5887
 5000TIP3    H215007   5.582   0.248   0.195  1.9250 -0.2570  0.6011
 5001TIP3   OH215008   0.279   0.136   4.747  0.0804  0.1924 -0.4262
 5001TIP3    H115009   0.291   0.108   4.656 -1.9162 -0.1933 -0.6136
 5001TIP3    H215010   0.271   0.231   4.742  0.4551  0.2141 -0.6016
 5002TIP3   OH215011   3.603   0.404   3.063 -0.4710 -0.0278 -0.4545
 5002TIP3    H115012   3.561   0.419   2.978 -0.2906  0.9609 -0.3835
 5002TIP3    H215013   3.696   0.421   3.047 -0.3846 -0.2063 -0.1477
 5003TIP3   OH215014   0.475   0.631   2.587 -0.0875  0.0386 -0.1671
 5003TIP3    H115015   0.567   0.651   2.599 -0.0244  0.1631 -0.8099
 5003TIP3    H215016   0.449   0.585   2.667  0.7271 -0.6819 -0.2992
 5004TIP3   OH215017   2.980   5.713   0.218 -0.3215 -0.1394  0.0243
 5004TIP3    H115018   2.905   5.734   0.274 -0.1033 -0.7173  0.5547
 5004TIP3    H215019   2.950   5.732   0.129 -0.1417  2.3269  0.4203
 5005TIP3   OH215020   5.443   2.159   0.249  0.4929 -0.0495  0.0782
 5005TIP3    H115021   5.451   2.202   0.334  0.1847  0.2633 -0.0483
 5005TIP3    H215022   5.534   2.149   0.219  0.8439 -2.8200  1.7402
 5006TIP3   OH215023   3.611   0.467   0.985  0.4912 -0.3065 -0.0278
 5006TIP3    H115024   3.528   0.468   1.032  0.5701 -1.5114  0.1629
 5006TIP3    H215025   3.648   0.554   1.001 -0.2074 -0.1531  0.8432
 5007TIP3   OH215026   5.318   2.922   1.581 -0.0402  0.2084  0.1163
 5007TIP3    H115027   5.366   3.001   1.554  1.4221 -0.4693  0.6988
 5007TIP3    H215028   5.337   2.913   1.674 -1.8184  0.2543  0.5159
 5008TIP3   OH215029   0.107   0.314   4.361 -0.1727 -0.6050 -0.8244
 5008TIP3    H115030   0.085   0.310   4.454  2.1556 -1.1288 -0.2213
 5008TIP3    H215031   0.026   0.340   4.318 -1.0732  0.6847  1.4569
 5009TIP3   OH215032   4.026   5.910   0.980  0.4948 -0.1110 -0.1487
 5009TIP3    H115033   3.931   5.914   0.972  0.5264  1.7265  0.0379
 5009TIP3    H215034   4.044   5.921   1.073  0.9033  0.3326 -0.2729
 5010TIP3   OH215035   0.357   5.382   0.264 -0.2974  0.1712  0.1117
 5010TIP3    H115036   0.294   5.311   0.270  1.7770 -1.8015 -0.2877
 5010TIP3    H215037   0.379   5.402   0.355 -1.4781  0.9013  0.2536
 5011TIP3   OH215038   5.794   3.979   3.983 -0.3396  0.3882  0.0468
 5011TIP3    H115039   5.804   4.029   4.064 -1.2116 -0.2029  0.5376
 5011TIP3    H215040   5.701   3.989   3.961  0.0332  1.1423 -1.2845
 5012TIP3   OH215041   2.357   0.287   3.954  0.1347 -0.1234 -0.7022
 5012TIP3    H115042   2.271   0.245   3.950  0.2072 -0.2541 -0.8672
 5012TIP3    H215043   2.380   0.303   3.863 -0.2233  0.9503 -0.6251
 5013TIP3   OH215044   4.236   5.774   2.335 -0.4529 -0.2170  0.6328
 5013TIP3    H115045   4.169   5.835   2.366  0.1426  0.8431 -0.1102
 5013TIP3    H215046   4.190   5.690   2.326 -1.8075  0.5824 -0.2824
 5014TIP3   OH215047   1.777   1.778   2.697  0.6825 -1.0082  0.4880
 5014TIP3    H115048   1.755   1.814   2.612  0.6372 -2.2822 -0.0588
 5014TIP3    H215049   1.694   1.746   2.733  0.3411  1.2859  1.9112
 5015TIP3   OH215050   3.543   3.595   2.046  0.1055  0.1705 -0.9819
 5015TIP3    H115051   3.485   3.550   2.107  2.9155 -1.5210  0.6639
 5015TIP3    H215052   3.560   3.680   2.087 -1.3251  0.7670 -1.5890
 5016TIP3   OH215053   2.114   5.160   2.699  0.2941  0.3804 -0.3759
 5016TIP3    H115054   2.080   5.122   2.618 -0.8762  0.2901  0.1453
 5016TIP3    H215055   2.133   5.085   2.755  0.0052  0.4853 -0.1374
 5017TIP3   OH215056   3.886   4.946   1.886  0.7264 -0.1159  0.2197
 5017TIP3    H115057   3.899   4.961   1.793 -0.4575  0.3150  0.1159
 5017TIP3    H215058   3.954   4.998   1.928  0.5598  0.5971 -0.3696
 5018TIP3   OH215059   2.639   4.169   1.386 -0.8033 -0.2794 -0.0677
 5018TIP3    H115060   2.574   4.235   1.358  0.5402  1.9041  1.6441
 5018TIP3    H215061   2.603   4.133   1.467  0.3087  1.4698  1.2983
 5019TIP3   OH215062   3.018   3.381   2.584 -0.1573 -0.4286  0.2259
 5019TIP3    H115063   2.950   3.426   2.534 -0.4530  0.2596  1.2150
 5019TIP3    H215064   3.077   3.345   2.518 -1.6581 -1.3327 -0.6579
 5020TIP3   OH215065   2.452   0.430   4.994  0.3790 -0.3321  0.0985
 5020TIP3    H115066   2.465   0.336   5.012 -0.3903 -0.7447 -1.2987
 5020TIP3    H215067   2.369   0.433   4.946  1.3431  0.8281 -1.5923
 5021TIP3   OH215068   4.173   3.926   2.064 -0.2376  0.5705 -0.3183
 5021TIP3    H115069   4.191   4.014   2.029  0.7777  1.6620  2.6542
 5021TIP3    H215070   4.260   3.886   2.071 -0.4923  0.1175  0.2509
 5022TIP3   OH215071   0.454   5.496   3.417  0.4224 -0.2231  0.0457
 5022TIP3    H115072   0.531   5.522   3.469 -0.8039  0.8901  1.3739
 5022TIP3    H215073   0.391   5.566   3.431 -1.4708 -1.9019  0.3534
 5023TIP3   OH215074   1.078   4.062   0.134  0.2934  0.0927 -0.5290
 5023TIP3    H115075   1.028   4.102   0.205  1.6586  0.3328  0.3462
 5023TIP3    H215076   1.051   4.109   0.056  0.2549  1.2315  0.1521
 5024TIP3   OH215077   4.683   4.102   3.915  0.1416 -0.7034  0.4491
 5024TIP3    H115078   4.660   4.034   3.852  1.3623 -0.0782 -0.7237
 5024TIP3    H215079   4.768   4.135   3.885  1.5357 -1.3898  3.2981
 5025TIP3   OH215080   4.322   3.270   3.415  0.0583  0.4180 -0.1136
 5025TIP3    H115081   4.384   3.273   3.343 -0.1445  0.5475 -0.2846
 5025TIP3    H215082   4.237   3.289   3.374 -0.3353 -1.3441 -0.1579
 5026TIP3   OH215083   5.356   3.661   1.238 -0.2305 -0.2882  0.3525
 5026TIP3    H115084   5.375   3.754   1.232  1.9492 -0.6099  1.3127
 5026TIP3    H215085   5.270   3.651   1.196  0.0795  1.9250 -0.9666
 5027TIP3   OH215086   0.421   3.390   1.702 -0.5171 -0.1011  0.2616
 5027TIP3    H115087   0.476   3.341   1.764 -1.7630 -3.2339 -0.9008
 5027TIP3    H215088   0.342   3.411   1.752 -0.8616 -1.2137  0.2057
 5028TIP3   OH215089   5.912   4.024   1.726 -0.2354 -0.0641  0.3432
 5028TIP3    H115090   5.919   4.115   1.756  0.0161  0.1828 -0.4415
 5028TIP3    H215091   5.997   3.985   1.745  0.9914  0.9177 -2.6502
 5029TIP3   OH215092   2.949   0.225   1.058  0.4664  0.3148 -0.2054
 5029TIP3    H115093   2.864   0.229   1.102  0.0073  3.2186 -1.1473
 5029TIP3    H215094   3.005   0.285   1.107  1.5817 -0.5323 -0.4081
 5030TIP3   OH215095   5.165   1.475   3.680  0.3726  0.1483 -0.4053
 5030TIP3    H115096   5.205   1.420   3.612  0.0944 -1.2427  0.5219
 5030TIP3    H215097   5.071   1.471   3.662  0.2915 -0.2855  0.0916
 5031TIP3   OH215098   5.657   5.554   4.275  0.1728 -0.0067 -0.2706
 5031TIP3    H115099   5.678   5.463   4.257  1.5243  0.2736 -0.1662
 5031TIP3    H215100   5.741   5.599   4.276 -0.4383  1.1741  0.0998
 5032TIP3   OH215101   1.929   0.141   1.514  0.3810 -0.0658  0.0747
 5032TIP3    H115102   1.918   0.093   1.432  2.3072 -0.9576  0.2954
 5032TIP3    H215103   1.931   0.074   1.581 -0.0600  0.5856  0.7630
 5033TIP3   OH215104   2.147   5.610   1.458  0.5134  0.8710  0.8554
 5033TIP3    H115105   2.081   5.654   1.511  1.5715  1.7925  1.4711
 5033TIP3    H215106   2.099   5.572   1.385 -0.7656  0.9680  1.6267
 5034TIP3   OH215107   4.660   5.566   3.232 -0.2899 -0.0935 -0.1252
 5034TIP3    H115108   4.716   5.627   3.185 -0.0690 -0.0527  0.1925
 5034TIP3    H215109   4.627   5.616   3.307  0.1424 -0.4534  0.3123
 5035TIP3   OH215110   3.198   3.886   3.265 -0.1566  0.0855 -0.1618
 5035TIP3    H115111   3.221   3.969   3.222  0.9863 -0.9929 -1.7890
 5035TIP3    H215112   3.104   3.877   3.252 -0.4329  1.4604  0.7069
 5036TIP3   OH215113   1.950   2.142   3.854  0.7753 -0.8045 -0.4644
 5036TIP3    H115114   2.033   2.136   3.805 -0.6806  1.6198 -3.5943
 5036TIP3    H215115   1.949   2.232   3.887 -0.3999 -0.9667 -0.0462
 5037TIP3   OH215116   1.882   3.630   3.903 -0.0331  0.3460 -0.5437
 5037TIP3    H115117   1.852   3.657   3.990 -1.0642 -0.6193 -0.5881
 5037TIP3    H215118   1.978   3.636   3.908  0.2427 -3.1802  1.8977
 5038TIP3   OH215119   4.905   1.336   0.334  0.0998 -0.2119  0.5291
 5038TIP3    H115120   4.898   1.420   0.379  0.3993  0.7085 -1.0896
 5038TIP3    H215121   4.815   1.305   0.327  0.0169 -0.1895  1.4137
 5039TIP3   OH215122   0.970   3.778   0.680  0.3586  0.1074  0.1560
 5039TIP3    H115123   0.896   3.729   0.715 -0.7967  0.5795 -1.5137
 5039TIP3    H215124   0.987   3.846   0.746 -1.1180  0.3830  0.2927
 5040TIP3   OH215125   1.822   3.768   1.675  0.4500  0.1384 -0.3570
 5040TIP3    H115126   1.779   3.781   1.760 -0.8642  0.0979 -1.0011
 5040TIP3    H215127   1.914   3.755   1.698  0.0623 -0.2932  1.1012
 5041TIP3   OH215128   5.938   0.337   4.954 -0.5156 -0.1153 -0.8599
 5041TIP3    H115129   5.894   0.399   5.012  2.3772 -0.1119  1.5989
 5041TIP3    H215130   5.997   0.392   4.902 -0.2425 -0.5149 -0.9729
 5042TIP3   OH215131   5.563   5.186   0.992  0.2482  0.1450  0.0748
 5042TIP3    H115132   5.548   5.239   1.070  0.8189  0.7394 -0.2126
 5042TIP3    H215133   5.526   5.238   0.920 -1.6743 -1.0648  0.0910
 5043TIP3   OH215134   0.033   5.385   5.127  0.2353 -0.0557 -0.2583
 5043TIP3    H115135   0.122   5.379   5.092  0.3436 -0.5684  0.0968
 5043TIP3    H215136   0.038   5.453   5.194  0.9364 -1.6339  1.4077
 5044TIP3   OH215137   2.110   2.472   1.013  0.6575 -0.1764  0.1460
 5044TIP3    H115138   2.078   2.403   1.072 -2.8028 -0.0108 -1.3285
 5044TIP3    H215139   2.073   2.553   1.048 -1.0967 -0.0247 -1.9099
 5045TIP3   OH215140   4.413   0.256   4.346 -0.9386 -0.0378 -0.4307
 5045TIP3    H115141   4.397   0.248   4.440 -1.6243 -0.2320 -0.5582
 5045TIP3    H215142   4.401   0.168   4.312 -1.7292  0.2226 -0.8473
 5046TIP3   OH215143   1.833   3.869   0.819 -0.3851  0.5309  0.2222
 5046TIP3    H115144   1.747   3.840   0.850 -0.0445 -0.3601  0.3557
 5046TIP3    H215145   1.894   3.839   0.887  0.1509  0.2132 -0.3871
 5047TIP3   OH215146   3.726   1.115   2.389  0.2231  0.0074 -0.1976
 5047TIP3    H115147   3.760   1.054   2.454 -1.1523 -1.8688 -1.1228
 5047TIP3    H215148   3.669   1.174   2.439  0.4116 -0.4114  0.5259
 5048TIP3   OH215149   0.795   1.003   5.164 -0.2974 -0.3551  0.2985
 5048TIP3    H115150   0.799   0.909   5.146  0.4395 -0.0539 -1.3733
 5048TIP3    H215151   0.844   1.042   5.091 -1.5104  1.3840  0.3792
 5049TIP3   OH215152   5.264   5.486   0.244 -0.4611 -0.0391  0.0612
 5049TIP3    H115153   5.217   5.550   0.297  0.2217 -0.9062  1.7709
 5049TIP3    H215154   5.305   5.537   0.175  1.0248  1.5787  2.0448
 5050TIP3   OH215155   1.887   0.620   2.077  0.3318  0.6181  0.0446
 5050TIP3    H115156   1.807   0.569   2.089 -0.8630  2.1918 -0.9103
 5050TIP3    H215157   1.861   0.710   2.097  1.3406  1.4536 -2.1423
 5051TIP3   OH215158   0.370   0.339   0.633  0.2781 -0.3071 -0.1374
 5051TIP3    H115159   0.455   0.336   0.589  0.2007 -0.4069 -0.2803
 5051TIP3    H215160   0.325   0.259   0.605  0.3009 -0.4677  0.2720
 5052TIP3   OH215161   6.334   3.633   2.404  0.0460  0.4606  0.5508
 5052TIP3    H115162   6.264   3.619   2.340  1.1396  0.7551 -0.7376
 5052TIP3    H215163   6.377   3.547   2.412 -1.4474 -0.1898  2.6303
 5053TIP3   OH215164   3.504   4.575   1.500 -0.3418 -0.5022 -0.0578
 5053TIP3    H115165   3.425   4.523   1.486 -0.2224 -0.3999 -1.2172
 5053TIP3    H215166   3.543   4.538   1.578 -0.6302 -1.7048 -0.4611
 5054TIP3   OH215167   3.868   5.056   2.212 -1.0549 -0.4240  0.1803
 5054TIP3    H115168   3.823   5.140   2.205 -0.3402 -0.1929 -3.1871
 5054TIP3    H215169   3.799   4.993   2.234 -1.7638  0.8047  1.7033
 5055TIP3   OH215170   5.935   5.244   2.292  0.4074 -0.0743  0.3257
 5055TIP3    H115171   5.970   5.194   2.366 -0.0187  0.5727  0.9827
 5055TIP3    H215172   5.847   5.209   2.278  0.0839  0.5069  0.8277
 5056TIP3   OH215173   2.982   3.005   2.403  0.3118  0.0494  0.5629
 5056TIP3    H115174   2.979   2.953   2.483 -2.4569 -0.4875  0.2305
 5056TIP3    H215175   2.993   2.940   2.333  0.6067  0.2994  0.3771
 5057TIP3   OH215176   4.630   3.100   0.331 -0.3650 -0.3386 -0.3773
 5057TIP3    H115177   4.536   3.103   0.346 -0.2609  1.3640  0.1523
 5057TIP3    H215178   4.651   3.185   0.292  1.0496 -0.4141  0.1603
 5058TIP3   OH215179   0.899   4.050   1.357  0.0957 -0.7218  0.3452
 5058TIP3    H115180   0.829   4.025   1.417 -2.0285 -0.1626 -1.7729
 5058TIP3    H215181   0.934   4.132   1.395 -1.0806 -0.4617  0.9129
 5059TIP3   OH215182   2.819   1.769   0.455 -1.0106  0.2710 -0.1368
 5059TIP3    H115183   2.763   1.816   0.393 -0.7560 -1.0186 -1.4048
 5059TIP3    H215184   2.892   1.738   0.402 -1.4233 -1.9750  0.5122
 5060TIP3   OH215185   0.056   0.987   0.279 -0.3309 -0.4901  0.3292
 5060TIP3    H115186  -0.018   1.031   0.238  0.5853  1.4581  0.6511
 5060TIP3    H215187   0.016   0.920   0.335 -1.8767  0.6396  0.6570
 5061TIP3   OH215188   3.122   1.425   4.304  0.2998 -0.0671 -0.3985
 5061TIP3    H115189   3.164   1.463   4.381  0.9362  0.6587 -1.0864
 5061TIP3    H215190   3.109   1.333   4.327  0.6155  0.1048  0.5142
 5062TIP3   OH215191   5.486   2.265   0.487 -0.6254  0.1464 -0.2238
 5062TIP3    H115192   5.522   2.353   0.500 -1.9793  0.8677 -1.1203
 5062TIP3    H215193   5.539   2.209   0.544 -1.4199  1.9114  2.4325
 5063TIP3   OH215194   6.042   1.799   2.119 -0.3894  0.1160 -0.3784
 5063TIP3    H115195   6.000   1.715   2.138 -1.2543  0.9450  1.7137
 5063TIP3    H215196   6.128   1.793   2.159 -0.9919  0.6873  1.0910
 5064TIP3   OH215197   2.115   4.718   2.688 -0.1338 -0.3640 -0.4296
 5064TIP3    H115198   2.128   4.628   2.717  1.5949 -0.2235 -0.6125
 5064TIP3    H215199   2.169   4.725   2.609  0.4512  1.0605  0.0685
 5065TIP3   OH215200   5.593   1.130   0.394  0.0178  0.0022 -0.0224
 5065TIP3    H115201   5.544   1.081   0.460  0.6464  0.3801  0.7452
 5065TIP3    H215202   5.551   1.216   0.394 -0.9406 -0.4429 -1.2065
 5066TIP3   OH215203   2.271   3.445   1.367 -0.3651  0.4922 -0.1591
 5066TIP3    H115204   2.346   3.499   1.390 -0.7227  0.8853  0.1096
 5066TIP3    H215205   2.289   3.414   1.279 -0.1009  0.9628 -0.2717
 5067TIP3   OH215206   2.748   5.614   4.815 -0.1260 -0.6252  0.2430
 5067TIP3    H115207   2.678   5.666   4.777  1.2296  1.3270  0.2878
 5067TIP3    H215208   2.735   5.526   4.778 -0.0978  0.6550 -3.1572
 5068TIP3   OH215209   3.595   1.079   1.114  0.5629 -0.8307 -0.2728
 5068TIP3    H115210   3.539   1.121   1.178  0.8360  1.6001 -1.5001
 5068TIP3    H215211   3.566   0.988   1.112 -2.3787  0.0025  0.1551
 5069TIP3   OH215212   0.824   1.824   2.902 -0.2699  0.0597 -0.5054
 5069TIP3    H115213   0.878   1.750   2.927 -1.5266 -0.4265  0.8914
 5069TIP3    H215214   0.878   1.873   2.839  1.1481 -1.2228 -0.3365
 5070TIP3   OH215215   2.278   3.881   3.651  0.1117  0.7351  0.3687
 5070TIP3    H115216   2.333   3.947   3.693 -0.3867  0.0252  2.2247
 5070TIP3    H215217   2.250   3.823   3.722 -0.9209 -0.4423 -0.9224
 5071TIP3   OH215218   2.176   0.444   4.595  0.5602 -0.3021  0.8775
 5071TIP3    H115219   2.244   0.431   4.529  0.9472  2.5809  0.5865
 5071TIP3    H215220   2.103   0.389   4.566  1.9966 -1.9203  0.1224
 5072TIP3   OH215221   6.172   0.405   5.146  0.7064  0.2165 -0.1987
 5072TIP3    H115222   6.222   0.462   5.087  0.2802  0.4762 -0.3091
 5072TIP3    H215223   6.101   0.370   5.092  1.0066 -0.4938 -0.1549
 5073TIP3   OH215224   0.390   1.565   1.208  0.4889 -0.3377  0.3681
 5073TIP3    H115225   0.352   1.537   1.125 -1.7820 -2.4121  1.9815
 5073TIP3    H215226   0.368   1.658   1.214  0.9467 -0.0798 -1.4251
 5074TIP3   OH215227   0.388   0.546   4.143 -0.4806 -0.3099 -0.2200
 5074TIP3    H115228   0.476   0.569   4.175  0.4729 -2.8314 -0.7939
 5074TIP3    H215229   0.374   0.604   4.068  1.1462 -0.5522 -0.7494
 5075TIP3   OH215230   2.715   2.741   1.170  0.5660  0.5136  0.2453
 5075TIP3    H115231   2.711   2.827   1.211 -0.8688  1.0916 -1.0236
 5075TIP3    H215232   2.623   2.716   1.159  0.9555 -0.9296  0.0657
 5076TIP3   OH215233   3.340   1.349   4.800  0.1835 -0.1064 -0.1942
 5076TIP3    H115234   3.252   1.334   4.834 -0.1099 -0.4304 -1.0754
 5076TIP3    H215235   3.329   1.412   4.729  1.0047  1.8301  1.3063
 5077TIP3   OH215236   0.549   3.061   2.396  0.2486 -0.0186 -0.1715
 5077TIP3    H115237   0.600   3.138   2.371 -0.3611  0.2581 -0.5832
 5077TIP3    H215238   0.581   2.992   2.339 -0.5973  0.4213 -1.2028
 5078TIP3   OH215239   3.298   1.005   0.941  0.4306  0.5583  0.0495
 5078TIP3    H115240   3.376   0.970   0.898  1.3202 -0.3897  2.2703
 5078TIP3    H215241   3.245   1.041   0.869  2.2555  0.0052 -1.6732
 5079TIP3   OH215242   1.405   2.682   1.965  0.2786 -0.7050 -0.1102
 5079TIP3    H115243   1.376   2.688   1.874  1.1087 -0.6512 -0.3814
 5079TIP3    H215244   1.449   2.765   1.982 -2.0008  0.3319  1.1373
 5080TIP3   OH215245   5.349   1.978   3.725 -0.3242 -0.1129 -0.0545
 5080TIP3    H115246   5.434   2.021   3.734 -0.3027 -0.3363  0.9124
 5080TIP3    H215247   5.291   2.047   3.694  0.2045  0.0442 -0.7108
 5081TIP3   OH215248   4.406   5.171   4.684 -0.3608 -0.0097  0.6843
 5081TIP3    H115249   4.435   5.262   4.690  0.4111 -0.2428  0.4936
 5081TIP3    H215250   4.359   5.156   4.767 -1.0980  0.7623  0.4231
 5082TIP3   OH215251   0.850   0.283   5.143  0.0436  0.1590 -0.1244
 5082TIP3    H115252   0.870   0.209   5.200  0.4367  0.4731  0.1551
 5082TIP3    H215253   0.925   0.288   5.083 -1.3903 -1.5812 -2.2042
 5083TIP3   OH215254   0.535   3.050   3.439  0.2913  0.4848 -0.3893
 5083TIP3    H115255   0.448   3.091   3.440  0.0387  0.0003 -1.4609
 5083TIP3    H215256   0.579   3.086   3.516 -0.5473  1.4075 -0.3223
 5084TIP3   OH215257   0.341   4.625   3.864 -0.2426  0.0762 -0.1590
 5084TIP3    H115258   0.305   4.573   3.792  0.1397 -0.8072  0.2634
 5084TIP3    H215259   0.382   4.700   3.822  0.6222 -0.7985 -0.9360
 5085TIP3   OH215260   3.336   2.462   2.136  0.8650 -0.2313 -0.2051
 5085TIP3    H115261   3.318   2.554   2.157  0.7755 -0.5687  1.3508
 5085TIP3    H215262   3.317   2.454   2.043  2.6231  1.7522 -0.7988
 5086TIP3   OH215263   3.646   2.974   2.840  0.5601  0.0403 -0.3226
 5086TIP3    H115264   3.615   3.002   2.754 -0.0027 -2.0139 -0.8421
 5086TIP3    H215265   3.567   2.972   2.895  0.8439  0.9092  0.1369
 5087TIP3   OH215266   0.062   4.876   0.804  0.1079  0.0961 -0.0274
 5087TIP3    H115267   0.076   4.921   0.887 -0.2978 -2.8771  1.7526
 5087TIP3    H215268  -0.030   4.850   0.805  0.3898 -1.0271 -0.8449
 5088TIP3   OH215269   4.048   5.050   4.352  0.5057 -0.4818 -0.5255
 5088TIP3    H115270   4.017   5.104   4.279  0.9330  2.3442  1.2500
 5088TIP3    H215271   4.077   5.113   4.418 -0.0725 -2.8850  2.2252
 5089TIP3   OH215272   3.444   2.113   3.358 -0.0697  0.4557  0.2629
 5089TIP3    H115273   3.529   2.124   3.400 -0.4945  1.9926  0.8195
 5089TIP3    H215274   3.411   2.030   3.392  0.1473  1.0536  2.0440
 5090TIP3   OH215275   5.789   5.162   0.803 -0.2172  0.8151  0.2008
 5090TIP3    H115276   5.722   5.177   0.871  0.4907 -1.1069  1.4093
 5090TIP3    H215277   5.765   5.223   0.733 -2.7244  0.8175  0.9347
 5091TIP3   OH215278   2.666   2.515   1.983  0.0137  0.1505  0.7934
 5091TIP3    H115279   2.587   2.526   2.035 -1.0012 -2.6026 -0.0017
 5091TIP3    H215280   2.727   2.470   2.042  0.2967  0.5373  0.7991
 5092TIP3   OH215281   6.133   0.398   1.835 -0.6014 -0.3609  0.9551
 5092TIP3    H115282   6.062   0.436   1.886 -0.3542 -1.3793  2.0997
 5092TIP3    H215283   6.090   0.337   1.775 -0.7427 -0.7350  1.4247
 5093TIP3   OH215284   3.608   5.854   2.668  0.2036 -0.3294  0.8744
 5093TIP3    H115285   3.616   5.854   2.764  1.7628  1.0247  0.7743
 5093TIP3    H215286   3.693   5.884   2.637  0.0854 -1.8095 -0.9995
 5094TIP3   OH215287   3.364   4.399   4.472  0.0643  0.5422 -0.6976
 5094TIP3    H115288   3.323   4.442   4.548 -0.3225  1.8742 -1.6308
 5094TIP3    H215289   3.456   4.425   4.477  0.0097  0.7499 -0.7708
 5095TIP3   OH215290   2.315   3.867   4.854  0.1570  0.2940  0.1706
 5095TIP3    H115291   2.265   3.786   4.845 -0.2273  0.4203  0.9999
 5095TIP3    H215292   2.397   3.841   4.895  1.5863 -0.1729 -2.7534
 5096TIP3   OH215293   0.503   1.781   3.539 -0.5947  0.1935  0.1402
 5096TIP3    H115294   0.442   1.795   3.612 -0.6651  0.7361 -0.0233
 5096TIP3    H215295   0.471   1.701   3.496 -0.9794  0.2783  0.2674
 5097TIP3   OH215296   4.810   3.029   0.546  0.0742 -0.7285  0.4107
 5097TIP3    H115297   4.793   3.067   0.460  1.3206 -0.3639  0.2980
 5097TIP3    H215298   4.904   3.008   0.544 -0.0531 -1.4458  1.3974
 5098TIP3   OH215299   4.635   1.802   2.297 -0.3097  0.0637  0.1131
 5098TIP3    H115300   4.584   1.800   2.217 -2.1079  0.8706  1.1742
 5098TIP3    H215301   4.663   1.893   2.306  2.0449 -0.4964 -0.8263
 5099TIP3   OH215302   5.140   3.756   1.614  0.2125  0.3363 -0.2389
 5099TIP3    H115303   5.169   3.748   1.523 -1.3541  1.5671 -0.8995
 5099TIP3    H215304   5.220   3.761   1.665  1.2105  2.7349 -1.8721
 5100TIP3   OH215305   2.452   4.049   0.798 -0.2181  0.2630 -0.1388
 5100TIP3    H115306   2.364   4.076   0.824  0.4320  2.4957 -0.0213
 5100TIP3    H215307   2.511   4.101   0.853  1.1809 -0.7707 -0.5923
 5101TIP3   OH215308   2.175   0.564   2.147 -0.1211 -0.0073  0.6819
 5101TIP3    H115309   2.082   0.588   2.151 -0.2489 -0.0624 -1.1695
 5101TIP3    H215310   2.178   0.490   2.087  0.9342 -1.1652  2.1021
 5102TIP3   OH215311   1.722   4.623   4.389  0.2648 -0.7144  0.2081
 5102TIP3    H115312   1.736   4.691   4.455  1.6198 -2.2936  1.6406
 5102TIP3    H215313   1.761   4.544   4.427 -0.8291 -2.2045 -1.5859
 5103TIP3   OH215314   3.204   4.485   1.139  0.1834 -0.3349  0.4395
 5103TIP3    H115315   3.278   4.495   1.080  2.6714 -1.7315  3.0474
 5103TIP3    H215316   3.154   4.412   1.103 -0.3308  0.9410 -1.6303
 5104TIP3   OH215317   1.143   4.376   2.314 -0.5196 -0.1888 -0.9549
 5104TIP3    H115318   1.185   4.408   2.394 -0.9717 -1.9279  0.0281
 5104TIP3    H215319   1.208   4.390   2.245  0.6602 -0.4384  0.0725
 5105TIP3   OH215320   2.513   2.264   5.085  0.2100 -0.2395  0.8346
 5105TIP3    H115321   2.451   2.335   5.098  0.0059 -0.4486  1.0232
 5105TIP3    H215322   2.594   2.295   5.126  0.3025  0.1268  0.3869
 5106TIP3   OH215323   1.469   0.378   2.089 -0.1990  0.6515 -0.0804
 5106TIP3    H115324   1.412   0.395   2.014 -0.8583  1.1119  0.5096
 5106TIP3    H215325   1.443   0.292   2.121  0.5600  0.1448 -0.7884
 5107TIP3   OH215326   4.965   1.759   5.110 -0.4808 -1.0104  0.1753
 5107TIP3    H115327   4.973   1.847   5.145 -1.3786 -0.5166 -0.7925
 5107TIP3    H215328   4.912   1.712   5.175 -2.7605  0.1003 -0.7630
 5108TIP3   OH215329   0.476   5.103   5.105 -0.0416 -0.2512 -0.0029
 5108TIP3    H115330   0.436   5.187   5.125  0.6728  0.4231 -1.2415
 5108TIP3    H215331   0.568   5.114   5.128  0.3977 -0.1038 -1.6827
 5109TIP3   OH215332   5.675   1.844   2.198  0.0119 -0.2482 -0.0542
 5109TIP3    H115333   5.757   1.802   2.171  0.8473  1.1485  0.2285
 5109TIP3    H215334   5.607   1.783   2.169  1.1947 -2.9462  2.3344
 5110TIP3   OH215335   2.120   5.491   0.371  0.4352 -0.0799  0.3243
 5110TIP3    H115336   2.063   5.417   0.395  0.8524 -1.1997 -1.8909
 5110TIP3    H215337   2.069   5.540   0.307  0.7497  0.7320  0.6841
 5111TIP3   OH215338   3.661   2.705   0.405 -0.4729  0.4009  0.4941
 5111TIP3    H115339   3.701   2.623   0.433 -1.5225 -0.1890  0.3342
 5111TIP3    H215340   3.710   2.731   0.327  0.8110  0.7122  1.3707
 5112TIP3   OH215341   3.867   4.626   2.716 -0.1548  0.2675  0.0641
 5112TIP3    H115342   3.868   4.532   2.728  0.6181  0.1348 -0.9401
 5112TIP3    H215343   3.932   4.660   2.778 -1.1840  0.2643  1.1869
 5113TIP3   OH215344   4.696   2.665   5.149 -0.0634  0.3822 -0.2441
 5113TIP3    H115345   4.753   2.721   5.201 -1.2197  0.3333  1.1299
 5113TIP3    H215346   4.745   2.649   5.068  1.6087  0.7985  0.6494
 5114TIP3   OH215347   5.811   2.929   2.530  0.1677  0.1994 -0.1044
 5114TIP3    H115348   5.813   3.014   2.487 -1.5218  1.2696  1.7290
 5114TIP3    H215349   5.729   2.889   2.499 -0.6238  0.6165  1.3650
 5115TIP3   OH215350   2.637   4.385   4.059 -0.2100 -0.8209 -0.0434
 5115TIP3    H115351   2.660   4.311   4.002  2.3568  1.5444 -2.3775
 5115TIP3    H215352   2.586   4.443   4.002 -2.1870 -0.6948  1.7444
 5116TIP3   OH215353   6.347   5.631   2.976  0.0328  0.0856 -0.1646
 5116TIP3    H115354   6.295   5.705   2.945  1.6419  1.1594 -0.4419
 5116TIP3    H215355   6.310   5.555   2.931  0.7449  1.2452 -2.9368
 5117TIP3   OH215356   0.883   3.769   0.406 -0.0867 -0.0867 -0.5018
 5117TIP3    H115357   0.927   3.751   0.490  1.1421  1.5947 -0.7330
 5117TIP3    H215358   0.790   3.762   0.426  0.1347  1.4141  1.3136
 5118TIP3   OH215359   4.230   2.722   3.140  0.5927 -0.5405 -0.1379
 5118TIP3    H115360   4.151   2.700   3.091  1.2117 -0.6849 -1.0842
 5118TIP3    H215361   4.281   2.641   3.140  1.4555 -0.0172 -0.9084
 5119TIP3   OH215362   2.942   3.843   1.028 -0.3719 -0.9438 -0.6722
 5119TIP3    H115363   2.980   3.867   0.944 -0.6505  0.1329 -0.5074
 5119TIP3    H215364   2.868   3.786   1.005  0.1930 -1.5155 -1.0883
 5120TIP3   OH215365   1.304   3.199   4.698  0.1925 -0.0806 -0.1407
 5120TIP3    H115366   1.322   3.195   4.604  0.6384 -3.0343 -0.0490
 5120TIP3    H215367   1.372   3.256   4.734 -0.4028  1.6619 -1.6381
 5121TIP3   OH215368   1.352   4.184   3.710 -0.1836 -0.0323 -0.1847
 5121TIP3    H115369   1.345   4.279   3.717 -2.1692  0.0875 -2.3665
 5121TIP3    H215370   1.397   4.170   3.626 -0.6689 -0.9829 -0.3020
 5122TIP3   OH215371   1.336   3.017   2.240 -0.3090  0.0438 -0.0498
 5122TIP3    H115372   1.261   3.009   2.180 -1.0157 -0.2686  0.8538
 5122TIP3    H215373   1.323   2.947   2.304  0.3704  0.4399  0.5365
 5123TIP3   OH215374   3.453   1.792   4.779 -0.1707  0.1664 -0.1293
 5123TIP3    H115375   3.537   1.837   4.772  0.3909 -0.9756 -1.1292
 5123TIP3    H215376   3.452   1.756   4.868  0.9128 -0.7578 -0.4692
 5124TIP3   OH215377   2.870   3.042   0.128  0.7306 -0.3406 -0.7482
 5124TIP3    H115378   2.844   2.953   0.152  0.7964 -0.3323 -0.6416
 5124TIP3    H215379   2.961   3.034   0.101  0.2645 -0.5748 -2.3264
 5125TIP3   OH215380   5.062   2.984   2.697  0.0373  0.0216 -0.0592
 5125TIP3    H115381   5.049   3.020   2.785  1.7898 -0.6330  0.5195
 5125TIP3    H215382   5.030   3.053   2.638 -1.6971  0.2365  1.0737
 5126TIP3   OH215383   2.076   2.749   4.083  0.4432  0.5152 -0.5335
 5126TIP3    H115384   2.120   2.826   4.120  1.0090  0.6077 -1.3852
 5126TIP3    H215385   2.133   2.676   4.105 -2.1127 -0.4950  4.1919
 5127TIP3   OH215386   3.146   4.117   0.719 -0.2305 -0.0015 -0.1871
 5127TIP3    H115387   3.167   4.180   0.651  1.5048  0.8046  1.0273
 5127TIP3    H215388   3.204   4.042   0.703  0.1179  0.1512  0.3338
 5128TIP3   OH215389   3.922   1.398   3.206 -0.3251  0.2744 -0.1049
 5128TIP3    H115390   3.940   1.490   3.223 -0.2891  0.1999  0.2863
 5128TIP3    H215391   3.867   1.398   3.128 -0.4645  0.6345 -0.0087
 5129TIP3   OH215392   2.711   5.236   2.465  0.3623  0.2631 -0.2673
 5129TIP3    H115393   2.722   5.149   2.503  0.3766  0.3202 -0.1384
 5129TIP3    H215394   2.689   5.220   2.373 -0.3473  0.0997 -0.0776
 5130TIP3   OH215395   4.156   5.532   1.874 -0.3473  0.2799  0.1656
 5130TIP3    H115396   4.077   5.569   1.913  0.7581  0.7501  2.0541
 5130TIP3    H215397   4.187   5.469   1.939 -0.1016 -1.2310 -1.3337
 5131TIP3   OH215398   2.907   4.760   3.780  0.3718  0.0768 -0.3477
 5131TIP3    H115399   2.870   4.680   3.816  0.8003 -0.7617 -1.6855
 5131TIP3    H215400   2.921   4.817   3.856 -0.1073 -1.0411  0.6027
 5132TIP3   OH215401   4.485   3.959   1.169 -0.4331 -0.3751 -0.2507
 5132TIP3    H115402   4.431   3.889   1.131 -1.1787  1.0554 -1.9542
 5132TIP3    H215403   4.570   3.917   1.186 -0.8379 -1.6872 -1.3024
 5133TIP3   OH215404   1.635   4.910   1.343 -0.5806  0.5865 -0.0251
 5133TIP3    H115405   1.695   4.983   1.360  1.1566 -1.3010  3.1231
 5133TIP3    H215406   1.594   4.931   1.259  3.6830  2.5755 -1.9152
 5134TIP3   OH215407   1.026   0.873   3.494 -0.0095 -0.2638  0.2111
 5134TIP3    H115408   1.043   0.801   3.434 -1.5508  0.3066 -0.9818
 5134TIP3    H215409   0.941   0.851   3.534  0.5704 -0.1949  1.5395
 5135TIP3   OH215410   3.302   0.217   2.187 -0.0774 -0.0713 -0.1195
 5135TIP3    H115411   3.218   0.262   2.189 -0.4397 -0.7552  1.6866
 5135TIP3    H215412   3.280   0.124   2.191  0.7600 -0.2691  0.0562
 5136TIP3   OH215413   3.224   3.147   3.740  0.4785  0.9412 -0.3143
 5136TIP3    H115414   3.137   3.175   3.768  0.9549  3.0787 -0.8038
 5136TIP3    H215415   3.267   3.118   3.820 -0.3056  0.9328  0.1120
 5137TIP3   OH215416   5.466   2.189   1.254  0.3072  0.4052 -0.2355
 5137TIP3    H115417   5.488   2.195   1.347  1.1489 -2.1933 -0.1824
 5137TIP3    H215418   5.551   2.182   1.211 -0.0839  1.5195 -1.2429
 5138TIP3   OH215419   5.692   2.626   4.122  0.4335 -0.1129 -0.5107
 5138TIP3    H115420   5.767   2.576   4.089  0.3963  1.2160 -2.8881
 5138TIP3    H215421   5.727   2.714   4.137 -0.4328  0.2820 -0.7614
 5139TIP3   OH215422   0.385   5.561   3.132  0.3418 -0.1166  0.3734
 5139TIP3    H115423   0.364   5.526   3.218 -0.8633 -1.3247 -0.3712
 5139TIP3    H215424   0.360   5.491   3.071  1.9498  0.3749 -0.9110
 5140TIP3   OH215425   1.262   4.876   2.724 -0.2869 -0.2492  0.3712
 5140TIP3    H115426   1.205   4.872   2.802  0.1000 -1.3289  0.6194
 5140TIP3    H215427   1.346   4.842   2.754 -0.7957 -3.0608 -1.0637
 5141TIP3   OH215428   6.169   3.024   4.417  0.3771 -0.5854  0.4176
 5141TIP3    H115429   6.102   3.016   4.484 -0.9236 -0.7057 -0.8532
 5141TIP3    H215430   6.166   2.942   4.369  1.7678 -0.7772  0.6110
 5142TIP3   OH215431   2.338   4.780   4.025  0.1385  0.1053 -0.2067
 5142TIP3    H115432   2.369   4.721   4.094  0.1392  0.4546  0.0951
 5142TIP3    H215433   2.378   4.747   3.945 -0.6672 -0.9227 -0.2128
 5143TIP3   OH215434   1.266   1.851   1.432 -0.2659  0.2139  0.3856
 5143TIP3    H115435   1.223   1.931   1.403  0.5858  0.4611 -0.2394
 5143TIP3    H215436   1.359   1.872   1.429  0.0297 -1.2021 -1.0207
 5144TIP3   OH215437   5.637   5.253   4.602  0.6803 -0.2281  0.1761
 5144TIP3    H115438   5.705   5.314   4.630 -0.2790  0.5948  0.7977
 5144TIP3    H215439   5.683   5.188   4.549  1.4380  2.2021 -2.3235
 5145TIP3   OH215440   0.198   2.784   2.734  0.1815  0.5347  0.6792
 5145TIP3    H115441   0.197   2.697   2.694 -0.0802  1.7022 -1.9988
 5145TIP3    H215442   0.282   2.787   2.780  1.7624 -0.0024 -1.9732
 5146TIP3   OH215443   4.287   4.604   1.121 -0.5889  0.4702 -0.2103
 5146TIP3    H115444   4.197   4.576   1.137 -0.0344 -0.9383  0.6779
 5146TIP3    H215445   4.284   4.700   1.129 -2.0341  0.4630 -0.4170
 5147TIP3   OH215446   3.836   0.004   4.129 -0.1521 -0.0813  0.3552
 5147TIP3    H115447   3.765   0.065   4.151 -1.7646 -2.0594  0.9844
 5147TIP3    H215448   3.895   0.010   4.204 -0.1131  0.9075  0.2696
 5148TIP3   OH215449   0.030   5.500   1.471 -0.4543 -0.3062  0.0486
 5148TIP3    H115450   0.088   5.457   1.533  1.8204  0.1851 -1.6278
 5148TIP3    H215451   0.087   5.532   1.401 -2.9119 -1.3891 -2.6960
 5149TIP3   OH215452   0.738   1.619   2.599 -0.3832  0.0157  1.1887
 5149TIP3    H115453   0.666   1.556   2.607  0.0732 -0.6790  0.1286
 5149TIP3    H215454   0.772   1.628   2.688 -1.3983 -0.1072  1.5965
 5150TIP3   OH215455   3.401   5.658   4.033 -0.0343 -0.2667 -0.6643
 5150TIP3    H115456   3.479   5.686   4.080  0.0413  0.6669 -1.3032
 5150TIP3    H215457   3.338   5.729   4.045  0.4659  0.7070 -3.0599
 5151TIP3   OH215458   4.272   1.342   2.692 -0.0297  0.0967  0.1139
 5151TIP3    H115459   4.261   1.270   2.754  0.8807  2.9430  3.9447
 5151TIP3    H215460   4.184   1.357   2.658 -0.2259 -2.7623 -0.9805
 5152TIP3   OH215461   0.967   1.671   4.728  0.0465 -0.4709  0.0619
 5152TIP3    H115462   0.880   1.634   4.744  0.0803  0.3959  2.7164
 5152TIP3    H215463   0.956   1.723   4.648 -1.9796 -0.1190  0.5098
 5153TIP3   OH215464   2.919   4.951   2.318  0.0256  0.1858 -0.2192
 5153TIP3    H115465   2.861   4.930   2.391 -1.8687  1.1771 -1.3935
 5153TIP3    H215466   2.971   4.871   2.305 -2.3650 -1.4301 -0.3127
 5154TIP3   OH215467   0.665   1.312   1.009 -0.0350  0.1270  0.5396
 5154TIP3    H115468   0.663   1.373   0.935 -2.0787 -0.6064 -0.0622
 5154TIP3    H215469   0.582   1.265   1.004  0.4710 -1.0630  2.3852
 5155TIP3   OH215470   2.149   0.649   2.567  0.3041 -0.5439  0.2630
 5155TIP3    H115471   2.104   0.710   2.509  1.9634  0.4548 -0.0281
 5155TIP3    H215472   2.202   0.595   2.510  1.5025  0.0580  0.7737
 5156TIP3   OH215473   0.279   0.781   2.093 -0.8450 -0.1264 -0.2111
 5156TIP3    H115474   0.303   0.691   2.115  0.4470 -0.1212 -1.4345
 5156TIP3    H215475   0.350   0.834   2.126 -0.7400  0.2504 -1.0146
 5157TIP3   OH215476   4.914   4.020   1.653 -0.0503  0.6801 -0.5492
 5157TIP3    H115477   4.935   4.043   1.744  2.3037 -1.8899 -0.3166
 5157TIP3    H215478   4.964   4.083   1.601  0.5627  0.6218 -0.0406
 5158TIP3   OH215479   1.919   1.262   3.244  0.2958  0.2871  0.1211
 5158TIP3    H115480   1.971   1.189   3.278 -0.5946 -0.7059 -0.5833
 5158TIP3    H215481   1.834   1.223   3.223 -0.4927  1.7104  0.5238
 5159TIP3   OH215482   4.077   2.021   0.503  0.5636  0.6914 -0.0941
 5159TIP3    H115483   4.059   1.932   0.533 -0.4852  1.4229  1.5792
 5159TIP3    H215484   3.991   2.058   0.481  0.9678  1.3556 -0.6318
 5160TIP3   OH215485   3.547   3.046   2.591 -0.3141 -0.3665 -0.1739
 5160TIP3    H115486   3.464   2.999   2.585 -0.9226  0.3859  1.6909
 5160TIP3    H215487   3.522   3.138   2.600  0.7725  0.0201 -0.8329
 5161TIP3   OH215488   3.897   3.955   2.161 -0.9862 -0.0467  0.3896
 5161TIP3    H115489   3.880   4.047   2.141 -1.7958 -0.4321 -0.8818
 5161TIP3    H215490   3.987   3.941   2.132 -1.4232 -0.0438 -1.0782
 5162TIP3   OH215491   4.345   1.550   3.913 -0.5643 -0.3518  0.4219
 5162TIP3    H115492   4.395   1.518   3.838 -2.3978  0.0691 -1.0571
 5162TIP3    H215493   4.319   1.639   3.888  1.1966  0.9709  2.8289
 5163TIP3   OH215494   3.493   2.473   0.406  0.1768  0.0304 -0.1638
 5163TIP3    H115495   3.448   2.451   0.487  0.9123  0.0840  0.2633
 5163TIP3    H215496   3.514   2.567   0.414  0.0455  0.0928 -0.5153
 5164TIP3   OH215497   3.131   0.494   0.595 -0.6390 -0.1119  0.4233
 5164TIP3    H115498   3.068   0.549   0.643 -1.0062 -0.8207  0.7701
 5164TIP3    H215499   3.184   0.453   0.663 -0.8706 -0.7783  0.2095
 5165TIP3   OH215500   0.163   2.130   4.993  0.0089  0.5842 -0.2167
 5165TIP3    H115501   0.141   2.219   4.966 -1.4323  0.2089 -0.3818
 5165TIP3    H215502   0.184   2.138   5.086 -1.1192  0.9684  0.0216
 5166TIP3   OH215503   1.757   1.497   1.440  0.1635 -0.2065  0.0726
 5166TIP3    H115504   1.784   1.574   1.391 -2.4447  0.2033 -0.8303
 5166TIP3    H215505   1.727   1.435   1.374  0.5301 -1.3052  0.9033
 5167TIP3   OH215506   3.738   5.110   0.629  0.3239 -0.3052  0.6050
 5167TIP3    H115507   3.732   5.133   0.536  2.2470  0.9428  0.7364
 5167TIP3    H215508   3.659   5.147   0.668 -0.1144 -0.1623 -0.4001
 5168TIP3   OH215509   2.483   3.251   4.783 -0.2235 -0.1472 -0.2230
 5168TIP3    H115510   2.558   3.208   4.825  0.2529  0.1958 -0.7048
 5168TIP3    H215511   2.434   3.289   4.855  0.7676  0.7252  0.0178
 5169TIP3   OH215512   2.921   3.105   1.575  0.3028 -0.4351 -0.1952
 5169TIP3    H115513   3.000   3.152   1.547 -0.2484  0.1490 -0.7835
 5169TIP3    H215514   2.949   3.013   1.581  1.2671 -0.1209  0.4966
 5170TIP3   OH215515   5.318   5.930   4.134  0.2779 -0.1784 -0.1079
 5170TIP3    H115516   5.297   6.023   4.133  2.8209  0.5075  0.8866
 5170TIP3    H215517   5.390   5.920   4.072 -0.1397 -1.5471 -0.4159
 5171TIP3   OH215518   1.858   3.178   3.721  0.7703  0.4244 -0.4269
 5171TIP3    H115519   1.916   3.254   3.722  0.7497  0.4794 -1.7728
 5171TIP3    H215520   1.794   3.197   3.652  0.1773 -0.3872 -0.1176
 5172TIP3   OH215521   0.773   4.087   4.832 -0.0546 -0.4494 -0.2837
 5172TIP3    H115522   0.709   4.159   4.841  0.1435 -0.3041 -0.0310
 5172TIP3    H215523   0.735   4.015   4.882  0.9173  0.2709  1.5492
 5173TIP3   OH215524   5.297   5.964   4.496 -0.1758 -0.8112  0.0141
 5173TIP3    H115525   5.205   5.972   4.470 -0.4971  1.0378  1.4941
 5173TIP3    H215526   5.294   5.928   4.585  0.6380 -2.1152 -0.4558
 5174TIP3   OH215527   3.334   3.655   1.008  0.1446  0.4983 -0.1326
 5174TIP3    H115528   3.408   3.622   0.958 -0.1770  0.8228 -0.8253
 5174TIP3    H215529   3.364   3.652   1.099  0.0958 -1.8784 -0.1146
 5175TIP3   OH215530   4.468   0.777   4.273  0.0020  0.1711 -0.3364
 5175TIP3    H115531   4.527   0.805   4.203 -0.2164  0.9355 -0.2331
 5175TIP3    H215532   4.383   0.812   4.247 -0.2050 -0.0952 -0.0124
 5176TIP3   OH215533   4.887   5.785   3.816 -0.2324  0.2278  0.0390
 5176TIP3    H115534   4.976   5.776   3.783 -1.4325 -1.9901 -3.0889
 5176TIP3    H215535   4.863   5.875   3.797  0.6873  0.2819 -0.9553
 5177TIP3   OH215536   2.341   2.694   1.859  0.2089  0.3894 -0.4042
 5177TIP3    H115537   2.432   2.706   1.833  0.3980 -0.7344 -0.3099
 5177TIP3    H215538   2.345   2.640   1.938 -0.5229  0.6760 -0.1593
 5178TIP3   OH215539   0.885   2.411   2.111  0.1183  0.0665  0.1507
 5178TIP3    H115540   0.881   2.418   2.207  2.2953  0.6706  0.2572
 5178TIP3    H215541   0.969   2.451   2.088 -0.1795 -0.4354 -1.9917
 5179TIP3   OH215542   3.028   1.165   3.386 -1.0354  0.0976 -0.2718
 5179TIP3    H115543   2.948   1.113   3.390 -1.6025  0.9131 -0.6316
 5179TIP3    H215544   3.050   1.184   3.477 -0.5655 -1.1284 -0.1125
 5180TIP3   OH215545   5.625   1.007   0.680  0.0897 -0.3134 -0.2907
 5180TIP3    H115546   5.623   0.951   0.602  0.9251 -1.1687  0.2800
 5180TIP3    H215547   5.580   0.957   0.747  1.9352 -0.8980  0.5775
 5181TIP3   OH215548   2.810   2.964   3.655  0.1041 -0.3600  0.0196
 5181TIP3    H115549   2.880   2.918   3.609 -0.0588  0.2029 -0.8191
 5181TIP3    H215550   2.735   2.903   3.652  0.8458 -1.4397  1.9114
 5182TIP3   OH215551   3.505   1.758   1.718 -0.2664 -0.8050  0.3743
 5182TIP3    H115552   3.584   1.735   1.766  0.2652 -0.3601 -0.2687
 5182TIP3    H215553   3.533   1.825   1.656 -1.0533 -0.9854 -0.1927
 5183TIP3   OH215554   3.421   4.330   4.792  0.0632 -0.0609 -0.0046
 5183TIP3    H115555   3.398   4.374   4.711 -1.0923 -1.1106 -0.2814
 5183TIP3    H215556   3.516   4.336   4.797 -0.0089  1.9905 -0.2684
 5184TIP3   OH215557   3.752   0.288   2.498  0.3072 -0.1126 -0.4068
 5184TIP3    H115558   3.781   0.291   2.589  0.5762  0.1025 -0.4966
 5184TIP3    H215559   3.659   0.310   2.501  0.5498  0.9501 -0.2809
 5185TIP3   OH215560   6.181   3.615   0.885  0.4473  0.3640  0.3634
 5185TIP3    H115561   6.214   3.693   0.930  1.8612 -0.4639  0.8472
 5185TIP3    H215562   6.252   3.591   0.826  0.0774 -0.6151  0.3033
 5186TIP3   OH215563   2.184   4.318   0.420  0.1011  1.2654 -0.4416
 5186TIP3    H115564   2.102   4.284   0.455 -0.3251  0.7429 -1.8637
 5186TIP3    H215565   2.252   4.285   0.479 -0.4828 -0.5212 -0.7210
 5187TIP3   OH215566   4.893   2.487   2.260 -0.7924  0.6008 -0.1858
 5187TIP3    H115567   4.951   2.437   2.203  0.4049  1.4088  0.2847
 5187TIP3    H215568   4.888   2.436   2.340  1.5021  1.7487  0.8104
 5188TIP3   OH215569   3.783   4.453   0.085  0.7385 -0.0608 -0.6188
 5188TIP3    H115570   3.789   4.374   0.031 -0.9750 -0.6721  0.0256
 5188TIP3    H215571   3.690   4.460   0.107  1.2790  0.5568  1.6970
 5189TIP3   OH215572   4.706   1.579   2.430 -0.0341 -0.0937  0.1855
 5189TIP3    H115573   4.694   1.652   2.369  0.3988 -0.2121 -0.0473
 5189TIP3    H215574   4.658   1.507   2.390 -0.0949 -0.0588  0.1951
 5190TIP3   OH215575   6.111   5.459   2.568 -0.3181 -0.5587 -0.1665
 5190TIP3    H115576   6.107   5.456   2.473  1.3071 -0.4355 -0.2627
 5190TIP3    H215577   6.197   5.424   2.590 -0.9932 -1.3749  1.3147
 5191TIP3   OH215578   0.468   2.887   5.093 -0.7511 -0.7520  0.0420
 5191TIP3    H115579   0.399   2.823   5.108  0.0551 -1.3401  1.4738
 5191TIP3    H215580   0.470   2.940   5.173  0.3011 -0.6202 -0.0556
 5192TIP3   OH215581   1.045   3.250   2.068  0.0633  0.3598  0.2414
 5192TIP3    H115582   1.027   3.305   1.992 -0.6313 -1.2563 -0.8244
 5192TIP3    H215583   1.134   3.274   2.095 -0.9680  3.5741  1.2709
 5193TIP3   OH215584   2.485   5.906   3.515 -0.1335 -0.2085  0.4267
 5193TIP3    H115585   2.415   5.864   3.565 -0.2673 -0.8419 -0.2711
 5193TIP3    H215586   2.563   5.894   3.568 -0.2173 -1.1414  0.3514
 5194TIP3   OH215587  -0.012   5.079   2.917  0.0553  0.0942 -0.0002
 5194TIP3    H115588  -0.005   5.029   2.998 -1.3334  1.6273  1.1226
 5194TIP3    H215589   0.076   5.116   2.904 -0.2288  1.6836  2.1033
 5195TIP3   OH215590   5.442   2.078   4.904  0.3035  0.2688  0.4925
 5195TIP3    H115591   5.525   2.106   4.864  0.0028 -1.2453 -1.2615
 5195TIP3    H215592   5.458   1.988   4.933 -1.0203 -0.4154 -0.8041
 5196TIP3   OH215593   6.095   5.108   2.479 -0.0317 -0.4462  0.3824
 5196TIP3    H115594   6.074   5.068   2.563  0.7279  0.0703  0.8364
 5196TIP3    H215595   6.189   5.128   2.485 -0.0483 -0.0748 -0.4484
 5197TIP3   OH215596   0.633   2.583   2.123  0.4577  0.3881 -0.3899
 5197TIP3    H115597   0.668   2.515   2.180  0.9222 -0.4182 -1.5943
 5197TIP3    H215598   0.594   2.534   2.050 -2.7374  1.2222  0.5703
 5198TIP3   OH215599   3.287   1.265   2.957 -0.0983 -0.0018  0.0338
 5198TIP3    H115600   3.301   1.171   2.956 -2.3961 -0.4770  2.2397
 5198TIP3    H215601   3.244   1.282   3.041 -1.5141  2.7236 -1.1117
 5199TIP3   OH215602   4.271   1.917   5.051 -0.3200  0.2184 -0.6068
 5199TIP3    H115603   4.246   1.968   5.128 -0.0625 -0.2628 -0.1975
 5199TIP3    H215604   4.215   1.840   5.054 -1.3035  0.8407 -1.6848
 5200TIP3   OH215605   4.298   4.794   4.691 -0.4744 -0.4122 -0.3567
 5200TIP3    H115606   4.317   4.749   4.774  0.0457 -0.7998 -0.6814
 5200TIP3    H215607   4.337   4.880   4.701  1.2846 -1.1111 -0.9188
 5201TIP3   OH215608   5.233   5.145   0.614  0.3405 -0.1445 -0.1517
 5201TIP3    H115609   5.229   5.091   0.536 -2.3917 -0.9005  0.3843
 5201TIP3    H215610   5.167   5.213   0.599  0.6874  0.4630  0.9517
 5202TIP3   OH215611   3.300   4.371   4.216  0.1995 -1.0141  0.2627
 5202TIP3    H115612   3.317   4.381   4.310  1.7014 -0.4265 -0.0376
 5202TIP3    H215613   3.344   4.447   4.176 -1.4327 -0.5957 -0.8262
 5203TIP3   OH215614   2.710   5.676   3.916 -0.3359 -0.1146  0.5406
 5203TIP3    H115615   2.686   5.625   3.993 -1.1604 -0.1765  0.2511
 5203TIP3    H215616   2.641   5.658   3.853  0.3403 -0.0788 -0.2259
 5204TIP3   OH215617   5.124   1.607   0.310 -0.1468 -0.0662 -0.1103
 5204TIP3    H115618   5.136   1.594   0.216  0.5831 -0.5243  0.0369
 5204TIP3    H215619   5.029   1.607   0.323 -0.2506 -0.0861 -0.8288
 5205TIP3   OH215620   4.504   0.682   1.978  0.0724  0.3101 -0.4378
 5205TIP3    H115621   4.463   0.759   1.939  0.0936  0.4532 -0.1829
 5205TIP3    H215622   4.445   0.657   2.049  1.8663  2.3409  1.9404
 5206TIP3   OH215623   2.918   5.718   2.216  0.1447 -0.0482 -0.2967
 5206TIP3    H115624   2.893   5.644   2.271  0.1683  0.3496  0.2611
 5206TIP3    H215625   2.878   5.794   2.259  0.1274  0.2632 -0.8562
 5207TIP3   OH215626   1.579   1.577   2.168 -0.0372  0.5805  0.2210
 5207TIP3    H115627   1.653   1.517   2.176 -0.6015  0.0432  1.8096
 5207TIP3    H215628   1.507   1.523   2.135  0.1199  0.9890 -0.8359
 5208TIP3   OH215629   6.371   4.368   2.707  0.1412  0.1098  0.1288
 5208TIP3    H115630   6.370   4.354   2.801 -1.2748 -0.1834  0.0871
 5208TIP3    H215631   6.289   4.331   2.676  0.0244  1.2860 -1.0635
 5209TIP3   OH215632   2.064   5.386   4.540 -0.4099 -0.3171  0.4185
 5209TIP3    H115633   2.118   5.403   4.617 -0.9162 -0.4305  0.8006
 5209TIP3    H215634   1.974   5.393   4.571 -0.6673  1.5370 -0.5586
 5210TIP3   OH215635   0.351   2.448   1.599  0.1758  0.2158 -0.0855
 5210TIP3    H115636   0.263   2.437   1.636  0.2435  0.5046  0.1607
 5210TIP3    H215637   0.344   2.526   1.544  0.1704 -0.0037 -0.3977
 5211TIP3   OH215638   2.078   0.555   4.090 -0.2825 -0.0995 -0.0156
 5211TIP3    H115639   2.118   0.564   4.003 -2.8094 -1.0404 -1.3810
 5211TIP3    H215640   2.142   0.505   4.141  2.8591  3.4028 -0.0723
 5212TIP3   OH215641   3.616   3.734   1.735 -0.0029 -0.1059 -0.2222
 5212TIP3    H115642   3.642   3.780   1.655 -1.3930  2.6042  0.7841
 5212TIP3    H215643   3.679   3.763   1.801 -0.9771  0.4997  0.4641
 5213TIP3   OH215644   5.582   5.454   1.881  0.6927  0.2169 -0.0636
 5213TIP3    H115645   5.516   5.387   1.863  0.0872  0.6385  0.5388
 5213TIP3    H215646   5.580   5.464   1.976  2.6199 -0.7600  0.1146
 5214TIP3   OH215647   3.425   4.063   1.992 -0.2730  0.1842 -0.1483
 5214TIP3    H115648   3.381   4.095   2.071  1.2823 -0.2312  0.9271
 5214TIP3    H215649   3.440   4.142   1.940  1.7587  1.0297  1.5819
 5215TIP3   OH215650   1.813   4.457   4.969  1.2543 -0.0464 -0.4291
 5215TIP3    H115651   1.909   4.459   4.972  1.2225  1.9993  0.9654
 5215TIP3    H215652   1.790   4.533   4.916  0.3670  0.2333  0.3557
 5216TIP3   OH215653   5.973   2.776   3.091 -0.1412 -0.1158 -0.0432
 5216TIP3    H115654   5.883   2.756   3.117 -0.5823  1.2276 -0.4580
 5216TIP3    H215655   5.982   2.737   3.004  0.4334 -2.1789  0.8761
 5217TIP3   OH215656   2.705   3.990   1.924 -0.0787 -0.0733 -0.5390
 5217TIP3    H115657   2.724   3.979   1.831 -0.9046 -2.0069 -0.5244
 5217TIP3    H215658   2.642   4.062   1.929 -2.5286 -1.9793 -1.8546
 5218TIP3   OH215659   4.382   4.538   3.905  0.2441  0.6073 -0.3502
 5218TIP3    H115660   4.387   4.600   3.833  0.8597 -0.0269 -0.8621
 5218TIP3    H215661   4.437   4.464   3.878  0.6390  0.4398  0.8431
 5219TIP3   OH215662   4.103   3.269   4.469 -0.1667  0.0499  0.3769
 5219TIP3    H115663   4.086   3.310   4.555  1.2967  0.9855  0.2611
 5219TIP3    H215664   4.100   3.342   4.407  4.0016  0.4171  0.3412
 5220TIP3   OH215665   1.639   4.364   4.658 -0.6434  0.3163  0.7822
 5220TIP3    H115666   1.552   4.335   4.629  0.2633 -0.2307 -1.6810
 5220TIP3    H215667   1.641   4.457   4.638 -0.0982 -0.0168 -0.9302
 5221TIP3   OH215668   6.162   1.479   3.876  0.2144 -0.5817  0.3163
 5221TIP3    H115669   6.081   1.499   3.829  0.8984 -1.0254 -1.1137
 5221TIP3    H215670   6.209   1.562   3.880 -0.2041 -0.3664  0.9752
 5222TIP3   OH215671   5.388   3.206   3.511  0.3968  0.3962 -0.0490
 5222TIP3    H115672   5.473   3.250   3.514  1.3560 -1.3173 -0.4138
 5222TIP3    H215673   5.355   3.212   3.600  1.7070 -0.3143  0.5261
 5223TIP3   OH215674   0.132   2.686   0.066 -0.4649 -0.0013  0.6254
 5223TIP3    H115675   0.093   2.675  -0.021  0.7492  2.4501 -0.3046
 5223TIP3    H215676   0.161   2.598   0.090 -0.1716 -0.6372 -1.7775
 5224TIP3   OH215677   5.114   0.114   3.984 -0.6475 -0.0439  0.9837
 5224TIP3    H115678   5.020   0.098   3.973 -0.4240 -1.0429  0.3454
 5224TIP3    H215679   5.125   0.135   4.077 -1.5394  0.4186  0.9929
 5225TIP3   OH215680   1.645   5.585   2.391 -0.4361  0.2495  0.7531
 5225TIP3    H115681   1.692   5.613   2.469 -1.1431  1.3694  0.8002
 5225TIP3    H215682   1.574   5.648   2.381 -0.2783  0.2281 -0.8756
 5226TIP3   OH215683   5.797   4.259   4.669 -0.0179  0.3126  0.1561
 5226TIP3    H115684   5.741   4.247   4.593 -0.1405  1.2784  0.0779
 5226TIP3    H215685   5.739   4.293   4.737 -0.0535 -1.1876  0.9163
 5227TIP3   OH215686   0.694   5.708   0.150  0.4156 -0.5047 -0.4399
 5227TIP3    H115687   0.772   5.731   0.201  0.9569  0.7819 -1.7592
 5227TIP3    H215688   0.686   5.779   0.086 -0.5120 -1.7884 -1.8232
 5228TIP3   OH215689   3.311   1.700   4.266 -0.5429  0.3628  0.2347
 5228TIP3    H115690   3.353   1.732   4.186 -0.2203 -1.9358 -0.5832
 5228TIP3    H215691   3.377   1.712   4.334 -0.1734  0.7596 -0.1868
 5229TIP3   OH215692   4.770   5.751   1.394  0.2443 -0.2364  0.0140
 5229TIP3    H115693   4.710   5.707   1.454  0.6953 -0.7024  0.1314
 5229TIP3    H215694   4.746   5.843   1.398 -0.6268 -0.4528 -0.1252
 5230TIP3   OH215695   5.295   2.264   4.786 -0.0526  0.0630  0.2628
 5230TIP3    H115696   5.288   2.245   4.692  1.1501  0.1231  0.1405
 5230TIP3    H215697   5.311   2.179   4.827  2.6592  0.3435  0.0112
 5231TIP3   OH215698   4.348   1.118   3.777 -0.5558 -0.1234  0.2942
 5231TIP3    H115699   4.382   1.179   3.842 -0.8507  0.8367 -0.4392
 5231TIP3    H215700   4.293   1.057   3.828  0.7903 -0.6123  1.2194
 5232TIP3   OH215701   5.973   3.932   2.099 -0.0651 -0.8980  0.5780
 5232TIP3    H115702   5.954   3.928   2.192 -1.1904 -1.5118  0.3307
 5232TIP3    H215703   6.014   4.018   2.086 -0.6987 -0.4484  1.4897
 5233TIP3   OH215704   3.124   2.720   2.810  0.1363  0.5373  0.3230
 5233TIP3    H115705   3.105   2.629   2.835 -0.0350  0.4248 -0.2035
 5233TIP3    H215706   3.215   2.718   2.780  0.3753  0.6927  1.0190
 5234TIP3   OH215707   3.252   4.865   0.011  0.1862  0.2165  0.5127
 5234TIP3    H115708   3.290   4.897  -0.071  0.1088  0.5266  0.5973
 5234TIP3    H215709   3.284   4.926   0.078 -0.3111  0.3717  0.6125
 5235TIP3   OH215710   6.051   5.063   1.758 -0.4082 -0.4207  0.3833
 5235TIP3    H115711   6.019   5.094   1.842 -0.0932 -2.7161  1.4471
 5235TIP3    H215712   5.981   5.006   1.725 -0.0167 -0.5273 -0.2893
 5236TIP3   OH215713   0.229   4.431   3.222  0.3108  0.2202 -0.1435
 5236TIP3    H115714   0.238   4.368   3.294  2.0873  1.6033  0.9363
 5236TIP3    H215715   0.181   4.504   3.260  0.4275  0.5589 -0.6405
 5237TIP3   OH215716   4.706   0.897   5.151 -0.0871  0.2301 -0.5746
 5237TIP3    H115717   4.646   0.900   5.226  0.2024 -3.0759 -0.0263
 5237TIP3    H215718   4.649   0.903   5.074 -0.5944  1.6602 -0.1201
 5238TIP3   OH215719   3.966   3.612   3.613 -0.6847  0.0674 -0.1968
 5238TIP3    H115720   3.988   3.683   3.674 -0.9770  0.1012 -0.1285
 5238TIP3    H215721   4.042   3.554   3.615 -0.1140  0.7768 -0.8364
 5239TIP3   OH215722   4.105   5.896   5.020  0.4977  0.0029  0.0050
 5239TIP3    H115723   4.017   5.931   5.011 -0.3761 -2.0625 -0.2012
 5239TIP3    H215724   4.118   5.887   5.115  0.2186 -0.2960  0.0161
 5240TIP3   OH215725   2.473   4.695   2.312  0.3141 -0.6275 -0.2514
 5240TIP3    H115726   2.498   4.604   2.291  0.3067 -0.8975  0.8750
 5240TIP3    H215727   2.541   4.748   2.271  1.0846 -1.2191  0.2336
 5241TIP3   OH215728   1.857   3.503   4.442 -0.4269  0.7448  0.1093
 5241TIP3    H115729   1.927   3.440   4.460  0.5437  2.1810  1.6905
 5241TIP3    H215730   1.885   3.548   4.363  1.0271  2.0102  1.2862
 5242TIP3   OH215731   2.186   3.249   4.718 -0.4530 -0.0129  0.2078
 5242TIP3    H115732   2.177   3.251   4.623  0.5482  0.2608  0.1060
 5242TIP3    H215733   2.280   3.259   4.734 -0.7957  1.8722  1.2942
 5243TIP3   OH215734   3.610   4.485   2.500 -0.0317  0.1975 -0.0623
 5243TIP3    H115735   3.532   4.444   2.462 -0.1429 -1.8354  2.1585
 5243TIP3    H215736   3.683   4.444   2.453 -0.2245 -0.3216  0.0844
 5244TIP3   OH215737   1.209   4.370   4.350  0.1734  0.2641  0.3605
 5244TIP3    H115738   1.247   4.413   4.274 -0.9690  1.2513  0.3229
 5244TIP3    H215739   1.173   4.441   4.403  2.4523 -0.1958  2.7472
 5245TIP3   OH215740   4.717   0.652   3.973  0.1075 -0.5196 -0.0351
 5245TIP3    H115741   4.628   0.646   4.009  0.9193 -0.5796  2.1359
 5245TIP3    H215742   4.708   0.710   3.898 -1.5666  0.6472  0.9756
 5246TIP3   OH215743   4.828   4.410   0.690 -0.2524  0.3707  0.0900
 5246TIP3    H115744   4.775   4.479   0.729 -2.3105 -0.9261 -0.2918
 5246TIP3    H215745   4.805   4.411   0.597  0.5780 -0.0729 -0.1311
 5247TIP3   OH215746   2.911   2.664   4.892 -0.3218  0.3746 -0.2922
 5247TIP3    H115747   2.955   2.648   4.808  0.1070  0.7007 -0.1324
 5247TIP3    H215748   2.835   2.605   4.891  0.1538 -0.2392 -0.5422
 5248TIP3   OH215749   0.119   3.478   1.072  0.0705  0.2277 -0.2655
 5248TIP3    H115750   0.070   3.505   0.994  0.4752 -0.6046 -0.8301
 5248TIP3    H215751   0.211   3.482   1.045  0.2055 -0.2404  0.1137
 5249TIP3   OH215752   3.174   3.454   4.136 -0.1767  0.2190  0.5729
 5249TIP3    H115753   3.262   3.452   4.098 -0.0656  0.0073  0.8474
 5249TIP3    H215754   3.138   3.538   4.107  0.3070  0.5400  0.8954
 5250TIP3   OH215755   1.642   2.187   3.221  0.0317  0.1526  0.1084
 5250TIP3    H115756   1.645   2.118   3.288  0.4862  0.3025  0.2448
 5250TIP3    H215757   1.564   2.237   3.243  0.1540  0.1770  0.5072
 5251TIP3   OH215758   4.417   1.411   3.638  0.2569  0.2461  0.0878
 5251TIP3    H115759   4.468   1.335   3.611  0.0035 -0.1845  0.7882
 5251TIP3    H215760   4.329   1.395   3.604  0.4105  0.6467 -0.5083
 5252TIP3   OH215761   3.150   1.823   2.670 -0.9984  0.2849  0.2350
 5252TIP3    H115762   3.099   1.766   2.727  0.4553 -1.5042 -0.1383
 5252TIP3    H215763   3.097   1.833   2.592 -1.8450  0.5379  0.8335
 5253TIP3   OH215764   5.805   5.320   5.015 -0.2595 -0.2627  0.6028
 5253TIP3    H115765   5.815   5.318   5.111 -2.8896 -0.7688  0.9418
 5253TIP3    H215766   5.735   5.256   4.997  0.8426 -0.9037 -1.7897
 5254TIP3   OH215767   3.139   5.222   1.809  0.0002 -0.4187 -0.3086
 5254TIP3    H115768   3.168   5.218   1.718  1.4908 -2.8949  0.1788
 5254TIP3    H215769   3.063   5.164   1.813 -1.0883  0.9581 -0.2521
 5255TIP3   OH215770   6.313   2.840   3.528 -0.0479 -0.1712  0.3640
 5255TIP3    H115771   6.298   2.759   3.577 -2.4153  1.2612  2.2582
 5255TIP3    H215772   6.267   2.826   3.445  1.6945 -1.6121 -0.4284
 5256TIP3   OH215773   5.408   4.129   3.558 -0.4219 -0.0551  0.2197
 5256TIP3    H115774   5.346   4.168   3.620  1.0010  2.3840  0.2135
 5256TIP3    H215775   5.494   4.144   3.597  0.3150 -1.4425 -0.7956
 5257TIP3   OH215776   2.074   3.148   2.672  0.2210 -0.2903  0.1990
 5257TIP3    H115777   2.150   3.151   2.730 -0.1906  0.4533  0.7071
 5257TIP3    H215778   2.000   3.126   2.729 -0.1605  0.2891 -0.0626
 5258TIP3   OH215779   3.507   0.027   2.409 -0.3459  0.6093  0.2298
 5258TIP3    H115780   3.486   0.113   2.374  1.4547  1.0172  0.0423
 5258TIP3    H215781   3.498   0.037   2.504 -1.8752  0.4695  0.1236
 5259TIP3   OH215782   4.326   1.879   4.389 -0.3193  0.0415 -0.2855
 5259TIP3    H115783   4.316   1.902   4.481  0.5599  1.9944 -0.6197
 5259TIP3    H215784   4.281   1.795   4.380 -1.6606  0.4825  1.6177
 5260TIP3   OH215785   5.818   1.799   0.422 -0.1992  0.0820 -0.0559
 5260TIP3    H115786   5.729   1.788   0.389 -0.4914  0.9719  0.4018
 5260TIP3    H215787   5.861   1.716   0.404 -0.9118 -0.1064 -0.9357
 5261TIP3   OH215788   1.266   0.285   0.547 -0.3626 -0.2775  0.1351
 5261TIP3    H115789   1.178   0.266   0.579 -0.4647 -0.9309 -0.5032
 5261TIP3    H215790   1.270   0.241   0.462  1.3934 -2.3597  1.1930
 5262TIP3   OH215791   5.859   4.993   2.643  0.0409  0.6113  0.3250
 5262TIP3    H115792   5.787   5.054   2.659  0.3352  0.8553  0.7232
 5262TIP3    H215793   5.922   5.012   2.712 -0.0747 -0.4595  0.7408
 5263TIP3   OH215794   1.952   1.996   0.099 -0.1559 -0.5440 -0.3485
 5263TIP3    H115795   1.960   1.902   0.110 -1.0135 -0.5627  0.1703
 5263TIP3    H215796   1.943   2.009   0.005  1.0067 -0.8842 -0.5293
 5264TIP3   OH215797   4.003   2.327   4.108 -0.5192 -0.1576  0.6340
 5264TIP3    H115798   3.985   2.380   4.030 -0.2555 -0.2411  0.5158
 5264TIP3    H215799   3.991   2.237   4.078 -2.5522 -0.1323  1.2285
 5265TIP3   OH215800   5.480   3.473   1.080  0.0125 -0.1540 -0.1231
 5265TIP3    H115801   5.504   3.395   1.130 -0.7424 -0.9833 -1.0094
 5265TIP3    H215802   5.447   3.534   1.146  1.1607 -0.3285  0.6587
 5266TIP3   OH215803   0.808   3.525   0.678 -0.4779  0.1812 -0.3349
 5266TIP3    H115804   0.756   3.549   0.602 -0.0372  0.0002 -0.6976
 5266TIP3    H215805   0.865   3.455   0.647 -0.4961 -0.0924  0.2390
 5267TIP3   OH215806   3.173   4.964   4.744 -0.4057 -0.3926  0.2767
 5267TIP3    H115807   3.204   4.939   4.656 -0.7677 -2.3873  0.6553
 5267TIP3    H215808   3.121   4.889   4.773  0.8273 -0.3862  2.7655
 5268TIP3   OH215809   1.457   3.831   0.231  0.0457 -0.1536 -0.0443
 5268TIP3    H115810   1.534   3.829   0.173 -0.9330 -1.5246 -1.3877
 5268TIP3    H215811   1.490   3.797   0.315  1.0267 -0.2032 -0.4317
 5269TIP3   OH215812   2.489   4.089   2.389  0.1623 -0.0949  0.0097
 5269TIP3    H115813   2.568   4.063   2.341  0.9763  3.0513 -0.5676
 5269TIP3    H215814   2.521   4.147   2.458 -1.5950  0.8626  0.0804
 5270TIP3   OH215815   0.060   3.505   2.883 -0.2118  0.2279  0.5916
 5270TIP3    H115816  -0.003   3.434   2.874 -0.2754  0.1020  1.7944
 5270TIP3    H215817   0.107   3.507   2.800 -1.6978  0.2302 -0.2732
 5271TIP3   OH215818   2.610   2.012   4.685 -0.2266 -0.3390  0.3784
 5271TIP3    H115819   2.666   1.951   4.733  0.9662 -0.3952 -1.0114
 5271TIP3    H215820   2.631   2.098   4.722  0.0430 -0.4714  0.5360
 5272TIP3   OH215821   3.309   0.525   3.261  0.0154 -0.5238 -0.2731
 5272TIP3    H115822   3.258   0.464   3.315 -0.1459  1.3352  1.8453
 5272TIP3    H215823   3.343   0.588   3.324  2.3491  0.0930 -2.0525
 5273TIP3   OH215824   0.104   5.033   1.019  0.2996 -0.3576  0.4544
 5273TIP3    H115825   0.158   5.109   0.996  1.3567 -0.7524  1.5274
 5273TIP3    H215826   0.094   5.039   1.114  0.1468 -1.4013  0.5125
 5274TIP3   OH215827   0.902   4.803   4.027  0.2030 -0.2202  0.4115
 5274TIP3    H115828   0.824   4.798   3.972 -0.7016 -0.7290  1.6656
 5274TIP3    H215829   0.965   4.746   3.984 -0.6538 -1.0022  0.1410
 5275TIP3   OH215830   5.585   4.648   0.138 -0.2576 -0.3764  0.0939
 5275TIP3    H115831   5.498   4.619   0.168 -0.6532  0.6467 -0.0222
 5275TIP3    H215832   5.632   4.670   0.218 -1.0979  1.7497  0.0832
 5276TIP3   OH215833   0.189   1.853   1.795 -0.2441 -0.0775 -0.5745
 5276TIP3    H115834   0.271   1.809   1.774 -0.2212 -0.0757 -0.4877
 5276TIP3    H215835   0.181   1.921   1.729  0.0839  0.2614 -0.2722
 5277TIP3   OH215836   0.736   3.448   3.438  0.3424 -0.2655  0.1881
 5277TIP3    H115837   0.698   3.534   3.459  0.1805 -0.7167  1.8654
 5277TIP3    H215838   0.815   3.469   3.388  0.0545  0.8439  0.1548
 5278TIP3   OH215839   2.349   5.514   1.038 -0.7327  0.4066  0.3872
 5278TIP3    H115840   2.323   5.492   1.128  0.5856 -1.7611  0.3051
 5278TIP3    H215841   2.444   5.528   1.043 -0.7333  0.8168 -0.5790
 5279TIP3   OH215842   4.210   2.804   1.115  0.2357  0.1545 -0.0069
 5279TIP3    H115843   4.297   2.841   1.096  0.4794 -0.6892 -0.5746
 5279TIP3    H215844   4.229   2.717   1.152 -0.3594  0.1712  0.3447
 5280TIP3   OH215845   0.460   1.826   4.792 -0.0580  0.6332  0.1887
 5280TIP3    H115846   0.462   1.908   4.840 -1.1019 -0.4818  2.3115
 5280TIP3    H215847   0.367   1.813   4.770  0.2843  0.7042 -1.4716
 5281TIP3   OH215848   1.180   2.065   1.286  0.3358 -0.7974  0.5795
 5281TIP3    H115849   1.098   2.107   1.312 -1.0604 -3.7029  1.3454
 5281TIP3    H215850   1.177   2.062   1.191  0.5287  0.8085  0.4956
 5282TIP3   OH215851   4.210   5.841   3.499  0.2604 -0.3112  0.5492
 5282TIP3    H115852   4.121   5.852   3.467  1.4161  1.2858 -2.4882
 5282TIP3    H215853   4.237   5.929   3.524  1.1335 -0.7296  1.1296
 5283TIP3   OH215854   1.442   1.400   1.999  0.2897 -0.7516  0.0290
 5283TIP3    H115855   1.502   1.337   1.959  0.7648  0.2163 -0.8514
 5283TIP3    H215856   1.396   1.440   1.925  0.5903  0.5011  0.4916
 5284TIP3   OH215857   3.522   4.848   0.273 -0.1253 -0.0393 -0.0239
 5284TIP3    H115858   3.612   4.866   0.245 -0.0007 -0.8426 -0.1669
 5284TIP3    H215859   3.472   4.926   0.245  0.7395  1.0051  1.2302
 5285TIP3   OH215860   0.508   5.581   4.982 -0.4031 -0.1507  0.1584
 5285TIP3    H115861   0.566   5.505   4.985 -1.1634 -0.7706 -0.3554
 5285TIP3    H215862   0.555   5.649   5.030  0.5881 -0.7354  0.0399
 5286TIP3   OH215863   0.233   3.875   3.114 -0.6516 -0.1567  0.5500
 5286TIP3    H115864   0.156   3.918   3.152 -0.3821  1.8482 -1.0157
 5286TIP3    H215865   0.263   3.935   3.046  2.1251 -1.0487  0.8589
 5287TIP3   OH215866   1.143   0.882   4.581  0.1423  0.2090 -0.0464
 5287TIP3    H115867   1.226   0.834   4.586  0.0953  0.2340  1.5191
 5287TIP3    H215868   1.162   0.967   4.621 -0.7946 -0.0568  1.0376
 5288TIP3   OH215869   3.903   5.264   4.154 -0.4703 -0.1197 -0.2915
 5288TIP3    H115870   3.834   5.311   4.107 -0.3706 -1.0996 -1.4549
 5288TIP3    H215871   3.945   5.210   4.088  1.8448  0.8914  0.2574
 5289TIP3   OH215872   1.501   0.113   2.368  0.2913  0.5525 -0.2805
 5289TIP3    H115873   1.433   0.151   2.425  0.6066  0.1219  0.3933
 5289TIP3    H215874   1.462   0.114   2.281 -1.0805 -0.8400  0.2833
 5290TIP3   OH215875   1.662   1.588   4.628 -0.1107  0.3917 -0.4775
 5290TIP3    H115876   1.731   1.645   4.595  0.6930  0.8973  1.8742
 5290TIP3    H215877   1.708   1.509   4.656 -0.5292  0.5291  0.6403
 5291TIP3   OH215878   1.548   4.853   5.102 -0.1322  0.7373  0.2054
 5291TIP3    H115879   1.542   4.759   5.086 -0.9568  0.3816  2.2784
 5291TIP3    H215880   1.578   4.890   5.019 -0.1016 -1.3077 -0.7467
 5292TIP3   OH215881   2.305   1.555   4.283 -0.3961  0.2621 -0.0944
 5292TIP3    H115882   2.225   1.503   4.279  0.4603 -1.1106 -0.0161
 5292TIP3    H215883   2.313   1.593   4.196 -1.2303  0.5856 -0.0411
 5293TIP3   OH215884  -0.015   5.720   0.691  0.0818 -0.7300 -0.5685
 5293TIP3    H115885   0.033   5.643   0.661  0.2548 -0.3218 -1.3672
 5293TIP3    H215886   0.011   5.789   0.631  1.5733  0.5215  1.3771
 5294TIP3   OH215887   5.996   2.683   0.241  0.4084  0.2069  0.0025
 5294TIP3    H115888   5.967   2.773   0.253 -0.3130  0.0643 -0.6394
 5294TIP3    H215889   5.917   2.635   0.218  0.6464 -0.7364  1.0412
 5295TIP3   OH215890   1.299   0.213   0.059  0.3922  0.3280  0.7008
 5295TIP3    H115891   1.284   0.242  -0.030  0.8598  0.2759  0.6017
 5295TIP3    H215892   1.340   0.126   0.049 -0.1046  0.0576  0.9737
 5296TIP3   OH215893   0.229   4.086   3.666 -0.2732  0.3879  0.1925
 5296TIP3    H115894   0.164   4.045   3.723  0.8022 -0.6698  0.7018
 5296TIP3    H215895   0.185   4.093   3.581 -1.4329  0.7603  0.8062
 5297TIP3   OH215896   1.795   4.182   0.798 -0.1769 -0.0921  0.2443
 5297TIP3    H115897   1.781   4.123   0.872  1.7423 -2.5996 -1.2533
 5297TIP3    H215898   1.881   4.221   0.814  0.4256 -0.9507 -0.8231
 5298TIP3   OH215899   0.087   4.545   4.752  0.3846 -0.3071  0.3589
 5298TIP3    H115900   0.109   4.532   4.844  1.3503  1.4464  0.4163
 5298TIP3    H215901   0.043   4.464   4.726  0.5009 -1.0127  2.2270
 5299TIP3   OH215902   0.590   5.538   1.684  0.4095 -0.0987 -0.0424
 5299TIP3    H115903   0.673   5.551   1.638  0.5124  2.4253  0.6914
 5299TIP3    H215904   0.597   5.595   1.761 -2.0140  0.2091  0.0169
 5300TIP3   OH215905   2.814   3.672   4.736 -0.4555 -0.4073 -0.2407
 5300TIP3    H115906   2.820   3.578   4.746 -0.9711 -0.4325 -0.1091
 5300TIP3    H215907   2.739   3.685   4.678  1.2073 -0.1845 -2.4576
 5301TIP3   OH215908   2.402   5.712   0.031 -0.7683  0.0150 -0.0582
 5301TIP3    H115909   2.342   5.648  -0.007  0.4563 -1.9774  1.1462
 5301TIP3    H215910   2.347   5.765   0.089 -1.9704  0.6886 -1.7524
 5302TIP3   OH215911   0.304   5.381   5.034  0.2395 -0.1304 -0.0472
 5302TIP3    H115912   0.346   5.359   4.951  0.0200  1.2989 -0.5636
 5302TIP3    H215913   0.325   5.473   5.048  0.0909 -0.2900  1.3869
 5303TIP3   OH215914   4.028   0.912   2.830 -0.1866  0.2140  0.2539
 5303TIP3    H115915   4.051   0.819   2.833 -0.3582  0.0528 -2.0361
 5303TIP3    H215916   4.024   0.938   2.922 -0.8954 -2.2311  1.0054
 5304TIP3   OH215917   2.661   1.864   3.021 -0.4591  0.2658 -0.0468
 5304TIP3    H115918   2.737   1.908   2.983 -0.5652  1.4310  1.0430
 5304TIP3    H215919   2.665   1.884   3.114 -1.6736 -0.3056  0.1472
 5305TIP3   OH215920   5.632   3.795   0.470 -0.5250  0.7991  0.3529
 5305TIP3    H115921   5.562   3.799   0.535 -0.0479  1.1770  0.8562
 5305TIP3    H215922   5.710   3.775   0.520 -0.1641  1.0002 -0.1198
 5306TIP3   OH215923   2.327   0.106   0.752  0.3835 -1.0316 -0.4974
 5306TIP3    H115924   2.255   0.148   0.705 -0.0561 -1.4258 -0.1861
 5306TIP3    H215925   2.284   0.055   0.821  0.9594 -1.3158 -0.3423
 5307TIP3   OH215926   1.040   2.337   2.336  0.0963  0.3971  0.0441
 5307TIP3    H115927   1.122   2.365   2.295 -0.0831  1.1780  0.1870
 5307TIP3    H215928   1.067   2.292   2.415  0.4077  0.0365 -0.2638
 5308TIP3   OH215929   2.593   5.524   2.501  0.1912 -0.2214 -0.1709
 5308TIP3    H115930   2.584   5.482   2.586 -0.4842  1.0305  0.4122
 5308TIP3    H215931   2.528   5.481   2.446  0.2812 -0.6957  0.0926
 5309TIP3   OH215932   6.312   1.505   3.255 -0.0288 -0.4162 -0.4780
 5309TIP3    H115933   6.281   1.432   3.309  0.6167  0.6597  1.4877
 5309TIP3    H215934   6.299   1.582   3.311  0.7011  0.7805 -1.8947
 5310TIP3   OH215935   1.182   1.020   0.259  0.7441  0.0755 -0.1221
 5310TIP3    H115936   1.203   1.113   0.266  0.3608  0.0606  1.4336
 5310TIP3    H215937   1.112   1.006   0.322 -0.4314 -0.9327 -1.5667
 5311TIP3   OH215938   1.970   2.273   0.187  0.1339  0.4320  0.5022
 5311TIP3    H115939   2.045   2.262   0.246 -0.2609 -2.7988  0.5421
 5311TIP3    H215940   1.946   2.184   0.161 -2.0470  1.5362 -1.6360
 5312TIP3   OH215941   5.459   0.658   3.404 -0.2699  0.0364 -0.1323
 5312TIP3    H115942   5.473   0.625   3.493  0.8883  0.5230 -0.1197
 5312TIP3    H215943   5.473   0.581   3.348  3.6913  0.6047 -0.2028
 5313TIP3   OH215944   1.152   5.146   0.373 -0.5561 -0.6049  0.4068
 5313TIP3    H115945   1.190   5.224   0.332 -0.9235 -1.4532 -1.6787
 5313TIP3    H215946   1.061   5.145   0.343 -0.2646 -2.4108 -0.5642
 5314TIP3   OH215947   3.717   5.083   4.571 -0.0565 -0.2627  0.1225
 5314TIP3    H115948   3.763   5.135   4.506  1.9437 -1.6737  0.2931
 5314TIP3    H215949   3.711   4.995   4.533  0.0313 -0.8153  1.3115
 5315TIP3   OH215950   2.723   1.329   3.904 -0.5417  0.6144 -0.5013
 5315TIP3    H115951   2.762   1.415   3.921 -1.2435  1.0089 -0.8606
 5315TIP3    H215952   2.644   1.327   3.957 -0.6619  0.2831 -0.6903
 5316TIP3   OH215953   3.413   1.702   0.019 -0.5562  0.2524  1.0767
 5316TIP3    H115954   3.476   1.695   0.090  2.0553 -1.7771 -1.2306
 5316TIP3    H215955   3.354   1.628   0.031  0.0617 -0.2560  0.9773
 5317TIP3   OH215956   3.864   4.387   2.505  0.0469  0.4894  0.0516
 5317TIP3    H115957   3.853   4.394   2.600  1.3687  0.7466  0.2025
 5317TIP3    H215958   3.951   4.424   2.488 -0.6693  1.6208 -1.4122
 5318TIP3   OH215959   4.121   5.194   0.646 -0.8771  0.1100 -0.2566
 5318TIP3    H115960   4.165   5.278   0.633 -0.6557 -0.1514 -1.2595
 5318TIP3    H215961   4.156   5.138   0.577 -0.0974 -1.1942  1.1509
 5319TIP3   OH215962   4.666   3.816   3.701  0.3414 -0.3355  0.0537
 5319TIP3    H115963   4.706   3.771   3.627 -2.1829  0.7602 -2.1569
 5319TIP3    H215964   4.626   3.745   3.752  0.7604 -1.0036 -0.5162
 5320TIP3   OH215965   1.982   1.950   5.033  0.2124  0.3506 -0.1237
 5320TIP3    H115966   1.990   1.940   5.127  0.9813  0.6167 -0.1536
 5320TIP3    H215967   2.029   1.875   4.996  1.5273  1.2037 -0.2931
 5321TIP3   OH215968   4.905   3.541   4.529  0.1099 -1.4519 -0.1914
 5321TIP3    H115969   4.969   3.477   4.561  0.3196 -0.6447  1.0847
 5321TIP3    H215970   4.847   3.556   4.603 -1.8186 -2.4092 -1.4336
 5322TIP3   OH215971   2.036   1.488   4.465  0.0502  0.0651 -0.2195
 5322TIP3    H115972   2.025   1.435   4.386 -0.4668 -1.3078  0.7310
 5322TIP3    H215973   2.129   1.482   4.485 -0.0590 -0.8484  0.0886
 5323TIP3   OH215974   5.825   0.801   0.754 -0.1042  0.6230 -0.3825
 5323TIP3    H115975   5.731   0.817   0.765 -0.1379 -0.1543  0.6301
 5323TIP3    H215976   5.858   0.792   0.843  0.5553 -1.1564 -0.7768
 5324TIP3   OH215977   5.047   0.630   0.693  0.4166  0.5087 -0.0079
 5324TIP3    H115978   4.996   0.563   0.738 -2.7252  2.3846 -0.4720
 5324TIP3    H215979   5.033   0.710   0.743  0.2474  1.7709 -1.9427
 5325TIP3   OH215980   3.591   0.169   4.204 -0.4435 -0.4156  0.0061
 5325TIP3    H115981   3.604   0.263   4.216  1.0724 -0.5097 -0.7427
 5325TIP3    H215982   3.612   0.131   4.289  2.7796 -0.3856 -0.6771
 5326TIP3   OH215983   2.287   5.419   0.785  0.2547  0.4014  0.0057
 5326TIP3    H115984   2.298   5.324   0.796 -0.6091  0.1750 -0.9778
 5326TIP3    H215985   2.289   5.453   0.875  1.1131 -0.4784  0.3370
 5327TIP3   OH215986   3.200   0.468   3.886 -0.2510 -0.1855 -0.3082
 5327TIP3    H115987   3.152   0.456   3.968 -0.7653 -1.6309 -0.7973
 5327TIP3    H215988   3.161   0.545   3.846  0.2046  0.7307  0.9156
 5328TIP3   OH215989   6.271   4.317   1.757 -0.3206  0.1737 -0.5834
 5328TIP3    H115990   6.179   4.334   1.737  0.4826  2.6005 -2.6518
 5328TIP3    H215991   6.279   4.337   1.851 -1.5879  1.5226 -0.7346
 5329TIP3   OH215992   1.990   1.932   4.332 -0.1113 -0.0392 -0.6737
 5329TIP3    H115993   1.996   1.921   4.427  1.6719 -1.5569 -0.9062
 5329TIP3    H215994   2.067   1.984   4.309  0.0496 -0.5860 -1.4074
 5330TIP3   OH215995   2.496   3.855   3.459  0.3244 -0.3511  0.2389
 5330TIP3    H115996   2.444   3.883   3.533  0.1134 -0.7986  0.2610
 5330TIP3    H215997   2.437   3.802   3.406  0.7181 -0.7630  0.2023
 5331TIP3   OH215998   5.518   5.954   1.004  0.0877 -0.2498 -0.1188
 5331TIP3    H115999   5.578   5.954   0.929  1.3916  0.5270  0.8808
 5331TIP3    H216000   5.542   6.033   1.053 -2.8567  1.0449 -0.5208
 5332TIP3   OH216001   4.277   5.401   1.036  0.4882 -0.4350 -0.1614
 5332TIP3    H116002   4.278   5.305   1.035  0.3376 -0.6295  3.7709
 5332TIP3    H216003   4.190   5.424   1.002  0.9484 -1.5574 -2.2699
 5333TIP3   OH216004   0.153   0.491   0.065  0.2703 -0.3251  0.0656
 5333TIP3    H116005   0.065   0.464   0.038 -0.1523  1.6351 -0.7125
 5333TIP3    H216006   0.151   0.489   0.160 -1.6203  2.3867  0.1861
 5334TIP3   OH216007   2.319   1.477   1.429  0.0584  0.2412 -0.4239
 5334TIP3    H116008   2.325   1.513   1.517 -1.1710  0.6479 -0.4857
 5334TIP3    H216009   2.243   1.418   1.432  0.9281 -0.9431 -0.8139
 5335TIP3   OH216010   5.649   1.741   4.947 -0.3055 -0.0949  0.4297
 5335TIP3    H116011   5.659   1.768   5.039 -1.6884 -1.6296  1.0892
 5335TIP3    H216012   5.572   1.683   4.948  0.4386 -1.1969 -1.4751
 5336TIP3   OH216013   2.610   5.885   4.503  0.3068 -0.1130  0.1280
 5336TIP3    H116014   2.593   5.854   4.414 -1.7063  0.9261  0.0923
 5336TIP3    H216015   2.589   5.811   4.559  2.4915 -1.0905 -0.2397
 5337TIP3   OH216016   4.550   5.353   4.407  0.4718  0.1857  0.5101
 5337TIP3    H116017   4.591   5.274   4.370  0.8692  1.5323 -2.1892
 5337TIP3    H216018   4.611   5.382   4.475  0.8980 -1.1661  0.7390
 5338TIP3   OH216019   0.043   4.288   4.667 -0.5014 -0.3169  0.4700
 5338TIP3    H116020  -0.029   4.228   4.684 -1.5818  0.5731 -0.8221
 5338TIP3    H216021   0.077   4.262   4.581 -0.5617  0.4955  0.1884
 5339TIP3   OH216022   5.805   3.318   2.879 -0.3594 -0.0581  0.5112
 5339TIP3    H116023   5.878   3.256   2.880 -0.4513 -0.1658  1.1227
 5339TIP3    H216024   5.730   3.266   2.849 -0.3536 -0.1411  0.6420
 5340TIP3   OH216025   4.655   2.654   0.151 -0.0025 -0.0598  0.4834
 5340TIP3    H116026   4.691   2.668   0.238 -0.5854  1.1980  0.5358
 5340TIP3    H216027   4.683   2.565   0.128 -0.8561 -0.8851  2.4395
 5341TIP3   OH216028   3.282   2.585   1.614 -0.3219  0.5851  0.1803
 5341TIP3    H116029   3.304   2.657   1.555  0.6104 -0.6073 -0.9919
 5341TIP3    H216030   3.230   2.525   1.561  1.5969 -1.1316  0.1049
 5342TIP3   OH216031   3.842   2.688   1.922 -0.5361  0.2605 -0.0774
 5342TIP3    H116032   3.898   2.651   1.855  0.5271  2.5374 -0.5281
 5342TIP3    H216033   3.882   2.662   2.005 -0.1641 -0.0780 -0.3651
 5343TIP3   OH216034   3.128   5.006   1.302  0.2127 -0.1398  0.1688
 5343TIP3    H116035   3.119   4.915   1.274 -1.3493 -0.3383  1.2405
 5343TIP3    H216036   3.042   5.045   1.287  0.4025  0.7248  1.2509
 5344TIP3   OH216037   3.027   1.561   3.433 -0.1365  0.3965 -0.4253
 5344TIP3    H116038   3.050   1.557   3.340  0.4293 -0.2072 -0.2721
 5344TIP3    H216039   2.943   1.515   3.439 -0.2793  0.6235 -0.6633
 5345TIP3   OH216040   4.055   2.922   2.201  0.6339 -0.0257 -0.0682
 5345TIP3    H116041   4.132   2.948   2.251  1.4222 -1.9907 -0.1568
 5345TIP3    H216042   3.991   2.991   2.219  1.6379  0.5078  1.8343
 5346TIP3   OH216043   1.497   0.559   1.171  0.2781  0.6595  0.6774
 5346TIP3    H116044   1.464   0.577   1.259 -0.7393  0.4356  0.3611
 5346TIP3    H216045   1.447   0.618   1.114  1.0413  0.9199  0.2653
 5347TIP3   OH216046   2.723   2.214   0.194  0.0588 -0.1977 -0.2443
 5347TIP3    H116047   2.733   2.269   0.116 -1.3373  1.4087  0.6310
 5347TIP3    H216048   2.650   2.253   0.241  2.0695  0.1471  2.8863
 5348TIP3   OH216049   4.034   1.318   0.869 -0.3745  0.3264  0.0630
 5348TIP3    H116050   3.985   1.247   0.827  0.1801 -0.5764  0.9056
 5348TIP3    H216051   4.122   1.283   0.880  0.1130  1.4339 -0.1965
 5349TIP3   OH216052   0.125   3.503   4.056  0.1822  0.2750  0.1628
 5349TIP3    H116053   0.064   3.508   4.130 -0.8836  0.7490 -0.7312
 5349TIP3    H216054   0.118   3.414   4.024 -0.7541  0.5838 -0.5189
 5350TIP3   OH216055   0.628   3.580   0.486  0.0672  0.1155 -0.4815
 5350TIP3    H116056   0.567   3.506   0.493  0.8685 -0.4639  0.5818
 5350TIP3    H216057   0.575   3.657   0.505  0.2690 -0.6221  4.4177
 5351TIP3   OH216058   4.645   2.401   1.179  0.3903  0.0979  0.1644
 5351TIP3    H116059   4.567   2.410   1.235 -0.2663 -0.6837 -0.6004
 5351TIP3    H216060   4.621   2.444   1.097  0.4149 -0.9231 -0.3976
 5352TIP3   OH216061   1.279   3.635   2.641 -0.3122 -0.3512  0.6926
 5352TIP3    H116062   1.320   3.697   2.701 -0.7790 -0.4498  1.1168
 5352TIP3    H216063   1.202   3.681   2.608  0.6079  0.2039 -0.8358
 5353TIP3   OH216064   3.475   0.328   2.388 -0.0860 -0.2070 -0.3270
 5353TIP3    H116065   3.398   0.368   2.429 -0.4499 -0.3816 -0.8258
 5353TIP3    H216066   3.443   0.297   2.303  0.2103 -1.4457 -0.0084
 5354TIP3   OH216067   6.115   5.372   2.091  0.2107 -0.3328  0.2579
 5354TIP3    H116068   6.043   5.367   2.155  0.5697 -0.3501  0.6690
 5354TIP3    H216069   6.143   5.281   2.080  1.0241 -0.2020  1.1013
 5355TIP3   OH216070   5.147   1.155   1.371 -0.6994 -0.3229 -0.6037
 5355TIP3    H116071   5.184   1.196   1.294 -1.1225  0.3367 -0.4637
 5355TIP3    H216072   5.057   1.188   1.375 -0.2681  0.7924  0.9623
 5356TIP3   OH216073   6.293   3.812   0.397  0.1910  0.1295  0.3681
 5356TIP3    H116074   6.276   3.722   0.425 -0.6039  0.5192  1.1887
 5356TIP3    H216075   6.334   3.854   0.472 -2.2006  1.2591  1.1457
 5357TIP3   OH216076   3.333   5.040   0.197 -0.4871 -0.1790 -0.1894
 5357TIP3    H116077   3.360   5.087   0.118  0.6872  0.3616  0.5056
 5357TIP3    H216078   3.279   5.104   0.245 -1.0537 -0.4469 -0.4623
 5358TIP3   OH216079   0.562   5.205   0.117 -0.2417  0.3983 -0.0919
 5358TIP3    H116080   0.550   5.217   0.023 -0.6275  0.5319 -0.0270
 5358TIP3    H216081   0.504   5.270   0.157  1.0812  1.4363  0.2347
 5359TIP3   OH216082   2.046   1.266   0.211  0.5635  0.3182 -0.5510
 5359TIP3    H116083   2.038   1.358   0.234 -1.3362 -0.2483  1.3963
 5359TIP3    H216084   2.006   1.259   0.125 -0.0466  1.1868 -0.3496
 5360TIP3   OH216085   0.371   0.671   0.031  0.1331  0.6239  0.4327
 5360TIP3    H116086   0.309   0.601   0.049  1.2732 -0.3334  0.7838
 5360TIP3    H216087   0.456   0.627   0.023  1.1490  2.0987  2.2295
 5361TIP3   OH216088   3.487   5.394   3.128 -0.2196  0.2908 -0.3367
 5361TIP3    H116089   3.487   5.299   3.132  0.8605  0.2146 -1.5767
 5361TIP3    H216090   3.579   5.419   3.136 -0.1649  1.0563 -2.6477
 5362TIP3   OH216091   2.042   4.148   3.662 -0.3680  0.2745  0.4775
 5362TIP3    H116092   2.078   4.176   3.578 -0.5502  1.3443  0.7385
 5362TIP3    H216093   2.113   4.162   3.725 -0.9614  1.7159  0.8748
 5363TIP3   OH216094   4.050   4.392   4.641  0.2808  0.5831 -0.8036
 5363TIP3    H116095   4.054   4.340   4.561  0.7449 -2.0491  0.7783
 5363TIP3    H216096   3.957   4.406   4.657  0.1164 -0.1611 -1.0726
 5364TIP3   OH216097   0.932   2.088   4.056  0.2136 -0.2077 -0.1502
 5364TIP3    H116098   1.002   2.024   4.040  0.4938  0.0403  0.0657
 5364TIP3    H216099   0.931   2.099   4.151  1.7472  1.8108 -0.2992
 5365TIP3   OH216100   1.963   2.544   0.266 -0.1862 -0.4396  0.2474
 5365TIP3    H116101   2.059   2.546   0.267 -0.1583 -1.1611  1.1929
 5365TIP3    H216102   1.941   2.457   0.234 -0.4720 -1.0488  1.9834
 5366TIP3   OH216103   0.493   2.490   4.237 -0.1116  0.3635 -0.4078
 5366TIP3    H116104   0.572   2.492   4.292 -0.8632  2.5474  0.7207
 5366TIP3    H216105   0.467   2.398   4.236  1.8175 -0.2315  0.1198
 5367TIP3   OH216106   4.126   1.068   4.466 -0.3638 -0.2595  0.0803
 5367TIP3    H116107   4.069   1.008   4.418  0.3218 -0.1869 -0.8617
 5367TIP3    H216108   4.090   1.070   4.554 -1.7826 -0.2597 -0.4709
 5368TIP3   OH216109   6.120   0.088   1.995  0.8094 -0.0528  0.2961
 5368TIP3    H116110   6.187   0.133   2.046  0.1441 -0.4813  1.5922
 5368TIP3    H216111   6.164   0.012   1.959  1.2367  0.1480  0.3880
 5369TIP3   OH216112   3.899   2.848   2.802  0.7638 -0.6515  0.3049
 5369TIP3    H116113   3.934   2.935   2.822  1.8402 -0.9969  0.0153
 5369TIP3    H216114   3.804   2.859   2.803  0.7543 -0.1533  3.3918
 5370TIP3   OH216115   1.532   4.729   3.870  0.9326 -0.1876 -0.3227
 5370TIP3    H116116   1.523   4.716   3.964  0.3075 -0.3029 -0.3889
 5370TIP3    H216117   1.625   4.744   3.855  1.1815 -1.1611  0.1909
 5371TIP3   OH216118   1.521   1.853   3.179 -0.7344  0.0868 -0.3007
 5371TIP3    H116119   1.534   1.911   3.255 -1.8294  0.0447 -0.0705
 5371TIP3    H216120   1.552   1.905   3.104 -2.8013  1.4948 -0.2662
 5372TIP3   OH216121   5.015   5.457   4.253  0.1042  0.8169 -0.6759
 5372TIP3    H116122   4.977   5.544   4.270  0.0113  0.3411  2.0151
 5372TIP3    H216123   4.944   5.407   4.213 -2.0221  0.2912  3.2080
 5373TIP3   OH216124   4.962   3.063   3.734 -0.2579 -0.1546  0.1411
 5373TIP3    H116125   4.950   3.136   3.795 -1.1893 -0.0360 -0.1588
 5373TIP3    H216126   4.879   3.016   3.738  0.1887 -0.9600  0.0177
 5374TIP3   OH216127   5.922   5.806   2.777  0.3076  0.3392  0.4440
 5374TIP3    H116128   5.837   5.787   2.816 -0.1635  1.7241  0.1713
 5374TIP3    H216129   5.921   5.760   2.693  0.4213 -0.8210  1.0683
 5375TIP3   OH216130   4.282   5.483   1.604 -0.0713 -0.2467 -0.2540
 5375TIP3    H116131   4.248   5.399   1.573 -0.7061 -0.2304  0.4034
 5375TIP3    H216132   4.328   5.519   1.528 -1.3018 -0.3780 -1.0871
 5376TIP3   OH216133   1.566   5.141   2.728 -0.0337 -0.2981  0.1326
 5376TIP3    H116134   1.483   5.168   2.767  1.0172  2.1333  0.8339
 5376TIP3    H216135   1.556   5.161   2.635 -0.5006 -0.7613  0.0786
 5377TIP3   OH216136   5.424   3.048   2.446  0.0762  0.3970 -0.5998
 5377TIP3    H116137   5.466   3.014   2.366  1.3465  1.6373 -0.5005
 5377TIP3    H216138   5.411   3.141   2.429 -0.2587  0.5461  0.3963
 5378TIP3   OH216139   3.152   0.539   4.980 -0.0304 -0.1311 -0.2193
 5378TIP3    H116140   3.204   0.500   4.909 -0.0074 -0.1185 -0.2096
 5378TIP3    H216141   3.062   0.535   4.949  0.1111  1.1249 -0.8373
 5379TIP3   OH216142   4.512   4.705   1.453 -0.0388 -0.3423  0.4981
 5379TIP3    H116143   4.490   4.778   1.512  3.3124  0.5223  0.8838
 5379TIP3    H216144   4.552   4.639   1.510  1.2658 -0.4196 -0.4595
 5380TIP3   OH216145   4.895   3.451   2.569  0.1991  0.2899 -0.3036
 5380TIP3    H116146   4.803   3.437   2.544  0.1565  0.6910 -0.3772
 5380TIP3    H216147   4.911   3.384   2.636  0.3473 -0.8573 -1.4580
 5381TIP3   OH216148   5.847   2.446   0.223 -0.0147  0.3267 -0.2855
 5381TIP3    H116149   5.865   2.352   0.210 -0.8699  0.1510 -0.2412
 5381TIP3    H216150   5.853   2.458   0.318  1.1531  0.5536 -0.3657
 5382TIP3   OH216151   3.719   3.052   3.379  0.1648  0.3323  0.0228
 5382TIP3    H116152   3.660   3.127   3.381 -0.5977 -0.1702 -1.8005
 5382TIP3    H216153   3.778   3.066   3.453 -0.5834  2.2049  0.3136
 5383TIP3   OH216154   0.251   3.236   4.043 -0.2295 -0.3149  0.1915
 5383TIP3    H116155   0.285   3.159   4.088  0.7971 -1.1260 -1.8640
 5383TIP3    H216156   0.222   3.204   3.958  1.9553  1.7752 -1.4955
 5384TIP3   OH216157   1.500   0.428   4.975  0.1383 -0.0171 -0.8151
 5384TIP3    H116158   1.433   0.419   5.043  0.8611 -0.5860 -0.1605
 5384TIP3    H216159   1.452   0.454   4.897 -1.2414 -2.9203 -1.0728
 5385TIP3   OH216160   3.607   5.340   0.154  0.2837  0.3190  0.2359
 5385TIP3    H116161   3.659   5.421   0.160  0.9489 -0.0348 -0.5257
 5385TIP3    H216162   3.553   5.341   0.233 -0.0210  1.7116  0.0449
 5386TIP3   OH216163   2.489   2.144   4.445 -0.0006 -0.3320  0.2519
 5386TIP3    H116164   2.486   2.234   4.479  1.0671 -0.1768 -0.0469
 5386TIP3    H216165   2.539   2.095   4.510  1.3816 -0.1994 -0.6727
 5387TIP3   OH216166   1.777   3.181   1.508 -0.6236 -0.4163  0.3427
 5387TIP3    H116167   1.840   3.209   1.442  1.0540  0.3203  2.1480
 5387TIP3    H216168   1.737   3.262   1.539  2.2279 -0.0368  3.6199
 5388TIP3   OH216169   5.430   5.445   3.390 -0.0887 -0.4286 -0.2397
 5388TIP3    H116170   5.411   5.491   3.308 -0.4352 -0.8031 -0.3744
 5388TIP3    H216171   5.391   5.358   3.378 -0.7395 -0.2692  0.5861
 5389TIP3   OH216172   5.269   2.862   0.071 -0.1047  0.5241  0.4306
 5389TIP3    H116173   5.240   2.861   0.162  1.5789  0.2673  0.9890
 5389TIP3    H216174   5.275   2.770   0.046 -0.7253  0.5953 -0.0075
 5390TIP3   OH216175   1.728   3.819   2.944  0.7285  0.1945  0.5482
 5390TIP3    H116176   1.771   3.899   2.914  0.9053 -0.0225  0.2231
 5390TIP3    H216177   1.799   3.761   2.971  0.6444 -0.1830 -0.0395
 5391TIP3   OH216178   5.517   4.465   4.386 -0.4483 -0.1464  0.7358
 5391TIP3    H116179   5.532   4.527   4.457 -0.6685  0.2134  0.4679
 5391TIP3    H216180   5.559   4.384   4.416  0.4234  0.3218  0.7946
 5392TIP3   OH216181   4.049   4.526   0.517 -0.8712  0.3803 -0.1554
 5392TIP3    H116182   4.133   4.481   0.522 -1.6328 -0.9508  1.3030
 5392TIP3    H216183   4.069   4.618   0.536  0.1886 -0.0048  0.6587
 5393TIP3   OH216184   4.890   5.625   0.138 -0.1059 -0.0335  0.3642
 5393TIP3    H116185   4.883   5.533   0.115  0.9161 -0.4223  1.5057
 5393TIP3    H216186   4.878   5.672   0.056 -2.2100 -1.0867 -0.0098
 5394TIP3   OH216187   5.343   1.989   3.016 -0.4514 -0.0601 -0.1938
 5394TIP3    H116188   5.350   2.076   2.976  0.8320  0.5533  1.2839
 5394TIP3    H216189   5.426   1.946   2.993 -0.1727 -0.0981  0.8406
 5395TIP3   OH216190   2.708   2.178   4.283 -0.3884 -0.8919 -0.1145
 5395TIP3    H116191   2.642   2.147   4.346 -0.7510  0.2338  0.0828
 5395TIP3    H216192   2.779   2.212   4.338 -0.8230  0.3451 -0.2769
 5396TIP3   OH216193   2.052   5.462   2.280 -0.4060  0.5730 -0.0083
 5396TIP3    H116194   2.063   5.539   2.225 -0.9055 -0.5182 -1.6948
 5396TIP3    H216195   2.095   5.391   2.233  1.0588 -0.0145  2.0446
 5397TIP3   OH216196   1.297   0.508   3.130  0.2559 -0.7304 -0.3747
 5397TIP3    H116197   1.358   0.442   3.163  0.8837 -0.3129 -0.6850
 5397TIP3    H216198   1.339   0.542   3.051  0.1988  0.4078  0.0660
 5398TIP3   OH216199   3.366   3.792   1.916  0.2176 -0.2213 -0.2496
 5398TIP3    H116200   3.461   3.785   1.908  0.1784 -0.5421 -0.4578
 5398TIP3    H216201   3.348   3.886   1.919  0.5610 -0.1659  0.0450
 5399TIP3   OH216202   1.353   2.577   0.198 -0.5239 -0.1221  0.1218
 5399TIP3    H116203   1.281   2.608   0.254 -1.3180  1.0996 -1.4793
 5399TIP3    H216204   1.372   2.652   0.141  0.3037 -1.2871 -1.1791
 5400TIP3   OH216205   4.306   0.204   4.602  0.1270 -0.2094 -0.2230
 5400TIP3    H116206   4.228   0.247   4.638  0.2305  0.2841 -0.5764
 5400TIP3    H216207   4.358   0.182   4.679 -0.9020 -1.6351  0.0975
 5401TIP3   OH216208   0.139   3.685   3.567  0.4642  0.2011 -0.3489
 5401TIP3    H116209   0.050   3.648   3.565 -0.3747  2.0849  0.0172
 5401TIP3    H216210   0.185   3.638   3.497 -0.7818 -0.8642 -0.5107
 5402TIP3   OH216211   2.373   3.126   3.878 -0.0769 -0.1683 -0.4997
 5402TIP3    H116212   2.341   3.078   3.802 -0.1358 -0.5283 -0.2475
 5402TIP3    H216213   2.391   3.059   3.944  0.5143  0.0904 -0.3866
 5403TIP3   OH216214   3.780   5.454   5.057  0.3513 -0.0634 -0.2771
 5403TIP3    H116215   3.750   5.486   5.142 -0.3169  1.5360 -1.0611
 5403TIP3    H216216   3.830   5.374   5.077  0.3742  0.3742  1.6047
 5404TIP3   OH216217   1.695   3.554   1.081  0.5788 -0.2243 -0.5072
 5404TIP3    H116218   1.730   3.466   1.098  0.8113  0.0661  0.5948
 5404TIP3    H216219   1.639   3.573   1.157  0.4700  0.5528 -0.7720
 5405TIP3   OH216220   3.869   2.810   4.545 -0.6808  0.2403 -0.2207
 5405TIP3    H116221   3.924   2.853   4.610 -1.0531  0.2486  0.0942
 5405TIP3    H216222   3.899   2.844   4.461 -1.3683  1.5902  0.0545
 5406TIP3   OH216223   3.670   4.582   0.786  0.0942  0.0641 -0.6622
 5406TIP3    H116224   3.755   4.540   0.791 -0.4581 -0.9422  1.0183
 5406TIP3    H216225   3.608   4.511   0.771 -0.6833  0.4087  0.6657
 5407TIP3   OH216226   4.790   4.568   5.160  0.2609  0.0181 -0.1180
 5407TIP3    H116227   4.776   4.557   5.066 -0.7628  0.0041  0.0198
 5407TIP3    H216228   4.794   4.663   5.172  1.8420  0.0054 -0.3505
 5408TIP3   OH216229   5.190   1.741   3.871  0.8513  0.4397  0.3920
 5408TIP3    H116230   5.242   1.819   3.852 -1.5272  2.1720  0.5145
 5408TIP3    H216231   5.142   1.725   3.790  1.7268 -1.2958  0.1842
 5409TIP3   OH216232   5.822   0.436   3.921  0.4853 -0.3607  0.3183
 5409TIP3    H116233   5.828   0.531   3.913 -0.2661 -0.4385 -1.6868
 5409TIP3    H216234   5.764   0.422   3.996 -0.6393  0.8075 -0.3010
 5410TIP3   OH216235   4.080   1.299   1.201 -0.5275 -0.2570  0.2278
 5410TIP3    H116236   4.015   1.237   1.234 -0.2305 -2.1942 -2.5453
 5410TIP3    H216237   4.075   1.291   1.106  3.8501 -0.6065 -0.1386
 5411TIP3   OH216238   0.760   3.241   2.453  0.2924 -0.0481 -0.1311
 5411TIP3    H116239   0.783   3.286   2.534 -0.8590 -0.8434  0.6713
 5411TIP3    H216240   0.837   3.189   2.431  0.3345 -0.4390  0.8958
 5412TIP3   OH216241   1.315   2.291   0.181  0.0426 -1.0050  0.3696
 5412TIP3    H116242   1.336   2.286   0.088 -0.8781  0.4602  0.0484
 5412TIP3    H216243   1.359   2.370   0.212 -0.6742 -0.7861  0.8734
 5413TIP3   OH216244   5.364   5.199   2.957 -0.1835  0.8457 -0.1114
 5413TIP3    H116245   5.366   5.213   2.862  0.0352  1.5058 -0.0166
 5413TIP3    H216246   5.395   5.110   2.968  1.3417  1.2833 -0.5821
 5414TIP3   OH216247   4.101   1.890   3.044 -0.7074 -0.4424 -0.4361
 5414TIP3    H116248   4.114   1.971   3.093  0.0946 -0.2356 -0.9863
 5414TIP3    H216249   4.017   1.902   2.999 -1.6596 -0.7963  1.1797
 5415TIP3   OH216250   3.700   1.680   1.443  0.1651 -0.2663 -0.1727
 5415TIP3    H116251   3.647   1.613   1.485 -0.8056  1.1283  0.9119
 5415TIP3    H216252   3.688   1.665   1.349 -0.5528 -1.1839  0.0529
 5416TIP3   OH216253   0.701   4.947   4.458  0.4271 -0.2484  0.4908
 5416TIP3    H116254   0.726   4.949   4.366 -2.2822  1.7537 -0.3347
 5416TIP3    H216255   0.780   4.973   4.505  1.2482  1.0354 -1.4796
 5417TIP3   OH216256   5.369   5.868   2.630  0.5186 -0.3896  0.0506
 5417TIP3    H116257   5.334   5.840   2.714 -0.2889  2.7408  0.9103
 5417TIP3    H216258   5.451   5.913   2.652  1.0598 -0.8163 -1.0246
 5418TIP3   OH216259   5.924   0.985   1.603 -0.0887  0.0562  0.6426
 5418TIP3    H116260   5.964   1.053   1.549 -0.8610 -0.3238 -0.4541
 5418TIP3    H216261   5.978   0.907   1.589  0.3224  0.2324  1.2511
 5419TIP3   OH216262   5.022   4.449   2.566 -0.1126  0.1097  0.1891
 5419TIP3    H116263   5.081   4.379   2.591 -0.7407 -0.8508 -0.9410
 5419TIP3    H216264   5.056   4.481   2.482 -0.9991 -0.2286 -0.3045
 5420TIP3   OH216265   4.287   4.183   2.008  0.2549  0.2705 -0.1359
 5420TIP3    H116266   4.245   4.263   2.039 -2.2014 -2.3585  4.3701
 5420TIP3    H216267   4.373   4.183   2.049 -0.1803  0.1566  0.8003
 5421TIP3   OH216268   5.294   0.217   2.724 -0.2422  0.3166  0.5005
 5421TIP3    H116269   5.336   0.131   2.726  0.4193  0.5924 -0.6113
 5421TIP3    H216270   5.292   0.240   2.631  0.1342  1.7466  0.8233
 5422TIP3   OH216271   6.073   1.547   2.312  0.1857  0.0050  0.5493
 5422TIP3    H116272   6.098   1.633   2.345 -1.5542  0.6448  0.3088
 5422TIP3    H216273   5.987   1.560   2.272  0.6542 -1.4905 -1.0900
 5423TIP3   OH216274   0.109   0.656   4.737 -0.2091  0.3083 -0.0322
 5423TIP3    H116275   0.038   0.676   4.676 -0.7529 -1.5221 -0.0663
 5423TIP3    H216276   0.189   0.666   4.685 -0.3973  2.3119 -0.0149
 5424TIP3   OH216277   4.438   1.775   4.880  0.4362  0.8864  0.5248
 5424TIP3    H116278   4.400   1.829   4.950  0.8775  1.1729  0.5502
 5424TIP3    H216279   4.531   1.770   4.902  0.5015  0.6173  0.1913
 5425TIP3   OH216280   1.149   3.487   1.625  0.5771 -0.1223 -0.0839
 5425TIP3    H116281   1.142   3.414   1.687 -0.9150  1.0660  1.2316
 5425TIP3    H216282   1.065   3.491   1.581  1.2765 -0.3033 -1.5063
 5426TIP3   OH216283   0.434   2.335   4.765  0.0329 -0.0197 -0.2237
 5426TIP3    H116284   0.433   2.395   4.840 -0.5599  0.1735 -0.3836
 5426TIP3    H216285   0.432   2.393   4.689  0.8692 -0.2065 -0.4022
 5427TIP3   OH216286   3.266   1.377   1.343  0.6866  0.2888  0.0012
 5427TIP3    H116287   3.280   1.343   1.431  0.8017  0.4553  0.0498
 5427TIP3    H216288   3.181   1.342   1.316  1.1628 -0.6910 -0.2692
 5428TIP3   OH216289   3.567   2.906   3.745 -0.0676  0.1518  0.8172
 5428TIP3    H116290   3.593   2.997   3.737 -0.5059  0.6119  3.6765
 5428TIP3    H216291   3.598   2.879   3.832 -1.6106 -1.8420  0.8360
 5429TIP3   OH216292   2.010   2.897   4.350  0.1650  0.1376  0.0782
 5429TIP3    H116293   2.023   2.920   4.442 -0.9519  0.3137  0.2031
 5429TIP3    H216294   1.939   2.954   4.320  1.0886  0.6877 -1.1432
 5430TIP3   OH216295   4.412   3.649   1.214 -0.3521  0.5356 -0.2744
 5430TIP3    H116296   4.455   3.589   1.275 -0.1610 -0.9700 -1.8024
 5430TIP3    H216297   4.485   3.693   1.169 -0.4780  0.6502 -0.3676
 5431TIP3   OH216298   5.536   2.688   3.701 -0.4552  0.2216  0.0164
 5431TIP3    H116299   5.562   2.780   3.696 -1.7367  0.8749  3.1056
 5431TIP3    H216300   5.448   2.686   3.664  0.1127 -0.0909 -1.3745
 5432TIP3   OH216301   4.940   2.222   1.682  0.0929  0.2083 -0.2348
 5432TIP3    H116302   4.867   2.271   1.718 -0.7620  0.9331 -2.7906
 5432TIP3    H216303   4.901   2.139   1.653  0.3932  0.3383 -1.0288
 5433TIP3   OH216304   5.782   5.674   1.550 -0.0112 -0.0934 -0.1299
 5433TIP3    H116305   5.870   5.639   1.549 -0.1038 -0.3694  0.5701
 5433TIP3    H216306   5.725   5.599   1.531 -0.2166 -0.3944  1.4874
 5434TIP3   OH216307   4.176   4.631   4.929  0.4113 -0.1381  0.4269
 5434TIP3    H116308   4.186   4.548   4.882 -0.8310  0.1602 -0.3948
 5434TIP3    H216309   4.085   4.656   4.914  1.0318  1.9038 -0.1982
 5435TIP3   OH216310   6.236   5.298   4.020 -0.2094 -0.0832  0.2912
 5435TIP3    H116311   6.250   5.354   4.097 -1.0531 -1.5399  1.5707
 5435TIP3    H216312   6.201   5.217   4.056 -1.6060 -0.4580 -1.7588
 5436TIP3   OH216313   1.618   2.026   0.111 -0.0186  0.3527 -0.6575
 5436TIP3    H116314   1.595   1.994   0.198 -2.7880 -0.3862 -1.5501
 5436TIP3    H216315   1.698   2.077   0.124  1.0233 -1.6979  1.8821
 5437TIP3   OH216316   4.908   5.084   4.014  0.2230  0.1019 -0.9203
 5437TIP3    H116317   4.975   5.020   3.989 -0.1281 -0.8182  0.3731
 5437TIP3    H216318   4.828   5.032   4.025 -0.1847  0.8361 -0.3196
 5438TIP3   OH216319   1.368   1.993   4.003 -0.1852 -0.2007  0.4217
 5438TIP3    H116320   1.388   2.082   3.976  0.4849  0.0410  1.6353
 5438TIP3    H216321   1.272   1.989   4.003 -0.2141  0.1673 -0.6758
 5439TIP3   OH216322   4.598   2.200   4.189  0.3499  0.4163 -0.3087
 5439TIP3    H116323   4.538   2.192   4.263  0.3748 -1.1914 -0.4333
 5439TIP3    H216324   4.560   2.270   4.136  0.5602  1.8966  1.3952
 5440TIP3   OH216325   0.156   1.936   0.104 -0.2682  0.1553  0.3229
 5440TIP3    H116326   0.182   1.965   0.016 -1.9468  0.6457 -0.0453
 5440TIP3    H216327   0.146   2.017   0.153 -0.5401 -0.0484  0.6046
 5441TIP3   OH216328   1.091   1.868   2.412  0.6831  0.1157 -0.8069
 5441TIP3    H116329   1.111   1.795   2.353  0.3773 -0.1792 -0.5539
 5441TIP3    H216330   1.046   1.827   2.486  2.8512  0.1524  0.6454
 5442TIP3   OH216331   1.460   4.945   3.718  0.5801  0.1408 -0.2661
 5442TIP3    H116332   1.483   4.882   3.787 -0.2966 -1.9488 -1.7941
 5442TIP3    H216333   1.457   5.029   3.764  0.7614 -1.0310  2.0901
 5443TIP3   OH216334   2.291   0.849   3.278  0.2009  0.4265  0.0397
 5443TIP3    H116335   2.228   0.836   3.206 -0.0261 -2.2119  0.6274
 5443TIP3    H216336   2.340   0.927   3.252 -1.8551  1.3276 -1.4990
 5444TIP3   OH216337   4.268   3.612   0.106  0.2036 -0.1114 -0.5262
 5444TIP3    H116338   4.180   3.585   0.080  0.0147 -0.5642  0.5052
 5444TIP3    H216339   4.253   3.680   0.171  0.5792 -0.7572  0.2573
 5445TIP3   OH216340   5.018   1.747   4.858 -0.3624 -0.6298 -0.3735
 5445TIP3    H116341   4.935   1.703   4.842 -0.5069 -0.4503 -0.1132
 5445TIP3    H216342   5.020   1.761   4.953 -0.1906 -0.3285 -0.4208
 5446TIP3   OH216343   1.282   0.470   3.480 -0.6233  0.8599 -0.5494
 5446TIP3    H116344   1.322   0.395   3.435 -1.5127  0.3742 -0.5569
 5446TIP3    H216345   1.217   0.431   3.539 -0.2470  1.5628  0.3475
 5447TIP3   OH216346   6.168   5.728   5.161  0.2457  0.2832  0.1014
 5447TIP3    H116347   6.229   5.751   5.091  1.5482  0.3560  1.2413
 5447TIP3    H216348   6.101   5.675   5.117 -0.5443  2.6272 -1.7486
 5448TIP3   OH216349   3.972   0.763   2.435 -0.1850 -0.0793 -0.1828
 5448TIP3    H116350   4.027   0.699   2.389 -0.6121 -0.1219 -0.6353
 5448TIP3    H216351   3.954   0.721   2.520  0.5425 -0.0302  0.0040
 5449TIP3   OH216352   6.116   4.592   0.840 -0.3051  0.0359  0.1679
 5449TIP3    H116353   6.119   4.532   0.914  0.7476 -0.5882 -0.3686
 5449TIP3    H216354   6.205   4.591   0.804 -0.0388  2.5142  0.6115
 5450TIP3   OH216355   3.725   3.728   0.866 -0.2552 -0.4520 -0.4418
 5450TIP3    H116356   3.642   3.682   0.851  0.1998 -1.9077  1.2106
 5450TIP3    H216357   3.726   3.746   0.960  1.3796 -0.6508 -0.3969
 5451TIP3   OH216358   5.942   2.177   3.004  0.0304 -0.4664 -0.2704
 5451TIP3    H116359   5.946   2.105   2.940  0.3454 -0.1501 -0.6149
 5451TIP3    H216360   6.014   2.160   3.063  0.6842  0.0595 -0.8952
 5452TIP3   OH216361   3.032   4.774   4.833  0.0202 -0.6003  0.3528
 5452TIP3    H116362   3.030   4.712   4.760 -2.2806 -0.8045  0.4980
 5452TIP3    H216363   2.941   4.779   4.862  0.4586  1.4106  1.5883
 5453TIP3   OH216364   5.533   1.441   2.751  0.4210 -0.3379 -0.2143
 5453TIP3    H116365   5.597   1.376   2.780  0.7087  0.0124 -0.0614
 5453TIP3    H216366   5.478   1.456   2.828 -0.4231 -1.3079 -0.6012
 5454TIP3   OH216367   0.313   4.033   3.973 -0.1787 -0.1214  0.1440
 5454TIP3    H116368   0.245   3.966   3.984 -0.3392 -0.0970 -0.6235
 5454TIP3    H216369   0.270   4.115   3.994 -0.1113 -0.2074  0.6278
 5455TIP3   OH216370   5.192   2.663   4.677  0.2788  0.1056 -0.0938
 5455TIP3    H116371   5.128   2.598   4.647  0.4565 -0.3992  0.5888
 5455TIP3    H216372   5.165   2.683   4.767  0.3123  0.8762 -0.2459
 5456TIP3   OH216373   0.813   4.980   0.543 -0.2742  0.2204  0.3186
 5456TIP3    H116374   0.815   4.890   0.511 -0.8463  0.5506 -0.7011
 5456TIP3    H216375   0.786   4.973   0.634 -0.1541 -0.6506  0.2899
 5457TIP3   OH216376   1.146   1.011   5.105  0.0542 -0.0551 -0.0311
 5457TIP3    H116377   1.173   0.979   5.190 -0.3003  0.4787  0.2872
 5457TIP3    H216378   1.129   0.932   5.053 -2.9522 -0.4959  1.3875
 5458TIP3   OH216379   4.794   2.413   1.812  0.2491 -0.0841  0.1156
 5458TIP3    H116380   4.849   2.481   1.773 -0.8102  0.3653 -0.6513
 5458TIP3    H216381   4.725   2.462   1.857 -0.4358 -0.6498 -0.3183
 5459TIP3   OH216382   2.962   3.868   2.256 -0.2449 -0.0296 -0.5541
 5459TIP3    H116383   2.976   3.790   2.309  1.8117  0.2383 -0.5940
 5459TIP3    H216384   3.001   3.846   2.171  3.3146  1.9639  0.3403
 5460TIP3   OH216385   6.338   1.015   2.355 -0.6204 -0.3090  0.6943
 5460TIP3    H116386   6.244   1.033   2.349 -0.5166  0.2360  0.6116
 5460TIP3    H216387   6.363   0.991   2.266 -0.6784 -0.4306  0.7111
 5461TIP3   OH216388   3.867   0.731   3.755  0.2338  0.4719  0.2142
 5461TIP3    H116389   3.958   0.702   3.760  0.6605  1.6238 -0.6323
 5461TIP3    H216390   3.834   0.693   3.674  0.0083  0.2089  0.4271
 5462TIP3   OH216391   0.266   0.744   4.316  0.2953 -0.5170 -0.5974
 5462TIP3    H116392   0.301   0.671   4.265  2.2786 -0.3212  0.3837
 5462TIP3    H216393   0.285   0.721   4.407  1.1584  1.2773 -0.2689
 5463TIP3   OH216394   0.562   3.290   3.307 -0.5232  0.1263  0.4463
 5463TIP3    H116395   0.604   3.208   3.332 -0.6239 -0.2731 -0.6616
 5463TIP3    H216396   0.622   3.358   3.338 -1.1111 -0.2760  2.6360
 5464TIP3   OH216397   3.932   3.817   0.065  0.2169 -0.2102  0.1942
 5464TIP3    H116398   3.979   3.880   0.011  0.0207  0.7024  1.0667
 5464TIP3    H216399   3.979   3.734   0.052  1.1689  0.3645 -0.0668
 5465TIP3   OH216400   3.896   4.179   3.860 -0.3621 -0.3608  0.2334
 5465TIP3    H116401   3.946   4.183   3.778  1.1043 -0.8407  1.0780
 5465TIP3    H216402   3.956   4.139   3.923 -1.2623  0.5129  1.6970
 5466TIP3   OH216403   6.067   0.791   2.054  0.1184 -0.2912  0.6389
 5466TIP3    H116404   6.130   0.728   2.019 -0.6684  0.1025 -1.6408
 5466TIP3    H216405   6.000   0.798   1.987 -0.7560  1.6364  1.6300
 5467TIP3   OH216406   0.977   5.645   5.079 -0.0549 -0.1725  0.1321
 5467TIP3    H116407   1.042   5.577   5.097 -0.9955 -1.1980 -0.2586
 5467TIP3    H216408   0.993   5.669   4.987 -0.5755 -0.8442 -0.1484
 5468TIP3   OH216409   3.147   5.312   3.381  0.1129  0.0910  0.4670
 5468TIP3    H116410   3.197   5.391   3.359  0.9803 -0.5772 -0.0294
 5468TIP3    H216411   3.056   5.341   3.382  0.3469  0.9294 -0.5240
 5469TIP3   OH216412   5.371   2.663   1.325 -0.0570  0.4278  0.3138
 5469TIP3    H116413   5.348   2.577   1.289  1.2707  0.0195  0.3796
 5469TIP3    H216414   5.427   2.703   1.259  0.0286  0.8878  0.6584
 5470TIP3   OH216415   6.264   2.772   2.674 -0.0318  0.1548  0.4028
 5470TIP3    H116416   6.359   2.782   2.671  0.1016 -0.8967  0.6567
 5470TIP3    H216417   6.240   2.802   2.762 -0.0643  1.2502  0.0433
 5471TIP3   OH216418   2.725   1.884   1.860 -0.5343  0.3561  0.3006
 5471TIP3    H116419   2.749   1.805   1.908 -0.3134 -0.4688 -1.1213
 5471TIP3    H216420   2.652   1.921   1.911  0.7300  0.4272  2.1504
 5472TIP3   OH216421   2.434   0.582   2.136 -0.0856 -0.2130 -0.0672
 5472TIP3    H116422   2.466   0.498   2.169  2.6753  0.6322 -0.2925
 5472TIP3    H216423   2.339   0.576   2.141  0.0754 -2.3727  2.3242
 5473TIP3   OH216424   0.071   2.427   0.929 -0.7282 -0.5307  0.3054
 5473TIP3    H116425  -0.009   2.469   0.962 -0.5083  0.2932 -0.1649
 5473TIP3    H216426   0.083   2.466   0.843  1.0523  0.5664  1.0045
 5474TIP3   OH216427   2.977   0.179   0.737 -0.2951 -0.8042 -0.4112
 5474TIP3    H116428   2.966   0.085   0.749  0.7733 -0.8315  0.4805
 5474TIP3    H216429   3.031   0.207   0.811 -2.6186  0.9404  0.7715
 5475TIP3   OH216430   1.898   0.539   0.345  0.2291  0.4507 -0.1190
 5475TIP3    H116431   1.922   0.452   0.314  1.2441  0.5351  0.4101
 5475TIP3    H216432   1.941   0.599   0.285  0.1651  0.5964 -0.0203
 5476TIP3   OH216433   0.383   1.112   3.853 -0.0803  0.2347  0.0172
 5476TIP3    H116434   0.470   1.077   3.875 -0.6258  0.6176  3.3386
 5476TIP3    H216435   0.384   1.202   3.885 -1.8394  0.0959  0.5930
 5477TIP3   OH216436   1.739   5.539   4.326  0.5271  0.9707  0.3794
 5477TIP3    H116437   1.672   5.557   4.260  0.4445  0.8830  0.4392
 5477TIP3    H216438   1.744   5.619   4.378  1.8803  1.7411 -0.8504
 5478TIP3   OH216439   3.745   3.987   4.814 -0.3617  0.3183  0.1142
 5478TIP3    H116440   3.831   3.962   4.783 -0.0408 -1.6742  2.3113
 5478TIP3    H216441   3.761   4.064   4.868 -0.3656  1.4184 -1.3977
 5479TIP3   OH216442   1.378   2.240   4.645  0.2727  0.1455  0.2967
 5479TIP3    H116443   1.348   2.232   4.555 -1.5569  0.0429  0.8575
 5479TIP3    H216444   1.379   2.334   4.662  0.5884  0.1636  0.1762
 5480TIP3   OH216445   4.964   3.348   1.931  0.7181 -0.5547  0.8939
 5480TIP3    H116446   4.877   3.317   1.904  0.0868 -0.0458  2.2822
 5480TIP3    H216447   4.980   3.425   1.877 -0.3792  0.2563  1.7004
 5481TIP3   OH216448   4.851   4.990   3.170  0.2019 -0.4044  0.0902
 5481TIP3    H116449   4.797   5.021   3.097  0.4214 -1.1185 -0.3912
 5481TIP3    H216450   4.889   5.070   3.207  0.1263 -0.0305 -0.6091
 5482TIP3   OH216451   3.742   1.831   3.106  0.4185  0.1741 -0.3885
 5482TIP3    H116452   3.777   1.919   3.121 -2.5693  1.2733  1.1025
 5482TIP3    H216453   3.653   1.835   3.141  0.0312 -3.3812 -0.6111
 5483TIP3   OH216454   2.260   1.133   2.030  0.5151 -0.6347  0.5762
 5483TIP3    H116455   2.283   1.042   2.012 -0.6048 -0.4922 -1.9732
 5483TIP3    H216456   2.343   1.180   2.027  0.8995 -1.3244  0.1679
 5484TIP3   OH216457   1.521   1.921   4.233  0.1210 -0.0307 -0.3355
 5484TIP3    H116458   1.479   1.954   4.312  0.2354  0.1684 -0.3570
 5484TIP3    H216459   1.458   1.940   4.163 -0.5688 -1.4105 -0.1101
 5485TIP3   OH216460   1.920   2.446   0.759 -0.5893  0.1807  0.1852
 5485TIP3    H116461   1.973   2.401   0.825 -1.8595 -1.8869 -0.1055
 5485TIP3    H216462   1.855   2.494   0.810 -1.1443 -0.8573  0.4896
 5486TIP3   OH216463   1.678   2.395   4.218  0.1360 -0.1914  0.1205
 5486TIP3    H116464   1.746   2.332   4.242 -1.6406 -1.9238  0.8915
 5486TIP3    H216465   1.611   2.343   4.173 -0.3388  1.5863 -1.3601
 5487TIP3   OH216466   2.507   4.295   0.986  0.2468  0.9035  0.0003
 5487TIP3    H116467   2.509   4.354   1.061 -0.0052 -0.2605  0.9520
 5487TIP3    H216468   2.595   4.259   0.981 -0.3610 -0.8765  1.2965
 5488TIP3   OH216469   4.713   5.090   0.451 -0.7251  0.1874 -0.1734
 5488TIP3    H116470   4.794   5.040   0.462  0.2761  1.5364 -0.9764
 5488TIP3    H216471   4.645   5.024   0.438  0.6312 -0.9532 -1.8784
 5489TIP3   OH216472   5.387   3.883   2.399 -0.2623 -0.4190 -0.3963
 5489TIP3    H116473   5.441   3.869   2.322  0.0571 -0.6660 -0.1290
 5489TIP3    H216474   5.343   3.800   2.414  0.6071 -0.7562  0.3969
 5490TIP3   OH216475   3.863   5.619   2.191 -0.5515 -0.1101  1.1059
 5490TIP3    H116476   3.849   5.608   2.097 -0.5719 -0.3424  1.1376
 5490TIP3    H216477   3.952   5.587   2.206 -0.8692 -0.9191  1.3164
 5491TIP3   OH216478   4.411   5.248   1.402 -0.8784 -0.1656 -0.2109
 5491TIP3    H116479   4.342   5.307   1.371 -0.7190 -0.3603 -0.9446
 5491TIP3    H216480   4.492   5.297   1.390 -0.9412  0.4616  1.5871
 5492TIP3   OH216481   2.717   3.248   2.131  0.2954  0.6622 -0.3884
 5492TIP3    H116482   2.673   3.317   2.080 -0.3585 -0.3290 -1.1923
 5492TIP3    H216483   2.647   3.185   2.150  1.3887 -1.1366 -1.9851
 5493TIP3   OH216484   6.212   4.223   4.907 -0.3223  0.1127  0.0955
 5493TIP3    H116485   6.245   4.310   4.886  0.9469 -0.0825  1.1387
 5493TIP3    H216486   6.144   4.206   4.842  0.0555  1.4989 -0.6863
 5494TIP3   OH216487   5.147   2.051   4.955  0.2812  0.2579  0.2517
 5494TIP3    H116488   5.201   1.980   4.922 -1.5831 -0.6619 -0.9891
 5494TIP3    H216489   5.198   2.089   5.027  2.0844 -1.1853 -0.1974
 5495TIP3   OH216490   2.190   1.875   1.045 -0.1816  0.0823 -0.1451
 5495TIP3    H116491   2.135   1.898   1.120 -0.5370  1.0529 -0.6833
 5495TIP3    H216492   2.278   1.866   1.081 -0.2725  0.9778  0.3080
 5496TIP3   OH216493   2.110   5.592   0.630  0.2797 -0.1702 -0.0137
 5496TIP3    H116494   2.169   5.529   0.672 -1.6817 -1.0772  1.6272
 5496TIP3    H216495   2.130   5.587   0.537  1.7591 -1.5190  0.3417
 5497TIP3   OH216496   0.773   3.561   0.168 -0.1606 -0.6778 -0.2150
 5497TIP3    H116497   0.695   3.577   0.222 -0.5789 -1.2239 -0.6326
 5497TIP3    H216498   0.753   3.602   0.084  0.0703 -0.6816 -0.2727
 5498TIP3   OH216499   2.645   1.211   0.924  0.3273 -0.5276  0.6716
 5498TIP3    H116500   2.631   1.304   0.944  0.8807  0.0361 -1.3092
 5498TIP3    H216501   2.738   1.206   0.900  0.4085 -1.6971  1.1521
 5499TIP3   OH216502   2.317   5.712   4.494  0.4151 -0.0603  0.8396
 5499TIP3    H116503   2.241   5.770   4.483  0.7285  0.2896  0.4690
 5499TIP3    H216504   2.364   5.719   4.411  0.3616 -0.9914  0.7292
 5500TIP3   OH216505   3.826   1.682   1.184 -0.1385 -0.4697 -0.1637
 5500TIP3    H116506   3.895   1.725   1.233  0.5338 -0.1305 -1.3750
 5500TIP3    H216507   3.781   1.752   1.138 -2.8664 -0.3350  2.3469
 5501TIP3   OH216508   6.277   3.551   0.497 -0.0797  0.4123  0.5519
 5501TIP3    H116509   6.308   3.562   0.587 -0.0160  1.6035  0.4092
 5501TIP3    H216510   6.227   3.470   0.498  1.0186 -0.2809  1.3514
 5502TIP3   OH216511   2.736   3.108   3.263 -0.4334  0.5047 -0.1169
 5502TIP3    H116512   2.753   3.017   3.238  1.5286  0.6143  0.6253
 5502TIP3    H216513   2.764   3.159   3.186  0.6042  0.5676  0.2833
 5503TIP3   OH216514   3.035   3.840   0.764 -0.0507  0.3471  0.0279
 5503TIP3    H116515   3.063   3.751   0.784 -0.1420  0.4963  0.8725
 5503TIP3    H216516   3.046   3.848   0.670  1.0292 -0.1928  0.0906
 5504TIP3   OH216517   3.491   1.359   1.770  0.4506 -0.5539 -0.0672
 5504TIP3    H116518   3.571   1.365   1.718  0.3181  0.6961 -0.1617
 5504TIP3    H216519   3.464   1.267   1.762  0.5009 -0.4314 -2.1257
 5505TIP3   OH216520   4.966   0.883   4.704  0.1817  0.2296  0.2418
 5505TIP3    H116521   4.944   0.836   4.623  0.3830  0.8053 -0.1569
 5505TIP3    H216522   4.883   0.888   4.752 -0.2581  1.0811 -0.5697
 5506TIP3   OH216523   0.269   2.773   0.984  0.1030 -0.0644 -0.2541
 5506TIP3    H116524   0.325   2.812   0.916 -2.0171  1.6199 -1.1612
 5506TIP3    H216525   0.300   2.811   1.066 -0.4211  1.8174 -0.8754
 5507TIP3   OH216526   2.940   4.233   3.369  0.0935 -0.5867 -0.4729
 5507TIP3    H116527   2.942   4.185   3.286  0.4617 -0.5888 -0.4645
 5507TIP3    H216528   2.988   4.178   3.430 -0.6382 -0.8419 -0.1147
 5508TIP3   OH216529   1.675   4.052   4.709 -0.4768  0.0262  0.9378
 5508TIP3    H116530   1.642   4.142   4.718 -0.2702 -0.0002  2.2186
 5508TIP3    H216531   1.648   4.009   4.790  1.9311 -0.2371  1.6751
 5509TIP3   OH216532   3.390   4.587   1.808 -0.2983  0.3787 -0.7735
 5509TIP3    H116533   3.424   4.661   1.858  0.4940 -0.5568  0.1294
 5509TIP3    H216534   3.324   4.625   1.750 -0.6418  1.6381  0.3880
 5510TIP3   OH216535   2.527   1.145   4.123  0.1873 -0.7173 -0.5107
 5510TIP3    H116536   2.462   1.213   4.107  1.8373  0.6638 -1.7065
 5510TIP3    H216537   2.488   1.091   4.191 -1.4494  1.0747  0.0807
 5511TIP3   OH216538   0.171   0.678   5.157 -0.0973  0.3301  0.7817
 5511TIP3    H116539   0.248   0.724   5.122  0.5507 -1.7555 -0.7716
 5511TIP3    H216540   0.201   0.643   5.241  0.5217 -0.0630  0.4084
 5512TIP3   OH216541   5.650   0.147   5.012  0.3096 -0.3592  0.0232
 5512TIP3    H116542   5.615   0.234   5.034  1.2868  0.5174 -1.7226
 5512TIP3    H216543   5.592   0.115   4.943  0.6759 -0.5556 -0.1938
 5513TIP3   OH216544   5.337   5.447   0.526 -0.4640 -0.4632  0.1831
 5513TIP3    H116545   5.250   5.415   0.503  0.4974 -1.2934 -2.7215
 5513TIP3    H216546   5.338   5.538   0.497 -0.3835 -0.4289  0.2919
 5514TIP3   OH216547   4.785   2.804   3.460  0.0541 -0.1613  0.1163
 5514TIP3    H116548   4.736   2.788   3.380 -0.6344  0.8851  0.3074
 5514TIP3    H216549   4.722   2.845   3.519  0.8077 -0.0299  0.8575
 5515TIP3   OH216550   0.923   2.347   4.504  0.0364 -0.1727  0.2251
 5515TIP3    H116551   0.880   2.318   4.584  0.3647  1.3419  0.9921
 5515TIP3    H216552   0.992   2.283   4.489 -0.3031 -0.7084  0.9171
 5516TIP3   OH216553   3.015   2.909   2.645 -0.2068 -0.3540 -0.1825
 5516TIP3    H116554   2.998   2.979   2.708 -1.5583 -0.6779 -0.1538
 5516TIP3    H216555   3.022   2.830   2.699 -0.6379 -0.5238 -0.3700
 5517TIP3   OH216556   4.339   5.199   4.070 -0.0923  0.0672  0.0796
 5517TIP3    H116557   4.405   5.261   4.040  0.2470 -0.3136  0.0281
 5517TIP3    H216558   4.303   5.239   4.149 -1.2399  1.2509 -0.9840
 5518TIP3   OH216559   6.175   5.343   4.901 -0.3179 -0.3437  0.3335
 5518TIP3    H116560   6.232   5.282   4.853 -0.4420 -0.9490  0.9461
 5518TIP3    H216561   6.225   5.365   4.979 -0.6887 -0.4366  0.5953
 5519TIP3   OH216562   4.096   0.569   4.929 -0.0254  0.0223 -0.3919
 5519TIP3    H116563   4.064   0.650   4.969 -2.9757 -0.6019 -1.2783
 5519TIP3    H216564   4.030   0.504   4.951  1.3491 -1.7327 -1.2496
 5520TIP3   OH216565   3.087   1.708   0.806 -0.4843  0.2098 -0.4127
 5520TIP3    H116566   3.003   1.679   0.842  0.8087 -1.0092  1.8701
 5520TIP3    H216567   3.140   1.629   0.803  1.0503  1.2057 -0.4529
 5521TIP3   OH216568   1.155   0.887  -0.006 -0.3122  0.2248  0.6837
 5521TIP3    H116569   1.180   0.933   0.074  1.4488 -0.8163  0.7604
 5521TIP3    H216570   1.132   0.957  -0.067 -0.7253  1.0670  1.7744
 5522TIP3   OH216571   3.377   4.162   5.027 -0.0867  0.4902  0.6145
 5522TIP3    H116572   3.384   4.088   4.967  1.3249 -0.6148  2.0662
 5522TIP3    H216573   3.358   4.237   4.971  1.6237 -0.4144 -1.2722
 5523TIP3   OH216574   2.488   0.058   1.976 -0.3537 -0.0144  0.1607
 5523TIP3    H116575   2.558   0.067   2.041 -1.1852 -1.2643  1.2722
 5523TIP3    H216576   2.533   0.063   1.892  0.7791  1.4042  0.7946
 5524TIP3   OH216577   5.611   5.953   0.485  0.2501 -0.3128  0.1374
 5524TIP3    H116578   5.701   5.955   0.516  0.1095  0.2147  0.5252
 5524TIP3    H216579   5.617   5.974   0.392  0.3764  1.6976  0.5503
 5525TIP3   OH216580   0.075   3.952   2.266  0.0837 -0.0385  0.4647
 5525TIP3    H116581   0.095   3.859   2.279  1.0895  0.0980  0.0261
 5525TIP3    H216582   0.068   3.962   2.172  1.8674  0.6510  0.3553
 5526TIP3   OH216583   2.409   4.733   0.636  0.5928 -0.4290 -0.1589
 5526TIP3    H116584   2.327   4.687   0.655  0.6206 -1.2136 -1.7414
 5526TIP3    H216585   2.454   4.736   0.720 -0.7846 -0.5125  0.6274
 5527TIP3   OH216586   4.925   2.338   5.019  0.1859 -0.3771  0.2110
 5527TIP3    H116587   4.898   2.356   4.929 -2.0430 -2.1043  0.4522
 5527TIP3    H216588   5.017   2.311   5.013  0.5867  1.1714 -1.2842
 5528TIP3   OH216589   4.365   1.182   5.009  0.4331  0.6607 -0.2791
 5528TIP3    H116590   4.319   1.117   5.063  0.7619  0.2562 -0.4900
 5528TIP3    H216591   4.457   1.169   5.030  0.4481  1.6053  0.2897
 5529TIP3   OH216592   4.786   4.706   0.386 -0.0677 -0.1855 -0.2433
 5529TIP3    H116593   4.844   4.729   0.313 -0.5090  0.2984 -0.4434
 5529TIP3    H216594   4.823   4.752   0.461  0.2961 -0.5570 -0.1897
 5530TIP3   OH216595   0.493   3.838   0.574 -0.3510 -0.5926  0.2422
 5530TIP3    H116596   0.402   3.865   0.561 -0.3367 -0.1210  1.0873
 5530TIP3    H216597   0.537   3.862   0.492 -0.4074  1.7120  0.8085
 5531TIP3   OH216598   1.966   4.876   3.645  0.0507 -0.2293 -0.0915
 5531TIP3    H116599   2.056   4.905   3.628 -0.0274 -0.8042 -1.5821
 5531TIP3    H216600   1.912   4.953   3.626  0.0121 -0.6971 -2.1038
 5532TIP3   OH216601   1.666   1.822   3.717  0.0490 -0.4711 -0.6556
 5532TIP3    H116602   1.761   1.831   3.721  0.0845 -0.2037 -1.9033
 5532TIP3    H216603   1.649   1.731   3.743  0.7230 -0.8245 -1.4211
 5533TIP3   OH216604   5.547   3.540   2.800  0.7500  0.3227 -0.2475
 5533TIP3    H116605   5.519   3.562   2.889  1.5585 -0.9859  0.3601
 5533TIP3    H216606   5.475   3.486   2.766  0.2810  1.1112 -0.5285
 5534TIP3   OH216607   2.512   4.405   1.319 -0.4382  0.0357 -0.7436
 5534TIP3    H116608   2.589   4.439   1.274  0.3765 -1.3856 -0.4795
 5534TIP3    H216609   2.442   4.466   1.296  0.2346  0.0963 -2.8636
 5535TIP3   OH216610   6.148   1.886   4.251 -0.0530 -0.4748 -0.2347
 5535TIP3    H116611   6.072   1.914   4.303  0.6435 -1.3860  1.3584
 5535TIP3    H216612   6.114   1.818   4.193 -0.9323  0.8449 -1.3324
 5536TIP3   OH216613   5.429   0.998   1.103 -0.4571  0.9563  0.5236
 5536TIP3    H116614   5.424   0.932   1.034  2.9859  2.0845 -1.0161
 5536TIP3    H216615   5.405   1.080   1.061  1.4146  1.6134  0.6187
 5537TIP3   OH216616   5.508   4.371   1.507 -0.0122  0.3877  0.0107
 5537TIP3    H116617   5.434   4.357   1.565  1.8740  2.3036  3.1574
 5537TIP3    H216618   5.469   4.378   1.420 -3.4883  1.0895  1.4725
 5538TIP3   OH216619   2.699   0.414   3.713  0.0036  0.3041 -0.4958
 5538TIP3    H116620   2.761   0.342   3.721 -1.8407 -1.1573  2.8565
 5538TIP3    H216621   2.738   0.486   3.762 -0.6384 -0.4694  1.2344
 5539TIP3   OH216622   4.397   4.620   1.852 -0.1975  0.2102 -0.4147
 5539TIP3    H116623   4.319   4.566   1.839  1.2652 -1.6352 -2.1948
 5539TIP3    H216624   4.377   4.703   1.810 -1.8467  0.4653  0.7876
 5540TIP3   OH216625   5.000   5.507   2.568 -0.0452  0.6975 -0.7042
 5540TIP3    H116626   4.993   5.454   2.647  2.2838  1.8243  0.3450
 5540TIP3    H216627   4.934   5.471   2.509 -1.8727 -0.1883  1.7150
 5541TIP3   OH216628   5.185   2.535   0.957  0.1997  0.5030  0.5034
 5541TIP3    H116629   5.263   2.528   0.903 -0.0804  0.9595  0.0270
 5541TIP3    H216630   5.114   2.501   0.902 -0.2290  1.7400  0.2491
 5542TIP3   OH216631   4.948   0.592   0.194 -0.0157  0.0147 -0.4171
 5542TIP3    H116632   4.951   0.626   0.284  1.2664 -1.2145  0.0446
 5542TIP3    H216633   5.036   0.557   0.179 -0.9532 -2.1994 -1.2055
 5543TIP3   OH216634   4.616   1.648   2.903  0.4848 -0.4390  0.1382
 5543TIP3    H116635   4.531   1.606   2.894  1.4348 -2.6196  0.7997
 5543TIP3    H216636   4.646   1.662   2.813 -0.7470  0.8358 -0.1078
 5544TIP3   OH216637   2.944   0.229   3.691 -0.1041  0.3705  0.1117
 5544TIP3    H116638   3.029   0.208   3.730 -0.4733  1.2562  1.4824
 5544TIP3    H216639   2.931   0.162   3.625  1.5033  0.0095  0.1092
 5545TIP3   OH216640   5.588   0.796   0.880  0.2500 -0.4252 -0.3072
 5545TIP3    H116641   5.496   0.796   0.908  0.4522  1.0029  0.4661
 5545TIP3    H216642   5.633   0.745   0.947  0.1036 -0.7271 -0.4337
 5546TIP3   OH216643   5.857   1.981   2.460 -0.5135  0.2619 -0.4856
 5546TIP3    H116644   5.814   1.896   2.468  1.6061 -0.8244 -0.0276
 5546TIP3    H216645   5.816   2.022   2.383 -1.8296 -0.9861 -0.4857
 5547TIP3   OH216646   5.097   3.649   1.135 -0.2988 -0.0492 -0.5949
 5547TIP3    H116647   5.101   3.655   1.040 -0.8421  0.8293 -0.5697
 5547TIP3    H216648   5.005   3.630   1.154 -0.0089 -1.2687 -0.2800
 5548TIP3   OH216649   2.871   2.255   2.450 -0.3432  0.5597 -0.2031
 5548TIP3    H116650   2.887   2.343   2.485 -0.2181  0.2565  0.5093
 5548TIP3    H216651   2.949   2.205   2.475  0.2482  0.5992 -1.8403
 5549TIP3   OH216652   3.374   1.437   4.121 -0.3782  0.3015  0.0298
 5549TIP3    H116653   3.290   1.393   4.115 -0.4246  0.3273  0.5198
 5549TIP3    H216654   3.372   1.483   4.204 -0.1486  0.8578 -0.2676
 5550TIP3   OH216655   5.036   0.739   4.472 -0.0193  0.3661  0.1901
 5550TIP3    H116656   4.957   0.738   4.418 -0.2203 -0.1316  0.4828
 5550TIP3    H216657   5.101   0.785   4.419 -0.6195  1.1510  0.1154
 5551TIP3   OH216658   4.856   3.364   5.022  0.3783  0.1382  0.3632
 5551TIP3    H116659   4.931   3.311   4.996 -0.6801 -1.5458  0.5703
 5551TIP3    H216660   4.802   3.369   4.943 -1.1268 -1.9778  1.1772
 5552TIP3   OH216661   0.395   2.664   3.590  0.3842  0.3471  0.2598
 5552TIP3    H116662   0.401   2.572   3.617  0.0704 -0.4091 -2.0188
 5552TIP3    H216663   0.476   2.703   3.621  1.0014 -0.9687  0.3790
 5553TIP3   OH216664   0.971   2.431   4.850  0.7178 -0.3665  0.5066
 5553TIP3    H116665   0.958   2.507   4.793  0.7910  0.8490  2.0390
 5553TIP3    H216666   1.023   2.370   4.797  2.3232  1.4500 -0.1557
 5554TIP3   OH216667   5.396   0.666   4.575 -0.0026 -0.3154 -0.5979
 5554TIP3    H116668   5.387   0.710   4.490 -0.0941 -0.5809 -0.7245
 5554TIP3    H216669   5.340   0.717   4.634  0.1919 -0.0291 -0.6560
 5555TIP3   OH216670   0.757  -0.028   2.326 -0.1442  0.1649 -0.1072
 5555TIP3    H116671   0.673  -0.010   2.283  0.3916  2.1097 -0.4211
 5555TIP3    H216672   0.772   0.048   2.382  1.2687 -0.3076  0.1928
 5556TIP3   OH216673   0.844   4.051   4.138 -0.2829 -0.3447 -0.4836
 5556TIP3    H116674   0.801   4.034   4.054 -0.2535  2.8654 -1.3031
 5556TIP3    H216675   0.773   4.080   4.195 -0.3839 -2.9574  0.8655
 5557TIP3   OH216676   2.013   3.280   0.645  0.6308  0.3210  0.3431
 5557TIP3    H116677   1.971   3.295   0.560 -1.9808  0.6627  1.5851
 5557TIP3    H216678   2.069   3.357   0.657 -0.2161  1.0879 -0.3916
 5558TIP3   OH216679   0.731   5.534   4.770  0.0102  0.0473  0.1344
 5558TIP3    H116680   0.723   5.518   4.864  3.0409  1.7436  0.8153
 5558TIP3    H216681   0.727   5.448   4.730 -0.3534 -0.8039  1.9037
 5559TIP3   OH216682   3.788   1.991   1.742  0.0916  0.0453 -0.2390
 5559TIP3    H116683   3.802   1.897   1.750  0.1238  0.0007 -0.7816
 5559TIP3    H216684   3.867   2.024   1.699 -0.5167  0.1006 -1.3752
 5560TIP3   OH216685   2.653   0.996   1.127 -0.0240 -0.2421  0.2595
 5560TIP3    H116686   2.722   1.030   1.183 -1.3903  1.9269  0.7459
 5560TIP3    H216687   2.656   1.050   1.048 -0.7535 -0.5396  0.0114
 5561TIP3   OH216688   5.313   1.795   4.865  0.4296  0.0269  0.1165
 5561TIP3    H116689   5.232   1.756   4.833  0.8238 -1.7158  1.1018
 5561TIP3    H216690   5.324   1.760   4.954  2.3168  0.1025 -0.0372
 5562TIP3   OH216691   1.540   2.803   0.940 -0.4968 -0.1483  0.1458
 5562TIP3    H116692   1.606   2.828   0.875  0.1960 -1.9942  0.0565
 5562TIP3    H216693   1.579   2.825   1.024 -0.2163 -0.2377  0.0417
 5563TIP3   OH216694   3.315   5.974   2.770 -0.1317  0.2303  0.0898
 5563TIP3    H116695   3.390   5.968   2.712 -1.6759 -0.8555 -1.9283
 5563TIP3    H216696   3.283   5.884   2.777 -2.1202  0.8493 -0.3958
 5564TIP3   OH216697   3.869   2.286   4.335  0.3312  0.6238  0.1296
 5564TIP3    H116698   3.913   2.307   4.253  1.4624  1.0431  0.8349
 5564TIP3    H216699   3.862   2.190   4.334  1.5141  0.5283  0.1388
 5565TIP3   OH216700   1.523   2.283   4.012  0.7582  0.4850  0.3630
 5565TIP3    H116701   1.477   2.279   3.928 -0.1439  0.4617  0.8470
 5565TIP3    H216702   1.602   2.231   3.998  0.1689 -0.2876 -0.2053
 5566TIP3   OH216703   5.660   3.940   3.353  0.2440  0.3579  0.4047
 5566TIP3    H116704   5.576   3.981   3.335 -0.8442 -1.3621  1.2451
 5566TIP3    H216705   5.688   3.977   3.436  0.9358  1.7900 -0.4263
 5567TIP3   OH216706   3.636   2.518   3.969 -0.6921 -0.0664 -0.2755
 5567TIP3    H116707   3.676   2.438   3.933 -0.9331 -0.4489  0.2983
 5567TIP3    H216708   3.596   2.490   4.051 -0.5227  0.7141  0.0792
 5568TIP3   OH216709   2.529   4.402   2.261  0.8093 -0.4968 -0.3641
 5568TIP3    H116710   2.555   4.339   2.328  2.3232  1.0361  0.6110
 5568TIP3    H216711   2.608   4.454   2.246 -0.6112  1.7844 -0.3844
 5569TIP3   OH216712   3.200   2.233   3.248 -0.3313 -0.2495 -0.0547
 5569TIP3    H116713   3.258   2.226   3.324 -1.5775  1.9141  1.1868
 5569TIP3    H216714   3.246   2.186   3.179  1.2532 -1.5753  1.7859
 5570TIP3   OH216715   5.944   5.613   3.693 -0.6757 -0.3047  0.3726
 5570TIP3    H116716   5.925   5.702   3.724 -0.2631 -0.7931  2.1702
 5570TIP3    H216717   6.010   5.580   3.754 -0.2326 -1.5821 -0.7363
 5571TIP3   OH216718   1.180   2.599   2.607 -0.2904  0.1345  0.6616
 5571TIP3    H116719   1.169   2.504   2.598  1.1255  0.0360 -0.4196
 5571TIP3    H216720   1.188   2.630   2.517 -1.3589  1.3760  0.9811
 5572TIP3   OH216721   4.216   2.246   2.706 -0.3094  0.0611  0.0667
 5572TIP3    H116722   4.162   2.320   2.679 -0.1593  0.4813  0.8972
 5572TIP3    H216723   4.203   2.181   2.636 -0.7790  0.6922 -0.4533
 5573TIP3   OH216724   3.609   5.793   1.308 -0.3103  0.2124  0.1435
 5573TIP3    H116725   3.686   5.784   1.251 -0.4035 -0.1782  0.0740
 5573TIP3    H216726   3.585   5.885   1.301 -0.2401  0.1986 -0.3493
 5574TIP3   OH216727   2.282   5.393   3.393 -0.0653 -0.0194 -0.2519
 5574TIP3    H116728   2.307   5.390   3.301  0.6741 -2.5798 -0.0596
 5574TIP3    H216729   2.356   5.434   3.437  0.7931 -1.2098 -0.5273
 5575TIP3   OH216730   1.440   5.509   1.464 -0.1569  0.4041  0.5631
 5575TIP3    H116731   1.468   5.438   1.521  0.6913  1.1738  1.1283
 5575TIP3    H216732   1.359   5.476   1.423 -1.6945  0.4021  3.3307
 5576TIP3   OH216733   3.721   2.296   3.802  0.6411  0.0017 -0.0839
 5576TIP3    H116734   3.639   2.313   3.756 -1.6880 -0.2775  3.5726
 5576TIP3    H216735   3.750   2.211   3.770 -0.6845 -0.0770 -1.1729
 5577TIP3   OH216736   6.087   1.069   3.539 -0.7868 -0.1592  0.3009
 5577TIP3    H116737   6.077   1.068   3.443  1.1083 -0.3077  0.0542
 5577TIP3    H216738   6.181   1.058   3.552 -1.0874 -0.7224  2.2148
 5578TIP3   OH216739   6.153   0.804   3.177 -0.0498  0.4799 -0.2146
 5578TIP3    H116740   6.144   0.877   3.238 -0.0192 -1.3891  2.1609
 5578TIP3    H216741   6.067   0.763   3.176  1.0517 -2.2635  2.3948
 5579TIP3   OH216742   5.223   2.410   5.001  0.9640  0.1884 -0.5146
 5579TIP3    H116743   5.268   2.372   4.925 -1.1379 -2.7485 -0.4629
 5579TIP3    H216744   5.255   2.360   5.076  1.0324  1.2408  0.1792
 5580TIP3   OH216745   0.572   5.482   1.362 -0.1569  0.0912 -0.1372
 5580TIP3    H116746   0.589   5.416   1.296 -1.5014  0.3119 -0.7496
 5580TIP3    H216747   0.651   5.535   1.364  1.1961 -1.8625  0.8179
 5581TIP3   OH216748   5.512   1.380   1.351 -0.3188 -0.1658  0.0378
 5581TIP3    H116749   5.605   1.381   1.330 -0.0383  0.9343  1.1774
 5581TIP3    H216750   5.504   1.439   1.426 -1.9068 -0.4023  0.0914
 5582TIP3   OH216751   1.871   1.649   3.953 -0.5551 -0.0903  0.5764
 5582TIP3    H116752   1.934   1.715   3.982  0.3569 -0.3630 -0.7249
 5582TIP3    H216753   1.916   1.601   3.883 -2.8370  0.9243 -1.7422
 5583TIP3   OH216754   1.275   3.211   5.134 -0.1936 -0.0084 -0.3007
 5583TIP3    H116755   1.240   3.294   5.101 -2.4620 -1.4761 -1.8401
 5583TIP3    H216756   1.359   3.201   5.088  0.6454  1.8491  0.6979
 5584TIP3   OH216757   2.445   4.573   4.785  0.2147  0.3355 -0.4206
 5584TIP3    H116758   2.393   4.495   4.765  0.1704  0.5232 -1.0713
 5584TIP3    H216759   2.528   4.539   4.818  0.7597 -0.0412 -2.0745
 5585TIP3   OH216760   0.319   0.859   2.702  0.3786  0.0172 -0.1922
 5585TIP3    H116761   0.239   0.809   2.713  0.5340 -0.1765  0.0861
 5585TIP3    H216762   0.382   0.817   2.761 -0.0952  1.8663  1.7518
 5586TIP3   OH216763   0.934   5.044   4.593 -0.2062 -0.3452  0.2383
 5586TIP3    H116764   0.951   5.138   4.596 -1.1702 -0.0328 -2.0678
 5586TIP3    H216765   0.999   5.009   4.532  0.0474 -1.1513  0.9568
 5587TIP3   OH216766   5.538   5.578   5.009 -0.2928  0.6348 -0.2157
 5587TIP3    H116767   5.483   5.653   4.987 -0.4745  0.3867 -0.6309
 5587TIP3    H216768   5.497   5.504   4.963  0.9583  0.6188 -1.3454
 5588TIP3   OH216769   1.986   0.335   1.716 -0.1534  0.7118 -0.4391
 5588TIP3    H116770   1.912   0.310   1.772 -0.0351 -0.6423 -0.8583
 5588TIP3    H216771   1.984   0.273   1.643  1.6203  0.3966 -0.2696
 5589TIP3   OH216772   4.393   2.550   0.152  0.2389  0.0859 -0.0422
 5589TIP3    H116773   4.382   2.580   0.243  0.1514  1.3737 -0.4688
 5589TIP3    H216774   4.472   2.593   0.121 -0.2597  0.4130 -0.8835
 5590TIP3   OH216775   5.365   5.562   0.953  0.8988 -0.1311  0.0338
 5590TIP3    H116776   5.336   5.490   1.009  2.8385  0.0041  1.3094
 5590TIP3    H216777   5.360   5.639   1.009 -0.8289  0.7165 -1.2198
 5591TIP3   OH216778   5.347   5.755   2.874 -0.0322  0.0501 -0.1319
 5591TIP3    H116779   5.371   5.671   2.913  0.1674  0.4052  0.5140
 5591TIP3    H216780   5.386   5.821   2.932 -1.3525  0.6131  0.1486
 5592TIP3   OH216781   6.242   0.563   0.528  0.4660  0.0094 -0.1486
 5592TIP3    H116782   6.306   0.535   0.594  0.2483 -0.1066  0.0174
 5592TIP3    H216783   6.165   0.508   0.545 -0.0839  0.9179  0.3890
 5593TIP3   OH216784   5.664   4.101   0.813  0.2919 -0.7904 -0.2635
 5593TIP3    H116785   5.692   4.010   0.827  0.3238 -0.5882  1.1382
 5593TIP3    H216786   5.745   4.152   0.822  0.0362 -0.4986  0.3728
 5594TIP3   OH216787   0.969   0.407   2.047 -0.1274 -0.0748  0.1216
 5594TIP3    H116788   0.998   0.484   2.096 -0.8127 -0.3388  0.9652
 5594TIP3    H216789   0.876   0.422   2.033 -0.5723 -1.3494  1.4649
 5595TIP3   OH216790   6.325   5.450   3.569 -0.2061  0.0949 -0.1748
 5595TIP3    H116791   6.353   5.402   3.491  0.0770  0.4322 -0.2781
 5595TIP3    H216792   6.348   5.541   3.552 -1.0627  0.3254 -0.1207
 5596TIP3   OH216793   2.853   2.637   1.559  0.1067  0.2588 -0.8400
 5596TIP3    H116794   2.859   2.545   1.531  0.2972  0.0062 -0.0047
 5596TIP3    H216795   2.762   2.662   1.539 -0.6730 -0.8467  1.0240
 5597TIP3   OH216796   5.554   0.108   0.504 -0.3554 -0.0499 -0.0581
 5597TIP3    H116797   5.465   0.073   0.498 -0.3430 -0.3412  1.2375
 5597TIP3    H216798   5.550   0.174   0.573  0.2570  0.5059 -0.5470
 5598TIP3   OH216799   3.542   4.138   0.646 -0.4118  0.2395  0.6393
 5598TIP3    H116800   3.543   4.080   0.570 -0.4710 -0.2445  1.0087
 5598TIP3    H216801   3.510   4.084   0.718  1.4122  0.1511  1.4364
 5599TIP3   OH216802   2.626   0.824   0.098  0.0290  0.2711 -0.0763
 5599TIP3    H116803   2.680   0.750   0.069 -0.1368  0.8706 -2.0627
 5599TIP3    H216804   2.661   0.847   0.184  1.8304 -0.4195 -0.5797
 5600TIP3   OH216805   4.474   0.149   1.186 -0.4057 -0.5286  0.2833
 5600TIP3    H116806   4.565   0.134   1.160 -0.3440  0.9314 -0.4322
 5600TIP3    H216807   4.425   0.146   1.104 -0.3836  2.8471  0.0186
 5601TIP3   OH216808   2.040   0.879   0.731 -0.5393  0.2164  0.0783
 5601TIP3    H116809   2.105   0.851   0.796  0.7144 -1.3569 -1.7204
 5601TIP3    H216810   2.010   0.797   0.691 -1.2699  1.1200 -1.2958
 5602TIP3   OH216811   2.845   4.095   1.634 -0.0874  0.2748  0.2079
 5602TIP3    H116812   2.856   4.106   1.540 -1.2020 -1.3837 -0.1466
 5602TIP3    H216813   2.771   4.036   1.643 -1.0086  1.6415  2.1776
 5603TIP3   OH216814   0.552   4.676   2.872 -0.1035 -0.0196 -0.2632
 5603TIP3    H116815   0.488   4.726   2.822  0.7471 -0.7778 -2.2257
 5603TIP3    H216816   0.501   4.629   2.937 -1.3295  0.7123 -0.6603
 5604TIP3   OH216817   1.155   3.878   3.955  0.0151  0.0595  0.0513
 5604TIP3    H116818   1.206   3.846   3.880 -0.5460  0.3605 -0.4649
 5604TIP3    H216819   1.190   3.829   4.030 -0.5234 -1.4446 -0.6396
 5605TIP3   OH216820   0.089   4.023   3.435  0.0420 -0.4762 -0.1671
 5605TIP3    H116821   0.027   3.955   3.459 -0.6957 -0.3280 -1.5375
 5605TIP3    H216822   0.088   4.025   3.339  1.4084  0.2308 -0.2087
 5606TIP3   OH216823   2.086   1.557   1.161  0.0035 -0.0274 -0.1168
 5606TIP3    H116824   2.182   1.565   1.154  0.2016 -1.2545  0.8051
 5606TIP3    H216825   2.054   1.575   1.073  0.8928  2.5895 -0.0178
 5607TIP3   OH216826   0.277   2.018   3.156  0.1666 -0.0109 -0.1799
 5607TIP3    H116827   0.368   2.001   3.181 -0.3103  0.5713  2.2294
 5607TIP3    H216828   0.227   2.003   3.236 -2.2700 -2.8377 -2.0088
 5608TIP3   OH216829   4.040   0.082   4.316 -1.0271 -0.4457  0.8786
 5608TIP3    H116830   4.014   0.172   4.334 -2.9235 -0.7613 -0.0331
 5608TIP3    H216831   4.117   0.089   4.260 -0.5130  0.5654  1.6741
 5609TIP3   OH216832   0.056   4.077   3.166 -0.1968  0.2506  0.0466
 5609TIP3    H116833   0.055   4.147   3.101  0.5409 -1.4837 -1.9536
 5609TIP3    H216834  -0.036   4.066   3.191 -0.3393  1.7545  0.2481
 5610TIP3   OH216835   1.267   5.456   0.645 -0.2069  0.7234  0.4256
 5610TIP3    H116836   1.338   5.430   0.703  0.8577  1.8622 -0.3281
 5610TIP3    H216837   1.197   5.392   0.663  0.4360  0.4777  2.2297
 5611TIP3   OH216838   4.141   3.279   2.788  0.0317  0.3999 -0.0551
 5611TIP3    H116839   4.190   3.198   2.799 -0.2081  0.2802  0.1252
 5611TIP3    H216840   4.165   3.310   2.700  0.6478  0.4901  0.1408
 5612TIP3   OH216841   3.445   4.314   1.836 -0.0900 -0.5355 -0.0930
 5612TIP3    H116842   3.484   4.295   1.750  0.1357 -2.9492  0.4749
 5612TIP3    H216843   3.415   4.405   1.829 -0.8903 -0.9189 -3.0479
 5613TIP3   OH216844   2.218   4.253   2.694 -0.4886  0.4137  0.0500
 5613TIP3    H116845   2.147   4.193   2.673 -1.4236  0.9631  1.4882
 5613TIP3    H216846   2.175   4.328   2.735  0.8819  0.9597  0.5487
 5614TIP3   OH216847   4.791   2.991   1.617  0.4733  0.6877 -0.0472
 5614TIP3    H116848   4.706   2.951   1.639  1.5673 -0.6324  2.1736
 5614TIP3    H216849   4.823   3.026   1.700  3.1176 -0.9005 -0.2950
 5615TIP3   OH216850   0.954   3.559   5.003  0.2405  0.0029 -0.4515
 5615TIP3    H116851   1.011   3.559   4.925 -1.5399  2.2176 -1.8973
 5615TIP3    H216852   0.887   3.494   4.983  1.0782 -1.1130  0.3164
 5616TIP3   OH216853   3.820   2.287   2.209 -0.0514 -0.1323  0.3063
 5616TIP3    H116854   3.811   2.352   2.278 -1.0602  0.9528 -0.8118
 5616TIP3    H216855   3.740   2.295   2.157  1.5954  0.5966 -2.2707
 5617TIP3   OH216856   1.064   0.838   0.816  0.5641  0.0729  0.3802
 5617TIP3    H116857   1.099   0.905   0.875  1.4563 -0.2382  0.2180
 5617TIP3    H216858   1.128   0.832   0.745  0.5136 -0.9481  0.3986
 5618TIP3   OH216859   3.335   2.426   0.156  0.1594  0.2189 -0.5045
 5618TIP3    H116860   3.391   2.465   0.089  0.2573  1.2899  0.1573
 5618TIP3    H216861   3.359   2.473   0.236 -1.7901  0.8375 -0.2255
 5619TIP3   OH216862   1.573   0.137   4.077  0.2881  0.0250 -0.2725
 5619TIP3    H116863   1.570   0.095   4.163 -1.8208  1.2881  0.3596
 5619TIP3    H216864   1.534   0.224   4.092 -1.0974 -0.1096 -2.6885
 5620TIP3   OH216865   3.802   3.740   2.339 -0.1481  0.0360 -0.4000
 5620TIP3    H116866   3.808   3.787   2.256 -0.1538  0.5076 -0.1367
 5620TIP3    H216867   3.834   3.802   2.404 -0.7037 -0.1131  0.0277
 5621TIP3   OH216868   2.578   5.258   1.975  0.3314 -0.1512 -0.2497
 5621TIP3    H116869   2.596   5.312   1.898  1.1095 -0.3702 -0.2299
 5621TIP3    H216870   2.665   5.234   2.008  0.0077  0.0529  0.7765
 5622TIP3   OH216871   0.362   1.612   4.276  0.0059  0.1047  0.7739
 5622TIP3    H116872   0.315   1.532   4.301  0.6907  0.1021  2.1082
 5622TIP3    H216873   0.378   1.658   4.358 -1.0052  2.0112 -0.0202
 5623TIP3   OH216874   5.935   3.252   1.899 -0.1623 -0.0855 -0.2067
 5623TIP3    H116875   6.027   3.278   1.894 -0.0363  0.0302  1.8953
 5623TIP3    H216876   5.889   3.315   1.843  1.0846 -0.6320 -1.9302
 5624TIP3   OH216877   6.274   0.961   4.766 -0.1872 -0.1592 -0.1222
 5624TIP3    H116878   6.305   1.048   4.794  1.8562 -1.2223  1.1933
 5624TIP3    H216879   6.308   0.951   4.677  0.2156  0.1219 -0.0053
 5625TIP3   OH216880   3.689   4.752   3.015 -0.2067  0.2456  0.0736
 5625TIP3    H116881   3.768   4.800   3.038  0.2151  0.0266 -0.8761
 5625TIP3    H216882   3.689   4.750   2.920 -1.1122 -0.1707  0.0723
 5626TIP3   OH216883   0.226   0.110   0.583 -0.1990  0.4075 -0.1400
 5626TIP3    H116884   0.230   0.073   0.495  0.8974  0.2539 -0.0396
 5626TIP3    H216885   0.258   0.040   0.640 -0.3597  0.7033  0.3191
 5627TIP3   OH216886   6.225   4.082   2.804 -0.0805 -0.2873 -0.1183
 5627TIP3    H116887   6.162   4.010   2.812 -0.5790  0.1846  0.3025
 5627TIP3    H216888   6.305   4.050   2.845 -1.0639  0.2799  2.4330
 5628TIP3   OH216889   0.449   4.241   3.757  0.8050  0.0754  0.1782
 5628TIP3    H116890   0.393   4.165   3.742 -0.1136  0.5974  0.8534
 5628TIP3    H216891   0.501   4.248   3.678  0.5309 -0.9436 -0.1104
 5629TIP3   OH216892   0.145   3.782   2.631 -0.2278 -0.2247  0.4053
 5629TIP3    H116893   0.064   3.799   2.679 -0.6158  0.5134 -0.4632
 5629TIP3    H216894   0.116   3.734   2.553 -0.0236  1.0519 -0.5048
 5630TIP3   OH216895   6.153   1.424   0.910  0.3537 -0.3154 -0.6868
 5630TIP3    H116896   6.243   1.405   0.936 -0.1001 -3.1638 -0.7767
 5630TIP3    H216897   6.155   1.428   0.814  0.3176 -1.0561 -0.7270
 5631TIP3   OH216898   0.533   1.423   2.583 -0.1895 -0.5310 -0.1954
 5631TIP3    H116899   0.495   1.390   2.665  0.6360 -0.3846  0.2583
 5631TIP3    H216900   0.524   1.350   2.522 -2.0079 -0.2016 -0.3890
 5632TIP3   OH216901   2.239   2.491   0.303  0.0141 -0.2522 -0.4949
 5632TIP3    H116902   2.280   2.574   0.330 -0.3422  0.4408 -1.9823
 5632TIP3    H216903   2.277   2.473   0.217  1.2334 -2.4718  0.4338
 5633TIP3   OH216904   6.287   2.705   1.972  0.2449 -0.3549  0.0270
 5633TIP3    H116905   6.240   2.762   2.033 -0.0077 -1.3462  0.7875
 5633TIP3    H216906   6.239   2.622   1.974  0.9466 -0.7961 -0.6004
 5634TIP3   OH216907   2.888   5.678   0.578  0.1120 -0.1406 -0.2299
 5634TIP3    H116908   2.926   5.635   0.655 -1.4092  0.5780  0.9936
 5634TIP3    H216909   2.839   5.609   0.534  1.3884 -0.6702 -0.8604
 5635TIP3   OH216910   0.990   5.666   4.267 -0.5046 -0.4738 -0.0233
 5635TIP3    H116911   0.959   5.579   4.243 -0.1657 -0.3033 -1.1657
 5635TIP3    H216912   0.923   5.725   4.234  0.1346 -0.2126 -0.9006
 5636TIP3   OH216913   0.655   0.992   4.110  0.7298 -0.3810  0.5695
 5636TIP3    H116914   0.595   0.963   4.179  0.8273 -0.6165  0.5592
 5636TIP3    H216915   0.710   1.058   4.151  2.1408 -1.9378  1.3405
 5637TIP3   OH216916   3.815   5.730   0.145 -0.1780 -0.4643  0.1577
 5637TIP3    H116917   3.898   5.743   0.191  0.1829  1.3434 -0.9245
 5637TIP3    H216918   3.831   5.760   0.056 -1.5398 -1.6847 -0.5503
 5638TIP3   OH216919   2.621   0.284   4.089 -0.5470  0.2589 -0.0615
 5638TIP3    H116920   2.537   0.261   4.049 -0.6387 -0.1374  0.3474
 5638TIP3    H216921   2.601   0.297   4.182 -0.7103  3.1750 -0.4252
 5639TIP3   OH216922   5.019   3.129   1.255  0.1469  0.1059 -0.1604
 5639TIP3    H116923   5.042   3.163   1.169 -0.3303 -1.3046 -0.8897
 5639TIP3    H216924   5.081   3.169   1.315  1.4277  0.0253 -1.3759
 5640TIP3   OH216925   4.275   5.510   3.303  0.3602  0.3855  0.1991
 5640TIP3    H116926   4.345   5.470   3.251  0.3412 -0.9590  1.1740
 5640TIP3    H216927   4.316   5.588   3.341  0.6587  0.8427 -1.0207
 5641TIP3   OH216928   5.136   4.555   4.461 -0.2158  0.2714 -0.0354
 5641TIP3    H116929   5.184   4.594   4.535 -0.8793 -0.3061  0.7226
 5641TIP3    H216930   5.197   4.491   4.425  0.1508  0.6231 -0.0611
 5642TIP3   OH216931   4.871   3.622   5.125  0.0104 -0.0803  0.2304
 5642TIP3    H116932   4.901   3.531   5.132  0.4174  0.0192 -0.1484
 5642TIP3    H216933   4.894   3.648   5.035  1.2152  0.8406  0.7661
 5643TIP3   OH216934   1.078   5.263   1.925 -0.0929 -0.4846  0.0860
 5643TIP3    H116935   1.059   5.257   1.831  1.6348 -0.8031 -0.2616
 5643TIP3    H216936   1.104   5.354   1.939 -0.0651 -0.5117  0.2113
 5644TIP3   OH216937   6.048   5.064   0.797  0.9014 -0.1358  0.6290
 5644TIP3    H116938   5.964   5.103   0.822  0.0598 -1.0216 -0.6856
 5644TIP3    H216939   6.091   5.044   0.880  0.5426  1.8105  1.3343
 5645TIP3   OH216940   1.449   4.226   3.466 -0.2908 -0.0838  0.7760
 5645TIP3    H116941   1.486   4.307   3.430  0.8964 -0.4338  1.1713
 5645TIP3    H216942   1.356   4.233   3.447 -0.2797  1.5600  1.1448
 5646TIP3   OH216943   1.406   4.122   2.119 -0.1398 -0.1028 -0.2591
 5646TIP3    H116944   1.329   4.112   2.062 -0.1681 -0.0818 -0.2246
 5646TIP3    H216945   1.475   4.073   2.074 -0.4846 -1.1450  0.3303
 5647TIP3   OH216946   2.297   5.757   3.644  0.1734  0.0523 -0.4010
 5647TIP3    H116947   2.234   5.812   3.691  0.5625  1.3266 -1.2978
 5647TIP3    H216948   2.244   5.695   3.594 -0.4326  1.4218 -1.5242
 5648TIP3   OH216949   1.959   5.312   3.301  0.4186 -0.4482 -0.4295
 5648TIP3    H116950   1.906   5.268   3.234  0.7604  0.5926 -1.4098
 5648TIP3    H216951   2.027   5.358   3.252  0.2755  0.9053  0.5780
 5649TIP3   OH216952   0.097   4.970   5.103  0.1942 -0.1724  0.0381
 5649TIP3    H116953   0.105   5.007   5.015  0.0377  0.4378  0.2733
 5649TIP3    H216954   0.159   5.020   5.156  2.1506 -2.2020 -0.2056
 5650TIP3   OH216955   0.939   4.504   3.084 -0.1030  0.4140 -0.5483
 5650TIP3    H116956   0.845   4.490   3.079 -0.4235  1.7168  1.0087
 5650TIP3    H216957   0.976   4.416   3.082 -1.5297 -0.2975  1.2004
 5651TIP3   OH216958   4.859   2.016   4.178 -0.0241 -0.4560  0.6470
 5651TIP3    H116959   4.788   2.077   4.164  0.5001  0.0345  0.0938
 5651TIP3    H216960   4.861   1.962   4.099  2.6248  2.0028 -1.1597
 5652TIP3   OH216961   6.108   1.665   1.486 -0.3356 -0.3565 -0.5024
 5652TIP3    H116962   6.018   1.695   1.494  0.2734  1.1781  1.4959
 5652TIP3    H216963   6.141   1.707   1.406 -0.7489  0.9433 -0.0130
 5653TIP3   OH216964   4.346   3.597   0.805 -0.6007  0.0306  0.0136
 5653TIP3    H116965   4.404   3.535   0.848 -0.6578  0.1349  0.2449
 5653TIP3    H216966   4.347   3.674   0.862  0.2498  0.6301 -0.7687
 5654TIP3   OH216967   4.414   3.778   2.452 -0.1381  0.4367  0.0470
 5654TIP3    H116968   4.455   3.714   2.510 -1.7079 -2.9275 -2.2646
 5654TIP3    H216969   4.341   3.813   2.503 -2.4551 -3.5848 -0.1379
 5655TIP3   OH216970   0.534   2.462   1.922 -0.5161 -0.2836  0.1426
 5655TIP3    H116971   0.583   2.380   1.933  1.0434  0.4760 -0.8233
 5655TIP3    H216972   0.446   2.441   1.952  0.3077 -1.7799  1.7145
 5656TIP3   OH216973   4.483   2.450   5.120 -0.0134  0.5441  0.3300
 5656TIP3    H116974   4.536   2.529   5.110 -0.0918  0.5923  0.2884
 5656TIP3    H216975   4.402   2.481   5.159  0.3483  0.3329  1.2679
 5657TIP3   OH216976   4.995   4.248   0.158  0.0861 -0.3992  0.4891
 5657TIP3    H116977   4.947   4.227   0.078  1.2100 -0.8297 -0.0918
 5657TIP3    H216978   5.024   4.338   0.145  0.5583 -0.5838  0.2624
 5658TIP3   OH216979   2.609   0.521   1.078  0.4924 -0.1173  0.2818
 5658TIP3    H116980   2.655   0.582   1.021 -0.7405 -1.2271 -2.0266
 5658TIP3    H216981   2.679   0.471   1.120  1.4532  0.9873  0.0637
 5659TIP3   OH216982   0.277   3.117   0.459  0.1748 -0.5317  0.0643
 5659TIP3    H116983   0.191   3.088   0.491  0.0860  0.0987  0.4159
 5659TIP3    H216984   0.331   3.122   0.537 -0.4680  2.4949  0.4242
 5660TIP3   OH216985   0.263   5.019   2.827  0.0976  0.6282 -0.0347
 5660TIP3    H116986   0.299   5.010   2.738 -1.0375 -1.0272 -0.3835
 5660TIP3    H216987   0.309   5.093   2.864  1.5268  0.5752 -1.5728
 5661TIP3   OH216988   2.754   5.469   0.860  0.2126  0.2424  0.0944
 5661TIP3    H116989   2.713   5.433   0.938  1.2803 -0.2389  0.4603
 5661TIP3    H216990   2.686   5.523   0.819 -1.1782 -1.4801 -0.0033
 5662TIP3   OH216991   1.618   2.495   0.178 -0.5054 -0.3268  0.0885
 5662TIP3    H116992   1.634   2.438   0.253  1.2864  0.5043  0.3799
 5662TIP3    H216993   1.522   2.503   0.175 -0.7696 -2.5248  0.6091
 5663TIP3   OH216994   5.313   4.626   4.056 -0.2645  0.6999  0.3620
 5663TIP3    H116995   5.387   4.567   4.073 -0.2515  0.4449 -0.5314
 5663TIP3    H216996   5.332   4.703   4.109  0.7062  0.6808  0.0785
 5664TIP3   OH216997   4.890   4.166   0.445 -0.5554  0.2097  0.0548
 5664TIP3    H116998   4.888   4.230   0.374  2.1104  0.1489 -0.1710
 5664TIP3    H216999   4.870   4.217   0.524  0.0752  1.0402 -0.3078
 5665TIP3   OH217000   3.715   2.292   1.109  0.2051 -0.0563 -0.2882
 5665TIP3    H117001   3.688   2.334   1.027  1.4709 -2.4787 -2.0725
 5665TIP3    H217002   3.647   2.227   1.126  1.2069 -1.2919 -0.8707
 5666TIP3   OH217003   5.519   0.055   3.022 -0.2530  0.0982 -0.1583
 5666TIP3    H117004   5.473   0.126   3.067 -1.3226 -1.1805  0.8004
 5666TIP3    H217005   5.479   0.052   2.935  0.4208  1.2239 -0.5384
 5667TIP3   OH217006   2.547   0.065   0.263  0.3923  0.0803 -0.4278
 5667TIP3    H117007   2.482   0.008   0.221  0.3966  0.3542 -0.8146
 5667TIP3    H217008   2.569   0.129   0.196  2.5460 -1.1595 -1.0001
 5668TIP3   OH217009   0.239   1.359   2.532 -0.1780 -0.4737 -0.7091
 5668TIP3    H117010   0.256   1.265   2.543  1.5951  0.0289  1.7779
 5668TIP3    H217011   0.312   1.401   2.578 -2.5656  2.0802  1.0510
 5669TIP3   OH217012   0.136   0.742   0.788 -0.2824 -0.0431 -0.2617
 5669TIP3    H117013   0.114   0.655   0.753 -0.1081 -1.1238  2.1554
 5669TIP3    H217014   0.056   0.770   0.833  0.9597 -1.0258  2.8142
 5670TIP3   OH217015   4.133   4.952   1.051 -0.0873 -0.5639 -0.1459
 5670TIP3    H117016   4.152   5.030   1.103 -2.6146 -1.0519  1.6428
 5670TIP3    H217017   4.118   4.986   0.962 -1.4867  1.0630  0.6625
 5671TIP3   OH217018   0.771   1.236   2.967 -0.1670  0.0922  0.4111
 5671TIP3    H117019   0.729   1.272   3.045  0.7584  0.4483  0.7526
 5671TIP3    H217020   0.843   1.183   3.001 -0.4671 -0.7097 -0.1613
 5672TIP3   OH217021   2.416   4.160   3.338 -0.2151 -0.9356  0.1763
 5672TIP3    H117022   2.495   4.205   3.367  0.1990 -0.9149 -0.9335
 5672TIP3    H217023   2.408   4.085   3.397  1.5422 -1.8518 -0.6625
 5673TIP3   OH217024   3.809   4.929   0.798 -0.2632  0.1755  0.6191
 5673TIP3    H117025   3.814   4.967   0.886 -0.5666 -0.2230  0.8083
 5673TIP3    H217026   3.793   5.005   0.741 -2.3492  0.2061  1.1453
 5674TIP3   OH217027   2.816   2.877   2.913  0.0992  0.0795 -0.2386
 5674TIP3    H117028   2.881   2.818   2.950  0.0944 -0.4070 -0.9642
 5674TIP3    H217029   2.732   2.834   2.929  0.0536  0.1349 -0.3219
 5675TIP3   OH217030   2.342   4.185   4.064 -0.2469 -0.7243  0.1658
 5675TIP3    H117031   2.340   4.271   4.106  0.6050 -0.0372 -1.1383
 5675TIP3    H217032   2.435   4.163   4.058 -0.3815 -1.0813 -0.7740
 5676TIP3   OH217033   4.133   0.004   2.039  0.2191  0.4150 -0.2819
 5676TIP3    H117034   4.110   0.091   2.072 -1.1323  0.4293 -1.1822
 5676TIP3    H217035   4.069  -0.013   1.970  2.0567 -0.2214 -1.9188
 5677TIP3   OH217036   3.835   1.074   0.475  0.7503  0.1842 -0.3895
 5677TIP3    H117037   3.761   1.019   0.499  1.4589 -0.1651  1.1728
 5677TIP3    H217038   3.798   1.142   0.419 -0.6586 -0.2645 -0.0435
 5678TIP3   OH217039   0.905   2.775   0.055  0.2208 -0.6693  0.1503
 5678TIP3    H117040   0.953   2.727   0.122  0.0644 -0.3775  0.4723
 5678TIP3    H217041   0.834   2.716   0.030 -0.2525 -0.4274  0.8842
 5679TIP3   OH217042   3.443   1.602   2.428  0.0865  0.3282  0.0866
 5679TIP3    H117043   3.476   1.563   2.509  0.3760  1.1123  0.3648
 5679TIP3    H217044   3.467   1.695   2.435  0.3932  0.3546 -1.0354
 5680TIP3   OH217045   5.855   1.105   0.418 -0.2551 -0.0773 -0.3726
 5680TIP3    H117046   5.760   1.103   0.409 -0.2141 -1.6528 -0.6282
 5680TIP3    H217047   5.876   1.035   0.480  0.8566 -0.9698 -1.6774
 5681TIP3   OH217048   3.572   4.637   4.925 -0.3322  0.9228  0.2493
 5681TIP3    H117049   3.638   4.700   4.898  0.7173 -0.6980 -1.2167
 5681TIP3    H217050   3.614   4.551   4.915 -2.3975 -0.1398 -0.0436
 5682TIP3   OH217051   3.468   1.443   2.894 -0.3175  0.6586  0.0378
 5682TIP3    H117052   3.401   1.376   2.908 -1.5572  2.1693  1.9234
 5682TIP3    H217053   3.494   1.433   2.803 -0.9916 -1.8626  0.0597
 5683TIP3   OH217054   5.726   3.878   4.995 -0.0548 -0.2494  0.5959
 5683TIP3    H117055   5.667   3.950   4.973 -0.7285 -0.2110  2.3052
 5683TIP3    H217056   5.667   3.805   5.014  0.6376 -1.4782 -1.6967
 5684TIP3   OH217057   1.186   0.135   0.326 -0.3255 -0.0751  0.1196
 5684TIP3    H117058   1.193   0.151   0.232 -1.6833  0.5257  0.0931
 5684TIP3    H217059   1.109   0.078   0.334 -0.7784  0.6443  0.9343
 5685TIP3   OH217060   6.284   3.078   1.388  0.1198 -0.4079  0.4503
 5685TIP3    H117061   6.196   3.087   1.351 -0.1022 -1.0005  0.8223
 5685TIP3    H217062   6.333   3.150   1.349 -0.5858  0.0640  0.4007
 5686TIP3   OH217063   1.868   5.030   4.349 -0.1027 -0.7008 -0.5226
 5686TIP3    H117064   1.873   5.124   4.333 -0.4595 -0.4719  0.6264
 5686TIP3    H217065   1.847   4.992   4.264 -0.8255  0.3385 -0.8252
 5687TIP3   OH217066   3.424   3.522   1.268  0.2698 -0.8008  0.4574
 5687TIP3    H117067   3.480   3.460   1.221  0.1135  0.7044 -1.8701
 5687TIP3    H217068   3.485   3.570   1.324  0.7821 -1.3453  0.3885
 5688TIP3   OH217069   5.062   1.441   1.595 -1.0130 -0.1880  0.2075
 5688TIP3    H117070   5.115   1.377   1.643 -0.5251 -0.0001 -0.0745
 5688TIP3    H217071   5.019   1.389   1.526 -0.0264 -0.0963 -0.4974
 5689TIP3   OH217072   3.660   4.165   4.581  0.0798  0.2391  0.2127
 5689TIP3    H117073   3.673   4.240   4.639 -0.0279 -0.0024  0.5515
 5689TIP3    H217074   3.675   4.089   4.637 -0.0059  0.0038 -0.0825
 5690TIP3   OH217075   3.140   5.718   0.455  0.0765  0.1159 -0.2457
 5690TIP3    H117076   3.105   5.685   0.373  1.4481 -0.7492 -0.5220
 5690TIP3    H217077   3.074   5.695   0.520  0.0609 -1.3996 -0.7529
 5691TIP3   OH217078   2.176   0.519   3.450 -0.2763 -0.5807  0.2045
 5691TIP3    H117079   2.269   0.527   3.468 -0.2071  1.4157 -0.8538
 5691TIP3    H217080   2.163   0.561   3.365 -1.7614 -3.1051 -0.9472
 5692TIP3   OH217081   5.741   4.738   1.836  0.1938 -0.2080  0.0084
 5692TIP3    H117082   5.755   4.721   1.930  2.5428 -1.4450 -0.4889
 5692TIP3    H217083   5.713   4.654   1.800  2.3047 -0.6164 -0.8465
 5693TIP3   OH217084   3.628   4.848   3.501  0.4740  0.5384 -0.2223
 5693TIP3    H117085   3.629   4.892   3.416  0.1611  1.0375  0.0249
 5693TIP3    H217086   3.536   4.827   3.516  0.3686  1.4256  0.4706
 5694TIP3   OH217087   3.557   3.132   1.209 -0.1774  0.6268  0.2206
 5694TIP3    H117088   3.552   3.052   1.157 -0.8422  0.5451  0.4063
 5694TIP3    H217089   3.497   3.117   1.282  1.1409  0.5128  1.3304
 5695TIP3   OH217090   4.420   2.535   3.762  0.5661  0.3205 -0.5709
 5695TIP3    H117091   4.396   2.556   3.672  0.6651  1.5442 -0.3196
 5695TIP3    H217092   4.369   2.596   3.815  0.2207 -0.6361  0.2405
 5696TIP3   OH217093   5.398   1.374   0.360  0.7490  0.3891 -0.1306
 5696TIP3    H117094   5.305   1.365   0.340  0.6711  1.5318 -0.3797
 5696TIP3    H217095   5.404   1.453   0.414  1.4858 -0.1416  0.5960
 5697TIP3   OH217096   2.158   2.607   2.690  0.3589 -0.0954  0.2985
 5697TIP3    H117097   2.203   2.689   2.708  2.1031 -0.6407 -1.2784
 5697TIP3    H217098   2.133   2.613   2.598  0.4796 -1.3029  0.1715
 5698TIP3   OH217099   2.560   5.656   0.760  0.9177 -0.0539 -0.1648
 5698TIP3    H117100   2.598   5.728   0.809  0.9953 -0.7928  0.8968
 5698TIP3    H217101   2.519   5.697   0.684  0.1206  1.2137  0.9187
 5699TIP3   OH217102   1.984   4.693   1.202 -0.2164  0.2529  0.2197
 5699TIP3    H117103   2.059   4.745   1.173 -0.1845  0.4359  0.6116
 5699TIP3    H217104   1.908   4.745   1.175 -0.1779  0.9754  1.4027
 5700TIP3   OH217105   4.641   1.018   4.393  0.2389  0.1665  0.4812
 5700TIP3    H117106   4.552   1.050   4.402  1.1002  2.2923  2.6775
 5700TIP3    H217107   4.666   1.038   4.303 -0.9600  1.0911  0.3394
 5701TIP3   OH217108   0.851   2.299   1.199 -0.2255 -0.0544 -0.0036
 5701TIP3    H117109   0.832   2.287   1.106 -1.3250 -1.9622  0.4131
 5701TIP3    H217110   0.770   2.337   1.235  0.5144  1.5430  0.0535
 5702TIP3   OH217111   2.233   5.035   2.277  0.0574 -0.4261 -0.1828
 5702TIP3    H117112   2.173   5.085   2.222 -0.3908 -0.7675 -0.0129
 5702TIP3    H217113   2.315   5.083   2.273 -1.3062  2.7438  3.1666
 5703TIP3   OH217114   1.330   3.338   4.454 -0.4049  0.5160 -0.3331
 5703TIP3    H117115   1.317   3.428   4.486  0.7348  0.1119  1.4459
 5703TIP3    H217116   1.421   3.336   4.426 -0.2769 -0.1995  0.1120
 5704TIP3   OH217117   2.730   5.492   0.482 -0.2594  0.0273 -0.0327
 5704TIP3    H117118   2.739   5.427   0.412  1.7325  0.5003 -0.2836
 5704TIP3    H217119   2.660   5.459   0.537 -1.5776 -0.5933 -1.9901
 5705TIP3   OH217120   4.706   0.410   0.193 -0.0069 -0.7480  0.3007
 5705TIP3    H117121   4.754   0.489   0.216 -1.1518 -0.2575  1.1047
 5705TIP3    H217122   4.755   0.372   0.120  0.4564  0.8072 -0.2351
 5706TIP3   OH217123   0.326   2.505   0.963  0.9255  0.5196  0.4526
 5706TIP3    H117124   0.247   2.460   0.994  1.8014 -0.8558  0.7913
 5706TIP3    H217125   0.313   2.596   0.989 -1.1441  0.6219 -0.7066
 5707TIP3   OH217126   1.311   2.735   4.881  0.2113  0.4345 -0.8756
 5707TIP3    H117127   1.349   2.815   4.844 -1.4483  1.2154 -0.9749
 5707TIP3    H217128   1.226   2.762   4.915  0.5107 -0.8368  1.0764
 5708TIP3   OH217129   4.099   5.247   3.189  0.3301  0.7142 -0.3869
 5708TIP3    H117130   4.034   5.210   3.250 -1.4396  0.7932 -2.1248
 5708TIP3    H217131   4.152   5.306   3.244 -2.7033  2.6505  0.7424
 5709TIP3   OH217132   5.230   0.429   1.447 -0.9256  0.2344  0.1789
 5709TIP3    H117133   5.270   0.357   1.497  1.6985  0.9204 -0.7685
 5709TIP3    H217134   5.253   0.508   1.495 -1.5800  0.6328 -0.1478
 5710TIP3   OH217135   1.430   1.273   4.619 -0.1360 -0.0106  1.1142
 5710TIP3    H117136   1.367   1.344   4.605  1.7270  1.3950 -0.5826
 5710TIP3    H217137   1.455   1.282   4.711  1.0112  2.4200  0.6335
 5711TIP3   OH217138   0.622   2.442   1.650  0.1040 -0.3464 -0.1485
 5711TIP3    H117139   0.652   2.507   1.713  2.4593 -2.7753  1.4513
 5711TIP3    H217140   0.532   2.424   1.674 -0.1143  1.2268  0.2928
 5712TIP3   OH217141   3.747   0.827   4.747 -0.0603 -0.3675 -0.3833
 5712TIP3    H117142   3.737   0.759   4.813  0.5162 -0.3767 -0.3048
 5712TIP3    H217143   3.738   0.781   4.663 -1.7222 -0.2189 -0.3315
 5713TIP3   OH217144   4.277   1.362   0.623 -0.1668 -0.3315 -0.1734
 5713TIP3    H117145   4.187   1.330   0.613 -0.5940  0.8135 -0.1465
 5713TIP3    H217146   4.270   1.457   0.612  1.3257 -0.3708 -2.1950
 5714TIP3   OH217147   5.199   3.971   2.959 -0.7737  0.6747  0.1454
 5714TIP3    H117148   5.176   3.902   3.021  1.5936  1.6052  2.2365
 5714TIP3    H217149   5.210   3.926   2.876 -1.0730 -1.1439  1.0453
 5715TIP3   OH217150   5.616   4.604   4.608 -0.2678 -0.4052  0.1012
 5715TIP3    H117151   5.619   4.535   4.674 -1.9184  0.6519  1.3800
 5715TIP3    H217152   5.681   4.668   4.638  0.4604 -0.8762 -0.4604
 5716TIP3   OH217153   1.355   2.988   4.148  0.2556  0.2250  0.5097
 5716TIP3    H117154   1.386   3.060   4.203  0.4737  1.1422 -0.7869
 5716TIP3    H217155   1.403   2.998   4.066 -0.0317 -1.1542  0.1542
 5717TIP3   OH217156   3.893   2.752   1.029  0.2954 -0.0521  0.4328
 5717TIP3    H117157   3.886   2.658   1.046  0.4451 -0.1317  0.0657
 5717TIP3    H217158   3.949   2.758   0.952 -0.2081  0.3117  0.0899
 5718TIP3   OH217159   2.435   3.365   2.682 -0.3971 -0.1445 -0.1526
 5718TIP3    H117160   2.528   3.355   2.701 -0.5523 -0.7911  0.3146
 5718TIP3    H217161   2.405   3.277   2.660 -1.2990 -0.3210  1.6047
 5719TIP3   OH217162   1.074   0.303   1.623 -0.0695 -0.1582 -0.0811
 5719TIP3    H117163   0.995   0.272   1.578 -1.7263  3.0139  0.3050
 5719TIP3    H217164   1.083   0.245   1.699 -1.3795 -1.2693 -0.7225
 5720TIP3   OH217165   0.117   1.307   1.809 -0.0798 -0.2460 -0.5757
 5720TIP3    H117166   0.131   1.397   1.837  0.7956 -0.4102 -0.4395
 5720TIP3    H217167   0.088   1.261   1.888  2.1585 -0.6589  0.0848
 5721TIP3   OH217168   0.918   0.884   4.094 -0.2869  0.7774  0.2115
 5721TIP3    H117169   0.945   0.900   4.185 -0.5031 -0.9389  0.6278
 5721TIP3    H217170   0.823   0.897   4.094 -0.5290 -0.7603  0.6553
 5722TIP3   OH217171   1.371   3.925   4.269 -0.1368 -0.3509  0.1738
 5722TIP3    H117172   1.306   3.996   4.262  1.8242  1.4533 -0.7691
 5722TIP3    H217173   1.324   3.855   4.315 -2.4774  1.1651  0.2997
 5723TIP3   OH217174   3.137   4.874   1.983  0.1281 -0.4784  0.0605
 5723TIP3    H117175   3.150   4.890   2.077  0.6139  2.3357 -0.3721
 5723TIP3    H217176   3.223   4.850   1.951  0.2538 -0.1262  0.1298
 5724TIP3   OH217177   0.035   3.390   3.752 -0.1082  0.2443  0.5604
 5724TIP3    H117178   0.004   3.365   3.839  1.5945 -0.8037  0.9164
 5724TIP3    H217179   0.012   3.315   3.696 -1.2662  0.9458  0.0498
 5725TIP3   OH217180   2.133   2.051   1.793  0.1036  0.6310  0.1319
 5725TIP3    H117181   2.100   1.968   1.826 -0.1833  0.4435 -0.6173
 5725TIP3    H217182   2.227   2.036   1.781  0.3280  0.8864  1.4016
 5726TIP3   OH217183   2.406   5.656   0.448  0.0737 -0.0277  0.0287
 5726TIP3    H117184   2.364   5.741   0.458  0.4417  0.0124  1.3903
 5726TIP3    H217185   2.380   5.626   0.360 -1.9567  0.4435  0.4285
 5727TIP3   OH217186   3.620   4.587   5.190 -0.3572 -0.3133 -0.2308
 5727TIP3    H117187   3.549   4.622   5.244 -0.0107  0.8255 -0.4638
 5727TIP3    H217188   3.591   4.601   5.100  0.3629  0.6680 -0.3352
 5728TIP3   OH217189   4.574   4.591   2.793  0.1247 -0.0673  0.3497
 5728TIP3    H117190   4.658   4.585   2.748 -0.5446 -0.2075 -0.9555
 5728TIP3    H217191   4.591   4.558   2.881  1.4225 -0.1149  0.0998
 5729TIP3   OH217192   4.204   0.854   4.204  0.7263  0.4226  0.5494
 5729TIP3    H117193   4.114   0.836   4.229  0.7365  0.0825  0.3414
 5729TIP3    H217194   4.209   0.949   4.198  0.4879  0.4620  0.9568
 5730TIP3   OH217195   5.189   0.060   3.695 -0.4678  0.6267 -0.0148
 5730TIP3    H117196   5.162  -0.031   3.698 -0.9607  0.7537 -0.5471
 5730TIP3    H217197   5.172   0.093   3.784 -1.2015  0.4611 -0.0883
 5731TIP3   OH217198   6.124   4.420   3.298  0.2183  0.2067  0.6318
 5731TIP3    H117199   6.039   4.462   3.291  0.5473  0.7706 -0.0541
 5731TIP3    H217200   6.175   4.455   3.225  1.3083  0.5180  1.5096
 5732TIP3   OH217201   3.823   3.150   0.860  0.0325 -0.1205  0.0661
 5732TIP3    H117202   3.815   3.195   0.944 -1.2708 -0.6624  0.2508
 5732TIP3    H217203   3.917   3.147   0.843  0.2402  1.0121  0.9414
 5733TIP3   OH217204   0.681   3.746   4.610 -0.0611  0.1682 -0.1468
 5733TIP3    H117205   0.765   3.789   4.593  0.6854 -0.2402  2.1805
 5733TIP3    H217206   0.624   3.816   4.642 -0.1071  0.1494 -0.1875
 5734TIP3   OH217207   3.043   2.198   2.114 -0.5186 -0.0513  0.0513
 5734TIP3    H117208   3.108   2.146   2.068  2.0116  3.0189 -0.1932
 5734TIP3    H217209   2.960   2.155   2.095  1.1919 -3.0629 -1.2535
 5735TIP3   OH217210   4.974   3.151   2.492 -0.4595  0.0680 -0.0746
 5735TIP3    H117211   5.036   3.222   2.480  0.2891 -0.0195  2.6709
 5735TIP3    H217212   4.986   3.095   2.415  0.4268  1.7906 -1.2396
 5736TIP3   OH217213   0.203   4.753   2.997  0.8262  0.2318 -0.2840
 5736TIP3    H117214   0.284   4.703   3.011  1.1805 -0.2912 -3.4417
 5736TIP3    H217215   0.229   4.825   2.939 -1.1173 -0.8061 -2.6207
 5737TIP3   OH217216   4.175   0.235   0.770 -0.1598  0.3341 -0.0117
 5737TIP3    H117217   4.165   0.213   0.677 -0.3244  2.2268 -0.4866
 5737TIP3    H217218   4.096   0.199   0.812 -0.1086 -0.4882 -0.6004
 5738TIP3   OH217219   3.604   5.900   3.861 -0.5523 -0.3045 -0.4140
 5738TIP3    H117220   3.508   5.894   3.861 -0.8520  2.8602  0.3412
 5738TIP3    H217221   3.633   5.814   3.893 -3.1143 -1.2239 -0.3014
 5739TIP3   OH217222   4.418   4.578   0.807  0.0408 -0.2869 -1.1143
 5739TIP3    H117223   4.359   4.627   0.864 -0.6889 -1.6690 -0.6435
 5739TIP3    H217224   4.463   4.645   0.756  0.1986  0.9640  0.5858
 5740TIP3   OH217225   2.865   1.120   1.248  0.0037 -0.8975 -0.1669
 5740TIP3    H117226   2.896   1.192   1.193  1.1247 -1.1825  0.0780
 5740TIP3    H217227   2.942   1.093   1.298 -0.3657 -2.3960 -0.3879
 5741TIP3   OH217228   1.766   2.077   4.203  0.3065  0.4852  0.2592
 5741TIP3    H117229   1.687   2.039   4.164  0.7432  0.5605 -0.7196
 5741TIP3    H217230   1.815   2.001   4.235 -0.1750  0.4416  0.8978
 5742TIP3   OH217231   0.688   0.646   1.086  0.2248  0.0652  0.0946
 5742TIP3    H117232   0.607   0.634   1.136 -0.3960 -1.3106 -1.1562
 5742TIP3    H217233   0.716   0.735   1.106 -1.1428  0.2816  1.2078
 5743TIP3   OH217234   5.322   0.255   0.329  0.0012 -0.5008 -0.1922
 5743TIP3    H117235   5.256   0.318   0.357 -0.1952 -0.2458 -1.1913
 5743TIP3    H217236   5.288   0.170   0.355  0.0847 -0.2378  0.8164
 5744TIP3   OH217237   5.567   4.000   1.699  0.0276 -0.3857  0.3235
 5744TIP3    H117238   5.617   4.075   1.729 -0.3456  0.6736 -1.5738
 5744TIP3    H217239   5.620   3.962   1.629 -0.0590 -1.5652  0.8709
 5745TIP3   OH217240   2.711   3.129   3.870  0.4552 -0.4084 -0.3997
 5745TIP3    H117241   2.742   3.088   3.789  1.4096 -1.1242  0.2948
 5745TIP3    H217242   2.657   3.062   3.912 -0.1229 -0.0029 -0.4895
 5746TIP3   OH217243   3.293   5.830   3.188  0.1917  1.2795  0.5191
 5746TIP3    H117244   3.372   5.874   3.157  0.9275 -0.7402 -0.6628
 5746TIP3    H217245   3.231   5.839   3.115  0.6169 -0.2149 -0.0692
 5747TIP3   OH217246   5.524   0.249   4.664  0.0864  0.9863  0.1120
 5747TIP3    H117247   5.495   0.327   4.711  0.9962  1.3929  0.0102
 5747TIP3    H217248   5.524   0.180   4.731  0.0205  1.2446  0.3803
 5748TIP3   OH217249   5.379   3.359   2.079 -0.5833 -0.5671 -0.2863
 5748TIP3    H117250   5.455   3.312   2.044 -0.3772  0.5929 -1.4376
 5748TIP3    H217251   5.317   3.289   2.100  0.3082 -1.4590 -0.4953
 5749TIP3   OH217252   6.149   4.489   2.222  0.1856  0.0578  0.7265
 5749TIP3    H117253   6.152   4.535   2.305 -0.9218  0.8452  0.3481
 5749TIP3    H217254   6.137   4.558   2.156 -2.2008 -0.7623  0.2073
 5750TIP3   OH217255   0.670   5.669   4.500 -0.1727  0.8036  0.5447
 5750TIP3    H117256   0.711   5.593   4.458 -2.3045  1.0044 -2.1971
 5750TIP3    H217257   0.639   5.636   4.584 -0.0073 -1.0558 -0.0731
 5751TIP3   OH217258   0.212   2.750   2.021 -0.2171  0.4646  0.0363
 5751TIP3    H117259   0.124   2.716   2.004  0.0276 -0.3467  0.3695
 5751TIP3    H217260   0.259   2.736   1.939 -0.3001  0.5987 -0.0351
 5752TIP3   OH217261   1.484   5.251   2.467 -0.0756 -0.1013 -0.3588
 5752TIP3    H117262   1.402   5.203   2.461  0.5821 -1.2196 -0.6624
 5752TIP3    H217263   1.511   5.264   2.376  0.2344 -0.0096 -0.2565
 5753TIP3   OH217264   0.338   2.276   2.664  0.4091  0.1080 -0.0124
 5753TIP3    H117265   0.306   2.212   2.727 -0.0533  1.1338  0.8140
 5753TIP3    H217266   0.358   2.224   2.586 -0.8075 -0.9314  0.3247
 5754TIP3   OH217267   3.381   5.506   0.696 -0.2944  0.1522  0.4266
 5754TIP3    H117268   3.450   5.526   0.632  0.0732  0.4522  0.9043
 5754TIP3    H217269   3.415   5.541   0.778  1.2408 -3.9040  1.7787
 5755TIP3   OH217270   1.893   5.844   3.031  0.7220 -0.3187  0.2264
 5755TIP3    H117271   1.940   5.866   3.111  1.0925 -0.9930  0.2013
 5755TIP3    H217272   1.959   5.849   2.962  0.8724 -1.6705  0.2482
 5756TIP3   OH217273   4.835   1.407   1.147  0.2379  0.1596 -0.2330
 5756TIP3    H117274   4.809   1.480   1.092 -0.5835  0.8949  1.0729
 5756TIP3    H217275   4.869   1.448   1.227  1.8395 -0.8595 -0.3550
 5757TIP3   OH217276   6.194   0.775   1.210  0.1590 -0.2760 -0.8705
 5757TIP3    H117277   6.173   0.718   1.285 -0.4130  0.0758 -0.7547
 5757TIP3    H217278   6.264   0.729   1.164  1.0655 -0.1182  0.3199
 5758TIP3   OH217279   4.475   5.449   4.850 -0.4564  0.6249  0.5336
 5758TIP3    H117280   4.390   5.447   4.893 -1.1357 -0.3035 -0.8085
 5758TIP3    H217281   4.461   5.500   4.770  0.8326  2.4864  1.3965
 5759TIP3   OH217282   5.479   1.962   0.898 -0.0866 -0.5917 -1.3037
 5759TIP3    H117283   5.476   1.872   0.930  0.3966 -0.2248 -0.1614
 5759TIP3    H217284   5.396   2.000   0.926  0.0150 -0.4854 -1.1423
 5760TIP3   OH217285   0.976   5.828   2.671  0.4913  0.4272 -0.2304
 5760TIP3    H117286   1.050   5.790   2.719 -0.4192 -1.5470 -0.2587
 5760TIP3    H217287   0.902   5.817   2.730 -0.1025  0.7537 -0.9034
 5761TIP3   OH217288   4.621   1.619   0.207  0.7826  0.5226 -0.3350
 5761TIP3    H117289   4.543   1.626   0.152 -0.5974  1.7909  1.6125
 5761TIP3    H217290   4.608   1.538   0.257  1.4484 -0.0175 -1.0231
 5762TIP3   OH217291   4.502   2.710   4.892 -0.7924 -0.1753  0.0322
 5762TIP3    H117292   4.523   2.627   4.851  1.4649  0.8395 -1.0360
 5762TIP3    H217293   4.560   2.714   4.969  1.4747  1.6631 -1.6431
 5763TIP3   OH217294   2.904   5.749   1.267 -0.7196  0.1284  0.4444
 5763TIP3    H117295   2.952   5.812   1.213  1.0898 -1.1950  0.4308
 5763TIP3    H217296   2.951   5.748   1.350 -2.0715  0.3944  1.2540
 5764TIP3   OH217297   0.803   5.921   1.550  0.4360  0.8473 -0.4225
 5764TIP3    H117298   0.709   5.916   1.533  0.4276 -2.1896 -0.0985
 5764TIP3    H217299   0.843   5.926   1.464  0.0282 -2.7819 -0.9726
 5765TIP3   OH217300   4.017   0.931   2.207  0.6480 -0.0276  0.3985
 5765TIP3    H117301   3.945   0.893   2.158  1.2561 -1.0354  0.2553
 5765TIP3    H217302   4.015   0.885   2.291 -0.3692  1.6615  1.3519
 5766TIP3   OH217303   0.626   1.153   1.399 -0.0232  0.2017 -0.3141
 5766TIP3    H117304   0.666   1.239   1.389 -1.3926  1.0611  1.0116
 5766TIP3    H217305   0.636   1.133   1.493  3.1653 -2.6523 -1.0445
 5767TIP3   OH217306   6.063   3.222   2.207  0.2930 -0.3762 -0.0978
 5767TIP3    H117307   6.035   3.313   2.215 -0.5470 -0.6105 -0.2713
 5767TIP3    H217308   6.097   3.200   2.294 -0.8227 -0.3206  0.3647
 5768TIP3   OH217309   4.481   4.888   0.075 -0.1253 -0.2762  0.6091
 5768TIP3    H117310   4.557   4.939   0.104  0.6955  0.2624 -2.2384
 5768TIP3    H217311   4.414   4.953   0.057  0.4547 -0.2389 -1.6620
 5769TIP3   OH217312   2.993   4.178   2.578  0.2449 -0.1787  0.3402
 5769TIP3    H117313   3.087   4.173   2.593  0.2600  0.0070  0.3067
 5769TIP3    H217314   2.966   4.087   2.564  0.4904 -0.1885 -0.0960
 5770TIP3   OH217315   0.435   5.637   0.873 -0.0317  0.1591 -0.1668
 5770TIP3    H117316   0.490   5.565   0.842  0.2908  0.6644 -0.7760
 5770TIP3    H217317   0.406   5.681   0.794 -0.4819  0.5160  0.1931
 5771TIP3   OH217318   1.949   2.981   2.441 -0.0863  0.1827 -0.2517
 5771TIP3    H117319   1.854   2.990   2.453 -0.2133 -0.2682 -0.8917
 5771TIP3    H217320   1.987   3.046   2.500 -0.7610 -0.3335  0.7837
 5772TIP3   OH217321   2.868   2.353   1.582 -0.1211  0.4747 -0.2875
 5772TIP3    H117322   2.802   2.295   1.545  1.1633 -0.3172 -1.4222
 5772TIP3    H217323   2.910   2.300   1.650  0.2632  0.4747 -0.5212
 5773TIP3   OH217324   1.067   5.591   1.138  0.4461 -0.0490 -0.1530
 5773TIP3    H117325   0.979   5.609   1.171  0.9181  0.5604  0.8074
 5773TIP3    H217326   1.054   5.524   1.071 -1.0092  1.5875 -1.6192
 5774TIP3   OH217327   3.127   2.493   0.429 -0.0873 -0.3613  0.1522
 5774TIP3    H117328   3.060   2.548   0.469  0.3707  1.0627 -0.9354
 5774TIP3    H217329   3.184   2.554   0.382  1.8609 -1.5323  0.8380
 5775TIP3   OH217330   2.905   1.068   2.300 -0.6122  0.0572  0.7125
 5775TIP3    H117331   2.975   1.031   2.245 -1.2405 -1.8417  1.1160
 5775TIP3    H217332   2.899   1.159   2.272  1.4633  0.0694  0.1013
 5776TIP3   OH217333   4.652   2.939   3.667 -0.0589  0.8250 -0.1094
 5776TIP3    H117334   4.665   3.018   3.720 -0.4572  0.0859  1.1105
 5776TIP3    H217335   4.576   2.896   3.705 -0.2530  0.1767 -1.1838
 5777TIP3   OH217336   1.079   0.897   3.877  0.5384  0.2639 -0.4724
 5777TIP3    H117337   1.039   0.914   3.793  1.6315  0.9327 -0.8814
 5777TIP3    H217338   1.007   0.898   3.940  0.0653  2.8616 -0.9714
 5778TIP3   OH217339   1.894   2.651   1.166  0.2464 -0.1443 -0.3495
 5778TIP3    H117340   1.914   2.668   1.258  1.7526 -0.3959 -0.5940
 5778TIP3    H217341   1.835   2.721   1.140  1.0754  0.8557  0.3943
 5779TIP3   OH217342   5.166   5.173   1.114  0.2867  0.3079  0.5187
 5779TIP3    H117343   5.122   5.114   1.053  1.0657 -0.9437  1.1143
 5779TIP3    H217344   5.213   5.115   1.174  2.4377  1.5343  0.1448
 5780TIP3   OH217345   2.604   2.623   0.143 -0.3734  0.3102 -0.0572
 5780TIP3    H117346   2.575   2.662   0.060  1.0854  2.6869  0.4428
 5780TIP3    H217347   2.531   2.639   0.203 -1.0615 -0.6050 -0.6234
 5781TIP3   OH217348   5.651   3.289   1.251 -0.3548 -0.1702  0.3242
 5781TIP3    H117349   5.715   3.239   1.200 -0.9914 -0.3030 -0.3671
 5781TIP3    H217350   5.700   3.318   1.328  0.3738 -0.7676  0.1068
 5782TIP3   OH217351   4.760   3.950   4.378  0.1758  0.4074 -0.6798
 5782TIP3    H117352   4.844   3.995   4.387  0.2106  0.3231 -0.5832
 5782TIP3    H217353   4.771   3.894   4.301  0.0482  0.7489 -0.9502
 5783TIP3   OH217354   2.387   0.463   0.073 -0.6740 -0.0808 -0.5777
 5783TIP3    H117355   2.356   0.376   0.097 -1.3441 -0.0620 -1.3343
 5783TIP3    H217356   2.471   0.473   0.119 -1.4339 -0.4116  0.9447
 5784TIP3   OH217357   5.866   3.253   5.021  0.4804 -0.2185 -0.0547
 5784TIP3    H117358   5.868   3.345   5.048 -1.0774 -0.0004 -0.6304
 5784TIP3    H217359   5.936   3.212   5.073  0.9012  1.1838  0.5411
 5785TIP3   OH217360   5.790   1.676   1.588  0.8506 -0.1512 -0.0149
 5785TIP3    H117361   5.719   1.727   1.549  0.8606 -2.1087 -2.8734
 5785TIP3    H217362   5.748   1.628   1.660  0.0680  1.1461  0.4215
 5786TIP3   OH217363   1.816   1.330   2.564 -0.3208  0.7423  0.4959
 5786TIP3    H117364   1.871   1.268   2.517 -0.4036  1.0966 -0.0885
 5786TIP3    H217365   1.781   1.387   2.495  1.6430  2.9616  1.1830
 5787TIP3   OH217366   2.420   4.296   3.091 -0.0918  0.2567  0.3054
 5787TIP3    H117367   2.511   4.324   3.099  0.4587 -1.1808 -0.5751
 5787TIP3    H217368   2.412   4.225   3.155  0.1797 -1.3856 -1.4204
 5788TIP3   OH217369   0.982   5.702   0.673  0.3800  0.3028 -0.1173
 5788TIP3    H117370   1.043   5.711   0.600 -0.4483 -0.2709 -0.8936
 5788TIP3    H217371   0.902   5.745   0.643  0.5894  1.6697  1.1536
 5789TIP3   OH217372   2.767   3.295   4.566  0.5543 -0.3054 -0.3248
 5789TIP3    H117373   2.770   3.328   4.656  0.0890  0.1267 -0.4630
 5789TIP3    H217374   2.740   3.203   4.575  1.0191 -0.4144  0.0052
 5790TIP3   OH217375   0.751   3.234   0.972 -0.2274  0.1203  0.6404
 5790TIP3    H117376   0.830   3.239   0.919 -0.9518  1.9417 -0.3680
 5790TIP3    H217377   0.716   3.323   0.972 -1.4644 -0.2998  2.3571
 5791TIP3   OH217378   3.073   3.533   0.476 -0.0933 -0.3314  0.0656
 5791TIP3    H117379   3.085   3.455   0.530  1.9694 -1.0100 -1.2629
 5791TIP3    H217380   3.154   3.541   0.426  0.2838  3.3728  0.9780
 5792TIP3   OH217381   0.362   4.558   4.808  0.1311 -0.0647  0.1382
 5792TIP3    H117382   0.337   4.533   4.897  1.9954  1.5514  1.2094
 5792TIP3    H217383   0.280   4.558   4.759 -0.5638 -4.0347  0.9780
 5793TIP3   OH217384   1.154   5.480   4.674  0.1774  0.0516 -0.0844
 5793TIP3    H117385   1.078   5.522   4.634 -0.0601 -0.7166 -0.4569
 5793TIP3    H217386   1.220   5.479   4.606  0.5463  0.7413  0.2482
 5794TIP3   OH217387   4.896   2.725   1.953  0.7194  0.0475  0.0593
 5794TIP3    H117388   4.838   2.800   1.972  0.0799 -0.1984 -0.8182
 5794TIP3    H217389   4.931   2.700   2.038  1.9282  2.1136  0.2490
 5795TIP3   OH217390   0.212   2.527   4.498  0.4448 -0.1432 -0.2280
 5795TIP3    H117391   0.148   2.597   4.502  0.8436  0.2357 -0.3848
 5795TIP3    H217392   0.175   2.457   4.552  0.1613  0.2789  0.1285
 5796TIP3   OH217393   5.473   4.626   2.326  0.2974  0.3710  0.5075
 5796TIP3    H117394   5.440   4.548   2.370  2.1033 -0.3190  0.7287
 5796TIP3    H217395   5.528   4.592   2.255  2.0083  1.3887  1.2881
 5797TIP3   OH217396   4.909   3.723   2.056 -0.4353 -0.5154 -0.9758
 5797TIP3    H117397   4.980   3.774   2.017 -1.2505 -1.2510 -3.5874
 5797TIP3    H217398   4.948   3.639   2.078  0.0344 -0.0817 -0.0736
 5798TIP3   OH217399   1.094   3.444   4.769 -1.0724  0.4994 -0.0523
 5798TIP3    H117400   1.177   3.403   4.746 -1.9561 -0.5073 -1.5876
 5798TIP3    H217401   1.099   3.531   4.730 -0.6463  0.5342  0.0743
 5799TIP3   OH217402   5.553   3.179   1.930 -0.2657 -0.9156 -0.4748
 5799TIP3    H117403   5.480   3.206   1.874 -0.8342 -1.3918  0.0257
 5799TIP3    H217404   5.618   3.143   1.869  0.0916  0.6394 -1.0525
 5800TIP3   OH217405   6.301   2.173   1.966  0.7522  0.1144 -0.0523
 5800TIP3    H117406   6.235   2.116   1.927 -1.0052  1.5842  0.6481
 5800TIP3    H217407   6.343   2.118   2.033 -1.3888 -0.2148  1.1087
 5801TIP3   OH217408   0.006   4.456   4.076 -0.5132 -0.2104  0.3818
 5801TIP3    H117409  -0.001   4.494   3.988 -3.7686  0.7314  0.9107
 5801TIP3    H217410   0.036   4.528   4.131 -1.5707  0.1251  0.5321
 5802TIP3   OH217411   3.589   5.194   4.773 -0.5058  0.2962  0.4215
 5802TIP3    H117412   3.619   5.164   4.688 -2.1810  2.1725 -0.9300
 5802TIP3    H217413   3.528   5.126   4.803 -0.1410 -0.2282 -0.0290
 5803TIP3   OH217414   5.195   3.736   3.133 -0.1350 -0.0774 -0.0736
 5803TIP3    H117415   5.264   3.692   3.182  0.4781  1.5589  0.5882
 5803TIP3    H217416   5.136   3.771   3.200 -0.3871  0.4564 -0.5661
 5804TIP3   OH217417   3.102   3.395   3.178 -0.0308  0.3615 -0.0589
 5804TIP3    H117418   3.063   3.370   3.262  1.6564  0.7855  0.9081
 5804TIP3    H217419   3.140   3.482   3.195  0.8534  0.1889 -1.0801
 5805TIP3   OH217420   0.207   2.547   4.139  0.0242  0.4712  0.0910
 5805TIP3    H117421   0.278   2.576   4.081 -1.2040 -0.5607 -2.0700
 5805TIP3    H217422   0.250   2.525   4.221  1.9108  1.7639 -0.4986
 5806TIP3   OH217423   1.003   3.057   1.269  0.2504  0.3109 -0.7530
 5806TIP3    H117424   0.974   3.086   1.355 -0.8589 -2.6536 -0.0201
 5806TIP3    H217425   1.098   3.064   1.271  0.4227 -1.5960  1.5365
 5807TIP3   OH217426   3.683   0.786   2.294  0.3803  0.0990 -0.4812
 5807TIP3    H117427   3.722   0.820   2.213  1.1278 -3.9401 -2.0634
 5807TIP3    H217428   3.755   0.784   2.357  0.7059  0.0462 -0.8503
 5808TIP3   OH217429   4.550   1.276   1.279  0.2352  0.2845  0.4320
 5808TIP3    H117430   4.635   1.232   1.275  0.5881  1.0314 -0.4789
 5808TIP3    H217431   4.488   1.210   1.249  0.5684 -0.0640  0.4990
 5809TIP3   OH217432   1.096   0.287   3.578  0.6086  0.1775  0.3329
 5809TIP3    H117433   1.003   0.307   3.590  0.1389 -0.8254 -1.3465
 5809TIP3    H217434   1.097   0.211   3.520  2.4387 -1.0691  1.8703
 5810TIP3   OH217435   1.409   5.715   2.360 -0.0428 -0.3490 -0.7105
 5810TIP3    H117436   1.376   5.805   2.351 -0.6082 -0.3892  0.7382
 5810TIP3    H217437   1.349   5.663   2.306 -2.5043 -0.4135  1.8486
 5811TIP3   OH217438   0.401   3.664   0.235 -0.2255  0.0229 -0.0410
 5811TIP3    H117439   0.342   3.621   0.298  1.3419 -0.6183  1.0707
 5811TIP3    H217440   0.388   3.615   0.154  0.3423 -1.5730  0.7783
 5812TIP3   OH217441   1.027   0.568   2.826 -0.1135 -0.0310  0.2985
 5812TIP3    H117442   1.013   0.627   2.900 -0.5536 -0.7027  0.7687
 5812TIP3    H217443   1.008   0.481   2.862 -0.3219 -0.3650 -0.6059
 5813TIP3   OH217444   0.219   5.023   4.833  0.0074  0.2064  0.1575
 5813TIP3    H117445   0.307   5.005   4.866  1.6957  1.4772 -3.1064
 5813TIP3    H217446   0.213   4.969   4.753 -2.9336 -1.1379  1.1503
 5814TIP3   OH217447   4.565   5.599   0.034  0.2106 -0.7307  0.6400
 5814TIP3    H117448   4.497   5.569  -0.025 -0.4995 -0.4618  1.3074
 5814TIP3    H217449   4.520   5.656   0.096  1.3622  0.9802 -0.0427
 5815TIP3   OH217450   3.661   1.174   3.083  0.2119  0.0474 -0.2650
 5815TIP3    H117451   3.734   1.186   3.022 -0.8796 -1.3889 -1.9592
 5815TIP3    H217452   3.613   1.256   3.079 -0.1040 -0.1820 -1.7504
 5816TIP3   OH217453   3.135   0.477   4.594 -0.2032 -0.0823 -0.5195
 5816TIP3    H117454   3.045   0.498   4.568 -0.4554 -1.1349 -0.5156
 5816TIP3    H217455   3.180   0.562   4.595 -1.5890  0.6893  1.0211
 5817TIP3   OH217456   3.297   5.809   3.485  0.1338  0.6361 -0.3555
 5817TIP3    H117457   3.280   5.804   3.391  0.8622 -0.0640 -0.4606
 5817TIP3    H217458   3.328   5.898   3.499 -1.1132  1.1314 -0.5669
 5818TIP3   OH217459   5.345   0.573   2.045  0.1917 -0.1710 -0.1357
 5818TIP3    H117460   5.338   0.612   2.132 -1.7247  1.0669 -0.7767
 5818TIP3    H217461   5.279   0.503   2.044 -2.6864  2.3108 -1.7112
 5819TIP3   OH217462   0.415   0.787   1.210 -0.0847 -0.4244  0.4089
 5819TIP3    H117463   0.386   0.774   1.120  0.2035  0.7446  0.1284
 5819TIP3    H217464   0.438   0.880   1.214 -0.7349 -0.3101  1.8797
 5820TIP3   OH217465   6.028   2.158   0.656  0.0068  0.0596  0.1558
 5820TIP3    H117466   5.970   2.144   0.581 -0.0947  1.7309 -0.1107
 5820TIP3    H217467   5.969   2.179   0.728  0.2124  0.7832  0.1213
 5821TIP3   OH217468   0.706   0.965   3.076 -0.4299  0.3519 -0.5438
 5821TIP3    H117469   0.685   0.989   2.985  0.4243 -0.8770 -1.0848
 5821TIP3    H217470   0.652   1.024   3.129 -1.5467  0.5607 -1.8482
 5822TIP3   OH217471   0.590   4.132   0.262  0.0185 -0.8590  0.7412
 5822TIP3    H117472   0.656   4.155   0.328  0.8382 -0.3186 -0.2347
 5822TIP3    H217473   0.576   4.213   0.212  1.3285 -1.8245 -1.3658
 5823TIP3   OH217474   1.145   0.634   3.795 -0.2956 -0.2399 -0.1060
 5823TIP3    H117475   1.101   0.713   3.827  1.6388  0.8328  0.0388
 5823TIP3    H217476   1.232   0.664   3.768 -0.1536 -1.9977 -1.8088
 5824TIP3   OH217477   5.527   2.235   2.196 -0.5170  0.0503  0.1103
 5824TIP3    H117478   5.446   2.252   2.243  0.3977 -0.6317  2.0094
 5824TIP3    H217479   5.565   2.322   2.182 -1.4267  0.3590 -0.6084
 5825TIP3   OH217480   3.635   3.035   0.695  0.1459  0.4370 -0.1110
 5825TIP3    H117481   3.704   3.082   0.743 -0.9986  0.4393  1.6322
 5825TIP3    H217482   3.647   2.943   0.719  0.5623  0.1983 -1.1709
 5826TIP3   OH217483   6.055   3.882   3.656  0.8425  0.3993 -0.2261
 5826TIP3    H117484   6.101   3.841   3.583 -1.7455 -0.2591 -1.6132
 5826TIP3    H217485   6.018   3.809   3.706  1.5818  0.8961  1.1267
 5827TIP3   OH217486   4.462   0.689   3.827 -0.0052 -0.4369  0.3609
 5827TIP3    H117487   4.492   0.667   3.738 -1.5736  0.1543 -0.3613
 5827TIP3    H217488   4.392   0.626   3.844 -0.7330  0.3914  0.5410
 5828TIP3   OH217489   1.436   3.952   4.898  0.2452  0.0583  0.1501
 5828TIP3    H117490   1.436   4.044   4.925  1.0725 -0.1553  0.9476
 5828TIP3    H217491   1.386   3.907   4.966  0.0421 -0.1081 -0.1114
 5829TIP3   OH217492   5.824   2.103   4.014  0.0490 -0.1950 -0.0807
 5829TIP3    H117493   5.784   2.017   4.014  0.9611 -0.6592 -1.6194
 5829TIP3    H217494   5.795   2.144   3.932 -0.3827  0.9743  0.6303
 5830TIP3   OH217495   0.333   3.523   2.387 -0.7780 -0.4023  0.1929
 5830TIP3    H117496   0.369   3.468   2.317 -1.5007  1.5504 -1.8391
 5830TIP3    H217497   0.401   3.526   2.454  0.3327 -1.5904 -0.8446
 5831TIP3   OH217498   6.146   0.973   4.318  0.8307 -0.0299  0.2039
 5831TIP3    H117499   6.110   1.028   4.388  0.8391 -0.1738  0.3228
 5831TIP3    H217500   6.234   0.950   4.348  0.0654 -1.8983  1.1918
 5832TIP3   OH217501   5.665   0.655   4.949  0.3607  0.1920  0.4338
 5832TIP3    H117502   5.716   0.647   4.868 -0.8877  2.4057 -0.6888
 5832TIP3    H217503   5.722   0.620   5.017  0.9839 -2.9919 -1.5049
 5833TIP3   OH217504   3.819   3.834   4.527 -0.1480  0.0898 -0.3644
 5833TIP3    H117505   3.807   3.874   4.440 -0.9350  0.0923 -0.2671
 5833TIP3    H217506   3.900   3.871   4.560 -1.2448  2.2616  0.0627
 5834TIP3   OH217507   2.506   3.457   3.167  0.1151 -0.5841  0.5223
 5834TIP3    H117508   2.599   3.436   3.164  0.0192 -1.3189  1.8856
 5834TIP3    H217509   2.473   3.432   3.080  1.5849  1.9402 -0.8788
 5835TIP3   OH217510   3.244   4.626   0.186  0.6287 -0.1226  0.2269
 5835TIP3    H117511   3.196   4.577   0.120  1.3637 -0.9203  0.2662
 5835TIP3    H217512   3.263   4.711   0.145  2.1462 -1.0444 -1.0641
 5836TIP3   OH217513   6.218   4.956   3.340 -0.4733 -0.0199 -0.0282
 5836TIP3    H117514   6.234   4.883   3.399  3.2703 -0.2431 -1.1301
 5836TIP3    H217515   6.180   5.024   3.397  0.3571 -1.1870  2.0372
 5837TIP3   OH217516   5.198   4.943   3.984 -0.0082  0.4444 -0.0017
 5837TIP3    H117517   5.215   4.911   3.895  1.4177 -0.8102  0.6672
 5837TIP3    H217518   5.225   5.034   3.983  0.5595  0.2751 -0.6988
 5838TIP3   OH217519   3.561   3.956   3.361 -0.0015  0.2234  0.0525
 5838TIP3    H117520   3.588   3.939   3.452  0.1950  1.5807  0.2701
 5838TIP3    H217521   3.626   4.018   3.328  0.3266 -0.7792 -1.2597
 5839TIP3   OH217522   3.019   1.833   3.063  0.5393 -0.0453  0.6279
 5839TIP3    H117523   3.037   1.743   3.092  0.1075 -0.7633 -1.2063
 5839TIP3    H217524   3.016   1.884   3.144  1.6178 -1.5296  1.6540
 5840TIP3   OH217525   0.107   5.029   4.183  0.0175  0.1441 -0.2755
 5840TIP3    H117526   0.176   4.997   4.241  0.1846  0.5432 -0.2494
 5840TIP3    H217527   0.132   5.119   4.164 -1.0351  0.6242  0.5399
 5841TIP3   OH217528   6.072   1.112   2.313 -0.3730 -0.3712 -0.6039
 5841TIP3    H117529   6.049   1.024   2.342  0.3929 -0.8617 -1.4307
 5841TIP3    H217530   6.073   1.107   2.218 -0.2483  0.5178 -0.6626
 5842TIP3   OH217531   5.722   1.389   1.709  0.1480  0.8556 -0.0061
 5842TIP3    H117532   5.641   1.431   1.680 -1.0172 -0.9217  0.5227
 5842TIP3    H217533   5.779   1.461   1.735  0.4552  2.4808 -4.3982
 5843TIP3   OH217534   2.240   3.612   4.954  0.0564  0.4059 -0.3616
 5843TIP3    H117535   2.188   3.592   5.032 -0.6931 -0.3711 -1.0430
 5843TIP3    H217536   2.308   3.545   4.953 -0.8804 -0.5696 -1.2113
 5844TIP3   OH217537   1.652   0.452   3.778 -0.0513  0.3597 -0.0095
 5844TIP3    H117538   1.567   0.414   3.799  0.2019 -0.1446  0.1049
 5844TIP3    H217539   1.700   0.450   3.860  0.0528  0.7017 -0.0606
 5845TIP3   OH217540   3.876   2.864   0.206  0.4365  0.1224  0.1866
 5845TIP3    H117541   3.957   2.886   0.160 -0.1521  0.3378 -0.7868
 5845TIP3    H217542   3.854   2.776   0.176 -0.1828  0.4335 -0.3111
 5846TIP3   OH217543   2.424   3.198   3.608  0.1540  0.0065  0.4475
 5846TIP3    H117544   2.407   3.191   3.702  3.4777  0.4183  1.2227
 5846TIP3    H217545   2.519   3.209   3.602  0.5394 -3.2745 -3.1580
 5847TIP3   OH217546   2.487   3.595   4.319  0.5485  0.0602  0.3215
 5847TIP3    H117547   2.424   3.591   4.246  0.3422  0.6409  0.4626
 5847TIP3    H217548   2.493   3.504   4.350 -0.4058  0.0279  0.4605
 5848TIP3   OH217549   3.929   2.224   4.854  0.4714  0.0537 -0.3926
 5848TIP3    H117550   3.884   2.237   4.937 -0.4791 -1.3049 -0.6574
 5848TIP3    H217551   3.940   2.312   4.818 -0.9435  0.5127  0.2400
 5849TIP3   OH217552   1.627   2.745   3.039  0.7114 -0.3141  0.1809
 5849TIP3    H117553   1.550   2.743   2.982  0.9085  0.2587 -0.1093
 5849TIP3    H217554   1.653   2.653   3.047 -1.0416 -0.7624  1.6940
 5850TIP3   OH217555   1.885   3.134   2.876 -0.1296  0.4337  0.5026
 5850TIP3    H117556   1.810   3.139   2.817 -0.2206 -1.8854  0.3044
 5850TIP3    H217557   1.853   3.085   2.952  1.4290 -1.7533 -0.1459
 5851TIP3   OH217558   5.471   3.948   1.235  0.2113 -0.0032  0.0419
 5851TIP3    H117559   5.431   4.034   1.220  1.5424  0.5997 -0.2011
 5851TIP3    H217560   5.566   3.965   1.233  0.5450 -1.6977 -1.4485
 5852TIP3   OH217561   5.034   4.770   3.206  0.0350 -0.1628  0.6551
 5852TIP3    H117562   4.967   4.834   3.183 -0.4027 -1.3794 -1.6996
 5852TIP3    H217563   5.062   4.795   3.294 -0.2526  3.1194 -0.0824
 5853TIP3   OH217564   2.382   2.186   4.129 -0.2056  0.2680 -0.0750
 5853TIP3    H117565   2.293   2.152   4.137  0.4252 -1.5174 -0.1084
 5853TIP3    H217566   2.437   2.116   4.165  1.3393  0.2824 -2.2254
 5854TIP3   OH217567   4.686   1.244   0.988 -0.5867  0.1349  0.0435
 5854TIP3    H117568   4.640   1.162   1.008 -0.5707  0.4368  1.4627
 5854TIP3    H217569   4.733   1.265   1.069  0.7845  0.6716 -0.8451
 5855TIP3   OH217570   6.140   2.166   0.212  0.1077  0.1473 -0.1526
 5855TIP3    H117571   6.045   2.153   0.210 -0.2050  1.4463  2.2453
 5855TIP3    H217572   6.165   2.171   0.119 -1.8581 -1.8797 -0.8903
 5856TIP3   OH217573   2.396   3.391   3.979  0.3468  0.2508  0.5156
 5856TIP3    H117574   2.406   3.316   3.920  1.1401  0.3306  0.5448
 5856TIP3    H217575   2.474   3.389   4.034  0.3677  1.0992  0.5282
 5857TIP3   OH217576   0.462   4.917   2.034  0.1116  0.1930  0.3402
 5857TIP3    H117577   0.485   5.009   2.048 -1.4467  0.3746  2.1820
 5857TIP3    H217578   0.546   4.872   2.027  0.9995  2.0639 -3.8458
 5858TIP3   OH217579   6.297   3.763   2.839 -0.0440  0.4278 -0.4857
 5858TIP3    H117580   6.211   3.759   2.882 -0.7647 -0.7902 -1.9183
 5858TIP3    H217581   6.340   3.682   2.864  0.6303  0.9490  0.0744
 5859TIP3   OH217582   6.019   5.604   3.117 -0.5542 -0.3071 -0.0518
 5859TIP3    H117583   6.031   5.561   3.032  2.3338  0.0722  0.0730
 5859TIP3    H217584   6.062   5.547   3.180  1.0881  1.4170  0.4809
 5860TIP3   OH217585   4.470   3.721   5.138 -0.3268  0.3508 -0.1645
 5860TIP3    H117586   4.481   3.627   5.147 -1.8377  0.2691  1.2456
 5860TIP3    H217587   4.542   3.759   5.187 -0.0652 -0.0628 -0.2225
 5861TIP3   OH217588   5.036   2.720   2.240  0.5811  0.3499 -0.0225
 5861TIP3    H117589   4.970   2.651   2.244 -0.3450  0.9890 -2.5472
 5861TIP3    H217590   5.104   2.691   2.301 -0.0305 -2.5121 -0.5350
 5862TIP3   OH217591   1.327   4.677   3.508 -0.1554 -0.5364 -0.3928
 5862TIP3    H117592   1.318   4.756   3.562 -0.9484 -1.1490  0.3906
 5862TIP3    H217593   1.256   4.685   3.443  0.6531  0.0836 -1.2343
 5863TIP3   OH217594   2.246   4.202   3.822  0.3367 -0.2245  0.8027
 5863TIP3    H117595   2.266   4.213   3.915 -1.3662 -2.3059  1.5026
 5863TIP3    H217596   2.326   4.165   3.785  0.7762 -0.1121  1.5989
 5864TIP3   OH217597   1.163   4.054   3.203 -0.4069  0.4104  0.5942
 5864TIP3    H117598   1.133   3.969   3.233 -1.8443  0.5133 -0.4244
 5864TIP3    H217599   1.223   4.035   3.131 -0.4354  0.2518  0.6125
 5865TIP3   OH217600   2.590   3.444   1.161 -0.3030  0.3507 -0.0077
 5865TIP3    H117601   2.501   3.425   1.133 -0.8244  0.1546  1.6592
 5865TIP3    H217602   2.580   3.511   1.229  0.4419 -2.0566  2.6836
 5866TIP3   OH217603   2.365   1.338   3.107  0.4851 -0.0812 -0.2737
 5866TIP3    H117604   2.330   1.368   3.023 -3.3189 -2.7278  0.0621
 5866TIP3    H217605   2.341   1.406   3.169 -1.1804 -0.2817 -0.6504
 5867TIP3   OH217606   4.656   4.944   3.961 -0.2177  0.2499 -0.3949
 5867TIP3    H117607   4.717   4.885   3.917  0.9988  0.1484  1.3306
 5867TIP3    H217608   4.599   4.887   4.012 -0.4664  0.4496 -0.4485
 5868TIP3   OH217609   4.710   5.455   4.595  0.1585 -0.1948 -0.1901
 5868TIP3    H117610   4.711   5.398   4.671 -0.3059 -0.3484 -0.2942
 5868TIP3    H217611   4.693   5.542   4.631  0.5450 -0.1687 -0.0632
 5869TIP3   OH217612   0.485   3.245   5.063  0.1313 -0.2847 -0.0621
 5869TIP3    H117613   0.430   3.189   5.008  2.4264 -1.7016 -1.0443
 5869TIP3    H217614   0.502   3.193   5.141  1.4532 -0.6058 -0.5371
 5870TIP3   OH217615   5.565   5.591   0.760 -0.2262 -0.1633  0.5487
 5870TIP3    H117616   5.485   5.606   0.811 -0.1904  0.2779  0.4845
 5870TIP3    H217617   5.616   5.671   0.773 -0.9659  0.7213 -1.5474
 5871TIP3   OH217618   1.863   3.381   0.426 -0.3858 -0.4967  0.2498
 5871TIP3    H117619   1.775   3.382   0.463 -0.6664  1.1291 -0.3974
 5871TIP3    H217620   1.888   3.473   0.420  1.9240 -0.9288  1.6880
 5872TIP3   OH217621   2.663   4.990   0.564 -0.8337  0.2196  0.4058
 5872TIP3    H117622   2.628   4.975   0.652 -0.9915 -0.4971  0.2344
 5872TIP3    H217623   2.751   4.953   0.566  0.1651  2.4764  0.9813
 5873TIP3   OH217624   0.825   5.342   0.345  0.5360  0.0894  0.0958
 5873TIP3    H117625   0.809   5.382   0.259 -2.1285  0.4397  0.6521
 5873TIP3    H217626   0.843   5.250   0.326  0.7991  0.3332 -0.8852
 5874TIP3   OH217627   5.028   4.907   5.058  0.0746 -0.4543 -0.1333
 5874TIP3    H117628   5.048   4.888   4.966 -1.0341 -0.5173 -0.3834
 5874TIP3    H217629   4.966   4.980   5.054  0.5804  0.0256  0.6071
 5875TIP3   OH217630   6.178   2.751   0.632  0.5394 -0.3829 -0.6644
 5875TIP3    H117631   6.261   2.765   0.678  0.5413  1.2457 -1.0833
 5875TIP3    H217632   6.203   2.750   0.539 -0.0055  1.4390 -0.8787
 5876TIP3   OH217633   0.097   5.128   4.530  0.2081 -0.0890 -0.0383
 5876TIP3    H117634   0.181   5.173   4.521  1.0913 -1.6781  0.0404
 5876TIP3    H217635   0.105   5.050   4.476 -1.0336 -0.5355  0.3915
 5877TIP3   OH217636   3.014   2.242   0.340  0.0264  0.1193 -0.0360
 5877TIP3    H117637   3.087   2.302   0.352  0.4403 -0.4395  0.3164
 5877TIP3    H217638   2.936   2.297   0.347  0.4164  0.8205 -1.0203
 5878TIP3   OH217639   5.574   0.899   1.313  0.7304 -0.8117 -0.6466
 5878TIP3    H117640   5.507   0.935   1.256  0.4935  0.8893  0.6187
 5878TIP3    H217641   5.645   0.964   1.310  1.6464 -1.7907 -0.7197
 5879TIP3   OH217642   2.158   0.772   4.659 -0.5083 -0.0476 -0.2593
 5879TIP3    H117643   2.224   0.766   4.590  1.2090 -0.2228  1.3081
 5879TIP3    H217644   2.129   0.681   4.672 -0.0057 -0.1716  0.0053
 5880TIP3   OH217645   5.366   1.732   0.103 -0.4800  0.1061  0.6813
 5880TIP3    H117646   5.280   1.721   0.063  1.1236 -0.7469 -2.9867
 5880TIP3    H217647   5.408   1.647   0.094  1.6469  1.1689 -0.2236
 5881TIP3   OH217648   5.803   4.791   4.681  0.2876 -0.5427  0.2822
 5881TIP3    H117649   5.890   4.754   4.668  0.6322  0.2094  0.3841
 5881TIP3    H217650   5.814   4.853   4.753  0.2052  1.2392 -1.1549
 5882TIP3   OH217651   0.589   5.744   3.224  0.5367 -0.4766 -0.1122
 5882TIP3    H117652   0.564   5.829   3.188 -1.8387 -0.4926  1.2792
 5882TIP3    H217653   0.511   5.690   3.216  0.5702 -1.1534  2.8475
 5883TIP3   OH217654   6.144   2.159   4.481  0.6950  0.7331 -0.1109
 5883TIP3    H117655   6.088   2.087   4.450  1.6635  0.1101 -0.4518
 5883TIP3    H217656   6.146   2.220   4.407 -0.0588  1.0888  0.1475
 5884TIP3   OH217657   0.894   4.004   3.074 -0.4150  0.0233 -0.5172
 5884TIP3    H117658   0.869   3.913   3.089  0.3422 -0.0344  0.4718
 5884TIP3    H217659   0.889   4.045   3.161  2.3923  0.1202 -0.3334
 5885TIP3   OH217660   3.027   3.255   0.642  0.0615  0.1584  0.1217
 5885TIP3    H117661   3.121   3.245   0.627  0.3886  0.3375  1.8676
 5885TIP3    H217662   3.018   3.264   0.737 -1.9091 -2.1704  0.2611
 5886TIP3   OH217663   0.633   1.249   2.161 -0.6609 -0.4469 -0.2521
 5886TIP3    H117664   0.555   1.266   2.213 -0.0418 -0.9756  0.8920
 5886TIP3    H217665   0.687   1.194   2.217  0.0034 -1.0984 -1.4978
 5887TIP3   OH217666   5.617   5.103   5.022 -0.0985  0.0717  0.0669
 5887TIP3    H117667   5.650   5.065   5.104  1.3872  0.6492 -0.2331
 5887TIP3    H217668   5.541   5.154   5.049  0.7333  0.7651  1.2197
 5888TIP3   OH217669   4.647   0.171   2.735 -0.1167 -0.4527  0.4030
 5888TIP3    H117670   4.667   0.160   2.642  0.4505 -0.4669  0.5233
 5888TIP3    H217671   4.701   0.106   2.780 -0.3709 -0.4331  0.7461
 5889TIP3   OH217672   2.217   2.183   2.551  0.0846  0.8642  0.5384
 5889TIP3    H117673   2.140   2.187   2.607 -1.2710 -0.9770 -1.0610
 5889TIP3    H217674   2.210   2.098   2.506  3.6852  0.0501  1.1903
 5890TIP3   OH217675   2.674   2.378   2.245 -0.2997 -0.6216  0.2191
 5890TIP3    H117676   2.760   2.410   2.217  1.1308 -1.9139  2.8195
 5890TIP3    H217677   2.635   2.452   2.292  1.1923 -1.2022  2.5248
 5891TIP3   OH217678   1.714   4.139   3.555  0.2056  0.1409 -0.1320
 5891TIP3    H117679   1.764   4.150   3.474  0.8267  0.5773  0.2983
 5891TIP3    H217680   1.641   4.200   3.548  0.4494  0.4230 -0.2207
 5892TIP3   OH217681   5.073   4.182   1.501 -0.7356  0.3452 -0.1529
 5892TIP3    H117682   5.083   4.161   1.408 -1.7208  0.6133 -0.3294
 5892TIP3    H217683   5.135   4.253   1.516 -0.7032  0.4248 -0.6485
 5893TIP3   OH217684   6.308   0.083   3.183  0.1788  0.5062 -0.1419
 5893TIP3    H117685   6.353   0.089   3.098 -1.8949  1.2259 -1.2547
 5893TIP3    H217686   6.338   0.160   3.231  1.2032  0.2145 -0.2812
 5894TIP3   OH217687   4.432   4.250   2.362  0.3232  0.6761  0.4222
 5894TIP3    H117688   4.352   4.222   2.408  0.3057 -0.2887 -0.1553
 5894TIP3    H217689   4.400   4.284   2.279  0.5892 -2.1021 -0.9538
 5895TIP3   OH217690   3.602   1.937   1.487 -0.5833 -0.2162 -0.0914
 5895TIP3    H117691   3.655   1.857   1.488 -2.3839 -1.4905 -1.3880
 5895TIP3    H217692   3.665   2.006   1.464  0.8753 -1.3506  0.2988
 5896TIP3   OH217693   3.110   5.906   1.438 -0.1300  0.2099 -0.4391
 5896TIP3    H117694   3.167   5.976   1.405  0.2435  0.5823  0.9217
 5896TIP3    H217695   3.021   5.942   1.431 -0.3607 -0.7001 -3.3839
 5897TIP3   OH217696   3.526   2.013   0.944 -0.2475  0.2329 -0.5546
 5897TIP3    H117697   3.606   2.023   0.893  0.3741 -0.3916  0.2613
 5897TIP3    H217698   3.465   1.969   0.885  0.5225 -0.6558 -0.7087
 5898TIP3   OH217699   5.858   4.976   2.978  0.0333 -0.3422 -0.3501
 5898TIP3    H117700   5.868   4.888   2.942  3.4408 -0.0943 -0.3630
 5898TIP3    H217701   5.773   4.974   3.022 -0.9320 -2.9529 -2.0441
 5899TIP3   OH217702   3.458   0.965   3.154  0.1964 -0.2138 -0.1514
 5899TIP3    H117703   3.404   0.952   3.077 -1.4251  0.6660  0.7704
 5899TIP3    H217704   3.521   1.033   3.128 -0.3141  0.0536 -0.7168
 5900TIP3   OH217705   1.830   5.279   4.245  0.1769 -0.1746  0.1776
 5900TIP3    H117706   1.912   5.310   4.206 -1.4769  3.0884 -1.1027
 5900TIP3    H217707   1.803   5.350   4.303 -3.0395  0.2020 -1.5681
 5901TIP3   OH217708   3.819   2.275   5.101 -0.3495 -0.3542 -0.3460
 5901TIP3    H117709   3.729   2.275   5.069 -0.4109 -0.8869 -0.1955
 5901TIP3    H217710   3.814   2.232   5.187  0.1995 -1.4680 -0.8432
 5902TIP3   OH217711   0.803   1.696   3.316  0.0327  0.0390 -0.4469
 5902TIP3    H117712   0.781   1.645   3.237  0.1035 -1.8015  0.6549
 5902TIP3    H217713   0.821   1.629   3.382  0.7763  1.5442  0.9164
 5903TIP3   OH217714   4.309   0.163   3.713 -0.5956 -0.0016  0.7234
 5903TIP3    H117715   4.238   0.119   3.666 -0.6206  0.2706  0.5062
 5903TIP3    H217716   4.311   0.252   3.677  1.3404 -0.6354 -0.9201
 5904TIP3   OH217717   0.230   4.181   2.674 -0.0773 -0.2828  0.0560
 5904TIP3    H117718   0.153   4.237   2.673 -0.1284 -0.3303 -1.7064
 5904TIP3    H217719   0.241   4.153   2.583  0.4269 -2.4635  0.7127
 5905TIP3   OH217720   6.057   0.271   3.977 -0.8569  0.0886  0.1003
 5905TIP3    H117721   6.018   0.184   3.988  1.5701 -1.7358 -3.7008
 5905TIP3    H217722   5.984   0.326   3.948 -1.6845 -1.8679 -1.7675
 5906TIP3   OH217723   4.010   4.149   1.035  0.2624  0.0381  0.5964
 5906TIP3    H117724   4.001   4.089   0.961 -0.2799  1.2515 -0.3488
 5906TIP3    H217725   4.086   4.117   1.083  2.0409  0.5007 -1.7384
 5907TIP3   OH217726   1.444   1.718   0.417 -0.2990  0.5421  0.1439
 5907TIP3    H117727   1.363   1.721   0.467 -0.7183 -0.3426 -0.4685
 5907TIP3    H217728   1.417   1.705   0.327  0.5383 -0.0546 -0.0332
 5908TIP3   OH217729   3.186   5.716   2.183 -0.2458  0.0170  0.2114
 5908TIP3    H117730   3.231   5.780   2.128  0.3410 -1.3553 -0.9622
 5908TIP3    H217731   3.100   5.755   2.200 -0.2372  0.7424 -1.2267
 5909TIP3   OH217732   4.300   1.689   2.342 -0.0554 -0.2218 -0.1052
 5909TIP3    H117733   4.388   1.695   2.306  0.0944 -0.6170  0.2011
 5909TIP3    H217734   4.309   1.715   2.433 -0.1900 -0.6577  0.0319
 5910TIP3   OH217735   5.753   1.564   4.086 -0.8597  0.0118  0.0432
 5910TIP3    H117736   5.775   1.491   4.144 -1.1247 -0.2972 -0.2490
 5910TIP3    H217737   5.664   1.546   4.055 -0.8893  0.4020 -0.1150
 5911TIP3   OH217738   3.724   3.698   4.133 -0.0205 -0.4003  0.4234
 5911TIP3    H117739   3.752   3.787   4.157  0.9930 -0.6621  0.2587
 5911TIP3    H217740   3.737   3.647   4.214  0.7866 -0.6983  0.1164
 5912TIP3   OH217741   1.845   3.673   0.504 -0.1691  0.3238  0.5585
 5912TIP3    H117742   1.915   3.736   0.520  0.1222  1.3227 -3.4849
 5912TIP3    H217743   1.766   3.727   0.492 -0.7553 -0.4333  0.9313
 5913TIP3   OH217744   4.922   1.281   0.875 -0.2763 -0.1267 -0.1216
 5913TIP3    H117745   4.828   1.264   0.884 -0.3996  0.9462  0.8384
 5913TIP3    H217746   4.961   1.230   0.946 -0.1615 -0.3225 -0.3253
 5914TIP3   OH217747   4.154   0.041   0.129 -0.2393 -0.1344  0.0543
 5914TIP3    H117748   4.123  -0.048   0.111 -0.4610  0.1272 -0.9245
 5914TIP3    H217749   4.090   0.077   0.191 -0.3489 -0.5410  0.1774
 5915TIP3   OH217750   1.191   1.545   0.876 -0.1765 -0.0095  0.1267
 5915TIP3    H117751   1.156   1.630   0.904  0.4037  0.2452  0.1142
 5915TIP3    H217752   1.273   1.567   0.831  0.8906 -0.6720  1.6359
 5916TIP3   OH217753   3.792   0.009   1.496  0.1949 -0.1329 -0.0831
 5916TIP3    H117754   3.877   0.035   1.460 -0.8335  1.4046 -1.4940
 5916TIP3    H217755   3.796   0.038   1.587  1.2988 -0.3742 -0.0343
 5917TIP3   OH217756   4.099   1.708   5.010  0.6818  1.2095 -0.1225
 5917TIP3    H117757   4.035   1.706   5.082 -0.6124  0.8271 -1.2447
 5917TIP3    H217758   4.072   1.637   4.952  1.5295  1.6927 -1.1397
 5918TIP3   OH217759   1.183   3.382   2.726  0.6283 -0.1425  0.0103
 5918TIP3    H117760   1.176   3.477   2.725  1.0128 -0.0944  1.0328
 5918TIP3    H217761   1.149   3.356   2.812 -1.2830 -1.0905 -0.9633
 5919TIP3   OH217762   5.491   0.634   3.672 -0.1095  0.1447  0.0094
 5919TIP3    H117763   5.507   0.557   3.726  0.6512  0.0735 -0.3021
 5919TIP3    H217764   5.532   0.706   3.720  0.2147  0.1492 -0.2671
 5920TIP3   OH217765   1.606   0.329   0.083  0.0436  0.0471  0.3045
 5920TIP3    H117766   1.649   0.391   0.143  0.5447  3.0550 -2.8366
 5920TIP3    H217767   1.513   0.342   0.098  0.1588  0.9520  0.2945
 5921TIP3   OH217768   4.065   3.976   1.491  0.1734 -0.2090 -0.2439
 5921TIP3    H117769   4.131   3.909   1.474 -1.2780 -1.7108 -0.2701
 5921TIP3    H217770   3.984   3.939   1.455 -0.4588  2.1157 -1.3595
 5922TIP3   OH217771   1.801   2.400   2.735  0.1406 -0.0477 -0.2825
 5922TIP3    H117772   1.773   2.312   2.708  1.4331 -0.9680  1.1897
 5922TIP3    H217773   1.896   2.399   2.726  0.2501  0.9052  0.5968
 5923TIP3   OH217774   4.813   0.032   0.125 -0.3953  0.2935  0.2549
 5923TIP3    H117775   4.769   0.003   0.205 -0.7438  1.3359  0.4633
 5923TIP3    H217776   4.906   0.024   0.145 -0.4773  0.5899  0.8019
 5924TIP3   OH217777   5.404   1.181   0.869 -0.2267  0.0932  0.2063
 5924TIP3    H117778   5.494   1.199   0.840 -0.5410  1.0355 -0.2228
 5924TIP3    H217779   5.361   1.267   0.869 -1.2204 -0.3903  0.1036
 5925TIP3   OH217780   4.544   0.162   3.382 -0.2112 -0.5793 -0.7890
 5925TIP3    H117781   4.451   0.158   3.363 -0.6749  0.9192  0.8815
 5925TIP3    H217782   4.565   0.075   3.417 -0.2489 -1.9279 -3.8406
 5926TIP3   OH217783   3.769   1.034   3.302 -0.7452 -0.2502  0.6046
 5926TIP3    H117784   3.858   1.065   3.286 -0.1395 -2.0485  0.2288
 5926TIP3    H217785   3.717   1.073   3.231 -0.0917  0.1836  0.3607
 5927TIP3   OH217786   1.163   4.601   3.274 -0.5908  0.2786  0.0549
 5927TIP3    H117787   1.249   4.562   3.257 -0.5003  0.5310 -0.0736
 5927TIP3    H217788   1.120   4.601   3.189 -1.0882 -0.7176  0.2871
 5928TIP3   OH217789   5.015   0.453   2.011 -0.2386 -0.0021 -0.0540
 5928TIP3    H117790   4.942   0.515   2.021 -0.4827 -0.2295 -0.3927
 5928TIP3    H217791   5.050   0.442   2.099 -1.2369 -0.6512  0.2779
 5929TIP3   OH217792   5.132   2.586   3.889  1.0308 -0.0140 -0.1876
 5929TIP3    H117793   5.136   2.539   3.805  1.1678 -1.4562  0.5999
 5929TIP3    H217794   5.193   2.539   3.946 -0.9794 -0.7219  1.5085
 5930TIP3   OH217795   4.979   0.031   1.449 -0.8902 -0.1821  0.3144
 5930TIP3    H117796   4.950   0.093   1.517  0.8308  3.3694 -1.8991
 5930TIP3    H217797   4.898  -0.002   1.410 -1.9354  1.7528  0.7335
 5931TIP3   OH217798   4.461   2.045   0.512  0.1883 -0.6215 -0.1895
 5931TIP3    H117799   4.418   2.130   0.518 -1.0872 -1.1107 -1.5639
 5931TIP3    H217800   4.552   2.061   0.537 -0.3229  0.8647  0.8496
 5932TIP3   OH217801   0.639   3.157   4.685 -0.5693  0.5900 -0.1329
 5932TIP3    H117802   0.624   3.147   4.591  0.3695 -1.2377 -0.1169
 5932TIP3    H217803   0.665   3.248   4.695  0.6275  0.4775 -1.8326
 5933TIP3   OH217804   3.427   2.352   1.265 -0.4836 -0.3890  0.1288
 5933TIP3    H117805   3.348   2.348   1.319 -0.6322 -0.0333 -0.0618
 5933TIP3    H217806   3.436   2.265   1.228  0.2063 -0.9734  1.5603
 5934TIP3   OH217807   5.541   4.205   4.511  0.7263  0.3094  0.0194
 5934TIP3    H117808   5.469   4.223   4.571  0.2987  1.7964 -0.9141
 5934TIP3    H217809   5.517   4.122   4.469  0.8408 -0.5475  1.5713
 5935TIP3   OH217810   0.160   2.172   0.273 -0.3238 -0.0582 -0.1296
 5935TIP3    H117811   0.096   2.200   0.338 -1.6625 -1.3325 -0.8158
 5935TIP3    H217812   0.243   2.165   0.321 -0.1778  3.4521  0.3917
 5936TIP3   OH217813   6.217   1.321   3.421  0.1942  0.5102  0.2879
 5936TIP3    H117814   6.243   1.394   3.478  0.4608  0.7676 -0.1612
 5936TIP3    H217815   6.147   1.277   3.470  0.0743  1.0267  0.5974
 5937TIP3   OH217816   5.865   2.360   2.704  0.0265 -0.4029  0.0714
 5937TIP3    H117817   5.836   2.429   2.644 -1.1238 -1.4467 -0.6100
 5937TIP3    H217818   5.900   2.292   2.646 -0.4592 -1.1264  0.6271
 5938TIP3   OH217819   0.222   4.156   2.410  0.2753  0.4260 -0.0531
 5938TIP3    H117820   0.165   4.229   2.384  1.9521  1.0789 -2.1696
 5938TIP3    H217821   0.204   4.088   2.345  0.1081 -0.3368  0.7754
 5939TIP3   OH217822   4.735   2.361   3.311  0.4500 -0.1414 -1.0513
 5939TIP3    H117823   4.692   2.361   3.397  1.2161 -1.6279 -0.6215
 5939TIP3    H217824   4.825   2.387   3.329  0.3626  0.5576 -1.5765
 5940TIP3   OH217825   0.713   4.656   1.824 -0.6344 -0.2346  0.0982
 5940TIP3    H117826   0.633   4.698   1.793 -1.3130 -1.3794  0.2245
 5940TIP3    H217827   0.725   4.690   1.912 -1.6238 -0.8728  0.5029
 5941TIP3   OH217828   2.494   3.836   0.418  0.2009  0.0447  0.2217
 5941TIP3    H117829   2.400   3.844   0.435  0.4520  0.7593  1.3510
 5941TIP3    H217830   2.536   3.863   0.499  1.3750 -2.1909  0.4493
 5942TIP3   OH217831   5.807   4.934   0.655 -0.6117  0.2348  0.2306
 5942TIP3    H117832   5.716   4.911   0.668 -0.3160 -0.6499  0.7795
 5942TIP3    H217833   5.818   5.016   0.703 -0.6390 -0.6758  1.8431
 5943TIP3   OH217834   3.056   1.268   4.826  0.6147 -0.0830 -0.0290
 5943TIP3    H117835   2.997   1.286   4.753  0.0832  2.9344  1.0030
 5943TIP3    H217836   3.003   1.214   4.885 -0.0335  0.0072 -0.5080
 5944TIP3   OH217837   3.151   3.506   4.659  0.6900  0.2071 -0.7278
 5944TIP3    H117838   3.226   3.526   4.714  0.0874  2.1576 -0.5525
 5944TIP3    H217839   3.076   3.538   4.708 -0.3083 -1.7856 -0.8597
 5945TIP3   OH217840   1.506   1.018   3.696  0.3889  0.2885 -0.3664
 5945TIP3    H117841   1.426   0.977   3.664 -1.5006  2.6937  0.9846
 5945TIP3    H217842   1.513   1.100   3.647  1.6288  0.4533  0.0539
 5946TIP3   OH217843   0.139   5.495   0.678 -0.2384 -0.2525 -0.0919
 5946TIP3    H117844   0.221   5.488   0.630 -0.8296  1.6889 -1.5493
 5946TIP3    H217845   0.164   5.495   0.770  1.3814  0.1445 -0.5003
 5947TIP3   OH217846   3.368   4.342   2.292 -0.0887 -0.0723 -0.1044
 5947TIP3    H117847   3.360   4.426   2.248 -0.0829  0.9237  1.6850
 5947TIP3    H217848   3.290   4.293   2.265  0.7086 -0.1585 -2.4225
 5948TIP3   OH217849   2.827   2.587   4.426 -0.2794  0.0203 -0.1737
 5948TIP3    H117850   2.782   2.667   4.397 -0.4225  0.3504  0.9164
 5948TIP3    H217851   2.834   2.534   4.347 -1.1767  0.6394 -0.6938
 5949TIP3   OH217852   5.829   4.660   2.974  0.6352  0.1566  0.0114
 5949TIP3    H117853   5.777   4.650   2.894  0.4409 -0.3227  0.1950
 5949TIP3    H217854   5.772   4.709   3.033  0.2408 -0.6959  0.3465
 5950TIP3   OH217855   5.569   0.305   1.228  0.3913 -0.5989 -0.0768
 5950TIP3    H117856   5.611   0.370   1.284  1.7620 -2.4383  1.1686
 5950TIP3    H217857   5.497   0.271   1.282 -1.4271  0.9722 -1.3613
 5951TIP3   OH217858   4.569   2.033   1.810  0.2746 -0.2089  0.0555
 5951TIP3    H117859   4.568   2.005   1.719  0.4182  0.6493 -0.2229
 5951TIP3    H217860   4.662   2.032   1.834  0.4515  1.4588 -0.4375
 5952TIP3   OH217861   0.056   3.470   5.028 -0.1736  0.3216 -0.2219
 5952TIP3    H117862   0.139   3.495   5.069  0.5293 -2.4250  0.2381
 5952TIP3    H217863  -0.007   3.469   5.099 -0.4091  1.5316 -0.4023
 5953TIP3   OH217864   4.241   2.787   1.475 -0.4613  0.8787 -0.5877
 5953TIP3    H117865   4.217   2.724   1.407 -0.4280 -0.9107  0.9827
 5953TIP3    H217866   4.162   2.796   1.528 -0.9434  3.3311 -1.5611
 5954TIP3   OH217867   4.455   0.777   4.550  0.2711  0.0360 -0.4246
 5954TIP3    H117868   4.463   0.827   4.469  1.9431  0.1326 -0.2387
 5954TIP3    H217869   4.440   0.687   4.520 -1.7260  0.4420 -0.7692
 5955TIP3   OH217870   3.777   4.174   5.001 -0.3363 -0.3831 -0.1874
 5955TIP3    H117871   3.872   4.178   5.012 -0.1935 -0.7097 -1.2565
 5955TIP3    H217872   3.756   4.249   4.944 -0.3609 -1.8419 -2.1978
 5956TIP3   OH217873   3.523   3.732   2.330 -0.6397 -0.0079  0.6364
 5956TIP3    H117874   3.614   3.722   2.355 -0.5815  0.2323  0.5311
 5956TIP3    H217875   3.474   3.674   2.389 -0.4236 -0.1090  0.7153
 5957TIP3   OH217876   5.166   5.651   4.475  0.0148 -0.0719 -0.1465
 5957TIP3    H117877   5.205   5.698   4.401 -0.6702  0.5663 -0.1061
 5957TIP3    H217878   5.076   5.635   4.448 -0.2919  0.3415  0.6372
 5958TIP3   OH217879   4.319   3.445   0.364 -0.3866  0.4138  0.0293
 5958TIP3    H117880   4.323   3.516   0.300 -2.0216  0.7708  0.2835
 5958TIP3    H217881   4.261   3.478   0.433  0.2607 -0.4793  1.0441
 5959TIP3   OH217882   3.485   5.232   0.741  0.0282  0.6948  0.0314
 5959TIP3    H117883   3.428   5.309   0.738 -0.3344  0.4288  0.0225
 5959TIP3    H217884   3.457   5.186   0.820 -0.4638  0.0321 -0.5166
 5960TIP3   OH217885   1.976   3.169   1.283 -0.4342  0.0963  0.1009
 5960TIP3    H117886   1.971   3.263   1.270  4.8816  0.4524 -1.9281
 5960TIP3    H217887   1.989   3.133   1.196  0.6627 -2.1062  1.0898
 5961TIP3   OH217888   4.104   1.913   0.958  0.0835  0.0212 -0.6686
 5961TIP3    H117889   4.114   1.824   0.992 -0.2035  0.7406  1.4260
 5961TIP3    H217890   4.023   1.945   0.997  0.8985  1.6768 -0.2504
 5962TIP3   OH217891   0.535   2.116   1.735  0.2421  0.1667 -0.1586
 5962TIP3    H117892   0.548   2.207   1.762  2.4634 -0.1747  0.0512
 5962TIP3    H217893   0.577   2.064   1.803 -4.6392 -1.3952  2.1462
 5963TIP3   OH217894   2.833   1.919   3.849 -0.1566  0.0491 -0.4000
 5963TIP3    H117895   2.885   1.917   3.929 -1.5891  0.2573  0.5643
 5963TIP3    H217896   2.743   1.934   3.879 -0.6935  0.3215 -2.0579
 5964TIP3   OH217897   4.511   2.790   3.005 -0.2866  0.0677 -0.0671
 5964TIP3    H117898   4.496   2.780   2.911 -0.5893 -1.6933  0.1435
 5964TIP3    H217899   4.426   2.819   3.040 -0.6511 -0.8797 -0.1327
 5965TIP3   OH217900   3.631   3.491   2.894  0.2704 -0.1846  0.1973
 5965TIP3    H117901   3.633   3.585   2.912 -0.0160 -0.0320 -0.5517
 5965TIP3    H217902   3.722   3.467   2.878  0.2198  0.1770 -0.6597
 5966TIP3   OH217903   1.054   1.045   0.554 -0.1287  0.0336 -0.5983
 5966TIP3    H117904   1.084   1.116   0.610  0.7852 -1.8560  1.4793
 5966TIP3    H217905   0.977   1.010   0.597  0.3306 -1.1925 -0.7142
 5967TIP3   OH217906   5.308   2.648   4.199 -0.5342  0.2579  0.3033
 5967TIP3    H117907   5.348   2.644   4.113  1.2591 -0.1926  1.1170
 5967TIP3    H217908   5.232   2.590   4.193  0.5764 -1.1903 -0.4846
 5968TIP3   OH217909   3.730   2.327   2.904 -0.0800 -0.5389 -0.0500
 5968TIP3    H117910   3.648   2.352   2.946  0.9268  0.9400  1.1869
 5968TIP3    H217911   3.717   2.347   2.812 -1.4824 -1.4198 -0.0687
 5969TIP3   OH217912   0.601   0.154   0.047 -0.1816 -0.1105 -0.5851
 5969TIP3    H117913   0.610   0.061   0.065  0.4099  0.2543  1.2476
 5969TIP3    H217914   0.543   0.186   0.115  1.7354  1.2924  0.4981
 5970TIP3   OH217915   4.325   1.545   4.769 -0.3260  0.1624 -0.1467
 5970TIP3    H117916   4.311   1.638   4.787  0.2692  0.1093  0.6231
 5970TIP3    H217917   4.239   1.505   4.781 -0.3260  0.4216  0.7690
 5971TIP3   OH217918   2.439   5.155   2.184  0.0793  0.2939 -0.5589
 5971TIP3    H117919   2.495   5.077   2.179 -0.0322  0.1738 -0.0351
 5971TIP3    H217920   2.449   5.198   2.099  2.1954  1.1242  0.0578
 5972TIP3   OH217921   1.901   0.541   5.189 -0.0762 -0.2873  0.0306
 5972TIP3    H117922   1.902   0.525   5.094  0.5688 -1.1209  0.1585
 5972TIP3    H217923   1.869   0.459   5.226 -0.1997 -0.0069  0.5404
 5973TIP3   OH217924   1.152   4.934   2.319 -0.5383  0.0773 -0.2534
 5973TIP3    H117925   1.122   4.871   2.383 -0.6044 -0.0760 -0.4341
 5973TIP3    H217926   1.201   4.882   2.255 -0.1131  0.2863 -0.1051
 5974TIP3   OH217927   4.670   4.505   3.517 -0.2174  0.1387  0.0910
 5974TIP3    H117928   4.719   4.461   3.586 -0.2027 -0.2765 -0.1826
 5974TIP3    H217929   4.677   4.598   3.539 -0.3188  0.0069  0.7177
 5975TIP3   OH217930   3.294   2.719   0.336  0.2463 -0.1242 -0.0774
 5975TIP3    H117931   3.356   2.782   0.371  0.1489  0.3855 -0.7922
 5975TIP3    H217932   3.329   2.696   0.250 -1.3635  1.4532 -1.2362
 5976TIP3   OH217933   0.698   3.378   4.899  0.0915 -0.1741  0.0579
 5976TIP3    H117934   0.617   3.338   4.930  0.8815 -1.3285  0.7133
 5976TIP3    H217935   0.671   3.432   4.825 -1.1224 -1.4622 -0.4942
 5977TIP3   OH217936   3.865   5.816   1.557 -0.0319  0.3267  0.8305
 5977TIP3    H117937   3.920   5.874   1.611  1.5804 -0.7958  0.4755
 5977TIP3    H217938   3.882   5.844   1.467 -0.8781  0.6619  0.7737
 5978TIP3   OH217939   5.128   0.390   4.042 -0.1586  0.1190 -0.0954
 5978TIP3    H117940   5.041   0.400   4.004 -0.0948  0.2825 -0.2030
 5978TIP3    H217941   5.178   0.343   3.975  0.6891  2.6247 -1.3894
 5979TIP3   OH217942   0.920   4.620   4.321  0.0379 -0.4340  0.6472
 5979TIP3    H117943   0.913   4.626   4.416 -0.8146  1.2233  0.5020
 5979TIP3    H217944   0.900   4.528   4.302 -0.5545 -0.6111  1.9921
 5980TIP3   OH217945   0.798   2.178   2.691  0.2725  0.5271  0.4529
 5980TIP3    H117946   0.799   2.271   2.672 -1.2168  0.7055  1.0891
 5980TIP3    H217947   0.722   2.144   2.643  1.7039 -0.6892 -1.0754
 5981TIP3   OH217948   1.375   0.046   2.942  0.2050 -0.0065 -0.4191
 5981TIP3    H117949   1.394   0.005   3.026 -0.1862  0.7764  0.0703
 5981TIP3    H217950   1.283   0.072   2.948  0.9842  3.0947  0.3064
 5982TIP3   OH217951   0.017   1.549   2.568 -0.0221 -0.0175  0.5303
 5982TIP3    H117952   0.098   1.500   2.562 -0.4304 -0.7895  1.2101
 5982TIP3    H217953   0.036   1.632   2.524  0.6906 -0.7486 -0.6088
 5983TIP3   OH217954   1.858   4.801   0.088 -0.1606 -0.3223  0.5054
 5983TIP3    H117955   1.903   4.718   0.072 -0.3420 -0.9446  2.8637
 5983TIP3    H217956   1.923   4.867   0.065  0.2480 -1.0964 -0.7122
 5984TIP3   OH217957   2.467   5.755   4.744  0.0558 -0.0993  0.0095
 5984TIP3    H117958   2.412   5.705   4.683  0.7708 -0.5079 -0.3057
 5984TIP3    H217959   2.404   5.799   4.801 -0.6477  0.8425 -1.4474
 5985TIP3   OH217960   0.977   0.808   0.339 -0.1087 -0.5571 -0.1315
 5985TIP3    H117961   1.065   0.779   0.362 -0.4760 -1.4904  0.1412
 5985TIP3    H217962   0.979   0.903   0.350  1.0854 -0.4730 -0.9027
 5986TIP3   OH217963   3.968   2.706   3.026  0.3485 -0.3341 -0.0788
 5986TIP3    H117964   3.969   2.779   3.088  1.8039 -0.5736  0.2108
 5986TIP3    H217965   3.939   2.745   2.944 -1.7238 -0.0356  0.7286
 5987TIP3   OH217966   0.770   2.862   1.268  0.2874 -0.0923 -0.2026
 5987TIP3    H117967   0.765   2.957   1.269 -1.9189 -0.1341 -1.0197
 5987TIP3    H217968   0.747   2.836   1.357 -1.2005  0.1330 -0.4955
 5988TIP3   OH217969   0.101   5.788   4.627 -0.0603  0.2220 -0.1193
 5988TIP3    H117970   0.058   5.873   4.636  0.6664  0.3527  3.8794
 5988TIP3    H217971   0.031   5.724   4.639 -0.3767  0.2137 -1.7767
 5989TIP3   OH217972   5.187   3.330   2.397 -0.6447  0.3262 -0.8510
 5989TIP3    H117973   5.187   3.299   2.306 -1.6097 -0.9223 -0.4600
 5989TIP3    H217974   5.280   3.338   2.419 -0.2004 -3.3881 -0.7100
 5990TIP3   OH217975   2.918   1.951   0.169 -0.0953 -0.3753 -0.4137
 5990TIP3    H117976   2.937   2.040   0.199  0.4088 -1.0401  1.3236
 5990TIP3    H217977   2.934   1.955   0.074  3.1869  0.6087  0.0302
 5991TIP3   OH217978   5.935   1.874   4.744  0.1418  1.1933 -0.0878
 5991TIP3    H117979   5.932   1.881   4.840 -0.4677 -0.9873  0.1148
 5991TIP3    H217980   5.912   1.961   4.713 -0.0068  1.8640  1.7471
 5992TIP3   OH217981   5.598   3.255   0.866  0.4376  0.1882 -0.4333
 5992TIP3    H117982   5.517   3.216   0.900  0.6397  0.2281  0.1050
 5992TIP3    H217983   5.587   3.349   0.880  0.0953  0.2988 -1.4173
 5993TIP3   OH217984   5.202   3.632   2.350  0.1207 -0.2031 -0.0901
 5993TIP3    H117985   5.196   3.688   2.272 -0.2332  0.0779  0.1361
 5993TIP3    H217986   5.139   3.561   2.333  0.3727 -0.3906 -0.2560
 5994TIP3   OH217987   1.025   3.672   2.320 -0.0070 -0.0075  0.3548
 5994TIP3    H117988   1.053   3.581   2.328 -1.0270 -0.3304  0.4349
 5994TIP3    H217989   1.051   3.712   2.404  3.9636  0.8555 -1.0525
 5995TIP3   OH217990   4.917   2.712   1.680 -0.1702 -0.3484  0.0545
 5995TIP3    H117991   4.892   2.714   1.773 -1.2570  0.9309 -0.2386
 5995TIP3    H217992   4.980   2.784   1.670 -0.1029 -0.4434 -0.2172
 5996TIP3   OH217993   0.853   3.007   3.215  0.3889 -0.0279 -0.0060
 5996TIP3    H117994   0.878   2.995   3.123  0.7576 -0.2814  0.1244
 5996TIP3    H217995   0.757   3.001   3.214  0.2299  2.0046 -0.6618
 5997TIP3   OH217996   5.098   5.345   4.501 -0.2257  0.4793 -0.0484
 5997TIP3    H117997   5.156   5.414   4.534 -0.9716  0.7470  0.7542
 5997TIP3    H217998   5.077   5.373   4.412 -0.5823  1.3580  0.2911
 5998TIP3   OH217999   4.220   5.369   2.067 -0.4252  0.4006 -0.0612
 5998TIP3    H118000   4.299   5.317   2.082  0.7854  2.4756  1.3013
 5998TIP3    H218001   4.149   5.305   2.063  1.4139 -1.6802 -2.8512
 5999TIP3   OH218002   5.102   1.531   0.623  0.3680  0.6321 -0.6388
 5999TIP3    H118003   5.122   1.539   0.530  0.9015  0.7075 -0.5210
 5999TIP3    H218004   5.075   1.440   0.634 -1.1092  0.9782 -1.1200
 6000TIP3   OH218005   4.417   3.421   3.986  0.8653 -0.3369 -0.2084
 6000TIP3    H118006   4.469   3.365   3.929  0.6163  0.6454 -1.4218
 6000TIP3    H218007   4.480   3.483   4.023  0.7626  0.0440 -0.6742
 6001TIP3   OH218008   0.483   3.831   1.546  0.6538 -0.5556 -0.5085
 6001TIP3    H118009   0.407   3.846   1.489  0.3117 -1.3835 -0.2735
 6001TIP3    H218010   0.542   3.904   1.526 -1.5766  2.0742  1.6494
 6002TIP3   OH218011   4.721   0.622   4.564 -0.0749  0.7366  0.4765
 6002TIP3    H118012   4.676   0.706   4.569 -0.5147  0.4263  3.4780
 6002TIP3    H218013   4.669   0.571   4.502 -1.1574  1.8923  0.3841
 6003TIP3   OH218014   5.269   0.571   0.101 -0.2006 -0.6276  0.2212
 6003TIP3    H118015   5.364   0.564   0.104 -0.1253  0.1051 -0.1293
 6003TIP3    H218016   5.249   0.583   0.008 -0.5346  0.4333  0.4167
 6004TIP3   OH218017   5.378   4.283   3.846  0.3925  0.2698 -1.0629
 6004TIP3    H118018   5.288   4.296   3.814  0.1615  1.1829 -0.1068
 6004TIP3    H218019   5.406   4.370   3.873  0.8149 -0.3323  0.5534
 6005TIP3   OH218020   4.327   4.305   1.649  0.0955  0.1782 -0.2941
 6005TIP3    H118021   4.292   4.368   1.712 -0.5185 -0.5707  0.1385
 6005TIP3    H218022   4.325   4.221   1.696 -0.8588 -0.4916 -1.4910
 6006TIP3   OH218023   3.774   5.825   2.411  0.1796 -0.2037 -0.3901
 6006TIP3    H118024   3.706   5.847   2.347  1.6415 -0.2900 -2.0771
 6006TIP3    H218025   3.804   5.738   2.384  0.6260 -0.3797  0.6368
 6007TIP3   OH218026   1.650   1.082   1.057 -0.2180 -0.7401  0.1454
 6007TIP3    H118027   1.637   1.007   1.114  0.6065  1.0635  2.9043
 6007TIP3    H218028   1.741   1.078   1.030 -0.1920 -0.7655  0.2395
 6008TIP3   OH218029   2.116   0.090   1.268  0.0956  0.0007  0.3631
 6008TIP3    H118030   2.163   0.055   1.343 -0.2381  1.1315  1.1238
 6008TIP3    H218031   2.029   0.051   1.273  0.8850 -2.1816 -1.1073
 6009TIP3   OH218032   1.858   4.728   4.869 -0.3369 -0.7409 -0.0067
 6009TIP3    H118033   1.802   4.801   4.843 -1.8095 -1.8643 -0.1071
 6009TIP3    H218034   1.872   4.741   4.963  0.1667  0.1508 -0.1931
 6010TIP3   OH218035   1.666   3.575   2.260  0.4565  0.2010 -0.9297
 6010TIP3    H118036   1.574   3.588   2.234  0.5638  0.7259 -1.0483
 6010TIP3    H218037   1.664   3.576   2.355  0.0629 -1.7239 -0.8767
 6011TIP3   OH218038   5.177   1.857   4.185  0.4854  0.1245 -0.0798
 6011TIP3    H118039   5.152   1.949   4.176  2.2221  0.5251 -1.4872
 6011TIP3    H218040   5.264   1.860   4.225 -0.2266 -1.0221  1.6362
 6012TIP3   OH218041   6.294   3.511   4.258  0.3073  0.1193 -0.0001
 6012TIP3    H118042   6.271   3.553   4.341  1.8326  0.1313  0.4603
 6012TIP3    H218043   6.353   3.440   4.284 -0.5395 -0.9612 -0.9490
 6013TIP3   OH218044   1.417   2.074   3.000  0.2619 -0.7722 -0.4471
 6013TIP3    H118045   1.450   2.080   3.090  1.1706  0.1405 -0.8160
 6013TIP3    H218046   1.496   2.075   2.946 -0.3177  2.0861 -1.4039
 6014TIP3   OH218047   1.984   1.118   2.493 -0.0982 -0.2322 -0.0821
 6014TIP3    H118048   1.939   1.040   2.460  1.4621 -1.5001  0.6667
 6014TIP3    H218049   2.009   1.095   2.583  0.6743  1.0216  0.0470
 6015TIP3   OH218050   1.032   4.591   1.345  0.0999 -0.0136  0.2512
 6015TIP3    H118051   1.091   4.581   1.271  2.3834  1.6698  1.7103
 6015TIP3    H218052   1.068   4.533   1.413 -0.5113  0.2630  0.8258
 6016TIP3   OH218053   3.485   0.280   3.859 -0.2278 -0.0043  0.1334
 6016TIP3    H118054   3.573   0.276   3.896  0.4087  1.2461 -1.1380
 6016TIP3    H218055   3.427   0.285   3.934  0.8779  0.5411  0.9805
 6017TIP3   OH218056   1.218   4.799   4.069 -0.4480  0.3580  0.1372
 6017TIP3    H118057   1.193   4.808   3.977 -0.2570  1.0008  0.1447
 6017TIP3    H218058   1.159   4.859   4.116 -0.4501  0.1395  0.4194
 6018TIP3   OH218059   1.075   1.791   1.968  0.3830  0.1910  0.0457
 6018TIP3    H118060   1.062   1.886   1.966 -0.6842  0.0476 -0.3218
 6018TIP3    H218061   1.131   1.773   1.892 -2.3607  0.1438 -2.1087
 6019TIP3   OH218062   6.199   0.624   0.202  0.1532 -0.1656 -0.2039
 6019TIP3    H118063   6.203   0.693   0.136 -0.1376 -0.4787 -0.5561
 6019TIP3    H218064   6.288   0.618   0.237 -0.1821  1.6499  1.1556
 6020TIP3   OH218065   4.835   3.805   1.502  0.4103 -0.4871 -0.2493
 6020TIP3    H118066   4.877   3.880   1.543 -1.2286  0.6675 -0.5609
 6020TIP3    H218067   4.861   3.809   1.410 -0.6625  0.4827 -0.5354
 6021TIP3   OH218068   4.826   4.254   3.244 -0.4201 -0.7462 -0.1911
 6021TIP3    H118069   4.874   4.187   3.195 -0.4006  0.7846 -2.3646
 6021TIP3    H218070   4.885   4.329   3.247 -2.4391  1.1059 -2.7100
 6022TIP3   OH218071   1.207   1.299   0.995  0.2220 -0.2663  0.0989
 6022TIP3    H118072   1.300   1.294   1.016  0.3854  1.2087 -0.1311
 6022TIP3    H218073   1.201   1.370   0.930 -0.6451 -2.5057 -2.4834
 6023TIP3   OH218074   3.850   2.652   3.553 -0.4555 -0.3322  0.0976
 6023TIP3    H118075   3.774   2.675   3.607  0.2662  2.1317  0.1592
 6023TIP3    H218076   3.823   2.674   3.463 -0.6950 -1.9276 -0.2628
 6024TIP3   OH218077   0.535   0.800   2.889  0.5222 -0.3039  0.0652
 6024TIP3    H118078   0.591   0.769   2.817  0.6521 -2.8670  1.1542
 6024TIP3    H218079   0.532   0.895   2.878  2.9397 -0.3281 -1.5679
 6025TIP3   OH218080   0.201   4.692   0.093 -0.1262 -0.4730 -0.0141
 6025TIP3    H118081   0.112   4.721   0.071  0.0670 -1.1302 -1.8055
 6025TIP3    H218082   0.220   4.622   0.031  1.4816 -0.6680  0.6471
 6026TIP3   OH218083   1.322   2.630   1.100 -0.0710 -0.4662 -0.1574
 6026TIP3    H118084   1.318   2.657   1.192  0.7158 -1.5551  0.2175
 6026TIP3    H218085   1.293   2.538   1.101  2.2661 -1.2791 -0.5986
 6027TIP3   OH218086   2.141   3.975   3.002 -0.1677 -0.5451  0.2429
 6027TIP3    H118087   2.138   3.917   3.078  1.3147 -0.0535  0.7060
 6027TIP3    H218088   2.218   3.946   2.953 -1.9258 -1.8302 -1.9156
 6028TIP3   OH218089   1.290   5.578   4.916  0.4807 -0.5008 -0.2690
 6028TIP3    H118090   1.288   5.672   4.895 -0.6133 -0.3218  0.5941
 6028TIP3    H218091   1.218   5.541   4.864  0.2177 -0.6776  0.2171
 6029TIP3   OH218092   5.533   1.528   2.308  0.6022  0.1017 -0.2239
 6029TIP3    H118093   5.540   1.577   2.390  0.8623 -0.3793  0.0435
 6029TIP3    H218094   5.588   1.451   2.321  0.5810 -0.0207 -0.8210
 6030TIP3   OH218095   4.040   3.128   1.082  0.2727  1.1822  0.7020
 6030TIP3    H118096   3.972   3.189   1.108 -2.0103 -1.0740  0.4108
 6030TIP3    H218097   4.080   3.099   1.164  0.1671  1.7383  0.9485
 6031TIP3   OH218098   3.728   3.594   0.268 -0.0904 -0.0059  0.8901
 6031TIP3    H118099   3.670   3.647   0.323  0.6239  0.7707  0.9235
 6031TIP3    H218100   3.812   3.641   0.270  0.1044 -0.2635 -0.4107
 6032TIP3   OH218101   1.240   5.067   2.533 -0.1070 -0.2827  0.0309
 6032TIP3    H118102   1.233   5.011   2.610  2.9526 -1.6141 -0.4965
 6032TIP3    H218103   1.231   5.006   2.459  2.0649  0.0299 -0.5590
 6033TIP3   OH218104   0.651   0.379   0.462 -0.2260 -0.3295 -0.1601
 6033TIP3    H118105   0.706   0.431   0.521 -0.8145  0.1248 -0.0038
 6033TIP3    H218106   0.682   0.402   0.374 -0.4130  0.2125 -0.0883
 6034TIP3   OH218107   3.828   4.921   3.695 -0.0898 -0.1197  0.5523
 6034TIP3    H118108   3.813   4.896   3.786 -0.7884 -1.1546  0.1742
 6034TIP3    H218109   3.746   4.900   3.650 -0.4302  2.0918  0.0090
 6035TIP3   OH218110   0.839   1.176   3.807 -0.0049 -0.4434 -0.3256
 6035TIP3    H118111   0.762   1.232   3.802  1.3460  1.5305  0.2112
 6035TIP3    H218112   0.803   1.087   3.812 -2.2151  0.3738 -0.5991
 6036TIP3   OH218113   1.287   1.648   0.192 -0.0181 -0.5335  0.5030
 6036TIP3    H118114   1.209   1.631   0.244 -0.2587 -0.6984  0.0916
 6036TIP3    H218115   1.258   1.709   0.125 -0.0028 -1.2462 -0.1653
 6037TIP3   OH218116   0.428   4.193   0.672  0.0229  0.5709 -0.1979
 6037TIP3    H118117   0.412   4.241   0.591  0.3335  0.7421 -0.1585
 6037TIP3    H218118   0.430   4.101   0.646 -2.1494  0.4370 -0.0395
 6038TIP3   OH218119   6.294   3.800   1.104  0.3269 -0.1820 -0.3903
 6038TIP3    H118120   6.354   3.871   1.083 -1.7977  1.9081  0.0975
 6038TIP3    H218121   6.339   3.749   1.171  1.2442  1.8389  0.6313
 6039TIP3   OH218122   0.940   2.466   0.886  0.6530 -0.3689 -0.0009
 6039TIP3    H118123   0.939   2.456   0.791 -0.3969  2.2877 -0.3651
 6039TIP3    H218124   0.850   2.446   0.913  0.3757  0.9694  0.1181
 6040TIP3   OH218125   3.822   3.602   4.958  0.3073 -0.4037  0.2028
 6040TIP3    H118126   3.737   3.568   4.984 -0.5095  1.2709 -0.1518
 6040TIP3    H218127   3.832   3.683   5.009  1.0223  0.1717 -0.8159
 6041TIP3   OH218128   1.033   5.691   4.538  0.3025  1.0302 -0.9670
 6041TIP3    H118129   1.095   5.764   4.528  0.7930  0.4031 -3.3174
 6041TIP3    H218130   1.000   5.676   4.449 -0.0785 -1.3397 -0.4988
 6042TIP3   OH218131   0.156   0.026   2.499  0.8621  0.6717  0.3771
 6042TIP3    H118132   0.079   0.083   2.501  0.3255  0.3276 -3.3978
 6042TIP3    H218133   0.230   0.086   2.493  0.5310  1.0174 -0.3600
 6043TIP3   OH218134   3.136   1.358   4.001  0.6245 -0.2175  0.2739
 6043TIP3    H118135   3.102   1.447   3.996 -0.1955 -0.5673 -0.9100
 6043TIP3    H218136   3.195   1.351   3.926  0.8708 -0.5971  0.4976
 6044TIP3   OH218137   4.686   4.756   3.617  0.5286  0.5154  0.5301
 6044TIP3    H118138   4.748   4.779   3.685 -0.3650 -0.3463  1.6773
 6044TIP3    H218139   4.606   4.804   3.639  0.6952  1.4711 -0.8230
 6045TIP3   OH218140   1.122   2.502   1.408  0.8929  0.2426 -0.4521
 6045TIP3    H118141   1.175   2.579   1.391  0.6025  0.4715 -0.3316
 6045TIP3    H218142   1.042   2.536   1.449  1.2428 -0.2272  0.6561
 6046TIP3   OH218143   0.281   0.007   1.222  0.0312  0.4866  0.2956
 6046TIP3    H118144   0.350   0.029   1.160  0.4225 -1.4332 -0.0103
 6046TIP3    H218145   0.201   0.042   1.183  0.5378  0.9081 -0.3778
 6047TIP3   OH218146   1.154   0.486   4.094 -0.6959 -0.3618  0.3193
 6047TIP3    H118147   1.143   0.572   4.135 -0.6778 -0.1957 -0.0194
 6047TIP3    H218148   1.215   0.502   4.022  0.4280 -0.9361  1.1189
 6048TIP3   OH218149   0.677   2.525   1.273 -0.2954 -0.1024 -0.5270
 6048TIP3    H118150   0.671   2.607   1.321 -3.2750 -0.7335  0.3883
 6048TIP3    H218151   0.643   2.544   1.186  0.9208  0.0237 -1.0047
 6049TIP3   OH218152   3.145   3.880   2.745 -0.3225 -0.1564 -0.0935
 6049TIP3    H118153   3.070   3.857   2.799  0.1241 -1.0438  0.1665
 6049TIP3    H218154   3.112   3.880   2.655 -0.9084  0.6643  0.1154
 6050TIP3   OH218155   3.231   0.088   4.874 -0.3404 -0.2249 -0.1092
 6050TIP3    H118156   3.137   0.067   4.877 -0.8259  1.6916 -0.3459
 6050TIP3    H218157   3.260   0.082   4.965 -0.3695 -2.0039 -0.1794
 6051TIP3   OH218158   1.744   5.071   1.610  0.1412  0.2142  0.5458
 6051TIP3    H118159   1.694   5.081   1.691 -1.8768  0.3028 -0.6388
 6051TIP3    H218160   1.813   5.009   1.632 -1.3301 -1.0224  1.9352
 6052TIP3   OH218161   3.721   5.490   0.804  0.1994 -0.4419 -0.3953
 6052TIP3    H118162   3.706   5.582   0.781  2.9175  0.1943 -0.0626
 6052TIP3    H218163   3.639   5.461   0.844 -0.7261  1.8523 -0.4630
 6053TIP3   OH218164   5.757   0.426   0.445 -0.2004 -0.3263  0.0838
 6053TIP3    H118165   5.728   0.512   0.414  0.7392 -0.3809 -1.0002
 6053TIP3    H218166   5.688   0.366   0.418 -0.4177 -0.0559  0.0331
 6054TIP3   OH218167   2.535   1.175   2.083  0.2672 -0.1483  0.1127
 6054TIP3    H118168   2.582   1.094   2.104 -1.1073 -1.1905 -0.6829
 6054TIP3    H218169   2.591   1.219   2.020  0.2436 -1.3397 -0.7757
 6055TIP3   OH218170   1.663   0.073   0.306  0.1301 -0.5160  0.3973
 6055TIP3    H118171   1.703   0.096   0.222 -0.9003 -1.5250 -0.4037
 6055TIP3    H218172   1.652  -0.022   0.302  0.0712 -0.5855  1.6899
 6056TIP3   OH218173   4.690   2.188   0.314 -0.4126  0.1545  0.7821
 6056TIP3    H118174   4.601   2.164   0.288 -0.5962  0.3033  1.2663
 6056TIP3    H218175   4.679   2.258   0.379 -0.0014 -0.8754  1.9970
 6057TIP3   OH218176   0.541   0.663   3.752  0.9137  0.0698  0.3296
 6057TIP3    H118177   0.556   0.577   3.713  0.4070  0.8427 -1.6903
 6057TIP3    H218178   0.559   0.725   3.681  2.1319  1.7095  1.9732
 6058TIP3   OH218179   1.102   0.060   1.252  0.4080 -0.7958 -0.1000
 6058TIP3    H118180   1.072   0.054   1.161 -1.1882  1.0789  0.2430
 6058TIP3    H218181   1.060  -0.015   1.295  0.0366 -0.8944 -0.6209
 6059TIP3   OH218182   2.623   2.277   1.802 -0.3418 -0.3946  0.4500
 6059TIP3    H118183   2.652   2.351   1.856 -0.7655 -1.1311  1.7252
 6059TIP3    H218184   2.527   2.283   1.804 -0.3722 -0.8429  0.3850
 6060TIP3   OH218185   1.045   0.408   0.685 -0.9077 -0.3120 -0.2094
 6060TIP3    H118186   1.019   0.464   0.758  0.0142  1.8136 -1.4122
 6060TIP3    H218187   0.996   0.442   0.610 -1.6464 -2.2800 -0.6773
 6061TIP3   OH218188   2.438   2.639   2.938 -0.0860  0.3725 -0.4809
 6061TIP3    H118189   2.387   2.721   2.937  2.2760  1.9668 -1.7393
 6061TIP3    H218190   2.500   2.650   3.010  0.4741 -0.1510 -0.8754
 6062TIP3   OH218191   1.886   0.448   3.400 -0.2292  0.2436  0.4409
 6062TIP3    H118192   1.981   0.445   3.393 -0.1698 -0.1968  1.2763
 6062TIP3    H218193   1.856   0.483   3.317  0.6928  0.8140  0.3479
 6063TIP3   OH218194   5.841   3.383   0.958  0.1386 -0.1210 -0.5333
 6063TIP3    H118195   5.787   3.304   0.968 -0.9178  0.6776  0.3294
 6063TIP3    H218196   5.890   3.389   1.040 -1.3828  1.2364  0.3428
 6064TIP3   OH218197   1.145   2.403   1.076 -0.6452  0.2183 -0.2995
 6064TIP3    H118198   1.078   2.358   1.026 -1.2997  1.4801 -0.5886
 6064TIP3    H218199   1.220   2.343   1.075 -2.7139 -2.8439  2.8717
 6065TIP3   OH218200   5.529   4.344   5.098 -0.0554  0.0175 -0.1549
 6065TIP3    H118201   5.459   4.346   5.163  0.5729 -0.0228  0.5424
 6065TIP3    H218202   5.588   4.415   5.124  0.4092 -0.2540 -0.4476
 6066TIP3   OH218203   0.341   0.304   2.731 -0.6364 -0.3119  0.8076
 6066TIP3    H118204   0.387   0.357   2.796  0.2091  0.3737 -0.2988
 6066TIP3    H218205   0.253   0.340   2.728 -0.0728  1.1167  0.0573
 6067TIP3   OH218206   4.172   0.656   2.224  0.2009  0.6596 -0.5496
 6067TIP3    H118207   4.099   0.617   2.176 -0.7538  0.6414  0.8319
 6067TIP3    H218208   4.223   0.581   2.255  0.5947  0.6586 -1.1907
 6068TIP3   OH218209   4.352   1.776   2.614 -0.4451 -0.0980 -0.2342
 6068TIP3    H118210   4.419   1.713   2.642 -1.4852 -1.1282  0.0259
 6068TIP3    H218211   4.336   1.830   2.691 -0.0285  0.0571 -0.2531
 6069TIP3   OH218212   3.382   5.040   4.057 -0.3456  0.4616 -0.2272
 6069TIP3    H118213   3.354   5.023   3.967 -1.4664  1.4586 -0.1015
 6069TIP3    H218214   3.310   5.092   4.094 -1.6385 -2.8207  2.3462
 6070TIP3   OH218215   6.029   5.286   3.243 -0.1267 -0.4933 -0.2573
 6070TIP3    H118216   5.996   5.342   3.313 -1.3315 -1.1622 -0.2543
 6070TIP3    H218217   6.124   5.285   3.255 -0.2694 -0.1802  1.0488
 6071TIP3   OH218218   2.728   5.745   3.006  0.5925  0.1617  0.2167
 6071TIP3    H118219   2.707   5.696   3.086 -0.3316  0.0688 -0.0716
 6071TIP3    H218220   2.790   5.688   2.959  0.2509 -0.3060  0.3221
 6072TIP3   OH218221   4.857   3.298   3.991 -0.1361 -0.3872 -0.9452
 6072TIP3    H118222   4.946   3.263   3.989  0.0476  0.1122 -2.5768
 6072TIP3    H218223   4.863   3.374   4.050  0.2135 -1.0893 -0.0513
 6073TIP3   OH218224   0.797   3.854   2.419  0.1981 -0.0311 -0.1723
 6073TIP3    H118225   0.819   3.765   2.392  2.2446 -0.6612  3.0552
 6073TIP3    H218226   0.787   3.902   2.337  3.2378 -2.2959 -2.0946
 6074TIP3   OH218227   3.191   2.155   4.667  0.4306  0.2382 -0.3050
 6074TIP3    H118228   3.212   2.067   4.637 -1.0574 -0.3921  0.4237
 6074TIP3    H218229   3.264   2.179   4.724  0.4577 -0.8632  0.1478
 6075TIP3   OH218230   2.003   0.937   1.134 -0.2764  0.3818  0.2771
 6075TIP3    H118231   2.058   0.995   1.081  1.9871 -2.6625 -1.0091
 6075TIP3    H218232   1.937   0.904   1.073  1.4782 -2.0500 -0.4429
 6076TIP3   OH218233   0.196   1.040   0.770  0.8535 -1.0066 -0.0179
 6076TIP3    H118234   0.137   0.968   0.794 -0.4047  0.4566  1.4948
 6076TIP3    H218235   0.139   1.107   0.733  0.8872  1.7473  4.2777
 6077TIP3   OH218236   4.306   3.974   5.032 -1.1399  0.0057 -0.1127
 6077TIP3    H118237   4.349   3.890   5.017 -2.3213 -0.3682 -1.6531
 6077TIP3    H218238   4.330   3.998   5.122  2.0724 -0.2624 -0.7825
 6078TIP3   OH218239   2.246   1.788   2.738 -0.0136  0.3762 -0.0855
 6078TIP3    H118240   2.336   1.803   2.766  0.2427 -1.9029  0.5273
 6078TIP3    H218241   2.253   1.766   2.645 -0.2546  2.5549 -0.6657
 6079TIP3   OH218242   3.835   1.922   1.003  0.6782  0.4084 -0.2084
 6079TIP3    H118243   3.789   1.869   0.938  1.6134 -0.4948 -0.1586
 6079TIP3    H218244   3.792   2.008   0.999 -1.5503 -0.5985  0.4116
 6080TIP3   OH218245   0.051   4.321   1.059  0.3038 -0.4732  0.7214
 6080TIP3    H118246   0.094   4.407   1.053 -0.5970 -0.0686 -0.1193
 6080TIP3    H218247   0.097   4.268   0.994  0.6406 -0.5321  1.0058
 6081TIP3   OH218248   2.655   3.926   4.740 -0.2789  0.1674  0.1403
 6081TIP3    H118249   2.639   3.870   4.816  0.8947  1.1983  1.2011
 6081TIP3    H218250   2.648   3.867   4.665  0.5128 -1.3358  1.1821
 6082TIP3   OH218251   1.968   1.145   0.718  0.0482 -0.2093 -0.1820
 6082TIP3    H118252   2.016   1.153   0.636  1.4346  1.3313  0.7183
 6082TIP3    H218253   1.949   1.052   0.726  1.1587 -0.5783 -1.5363
 6083TIP3   OH218254   0.586   4.226   0.970  0.1267 -0.1226  0.0677
 6083TIP3    H118255   0.680   4.229   0.988 -0.2262  0.5537  2.0618
 6083TIP3    H218256   0.580   4.222   0.874  2.1842 -1.5551 -0.0773
 6084TIP3   OH218257   4.903   0.969   2.139 -0.0232 -0.4388 -0.1802
 6084TIP3    H118258   4.967   1.037   2.116  1.0212 -1.5162 -0.5209
 6084TIP3    H218259   4.857   0.951   2.057 -3.4987  2.9333  0.6765
 6085TIP3   OH218260   2.661   4.884   2.824  0.0453 -0.6685  0.2487
 6085TIP3    H118261   2.753   4.892   2.799 -0.0550 -0.9400 -0.2113
 6085TIP3    H218262   2.620   4.836   2.752  0.2791 -3.9646  2.0945
 6086TIP3   OH218263   4.649   3.153   3.451  0.5229 -0.2519  0.2056
 6086TIP3    H118264   4.707   3.080   3.471 -1.0102 -1.7395 -0.5263
 6086TIP3    H218265   4.561   3.120   3.469 -0.4318  0.5281 -2.5563
 6087TIP3   OH218266   2.863   0.430   4.919 -0.3442  0.3429  0.1742
 6087TIP3    H118267   2.787   0.463   4.872 -0.6660 -1.0067 -0.3120
 6087TIP3    H218268   2.890   0.352   4.869  0.7887  0.2679  0.8594
 6088TIP3   OH218269   2.740   2.638   2.338  0.1434  0.5156  0.3209
 6088TIP3    H118270   2.657   2.631   2.386  0.5335 -0.7736  0.8355
 6088TIP3    H218271   2.771   2.726   2.357 -1.2116  1.0992 -0.0554
 6089TIP3   OH218272   0.733   1.070   2.343 -0.0953  0.3377 -0.3683
 6089TIP3    H118273   0.711   0.977   2.352  3.2659 -0.7538 -1.9030
 6089TIP3    H218274   0.806   1.083   2.404 -0.1227  1.8332 -0.6253
 6090TIP3   OH218275   6.193   0.618   4.096  0.4291 -0.4153 -0.1825
 6090TIP3    H118276   6.174   0.662   4.014  0.4230 -0.4363 -0.1923
 6090TIP3    H218277   6.270   0.663   4.131  2.2394 -2.1958 -1.5776
 6091TIP3   OH218278   1.192   3.018   2.608 -0.1963  0.0107 -0.6094
 6091TIP3    H118279   1.205   2.927   2.580 -2.8897 -1.2071  1.5512
 6091TIP3    H218280   1.254   3.030   2.681  0.4615  0.0877 -1.1709
 6092TIP3   OH218281   5.102   3.296   4.902 -0.3595 -0.0025 -0.0873
 6092TIP3    H118282   5.196   3.293   4.885 -0.4237 -0.1537 -0.4229
 6092TIP3    H218283   5.067   3.222   4.853 -0.7180  0.3479 -0.3647
 6093TIP3   OH218284   3.939   2.604   2.616 -0.4661  0.1262  0.0206
 6093TIP3    H118285   3.910   2.686   2.657 -0.7753 -0.3594  0.8021
 6093TIP3    H218286   3.969   2.550   2.689  1.4036  0.1834 -0.6608
 6094TIP3   OH218287   5.829   0.647   1.545  1.0116  0.5360  0.5486
 6094TIP3    H118288   5.901   0.642   1.608  0.8916 -1.8531  0.5795
 6094TIP3    H218289   5.808   0.556   1.525  0.0390  1.2073 -1.8353
 6095TIP3   OH218290   1.161   5.356   0.192  0.0681  0.1991  0.4622
 6095TIP3    H118291   1.070   5.339   0.166 -0.0910  0.3178  0.9277
 6095TIP3    H218292   1.160   5.448   0.221 -0.2039 -0.4453  2.6936
 6096TIP3   OH218293   3.767   4.773   0.480  0.2553 -0.1016 -0.1187
 6096TIP3    H118294   3.737   4.694   0.436  2.1790 -1.1024  0.2389
 6096TIP3    H218295   3.774   4.839   0.411  1.0803 -1.0000 -0.9159
 6097TIP3   OH218296   4.560   0.213   1.672  0.4688 -0.2200  0.3109
 6097TIP3    H118297   4.570   0.289   1.615  0.5597 -1.5927 -1.6056
 6097TIP3    H218298   4.467   0.210   1.692  0.5958  0.8794  1.1581
 6098TIP3   OH218299   4.760   5.330   3.125 -0.0821  0.1195 -0.0313
 6098TIP3    H118300   4.744   5.411   3.173 -1.0070 -0.5575  0.8331
 6098TIP3    H218301   4.854   5.330   3.109 -0.1443  1.6694 -0.6247
 6099TIP3   OH218302   6.311   5.338   3.296 -0.4917  0.3923 -0.1782
 6099TIP3    H118303   6.371   5.280   3.250 -0.1769 -0.0394  0.7538
 6099TIP3    H218304   6.339   5.426   3.273  2.3040  0.3115  2.3591
 6100TIP3   OH218305   3.330   3.938   3.552 -0.1693  0.0329  0.4286
 6100TIP3    H118306   3.418   3.953   3.586  0.3926 -4.3193  1.5343
 6100TIP3    H218307   3.342   3.922   3.459  0.0595  0.5090  0.3774
 6101TIP3   OH218308   6.226   2.683   3.294  0.1356  0.0214  0.3845
 6101TIP3    H118309   6.300   2.705   3.239  0.4533  0.4097  0.9555
 6101TIP3    H218310   6.176   2.619   3.243 -0.9613  2.1932 -1.4347
 6102TIP3   OH218311   0.698   4.616   4.129 -0.4319  0.0632 -0.6660
 6102TIP3    H118312   0.786   4.639   4.157 -0.7346  0.2576  0.1553
 6102TIP3    H218313   0.694   4.521   4.139 -0.7744  0.2025  0.7047
 6103TIP3   OH218314   1.769   1.344   4.761 -0.3026 -0.3911 -0.1949
 6103TIP3    H118315   1.785   1.348   4.855 -1.1055  0.3246 -0.0769
 6103TIP3    H218316   1.843   1.294   4.726  1.1438  1.1530  0.5333
 6104TIP3   OH218317   5.583   4.439   0.621 -1.0606  0.4518 -0.0164
 6104TIP3    H118318   5.605   4.494   0.696 -2.0263 -0.3452  0.8803
 6104TIP3    H218319   5.548   4.499   0.556  1.7223  1.4725 -0.7131
 6105TIP3   OH218320   3.686   2.935   1.044 -0.2005  0.0262  0.3640
 6105TIP3    H118321   3.709   3.000   0.977 -0.0367  1.3635  1.6525
 6105TIP3    H218322   3.764   2.881   1.052 -0.4581 -0.5841 -0.9771
 6106TIP3   OH218323   4.968   0.534   4.615  0.3459  0.3418  0.3139
 6106TIP3    H118324   4.874   0.549   4.604  0.4486  0.7397 -0.0608
 6106TIP3    H218325   5.009   0.598   4.557  0.8298 -0.9178 -0.7866
 6107TIP3   OH218326   1.201   5.682   0.223  0.1520 -0.7075  0.1507
 6107TIP3    H118327   1.241   5.755   0.176 -1.2548  0.4863  0.7258
 6107TIP3    H218328   1.263   5.662   0.293  0.7135 -0.3155 -0.2209
 6108TIP3   OH218329   5.124   2.802   1.049  0.2732  0.5415 -0.1814
 6108TIP3    H118330   5.110   2.710   1.024  1.1367  0.3169  0.1069
 6108TIP3    H218331   5.046   2.825   1.100 -0.0116  0.0063 -0.3626
 6109TIP3   OH218332   1.979   0.306   2.126  0.4149 -0.0941  0.4284
 6109TIP3    H118333   1.920   0.382   2.126  0.7846  0.2056 -0.2703
 6109TIP3    H218334   1.921   0.231   2.138 -0.6477 -0.1433 -3.5074
 6110TIP3   OH218335   4.884   3.825   3.089  0.3947 -0.4983  0.1572
 6110TIP3    H118336   4.918   3.810   3.177  1.3456  0.0613 -0.0947
 6110TIP3    H218337   4.796   3.860   3.102  0.8183  0.3364  0.9233
 6111TIP3   OH218338   1.226   0.737   1.585 -0.2797 -0.5070 -0.7572
 6111TIP3    H118339   1.281   0.761   1.660  0.9342 -0.3472 -1.6655
 6111TIP3    H218340   1.150   0.794   1.592  0.2986  0.2297 -0.2152
 6112TIP3   OH218341   0.449   1.688   4.522  0.0105 -0.0390 -0.4004
 6112TIP3    H118342   0.515   1.756   4.531 -0.1731  0.1271 -0.3048
 6112TIP3    H218343   0.366   1.734   4.531 -0.1295 -0.1819 -0.9305
 6113TIP3   OH218344   5.336   2.250   2.391 -0.0975 -0.3062 -0.0734
 6113TIP3    H118345   5.267   2.193   2.424 -0.9112  0.1800 -0.8847
 6113TIP3    H218346   5.415   2.222   2.438 -0.6169 -1.6026  0.0713
 6114TIP3   OH218347   0.525   2.386   3.191 -0.2555  0.0383  0.8000
 6114TIP3    H118348   0.518   2.308   3.247 -0.1676 -0.1872  0.4989
 6114TIP3    H218349   0.475   2.364   3.113  3.0384 -1.3467 -1.1110
 6115TIP3   OH218350   4.093   2.666   0.594 -0.1725 -0.1928  0.1085
 6115TIP3    H118351   4.078   2.753   0.557  0.0695  0.2181  0.9320
 6115TIP3    H218352   4.034   2.662   0.670 -3.5793 -2.4784 -2.3650
 6116TIP3   OH218353   4.924   0.986   0.427 -0.7601 -0.0326 -0.1440
 6116TIP3    H118354   4.836   0.969   0.460 -0.1467 -2.3533  0.5348
 6116TIP3    H218355   4.919   0.967   0.333 -0.9369 -0.4520 -0.0520
 6117TIP3   OH218356   3.292   5.036   0.874  0.0468  0.0708 -0.3056
 6117TIP3    H118357   3.297   5.080   0.959  0.1339  0.4870 -0.5208
 6117TIP3    H218358   3.216   5.076   0.831 -0.0780 -0.2346 -0.3656
 6118TIP3   OH218359   6.211   2.916   1.133 -0.2127 -0.3731 -0.1817
 6118TIP3    H118360   6.140   2.882   1.079 -1.7467  1.9694  0.1740
 6118TIP3    H218361   6.167   2.946   1.213  1.0729  1.5568 -0.1346
 6119TIP3   OH218362   1.631   3.880   1.515 -0.4426 -0.7359 -0.0973
 6119TIP3    H118363   1.553   3.847   1.559 -0.9619  0.2622 -0.2469
 6119TIP3    H218364   1.703   3.859   1.575 -0.8066 -1.7081  0.0130
 6120TIP3   OH218365   4.867   5.362   0.044 -0.1501 -0.3541  0.5459
 6120TIP3    H118366   4.854   5.307   0.121  1.5057 -1.4891  0.0744
 6120TIP3    H218367   4.953   5.337   0.011 -0.1439  1.2359 -0.7714
 6121TIP3   OH218368   6.223   4.727   0.551 -0.4521  0.3760 -0.2966
 6121TIP3    H118369   6.163   4.799   0.531  1.5274  2.1238 -0.3619
 6121TIP3    H218370   6.292   4.769   0.603 -0.0398 -1.8531  1.0640
 6122TIP3   OH218371   4.848   3.524   4.243  0.2057  0.2403 -0.1010
 6122TIP3    H118372   4.859   3.553   4.334  0.9742 -0.9189  0.2057
 6122TIP3    H218373   4.932   3.542   4.202 -0.7232  2.4761 -1.1267
 6123TIP3   OH218374   4.309   0.149   0.977  0.3435  0.2173 -0.0964
 6123TIP3    H118375   4.257   0.068   0.977 -0.8169  0.9230 -1.0297
 6123TIP3    H218376   4.258   0.210   0.924  1.5371  1.3557  0.0098
 6124TIP3   OH218377   4.711   0.489   1.251  0.6363  0.7253  0.9841
 6124TIP3    H118378   4.631   0.505   1.201  1.9762 -2.0875 -2.4659
 6124TIP3    H218379   4.681   0.451   1.334 -1.6270 -0.3929 -0.2682
 6125TIP3   OH218380   0.211   3.083   0.844  0.2297  0.3356 -0.0661
 6125TIP3    H118381   0.156   3.067   0.921 -0.2486 -0.8670 -0.6335
 6125TIP3    H218382   0.250   2.998   0.825  2.5568  1.1944  0.4986
 6126TIP3   OH218383   0.548   1.252   4.680  0.3978  0.2655 -0.1654
 6126TIP3    H118384   0.514   1.336   4.712 -0.7343 -0.7461  1.4666
 6126TIP3    H218385   0.611   1.224   4.747  0.8750 -0.1406 -0.7615
 6127TIP3   OH218386   5.536   3.832   0.139 -0.4969  0.2605 -0.5435
 6127TIP3    H118387   5.451   3.791   0.123 -0.5408 -0.2356  0.9029
 6127TIP3    H218388   5.516   3.925   0.149 -0.8112  0.2021 -0.6221
 6128TIP3   OH218389   4.456   5.082   1.810 -0.6215 -0.2823 -0.6133
 6128TIP3    H118390   4.542   5.038   1.810 -0.6781 -0.4067  0.1854
 6128TIP3    H218391   4.476   5.173   1.791  0.2131  0.5996  3.4697
 6129TIP3   OH218392   0.090   1.427   0.347  0.3057 -0.3427  0.0769
 6129TIP3    H118393   0.085   1.521   0.331  1.0922 -0.0645  1.3726
 6129TIP3    H218394   0.015   1.408   0.403  0.3863 -0.4182  0.1581
 6130TIP3   OH218395   0.874   2.181   3.293  0.3608  0.0066 -0.1999
 6130TIP3    H118396   0.835   2.220   3.215 -0.6299  0.3216  0.4436
 6130TIP3    H218397   0.963   2.159   3.266  1.0998  2.9591 -0.5289
 6131TIP3   OH218398   2.664   3.809   2.664  0.2346 -0.8763 -0.0082
 6131TIP3    H118399   2.663   3.783   2.756 -0.7599  0.2260  0.3263
 6131TIP3    H218400   2.602   3.750   2.621  0.9097 -1.5750 -0.0392
 6132TIP3   OH218401   3.048   0.658   3.740  0.6001  0.5037 -0.1192
 6132TIP3    H118402   3.053   0.635   3.648 -0.6649 -0.1022 -0.0558
 6132TIP3    H218403   2.958   0.637   3.766  1.3749 -0.8864  1.6502
 6133TIP3   OH218404   1.260   0.698   0.325 -0.0136  0.4578  0.0482
 6133TIP3    H118405   1.322   0.632   0.293 -0.7636  0.4932 -1.5762
 6133TIP3    H218406   1.313   0.755   0.381  1.2699  0.0626 -0.7031
 6134TIP3   OH218407   0.964   2.619   1.124  0.0951 -0.5531 -0.0585
 6134TIP3    H118408   0.959   2.536   1.173  1.2099 -0.1120  0.8458
 6134TIP3    H218409   1.035   2.605   1.061  0.4436 -0.2143  0.2558
 6135TIP3   OH218410   4.322   2.070   1.960  0.0814  0.3282  0.3321
 6135TIP3    H118411   4.325   2.164   1.977 -1.8225  0.5333 -0.2111
 6135TIP3    H218412   4.398   2.052   1.905 -0.8806  2.0589 -1.6916
 6136TIP3   OH218413   4.094   1.806   0.700  0.1848  0.0919  0.2053
 6136TIP3    H118414   4.129   1.883   0.745  1.4671 -0.0550 -0.5087
 6136TIP3    H218415   4.033   1.767   0.764  0.7425  0.7877  1.1870
 6137TIP3   OH218416   4.505   1.300   1.961 -0.3912 -0.2048 -0.2127
 6137TIP3    H118417   4.461   1.273   2.042  0.2006  1.2819  0.6574
 6137TIP3    H218418   4.598   1.297   1.983 -0.1482 -1.0662 -1.2837
 6138TIP3   OH218419   2.566   0.589   4.140  0.1974  0.0215  0.2162
 6138TIP3    H118420   2.517   0.565   4.061 -1.7125  1.3278  0.8991
 6138TIP3    H218421   2.655   0.604   4.110 -0.5426  0.7795 -1.7934
 6139TIP3   OH218422   6.240   2.587   3.622  0.5587 -0.4345  0.0435
 6139TIP3    H118423   6.313   2.530   3.598  0.0629 -1.7012  1.4275
 6139TIP3    H218424   6.162   2.533   3.607 -0.2660  1.2627 -2.5231
 6140TIP3   OH218425   5.440   2.303   3.479  0.1110 -0.6603  0.9277
 6140TIP3    H118426   5.464   2.234   3.540 -0.2503 -1.7225 -0.1018
 6140TIP3    H218427   5.364   2.345   3.520 -0.1124 -1.3361  1.2244
 6141TIP3   OH218428   4.440   1.678   1.826  0.3196 -0.2646 -0.3247
 6141TIP3    H118429   4.470   1.735   1.755 -0.5300  0.0093 -0.4814
 6141TIP3    H218430   4.440   1.590   1.787  0.7553 -0.2508 -0.3652
 6142TIP3   OH218431   0.711   0.456   0.173  0.4514  0.0122 -0.2468
 6142TIP3    H118432   0.700   0.549   0.193  0.3142  0.0257 -0.3873
 6142TIP3    H218433   0.771   0.454   0.098 -1.6563  0.1183 -2.0200
 6143TIP3   OH218434   0.680   5.200   2.083  0.3495  0.0693 -0.1449
 6143TIP3    H118435   0.724   5.151   2.153 -0.0781 -0.7462 -0.4348
 6143TIP3    H218436   0.588   5.202   2.109  0.3793  0.8020 -0.0930
 6144TIP3   OH218437   1.729   5.789   2.144 -0.1958 -0.1294 -0.1054
 6144TIP3    H118438   1.802   5.737   2.178  0.2267  0.9911  0.7831
 6144TIP3    H218439   1.749   5.879   2.172 -1.5881  0.2988 -0.4042
 6145TIP3   OH218440   4.610   3.569   4.625  0.0935 -0.0431  0.2768
 6145TIP3    H118441   4.596   3.601   4.536 -1.1218 -1.4591 -0.0719
 6145TIP3    H218442   4.570   3.636   4.681 -2.5443 -0.9079 -0.4389
 6146TIP3   OH218443   3.547   1.023   3.842 -0.4898 -0.6544  0.2196
 6146TIP3    H118444   3.516   0.966   3.913 -0.5466  0.1201  0.8346
 6146TIP3    H218445   3.503   1.107   3.859 -0.5308 -0.4713 -0.7579
 6147TIP3   OH218446   1.068   2.212   4.729  0.1386 -0.5319  0.1113
 6147TIP3    H118447   1.010   2.147   4.768  0.8760 -1.4121 -0.2225
 6147TIP3    H218448   1.154   2.170   4.727 -0.0114 -1.0523 -3.4278
 6148TIP3   OH218449   3.057   0.323   2.143 -0.0231 -0.0595  0.5113
 6148TIP3    H118450   3.039   0.404   2.096 -0.9462  0.2340  1.3495
 6148TIP3    H218451   3.025   0.254   2.084 -0.1041  0.2347  0.2061
 6149TIP3   OH218452   2.983   4.607   2.984  0.3039 -0.2806  0.3280
 6149TIP3    H118453   2.916   4.669   3.012  0.0540 -0.7700  0.8330
 6149TIP3    H218454   3.022   4.576   3.065 -0.6041 -1.9234  0.1820
 6150TIP3   OH218455   3.821   5.189   1.678  0.1289  0.5674 -0.0076
 6150TIP3    H118456   3.798   5.107   1.635 -1.6630  0.9795  0.0776
 6150TIP3    H218457   3.917   5.190   1.679  0.2660  0.0829 -3.1362
 6151TIP3   OH218458   3.534   3.132   0.359 -0.1889  0.1025 -0.0325
 6151TIP3    H118459   3.476   3.153   0.286 -1.1926 -1.7944  0.1448
 6151TIP3    H218460   3.543   3.214   0.407 -1.5018  0.8057 -0.9252
 6152TIP3   OH218461   4.505   5.563   1.967  0.3149  0.5378 -0.2356
 6152TIP3    H118462   4.448   5.632   1.934 -0.9705 -1.0255 -1.4828
 6152TIP3    H218463   4.493   5.565   2.062 -0.4403  1.4004 -0.3409
 6153TIP3   OH218464   3.690   5.280   3.438 -0.5554  0.1490 -0.1204
 6153TIP3    H118465   3.627   5.247   3.501  0.6890  2.6386  2.6914
 6153TIP3    H218466   3.769   5.227   3.453 -1.1311 -1.2857 -1.8547
 6154TIP3   OH218467   0.783   3.415   2.182 -0.4997 -0.3448  0.3405
 6154TIP3    H118468   0.810   3.336   2.136 -2.6202 -1.2343  0.5508
 6154TIP3    H218469   0.807   3.400   2.273 -2.7693 -1.7114  0.7742
 6155TIP3   OH218470   5.273   1.443   3.915  0.3501 -0.2928 -0.5504
 6155TIP3    H118471   5.231   1.458   3.831  1.7613  0.2103 -1.2064
 6155TIP3    H218472   5.229   1.367   3.952  0.1866 -0.9536 -2.0658
 6156TIP3   OH218473   5.433   3.966   3.137 -0.3068  0.2954  0.2584
 6156TIP3    H118474   5.365   4.022   3.174 -0.1511 -1.1492  2.9469
 6156TIP3    H218475   5.392   3.926   3.060 -2.8084 -0.9794  2.1101
 6157TIP3   OH218476   1.573   2.515   2.513 -0.1062  0.4078  0.4215
 6157TIP3    H118477   1.604   2.605   2.516 -0.4439  0.5257  0.3969
 6157TIP3    H218478   1.557   2.491   2.605  0.3599  0.2376  0.4629
 6158TIP3   OH218479   0.982   5.520   2.680  0.8600 -0.2602  0.1144
 6158TIP3    H118480   1.064   5.485   2.645  1.2855 -0.2001  1.0344
 6158TIP3    H218481   1.006   5.558   2.764 -0.2264 -0.8342  0.7052
 6159TIP3   OH218482   2.308   2.913   3.718 -0.2780 -0.0194  0.1389
 6159TIP3    H118483   2.313   2.823   3.751  0.6440 -0.8944 -2.1433
 6159TIP3    H218484   2.215   2.929   3.707 -0.4099 -1.5319 -1.3663
 6160TIP3   OH218485   6.017   3.899   0.941 -0.3389  0.0534 -0.2321
 6160TIP3    H118486   5.942   3.898   0.882 -1.8710  0.5021  1.5791
 6160TIP3    H218487   5.989   3.845   1.016  1.0444  0.4529  0.6178
 6161TIP3   OH218488   3.652   1.666   2.914 -0.1522 -0.2622  0.1361
 6161TIP3    H118489   3.675   1.741   2.969  0.1304  0.2669 -0.6793
 6161TIP3    H218490   3.557   1.660   2.921 -0.2740  0.6925 -0.4202
 6162TIP3   OH218491   3.926   4.407   3.668  0.2612  0.0118  0.0105
 6162TIP3    H118492   4.000   4.412   3.729  1.8849 -0.8253 -1.7873
 6162TIP3    H218493   3.917   4.495   3.634  0.8957 -0.0277 -0.2689
 6163TIP3   OH218494   0.675   4.736   4.998  0.1002  0.2249  0.1075
 6163TIP3    H118495   0.768   4.755   5.011  0.0232  1.0194 -0.4558
 6163TIP3    H218496   0.644   4.710   5.085  0.7775  0.2422  0.3622
 6164TIP3   OH218497   0.423   2.861   0.786 -0.0386 -0.0453  0.6344
 6164TIP3    H118498   0.431   2.806   0.708 -0.9178 -2.1918  1.9454
 6164TIP3    H218499   0.511   2.897   0.799  0.1615  0.2006 -1.2147
 6165TIP3   OH218500   1.512   0.189   1.801  0.0650  0.0284 -0.3554
 6165TIP3    H118501   1.456   0.172   1.726  1.1942  2.1590 -1.7939
 6165TIP3    H218502   1.464   0.252   1.854 -0.5799 -1.2151  0.6175
 6166TIP3   OH218503   3.096   1.972   0.905 -0.2541 -0.0627 -0.0771
 6166TIP3    H118504   3.063   1.983   0.994 -0.6941 -1.7154  0.0084
 6166TIP3    H218505   3.076   1.880   0.883 -0.7890  0.4920 -2.1438
 6167TIP3   OH218506   4.138   5.817   2.045 -0.1633 -0.3356 -0.2037
 6167TIP3    H118507   4.182   5.819   2.130  1.2637 -1.0465 -0.8932
 6167TIP3    H218508   4.201   5.776   1.986 -1.5207 -0.7873 -1.3967
 6168TIP3   OH218509   0.770   5.848   0.575 -0.4260 -0.0406 -0.1277
 6168TIP3    H118510   0.801   5.830   0.486  0.5301 -1.2647  0.4212
 6168TIP3    H218511   0.675   5.848   0.567 -0.3527 -0.2112 -1.1422
 6169TIP3   OH218512   0.420   4.516   3.059 -0.1241 -0.1986  0.0915
 6169TIP3    H118513   0.500   4.464   3.070  1.1101  1.5111 -0.4548
 6169TIP3    H218514   0.362   4.484   3.128  0.8235 -1.8247  0.2006
 6170TIP3   OH218515   1.696   5.755   2.861  0.2968  0.3567  0.3740
 6170TIP3    H118516   1.623   5.815   2.849  0.4203  0.4175 -0.0757
 6170TIP3    H218517   1.760   5.805   2.912  0.0943  0.3582  0.6279
 6171TIP3   OH218518   4.146   2.099   4.315 -0.1687 -0.3057 -0.3431
 6171TIP3    H118519   4.241   2.103   4.314 -0.1250 -1.3497 -1.6546
 6171TIP3    H218520   4.121   2.143   4.397  1.3527  1.2380 -0.6729
 6172TIP3   OH218521   4.318   5.756   1.859 -0.3324  0.5566 -0.2167
 6172TIP3    H118522   4.289   5.829   1.803 -1.4045 -0.3471 -0.8781
 6172TIP3    H218523   4.254   5.687   1.843  0.0124 -0.1474  1.2629
 6173TIP3   OH218524   4.093   4.821   3.629 -0.4202 -0.2886  0.2484
 6173TIP3    H118525   3.997   4.825   3.633 -0.3407  0.8024  2.4584
 6173TIP3    H218526   4.121   4.913   3.626  0.5736 -0.6002 -2.2227
 6174TIP3   OH218527   1.261   4.022   2.901  0.0855  1.0122  0.1489
 6174TIP3    H118528   1.271   4.074   2.822 -1.7949 -0.0250 -0.8313
 6174TIP3    H218529   1.196   3.955   2.878  1.6098 -1.1343  1.6574
 6175TIP3   OH218530   2.493   5.732   4.267 -0.0564 -0.0994  0.6447
 6175TIP3    H118531   2.441   5.669   4.217  0.3569 -0.6104  0.8422
 6175TIP3    H218532   2.484   5.814   4.220 -0.1654 -0.4336  0.0715
 6176TIP3   OH218533   5.325   2.424   1.197  0.5318 -0.0060  0.8668
 6176TIP3    H118534   5.372   2.342   1.214 -0.8782 -0.8138  1.0951
 6176TIP3    H218535   5.326   2.433   1.102  1.6868  0.3282  0.9063
 6177TIP3   OH218536   2.574   5.400   1.744 -0.0290  0.2363  0.3243
 6177TIP3    H118537   2.489   5.439   1.723  0.2563  0.4750 -0.4332
 6177TIP3    H218538   2.635   5.443   1.684  0.2748 -1.4510 -0.6429
 6178TIP3   OH218539   2.068   3.051   4.058 -0.2528  1.0239 -0.1843
 6178TIP3    H118540   1.990   3.025   4.106 -0.2082 -0.0074 -0.6502
 6178TIP3    H218541   2.117   3.105   4.120  0.2113 -0.9702  1.2810
 6179TIP3   OH218542   0.968   0.612   4.360 -0.0647  0.1637 -0.1323
 6179TIP3    H118543   1.063   0.604   4.348  0.1790  0.6225  1.4045
 6179TIP3    H218544   0.957   0.637   4.451 -1.7013 -0.3597 -0.1608
 6180TIP3   OH218545   2.740   4.511   4.635 -0.0211 -0.3869  0.3629
 6180TIP3    H118546   2.787   4.477   4.559 -0.3091 -1.1911  0.5312
 6180TIP3    H218547   2.698   4.434   4.673 -1.0708  0.2282  0.4953
 6181TIP3   OH218548   2.115   1.354   4.239 -0.0264  0.7843 -0.3620
 6181TIP3    H118549   2.143   1.267   4.267 -2.0438  0.1972  0.0042
 6181TIP3    H218550   2.086   1.343   4.149 -1.1700  0.8258 -0.0223
 6182TIP3   OH218551   4.352   2.537   2.890  0.6442 -0.4694 -0.3035
 6182TIP3    H118552   4.299   2.535   2.810  0.4809 -0.5002 -0.1941
 6182TIP3    H218553   4.443   2.539   2.858  0.5956 -1.0170 -0.4907
 6183TIP3   OH218554   2.989   2.746   2.249 -0.0270 -0.2235 -0.1349
 6183TIP3    H118555   2.933   2.672   2.271 -1.6808  0.9338 -0.3166
 6183TIP3    H218556   2.977   2.758   2.154  0.1210  0.3489 -0.0869
 6184TIP3   OH218557   0.086   3.791   1.793  0.6426  0.4232  0.4549
 6184TIP3    H118558   0.117   3.701   1.791  0.8044  0.4894 -1.3870
 6184TIP3    H218559   0.166   3.844   1.786  0.3412  0.6152 -2.4691
 6185TIP3   OH218560   2.175   3.817   2.230  0.1420  0.6038 -0.4044
 6185TIP3    H118561   2.224   3.782   2.156 -0.6181  1.7318 -1.4867
 6185TIP3    H218562   2.241   3.831   2.298  0.3514 -4.2159  0.7685
 6186TIP3   OH218563   4.238   0.400   3.290  0.0541  0.1369  0.1701
 6186TIP3    H118564   4.188   0.364   3.217  0.7743 -0.1087 -0.2137
 6186TIP3    H218565   4.179   0.463   3.332 -0.4639  0.0635 -0.4488
 6187TIP3   OH218566   2.517   1.768   1.023 -0.2954 -0.4358 -0.2986
 6187TIP3    H118567   2.605   1.730   1.026 -0.3068 -0.3900  0.9375
 6187TIP3    H218568   2.467   1.721   1.089 -0.3909  1.4571  1.0859
 6188TIP3   OH218569   5.692   2.343   4.629  0.2887  0.6364  0.9717
 6188TIP3    H118570   5.621   2.408   4.633  1.0755  1.6430 -0.3382
 6188TIP3    H218571   5.750   2.366   4.702  1.4143  2.5204 -0.4341
 6189TIP3   OH218572   3.904   4.439   3.955 -0.0578 -0.4802  0.2076
 6189TIP3    H118573   3.901   4.347   3.926  0.6948 -0.6818  0.7474
 6189TIP3    H218574   3.982   4.474   3.914 -0.3324 -0.0770  0.0218
 6190TIP3   OH218575   3.011   4.890   4.030  1.0335 -0.1776 -0.1827
 6190TIP3    H118576   3.099   4.853   4.023  1.0338 -0.1312 -0.4712
 6190TIP3    H218577   3.014   4.969   3.976  1.0010  0.1829  0.3451
 6191TIP3   OH218578   2.125   0.267   3.203  0.0808  0.0660 -0.4705
 6191TIP3    H118579   2.124   0.344   3.148 -1.7646  0.2683 -0.2030
 6191TIP3    H218580   2.033   0.247   3.219  0.5384 -1.3358  0.6485
 6192TIP3   OH218581   3.842   1.169   1.154 -0.0508  0.3219  0.0243
 6192TIP3    H118582   3.874   1.082   1.179 -0.9414  0.3428  1.3060
 6192TIP3    H218583   3.750   1.155   1.133  0.1770  0.6897 -1.3523
 6193TIP3   OH218584   5.975   1.636   4.350 -0.1965  0.0577  0.3892
 6193TIP3    H118585   5.994   1.543   4.355  0.9759  0.0511 -2.4482
 6193TIP3    H218586   5.965   1.654   4.257 -1.3513  2.6167  0.9158
 6194TIP3   OH218587   1.776   3.841   1.274 -0.3334 -0.1856  0.1981
 6194TIP3    H118588   1.711   3.884   1.328  0.4281  0.1926  0.8312
 6194TIP3    H218589   1.741   3.753   1.259  0.1284 -0.8610  2.6260
 6195TIP3   OH218590   5.103   2.262   0.246  0.2330  0.0296 -0.5829
 6195TIP3    H118591   5.190   2.301   0.248 -0.5577  1.8973 -0.3948
 6195TIP3    H218592   5.063   2.295   0.166 -0.2863 -0.8424 -0.6930
 6196TIP3   OH218593   3.708   1.183   4.514  0.0110  0.1967  0.8470
 6196TIP3    H118594   3.615   1.176   4.490  0.0942  1.6201 -0.0521
 6196TIP3    H218595   3.754   1.139   4.442  0.0198 -1.9497  2.0850
 6197TIP3   OH218596   4.282   3.565   3.238 -0.3232  0.1585 -0.2401
 6197TIP3    H118597   4.191   3.583   3.259 -0.3844  0.5375 -0.8052
 6197TIP3    H218598   4.302   3.624   3.165  0.9202  1.4282  1.0750
 6198TIP3   OH218599   1.226   2.890   0.909  0.0566  0.2273 -0.4316
 6198TIP3    H118600   1.132   2.898   0.922  0.2574  0.4751  1.0722
 6198TIP3    H218601   1.261   2.976   0.933  0.7180 -0.0293 -0.4345
 6199TIP3   OH218602   0.037   1.480   0.730 -0.8879  0.0826  0.0312
 6199TIP3    H118603   0.074   1.540   0.795 -0.9273 -0.7247  0.8284
 6199TIP3    H218604  -0.042   1.525   0.698 -2.5159 -0.6643  2.6627
 6200TIP3   OH218605   0.942   5.758   0.289  0.0632 -0.3050 -0.2584
 6200TIP3    H118606   1.012   5.713   0.241  0.6234  0.5737 -0.2975
 6200TIP3    H218607   0.980   5.843   0.312 -2.1292  1.7371 -3.4024
 6201TIP3   OH218608   1.857   5.460   4.015 -0.4467  0.4475  0.0127
 6201TIP3    H118609   1.947   5.428   4.021 -0.6829 -0.2078  0.2115
 6201TIP3    H218610   1.861   5.531   3.951 -0.0068 -0.3928 -0.9178
 6202TIP3   OH218611   0.546   0.068   3.720  0.2619 -0.5643  0.4620
 6202TIP3    H118612   0.466   0.059   3.669 -0.0397 -0.8531  0.9777
 6202TIP3    H218613   0.530   0.144   3.776  0.6622 -0.1371  0.0040
 6203TIP3   OH218614   5.728   1.260   2.808 -0.5558  0.2475 -0.4023
 6203TIP3    H118615   5.803   1.316   2.829 -1.8812  2.1590 -0.5348
 6203TIP3    H218616   5.760   1.203   2.738  0.4922  1.7115 -1.1693
 6204TIP3   OH218617   4.281   3.771   0.570 -0.3733  0.2294  0.0409
 6204TIP3    H118618   4.292   3.710   0.643  0.0896  0.7639  0.4381
 6204TIP3    H218619   4.221   3.838   0.604 -0.8533  0.0132 -0.3770
 6205TIP3   OH218620   1.649   1.009   5.023  0.1058  0.1337  0.8449
 6205TIP3    H118621   1.575   0.956   4.991  1.0628 -1.7366  1.5679
 6205TIP3    H218622   1.610   1.093   5.047 -1.7621 -0.7413  1.0421
 6206TIP3   OH218623   2.787   2.706   0.914  0.0102  0.4615  0.0477
 6206TIP3    H118624   2.761   2.719   1.005 -1.7321 -0.6987 -0.2383
 6206TIP3    H218625   2.838   2.784   0.892 -1.2246  1.7055  1.4197
 6207TIP3   OH218626   3.440   4.044   1.212 -0.1555 -0.1718 -0.1710
 6207TIP3    H118627   3.351   4.075   1.225 -0.1254 -0.2257  0.1756
 6207TIP3    H218628   3.474   4.096   1.139 -0.2984  0.2028  0.0279
 6208TIP3   OH218629   2.239   0.221   2.187 -0.5222 -0.5197  0.0742
 6208TIP3    H118630   2.242   0.130   2.218  0.1521 -0.6024 -0.2060
 6208TIP3    H218631   2.156   0.229   2.141 -1.6651 -0.3421  2.0600
 6209TIP3   OH218632   4.014   0.452   3.921  0.5315  0.0402  0.4896
 6209TIP3    H118633   4.012   0.508   3.998  1.2748  0.4852  0.1935
 6209TIP3    H218634   3.948   0.384   3.939  2.2389 -1.2134  2.5495
 6210TIP3   OH218635   6.141   4.700   3.995 -0.2259  0.7145 -0.0718
 6210TIP3    H118636   6.108   4.618   3.958  0.9099  0.6525 -1.0028
 6210TIP3    H218637   6.192   4.673   4.071 -0.3957  0.6140  0.0073
 6211TIP3   OH218638   1.254   5.350   1.306  0.1114  0.1363  0.1586
 6211TIP3    H118639   1.190   5.301   1.357  0.0861 -0.2961 -0.2833
 6211TIP3    H218640   1.205   5.382   1.230 -0.0986  1.6193  0.8852
 6212TIP3   OH218641   2.511   4.685   4.527 -0.5786 -0.2727  0.1634
 6212TIP3    H118642   2.498   4.651   4.616 -1.5521  0.3777  0.2769
 6212TIP3    H218643   2.551   4.612   4.480  0.5817 -0.4041  1.3013
 6213TIP3   OH218644   5.909   1.547   1.860  0.0877  0.3176  0.0183
 6213TIP3    H118645   5.833   1.541   1.918 -0.6431 -0.2801 -0.9726
 6213TIP3    H218646   5.931   1.640   1.858  0.5505  0.2740  1.7637
 6214TIP3   OH218647   0.414   5.537   4.606 -0.4376  0.1471  0.0730
 6214TIP3    H118648   0.447   5.460   4.653  0.8163 -0.6006 -1.8718
 6214TIP3    H218649   0.427   5.515   4.514 -1.2068  2.2203 -0.5839
 6215TIP3   OH218650   1.461   5.759   3.596  0.1063  0.6366  0.1266
 6215TIP3    H118651   1.420   5.793   3.675  0.8045  1.3737  0.1848
 6215TIP3    H218652   1.391   5.761   3.530 -0.2263  0.9131  0.4839
 6216TIP3   OH218653   1.961   4.436   1.100 -0.1675  0.3197 -0.1128
 6216TIP3    H118654   2.054   4.415   1.114 -0.5452 -1.7125 -0.3857
 6216TIP3    H218655   1.949   4.520   1.145  1.4556 -0.0779  1.1792
 6217TIP3   OH218656   2.802   5.047   1.018 -0.4169 -0.6219  0.1319
 6217TIP3    H118657   2.762   5.106   0.954 -2.3286 -1.1767  0.7356
 6217TIP3    H218658   2.896   5.064   1.012 -0.7588  1.0408 -1.1084
 6218TIP3   OH218659   6.166   2.042   1.557  0.2634 -0.2077 -0.5199
 6218TIP3    H118660   6.207   1.967   1.600  0.0084 -1.0013 -1.6021
 6218TIP3    H218661   6.232   2.071   1.494  1.0386  1.5752  1.0284
 6219TIP3   OH218662   3.222   5.449   3.673 -0.1004  0.0061 -0.2615
 6219TIP3    H118663   3.297   5.509   3.678 -1.3561  1.9288 -2.4073
 6219TIP3    H218664   3.244   5.389   3.603 -0.5754  0.6709 -1.0013
 6220TIP3   OH218665   4.706   3.395   4.819  0.7249  0.3460 -0.2280
 6220TIP3    H118666   4.701   3.314   4.769 -0.2701  0.1501  0.1730
 6220TIP3    H218667   4.680   3.463   4.757 -1.0989  0.0365  0.1466
 6221TIP3   OH218668   5.863   0.050   0.094 -0.1915  0.0917  0.4183
 6221TIP3    H118669   5.770   0.031   0.094 -0.0990 -0.3888  1.1326
 6221TIP3    H218670   5.903  -0.024   0.141  0.5340  0.3271  0.1840
 6222TIP3   OH218671   2.691   1.825   4.100 -0.9016  0.4129  0.2825
 6222TIP3    H118672   2.652   1.823   4.188 -0.1682  1.4398  0.6455
 6222TIP3    H218673   2.785   1.829   4.116 -0.6099 -1.6580 -0.5829
 6223TIP3   OH218674   2.032   4.574   0.019 -0.2813 -0.0540  0.0483
 6223TIP3    H118675   2.096   4.520  -0.029 -1.4144 -0.8124 -0.6532
 6223TIP3    H218676   2.083   4.649   0.050  0.9314 -0.5838 -0.5694
 6224TIP3   OH218677   1.208   4.474   2.770  0.5710 -0.3448 -0.6606
 6224TIP3    H118678   1.118   4.458   2.743  0.0755  0.3968  0.4778
 6224TIP3    H218679   1.200   4.521   2.853  1.9976  0.2560 -0.8320
 6225TIP3   OH218680   6.335   4.768   2.732 -0.5003  0.0435 -0.2853
 6225TIP3    H118681   6.359   4.741   2.821 -1.1499 -0.8550 -0.3603
 6225TIP3    H218682   6.261   4.827   2.744 -0.1455  0.4713 -0.1973
 6226TIP3   OH218683   3.186   4.675   2.683  0.7004 -0.0692 -0.3666
 6226TIP3    H118684   3.161   4.593   2.726 -0.4810  0.2442 -0.4241
 6226TIP3    H218685   3.126   4.740   2.720  0.8390  0.5413 -1.1996
 6227TIP3   OH218686   3.302   2.997   2.920 -0.4741  0.1581 -0.2659
 6227TIP3    H118687   3.269   3.086   2.928 -0.7075  0.0816 -0.3519
 6227TIP3    H218688   3.346   2.995   2.834  2.0943  0.9983  0.9350
 6228TIP3   OH218689   0.828   4.006   2.642  0.2501 -0.6575 -0.8412
 6228TIP3    H118690   0.743   4.007   2.684  0.1151  0.1263 -1.1111
 6228TIP3    H218691   0.814   3.959   2.559  0.3598 -1.5737 -0.3569
 6229TIP3   OH218692   5.339   4.950   3.341  0.1103 -0.2584  0.1329
 6229TIP3    H118693   5.380   4.879   3.291  0.1136  0.2045 -0.5279
 6229TIP3    H218694   5.251   4.918   3.361  0.0812 -0.4205 -0.2365
 6230TIP3   OH218695   6.062   5.872   0.059 -0.0055  0.2656  0.2007
 6230TIP3    H118696   5.981   5.923   0.054  1.0469  1.8714 -2.0338
 6230TIP3    H218697   6.065   5.822  -0.022  0.6582 -0.7965  0.8424
 6231TIP3   OH218698   2.562   2.319   3.068  0.3062  0.2663  0.0190
 6231TIP3    H118699   2.495   2.309   3.136  0.3764 -1.1571 -0.0941
 6231TIP3    H218700   2.641   2.344   3.115  0.2393 -0.2584  0.4176
 6232TIP3   OH218701   4.151   2.569   1.309 -0.0527  0.6488  0.0047
 6232TIP3    H118702   4.074   2.566   1.252 -0.7057 -0.0020  0.8913
 6232TIP3    H218703   4.147   2.488   1.359  1.5722  0.3108 -0.3711
 6233TIP3   OH218704   1.195   2.705   0.397  0.2680  0.1348  0.6179
 6233TIP3    H118705   1.242   2.783   0.426 -1.1274  1.2615 -0.0463
 6233TIP3    H218706   1.103   2.726   0.408 -0.1561 -1.2501 -0.0211
 6234TIP3   OH218707   0.379   3.386   3.065  0.1953 -0.3591  0.3618
 6234TIP3    H118708   0.349   3.465   3.020 -0.2212 -0.3689  0.6101
 6234TIP3    H218709   0.468   3.407   3.095  0.6074 -0.4737 -0.7455
 6235TIP3   OH218710   0.831   5.336   4.491  0.1765 -0.5731  0.4044
 6235TIP3    H118711   0.830   5.370   4.402  0.3340  0.2625  0.7124
 6235TIP3    H218712   0.910   5.282   4.495  1.0401  0.6520  0.4857
 6236TIP3   OH218713   3.602   0.494   2.208  0.5947 -0.3040  0.5684
 6236TIP3    H118714   3.662   0.554   2.253 -0.0802  0.4547  0.4784
 6236TIP3    H218715   3.555   0.450   2.279  0.4969 -0.1059  0.6282
 6237TIP3   OH218716   4.344   0.151   2.260 -0.3480  0.1206  0.5386
 6237TIP3    H118717   4.429   0.194   2.246 -1.2831  2.1667  0.6724
 6237TIP3    H218718   4.364   0.058   2.267  1.8780  0.5549  0.5716
 6238TIP3   OH218719   2.449   1.534   0.787 -0.5200 -0.0588  0.3811
 6238TIP3    H118720   2.521   1.575   0.740  1.0740 -1.3828  1.5659
 6238TIP3    H218721   2.447   1.579   0.872 -1.7463  0.6318  0.0012
 6239TIP3   OH218722   4.387   1.207   2.196  0.4746 -0.6503 -0.1770
 6239TIP3    H118723   4.366   1.114   2.198  0.1982 -0.5838  0.8840
 6239TIP3    H218724   4.306   1.250   2.223  0.5793 -0.0988 -0.7267
 6240TIP3   OH218725   0.463   2.086   4.894 -0.2011 -0.3786  0.0446
 6240TIP3    H118726   0.415   2.113   4.973 -0.3393  0.6981 -0.3956
 6240TIP3    H218727   0.453   2.159   4.834 -0.9147 -1.5770 -1.3581
 6241TIP3   OH218728   2.377   0.601   3.183 -0.2916  0.5296  0.5793
 6241TIP3    H118729   2.374   0.688   3.223  0.6188  0.2405  1.3116
 6241TIP3    H218730   2.337   0.612   3.097 -1.3572  1.3916  1.1641
 6242TIP3   OH218731   1.629   3.209   4.145  0.2608  0.4953  0.5428
 6242TIP3    H118732   1.675   3.246   4.070 -1.1034  0.9280 -0.1233
 6242TIP3    H218733   1.568   3.279   4.171  0.2692  0.1035  1.6540
 6243TIP3   OH218734   4.002   2.758   5.003 -0.2491 -0.0889  0.1237
 6243TIP3    H118735   3.995   2.801   4.918 -1.1864 -0.9361 -0.2495
 6243TIP3    H218736   4.095   2.738   5.013 -0.2360 -0.6397 -1.0444
 6244TIP3   OH218737   3.064   3.799   4.783  0.5198  0.2762 -0.1587
 6244TIP3    H118738   2.976   3.769   4.761  1.4061 -1.8179 -1.1124
 6244TIP3    H218739   3.089   3.856   4.711  0.0854  0.6231 -0.0428
 6245TIP3   OH218740   5.143   1.868   2.706  0.1215 -0.3637 -0.0088
 6245TIP3    H118741   5.160   1.904   2.793  1.1844 -1.8040  0.3998
 6245TIP3    H218742   5.152   1.773   2.716  2.3775 -0.4701 -2.1015
 6246TIP3   OH218743   5.580   5.661   4.607 -0.5402  0.5374 -0.2686
 6246TIP3    H118744   5.567   5.571   4.576  0.3153  0.5103 -0.5794
 6246TIP3    H218745   5.620   5.706   4.533 -2.0360  1.5001 -0.5411
 6247TIP3   OH218746   0.107   1.424   2.816  0.1485  0.1534 -0.0846
 6247TIP3    H118747   0.038   1.390   2.873 -0.9400 -0.5697 -1.7837
 6247TIP3    H218748   0.093   1.380   2.732  1.8786  0.9889 -0.8502
 6248TIP3   OH218749   4.583   5.962   0.807 -0.2871  0.1663  0.3435
 6248TIP3    H118750   4.621   5.984   0.892 -1.9001 -1.8511  1.6963
 6248TIP3    H218751   4.658   5.956   0.747  0.9389  1.0781  1.7303
 6249TIP3   OH218752   5.043   0.991   3.464  0.4716 -0.1306 -0.3163
 6249TIP3    H118753   4.993   0.962   3.388  1.6768 -0.6859 -0.9279
 6249TIP3    H218754   5.133   0.963   3.446  0.7577 -0.4587  1.3949
 6250TIP3   OH218755   5.618   2.141   3.066  0.1394  0.4901  0.1899
 6250TIP3    H118756   5.603   2.062   3.118  0.4721 -0.2160 -0.7455
 6250TIP3    H218757   5.597   2.213   3.125 -1.6955 -0.3116  0.6121
 6251TIP3   OH218758   5.480   2.943   4.712 -0.1567  0.3115  0.1376
 6251TIP3    H118759   5.505   2.946   4.804 -1.3109  1.4441  0.4405
 6251TIP3    H218760   5.450   2.853   4.698 -2.9436  0.8771  1.7355
 6252TIP3   OH218761   4.042   5.196   4.593  0.0703  0.3966  0.8449
 6252TIP3    H118762   3.959   5.220   4.552 -0.6910  0.1025  2.1359
 6252TIP3    H218763   4.063   5.269   4.650  1.1365  0.8238 -0.0657
 6253TIP3   OH218764   5.492   3.494   0.475 -0.1040 -0.0174  0.2569
 6253TIP3    H118765   5.554   3.423   0.458  1.2615  1.2316 -0.2544
 6253TIP3    H218766   5.545   3.574   0.466 -1.9612  1.1488 -0.9499
 6254TIP3   OH218767   2.148   0.006   4.870 -0.3468 -0.1753  0.2947
 6254TIP3    H118768   2.066   0.045   4.900 -0.0212  1.5043 -0.8412
 6254TIP3    H218769   2.215   0.068   4.898  0.5378 -1.4453  1.0665
 6255TIP3   OH218770   1.247   3.128   1.729  0.4031 -0.2504 -0.5714
 6255TIP3    H118771   1.271   3.206   1.779  0.6848 -0.0723 -0.9803
 6255TIP3    H218772   1.159   3.147   1.696 -0.2521 -0.8231  0.7654
 6256TIP3   OH218773   0.871   3.291   4.681  0.3089  0.0955 -0.1266
 6256TIP3    H118774   0.942   3.340   4.722 -0.9660  2.0606 -0.1198
 6256TIP3    H218775   0.869   3.323   4.590 -0.9582  0.5996  0.0491
 6257TIP3   OH218776   0.940   1.901   1.640  0.2382  0.4089 -0.1337
 6257TIP3    H118777   0.927   1.954   1.718 -0.3743  0.2969 -0.1519
 6257TIP3    H218778   0.877   1.936   1.577  0.0878 -0.0963 -0.2662
 6258TIP3   OH218779   2.371   1.611   4.608  0.5834  0.1697 -0.2411
 6258TIP3    H118780   2.313   1.681   4.637  0.9389  0.0681  0.7534
 6258TIP3    H218781   2.389   1.631   4.516 -0.1030  0.8316 -0.2406
 6259TIP3   OH218782   6.234   0.550   3.309 -0.0687 -0.1720 -0.2137
 6259TIP3    H118783   6.273   0.636   3.325  2.6222 -1.3787  0.2308
 6259TIP3    H218784   6.213   0.549   3.216 -1.4863  1.4252  0.0435
 6260TIP3   OH218785   1.744   1.265   1.288  0.1782  0.6797 -0.3602
 6260TIP3    H118786   1.799   1.280   1.211 -0.7379  0.8157 -0.9990
 6260TIP3    H218787   1.745   1.170   1.301 -0.1943  0.5895 -0.9487
 6261TIP3   OH218788   1.146   5.355   1.020  0.2326  0.2086 -0.4386
 6261TIP3    H118789   1.165   5.262   1.018  1.6771  0.4794  0.0014
 6261TIP3    H218790   1.064   5.364   0.970 -1.4449 -1.6014  1.7999
 6262TIP3   OH218791   5.688   3.994   2.636 -0.6368  0.2820 -0.2822
 6262TIP3    H118792   5.655   3.923   2.581  2.2308 -1.3656 -0.0560
 6262TIP3    H218793   5.696   3.956   2.723  2.9497  0.0198 -0.5627
 6263TIP3   OH218794   0.527   1.356   0.617  0.2087  0.2332 -0.1678
 6263TIP3    H118795   0.438   1.388   0.605  1.1270  2.9027 -0.6675
 6263TIP3    H218796   0.562   1.346   0.529  0.3262 -1.1611  0.0128
 6264TIP3   OH218797   0.601   2.733   1.487 -0.0504  0.4330  0.1947
 6264TIP3    H118798   0.556   2.798   1.541  2.0623  2.0568  0.1232
 6264TIP3    H218799   0.534   2.667   1.468 -1.4730  0.9709  2.8524
 6265TIP3   OH218800   4.604   0.147   2.451  0.7972 -0.0989 -0.3260
 6265TIP3    H118801   4.614   0.055   2.427 -0.1901 -0.1205 -0.7029
 6265TIP3    H218802   4.672   0.192   2.401 -0.0764 -0.3731 -1.8302
 6266TIP3   OH218803   4.494   1.815   2.066 -0.1494  0.2552  0.1732
 6266TIP3    H118804   4.411   1.860   2.079 -0.3891 -0.2959  0.5592
 6266TIP3    H218805   4.490   1.781   1.976 -1.0846 -1.2694  0.7490
 6267TIP3   OH218806   1.394   4.476   3.163  0.0824  0.3262 -0.1508
 6267TIP3    H118807   1.412   4.458   3.255  3.5511 -0.4725 -0.8328
 6267TIP3    H218808   1.425   4.565   3.149 -2.8499  1.4685 -0.1074
 6268TIP3   OH218809   5.563   5.723   1.134 -0.0335  0.2049  0.2415
 6268TIP3    H118810   5.536   5.802   1.088  0.5251  0.5584  0.5067
 6268TIP3    H218811   5.641   5.693   1.087 -0.4368 -0.3808 -0.0610
 6269TIP3   OH218812   2.821   3.641   0.533  0.0929 -0.0697 -0.0881
 6269TIP3    H118813   2.905   3.608   0.502  0.2133  1.9374 -2.1564
 6269TIP3    H218814   2.816   3.612   0.624  2.1441 -1.8113 -0.4415
 6270TIP3   OH218815   2.569   3.836   4.194 -0.3903  0.0161 -0.6485
 6270TIP3    H118816   2.477   3.811   4.197 -0.8371  1.4061 -1.8558
 6270TIP3    H218817   2.615   3.760   4.230 -1.9089 -1.1477 -1.0348
 6271TIP3   OH218818   3.851   2.501   0.432 -0.6937 -0.2912  0.8365
 6271TIP3    H118819   3.903   2.543   0.363 -0.1460 -1.6478  0.4013
 6271TIP3    H218820   3.862   2.407   0.417 -1.7742 -0.6079  1.8792
 6272TIP3   OH218821   1.491   3.386   3.118  0.0368 -0.4590 -0.1433
 6272TIP3    H118822   1.482   3.480   3.106 -1.0755 -0.1396  2.4258
 6272TIP3    H218823   1.401   3.353   3.123  0.3898 -1.8012 -1.6184
 6273TIP3   OH218824   1.674   1.695   4.289  0.3547  0.2859  0.2528
 6273TIP3    H118825   1.608   1.761   4.267 -0.4871 -0.7143 -0.3117
 6273TIP3    H218826   1.692   1.710   4.382 -1.3031  0.0601  0.6424
 6274TIP3   OH218827   0.949   5.753   3.131  0.1100 -0.4927  0.1537
 6274TIP3    H118828   0.884   5.719   3.070  0.8145  0.8306 -1.4038
 6274TIP3    H218829   1.021   5.784   3.076  0.2466  1.9009  1.5253
 6275TIP3   OH218830   5.373   1.615   0.459 -0.1075  0.6404  0.2868
 6275TIP3    H118831   5.385   1.695   0.511 -1.7654 -1.0683  3.5773
 6275TIP3    H218832   5.284   1.622   0.425 -0.1713  0.3014  0.3846
 6276TIP3   OH218833   5.252   4.146   3.237  0.5733  0.0300  0.6162
 6276TIP3    H118834   5.196   4.221   3.219  0.0705 -0.8972 -2.2503
 6276TIP3    H218835   5.220   4.111   3.320 -0.1833  2.0522  1.2305
 6277TIP3   OH218836   0.825   3.669   4.372  0.2237  0.2442  0.4236
 6277TIP3    H118837   0.784   3.689   4.288 -0.5861 -2.5809  0.0358
 6277TIP3    H218838   0.752   3.661   4.433  0.4768 -0.9698  0.6010
 6278TIP3   OH218839   6.309   1.202   0.817  0.1021 -0.3334  0.4208
 6278TIP3    H118840   6.320   1.249   0.734  0.4683  0.3428  0.8417
 6278TIP3    H218841   6.231   1.147   0.803 -0.5710  0.6867  0.0435
 6279TIP3   OH218842   5.076   5.773   2.908 -0.1478  0.0944 -0.7461
 6279TIP3    H118843   5.168   5.746   2.906 -0.7486 -2.1168 -0.8503
 6279TIP3    H218844   5.049   5.773   2.816 -0.5675 -0.4883 -0.6298
 6280TIP3   OH218845   3.741   1.417   1.237  0.3223  0.0344 -1.0563
 6280TIP3    H118846   3.780   1.348   1.184  1.1265  1.5880 -2.5948
 6280TIP3    H218847   3.785   1.497   1.208  0.2621  1.0898  1.4586
 6281TIP3   OH218848   4.525   4.302   3.829  0.4055  0.2693 -0.0439
 6281TIP3    H118849   4.523   4.252   3.748 -1.0593  2.2891 -1.3638
 6281TIP3    H218850   4.573   4.247   3.891 -0.2332 -2.2426 -1.6567
 6282TIP3   OH218851   2.906   2.426   2.074 -0.1765  0.4515  0.0948
 6282TIP3    H118852   2.937   2.335   2.063 -1.7295  0.0251 -1.1969
 6282TIP3    H218853   2.981   2.480   2.047  0.9767 -0.3953  1.4419
 6283TIP3   OH218854   2.418   4.583   2.819  0.4291 -0.2365  0.0397
 6283TIP3    H118855   2.421   4.673   2.851  1.3881  0.3524 -1.6008
 6283TIP3    H218856   2.325   4.563   2.813  0.2031  0.1317  1.7008
 6284TIP3   OH218857   3.094   5.118   3.873 -0.3723  0.0816  0.2432
 6284TIP3    H118858   3.105   5.141   3.781  0.2763  0.7125  0.4736
 6284TIP3    H218859   3.092   5.202   3.919  0.7764 -0.2677  0.9665
 6285TIP3   OH218860   3.184   3.623   1.317  0.1999 -0.0518 -0.2609
 6285TIP3    H118861   3.250   3.564   1.281  0.1508 -0.5968  0.5117
 6285TIP3    H218862   3.234   3.699   1.348  0.3870 -0.1557 -0.3069
 6286TIP3   OH218863   2.772   2.132   2.013  0.0048  0.7334 -0.0126
 6286TIP3    H118864   2.785   2.052   1.963 -0.7244 -0.0195  0.9655
 6286TIP3    H218865   2.738   2.195   1.949  0.2146  0.1551 -0.7046
 6287TIP3   OH218866   3.034   0.756   1.825  0.4765  0.3565  0.8903
 6287TIP3    H118867   3.041   0.754   1.729 -1.3939  4.3284  0.4741
 6287TIP3    H218868   3.122   0.783   1.854  0.9459 -0.4692  0.2815
 6288TIP3   OH218869   1.040   2.548   1.728 -0.0351 -0.3678 -0.1966
 6288TIP3    H118870   0.980   2.623   1.727  0.1585 -0.2130 -1.1485
 6288TIP3    H218871   1.022   2.502   1.647  1.6312  0.0939 -0.8733
 6289TIP3   OH218872   3.727   1.819   4.796  0.0362 -0.1674  0.5140
 6289TIP3    H118873   3.719   1.724   4.808 -1.4633 -0.1460 -0.1401
 6289TIP3    H218874   3.816   1.831   4.762 -0.2612 -1.4948 -0.8288
 6290TIP3   OH218875   2.942   0.860   0.151 -0.6904 -0.3497  0.0890
 6290TIP3    H118876   2.963   0.774   0.189  0.8156 -0.0196  0.0665
 6290TIP3    H218877   2.917   0.840   0.060  1.7067 -0.6363 -0.5833
 6291TIP3   OH218878   1.611   5.364   3.938 -0.0830  0.4163 -0.8864
 6291TIP3    H118879   1.692   5.410   3.962  0.0821 -0.1027 -0.4502
 6291TIP3    H218880   1.607   5.289   3.997  0.1115 -0.6484 -2.1874
 6292TIP3   OH218881   3.401   1.617   3.094 -0.2673 -0.0800  0.1316
 6292TIP3    H118882   3.456   1.560   3.149 -0.6053 -1.0166 -0.4700
 6292TIP3    H218883   3.396   1.571   3.010  0.2154  1.3156 -0.6820
 6293TIP3   OH218884   0.486   0.057   2.276 -0.1684 -0.1517  0.4270
 6293TIP3    H118885   0.425  -0.016   2.265 -1.8010  1.0881  0.8327
 6293TIP3    H218886   0.445   0.113   2.342  0.0793  2.0472 -1.1587
 6294TIP3   OH218887   0.709   4.743   3.843  0.0896 -0.2410 -0.3078
 6294TIP3    H118888   0.621   4.780   3.847  0.1944 -0.0803  2.3484
 6294TIP3    H218889   0.710   4.676   3.912  1.8398 -0.6942 -0.7325
 6295TIP3   OH218890   2.074   4.521   4.256 -0.1080  0.5235 -0.1859
 6295TIP3    H118891   2.003   4.470   4.293  0.2661 -0.3948 -0.6903
 6295TIP3    H218892   2.103   4.578   4.327 -0.2694 -0.2588  0.5168
 6296TIP3   OH218893   6.329   5.708   4.324 -0.3901  0.9471 -0.3373
 6296TIP3    H118894   6.344   5.802   4.325  1.7550  0.6688 -0.6194
 6296TIP3    H218895   6.234   5.698   4.316 -0.8065  3.0568  1.2821
 6297TIP3   OH218896  -0.028   3.198   2.986 -0.0486  0.2014  0.7430
 6297TIP3    H118897   0.039   3.264   3.005 -0.1662  0.3123  0.7698
 6297TIP3    H218898   0.020   3.115   2.988  0.3943  0.3982 -0.6922
 6298TIP3   OH218899   4.831   4.546   4.463  0.2366 -0.0963  0.9411
 6298TIP3    H118900   4.898   4.613   4.472  0.2220 -0.2281  2.2094
 6298TIP3    H218901   4.879   4.466   4.447  0.2410  0.2435 -0.9333
 6299TIP3   OH218902   3.279   4.159   2.598  0.3598 -0.3311 -0.0987
 6299TIP3    H118903   3.301   4.250   2.618  0.2748 -0.5401  1.0470
 6299TIP3    H218904   3.364   4.116   2.587  0.4082  0.3683 -3.2303
 6300TIP3   OH218905   2.369   2.610   0.619  0.4163  0.1473 -0.8895
 6300TIP3    H118906   2.423   2.531   0.624 -0.3826 -0.4007 -0.8028
 6300TIP3    H218907   2.396   2.663   0.694 -0.7073 -1.1180  0.4606
 6301TIP3   OH218908   5.505   3.106   1.406  0.3039 -0.0229 -0.1276
 6301TIP3    H118909   5.543   3.160   1.337  1.5843  0.1183  0.6513
 6301TIP3    H218910   5.471   3.029   1.360  0.7048  0.2930 -0.9717
 6302TIP3   OH218911   4.768   1.145   3.123 -0.0086 -0.1871  0.4950
 6302TIP3    H118912   4.732   1.225   3.083  1.8907 -0.1535 -1.3673
 6302TIP3    H218913   4.712   1.075   3.090 -1.0882  0.2585  1.3336
 6303TIP3   OH218914   5.058   1.733   1.780 -0.4752 -0.3941  0.0368
 6303TIP3    H118915   5.011   1.754   1.699 -1.4286  0.4184  0.7807
 6303TIP3    H218916   4.990   1.733   1.848  0.1612 -1.8883  0.7228
 6304TIP3   OH218917   2.576   5.805   2.694 -0.2362 -0.2925  0.0414
 6304TIP3    H118918   2.668   5.797   2.666 -0.0844  1.0650  0.0995
 6304TIP3    H218919   2.582   5.826   2.787 -0.6175 -0.5327  0.1187
 6305TIP3   OH218920   4.821   3.256   2.191 -0.3334  0.3251  0.6624
 6305TIP3    H118921   4.856   3.167   2.184 -0.2912  0.3764  0.1995
 6305TIP3    H218922   4.773   3.269   2.109  0.6795  1.1712  0.1890
 6306TIP3   OH218923   6.156   1.699   0.293  0.2330 -0.3846  0.1504
 6306TIP3    H118924   6.135   1.777   0.344 -0.1965  0.0020 -0.5959
 6306TIP3    H218925   6.228   1.727   0.236 -1.5880  0.2984 -1.9668
 6307TIP3   OH218926   4.657   5.210   2.341 -0.3851 -0.2662  0.3360
 6307TIP3    H118927   4.712   5.262   2.400 -1.6946  1.2861  0.2322
 6307TIP3    H218928   4.583   5.183   2.395 -1.7925  1.4877 -0.6328
 6308TIP3   OH218929   1.134   3.701   3.611 -0.6671  0.2371 -0.4629
 6308TIP3    H118930   1.089   3.691   3.695  1.9852  0.1470  1.0323
 6308TIP3    H218931   1.156   3.793   3.605 -0.6151  0.1989 -0.9654
 6309TIP3   OH218932   1.066   1.626   1.427 -0.3746 -0.3505 -0.3385
 6309TIP3    H118933   1.095   1.562   1.491  0.7300  0.0017 -0.4728
 6309TIP3    H218934   1.128   1.698   1.435 -0.6027 -0.0217 -1.3574
 6310TIP3   OH218935   1.347   4.112   0.307  0.0433 -1.0633 -0.7788
 6310TIP3    H118936   1.436   4.079   0.321 -0.0763 -1.2318 -0.3872
 6310TIP3    H218937   1.319   4.141   0.394  1.1759  2.7680 -1.4781
 6311TIP3   OH218938   5.669   4.113   3.054 -0.2000  0.5904  0.1577
 6311TIP3    H118939   5.593   4.172   3.052 -1.0432 -0.4575  0.2050
 6311TIP3    H218940   5.663   4.070   3.139 -0.2622 -0.3859 -0.3290
 6312TIP3   OH218941   3.265   5.492   2.957  0.4686 -0.8869 -0.4980
 6312TIP3    H118942   3.280   5.494   3.052  1.6775  0.2465 -0.6812
 6312TIP3    H218943   3.309   5.412   2.928  1.6980 -0.2903 -0.3262
 6313TIP3   OH218944   2.923   5.211   0.573  0.0276 -0.1140 -0.3057
 6313TIP3    H118945   2.963   5.269   0.508 -0.6021  0.5856 -0.0784
 6313TIP3    H218946   2.889   5.138   0.521  1.9993 -0.9863 -0.4552
 6314TIP3   OH218947   4.693   2.928   2.008 -0.2548  0.1893 -0.2241
 6314TIP3    H118948   4.622   2.907   1.949 -0.2458  0.4530 -0.3307
 6314TIP3    H218949   4.661   2.903   2.095 -0.9498  1.4007 -0.1009
 6315TIP3   OH218950   0.423   3.870   5.134  0.8828 -0.2982  0.6816
 6315TIP3    H118951   0.361   3.800   5.156 -1.2673  1.0671 -0.6296
 6315TIP3    H218952   0.415   3.879   5.039  1.4720  1.4188  0.7719
 6316TIP3   OH218953   4.941   5.402   1.046 -0.7482  0.2855  0.0326
 6316TIP3    H118954   4.886   5.402   1.125  1.1577  0.8448  1.4300
 6316TIP3    H218955   5.030   5.392   1.079  0.1012  0.3900 -2.0907
 6317TIP3   OH218956   1.510   0.192   4.406 -0.3475 -0.3658  0.0611
 6317TIP3    H118957   1.534   0.102   4.381 -0.1300 -0.7032  1.3671
 6317TIP3    H218958   1.415   0.195   4.396 -0.2052 -0.2283 -1.4926
 6318TIP3   OH218959   4.889   3.625   4.845  0.0798  0.4445 -0.0174
 6318TIP3    H118960   4.846   3.710   4.839  0.2462  0.6228  1.0262
 6318TIP3    H218961   4.819   3.563   4.863 -0.0617  0.3350 -0.9402
 6319TIP3   OH218962   0.121   4.243   4.183  0.1270 -0.1352  0.4049
 6319TIP3    H118963   0.065   4.307   4.139 -0.7202 -0.9282  0.2978
 6319TIP3    H218964   0.193   4.295   4.218  0.0795  0.7179 -0.6795
 6320TIP3   OH218965   4.681   0.428   1.550 -0.2130  0.2450  0.0175
 6320TIP3    H118966   4.765   0.389   1.524 -0.7815  0.0161 -1.6047
 6320TIP3    H218967   4.702   0.481   1.627  1.7346  1.3396 -1.1638
 6321TIP3   OH218968   1.830   2.628   2.179  0.0483  0.9470 -0.0369
 6321TIP3    H118969   1.875   2.653   2.098  1.8926 -0.2211  0.5580
 6321TIP3    H218970   1.814   2.710   2.224  2.3933  1.4257  0.0747
 6322TIP3   OH218971   3.023   3.472   3.609 -0.1990  0.2669  0.0469
 6322TIP3    H118972   2.994   3.441   3.523  1.6324 -1.5515  0.0246
 6322TIP3    H218973   2.965   3.428   3.671  0.9672 -1.5673 -0.1048
 6323TIP3   OH218974   0.752   0.049   0.809 -0.3298  0.4191  0.4860
 6323TIP3    H118975   0.675   0.106   0.805 -0.5313  0.0811 -0.6567
 6323TIP3    H218976   0.715  -0.040   0.810  0.0334  0.2692  0.7460
 6324TIP3   OH218977   1.489   0.272   3.036  0.0049  0.4722  0.1007
 6324TIP3    H118978   1.533   0.315   2.963 -1.1099 -0.0053 -0.8954
 6324TIP3    H218979   1.447   0.195   2.996 -0.7534  0.2822  1.2180
 6325TIP3   OH218980   4.275   5.698   1.205 -0.0159 -0.3841  0.3251
 6325TIP3    H118981   4.321   5.715   1.123 -0.9558 -1.0305 -0.3604
 6325TIP3    H218982   4.196   5.651   1.179 -0.9638  0.4902  1.4812
 6326TIP3   OH218983   0.104   2.383   4.903  0.2148  0.0911 -0.3455
 6326TIP3    H118984   0.086   2.476   4.889 -0.6104 -0.0301 -0.1199
 6326TIP3    H218985   0.042   2.338   4.847 -1.1663 -0.3539  1.4278
 6327TIP3   OH218986   3.239   4.840   1.734 -0.4284  0.3345 -0.2765
 6327TIP3    H118987   3.250   4.901   1.661 -1.4885 -1.4081 -1.9870
 6327TIP3    H218988   3.148   4.811   1.728 -0.3290 -0.4249  1.3067
 6328TIP3   OH218989   4.244   4.382   4.122 -0.2243 -0.0342  0.3242
 6328TIP3    H118990   4.296   4.444   4.071 -1.1176  1.4615  1.1613
 6328TIP3    H218991   4.221   4.429   4.202 -1.3439 -1.2810  0.7845
 6329TIP3   OH218992   5.211   1.729   0.780 -0.4606  0.2439 -0.1390
 6329TIP3    H118993   5.162   1.653   0.748 -0.9231 -0.5948  2.3381
 6329TIP3    H218994   5.267   1.754   0.707 -3.2659  0.1776 -2.5224
 6330TIP3   OH218995   1.991   1.521   2.680 -0.0644  0.1978  0.0489
 6330TIP3    H118996   1.930   1.480   2.619  0.9492  0.2811 -1.0763
 6330TIP3    H218997   2.069   1.466   2.676  0.2646  0.5997  0.7614
 6331TIP3   OH218998   1.084   3.822   1.031  0.0229  0.4316 -0.2396
 6331TIP3    H118999   1.118   3.817   1.121  0.4894  0.4449 -0.4151
 6331TIP3    H219000   1.000   3.776   1.035 -1.4296  2.9529  0.8927
 6332TIP3   OH219001   0.794   5.283   2.793  0.8369 -0.2193 -0.0403
 6332TIP3    H119002   0.848   5.323   2.725  2.1295  0.7500  1.4587
 6332TIP3    H219003   0.807   5.340   2.869 -0.2425 -1.4588  1.1202
 6333TIP3   OH219004   1.824   4.768   3.888 -0.0648 -0.3622 -0.3908
 6333TIP3    H119005   1.891   4.744   3.952 -0.0722  0.7971  0.0742
 6333TIP3    H219006   1.873   4.784   3.807  0.1399 -0.1665 -0.2285
 6334TIP3   OH219007   3.377   2.602   3.918 -0.1122  0.5521  0.0487
 6334TIP3    H119008   3.340   2.583   3.831  0.3079 -1.2321  0.2172
 6334TIP3    H219009   3.471   2.590   3.907  0.2846  3.0499  0.1228
 6335TIP3   OH219010   1.868   5.422   0.050  0.2950  0.0930 -0.3623
 6335TIP3    H119011   1.848   5.452  -0.039  1.1253 -0.2679 -0.6891
 6335TIP3    H219012   1.885   5.502   0.098 -0.0065  0.2864 -0.5740
 6336TIP3   OH219013   5.619   0.083   1.797  0.0241 -0.0969  0.4727
 6336TIP3    H119014   5.665   0.052   1.719  1.3344  1.2738  0.6489
 6336TIP3    H219015   5.680   0.067   1.869 -0.5992 -0.0699  1.0174
 6337TIP3   OH219016   0.937   5.450   0.821  0.2014  0.2193 -0.2764
 6337TIP3    H119017   0.943   5.404   0.738 -1.0032 -0.2162 -0.1525
 6337TIP3    H219018   0.964   5.540   0.802 -1.4928  0.5122 -1.4970
 6338TIP3   OH219019   6.315   3.081   4.170 -0.3251  0.3220 -0.3256
 6338TIP3    H119020   6.408   3.065   4.188 -0.0141  0.8747 -1.4088
 6338TIP3    H219021   6.276   3.091   4.257  0.5033 -0.5444  0.1698
 6339TIP3   OH219022   3.884   2.362   0.820 -0.3442 -0.1331 -0.0843
 6339TIP3    H119023   3.976   2.384   0.806  0.2380 -2.0413  0.4268
 6339TIP3    H219024   3.836   2.437   0.786  1.3669  0.5814 -1.0655
 6340TIP3   OH219025   5.818   3.383   1.697 -0.4312 -0.3012  0.0684
 6340TIP3    H119026   5.799   3.311   1.638 -2.1707 -0.7008  1.0676
 6340TIP3    H219027   5.733   3.410   1.732  0.4966  0.0335  2.2399
 6341TIP3   OH219028   3.712   5.758   1.792 -0.2068  0.2306  0.0548
 6341TIP3    H119029   3.632   5.712   1.770  0.3137 -0.1816 -1.0212
 6341TIP3    H219030   3.730   5.814   1.716 -0.3740  1.6068  0.9853
 6342TIP3   OH219031   5.740   3.838   0.848 -0.2112  0.9389 -0.6413
 6342TIP3    H119032   5.676   3.772   0.873  0.3653  1.0182  1.1483
 6342TIP3    H219033   5.785   3.800   0.772  0.1751 -0.7867  0.4042
 6343TIP3   OH219034   2.149   1.124   0.992  0.5767  0.2735  0.1573
 6343TIP3    H119035   2.078   1.181   0.963 -1.0308 -2.1026 -0.8459
 6343TIP3    H219036   2.212   1.126   0.921 -1.5735 -2.5239 -2.0812
 6344TIP3   OH219037   5.690   0.459   3.455  0.1351  0.2329  0.8242
 6344TIP3    H119038   5.608   0.412   3.444 -0.8536  1.8300  1.0734
 6344TIP3    H219039   5.740   0.407   3.519 -1.0736 -0.2571  1.3934
 6345TIP3   OH219040   3.265   3.369   2.056 -0.1541 -0.0778  0.3573
 6345TIP3    H119041   3.335   3.325   2.105 -2.7159 -2.2476  2.3986
 6345TIP3    H219042   3.278   3.341   1.965  0.3653 -2.3391  1.0612
 6346TIP3   OH219043   1.712   4.734   1.782  0.6768  0.0225  0.3814
 6346TIP3    H119044   1.783   4.701   1.726  0.8290  1.1136 -0.0815
 6346TIP3    H219045   1.755   4.751   1.866  1.4204  2.3948 -0.4022
 6347TIP3   OH219046   5.815   1.537   5.119 -0.2623  0.0780 -0.1272
 6347TIP3    H119047   5.832   1.569   5.030 -0.0512  0.6449  0.1137
 6347TIP3    H219048   5.858   1.451   5.123 -0.8123 -0.2375 -0.7702
 6348TIP3   OH219049   3.968   2.491   4.497 -0.6127 -0.5020  0.0212
 6348TIP3    H119050   4.000   2.549   4.427  0.2630 -0.7530  0.1988
 6348TIP3    H219051   3.934   2.415   4.452 -1.1063 -0.1611 -0.1832
 6349TIP3   OH219052   2.586   2.894   4.970  0.8360  0.6243  0.4532
 6349TIP3    H119053   2.599   2.971   4.915 -0.3166  0.6617  0.2046
 6349TIP3    H219054   2.506   2.913   5.019 -0.1232 -0.8832 -0.4632
 6350TIP3   OH219055   2.157   5.122   3.418 -0.1697  0.6587 -0.5307
 6350TIP3    H119056   2.069   5.146   3.390 -0.6534 -0.2782  0.1360
 6350TIP3    H219057   2.215   5.159   3.352 -1.1220  0.6011 -1.4103
 6351TIP3   OH219058   5.151   5.755   4.216 -0.1555 -0.5671 -0.0291
 6351TIP3    H119059   5.159   5.682   4.156  2.0659 -1.4232  1.1913
 6351TIP3    H219060   5.199   5.826   4.175 -0.8712 -0.3035 -0.4317
 6352TIP3   OH219061   5.983   2.138   5.123 -0.0825  0.1158  0.5340
 6352TIP3    H119062   6.034   2.130   5.203  3.0775  1.6198 -1.1579
 6352TIP3    H219063   5.956   2.230   5.121  0.3435  0.2252 -0.3767
 6353TIP3   OH219064   0.311   3.561   4.400 -0.2541  0.0202 -0.2248
 6353TIP3    H119065   0.389   3.549   4.454 -0.1189 -1.8278 -0.7639
 6353TIP3    H219066   0.339   3.540   4.311 -0.8017  1.7284 -0.8446
 6354TIP3   OH219067   5.358   3.994   4.773 -0.0635  0.8287  0.4628
 6354TIP3    H119068   5.390   4.084   4.774  2.1273  0.1080  0.3406
 6354TIP3    H219069   5.398   3.955   4.696 -2.0685  0.0685 -0.2612
 6355TIP3   OH219070   4.021   1.290   0.551  0.2806  0.0964  0.7364
 6355TIP3    H119071   3.989   1.352   0.617  1.3423  1.9556 -0.3970
 6355TIP3    H219072   3.958   1.218   0.552 -1.0569  1.2232  2.0661
 6356TIP3   OH219073   6.146   5.978   1.874  0.0432  0.3410  0.7881
 6356TIP3    H119074   6.231   5.949   1.907 -0.4553  0.7308  2.5433
 6356TIP3    H219075   6.082   5.942   1.936 -0.9544  1.2026  0.3057
 6357TIP3   OH219076   0.056   5.569   0.067 -0.4346 -0.6783 -0.4781
 6357TIP3    H119077   0.075   5.570   0.161 -1.9568  1.2804 -0.1284
 6357TIP3    H219078  -0.022   5.514   0.058  1.1041 -2.9330 -1.0011
 6358TIP3   OH219079   1.066   4.669   0.263 -0.0193 -0.6160  0.0733
 6358TIP3    H119080   1.065   4.579   0.231 -1.1869 -0.5915 -0.0081
 6358TIP3    H219081   1.112   4.663   0.347  1.2078 -1.0256 -0.6096
 6359TIP3   OH219082   3.468   4.734   3.188 -0.4294 -0.2948 -0.4255
 6359TIP3    H119083   3.535   4.718   3.122 -0.8870  1.2289 -1.3000
 6359TIP3    H219084   3.500   4.809   3.238 -1.5719  0.6498 -1.0535
 6360TIP3   OH219085   1.605   5.159   5.082 -0.1712 -0.4612 -0.0686
 6360TIP3    H119086   1.629   5.088   5.023 -1.4981 -3.0229  2.2230
 6360TIP3    H219087   1.535   5.206   5.037 -0.1576 -1.4079 -1.1144
 6361TIP3   OH219088   1.976   3.868   4.495 -0.1842  0.4757 -0.1147
 6361TIP3    H119089   2.059   3.835   4.462 -0.8880 -1.0869 -0.4030
 6361TIP3    H219090   1.938   3.794   4.542 -0.2665  1.9403  2.2659
 6362TIP3   OH219091   4.194   4.605   4.273 -0.0839  0.2746 -0.3521
 6362TIP3    H119092   4.143   4.624   4.352  0.4476 -1.8274  0.5543
 6362TIP3    H219093   4.244   4.685   4.257  2.5945 -0.3562  3.6042
 6363TIP3   OH219094   0.239   1.435   3.161 -0.0658  0.1063  0.0069
 6363TIP3    H119095   0.156   1.441   3.209 -0.5839  0.2977 -0.8919
 6363TIP3    H219096   0.280   1.356   3.194  0.1158  0.8045  1.5693
 6364TIP3   OH219097   3.486   1.849   3.233  0.0794 -0.2175 -0.3803
 6364TIP3    H119098   3.503   1.842   3.327 -0.7749  0.9794 -0.1185
 6364TIP3    H219099   3.436   1.770   3.211  0.4177 -0.5800  0.1205
 6365TIP3   OH219100   3.234   3.596   3.336 -0.2371  0.0702 -0.4706
 6365TIP3    H119101   3.236   3.575   3.429 -1.9413  0.6089 -0.2701
 6365TIP3    H219102   3.222   3.690   3.332  1.4185  0.2815 -1.2870
 6366TIP3   OH219103   3.648   5.368   3.943 -0.1120  0.1869  0.2306
 6366TIP3    H119104   3.691   5.340   3.862  1.3793  1.6539  0.4617
 6366TIP3    H219105   3.556   5.378   3.919 -0.1176 -1.6011 -0.6651
 6367TIP3   OH219106   2.915   3.986   3.760  0.3858  0.0298 -0.0321
 6367TIP3    H119107   2.950   4.014   3.844 -0.2522 -0.8605  0.5481
 6367TIP3    H219108   2.979   4.016   3.696  1.8065 -0.8654  0.9164
 6368TIP3   OH219109   2.773   1.329   4.906  0.1440  0.1268  0.1493
 6368TIP3    H119110   2.749   1.408   4.858 -0.8864 -1.1139 -1.4867
 6368TIP3    H219111   2.774   1.260   4.840  1.4533 -1.1749  1.4442
 6369TIP3   OH219112   0.005   0.084   2.901  0.0436 -0.1642 -0.1684
 6369TIP3    H119113  -0.041   0.003   2.877  0.0215 -0.2527  0.1775
 6369TIP3    H219114   0.084   0.083   2.847  1.0471 -1.3957  1.2344
 6370TIP3   OH219115   1.795   3.904   3.760  0.0275 -0.0877  0.4376
 6370TIP3    H119116   1.791   3.886   3.666 -0.9687  0.6867  0.3196
 6370TIP3    H219117   1.843   3.830   3.797  0.8425 -0.1709 -0.7348
 6371TIP3   OH219118   1.545   4.369   0.645  0.1441  0.4824 -0.3944
 6371TIP3    H119119   1.638   4.356   0.664 -0.1733 -0.9505  0.3099
 6371TIP3    H219120   1.525   4.455   0.682  1.0450  0.5184  0.0378
 6372TIP3   OH219121   3.714   4.890   4.882  0.2456  0.6255  0.4305
 6372TIP3    H119122   3.802   4.909   4.850  0.0435 -0.1857 -0.6731
 6372TIP3    H219123   3.662   4.878   4.803 -1.3913  3.2245  1.0080
 6373TIP3   OH219124   5.123   0.763   1.663 -0.0376  0.4483  0.0249
 6373TIP3    H119125   5.199   0.816   1.639  0.1821  0.5422  0.8698
 6373TIP3    H219126   5.159   0.677   1.683 -0.5352 -0.4359 -2.5399
 6374TIP3   OH219127   4.772   5.456   1.878  0.6253 -0.8079  0.1272
 6374TIP3    H119128   4.782   5.401   1.956 -0.5802  0.2013  1.0448
 6374TIP3    H219129   4.684   5.494   1.888  1.2708  0.9588 -0.6703
 6375TIP3   OH219130   1.965   2.288   1.247  0.3609 -0.4404  0.2528
 6375TIP3    H119131   1.900   2.343   1.291 -0.2490 -1.6214  0.8990
 6375TIP3    H219132   2.015   2.249   1.319  0.7803 -0.7165 -0.1844
 6376TIP3   OH219133   0.572   2.028   2.702  0.1539 -0.4624 -0.2026
 6376TIP3    H119134   0.606   1.962   2.762 -0.7412 -1.5355 -0.8326
 6376TIP3    H219135   0.481   2.040   2.727  0.6241  1.5382  0.7335
 6377TIP3   OH219136   2.710   2.051   3.204  0.9970  0.2432  0.2916
 6377TIP3    H119137   2.742   2.050   3.294  0.5213  1.0971  0.4894
 6377TIP3    H219138   2.772   2.107   3.157  0.2941  1.2174  0.4906
 6378TIP3   OH219139   4.910   3.847   1.224  0.3498  0.0005  0.4303
 6378TIP3    H119140   4.897   3.926   1.172  0.4644  0.4962  1.1389
 6378TIP3    H219141   5.004   3.843   1.238  0.4915 -0.9707 -0.6730
 6379TIP3   OH219142   4.415   0.361   2.475 -0.7338 -1.0178  0.4581
 6379TIP3    H119143   4.464   0.279   2.485 -0.6797 -1.2510 -1.2484
 6379TIP3    H219144   4.477   0.419   2.431 -0.8415 -0.1176  1.4763
 6380TIP3   OH219145   6.351   2.629   4.836  0.0425 -0.0804 -0.0040
 6380TIP3    H119146   6.298   2.679   4.774  0.7533  0.4518 -0.1973
 6380TIP3    H219147   6.335   2.670   4.921 -0.4496 -0.4127  0.0649
 6381TIP3   OH219148   1.857   1.159   1.668  0.3035 -0.0588 -0.3513
 6381TIP3    H119149   1.781   1.188   1.617 -0.7774 -2.1453 -0.0147
 6381TIP3    H219150   1.933   1.182   1.614 -0.5960  1.1652 -1.1491
 6382TIP3   OH219151   4.273   0.488   4.727 -0.2065  0.2305 -1.0238
 6382TIP3    H119152   4.266   0.539   4.808  0.3030  0.5660 -1.1907
 6382TIP3    H219153   4.203   0.423   4.735  2.0132 -2.1010  1.3702
 6383TIP3   OH219154   3.208   2.520   1.902 -1.0658  0.1705  0.1758
 6383TIP3    H119155   3.241   2.467   1.829  1.1463  1.8519 -0.1620
 6383TIP3    H219156   3.180   2.602   1.860 -2.3580  0.1358  0.9281
 6384TIP3   OH219157   2.567   5.146   3.785  0.0377 -0.0949  0.3305
 6384TIP3    H119158   2.515   5.141   3.705  0.3054  0.4167  0.1227
 6384TIP3    H219159   2.644   5.198   3.761  0.6308 -0.8129  0.6451
 6385TIP3   OH219160   4.996   3.035   3.466 -0.4073  0.4516  0.3651
 6385TIP3    H119161   4.983   3.055   3.558 -0.4761  0.9192  0.2556
 6385TIP3    H219162   5.022   2.943   3.465  2.6916  1.1948  1.1364
 6386TIP3   OH219163   4.508   2.400   1.461  0.3444 -0.1167 -0.5921
 6386TIP3    H119164   4.601   2.419   1.470  0.6957 -1.4180 -1.1970
 6386TIP3    H219165   4.464   2.467   1.513  1.6681 -0.1644  0.6319
 6387TIP3   OH219166   1.987   5.192   0.192 -0.4461  0.2900  0.4702
 6387TIP3    H119167   1.904   5.151   0.215 -1.2262  1.9360  0.6841
 6387TIP3    H219168   1.963   5.273   0.147  1.0528 -0.3088 -1.5902
 6388TIP3   OH219169   3.683   2.779   3.946 -0.1106  0.0294  0.3132
 6388TIP3    H119170   3.673   2.685   3.955 -0.4337  0.1570  1.4379
 6388TIP3    H219171   3.763   2.790   3.893 -0.3371 -0.8630 -0.2294
 6389TIP3   OH219172   4.876   4.963   4.382  0.6873 -0.5566  0.4711
 6389TIP3    H119173   4.928   4.917   4.317 -1.1961 -1.3599 -0.5546
 6389TIP3    H219174   4.916   4.940   4.466  0.2376 -3.5905 -0.0361
 6390TIP3   OH219175   1.888   4.644   3.041 -0.8453 -0.0287  0.1969
 6390TIP3    H119176   1.829   4.569   3.049 -0.0127 -0.5039  3.2079
 6390TIP3    H219177   1.976   4.605   3.042 -0.4216  0.9040  0.8952
 6391TIP3   OH219178   3.385   2.129   0.676  0.6399 -0.3400  0.0831
 6391TIP3    H119179   3.384   2.040   0.710  0.0174 -0.0601  0.8241
 6391TIP3    H219180   3.443   2.125   0.600  0.6200 -1.3718  0.1069
 6392TIP3   OH219181   5.789   4.887   0.013 -0.4293  0.8105 -0.4795
 6392TIP3    H119182   5.762   4.895   0.105 -0.2423 -2.1434 -0.0666
 6392TIP3    H219183   5.852   4.816   0.013  0.9396  1.9216 -2.7052
 6393TIP3   OH219184   2.083   0.261   2.548  0.5456 -1.4582  0.0853
 6393TIP3    H119185   2.031   0.216   2.481  1.7326 -2.4768 -0.1965
 6393TIP3    H219186   2.134   0.325   2.499 -0.9619  0.1000  0.4581
 6394TIP3   OH219187   1.880   4.065   2.892  0.4066  0.3637  0.6944
 6394TIP3    H119188   1.895   4.050   2.799  1.2800  1.2868  0.6682
 6394TIP3    H219189   1.967   4.071   2.930  0.1336  2.5455  1.1167
 6395TIP3   OH219190   1.757   1.764   3.414 -0.2174  0.3888 -0.0437
 6395TIP3    H119191   1.673   1.725   3.391  0.5897 -0.8054 -1.1218
 6395TIP3    H219192   1.818   1.690   3.415  1.0352  1.3844 -0.3912
 6396TIP3   OH219193   1.078   5.107   1.397 -0.1803  0.1256  0.1004
 6396TIP3    H119194   1.004   5.165   1.377 -0.3830  0.0887  0.7254
 6396TIP3    H219195   1.038   5.021   1.410 -0.0447  0.1288  0.5507
 6397TIP3   OH219196   3.693   4.854   2.264  0.0231 -0.2625  0.2736
 6397TIP3    H119197   3.637   4.796   2.316 -0.4736  0.7260  0.8778
 6397TIP3    H219198   3.773   4.804   2.250 -0.7354 -1.4444 -0.0113
 6398TIP3   OH219199   6.064   0.883   4.074  0.0336 -0.5258  0.4248
 6398TIP3    H119200   5.970   0.894   4.086  0.0673  0.4658 -0.1162
 6398TIP3    H219201   6.102   0.913   4.157 -0.0964 -0.2781  0.3973
 6399TIP3   OH219202   5.437   3.854   4.539  0.0050  0.5648  0.1767
 6399TIP3    H119203   5.433   3.758   4.534  0.3249  0.5327  0.4876
 6399TIP3    H219204   5.425   3.883   4.449 -0.7667  0.2592  0.1752
 6400TIP3   OH219205   0.062   4.720   1.655  0.2750  0.2518 -0.0011
 6400TIP3    H119206   0.033   4.632   1.629  0.5940  0.3561 -0.7602
 6400TIP3    H219207   0.044   4.774   1.578  1.7182  0.4784 -0.2070
 6401TIP3   OH219208   3.508   5.808   1.018  0.5140  0.0682 -0.0705
 6401TIP3    H119209   3.489   5.862   0.942  0.0781  0.2746  0.1879
 6401TIP3    H219210   3.446   5.836   1.085 -0.1973 -1.2278 -0.1584
 6402TIP3   OH219211   3.849   1.241   2.185  0.0045  0.0063 -0.1642
 6402TIP3    H119212   3.777   1.281   2.136 -0.8126  0.1944  1.1330
 6402TIP3    H219213   3.810   1.162   2.224  0.9244 -0.7125 -0.6652
 6403TIP3   OH219214   5.251   4.974   0.815  0.6299 -0.1112  0.4529
 6403TIP3    H119215   5.160   4.968   0.845  0.7786 -0.3809  0.8637
 6403TIP3    H219216   5.252   5.049   0.756 -0.3028 -1.3064 -1.1583
 6404TIP3   OH219217   3.457   0.166   0.379 -0.1069 -0.4333  0.3214
 6404TIP3    H119218   3.471   0.075   0.351  0.4621  0.0621 -1.0948
 6404TIP3    H219219   3.388   0.198   0.322 -0.2527  0.0529  0.7655
 6405TIP3   OH219220   4.310   0.796   1.683 -0.3503 -0.8259  0.2463
 6405TIP3    H119221   4.292   0.870   1.741  1.8113 -2.1044  2.7481
 6405TIP3    H219222   4.231   0.742   1.687 -2.0347  1.2729 -1.7716
 6406TIP3   OH219223   5.733   2.141   4.441  0.1227 -0.2069  0.2663
 6406TIP3    H119224   5.768   2.190   4.367 -1.2629  1.7420  0.8279
 6406TIP3    H219225   5.722   2.206   4.511 -1.4512 -1.3571  1.1699
 6407TIP3   OH219226   4.286   1.732   3.185 -0.8071  0.0820 -0.3908
 6407TIP3    H119227   4.308   1.652   3.137 -1.9347 -0.3275 -0.2485
 6407TIP3    H219228   4.231   1.782   3.124  0.5062  1.1275 -0.7728
 6408TIP3   OH219229   3.098   1.086   0.064  0.0531 -0.2472  0.5114
 6408TIP3    H119230   3.181   1.051   0.095 -0.4232  0.1778  2.3941
 6408TIP3    H219231   3.033   1.022   0.092 -0.4446  0.3678  0.7972
 6409TIP3   OH219232   3.701   3.590   4.365  0.3455  0.6201  0.7037
 6409TIP3    H119233   3.686   3.605   4.458  0.1895 -1.5912  1.0858
 6409TIP3    H219234   3.654   3.509   4.346  0.7961  0.7556 -1.2010
 6410TIP3   OH219235   0.069   0.326   2.695  0.1394 -0.0606  0.1112
 6410TIP3    H119236   0.059   0.392   2.627 -0.0846  0.0350  0.2373
 6410TIP3    H219237  -0.018   0.316   2.733  0.5359  0.9406  1.3526
 6411TIP3   OH219238   0.822   3.956   1.725 -0.2483  0.3460 -0.1102
 6411TIP3    H119239   0.773   3.988   1.800 -2.4210 -0.5470 -1.0610
 6411TIP3    H219240   0.781   3.998   1.649 -0.0564 -1.0011 -1.0019
 6412TIP3   OH219241   2.615   4.987   4.291  0.1433 -0.0255  0.2377
 6412TIP3    H119242   2.539   5.010   4.236 -0.3362 -0.3224  0.7602
 6412TIP3    H219243   2.690   4.996   4.233 -0.3843 -0.6931 -0.5721
 6413TIP3   OH219244   1.559   2.142   1.320  0.2078  0.5858  0.2988
 6413TIP3    H119245   1.611   2.062   1.321  0.9853  1.0774  0.6291
 6413TIP3    H219246   1.503   2.136   1.397  0.8000  0.6935  0.7428
 6414TIP3   OH219247   1.960   3.828   1.066 -0.3470 -0.6843  0.1505
 6414TIP3    H119248   2.020   3.758   1.091 -1.0416 -1.6092 -0.7043
 6414TIP3    H219249   1.911   3.846   1.146  0.7085 -0.2465  0.7292
 6415TIP3   OH219250   0.730   1.884   0.974 -0.3409  0.2212 -0.0748
 6415TIP3    H119251   0.636   1.872   0.979 -0.3676  0.3410 -0.2841
 6415TIP3    H219252   0.745   1.927   0.889 -0.1188  0.3884  0.0457
 6416TIP3   OH219253   4.195   5.931   0.492 -0.0082  0.0107 -0.5147
 6416TIP3    H119254   4.246   5.975   0.560  1.5246 -1.9070 -0.3305
 6416TIP3    H219255   4.215   5.838   0.503 -3.1786 -0.8061 -0.8276
 6417TIP3   OH219256   0.647   3.345   1.458 -0.0808  0.8953 -0.3062
 6417TIP3    H119257   0.553   3.362   1.458 -0.0114  1.4236 -1.9264
 6417TIP3    H219258   0.668   3.326   1.366  1.3266  0.3781  0.0940
 6418TIP3   OH219259   1.634   1.063   2.268  0.1722  0.0629  0.4679
 6418TIP3    H119260   1.564   1.126   2.285  0.1407  0.1923 -0.1301
 6418TIP3    H219261   1.638   1.057   2.172  1.2222  0.3372  0.4833
 6419TIP3   OH219262   4.710   5.028   0.096  0.0062  0.2663 -0.0496
 6419TIP3    H119263   4.803   5.034   0.117 -0.1902 -1.6680  1.7248
 6419TIP3    H219264   4.673   5.111   0.126  0.7075 -0.1614  2.2305
 6420TIP3   OH219265   1.293   2.840   3.364  0.1669 -0.0576 -0.3680
 6420TIP3    H119266   1.249   2.904   3.308 -0.7555 -0.8752 -0.5999
 6420TIP3    H219267   1.259   2.755   3.336  0.7763 -0.5973  0.4638
 6421TIP3   OH219268   3.771   1.767   0.576 -0.8781  0.1867  0.6054
 6421TIP3    H119269   3.832   1.699   0.546 -0.6734  0.1321  1.1362
 6421TIP3    H219270   3.779   1.836   0.511 -1.0711 -0.2851  0.0723
 6422TIP3   OH219271   0.189   2.864   2.280 -0.5011 -0.0098 -0.2480
 6422TIP3    H119272   0.172   2.814   2.201 -1.3956 -1.0749  0.5944
 6422TIP3    H219273   0.261   2.818   2.323 -0.8424 -0.1730  0.1630
 6423TIP3   OH219274   6.088   4.668   2.906 -0.3666 -0.2548 -0.4456
 6423TIP3    H119275   6.001   4.637   2.933  1.2434 -1.9847  3.4313
 6423TIP3    H219276   6.100   4.749   2.954  0.9672 -1.1741  0.8226
 6424TIP3   OH219277   1.441   2.574   3.467  0.1454  0.2692  0.0350
 6424TIP3    H119278   1.534   2.595   3.474 -0.0657  0.8381  1.4624
 6424TIP3    H219279   1.421   2.527   3.548 -1.1497  1.5368  0.4949
 6425TIP3   OH219280   3.637   2.275   1.434  0.3369 -0.4974 -0.2518
 6425TIP3    H119281   3.568   2.301   1.373  0.7080 -1.2664 -1.0114
 6425TIP3    H219282   3.683   2.203   1.391 -0.1300 -1.8780  1.4358
 6426TIP3   OH219283   2.380   3.108   1.213  0.5787  0.9473 -0.6338
 6426TIP3    H119284   2.314   3.129   1.279  1.0739 -1.9387  0.9486
 6426TIP3    H219285   2.463   3.135   1.253  0.7822  0.1698 -0.5202
 6427TIP3   OH219286   6.040   3.815   1.214  0.1932 -0.3557 -0.9120
 6427TIP3    H119287   6.052   3.810   1.308 -2.3851 -0.4672 -0.5131
 6427TIP3    H219288   6.129   3.812   1.178  1.2783  0.5287  1.5064
 6428TIP3   OH219289   2.562   5.132   5.001 -0.5281  0.3128  0.3405
 6428TIP3    H119290   2.565   5.228   5.002 -1.1171  0.3821 -1.1803
 6428TIP3    H219291   2.610   5.106   5.079 -5.2028  1.9106  4.2475
 6429TIP3   OH219292   3.646   4.008   0.996 -0.1703 -0.1357 -0.3962
 6429TIP3    H119293   3.692   3.953   1.060  1.4113  1.1443 -0.3613
 6429TIP3    H219294   3.705   4.010   0.921 -0.0926  1.6678 -0.3111
 6430TIP3   OH219295   2.754   3.364   0.957  1.0506  0.7507  0.1127
 6430TIP3    H119296   2.708   3.377   1.040 -0.2684 -0.3727 -0.4191
 6430TIP3    H219297   2.731   3.441   0.905  0.6552  0.7172  0.2369
 6431TIP3   OH219298   2.016   5.620   4.265 -0.0831  0.1183 -0.6472
 6431TIP3    H119299   2.060   5.552   4.315 -0.7229 -0.6311 -1.0936
 6431TIP3    H219300   1.923   5.598   4.269 -0.2467  0.6589 -1.2517
 6432TIP3   OH219301   1.102   1.236   0.731  0.4685  0.0926  0.2683
 6432TIP3    H119302   1.157   1.207   0.804 -0.3504 -2.0314  0.1019
 6432TIP3    H219303   1.038   1.295   0.772  1.1912  0.4691  0.9061
 6433TIP3   OH219304   5.793   2.591   2.562  0.1658  0.2189  0.5198
 6433TIP3    H119305   5.846   2.667   2.536  0.0352  0.4299  0.8642
 6433TIP3    H219306   5.704   2.615   2.538 -0.0349  0.6454  1.6554
 6434TIP3   OH219307   4.374   1.926   4.673  0.1909 -0.1511  0.0518
 6434TIP3    H119308   4.317   1.991   4.712 -1.7753 -1.3795 -0.6089
 6434TIP3    H219309   4.410   1.877   4.747 -0.9148 -0.3785  0.4582
 6435TIP3   OH219310   4.872   2.578   3.152 -0.2588 -0.6294  0.2902
 6435TIP3    H119311   4.919   2.543   3.228 -0.8388 -1.0785  0.4463
 6435TIP3    H219312   4.799   2.518   3.138 -0.1442 -0.5786 -0.6515
 6436TIP3   OH219313   2.215   3.192   1.428 -0.3139  0.0194  0.3975
 6436TIP3    H119314   2.226   3.287   1.430 -1.0723  0.1157  0.1778
 6436TIP3    H219315   2.136   3.177   1.376  0.6262 -0.8094 -0.8708
 6437TIP3   OH219316   3.291   2.369   5.104 -0.0456  0.3619  0.3230
 6437TIP3    H119317   3.336   2.294   5.142 -0.3981 -0.4448 -0.8382
 6437TIP3    H219318   3.198   2.350   5.116 -0.1613  0.0698 -0.9809
 6438TIP3   OH219319   2.348   1.814   1.506  0.4120 -0.6016  0.0602
 6438TIP3    H119320   2.334   1.738   1.563 -0.7431 -0.7171 -0.3606
 6438TIP3    H219321   2.400   1.874   1.560  1.0865 -1.5567  0.5029
 6439TIP3   OH219322   0.816   0.846   0.683  0.0960 -0.1881 -1.0048
 6439TIP3    H119323   0.739   0.824   0.734 -0.3533  1.1715 -1.0588
 6439TIP3    H219324   0.887   0.852   0.747 -0.2783  0.6083 -0.6523
 6440TIP3   OH219325   5.387   5.861   0.622 -0.1165 -0.0200  0.4812
 6440TIP3    H119326   5.454   5.903   0.568 -0.3938  0.2956  0.3783
 6440TIP3    H219327   5.318   5.927   0.630  0.9418  0.9004  3.2178
 6441TIP3   OH219328   4.501   2.723   1.058  0.2316 -0.4748  0.2541
 6441TIP3    H119329   4.539   2.728   1.146 -0.2491 -0.2788  0.4523
 6441TIP3    H219330   4.509   2.813   1.024 -0.5803 -0.2939  0.5214
 6442TIP3   OH219331   3.777   3.723   1.164  0.1490 -0.6461  0.0888
 6442TIP3    H119332   3.860   3.759   1.193  0.2329 -0.5391 -0.2758
 6442TIP3    H219333   3.789   3.628   1.167  0.6260 -0.6303 -0.9159
 6443TIP3   OH219334   2.902   4.872   0.703  0.2421 -0.0704  0.3369
 6443TIP3    H119335   2.988   4.895   0.670  0.4097 -0.1773  0.7045
 6443TIP3    H219336   2.915   4.852   0.795 -0.2551  0.3534  0.5010
 6444TIP3   OH219337   2.642   2.599   3.903 -0.3174 -0.3814 -0.4220
 6444TIP3    H119338   2.631   2.540   3.977 -0.6642 -0.6769 -0.7058
 6444TIP3    H219339   2.652   2.542   3.827  0.1212 -0.0819 -0.5953
 6445TIP3   OH219340   4.780   4.986   2.614  0.4116  0.0353 -0.3731
 6445TIP3    H119341   4.688   5.004   2.592 -0.1724 -0.9667  1.0572
 6445TIP3    H219342   4.801   4.907   2.565  0.5414  0.2983 -0.7472
 6446TIP3   OH219343   3.286   0.697   0.291 -0.2066  0.0794 -0.6783
 6446TIP3    H119344   3.322   0.614   0.325  2.2356  0.9560 -0.9643
 6446TIP3    H219345   3.252   0.741   0.368 -1.7420 -1.2415 -0.5478
 6447TIP3   OH219346   5.401   3.290   4.878  0.5471 -0.2758 -0.2199
 6447TIP3    H119347   5.409   3.250   4.965 -1.9746  2.0077  1.1938
 6447TIP3    H219348   5.471   3.355   4.876  0.3226 -0.0096  0.3204
 6448TIP3   OH219349   5.859   0.803   3.198 -0.2920  0.3562  0.3904
 6448TIP3    H119350   5.811   0.775   3.276 -0.8958  0.6469  0.1260
 6448TIP3    H219351   5.798   0.858   3.150  0.3225  0.7785  0.0719
 6449TIP3   OH219352   3.573   3.300   4.783  0.0783 -0.0359  0.0635
 6449TIP3    H119353   3.591   3.378   4.731 -1.4982  0.6823  0.5214
 6449TIP3    H219354   3.509   3.250   4.732  1.7757 -1.5552 -0.6722
 6450TIP3   OH219355   6.284   0.842   0.505 -0.3213  0.1350 -0.0907
 6450TIP3    H119356   6.189   0.830   0.496 -0.1987  0.5041 -3.0999
 6450TIP3    H219357   6.316   0.755   0.529 -1.3393 -0.2655 -0.1048
 6451TIP3   OH219358   0.843   5.419   4.230 -0.5359 -0.1913  0.4621
 6451TIP3    H119359   0.759   5.425   4.184  0.7933  1.5606 -1.9449
 6451TIP3    H219360   0.887   5.344   4.189 -0.6131 -0.6876  1.2545
 6452TIP3   OH219361   1.728   3.263   1.043  0.1240  0.0495  0.3498
 6452TIP3    H119362   1.760   3.252   0.953  1.2522  0.5513  0.6733
 6452TIP3    H219363   1.747   3.180   1.085  1.5759  0.5407  0.6988
 6453TIP3   OH219364   5.104   3.247   3.095 -0.5837  0.4783  0.1981
 6453TIP3    H119365   5.177   3.203   3.138 -0.8788  1.1398  1.4188
 6453TIP3    H219366   5.146   3.307   3.033 -0.0834  0.7347  0.7745
 6454TIP3   OH219367   5.934   5.191   4.316 -0.1217  0.0995 -0.0474
 6454TIP3    H119368   5.881   5.137   4.375 -0.6470  0.4154 -0.2234
 6454TIP3    H219369   6.021   5.150   4.317 -0.4226 -0.5496  0.0830
 6455TIP3   OH219370   2.994   1.579   4.009  0.6289 -0.1152 -0.8516
 6455TIP3    H119371   2.978   1.605   3.918  2.5856  1.8600 -0.7132
 6455TIP3    H219372   3.017   1.660   4.054  1.6872 -1.3222  0.9486
 6456TIP3   OH219373   0.228   2.419   0.103  0.1539  0.1905  0.4808
 6456TIP3    H119374   0.186   2.345   0.147  1.7275 -0.1119  1.5714
 6456TIP3    H219375   0.320   2.414   0.131  0.5245  1.9096 -0.3138
 6457TIP3   OH219376   2.517   5.580   3.730 -0.4725 -0.2492 -0.1897
 6457TIP3    H119377   2.438   5.632   3.742 -1.0596 -1.3075  0.7161
 6457TIP3    H219378   2.523   5.568   3.635 -0.4418  1.2572 -0.3926
 6458TIP3   OH219379   5.460   2.630   3.979  0.3123  0.6943  0.2861
 6458TIP3    H119380   5.529   2.605   4.041  0.2632 -0.0215  0.0641
 6458TIP3    H219381   5.508   2.651   3.898  0.2113 -0.9285 -0.2226
 6459TIP3   OH219382   6.306   2.268   2.670  0.1609 -0.0798 -0.9174
 6459TIP3    H119383   6.230   2.297   2.720  0.1691 -0.0224 -0.9382
 6459TIP3    H219384   6.345   2.199   2.723  2.5420  2.6699  1.2170
 6460TIP3   OH219385   1.336   5.706   2.676  0.2325  0.2214  0.3012
 6460TIP3    H119386   1.375   5.632   2.722 -1.5811 -0.5120  0.7381
 6460TIP3    H219387   1.355   5.690   2.583  3.1744  1.2691  0.6172
 6461TIP3   OH219388   2.949   2.291   0.797 -0.1350 -0.3359  0.7386
 6461TIP3    H119389   2.993   2.346   0.862  0.2411 -1.6429  1.6428
 6461TIP3    H219390   2.979   2.202   0.817 -0.7086 -0.8743 -0.6808
 6462TIP3   OH219391   0.080   1.179   3.877 -0.3816 -0.1183  0.6635
 6462TIP3    H119392   0.024   1.164   3.953  0.0226  0.5630  1.1051
 6462TIP3    H219393   0.140   1.104   3.878 -0.7629 -0.4300  0.6540
 6463TIP3   OH219394   4.259   1.826   3.868  0.1209 -0.0493  0.2168
 6463TIP3    H119395   4.271   1.888   3.941 -1.3810  1.0177 -0.3835
 6463TIP3    H219396   4.244   1.882   3.792  0.0843 -1.1625 -0.6142
 6464TIP3   OH219397   2.198   2.429   2.350 -0.1158  0.0193 -0.6739
 6464TIP3    H119398   2.177   2.364   2.418 -0.2711 -0.0631 -0.8012
 6464TIP3    H219399   2.135   2.500   2.365  0.6856  0.5909  0.0898
 6465TIP3   OH219400   1.310   3.498   3.783  0.1284 -0.1905 -0.0249
 6465TIP3    H119401   1.328   3.592   3.775  2.4425 -0.4945  0.9449
 6465TIP3    H219402   1.303   3.468   3.692 -0.7902  0.9236 -0.3450
 6466TIP3   OH219403   2.370   1.772   0.217 -0.0210  0.0089 -0.3408
 6466TIP3    H119404   2.337   1.735   0.134  0.4979 -1.4273  0.0661
 6466TIP3    H219405   2.465   1.765   0.210  0.0278  0.0288  0.3090
 6467TIP3   OH219406   1.172   2.985   2.006  0.2621  0.0013 -0.3273
 6467TIP3    H119407   1.130   3.071   2.000  0.9634  0.3238 -0.6474
 6467TIP3    H219408   1.240   2.986   1.939  0.7262 -0.5538  0.1204
 6468TIP3   OH219409   4.265   0.141   3.367  0.1230 -0.4346 -0.4920
 6468TIP3    H119410   4.203   0.114   3.435 -0.3119  0.0405 -0.6989
 6468TIP3    H219411   4.249   0.234   3.356  1.4388 -0.1264  0.0285
 6469TIP3   OH219412   5.436   4.239   0.923 -0.6172  0.5794  0.4493
 6469TIP3    H119413   5.448   4.331   0.898 -1.1289  0.6162  0.3120
 6469TIP3    H219414   5.519   4.198   0.902 -0.5941  0.8848 -0.1044
 6470TIP3   OH219415   5.810   2.789   3.846 -0.0785  0.2113 -0.5417
 6470TIP3    H119416   5.830   2.791   3.940 -0.5912 -1.4888 -0.3626
 6470TIP3    H219417   5.765   2.872   3.830 -0.5687  0.2543  0.8638
 6471TIP3   OH219418   2.999   0.048   2.010 -0.3783  0.0480 -0.3198
 6471TIP3    H119419   3.088   0.036   2.041 -0.2323 -0.1854 -0.8220
 6471TIP3    H219420   2.987  -0.019   1.942  0.3194  2.3777 -2.9103
 6472TIP3   OH219421   1.304   2.509   0.535 -0.6027 -0.1488 -0.3231
 6472TIP3    H119422   1.259   2.586   0.498  0.2522  1.8880  2.5797
 6472TIP3    H219423   1.391   2.511   0.495 -1.5905 -1.6640 -2.7716
 6473TIP3   OH219424   3.959   2.437   3.228 -0.4446  0.1813 -0.3464
 6473TIP3    H119425   3.912   2.504   3.179  1.0092  1.8882  0.4836
 6473TIP3    H219426   4.046   2.435   3.189  0.2346  0.4232  1.1144
 6474TIP3   OH219427   0.473   0.670   3.113 -0.2659 -0.3043  0.0705
 6474TIP3    H119428   0.500   0.726   3.185  0.2554 -2.2436  1.4852
 6474TIP3    H219429   0.505   0.713   3.034  4.0787 -0.7213  1.3584
 6475TIP3   OH219430   4.567   0.868   4.943  0.2767  0.3755  0.2594
 6475TIP3    H119431   4.486   0.834   4.906  0.6734  0.5251 -0.7874
 6475TIP3    H219432   4.625   0.878   4.868  1.8391 -1.3075  1.1489
 6476TIP3   OH219433   3.003   2.654   4.609  0.0497  0.5363 -0.5809
 6476TIP3    H119434   3.083   2.611   4.581  0.6461  2.5870 -2.3566
 6476TIP3    H219435   2.934   2.617   4.553 -0.3556 -1.3271  1.0404
 6477TIP3   OH219436   2.394   1.572   1.693  0.0196 -0.3835 -0.1007
 6477TIP3    H119437   2.486   1.572   1.666  0.0671 -2.3939 -0.0677
 6477TIP3    H219438   2.397   1.595   1.786  0.2844  1.4938 -0.5309
 6478TIP3   OH219439   3.483   3.456   4.008  0.8041 -0.5622  0.0291
 6478TIP3    H119440   3.484   3.381   3.948 -0.6758 -1.9129  1.5833
 6478TIP3    H219441   3.549   3.435   4.073  0.7588 -0.2537  0.1747
 6479TIP3   OH219442   1.705   3.292   0.126 -0.4877 -0.0259  0.1026
 6479TIP3    H119443   1.646   3.238   0.074  1.6794 -2.3890 -0.0476
 6479TIP3    H219444   1.651   3.367   0.153 -2.4274 -0.0703 -3.2017
 6480TIP3   OH219445   1.510   5.654   1.774 -0.1686  0.1662 -0.2676
 6480TIP3    H119446   1.495   5.707   1.852 -2.3221 -0.9467  0.1349
 6480TIP3    H219447   1.530   5.718   1.705 -0.9132  1.3576  0.5900
 6481TIP3   OH219448   5.520   2.594   5.060  0.1308  0.0749 -0.2648
 6481TIP3    H119449   5.513   2.500   5.076  1.6171 -0.4100 -2.1445
 6481TIP3    H219450   5.432   2.627   5.080 -0.5448 -1.7570  0.0726
 6482TIP3   OH219451   2.387   5.473   2.331 -0.1357 -0.1239 -0.3173
 6482TIP3    H119452   2.355   5.531   2.262 -1.8902 -0.6640  0.0088
 6482TIP3    H219453   2.407   5.391   2.285  0.4098  0.0842 -0.4570
 6483TIP3   OH219454   4.000   1.705   3.840 -0.4067  0.1186 -0.2311
 6483TIP3    H119455   3.976   1.687   3.931  0.0392  2.4252  0.3969
 6483TIP3    H219456   4.074   1.765   3.846  0.6850 -0.9170 -2.1480
 6484TIP3   OH219457   5.250   4.847   3.747  0.0830 -0.0533  0.4363
 6484TIP3    H119458   5.257   4.752   3.755 -0.4800 -0.1005  0.4417
 6484TIP3    H219459   5.203   4.862   3.665 -0.8468  0.1690  0.9862
 6485TIP3   OH219460   1.143   1.358   0.035 -0.1353 -0.0265  0.0014
 6485TIP3    H119461   1.179   1.333  -0.051  1.8525  1.6552  0.2585
 6485TIP3    H219462   1.149   1.454   0.036  1.4449 -0.0550  2.5835
 6486TIP3   OH219463   0.418   3.723   2.694 -0.1473 -0.8356  0.1137
 6486TIP3    H119464   0.460   3.666   2.760  1.6964  1.0776  0.7111
 6486TIP3    H219465   0.327   3.729   2.722  0.4155 -0.7247  2.0703
 6487TIP3   OH219466   6.189   5.843   2.866 -0.0127 -0.3458  0.4034
 6487TIP3    H119467   6.227   5.899   2.798  0.2733  0.7207  1.4121
 6487TIP3    H219468   6.101   5.823   2.835 -1.3654  3.3074  1.3870
 6488TIP3   OH219469   5.072   0.968   1.839 -0.1848 -0.3259  0.2850
 6488TIP3    H119470   5.094   0.889   1.789  1.4484  1.4631 -2.0140
 6488TIP3    H219471   5.142   0.975   1.904 -0.7024 -1.0703  0.9508
 6489TIP3   OH219472   0.597   0.529   4.555 -0.5134  0.4368  0.6888
 6489TIP3    H119473   0.643   0.564   4.631 -1.5442  0.8594  1.1285
 6489TIP3    H219474   0.627   0.438   4.549  1.8597  1.2000 -0.2172
 6490TIP3   OH219475   3.354   1.259   3.584  0.0075  0.4542 -0.9744
 6490TIP3    H119476   3.288   1.203   3.623  1.8751 -1.0087  0.2605
 6490TIP3    H219477   3.403   1.202   3.524 -0.3072  1.6951 -2.4798
 6491TIP3   OH219478   1.755   4.394   3.004 -0.2209 -0.5023  0.3063
 6491TIP3    H119479   1.769   4.319   3.062 -0.2663 -0.8603 -0.1361
 6491TIP3    H219480   1.664   4.385   2.976  0.1200 -0.9660 -0.6933
 6492TIP3   OH219481   3.482   4.462   3.526 -0.0350  0.7178  0.3876
 6492TIP3    H119482   3.536   4.390   3.559  1.8398  1.7252 -0.3377
 6492TIP3    H219483   3.450   4.506   3.605  1.6681  1.1367  0.8806
 6493TIP3   OH219484   3.006   0.432   0.054  0.4195  0.2560  0.2334
 6493TIP3    H119485   3.044   0.417   0.141 -0.5873  0.8894  0.8122
 6493TIP3    H219486   3.038   0.519   0.029 -0.7550  0.8776  0.8104
 6494TIP3   OH219487   5.001   1.245   4.496 -0.1013 -0.0931 -0.1783
 6494TIP3    H119488   5.016   1.339   4.509  0.5100  0.0457 -1.6636
 6494TIP3    H219489   5.073   1.217   4.439 -0.0825 -1.5481  0.5177
 6495TIP3   OH219490   2.302   4.175   2.226 -0.7055 -0.7796  0.2344
 6495TIP3    H119491   2.379   4.156   2.280 -0.6628  0.2209  0.5492
 6495TIP3    H219492   2.228   4.153   2.283 -0.6567 -1.1788  0.1457
 6496TIP3   OH219493   5.336   4.724   5.011  0.0291 -0.1143 -0.2461
 6496TIP3    H119494   5.398   4.735   5.083 -1.3521  1.6543  0.7714
 6496TIP3    H219495   5.262   4.677   5.049 -0.8984  1.1987 -0.3318
 6497TIP3   OH219496   4.446   0.703  -0.014 -0.2516 -0.0871  0.4670
 6497TIP3    H119497   4.379   0.770  -0.025 -0.6117 -0.0629  2.4255
 6497TIP3    H219498   4.407   0.640   0.047  1.8567  0.4912  2.5380
 6498TIP3   OH219499   1.310   3.574   4.576 -0.2251  0.1702  0.3827
 6498TIP3    H119500   1.250   3.626   4.524 -1.1325 -0.4127  0.8140
 6498TIP3    H219501   1.359   3.638   4.628 -0.5919  0.6415  0.1554
 6499TIP3   OH219502   5.889   3.018   3.581  0.1402  0.3041  0.3675
 6499TIP3    H119503   5.961   3.030   3.642  0.1128  0.4646  0.3691
 6499TIP3    H219504   5.921   2.952   3.518  0.9757  1.6591 -0.6786
 6500TIP3   OH219505   2.915   2.335   1.220 -0.0029 -0.0638 -0.1386
 6500TIP3    H119506   2.953   2.372   1.140  0.1473 -0.7037 -0.3662
 6500TIP3    H219507   2.951   2.247   1.225 -1.4156 -0.6806 -0.3421
 6501TIP3   OH219508   6.326   3.353   2.468  0.1505  0.7902 -0.0648
 6501TIP3    H119509   6.248   3.372   2.521 -0.3523  1.4528 -1.0114
 6501TIP3    H219510   6.339   3.259   2.477  0.1709  0.9127  1.3466
 6502TIP3   OH219511   1.487   3.182   4.959  0.1537  0.1819 -0.1516
 6502TIP3    H119512   1.570   3.193   5.004  0.1047 -0.2681  0.0531
 6502TIP3    H219513   1.485   3.253   4.895  0.5303  0.4113  0.0891
 6503TIP3   OH219514   3.658   2.624   2.788 -0.1807  0.7788  0.5026
 6503TIP3    H119515   3.593   2.687   2.818  0.5064  1.9700 -0.4464
 6503TIP3    H219516   3.615   2.578   2.716  0.1780  1.9278 -0.4716
 6504TIP3   OH219517   3.309   2.938   2.632 -0.1674 -0.3042  0.1906
 6504TIP3    H119518   3.325   2.879   2.559 -0.0832 -2.0769  1.5646
 6504TIP3    H219519   3.214   2.944   2.637 -0.1665  0.3726 -0.4615
 6505TIP3   OH219520   1.637   0.526   1.745 -0.6664  0.1284  0.3650
 6505TIP3    H119521   1.668   0.436   1.753 -0.3141 -0.0121 -1.8564
 6505TIP3    H219522   1.717   0.577   1.732 -1.0278  0.3208 -1.3205
 6506TIP3   OH219523   2.795   5.779   1.979  0.0555 -0.2544  0.1229
 6506TIP3    H119524   2.850   5.725   2.036 -0.0956 -2.3010 -1.5053
 6506TIP3    H219525   2.706   5.765   2.011  0.0237 -0.9858 -0.2503
 6507TIP3   OH219526   2.623   3.142   2.860 -0.1622 -0.7535 -0.1154
 6507TIP3    H119527   2.663   3.104   2.783 -0.2659 -1.8949  0.3744
 6507TIP3    H219528   2.692   3.140   2.927  0.3377  1.3999 -0.4942
 6508TIP3   OH219529   5.034   3.324   2.782  0.2997  0.4817  0.6829
 6508TIP3    H119530   4.977   3.284   2.847 -0.7750  1.4496  0.3681
 6508TIP3    H219531   5.043   3.415   2.811 -0.5230  1.0357 -0.7064
 6509TIP3   OH219532   2.484   1.976   1.957 -0.2619 -0.3686 -0.1523
 6509TIP3    H119533   2.451   1.923   2.030 -0.5063 -0.2519 -0.1748
 6509TIP3    H219534   2.453   2.065   1.977  0.7363 -0.0975  0.2472
 6510TIP3   OH219535   6.072   5.116   2.774 -0.3404  0.3677  0.0118
 6510TIP3    H119536   6.001   5.155   2.826  1.6673  3.3932  0.7632
 6510TIP3    H219537   6.149   5.124   2.829  1.1100 -0.1553 -1.8656
 6511TIP3   OH219538   5.067   2.116   2.454  0.8281 -0.3756  0.5221
 6511TIP3    H119539   5.126   2.067   2.397 -0.1579 -0.8022 -0.1787
 6511TIP3    H219540   5.019   2.049   2.502 -0.3032 -0.1202 -0.2076
 6512TIP3   OH219541   4.696   0.566   0.833 -0.1423 -0.0350  0.2214
 6512TIP3    H119542   4.606   0.542   0.854 -0.1631  0.2073  0.4286
 6512TIP3    H219543   4.693   0.661   0.820 -0.3510 -0.2983 -2.0675
 6513TIP3   OH219544   0.513   4.040   3.258 -0.0427 -0.2013 -0.2916
 6513TIP3    H119545   0.509   4.022   3.163 -0.2116  0.5466 -0.4302
 6513TIP3    H219546   0.468   3.965   3.297 -0.4573 -0.2488 -0.8390
 6514TIP3   OH219547   2.437   2.416   3.692 -0.3577 -0.4667  0.3830
 6514TIP3    H119548   2.475   2.477   3.629 -1.2820 -0.2601  0.0033
 6514TIP3    H219549   2.505   2.350   3.705 -0.3380 -0.8297 -1.2713
 6515TIP3   OH219550   2.069   4.694   4.022  0.0417  0.4370 -0.2160
 6515TIP3    H119551   2.071   4.650   4.108  1.2047  0.7063 -0.0966
 6515TIP3    H219552   2.144   4.753   4.023  0.6705 -0.2872 -1.8158
 6516TIP3   OH219553   5.477   5.474   3.814 -0.0792 -0.9142 -0.3005
 6516TIP3    H119554   5.501   5.524   3.892  2.6589 -1.2051 -0.8756
 6516TIP3    H219555   5.410   5.528   3.771  0.3848  0.6085  0.8046
 6517TIP3   OH219556   2.524   5.291   4.744 -0.0319 -0.1817 -0.0206
 6517TIP3    H119557   2.595   5.285   4.807  0.9391 -0.8459 -1.1362
 6517TIP3    H219558   2.568   5.293   4.658 -1.2451  1.7522 -0.6719
 6518TIP3   OH219559   5.398   4.836   4.543 -0.2823 -0.3959 -0.5366
 6518TIP3    H119560   5.399   4.922   4.584 -0.6699 -0.8355  0.4355
 6518TIP3    H219561   5.476   4.792   4.578  0.5932 -0.0368 -1.9673
 6519TIP3   OH219562   3.353   5.168   3.262 -0.1131 -0.4148 -0.1128
 6519TIP3    H119563   3.315   5.145   3.177  0.0763  3.0866 -1.3067
 6519TIP3    H219564   3.278   5.200   3.313 -0.0089 -1.3019  0.6302
 6520TIP3   OH219565   3.416   2.700   0.091  0.6180  0.6953  0.5017
 6520TIP3    H119566   3.381   2.784   0.062  0.7602  0.9772  1.1351
 6520TIP3    H219567   3.436   2.654   0.009 -0.9230  0.6371  0.1253
 6521TIP3   OH219568   4.943   1.468   2.840  1.0888 -0.6995 -0.0662
 6521TIP3    H119569   4.896   1.483   2.922  0.9209  1.2388 -0.4817
 6521TIP3    H219570   4.896   1.394   2.799  0.6475 -1.1184  1.1636
 6522TIP3   OH219571   0.833   5.347   3.360  0.3706  0.0437 -0.6658
 6522TIP3    H119572   0.775   5.372   3.432 -0.7540 -1.3167 -1.0422
 6522TIP3    H219573   0.916   5.390   3.379 -0.2694  0.6802  0.8020
 6523TIP3   OH219574   3.037   5.051   0.003  0.3104 -0.2333 -0.4578
 6523TIP3    H119575   3.059   5.110   0.076 -1.9347 -0.7479  0.7108
 6523TIP3    H219576   3.097   4.978   0.014 -1.7510 -1.6559  2.7141
 6524TIP3   OH219577   4.290   5.675   0.481  0.6526 -0.3638  0.2375
 6524TIP3    H119578   4.380   5.699   0.458  1.2502 -1.2930  1.5484
 6524TIP3    H219579   4.271   5.598   0.428  1.8333 -2.1664  2.3028
 6525TIP3   OH219580   2.840   4.455   1.860  0.2881 -0.6407 -0.6744
 6525TIP3    H119581   2.843   4.543   1.896 -0.5653 -1.3056  1.1727
 6525TIP3    H219582   2.925   4.416   1.883 -0.4388 -1.2255  1.1821
 6526TIP3   OH219583   4.663   5.039   4.762 -0.2599  0.4811  0.1280
 6526TIP3    H119584   4.570   5.059   4.773 -0.4752  0.1288 -0.8812
 6526TIP3    H219585   4.669   4.999   4.675  0.5156 -1.4155  0.9705
 6527TIP3   OH219586   5.979   4.724   3.333 -0.2104 -0.0505 -0.2632
 6527TIP3    H119587   6.021   4.761   3.256  0.7321  1.1404  0.7804
 6527TIP3    H219588   5.925   4.795   3.368 -0.5002 -0.5182  0.2732
 6528TIP3   OH219589   3.532   0.825   1.075  0.2468  0.2087  0.5425
 6528TIP3    H119590   3.600   0.781   1.127  1.5213  0.7787 -0.5851
 6528TIP3    H219591   3.463   0.760   1.066  1.1164 -0.7812  0.8296
 6529TIP3   OH219592   2.314   5.533   1.671  0.2381  0.1569 -0.1259
 6529TIP3    H119593   2.337   5.604   1.731  1.6561  1.4883 -2.1071
 6529TIP3    H219594   2.248   5.571   1.613 -1.2719 -1.1775  0.6491
 6530TIP3   OH219595   4.176   0.357   2.650  0.2809 -0.0329  0.0846
 6530TIP3    H119596   4.202   0.302   2.724  0.6472  0.4916  0.3499
 6530TIP3    H219597   4.238   0.333   2.580 -2.0005 -2.8849 -1.1839
 6531TIP3   OH219598   4.478   5.595   2.230  0.1601 -0.0243  0.3063
 6531TIP3    H119599   4.572   5.583   2.245 -0.3289 -1.9037  2.3209
 6531TIP3    H219600   4.454   5.669   2.285  0.4571  0.6385 -0.4214
 6532TIP3   OH219601   3.975   1.915   3.364  0.8775  0.8988 -0.0881
 6532TIP3    H119602   4.021   1.975   3.306  1.1643  1.6782  0.9107
 6532TIP3    H219603   3.887   1.951   3.371  0.4437  0.0763 -1.0482
 6533TIP3   OH219604   5.933   5.290   4.788 -0.5940  0.4055 -0.4175
 6533TIP3    H119605   6.022   5.308   4.819 -0.6117 -2.1417  1.3968
 6533TIP3    H219606   5.877   5.307   4.864 -1.4294  0.0718 -0.9433
 6534TIP3   OH219607   3.055   0.550   3.467  0.1603 -0.4908 -0.2457
 6534TIP3    H119608   2.960   0.544   3.455 -0.0210 -0.0831  0.8287
 6534TIP3    H219609   3.085   0.607   3.396 -0.6533  0.7776  0.3931
 6535TIP3   OH219610   1.661   2.819   4.491  0.3808 -0.1248 -0.1320
 6535TIP3    H119611   1.579   2.868   4.478  0.9677  0.6143 -1.1726
 6535TIP3    H219612   1.632   2.731   4.516 -0.6996  0.6503  1.5809
 6536TIP3   OH219613   5.214   0.843   0.172  0.1365  0.1291  0.4146
 6536TIP3    H119614   5.125   0.878   0.173  0.4837  1.0347  0.6114
 6536TIP3    H219615   5.203   0.750   0.149 -0.8737  0.1580  0.7312
 6537TIP3   OH219616   3.179   2.917   0.843  0.2220  0.0211 -0.7579
 6537TIP3    H119617   3.202   2.832   0.804  1.2330 -0.3435  0.5358
 6537TIP3    H219618   3.252   2.974   0.819  0.8435 -0.2014  0.5152
 6538TIP3   OH219619   1.955   4.048   4.721 -0.1823  0.1285  0.3928
 6538TIP3    H119620   1.992   4.082   4.639  0.4981 -0.2119  0.5604
 6538TIP3    H219621   1.861   4.042   4.703  0.1266 -1.5262 -0.9552
 6539TIP3   OH219622   3.421   4.895   1.153  0.5328 -0.1072  0.1077
 6539TIP3    H119623   3.420   4.812   1.201 -1.5262  0.6222  1.4621
 6539TIP3    H219624   3.329   4.916   1.139  1.0267  0.3606 -3.1548
 6540TIP3   OH219625   2.183   1.653   1.961 -0.0274  0.2285 -0.0926
 6540TIP3    H119626   2.140   1.574   1.992 -0.2698  0.5484  0.4015
 6540TIP3    H219627   2.277   1.635   1.972 -0.0489 -0.3176 -0.8044
 6541TIP3   OH219628   2.329   0.186   2.935 -0.0531  0.2512 -0.0553
 6541TIP3    H119629   2.268   0.259   2.925 -1.8242 -1.2850 -1.0873
 6541TIP3    H219630   2.279   0.120   2.983  1.4405 -0.3838  0.6766
 6542TIP3   OH219631   0.982   0.396   4.910 -0.4453 -0.3000  0.2004
 6542TIP3    H119632   0.967   0.491   4.906 -1.1732 -0.4530 -1.1935
 6542TIP3    H219633   0.921   0.359   4.846 -0.5683 -1.7703  1.1264
 6543TIP3   OH219634   3.562   5.829   2.956 -0.3910 -0.0608  0.5201
 6543TIP3    H119635   3.588   5.779   3.033  0.6093  0.2333  0.3826
 6543TIP3    H219636   3.488   5.882   2.986 -1.3456 -1.4556  0.7203
 6544TIP3   OH219637   3.309   3.257   0.234 -0.0896  0.8101  0.1409
 6544TIP3    H119638   3.329   3.335   0.182  0.5438 -1.1148 -2.7621
 6544TIP3    H219639   3.214   3.247   0.227  0.1559 -0.6589 -2.8593
 6545TIP3   OH219640   4.848   3.212   4.380  0.1764 -0.3674 -0.7426
 6545TIP3    H119641   4.899   3.166   4.314  0.3266  1.3175 -1.8578
 6545TIP3    H219642   4.851   3.304   4.353  0.4621  0.4356  1.7498
 6546TIP3   OH219643   0.352   5.313   2.968  0.4790  0.0350  0.4866
 6546TIP3    H119644   0.424   5.250   2.965 -0.1264 -0.6819  0.7885
 6546TIP3    H219645   0.296   5.282   3.039  0.7291  1.5225  1.3797
 6547TIP3   OH219646   0.015   1.088   3.571  0.6238 -0.3669 -0.1904
 6547TIP3    H119647   0.067   1.070   3.649  1.1419 -0.1194 -0.4736
 6547TIP3    H219648   0.026   1.181   3.555 -0.6362 -0.1262  0.2556
 6548TIP3   OH219649   2.171   4.944   2.875  0.0923  0.2023  0.0111
 6548TIP3    H119650   2.151   4.867   2.821 -3.9427 -0.0698  1.5786
 6548TIP3    H219651   2.249   4.919   2.924 -0.5583 -2.5390 -0.2085
 6549TIP3   OH219652   1.990   5.391   2.837  0.5250  0.0424 -0.2694
 6549TIP3    H119653   2.048   5.323   2.803  1.1069  0.7791 -0.8077
 6549TIP3    H219654   1.988   5.457   2.768 -1.1207 -0.0431 -0.3338
 6550TIP3   OH219655   4.535   3.781   4.779 -0.4539  0.8016 -0.0384
 6550TIP3    H119656   4.503   3.853   4.725  0.5660  0.7831 -0.7120
 6550TIP3    H219657   4.589   3.823   4.846 -0.8847  0.7485  0.3459
 6551TIP3   OH219658   4.153   2.408   0.978  0.7849 -0.4684 -0.2900
 6551TIP3    H119659   4.227   2.387   1.035 -0.3467  0.1012  1.4412
 6551TIP3    H219660   4.131   2.324   0.937 -0.7750 -1.8881  3.0595
 6552TIP3   OH219661   4.420   2.497   3.292 -0.4251 -0.1632  0.1733
 6552TIP3    H119662   4.472   2.418   3.275  0.3842  0.1758  1.0380
 6552TIP3    H219663   4.479   2.569   3.270 -1.4353  0.2209 -1.4236
 6553TIP3   OH219664   5.782   3.667   4.815  0.1015 -0.0346 -1.1247
 6553TIP3    H119665   5.724   3.595   4.839  1.8782 -1.2815 -0.3325
 6553TIP3    H219666   5.786   3.721   4.894 -0.1428  0.1827 -1.2584
 6554TIP3   OH219667   1.509   0.615   3.498  0.2325  0.3012  0.2324
 6554TIP3    H119668   1.416   0.593   3.500  0.3917 -0.3742  0.7042
 6554TIP3    H219669   1.553   0.534   3.473  0.8513 -0.0314  2.2317
 6555TIP3   OH219670   1.570   1.997   0.402  0.1365 -0.0561 -0.0239
 6555TIP3    H119671   1.577   1.906   0.432 -0.4829 -0.1906 -0.2601
 6555TIP3    H219672   1.475   2.014   0.402  0.1657  0.1651 -1.2288
 6556TIP3   OH219673   3.754   1.453   3.832 -0.6559 -0.3811  0.3000
 6556TIP3    H119674   3.780   1.512   3.760  0.4070 -1.7108 -0.4533
 6556TIP3    H219675   3.817   1.381   3.828 -0.5430 -0.4906  2.6057
 6557TIP3   OH219676   4.526   0.442   3.207 -0.2107 -0.0062  0.5096
 6557TIP3    H119677   4.563   0.485   3.284  1.8632  0.4009 -0.6612
 6557TIP3    H219678   4.434   0.430   3.229 -0.0275  1.5624  2.3961
 6558TIP3   OH219679   2.884   0.165   2.762 -0.0972 -0.0885 -0.4712
 6558TIP3    H119680   2.808   0.111   2.778  0.4980 -1.0889 -0.9351
 6558TIP3    H219681   2.945   0.144   2.833  0.7450 -1.1930 -1.4843
 6559TIP3   OH219682   5.763   3.168   1.495 -0.2261 -0.4736 -0.4282
 6559TIP3    H119683   5.668   3.165   1.484 -0.4268  1.3025  0.5638
 6559TIP3    H219684   5.794   3.090   1.449 -1.7989  0.9044 -4.2454
 6560TIP3   OH219685   0.700   0.964   1.038  0.2025  0.6686  0.4041
 6560TIP3    H119686   0.658   1.040   1.078  0.2379  0.7858  0.2194
 6560TIP3    H219687   0.791   0.991   1.024 -0.0547  1.0203 -0.7438
 6561TIP3   OH219688   5.577   0.823   0.486 -0.8345  0.3637 -0.3048
 6561TIP3    H119689   5.622   0.789   0.408 -0.3691  0.5178 -0.1076
 6561TIP3    H219690   5.510   0.758   0.505 -0.2578 -0.2098 -0.2045
 6562TIP3   OH219691   3.570   3.204   1.731 -0.3157 -0.4037 -0.4953
 6562TIP3    H119692   3.647   3.172   1.683 -0.4254 -0.0303 -0.9185
 6562TIP3    H219693   3.596   3.200   1.823 -0.0305 -0.9230 -0.5972
 6563TIP3   OH219694   0.243   1.721   1.409  0.4763 -0.3732 -0.1289
 6563TIP3    H119695   0.227   1.638   1.454  2.2423 -0.8506 -0.3286
 6563TIP3    H219696   0.276   1.780   1.477 -0.2589  0.0206 -0.0986
 6564TIP3   OH219697   4.140   3.976   1.750 -0.2017  0.0307 -0.1815
 6564TIP3    H119698   4.105   3.957   1.662 -0.5401 -1.1294  0.1863
 6564TIP3    H219699   4.070   3.948   1.809  0.1107  0.6128  0.4705
 6565TIP3   OH219700   2.023   1.081   2.848 -0.0200  0.3860  0.0169
 6565TIP3    H119701   2.102   1.045   2.807 -0.8477  1.0110 -2.2875
 6565TIP3    H219702   2.050   1.165   2.884  0.2411  0.9800 -1.4865
 6566TIP3   OH219703   1.958   2.866   4.868 -0.0549 -0.1920 -0.5716
 6566TIP3    H119704   2.025   2.800   4.880 -0.7754 -0.5318  2.1629
 6566TIP3    H219705   1.877   2.825   4.900 -0.5219  1.9058  1.1976
 6567TIP3   OH219706   4.496   5.185   0.233  0.6695  0.4781 -0.6471
 6567TIP3    H119707   4.544   5.265   0.254  0.3095  0.6309 -0.3902
 6567TIP3    H219708   4.476   5.193   0.140  1.4537  0.2417 -0.8421
 6568TIP3   OH219709   0.782   1.601   1.586  0.5360 -0.2202  0.3296
 6568TIP3    H119710   0.745   1.638   1.666 -0.1292 -0.1944  0.0196
 6568TIP3    H219711   0.860   1.653   1.569 -0.2829  0.9215  0.0036
 6569TIP3   OH219712   4.067   0.081   3.560 -0.1088  0.3538  0.2885
 6569TIP3    H119713   4.001   0.111   3.497  0.1916 -1.1186 -0.7664
 6569TIP3    H219714   4.018   0.071   3.642 -0.7550  1.1754  0.0254
 6570TIP3   OH219715   5.422   2.504   0.014  0.7305 -0.3684  0.2796
 6570TIP3    H119716   5.430   2.416  -0.023  1.2550 -0.7719  1.3188
 6570TIP3    H219717   5.513   2.534   0.024  0.5637  0.1442  0.2721
 6571TIP3   OH219718   2.086   4.575   1.446 -0.2148  0.2196  0.2717
 6571TIP3    H119719   2.075   4.636   1.373 -0.3753  0.4256  0.4670
 6571TIP3    H219720   2.097   4.490   1.404 -0.1132  0.3643  0.0009
 6572TIP3   OH219721   3.003   2.552   3.941  0.5443 -0.4921 -0.0515
 6572TIP3    H119722   3.060   2.570   3.866  0.8752  0.6509  0.4438
 6572TIP3    H219723   3.062   2.527   4.011  0.3528 -0.2884  0.1855
 6573TIP3   OH219724   0.733   1.199   0.642 -0.2401 -0.2938  0.1252
 6573TIP3    H119725   0.707   1.110   0.617  0.1318 -1.3018  3.0060
 6573TIP3    H219726   0.655   1.252   0.628 -0.8703 -1.3296 -0.3678
 6574TIP3   OH219727   3.387   1.841   1.277 -0.1720  0.2029 -0.1118
 6574TIP3    H119728   3.334   1.762   1.268 -0.3058  0.3728 -0.8129
 6574TIP3    H219729   3.405   1.847   1.371  2.5284 -2.4068 -0.3166
 6575TIP3   OH219730   4.165   0.928   4.840  0.0837  0.2240  0.1855
 6575TIP3    H119731   4.183   1.021   4.827 -0.2781  0.1089 -1.4110
 6575TIP3    H219732   4.113   0.924   4.920 -0.3737  1.4614 -0.0326
 6576TIP3   OH219733   4.649   3.897   4.141 -0.2010 -0.0187 -0.1194
 6576TIP3    H119734   4.712   3.920   4.073 -0.9983 -0.3439 -0.9834
 6576TIP3    H219735   4.591   3.973   4.146 -0.1811 -0.0197  0.1747
 6577TIP3   OH219736   1.625   4.633   4.713 -0.0660 -0.4317  0.0911
 6577TIP3    H119737   1.711   4.671   4.728  0.7750 -2.2597  0.1510
 6577TIP3    H219738   1.569   4.672   4.780  0.9879 -0.0842  0.7892
 6578TIP3   OH219739   5.028   4.035   4.459 -0.0938 -0.0862  0.3576
 6578TIP3    H119740   5.077   3.958   4.487  1.4046  0.5921 -0.2996
 6578TIP3    H219741   5.089   4.108   4.471 -0.8482  0.7592 -0.7409
 6579TIP3   OH219742   0.496   1.778   2.782  0.3165  0.2553 -0.1864
 6579TIP3    H119743   0.488   1.751   2.691  0.1400 -0.4914  0.0488
 6579TIP3    H219744   0.436   1.721   2.830  0.3385  0.7010  0.3897
 6580TIP3   OH219745   1.964   3.419   4.148  0.0836 -0.2338  0.5929
 6580TIP3    H119746   1.945   3.512   4.135  3.1130  0.1878 -2.0054
 6580TIP3    H219747   1.917   3.375   4.077  1.7805 -0.1280 -0.6655
 6581TIP3   OH219748   5.390   0.353   3.509  0.1235 -0.5351  0.0825
 6581TIP3    H119749   5.443   0.343   3.588  0.5110 -1.7400 -0.3129
 6581TIP3    H219750   5.355   0.266   3.492  0.1447 -0.3204 -1.1542
 6582TIP3   OH219751   1.331   1.448   1.304  0.4350  0.2522  0.4162
 6582TIP3    H119752   1.274   1.394   1.359  0.6083 -2.0446 -1.4636
 6582TIP3    H219753   1.382   1.384   1.253  0.2549  2.1588 -2.3839
 6583TIP3   OH219754   1.465   5.914   0.033 -0.6090  0.1998 -0.1572
 6583TIP3    H119755   1.548   5.958   0.015 -0.2664  0.0875  1.0414
 6583TIP3    H219756   1.451   5.927   0.127 -0.8715 -1.6116  0.0933
 6584TIP3   OH219757   4.762   3.676   3.485 -0.2660 -0.1811  0.9119
 6584TIP3    H119758   4.761   3.582   3.504 -0.0103 -0.2795  0.4283
 6584TIP3    H219759   4.692   3.688   3.421 -0.1443 -0.0740  0.8011
 6585TIP3   OH219760   4.533   4.325   0.598  0.3584  0.3542 -0.4125
 6585TIP3    H119761   4.600   4.389   0.575  2.0473 -1.1035  0.2555
 6585TIP3    H219762   4.534   4.262   0.526 -1.6862  1.2952 -1.3510
 6586TIP3   OH219763   6.149   2.320   4.231  0.2542  0.2922 -0.5203
 6586TIP3    H119764   6.204   2.247   4.203  1.1752  0.6685  0.2454
 6586TIP3    H219765   6.196   2.398   4.201 -0.0641  0.6024 -0.2183
 6587TIP3   OH219766   0.996   3.232   0.527  0.7841 -0.5346 -0.0537
 6587TIP3    H119767   1.022   3.184   0.449 -0.2315 -1.7570  0.3453
 6587TIP3    H219768   0.948   3.169   0.580 -2.0137  1.2945 -0.2270
 6588TIP3   OH219769   1.855   5.811   1.853 -0.8698  0.2429  0.3705
 6588TIP3    H119770   1.804   5.889   1.835 -1.3965 -0.2857 -0.5408
 6588TIP3    H219771   1.803   5.762   1.917 -1.4039 -0.1718 -0.3624
 6589TIP3   OH219772   2.749   0.041   0.897  0.4204  0.4063 -0.4082
 6589TIP3    H119773   2.793  -0.038   0.929 -1.6080  0.4431  2.9142
 6589TIP3    H219774   2.795   0.113   0.939 -0.1113  0.7310 -0.3783
 6590TIP3   OH219775   5.342   4.767   1.852  0.6161  0.5511 -0.4169
 6590TIP3    H119776   5.435   4.768   1.829  0.9635 -0.3760  0.8622
 6590TIP3    H219777   5.297   4.756   1.768  1.6450  0.9871 -1.0512
 6591TIP3   OH219778   6.261   4.759   4.892 -0.1794  0.3114  0.4198
 6591TIP3    H119779   6.355   4.744   4.880 -0.5108 -0.6043 -1.4211
 6591TIP3    H219780   6.222   4.672   4.885 -1.3277  0.9043 -0.9350
 6592TIP3   OH219781   0.290   1.571   3.584  0.2954  0.0308 -0.5934
 6592TIP3    H119782   0.269   1.662   3.607  1.0037  0.7886 -2.6883
 6592TIP3    H219783   0.219   1.519   3.622 -0.2015  1.4673  0.5326
 6593TIP3   OH219784   5.302   1.819   4.512  0.3105  0.6589  0.2164
 6593TIP3    H119785   5.368   1.886   4.529  0.5838  0.5578 -0.4182
 6593TIP3    H219786   5.218   1.864   4.523  0.4826  1.3473 -1.1015
 6594TIP3   OH219787   1.518   1.254   3.572 -0.0272 -0.0755 -0.4441
 6594TIP3    H119788   1.445   1.313   3.590 -0.4737 -0.5733 -0.5826
 6594TIP3    H219789   1.525   1.253   3.477  0.8304  0.7620 -0.3971
 6595TIP3   OH219790   1.589   2.509   2.105 -0.1337 -0.2075  0.1364
 6595TIP3    H119791   1.549   2.593   2.082 -0.1164 -0.1891  0.1734
 6595TIP3    H219792   1.676   2.533   2.138 -0.3975 -0.1770  0.8407
 6596TIP3   OH219793   4.422   5.789   4.880  0.2556  0.8768  0.6718
 6596TIP3    H119794   4.340   5.822   4.845 -0.6024 -1.6771  0.0420
 6596TIP3    H219795   4.473   5.764   4.803 -0.4527 -2.0808  1.0315
 6597TIP3   OH219796   1.888   0.980   1.380 -0.3311  0.0438  0.3932
 6597TIP3    H119797   1.944   1.049   1.416 -0.8967  1.5078 -1.4152
 6597TIP3    H219798   1.933   0.953   1.300  2.0094 -4.6102  2.8561
 6598TIP3   OH219799   6.205   4.490   5.011  0.2920  0.5264 -0.2366
 6598TIP3    H119800   6.248   4.473   5.095 -0.2925  1.1247  0.2007
 6598TIP3    H219801   6.122   4.443   5.017 -0.7192  2.3072  0.4283
 6599TIP3   OH219802   0.479   4.147   2.470 -0.0834 -0.4002 -0.1519
 6599TIP3    H119803   0.391   4.158   2.436  0.4202 -0.6755 -1.6137
 6599TIP3    H219804   0.525   4.096   2.403  1.0800 -0.5900  0.7489
 6600TIP3   OH219805   4.443   3.863   2.191 -0.1626  0.1674 -0.0274
 6600TIP3    H119806   4.447   3.846   2.285 -2.8387  0.8435  0.2876
 6600TIP3    H219807   4.532   3.890   2.167  0.8295 -1.0947  2.0624
 6601TIP3   OH219808   5.910   2.353   4.876  0.5419  0.5878  0.6677
 6601TIP3    H119809   5.860   2.383   4.952 -0.1549  0.0974  0.4114
 6601TIP3    H219810   5.957   2.430   4.846 -2.0198  1.7404 -0.6298
 6602TIP3   OH219811   2.867   3.052   4.277 -0.1933 -0.0453  0.2015
 6602TIP3    H119812   2.813   3.104   4.337 -1.4622 -0.8201 -0.2457
 6602TIP3    H219813   2.932   3.114   4.244 -1.1861  1.0801  0.2841
 6603TIP3   OH219814   1.457   1.774   4.968 -0.6207  0.2327  0.8585
 6603TIP3    H119815   1.388   1.709   4.959  0.6132 -0.9076 -1.3650
 6603TIP3    H219816   1.531   1.726   5.005  0.5808  0.0174 -1.5937
 6604TIP3   OH219817   5.146   5.430   1.225  0.5784 -0.6851  0.0116
 6604TIP3    H119818   5.171   5.339   1.210  1.4518 -0.3822 -0.4257
 6604TIP3    H219819   5.058   5.424   1.262  1.5641 -1.8271  2.4070
 6605TIP3   OH219820   5.791   5.674   0.982 -0.6976  0.4541 -0.2486
 6605TIP3    H119821   5.828   5.740   0.923 -0.7963 -0.6621 -1.6307
 6605TIP3    H219822   5.825   5.591   0.948  0.8135 -0.1480  2.4612
 6606TIP3   OH219823   0.752   4.404   3.876  0.1454  0.4639 -0.1774
 6606TIP3    H119824   0.690   4.367   3.939 -0.7219  2.6434  0.3578
 6606TIP3    H219825   0.727   4.368   3.792 -0.4578 -0.3647  0.3517
 6607TIP3   OH219826   1.505   4.688   2.471  0.7992  0.0738 -0.0115
 6607TIP3    H119827   1.525   4.761   2.529  1.7959 -1.4126  1.6121
 6607TIP3    H219828   1.589   4.642   2.462  0.4068 -0.3680 -1.7551
 6608TIP3   OH219829   4.070   2.106   3.190  0.2167 -0.4330  0.4752
 6608TIP3    H119830   4.008   2.165   3.147 -1.7153 -1.1790  2.1226
 6608TIP3    H219831   4.130   2.165   3.236  1.2605  0.3184 -1.6663
 6609TIP3   OH219832   3.005   0.742   3.218  0.3033  0.2712  0.2125
 6609TIP3    H119833   3.069   0.810   3.239  1.1435 -0.5365  0.3364
 6609TIP3    H219834   2.946   0.784   3.155  1.2648  0.8772 -0.3198
 6610TIP3   OH219835   2.326   5.125   1.722  0.9708  0.3617  0.1398
 6610TIP3    H119836   2.299   5.081   1.642  1.3668 -0.5587  0.4947
 6610TIP3    H219837   2.366   5.056   1.775 -1.2435  0.4268  2.0617
 6611TIP3   OH219838   1.010   3.401   3.565 -0.3750 -0.7205  0.1937
 6611TIP3    H119839   0.998   3.476   3.624 -1.4812  0.1016 -0.9985
 6611TIP3    H219840   1.010   3.440   3.477  2.1038 -1.7998 -0.3779
 6612TIP3   OH219841   5.301   5.010   4.938 -0.2526 -0.1536  0.2223
 6612TIP3    H119842   5.304   5.027   5.032  1.1716 -1.0891  0.3740
 6612TIP3    H219843   5.312   4.915   4.931 -2.2628 -0.3679 -0.8288
 6613TIP3   OH219844   2.030   4.446   3.388  0.1756 -0.0420  0.4653
 6613TIP3    H119845   1.975   4.436   3.466  1.2381 -0.1954  1.2231
 6613TIP3    H219846   2.070   4.532   3.397 -0.1783  0.1982 -0.2338
 6614TIP3   OH219847   5.881   2.966   2.142  0.0664  0.0632  0.5544
 6614TIP3    H119848   5.921   3.053   2.144  1.6205 -0.5970 -0.2134
 6614TIP3    H219849   5.954   2.906   2.155 -0.8101 -1.1689 -0.0110
 6615TIP3   OH219850   0.620   2.683   2.620 -0.1662 -0.3269 -0.1390
 6615TIP3    H119851   0.713   2.700   2.603 -0.1301  1.0122  1.1926
 6615TIP3    H219852   0.618   2.593   2.653  0.5761 -0.5447 -0.6389
 6616TIP3   OH219853   5.312   2.921   1.257  0.2845  0.1114  0.3181
 6616TIP3    H119854   5.274   3.005   1.231  1.2850  1.3573  2.5151
 6616TIP3    H219855   5.300   2.864   1.181 -2.0840  1.6692 -0.5912
 6617TIP3   OH219856   1.459   4.998   4.160 -0.3183  0.5379  0.3112
 6617TIP3    H119857   1.536   5.035   4.116  1.6118 -2.1332  1.1841
 6617TIP3    H219858   1.434   4.923   4.106 -2.6452  1.5789 -0.1666
 6618TIP3   OH219859   3.589   5.273   2.670 -0.3090  0.4971  0.5771
 6618TIP3    H119860   3.562   5.225   2.749 -2.0310  0.8093  0.2171
 6618TIP3    H219861   3.510   5.278   2.616  1.3235 -1.7341 -2.2930
 6619TIP3   OH219862   6.012   2.264   1.850  0.4706 -0.1788 -0.4150
 6619TIP3    H119863   6.028   2.173   1.875 -0.8981 -0.4520 -0.4437
 6619TIP3    H219864   6.012   2.311   1.934  0.9484 -0.2295 -0.3798
 6620TIP3   OH219865   5.958   4.884   4.087  0.1397  0.4624 -0.2522
 6620TIP3    H119866   5.923   4.835   4.161  0.3388  1.6448  0.6414
 6620TIP3    H219867   6.002   4.818   4.033 -0.6979 -0.5334  0.2574
 6621TIP3   OH219868   3.291   0.924   1.421 -0.4802 -0.3690 -0.5387
 6621TIP3    H119869   3.327   0.912   1.509 -1.1417 -2.3891 -0.5067
 6621TIP3    H219870   3.328   1.008   1.392  0.8385 -0.3190  1.1160
 6622TIP3   OH219871   3.168   5.465   0.991 -0.0553 -0.0180  0.8311
 6622TIP3    H119872   3.190   5.372   0.983 -0.2436  0.0671 -1.0069
 6622TIP3    H219873   3.249   5.511   0.969 -0.7929  0.2416 -1.7090
 6623TIP3   OH219874   2.081   5.902   2.820  0.4599  0.2969 -0.3363
 6623TIP3    H119875   2.020   5.942   2.759  0.3045 -0.0876 -0.4388
 6623TIP3    H219876   2.159   5.957   2.818 -0.0131  0.9921  0.0557
 6624TIP3   OH219877   4.670   1.038   2.455 -0.1903  0.4853 -0.1569
 6624TIP3    H119878   4.627   1.119   2.484  0.1024  1.2072 -1.6301
 6624TIP3    H219879   4.608   0.969   2.476 -0.8149  1.1874  0.3797
 6625TIP3   OH219880   1.520   2.215   2.371  0.1721 -0.1052  0.1275
 6625TIP3    H119881   1.591   2.279   2.366 -0.8830  1.0384 -1.2489
 6625TIP3    H219882   1.564   2.130   2.372  1.5721  0.5913  0.3141
 6626TIP3   OH219883   5.766   1.014   4.321 -0.3615  0.0763 -0.3091
 6626TIP3    H119884   5.686   1.016   4.374 -0.4589  0.1196 -0.4586
 6626TIP3    H219885   5.795   1.105   4.318 -1.1648  0.3030 -1.5625
 6627TIP3   OH219886   3.080   2.895   0.347 -0.3064  0.1739 -0.0061
 6627TIP3    H119887   3.105   2.952   0.275 -0.4151  0.1566 -0.0562
 6627TIP3    H219888   3.113   2.808   0.322  1.4835  0.5348  0.8728
 6628TIP3   OH219889   4.670   4.379   1.439  0.2773  0.0835 -0.1345
 6628TIP3    H119890   4.584   4.377   1.396  0.0679 -2.4015  0.2569
 6628TIP3    H219891   4.652   4.352   1.529  1.4967 -0.8436 -0.1517
 6629TIP3   OH219892   2.766   0.378   1.942  0.1936 -0.1350 -0.1560
 6629TIP3    H119893   2.671   0.367   1.941  0.3402 -1.5862  0.3095
 6629TIP3    H219894   2.794   0.357   1.853  0.2450 -1.5155  0.1672
 6630TIP3   OH219895   5.592   0.343   3.125 -0.4759  0.2103 -0.3399
 6630TIP3    H119896   5.581   0.437   3.110  0.3482  0.6132  1.3994
 6630TIP3    H219897   5.651   0.314   3.056 -3.5125  0.1606 -3.1695
 6631TIP3   OH219898   1.524   1.744   1.017 -0.0834 -0.3003 -0.0283
 6631TIP3    H119899   1.465   1.749   0.943 -1.3333 -1.8144  0.8011
 6631TIP3    H219900   1.469   1.718   1.091  1.2920  0.1158  1.2164
 6632TIP3   OH219901   5.074   5.731   5.149  0.4797 -0.1836  0.1273
 6632TIP3    H119902   5.103   5.641   5.136  0.6195 -0.2990  1.1557
 6632TIP3    H219903   5.022   5.728   5.229  1.6764  0.8955  0.9800
 6633TIP3   OH219904   0.250   1.125   2.739  0.0432  0.2610 -0.3153
 6633TIP3    H119905   0.157   1.104   2.725  0.5334 -1.8550 -0.8616
 6633TIP3    H219906   0.293   1.039   2.743  1.7556  1.1162  1.7294
 6634TIP3   OH219907   4.680   3.153   3.166 -0.2308  0.4368  0.3404
 6634TIP3    H119908   4.628   3.185   3.240 -0.8092  2.0792 -0.7160
 6634TIP3    H219909   4.703   3.232   3.117  1.1996 -0.4944 -0.5629
 6635TIP3   OH219910   5.379   2.019   2.616 -0.3304 -0.4118  0.0841
 6635TIP3    H119911   5.305   1.961   2.630 -0.3575 -0.5069 -0.4379
 6635TIP3    H219912   5.445   1.964   2.574  0.0164 -0.3132  0.4907
 6636TIP3   OH219913   5.593   1.790   3.577  0.0233  0.1732  0.8203
 6636TIP3    H119914   5.549   1.868   3.543 -0.7491 -0.0752  1.2289
 6636TIP3    H219915   5.523   1.738   3.616  0.3470 -1.2476 -0.3855
 6637TIP3   OH219916   2.800   0.969   2.526  0.0805  0.3962  0.3104
 6637TIP3    H119917   2.848   0.995   2.447  0.4103  1.0810  0.7277
 6637TIP3    H219918   2.758   1.049   2.557 -1.5499 -0.2380 -0.1665
 6638TIP3   OH219919   3.634   5.005   3.253 -0.2275 -0.3322  0.0897
 6638TIP3    H119920   3.667   5.049   3.174  1.7562  0.3901  1.2432
 6638TIP3    H219921   3.607   5.076   3.311  0.4900 -0.7126  0.9219
 6639TIP3   OH219922   3.291   0.230   0.150  0.2640 -0.1654  0.1524
 6639TIP3    H119923   3.289   0.162   0.082  0.2435  0.5824 -0.6018
 6639TIP3    H219924   3.342   0.301   0.111 -0.8300  0.7865  0.4316
 6640TIP3   OH219925   2.438   3.154   0.772 -0.0621  0.6975 -0.2416
 6640TIP3    H119926   2.438   3.110   0.686  0.3654  0.6134 -0.1999
 6640TIP3    H219927   2.529   3.181   0.785  0.6211 -2.1133  1.6265
   6.34371   5.98091   5.17963   0.00000   0.00000  -2.11457   0.00000  -2.11457  -2.99046
