Title
19927
    1ASP      N    1   1.865   3.598   0.973 -0.2448  0.1758  0.2907
    1ASP    HT1    2   1.927   3.534   0.919 -0.9322  0.3599 -0.7551
    1ASP    HT2    3   1.891   3.690   0.932  0.9556  0.1914  1.0401
    1ASP    HT3    4   1.768   3.574   0.942  0.6841 -0.1439 -2.6811
    1ASP     CA    5   1.888   3.585   1.126 -0.1358 -0.5392 -0.0383
    1ASP     HA    6   1.865   3.481   1.145 -2.0551  0.3287  2.9151
    1ASP     CB    7   2.042   3.617   1.138  0.1493 -0.7146 -0.5638
    1ASP    HB1    8   2.067   3.723   1.116 -1.1845 -0.6551 -1.9923
    1ASP    HB2    9   2.097   3.552   1.067  2.5038 -0.3367  0.7903
    1ASP     CG   10   2.098   3.586   1.278  0.2617 -0.2065  0.2809
    1ASP    OD1   11   2.018   3.540   1.358 -0.3508 -0.3236  0.3820
    1ASP    OD2   12   2.217   3.618   1.301  0.1122  0.5810 -0.0419
    1ASP      C   13   1.792   3.681   1.197 -0.2657  0.1808 -0.0906
    1ASP      O   14   1.697   3.627   1.253  0.3363 -0.5922 -0.0218
    2ALA      N   15   1.828   3.810   1.201  0.8682  0.0804  0.0635
    2ALA     HN   16   1.917   3.840   1.170  0.8592  1.1732  1.0126
    2ALA     CA   17   1.727   3.912   1.231 -0.2846  0.6084 -0.8819
    2ALA     HA   18   1.684   3.889   1.327  2.6102  0.8189  0.6021
    2ALA     CB   19   1.806   4.042   1.245  0.0871 -1.0820 -0.6111
    2ALA    HB1   20   1.738   4.127   1.268 -0.9177 -2.0689  0.1659
    2ALA    HB2   21   1.868   4.077   1.159 -0.4297  4.3851  0.8250
    2ALA    HB3   22   1.879   4.042   1.329 -0.3412 -0.2879 -0.2214
    2ALA      C   23   1.604   3.933   1.136 -1.0914  0.5469 -0.3512
    2ALA      O   24   1.620   3.916   1.016 -0.1629 -0.2223  0.0188
    3ASP      N   25   1.488   3.969   1.192  0.1153 -0.3726 -0.3924
    3ASP     HN   26   1.477   3.962   1.291  0.2064 -2.7424 -0.4990
    3ASP     CA   27   1.367   3.990   1.118 -0.2539  0.2791 -0.2923
    3ASP     HA   28   1.374   3.915   1.040 -0.5358 -0.6191  0.5146
    3ASP     CB   29   1.239   3.988   1.200 -0.1400  0.3074 -0.1802
    3ASP    HB1   30   1.148   4.005   1.138 -0.3111  2.3172  0.5606
    3ASP    HB2   31   1.249   4.061   1.283 -1.8467 -0.9510  1.2041
    3ASP     CG   32   1.214   3.856   1.268 -0.2325 -0.3293 -0.6729
    3ASP    OD1   33   1.141   3.847   1.366  0.0345  0.1984 -0.7423
    3ASP    OD2   34   1.259   3.745   1.220  0.2949  0.1967  0.4245
    3ASP      C   35   1.389   4.120   1.034 -0.3294 -0.5477  0.1517
    3ASP      O   36   1.439   4.226   1.076 -0.2082 -0.5220  0.1571
    4GLY      N   37   1.341   4.115   0.908 -0.3791  0.0223  0.2996
    4GLY     HN   38   1.295   4.032   0.878  0.6949 -0.2731 -0.6056
    4GLY     CA   39   1.365   4.220   0.809  0.3810  0.5390 -0.0436
    4GLY    HA1   40   1.340   4.175   0.714  0.9067 -1.3637  0.6608
    4GLY    HA2   41   1.472   4.238   0.814  0.7973 -1.0991 -1.8502
    4GLY      C   42   1.293   4.351   0.831  0.0027 -0.4127 -0.5506
    4GLY      O   43   1.201   4.359   0.918 -0.0257  0.3125  0.2926
    5PRO      N   44   1.323   4.455   0.749  0.0830  0.5763 -0.1028
    5PRO     CD   45   1.399   4.440   0.627  0.3141  0.4406  0.2040
    5PRO    HD1   46   1.394   4.347   0.566 -2.0711  0.4863  0.2164
    5PRO    HD2   47   1.503   4.475   0.640  0.9224 -1.6411  1.2924
    5PRO     CA   48   1.269   4.588   0.769 -0.6527 -0.4136  0.0765
    5PRO     HA   49   1.323   4.637   0.848  0.3770 -1.0904 -0.1874
    5PRO     CB   50   1.308   4.660   0.637  0.4412  0.4843 -0.4176
    5PRO    HB1   51   1.400   4.715   0.664  0.0399  1.0988 -0.2735
    5PRO    HB2   52   1.225   4.728   0.608 -1.6088 -1.6483  0.0922
    5PRO     CG   53   1.341   4.546   0.533 -0.0684 -0.5365  0.1261
    5PRO    HG1   54   1.243   4.514   0.492 -0.2561  0.2934 -0.1024
    5PRO    HG2   55   1.422   4.566   0.459  0.1758 -2.3959 -0.1648
    5PRO      C   56   1.120   4.603   0.784 -0.2346 -0.1365  0.1525
    5PRO      O   57   1.041   4.518   0.749 -0.1030 -0.2063  0.0348
    6GLY      N   58   1.076   4.720   0.833  0.1269  0.4700 -0.1070
    6GLY     HN   59   1.142   4.778   0.880 -2.9838  4.9020 -0.5167
    6GLY     CA   60   0.933   4.756   0.849  0.5798 -0.5411  0.1440
    6GLY    HA1   61   0.938   4.860   0.880 -0.6379 -0.1878 -0.7468
    6GLY    HA2   62   0.889   4.696   0.927 -1.3983 -0.1231 -0.5661
    6GLY      C   63   0.849   4.765   0.727 -0.4775  0.4804 -0.5424
    6GLY      O   64   0.905   4.759   0.619 -0.6280 -0.0606  0.2831
    7ASP      N   65   0.713   4.774   0.741  0.3953  0.7013  0.8614
    7ASP     HN   66   0.675   4.759   0.832 -1.1043  1.1087  0.3236
    7ASP     CA   67   0.615   4.784   0.637  0.1940  0.2591 -0.3201
    7ASP     HA   68   0.625   4.696   0.577 -2.9417 -0.2716 -0.2592
    7ASP     CB   69   0.476   4.793   0.702  0.1524  0.2093  0.3144
    7ASP    HB1   70   0.393   4.794   0.628 -2.2297  0.7197  2.8481
    7ASP    HB2   71   0.473   4.887   0.761  0.2019  0.8355 -0.6491
    7ASP     CG   72   0.433   4.680   0.793 -0.2847  0.1108  0.2923
    7ASP    OD1   73   0.379   4.711   0.904  0.7054  0.4390  0.3834
    7ASP    OD2   74   0.446   4.560   0.761 -0.5856 -0.6051 -0.3722
    7ASP      C   75   0.634   4.910   0.547 -0.0058 -0.5450  0.0410
    7ASP      O   76   0.663   5.019   0.597 -0.0436 -0.1436 -0.4833
    8PRO      N   77   0.608   4.910   0.411 -0.4485  0.5841 -0.8891
    8PRO     CD   78   0.546   4.794   0.345 -0.5536  0.2661 -0.3715
    8PRO    HD1   79   0.437   4.794   0.370 -0.5903  0.9485 -0.5227
    8PRO    HD2   80   0.587   4.694   0.371  0.0837 -0.6703 -4.2975
    8PRO     CA   81   0.622   5.026   0.323  0.4578  1.0251 -0.2083
    8PRO     HA   82   0.729   5.035   0.316  0.9529 -1.7671  1.9556
    8PRO     CB   83   0.563   4.976   0.195  0.1826 -0.4462  0.0669
    8PRO    HB1   84   0.624   5.006   0.108  1.1059  0.2819  0.9406
    8PRO    HB2   85   0.461   5.017   0.179 -0.1414 -0.1027  2.5577
    8PRO     CG   86   0.550   4.826   0.199 -0.1569 -1.2449 -0.5373
    8PRO    HG1   87   0.460   4.797   0.142  0.1216 -0.1376 -1.5739
    8PRO    HG2   88   0.635   4.770   0.156  0.0740 -0.6964 -0.8145
    8PRO      C   89   0.585   5.168   0.362  0.3925 -0.5685 -0.4052
    8PRO      O   90   0.481   5.194   0.421 -0.2585 -0.3189 -0.5724
    9ASP      N   91   0.683   5.264   0.339  0.4018  0.5244  0.1805
    9ASP     HN   92   0.772   5.241   0.301 -0.6279 -0.7155 -1.6198
    9ASP     CA   93   0.659   5.410   0.351 -0.6723 -0.6513  0.8116
    9ASP     HA   94   0.633   5.439   0.452 -0.3007  0.0670  0.7062
    9ASP     CB   95   0.784   5.494   0.321 -0.8214 -0.1741 -0.6385
    9ASP    HB1   96   0.772   5.604   0.308  0.4524 -0.2658 -3.5643
    9ASP    HB2   97   0.837   5.455   0.231  1.5590  0.9361  0.1994
    9ASP     CG   98   0.892   5.459   0.427  0.6547 -0.3757 -0.4888
    9ASP    OD1   99   0.860   5.464   0.548 -0.6914  0.1453 -0.1476
    9ASP    OD2  100   1.011   5.434   0.395 -0.0526  0.4872 -0.5232
    9ASP      C  101   0.543   5.459   0.264  0.0865 -1.0997 -0.2272
    9ASP      O  102   0.512   5.405   0.152  0.1177  0.4146 -0.0719
   10ALA      N  103   0.468   5.559   0.321  0.0684  0.4018 -0.2841
   10ALA     HN  104   0.480   5.594   0.413 -0.2667 -0.3357  0.0495
   10ALA     CA  105   0.352   5.623   0.251 -0.1542 -0.0120 -0.2817
   10ALA     HA  106   0.278   5.548   0.228  0.5530 -0.4838 -1.0969
   10ALA     CB  107   0.282   5.729   0.336 -0.1249 -0.1031  0.6297
   10ALA    HB1  108   0.347   5.819   0.343 -1.6118  0.9000  2.3079
   10ALA    HB2  109   0.274   5.698   0.442 -0.2185  1.5831  1.1494
   10ALA    HB3  110   0.185   5.761   0.293  1.4622  0.9647 -2.5164
   10ALA      C  111   0.381   5.685   0.123 -0.0841 -0.3859  0.4474
   10ALA      O  112   0.494   5.724   0.091  0.1674 -0.2204  0.0419
   11GLY      N  113   0.276   5.704   0.037  0.3822  0.0849  0.4108
   11GLY     HN  114   0.180   5.682   0.052  0.4326 -0.2543  0.2577
   11GLY     CA  115   0.304   5.762  -0.098  0.2597  0.2411  0.0298
   11GLY    HA1  116   0.388   5.714  -0.146 -0.0234  1.3305 -1.6172
   11GLY    HA2  117   0.322   5.865  -0.074 -1.6774 -0.1505  3.9829
   11GLY      C  118   0.179   5.770  -0.202  0.2479 -0.3561  0.8063
   11GLY    OT1  119   0.072   5.708  -0.178 -0.0161 -0.4969  0.0942
   11GLY    OT2  120   0.193   5.840  -0.304  0.0709  0.1843 -0.3618
   12SOD    SOD  121   5.317   5.841   3.362  0.3801 -0.5270 -0.1276
   13SOD    SOD  122   3.711   0.029   0.446 -0.2198 -0.2453  0.2382
   14SOD    SOD  123   5.063   1.601   4.988  0.2973  0.0287 -0.1272
   15SOD    SOD  124   5.857   5.242   4.345  0.0610  0.1554  0.0022
   16SOD    SOD  125   4.348   2.780   4.142  0.0848 -0.1299  0.2244
   17SOD    SOD  126   5.984   4.283   2.166  0.2684  0.0033  0.3215
   18SOD    SOD  127   2.041   3.230   5.056 -0.1840 -0.6407  0.0849
   19SOD    SOD  128   0.812   3.228   4.151  0.0476 -0.0137 -0.5445
   20SOD    SOD  129   2.262   4.067   3.460  0.3185 -0.0168  0.4978
   21SOD    SOD  130   1.424   2.083   0.506  0.2373  0.4582  0.1007
   22SOD    SOD  131   4.620   0.239   3.631  0.3268  0.1172  0.1944
   23SOD    SOD  132   4.450   1.599   4.848 -0.1541  0.3563 -0.0875
   24SOD    SOD  133   3.067   3.556   0.822 -0.0211 -0.1641  0.1060
   25SOD    SOD  134   1.764   2.209   4.812 -0.1171 -0.0776 -0.5168
   26SOD    SOD  135   5.339   4.360   1.572  0.0982 -0.3427 -0.3071
   27SOD    SOD  136   4.080   0.869   2.261 -0.3060 -0.0227 -0.5584
   28SOD    SOD  137   5.779   0.246   3.703 -0.8688  0.0438 -0.6775
   29SOD    SOD  138   6.167   2.928   2.759 -0.2036  0.0965  0.1712
   30SOD    SOD  139   1.614   1.010   3.355  0.4707  0.3241  0.0744
   31SOD    SOD  140   3.857   3.103   3.852  0.6428 -0.3738 -0.1656
   32SOD    SOD  141   5.010   0.805   1.917  0.0123 -0.0496 -0.0664
   33SOD    SOD  142   4.579   5.865   3.654  0.5139 -0.0375  0.1578
   34CLA    CLA  143   1.167   3.774   3.669  0.2305 -0.3478 -0.1621
   35CLA    CLA  144   3.131   1.261   1.449 -0.5836  0.5077 -0.0399
   36CLA    CLA  145   5.648   2.955   2.091 -0.2061 -0.3569  0.3606
   37CLA    CLA  146   2.974   0.438   3.442  0.1436 -0.1087 -0.0852
   38CLA    CLA  147   5.868   4.692   2.113  0.1910 -0.0644  0.1616
   39CLA    CLA  148   5.983   1.426   0.607  0.2350 -0.3040  0.1504
   40CLA    CLA  149   4.864   0.506   4.831 -0.3731  0.1793  0.1165
   41CLA    CLA  150   5.657   5.158   1.309 -0.5051  0.1490  0.1296
   42CLA    CLA  151   1.059   0.273   0.160 -0.3526  0.2970 -0.4279
   43CLA    CLA  152   5.370   4.327   3.254 -0.4248 -0.1799 -0.1245
   44CLA    CLA  153   4.959   1.725   1.270  0.1617  0.1891  0.2593
   45CLA    CLA  154   1.809   5.266   0.531  0.4722  0.2684  0.2929
   46CLA    CLA  155   5.406   4.869   2.085  0.7190 -0.1035  0.4477
   47CLA    CLA  156   5.109   1.433   3.754 -0.1828  0.2813  0.1385
   48CLA    CLA  157   4.939   5.534   3.858  0.2395 -0.0560  0.5734
   49CLA    CLA  158   2.620   2.857   1.448  0.1118  0.1067 -0.4142
   50CLA    CLA  159   1.441   0.688   0.403 -0.2106  0.2992 -0.0022
   51CLA    CLA  160   1.308   2.066   1.466 -0.2680  0.3385  0.2650
   52TIP3   OH2  161   4.593   2.144   0.797  0.0224  0.5297 -0.2112
   52TIP3    H1  162   4.506   2.179   0.781 -0.3522  0.6653  1.8357
   52TIP3    H2  163   4.589   2.110   0.887  0.9288 -3.0209 -1.3347
   53TIP3   OH2  164   4.782   1.862   1.037  0.5909  0.3154 -1.3352
   53TIP3    H1  165   4.826   1.810   1.105 -0.8934  0.3366 -0.3215
   53TIP3    H2  166   4.853   1.912   0.997  1.6393 -0.3623 -0.4117
   54TIP3   OH2  167   3.195   2.377   0.127 -0.6293 -0.0463 -0.3349
   54TIP3    H1  168   3.142   2.311   0.170 -1.1460 -0.4046 -1.4804
   54TIP3    H2  169   3.140   2.408   0.055 -0.1467  1.1782 -0.2033
   55TIP3   OH2  170   5.573   4.358   1.602 -0.4508 -0.0516 -0.7382
   55TIP3    H1  171   5.594   4.365   1.696 -0.6941  0.4638 -0.7167
   55TIP3    H2  172   5.655   4.332   1.561 -0.5090 -0.9743 -0.2966
   56TIP3   OH2  173   1.478   2.515   1.738 -0.4504 -0.1596  0.0525
   56TIP3    H1  174   1.439   2.427   1.742 -0.6473 -0.0718  0.0457
   56TIP3    H2  175   1.570   2.501   1.761 -0.3718 -0.4391 -0.4201
   57TIP3   OH2  176   2.893   1.639   2.745 -0.5256 -0.0937 -0.1586
   57TIP3    H1  177   2.874   1.548   2.767 -0.0108  0.0727  1.0315
   57TIP3    H2  178   2.884   1.687   2.827  0.9621  0.6304 -0.3785
   58TIP3   OH2  179   3.444   4.633   3.648  0.4696  0.0268 -0.4857
   58TIP3    H1  180   3.453   4.685   3.568  0.8068  0.6340 -0.0607
   58TIP3    H2  181   3.515   4.663   3.704  0.4196 -0.6115 -0.0725
   59TIP3   OH2  182   5.463   2.578   0.985  0.1880 -0.6964  0.5227
   59TIP3    H1  183   5.397   2.514   1.013  0.5339 -2.0851 -1.5496
   59TIP3    H2  184   5.501   2.611   1.066 -2.6427 -0.2189  1.8026
   60TIP3   OH2  185   6.058   1.116   3.107 -0.5252 -0.3091 -0.0479
   60TIP3    H1  186   6.063   1.128   3.202 -0.6323  0.7681 -0.1704
   60TIP3    H2  187   6.062   1.021   3.095  1.6043 -0.3999  0.9130
   61TIP3   OH2  188   2.328   2.366   3.108  0.3370 -0.3924 -0.2519
   61TIP3    H1  189   2.334   2.457   3.078  1.2311 -0.0070  1.0255
   61TIP3    H2  190   2.234   2.348   3.110  0.1360  0.6149 -0.1829
   62TIP3   OH2  191   0.808   0.781   3.200 -0.1103  0.1272 -0.6064
   62TIP3    H1  192   0.897   0.747   3.212 -0.5104 -0.6285  0.3337
   62TIP3    H2  193   0.816   0.844   3.128  1.0110 -0.6014 -1.1512
   63TIP3   OH2  194   1.806   3.211   4.730 -0.4156  0.0360  0.2516
   63TIP3    H1  195   1.834   3.264   4.805  0.1247  0.1560 -0.0304
   63TIP3    H2  196   1.885   3.166   4.701 -0.7119 -0.3383  0.0161
   64TIP3   OH2  197   5.988   2.787   2.684 -0.1414 -0.9223  0.0021
   64TIP3    H1  198   6.007   2.708   2.633  1.1897  0.8542 -2.5197
   64TIP3    H2  199   5.897   2.807   2.664 -0.3161 -1.4909  0.2025
   65TIP3   OH2  200   4.563   3.835   1.114 -0.3793  0.2538  0.1206
   65TIP3    H1  201   4.500   3.820   1.044 -0.6462  0.0112  0.4037
   65TIP3    H2  202   4.554   3.758   1.171  0.8780 -0.2609 -0.3489
   66TIP3   OH2  203   5.576   4.941   4.429  0.4281 -0.0531  0.3207
   66TIP3    H1  204   5.607   4.868   4.482 -0.4749 -1.2955 -0.7831
   66TIP3    H2  205   5.654   4.995   4.413  0.6715  0.5587  3.0985
   67TIP3   OH2  206   2.310   5.909   3.076  0.0104 -0.2479 -0.2308
   67TIP3    H1  207   2.364   5.884   3.151 -1.7421  0.0885  1.2012
   67TIP3    H2  208   2.281   5.825   3.039 -0.0386 -0.4026  0.1554
   68TIP3   OH2  209   2.094   2.921   1.836 -0.0182 -0.2034 -0.3357
   68TIP3    H1  210   2.183   2.943   1.866 -0.1002 -0.3819  0.0408
   68TIP3    H2  211   2.080   2.978   1.761  0.7032 -0.7037 -0.8678
   69TIP3   OH2  212   2.652   4.801   4.803  0.1736  0.1665 -0.2167
   69TIP3    H1  213   2.562   4.790   4.773 -0.1112  0.2110  0.6102
   69TIP3    H2  214   2.648   4.787   4.897  1.1025 -0.2123 -0.2254
   70TIP3   OH2  215   1.327   3.197   0.403  0.1465 -0.0889  0.3451
   70TIP3    H1  216   1.401   3.137   0.411  0.8212  0.8136  1.0468
   70TIP3    H2  217   1.340   3.262   0.471 -2.1944 -0.8028  1.5941
   71TIP3   OH2  218   4.796   2.170   0.216 -0.8140 -0.3792  0.2377
   71TIP3    H1  219   4.863   2.105   0.237 -1.7490 -1.1201  1.0136
   71TIP3    H2  220   4.784   2.163   0.122 -1.5015 -1.9767  0.4029
   72TIP3   OH2  221   3.241   3.572   1.323  0.6151  0.2687  0.0697
   72TIP3    H1  222   3.233   3.665   1.345  1.4574  0.3170  0.1926
   72TIP3    H2  223   3.303   3.570   1.250  1.1578 -0.2547  0.5397
   73TIP3   OH2  224   2.421   4.717   3.857  0.0060 -1.0034 -0.1265
   73TIP3    H1  225   2.438   4.678   3.942 -1.8392  0.7933  1.1516
   73TIP3    H2  226   2.337   4.681   3.830  0.1897 -0.9346 -0.8219
   74TIP3   OH2  227   3.290   0.867   3.339 -0.2267 -0.5737 -0.1700
   74TIP3    H1  228   3.285   0.941   3.400  0.1259 -0.2839 -0.4903
   74TIP3    H2  229   3.343   0.899   3.267 -2.3637 -0.1567 -1.6711
   75TIP3   OH2  230   3.905   4.460   1.670  0.3057 -0.5012  0.0816
   75TIP3    H1  231   3.921   4.428   1.758  0.2148 -0.2510  0.1907
   75TIP3    H2  232   3.814   4.436   1.651  0.1598 -0.1002  0.2566
   76TIP3   OH2  233   0.527   1.010   1.518  0.2222 -0.3139  0.1767
   76TIP3    H1  234   0.456   1.073   1.509 -0.9172 -1.2446  2.2055
   76TIP3    H2  235   0.501   0.936   1.462 -0.2217 -0.4928  0.6173
   77TIP3   OH2  236   0.824   2.338   1.511 -0.6617  0.6516  0.2845
   77TIP3    H1  237   0.854   2.400   1.577  0.6433 -0.6318  0.9523
   77TIP3    H2  238   0.903   2.311   1.464 -1.4181  0.7059 -1.0859
   78TIP3   OH2  239   2.612   5.741   3.504 -0.3217 -0.3084 -0.2734
   78TIP3    H1  240   2.646   5.777   3.586  0.3239 -2.2411  0.3471
   78TIP3    H2  241   2.545   5.678   3.532 -2.3904  1.2772 -1.3817
   79TIP3   OH2  242   2.487   3.065   1.649  0.2204  0.2173 -0.0309
   79TIP3    H1  243   2.542   2.991   1.625 -0.3956 -1.1046  2.3717
   79TIP3    H2  244   2.424   3.073   1.576  0.2555 -1.6662 -0.3078
   80TIP3   OH2  245   1.747   1.168   4.889 -0.3326  0.3428  0.2592
   80TIP3    H1  246   1.768   1.258   4.917  0.4520 -0.3539  2.0637
   80TIP3    H2  247   1.807   1.113   4.940  0.1904 -1.1592 -1.8540
   81TIP3   OH2  248   4.715   5.158   4.654  0.4349  0.1855  0.5458
   81TIP3    H1  249   4.680   5.150   4.566  0.5970 -0.2461  0.5168
   81TIP3    H2  250   4.668   5.231   4.693  0.5340  0.5278  0.0207
   82TIP3   OH2  251   5.783   2.616   2.377 -0.3111 -0.7266 -0.2970
   82TIP3    H1  252   5.746   2.536   2.339  1.6196 -2.4134  1.1210
   82TIP3    H2  253   5.828   2.659   2.304  0.1616 -1.9257 -0.7452
   83TIP3   OH2  254   4.144   1.405   0.469  0.2791  0.0809 -0.0090
   83TIP3    H1  255   4.236   1.386   0.455  0.4695  0.1796  1.0710
   83TIP3    H2  256   4.141   1.451   0.553 -0.5516  1.6759 -0.8537
   84TIP3   OH2  257   6.075   4.111   4.623  0.1509 -0.3814  0.2275
   84TIP3    H1  258   6.022   4.044   4.579 -2.5973  1.5545  0.3797
   84TIP3    H2  259   6.155   4.115   4.570 -1.5548 -0.5798 -2.6024
   85TIP3   OH2  260   1.856   3.796   4.110 -0.3043 -0.4874 -0.0639
   85TIP3    H1  261   1.819   3.711   4.130 -0.3813 -0.1217  1.5021
   85TIP3    H2  262   1.830   3.852   4.183  1.3142  0.3860 -0.0885
   86TIP3   OH2  263   4.373   3.346   1.194  0.1055  0.7703 -0.3520
   86TIP3    H1  264   4.454   3.317   1.152 -0.6627 -0.9012 -0.7345
   86TIP3    H2  265   4.363   3.288   1.269 -1.4775 -0.0027 -1.1250
   87TIP3   OH2  266   2.324   5.438   2.407 -0.3504 -0.0221 -0.2323
   87TIP3    H1  267   2.252   5.378   2.427 -0.0660  0.2467  1.8594
   87TIP3    H2  268   2.344   5.422   2.315 -1.9312 -1.3326 -0.3951
   88TIP3   OH2  269   0.279   1.374   0.550 -0.8317  0.8409 -0.4527
   88TIP3    H1  270   0.363   1.358   0.594 -0.4550 -0.2103 -1.4974
   88TIP3    H2  271   0.226   1.298   0.574 -0.8472  0.5894 -1.2530
   89TIP3   OH2  272   6.254   5.687   4.622 -0.4237 -0.0259 -0.2419
   89TIP3    H1  273   6.248   5.604   4.669 -1.8408 -0.2041 -0.6913
   89TIP3    H2  274   6.186   5.742   4.661  1.4072  1.4712  1.0233
   90TIP3   OH2  275   2.130   0.700   2.615 -0.1322 -0.5610 -0.3038
   90TIP3    H1  276   2.168   0.754   2.546  0.7709 -0.7739  0.0065
   90TIP3    H2  277   2.061   0.650   2.572 -0.8298  0.6460 -0.6466
   91TIP3   OH2  278   1.634   0.997   2.869  0.0033  0.5206 -0.1850
   91TIP3    H1  279   1.581   0.969   2.944  0.4555  0.3047  0.0588
   91TIP3    H2  280   1.659   1.087   2.890 -0.3121  0.6414 -0.3260
   92TIP3   OH2  281   1.422   0.092   5.057  0.1404 -0.0520 -0.2939
   92TIP3    H1  282   1.453   0.002   5.054  0.8738  0.2015 -0.7706
   92TIP3    H2  283   1.415   0.113   5.150 -0.3551 -0.7024 -0.1816
   93TIP3   OH2  284   1.186   3.918   2.727 -0.3146 -0.6201 -0.3434
   93TIP3    H1  285   1.191   4.006   2.688 -1.5359 -0.6642 -0.6702
   93TIP3    H2  286   1.247   3.920   2.800  1.7791 -0.3879 -1.9806
   94TIP3   OH2  287   4.676   1.782   1.377 -0.1652 -0.0067  0.1744
   94TIP3    H1  288   4.758   1.773   1.329 -0.9579  0.5467 -1.3826
   94TIP3    H2  289   4.633   1.697   1.366 -0.3066  0.0891 -0.0166
   95TIP3   OH2  290   0.116   5.733   3.623  0.1406 -0.3861 -0.1103
   95TIP3    H1  291   0.162   5.681   3.559  1.8764  0.7372  0.1498
   95TIP3    H2  292   0.066   5.797   3.572  0.3853 -0.4034 -0.3684
   96TIP3   OH2  293   6.230   2.504   5.080 -0.2065  0.1645  0.0482
   96TIP3    H1  294   6.290   2.432   5.059  0.1720 -0.2305  2.2032
   96TIP3    H2  295   6.274   2.551   5.151 -1.4039  1.2649  0.0882
   97TIP3   OH2  296   1.952   0.449   4.360  0.5018 -0.1065 -0.4250
   97TIP3    H1  297   2.040   0.420   4.384  0.4983  0.3289  0.1137
   97TIP3    H2  298   1.909   0.469   4.443 -0.1133 -0.3196 -0.6806
   98TIP3   OH2  299   4.795   3.675   3.983 -0.0566  0.3718 -0.1251
   98TIP3    H1  300   4.853   3.727   3.926  0.4038 -0.1470 -0.1451
   98TIP3    H2  301   4.713   3.668   3.934  0.1578  0.3812 -0.4932
   99TIP3   OH2  302   3.864   4.769   2.217  0.2543 -0.4249  0.5305
   99TIP3    H1  303   3.901   4.718   2.145 -0.5272 -0.3140  0.0468
   99TIP3    H2  304   3.877   4.714   2.294  1.4879 -0.3609  0.3963
  100TIP3   OH2  305   0.983   2.040   4.114 -0.5833 -0.1200 -0.3026
  100TIP3    H1  306   0.996   2.065   4.023 -2.1725  1.7330 -0.0923
  100TIP3    H2  307   1.068   2.053   4.155  0.0725 -0.6822 -1.4418
  101TIP3   OH2  308   3.109   5.398   2.311 -0.0807  0.0938 -0.5126
  101TIP3    H1  309   3.050   5.378   2.238  1.0797  1.2959 -1.8271
  101TIP3    H2  310   3.185   5.342   2.297  0.0601  0.1769 -0.0988
  102TIP3   OH2  311   3.179   1.501   5.082 -0.2933 -0.0065 -0.3437
  102TIP3    H1  312   3.258   1.469   5.125 -0.6572 -3.4050 -1.8706
  102TIP3    H2  313   3.186   1.469   4.992 -1.9818  2.3345 -1.4225
  103TIP3   OH2  314   4.573   3.858   3.200  0.3940 -0.1436 -0.0702
  103TIP3    H1  315   4.650   3.818   3.239  1.5868  0.0092 -2.1209
  103TIP3    H2  316   4.587   3.952   3.209  0.8392 -0.0957 -1.0463
  104TIP3   OH2  317   4.789   4.786   4.457  0.4421  0.0893 -0.6453
  104TIP3    H1  318   4.869   4.839   4.460  0.0547  0.6479  0.1402
  104TIP3    H2  319   4.735   4.828   4.389  1.2263 -0.9230 -1.9492
  105TIP3   OH2  320   0.188   4.792   1.339 -0.0059 -0.2552 -0.1302
  105TIP3    H1  321   0.141   4.861   1.292  0.4642  0.6356  0.6494
  105TIP3    H2  322   0.147   4.711   1.311  1.4046  0.0174 -3.4717
  106TIP3   OH2  323   1.579   5.824   3.257 -0.5322  0.0618  0.0045
  106TIP3    H1  324   1.492   5.845   3.292 -1.1208 -0.4685 -1.1107
  106TIP3    H2  325   1.564   5.806   3.164  0.8885  0.7225 -0.3753
  107TIP3   OH2  326   3.768   1.316   4.680  0.2154 -0.4910 -1.0414
  107TIP3    H1  327   3.817   1.381   4.630 -0.1999  0.4580 -0.2538
  107TIP3    H2  328   3.708   1.368   4.734  0.9705 -1.4289  0.7851
  108TIP3   OH2  329   1.461   5.738   3.918 -0.0733 -0.0971  0.0462
  108TIP3    H1  330   1.524   5.698   3.858  0.3532  2.9102 -1.6828
  108TIP3    H2  331   1.513   5.767   3.992  0.5793  1.8750 -1.1217
  109TIP3   OH2  332   0.314   1.723   1.732  0.2868 -0.2739 -0.6806
  109TIP3    H1  333   0.234   1.673   1.744  1.1285 -1.2166  1.4972
  109TIP3    H2  334   0.335   1.713   1.639 -2.1277  0.1004 -1.3396
  110TIP3   OH2  335   0.151   0.298   3.101 -0.3099 -0.0615 -0.7652
  110TIP3    H1  336   0.200   0.297   3.019 -3.0807  0.6727 -2.6016
  110TIP3    H2  337   0.198   0.360   3.157  1.0478  0.2891 -2.2269
  111TIP3   OH2  338   2.223   4.404   0.382  0.0235  0.0475 -0.6613
  111TIP3    H1  339   2.229   4.309   0.368  1.5011  0.0452 -0.1670
  111TIP3    H2  340   2.182   4.437   0.302 -0.3776 -0.9799 -0.9074
  112TIP3   OH2  341   2.770   1.685   4.815  0.2957  0.0344 -0.2481
  112TIP3    H1  342   2.835   1.657   4.751 -0.6581 -1.7391 -0.4969
  112TIP3    H2  343   2.724   1.757   4.773  1.4355  0.6575 -0.4570
  113TIP3   OH2  344   2.317   0.102   3.147 -0.3201  0.9490  0.0786
  113TIP3    H1  345   2.273   0.033   3.098 -0.5667  1.5492 -0.5527
  113TIP3    H2  346   2.363   0.056   3.217  0.8932 -0.0257 -1.3097
  114TIP3   OH2  347   1.058   4.909   1.217  0.2381 -0.6282  0.4820
  114TIP3    H1  348   1.141   4.952   1.240 -0.3647 -0.7758  3.3113
  114TIP3    H2  349   0.991   4.972   1.242 -0.5443 -0.9797 -0.6781
  115TIP3   OH2  350   3.986   3.961   4.721 -0.3393 -0.1004 -0.4246
  115TIP3    H1  351   3.985   4.056   4.730  3.0536 -0.1428  3.5882
  115TIP3    H2  352   4.028   3.946   4.636 -0.2052  1.9842 -0.7966
  116TIP3   OH2  353   2.648   5.567   2.260  0.6135 -0.5711 -0.2241
  116TIP3    H1  354   2.675   5.654   2.288  0.1521 -0.5265  0.0845
  116TIP3    H2  355   2.570   5.581   2.207 -0.5495 -0.9251  1.3305
  117TIP3   OH2  356   0.623   4.866   3.340  0.2767 -0.2501  0.3567
  117TIP3    H1  357   0.573   4.799   3.293  1.1800 -0.8510  0.2208
  117TIP3    H2  358   0.713   4.851   3.313  0.5042  0.9779  0.3942
  118TIP3   OH2  359   3.577   5.581   2.181 -0.0613 -0.1295 -0.0017
  118TIP3    H1  360   3.532   5.496   2.182 -1.1107  0.4257  0.8754
  118TIP3    H2  361   3.667   5.559   2.155 -0.6188 -1.3469 -1.0343
  119TIP3   OH2  362   2.842   0.698   0.594  0.3829 -0.0500  0.0080
  119TIP3    H1  363   2.908   0.746   0.643  0.8169 -2.0349  1.5329
  119TIP3    H2  364   2.759   0.724   0.634  0.3959  0.9795 -0.6055
  120TIP3   OH2  365   2.928   0.553   1.255 -0.2126  0.3113 -0.2228
  120TIP3    H1  366   3.022   0.540   1.270 -0.4767  0.1163  1.3965
  120TIP3    H2  367   2.912   0.644   1.281 -0.0122  1.2700 -3.1086
  121TIP3   OH2  368   1.231   3.968   0.231  0.4160 -0.1534 -0.0452
  121TIP3    H1  369   1.221   4.000   0.321  0.4264  0.1150 -0.1404
  121TIP3    H2  370   1.142   3.959   0.198  0.4327  0.5399 -0.2886
  122TIP3   OH2  371   4.478   5.694   2.285  0.1699  0.2619 -0.5825
  122TIP3    H1  372   4.402   5.696   2.343  1.1083  0.1732  0.7114
  122TIP3    H2  373   4.495   5.601   2.272  0.7990  0.2476  0.2033
  123TIP3   OH2  374   0.077   1.811   4.819 -0.7507 -0.1552  0.2900
  123TIP3    H1  375   0.147   1.766   4.772 -1.3542 -0.2228 -0.5759
  123TIP3    H2  376   0.117   1.838   4.902  0.4444  0.2941 -0.4066
  124TIP3   OH2  377   4.233   5.338   2.134 -0.4892 -0.3079 -0.2226
  124TIP3    H1  378   4.252   5.277   2.205 -2.4872 -0.3356  0.3398
  124TIP3    H2  379   4.308   5.330   2.075  0.2166 -1.8391  0.8182
  125TIP3   OH2  380   3.640   1.736   2.729  0.0496 -0.0084  0.0625
  125TIP3    H1  381   3.697   1.770   2.660 -2.2122  0.0854 -1.9001
  125TIP3    H2  382   3.566   1.697   2.682 -1.8768  0.5087  2.4228
  126TIP3   OH2  383   4.371   3.142   0.344  0.2460  0.4553 -0.3919
  126TIP3    H1  384   4.400   3.181   0.261 -1.5279 -1.9819 -2.3284
  126TIP3    H2  385   4.285   3.107   0.325  1.5562 -4.2780  1.0130
  127TIP3   OH2  386   5.203   3.637   2.983  0.0457  0.1689 -0.5213
  127TIP3    H1  387   5.216   3.560   3.038 -1.4475 -0.7300 -1.3506
  127TIP3    H2  388   5.286   3.648   2.937  1.2680  0.8391  1.7156
  128TIP3   OH2  389   2.723   5.433   3.641  0.0064  0.0540 -0.1908
  128TIP3    H1  390   2.808   5.390   3.640  0.4965  1.0014 -0.6209
  128TIP3    H2  391   2.691   5.420   3.730 -0.3067 -2.0064 -0.5556
  129TIP3   OH2  392   2.646   4.844   3.212 -0.3968 -0.0342 -0.0256
  129TIP3    H1  393   2.640   4.758   3.170 -2.1544 -0.3284  0.7620
  129TIP3    H2  394   2.604   4.904   3.151 -1.0255 -0.0998  0.3338
  130TIP3   OH2  395   1.540   5.761   1.798  0.0618 -0.1268 -0.2292
  130TIP3    H1  396   1.489   5.680   1.793  0.0437 -0.2461  1.3398
  130TIP3    H2  397   1.629   5.731   1.822 -0.1026  0.3323  1.0317
  131TIP3   OH2  398   3.716   4.362   0.223  0.1317  0.0835  0.3826
  131TIP3    H1  399   3.762   4.446   0.219 -0.6107  0.5031  0.4961
  131TIP3    H2  400   3.749   4.322   0.304 -0.6010  0.9357  1.1384
  132TIP3   OH2  401   3.598   1.226   0.103  0.1767 -0.0372 -0.5677
  132TIP3    H1  402   3.573   1.148   0.152  0.0773  1.0809  1.2552
  132TIP3    H2  403   3.515   1.271   0.086  0.2429 -0.2577 -1.5027
  133TIP3   OH2  404   0.134   0.105   2.491  0.2065 -0.7621  0.6553
  133TIP3    H1  405   0.117   0.148   2.407 -0.9108 -0.9199  0.7871
  133TIP3    H2  406   0.230   0.101   2.497  0.4655  3.0770  1.3431
  134TIP3   OH2  407   3.692   0.959   1.529 -0.4392  0.2736  0.5291
  134TIP3    H1  408   3.780   0.934   1.556 -0.3644 -1.2473 -0.9460
  134TIP3    H2  409   3.636   0.887   1.557 -0.5044 -0.8771 -2.2564
  135TIP3   OH2  410   1.041   1.842   2.273  0.0372  0.2542  0.6051
  135TIP3    H1  411   1.061   1.778   2.340 -0.0272  0.6588  1.0176
  135TIP3    H2  412   0.949   1.827   2.252  0.4659 -0.9386 -0.5674
  136TIP3   OH2  413   1.173   2.374   0.483  0.4267  0.1453  0.4948
  136TIP3    H1  414   1.266   2.382   0.463  0.3359  2.0445  0.6622
  136TIP3    H2  415   1.131   2.443   0.431 -0.9332 -0.8084  0.2631
  137TIP3   OH2  416   1.425   2.445   0.749 -0.6301 -0.0537  0.1053
  137TIP3    H1  417   1.381   2.526   0.776  1.3758  0.3340  2.5972
  137TIP3    H2  418   1.369   2.375   0.783  0.1372  0.4255  2.6228
  138TIP3   OH2  419   0.337   5.762   2.158  0.0762  0.5473  0.3414
  138TIP3    H1  420   0.381   5.844   2.180  0.5562  0.2055  0.6733
  138TIP3    H2  421   0.270   5.787   2.095  1.3279  0.9660 -0.8814
  139TIP3   OH2  422   4.108   0.499   0.716 -0.5545 -0.0744  0.0130
  139TIP3    H1  423   4.136   0.590   0.707  5.1640 -1.4530 -0.2991
  139TIP3    H2  424   4.113   0.481   0.810 -0.8670 -0.2476 -0.0025
  140TIP3   OH2  425   3.062   0.171   1.231  0.2003  0.6393  0.1512
  140TIP3    H1  426   2.973   0.179   1.196  0.0132  0.1506  0.5018
  140TIP3    H2  427   3.053   0.188   1.325  0.7576  2.3052 -0.0614
  141TIP3   OH2  428   2.966   4.310   0.679 -0.2566 -0.3488 -0.6097
  141TIP3    H1  429   2.892   4.346   0.728  0.0110 -0.0896 -0.3915
  141TIP3    H2  430   2.933   4.297   0.590 -0.0444  1.5377 -1.0060
  142TIP3   OH2  431   2.675   1.876   1.701 -0.0560 -0.0429  0.1285
  142TIP3    H1  432   2.764   1.908   1.689  0.8061 -2.4717 -0.6099
  142TIP3    H2  433   2.672   1.849   1.793  0.5077 -1.3484 -0.2157
  143TIP3   OH2  434   1.324   3.279   1.665  0.2945 -0.3882 -0.3568
  143TIP3    H1  435   1.330   3.303   1.573  0.6008 -1.8992 -0.7561
  143TIP3    H2  436   1.303   3.361   1.710  1.2425  0.5958 -1.6245
  144TIP3   OH2  437   5.147   2.089   4.652 -0.2371  0.7379  0.9003
  144TIP3    H1  438   5.221   2.040   4.689 -0.4753  1.0234  1.7881
  144TIP3    H2  439   5.145   2.170   4.702  0.4441  1.8994 -0.8689
  145TIP3   OH2  440   5.912   1.431   4.495 -0.2426 -0.1347 -0.2215
  145TIP3    H1  441   5.921   1.343   4.532 -1.2045 -0.0986  0.1083
  145TIP3    H2  442   5.849   1.475   4.552 -0.0147  0.6657 -0.5781
  146TIP3   OH2  443   5.367   1.540   2.071  0.1278 -0.5362 -0.1221
  146TIP3    H1  444   5.379   1.520   1.979  1.6103 -0.7067  0.0733
  146TIP3    H2  445   5.447   1.508   2.113 -0.0154  0.5447  1.0474
  147TIP3   OH2  446   3.178   5.029   2.941  0.0007  0.8929 -0.4953
  147TIP3    H1  447   3.135   5.001   3.022  0.2523 -0.6359 -0.8607
  147TIP3    H2  448   3.247   4.965   2.926  1.5549  2.5112 -0.6701
  148TIP3   OH2  449   3.789   2.164   3.424 -0.5517  0.1426  0.6269
  148TIP3    H1  450   3.782   2.070   3.445 -1.6702  0.4520  1.7282
  148TIP3    H2  451   3.745   2.208   3.496 -1.3595  1.4539 -0.6153
  149TIP3   OH2  452   5.064   5.852   2.501 -0.3698  0.4305  0.1531
  149TIP3    H1  453   5.128   5.783   2.520  0.7109  1.5981  0.9177
  149TIP3    H2  454   5.024   5.826   2.418  1.9724  0.2337 -1.0040
  150TIP3   OH2  455   6.335   5.517   1.858  0.1446 -0.1958  0.3294
  150TIP3    H1  456   6.379   5.512   1.773  2.1505 -0.3354  1.3070
  150TIP3    H2  457   6.243   5.534   1.837  0.7695  0.8774 -1.8295
  151TIP3   OH2  458   3.115   2.157   0.220  0.0806 -0.2404 -0.1453
  151TIP3    H1  459   3.157   2.075   0.245  1.6677  0.1744 -1.3095
  151TIP3    H2  460   3.023   2.145   0.244  0.3916 -2.1223  0.2600
  152TIP3   OH2  461   5.694   4.599   2.921 -0.0326 -0.0126  0.0436
  152TIP3    H1  462   5.613   4.554   2.941  0.2687 -0.4928  0.2004
  152TIP3    H2  463   5.725   4.559   2.839 -0.3917  0.7643 -0.4801
  153TIP3   OH2  464   0.416   4.988   3.065 -0.2870 -0.0561  0.3189
  153TIP3    H1  465   0.348   4.981   3.133 -0.5753  0.2243  0.0642
  153TIP3    H2  466   0.418   4.901   3.024 -0.4277 -0.0933  0.3899
  154TIP3   OH2  467   1.888   3.333   0.557 -0.2571 -0.2011 -0.9139
  154TIP3    H1  468   1.916   3.349   0.648  0.6483 -2.5885 -0.6901
  154TIP3    H2  469   1.966   3.352   0.505 -0.0430 -1.0873 -0.9269
  155TIP3   OH2  470   4.467   1.561   1.361  0.2642 -0.4783 -0.5823
  155TIP3    H1  471   4.386   1.588   1.318 -0.5572 -2.2826 -0.2209
  155TIP3    H2  472   4.448   1.563   1.454  0.7956 -0.4656 -0.4676
  156TIP3   OH2  473   3.607   2.638   2.396 -0.1150 -0.3822  0.8173
  156TIP3    H1  474   3.640   2.718   2.438  1.5908 -0.4426 -0.2823
  156TIP3    H2  475   3.678   2.574   2.407 -0.6908 -1.1722  0.0734
  157TIP3   OH2  476   1.764   5.837   0.411 -0.6295 -0.6638  0.3322
  157TIP3    H1  477   1.834   5.902   0.413  0.1185 -1.4441  0.0771
  157TIP3    H2  478   1.784   5.777   0.484 -0.0126 -1.9008 -0.8133
  158TIP3   OH2  479   5.880   5.610   3.856 -0.0139  0.5080  0.4574
  158TIP3    H1  480   5.923   5.526   3.869 -0.4628  0.5254  2.3428
  158TIP3    H2  481   5.938   5.658   3.798  1.5103 -0.1936  1.3373
  159TIP3   OH2  482   1.374   5.924   4.475 -0.5987  0.4113 -0.1255
  159TIP3    H1  483   1.288   5.893   4.503 -0.1494  0.8742  1.9285
  159TIP3    H2  484   1.435   5.855   4.502 -0.0157  1.3981  1.2143
  160TIP3   OH2  485   4.845   5.341   2.803  0.3542 -0.2765  0.1345
  160TIP3    H1  486   4.834   5.281   2.729  2.2541 -1.3112  0.6136
  160TIP3    H2  487   4.935   5.326   2.833 -0.4005 -0.0713  2.7906
  161TIP3   OH2  488   1.087   0.835   2.000 -0.1279 -0.3878  0.4652
  161TIP3    H1  489   1.145   0.899   2.040  1.3202 -2.0942  1.2811
  161TIP3    H2  490   1.029   0.807   2.071 -1.7519  1.0035 -0.2433
  162TIP3   OH2  491   3.150   5.678   1.733 -0.0314 -0.6548  0.4531
  162TIP3    H1  492   3.168   5.752   1.791 -0.9148 -1.7310  2.1781
  162TIP3    H2  493   3.213   5.611   1.758  0.1501 -0.8405 -0.4523
  163TIP3   OH2  494   0.590   2.090   3.343 -0.2866  0.1512 -0.0528
  163TIP3    H1  495   0.513   2.060   3.391 -0.3198  1.7626  0.9788
  163TIP3    H2  496   0.575   2.184   3.331  0.4902  0.0873 -1.8192
  164TIP3   OH2  497   0.419   4.748   2.890 -0.3216 -0.1912 -0.5441
  164TIP3    H1  498   0.393   4.656   2.887 -0.4181 -0.1466 -1.2782
  164TIP3    H2  499   0.514   4.746   2.904 -0.2433 -0.4235 -1.0582
  165TIP3   OH2  500   0.128   1.096   3.130 -0.1705 -0.8351 -0.0500
  165TIP3    H1  501   0.131   1.014   3.179 -0.4616 -1.1500 -0.5501
  165TIP3    H2  502   0.146   1.163   3.195  0.5865 -1.3275  0.2669
  166TIP3   OH2  503   0.357   5.149   3.370 -0.0834  0.1957  0.0586
  166TIP3    H1  504   0.290   5.183   3.430 -0.3801  1.4360 -0.9384
  166TIP3    H2  505   0.322   5.066   3.339 -1.8819  1.4793 -1.5563
  167TIP3   OH2  506   4.632   0.930   4.766 -0.1192  0.4238  0.2286
  167TIP3    H1  507   4.718   0.914   4.726 -0.1276 -0.9288  0.6973
  167TIP3    H2  508   4.576   0.860   4.730 -1.0674  1.3701 -0.1722
  168TIP3   OH2  509   3.140   0.590   4.324 -0.2747 -0.4920 -0.5058
  168TIP3    H1  510   3.200   0.601   4.250  0.7423  0.8531  0.4549
  168TIP3    H2  511   3.174   0.515   4.372  1.5757  1.0770  0.7972
  169TIP3   OH2  512   4.113   3.012   0.317  0.0549 -0.4152 -0.1146
  169TIP3    H1  513   4.089   2.961   0.395 -0.0085  0.1562  0.2478
  169TIP3    H2  514   4.105   2.950   0.245  0.0522 -0.9386  0.3248
  170TIP3   OH2  515   0.699   4.320   1.905 -0.1019  0.2186 -0.0289
  170TIP3    H1  516   0.762   4.390   1.887  0.4283 -0.2508 -0.0392
  170TIP3    H2  517   0.744   4.240   1.879 -1.9607  0.0910 -3.2985
  171TIP3   OH2  518   2.702   5.309   2.287 -0.3339 -0.0842 -0.0016
  171TIP3    H1  519   2.660   5.269   2.211 -1.4332 -2.0104  1.5287
  171TIP3    H2  520   2.701   5.403   2.268 -2.4589 -0.3305 -1.4390
  172TIP3   OH2  521   5.401   3.647   0.111  0.0079  0.4918 -0.6015
  172TIP3    H1  522   5.471   3.697   0.152  0.1472 -0.8776  0.9108
  172TIP3    H2  523   5.373   3.702   0.037  3.0716  0.7753 -1.6707
  173TIP3   OH2  524   2.426   5.321   0.808 -0.5535 -0.0750  0.0911
  173TIP3    H1  525   2.339   5.305   0.770  0.2595 -1.4948 -1.2636
  173TIP3    H2  526   2.413   5.309   0.902 -1.3993 -2.4714 -0.2716
  174TIP3   OH2  527   4.286   1.656   2.342  0.1346 -0.3393 -0.0106
  174TIP3    H1  528   4.375   1.623   2.355 -0.0757 -1.0443 -0.3031
  174TIP3    H2  529   4.238   1.625   2.418  0.4615  1.2593  0.8688
  175TIP3   OH2  530   1.599   3.818   3.979 -0.1717  0.5185 -0.2659
  175TIP3    H1  531   1.655   3.872   3.923  0.8886 -1.4879 -1.2046
  175TIP3    H2  532   1.657   3.752   4.015 -1.6116 -0.5831  0.1133
  176TIP3   OH2  533   6.254   3.030   2.318 -0.0047  0.6318 -0.7636
  176TIP3    H1  534   6.293   2.960   2.266  1.3017 -0.6144  1.7037
  176TIP3    H2  535   6.319   3.100   2.318 -0.0006  0.6278 -0.8045
  177TIP3   OH2  536   5.207   0.488   0.748  0.4745  0.6980 -0.3168
  177TIP3    H1  537   5.198   0.401   0.785  2.0632  0.9798  0.8240
  177TIP3    H2  538   5.194   0.476   0.654 -0.4610 -0.5567 -0.0459
  178TIP3   OH2  539   3.251   3.503   5.125  0.5447  0.5818  0.0520
  178TIP3    H1  540   3.284   3.569   5.186  1.6534  0.8031 -0.7528
  178TIP3    H2  541   3.231   3.427   5.180  1.1001  0.9226  0.7474
  179TIP3   OH2  542   3.474   3.222   2.832  0.1645 -0.2444  0.2830
  179TIP3    H1  543   3.390   3.179   2.849  0.6157 -1.2252  0.1245
  179TIP3    H2  544   3.484   3.221   2.737  1.4834 -2.4929  0.3538
  180TIP3   OH2  545   2.808   5.463   3.325  0.3258 -0.2298  0.0055
  180TIP3    H1  546   2.891   5.452   3.279  0.6906  0.7651  0.3823
  180TIP3    H2  547   2.793   5.558   3.325  0.5557 -0.1236  2.2253
  181TIP3   OH2  548   5.031   5.648   4.305 -0.1299 -0.0093 -0.2189
  181TIP3    H1  549   5.062   5.578   4.248  0.7985  0.2194 -0.0106
  181TIP3    H2  550   4.977   5.703   4.249 -0.8052 -0.8480 -0.4021
  182TIP3   OH2  551   3.341   4.719   1.244 -0.7183 -0.7060 -0.2801
  182TIP3    H1  552   3.264   4.774   1.256 -0.3229  0.0867 -1.2110
  182TIP3    H2  553   3.396   4.737   1.320 -1.4072 -1.2200  0.3504
  183TIP3   OH2  554   3.535   1.032   2.900  0.3944 -0.6612 -0.3008
  183TIP3    H1  555   3.506   1.024   2.809  0.0708 -0.5349 -0.2093
  183TIP3    H2  556   3.559   1.124   2.909 -0.1891 -0.5233 -0.0805
  184TIP3   OH2  557   5.185   2.288   3.131 -0.5989  0.4391  0.6012
  184TIP3    H1  558   5.134   2.325   3.203  0.3624 -1.1578  2.1881
  184TIP3    H2  559   5.169   2.194   3.136 -0.8583  0.3167 -1.6016
  185TIP3   OH2  560   4.220   3.901   2.469 -0.4785  0.2213  0.1818
  185TIP3    H1  561   4.188   3.895   2.559  0.0996 -1.1591  0.3214
  185TIP3    H2  562   4.301   3.850   2.469 -0.7984 -0.3287 -1.2524
  186TIP3   OH2  563   2.714   4.511   0.834  0.0199 -0.0183 -0.1180
  186TIP3    H1  564   2.777   4.488   0.902 -1.4723 -2.9798  0.4172
  186TIP3    H2  565   2.665   4.584   0.871  1.2254  0.4360  0.6512
  187TIP3   OH2  566   4.135   2.430   3.156 -0.4287 -0.4020 -0.4594
  187TIP3    H1  567   4.225   2.403   3.175 -0.0052  1.4208  0.3827
  187TIP3    H2  568   4.121   2.404   3.065  1.5114  0.5970 -1.1105
  188TIP3   OH2  569   3.371   2.549   1.045 -0.0359  0.6137 -0.5426
  188TIP3    H1  570   3.428   2.561   1.120 -0.5640 -1.4484  0.2646
  188TIP3    H2  571   3.305   2.619   1.053 -0.3854  0.1316  1.2346
  189TIP3   OH2  572   2.260   0.889   1.949 -0.4201 -0.1511 -0.1455
  189TIP3    H1  573   2.170   0.859   1.962 -0.2661 -0.4955  0.1343
  189TIP3    H2  574   2.252   0.964   1.890 -0.8851 -0.2150 -0.1654
  190TIP3   OH2  575   3.899   0.395   0.223  0.3704 -0.6171  0.0903
  190TIP3    H1  576   3.982   0.409   0.268  0.0444  1.5123  0.1147
  190TIP3    H2  577   3.917   0.416   0.132 -0.1485 -0.0543  0.1106
  191TIP3   OH2  578   0.442   0.381   4.916  0.0179 -0.2404 -0.5161
  191TIP3    H1  579   0.523   0.330   4.916 -0.0127 -0.4029 -3.0502
  191TIP3    H2  580   0.393   0.347   4.991  2.4790  0.3077  1.5328
  192TIP3   OH2  581   5.191   4.699   0.471  0.3496  0.6440  0.4200
  192TIP3    H1  582   5.144   4.615   0.473 -0.4309  1.0697  0.5361
  192TIP3    H2  583   5.213   4.713   0.379 -2.0271  1.6387 -0.0830
  193TIP3   OH2  584   0.764   3.583   2.822 -0.3683  0.5911 -0.0806
  193TIP3    H1  585   0.819   3.577   2.744 -0.2629  0.4207  0.0039
  193TIP3    H2  586   0.676   3.598   2.788 -0.1263  1.8448 -0.1788
  194TIP3   OH2  587   2.867   2.732   1.884  0.7000  0.8616 -0.1843
  194TIP3    H1  588   2.844   2.650   1.930  2.3749  0.5618  0.1710
  194TIP3    H2  589   2.819   2.727   1.801 -2.1324  1.2445  1.2836
  195TIP3   OH2  590   5.133   4.448   2.240  0.1902 -0.1867 -0.9387
  195TIP3    H1  591   5.145   4.383   2.308 -0.8734 -0.3714 -0.9005
  195TIP3    H2  592   5.191   4.520   2.264 -0.9734  0.2417  0.8204
  196TIP3   OH2  593   2.165   3.330   4.623 -0.1798  0.6825 -0.0153
  196TIP3    H1  594   2.113   3.409   4.637 -1.0570  0.0858  0.1840
  196TIP3    H2  595   2.197   3.337   4.533 -1.0746  0.7894 -0.3253
  197TIP3   OH2  596   0.164   5.511   0.915  0.0631 -0.2725 -0.3873
  197TIP3    H1  597   0.122   5.472   0.991  0.1723  0.7765  0.2322
  197TIP3    H2  598   0.098   5.509   0.846 -0.3413 -0.4033  0.0060
  198TIP3   OH2  599   3.108   1.294   2.834 -0.1588  0.0274  0.7366
  198TIP3    H1  600   3.074   1.246   2.910  0.5538 -1.0360  0.4155
  198TIP3    H2  601   3.052   1.267   2.762 -1.5172  1.8626  1.0377
  199TIP3   OH2  602   2.783   5.131   2.932  0.1947 -0.5235  0.3833
  199TIP3    H1  603   2.737   5.170   2.857 -0.0562  0.0926  0.8568
  199TIP3    H2  604   2.715   5.082   2.979  0.2925 -0.6647  0.3811
  200TIP3   OH2  605   0.009   2.511   0.266  0.5674 -0.1974  0.5620
  200TIP3    H1  606   0.086   2.472   0.307 -0.1614 -2.6740 -0.2282
  200TIP3    H2  607  -0.065   2.469   0.310 -0.2749  0.1045 -0.5338
  201TIP3   OH2  608   4.882   4.074   2.282  0.3260  0.1407  0.1386
  201TIP3    H1  609   4.954   4.068   2.218  1.5085 -2.1271  1.5239
  201TIP3    H2  610   4.814   4.018   2.246  0.4018  0.0358  0.1559
  202TIP3   OH2  611   2.971   5.351   2.087 -0.0235  0.5189  0.2716
  202TIP3    H1  612   2.895   5.301   2.056 -0.7648  1.9100 -0.2432
  202TIP3    H2  613   2.946   5.442   2.075  0.8127  1.0691  2.3398
  203TIP3   OH2  614   4.554   4.359   2.635 -0.0970  1.0395  0.4536
  203TIP3    H1  615   4.609   4.307   2.577 -1.0590  1.0039 -0.4401
  203TIP3    H2  616   4.497   4.296   2.678  1.3128  0.9224  2.3141
  204TIP3   OH2  617   0.434   4.962   4.518 -0.1262  0.0789 -0.2280
  204TIP3    H1  618   0.416   5.056   4.515 -0.4398 -0.0122 -2.1761
  204TIP3    H2  619   0.483   4.950   4.600  0.2959  1.9923 -0.1519
  205TIP3   OH2  620   4.555   5.055   1.206  0.9370 -0.2813 -0.2960
  205TIP3    H1  621   4.497   4.991   1.247  1.3371  0.6195  1.8481
  205TIP3    H2  622   4.558   5.030   1.114 -1.1628 -1.6027 -0.0718
  206TIP3   OH2  623   1.201   4.834   3.532  1.0627 -0.0936 -0.1597
  206TIP3    H1  624   1.235   4.807   3.447  0.6557 -1.9793  0.2153
  206TIP3    H2  625   1.275   4.824   3.593  0.9938 -0.0477 -0.0670
  207TIP3   OH2  626   1.080   4.400   4.114 -0.2326 -0.1868 -0.5501
  207TIP3    H1  627   1.137   4.333   4.077 -0.0455  0.3465 -1.2659
  207TIP3    H2  628   1.122   4.483   4.091 -0.2121  0.1794  0.7342
  208TIP3   OH2  629   2.360   2.632   2.067  0.4081  0.4940 -0.2151
  208TIP3    H1  630   2.288   2.592   2.019  0.2611  1.0965 -0.4965
  208TIP3    H2  631   2.331   2.633   2.158 -0.7045  2.3414 -0.5373
  209TIP3   OH2  632   0.040   2.548   3.411 -0.0474  0.2854  0.1725
  209TIP3    H1  633   0.047   2.601   3.490  0.8477  0.6562 -0.1485
  209TIP3    H2  634   0.078   2.602   3.342  1.6240 -1.0599 -0.0120
  210TIP3   OH2  635   0.793   3.823   1.656  0.5255  0.3451 -0.3156
  210TIP3    H1  636   0.879   3.807   1.696  0.0397 -0.0028  0.6182
  210TIP3    H2  637   0.807   3.805   1.562  1.5040  0.4556 -0.2067
  211TIP3   OH2  638   0.614   3.991   1.467  0.0094  0.1624  0.0639
  211TIP3    H1  639   0.586   3.993   1.376 -1.2648 -1.0541  0.3919
  211TIP3    H2  640   0.707   4.011   1.464 -0.5707  3.2713 -1.1940
  212TIP3   OH2  641   0.434   1.047   2.838  0.0214 -0.7506  0.5692
  212TIP3    H1  642   0.384   1.127   2.855  0.1272 -0.7527  0.9065
  212TIP3    H2  643   0.515   1.077   2.796  0.7674 -0.5117  2.0929
  213TIP3   OH2  644   2.422   5.374   4.595  0.1224 -0.1885  0.5413
  213TIP3    H1  645   2.441   5.310   4.664  0.6303  0.5396  1.0994
  213TIP3    H2  646   2.367   5.440   4.638  0.9325  0.5853  0.4287
  214TIP3   OH2  647   2.672   1.191   4.265  0.0115  0.0889 -0.1161
  214TIP3    H1  648   2.683   1.120   4.202 -3.8519 -2.1822  1.3702
  214TIP3    H2  649   2.713   1.158   4.345 -2.4133 -0.9852  0.7843
  215TIP3   OH2  650   4.352   4.775   1.263  0.1347  0.8803 -0.0288
  215TIP3    H1  651   4.436   4.763   1.307 -0.1833 -0.3168  0.2962
  215TIP3    H2  652   4.288   4.778   1.334 -0.1677  1.0947 -0.3068
  216TIP3   OH2  653   6.029   3.517   0.759  0.1653 -0.0824 -0.9929
  216TIP3    H1  654   5.977   3.588   0.720 -0.8425 -0.2446 -0.0131
  216TIP3    H2  655   6.001   3.439   0.712  0.0369 -0.0689 -0.9403
  217TIP3   OH2  656   5.084   5.011   0.477  0.1675  0.8238  0.8524
  217TIP3    H1  657   5.111   4.922   0.500 -0.5245  0.4183  0.1508
  217TIP3    H2  658   5.134   5.032   0.399  1.0342  1.4344  1.5455
  218TIP3   OH2  659   0.007   4.606   4.407  0.2004 -0.4374  0.3367
  218TIP3    H1  660  -0.032   4.693   4.399 -0.1500 -0.3466  2.3773
  218TIP3    H2  661   0.099   4.619   4.383  0.2881  0.6536  1.1683
  219TIP3   OH2  662   2.133   3.260   1.289 -0.3421  0.1578  0.3904
  219TIP3    H1  663   2.108   3.347   1.318 -1.2991  0.0849 -0.1767
  219TIP3    H2  664   2.053   3.208   1.294 -0.7473  0.2548 -2.7138
  220TIP3   OH2  665   2.156   4.044   4.729 -0.1759  0.0033 -0.2063
  220TIP3    H1  666   2.114   4.058   4.814 -1.6581  2.3547 -1.2450
  220TIP3    H2  667   2.231   4.104   4.729 -1.1558  1.2827 -1.1415
  221TIP3   OH2  668   0.707   4.766   2.969 -0.7208  0.2563  0.0768
  221TIP3    H1  669   0.794   4.729   2.956 -1.2127 -0.4581 -1.4544
  221TIP3    H2  670   0.722   4.852   3.009  0.7261  0.4992 -0.9322
  222TIP3   OH2  671   0.080   2.205   1.428 -0.6123 -0.3399  0.2444
  222TIP3    H1  672   0.136   2.131   1.451 -1.4899 -1.2257 -0.3480
  222TIP3    H2  673   0.001   2.164   1.392 -0.7639  0.9043 -0.9161
  223TIP3   OH2  674   2.074   2.429   1.154  0.5577 -0.2292 -0.5914
  223TIP3    H1  675   2.100   2.521   1.148 -1.5703  0.4323 -0.6260
  223TIP3    H2  676   2.075   2.398   1.063 -1.1175  0.5429 -0.9213
  224TIP3   OH2  677   2.418   2.551   0.096 -0.6254 -0.2312  0.3172
  224TIP3    H1  678   2.356   2.624   0.092 -1.9618 -1.2510  1.1868
  224TIP3    H2  679   2.400   2.510   0.181  0.7042 -1.0447  0.2274
  225TIP3   OH2  680   4.794   0.979   4.526  0.2583  0.1805 -0.4516
  225TIP3    H1  681   4.718   0.927   4.503  0.5128  0.1755 -1.2993
  225TIP3    H2  682   4.858   0.916   4.559  0.0625  0.1343 -0.1539
  226TIP3   OH2  683   4.992   2.895   1.323  0.1124 -0.3331  0.1052
  226TIP3    H1  684   4.982   2.800   1.313  0.8192 -0.3988 -0.0141
  226TIP3    H2  685   5.054   2.920   1.254  2.1371 -0.2135  1.8846
  227TIP3   OH2  686   1.871   1.690   4.744  0.2080  0.0960 -0.0135
  227TIP3    H1  687   1.863   1.692   4.840 -1.5106  0.7944 -0.1373
  227TIP3    H2  688   1.959   1.654   4.728 -0.1991 -1.9090  1.7884
  228TIP3   OH2  689   2.060   4.867   3.824 -0.0967 -0.8344 -0.3445
  228TIP3    H1  690   2.065   4.863   3.920  1.3213 -0.4148 -0.3819
  228TIP3    H2  691   1.992   4.932   3.807  0.3508 -0.1536  0.3940
  229TIP3   OH2  692   1.224   2.644   0.734  0.0557  0.4852  0.0968
  229TIP3    H1  693   1.135   2.677   0.720  0.1869  0.6686 -0.3281
  229TIP3    H2  694   1.262   2.641   0.646  0.0239 -0.8776  0.1199
  230TIP3   OH2  695   5.777   5.848   0.945  0.2078  0.1450  0.0859
  230TIP3    H1  696   5.710   5.817   0.884  1.2956 -1.1888 -0.4925
  230TIP3    H2  697   5.805   5.932   0.909 -0.5311  0.2984 -0.1497
  231TIP3   OH2  698   4.510   3.862   0.570 -0.0495  0.2988  0.1168
  231TIP3    H1  699   4.523   3.769   0.549 -0.4513 -0.0757  1.3849
  231TIP3    H2  700   4.476   3.901   0.490 -2.4948 -1.2276  0.3055
  232TIP3   OH2  701   4.882   3.421   3.162  0.7810 -0.2851  0.0319
  232TIP3    H1  702   4.885   3.432   3.257 -1.8018 -0.6137  0.2214
  232TIP3    H2  703   4.789   3.407   3.143  1.4214 -1.8674 -2.3526
  233TIP3   OH2  704   1.903   2.084   0.152 -0.3408  0.0595  0.1434
  233TIP3    H1  705   1.846   2.042   0.216  0.2389 -0.3958  0.3729
  233TIP3    H2  706   1.956   2.012   0.117  0.4909  0.5631  0.3562
  234TIP3   OH2  707   2.179   5.895   3.437 -0.2954  0.5581  0.5279
  234TIP3    H1  708   2.093   5.937   3.433 -0.3872  0.4919  1.5181
  234TIP3    H2  709   2.167   5.821   3.497 -0.1294 -0.9036 -1.1530
  235TIP3   OH2  710   4.059   5.273   2.836  0.1639 -0.5604 -0.0230
  235TIP3    H1  711   4.091   5.215   2.766  0.8092  2.1465 -2.1303
  235TIP3    H2  712   4.074   5.361   2.803  1.0772  0.9261  3.8812
  236TIP3   OH2  713   1.064   1.051   2.559 -0.2993 -0.3590 -0.2124
  236TIP3    H1  714   1.151   1.062   2.521  0.2244 -2.8668  0.1116
  236TIP3    H2  715   1.028   1.140   2.562  1.9903  0.6668 -0.9166
  237TIP3   OH2  716   4.058   1.231   4.734  0.9162 -0.0449  0.3240
  237TIP3    H1  717   3.967   1.233   4.762  0.6680  1.8628 -0.4464
  237TIP3    H2  718   4.107   1.206   4.812 -0.0537  1.6040  1.5331
  238TIP3   OH2  719   1.725   2.034   2.026  0.0351  0.4597  0.1088
  238TIP3    H1  720   1.643   2.033   2.076 -1.1836 -1.8744 -1.7399
  238TIP3    H2  721   1.719   2.113   1.972 -1.4193 -0.0617 -0.5576
  239TIP3   OH2  722   4.356   5.141   4.834 -0.6153  0.1873 -0.5086
  239TIP3    H1  723   4.346   5.196   4.756  1.0323  0.9590 -0.2182
  239TIP3    H2  724   4.338   5.200   4.908  1.5358  0.5036 -0.1761
  240TIP3   OH2  725   0.434   0.838   1.267  0.3623  0.7654  0.0304
  240TIP3    H1  726   0.396   0.914   1.224 -0.6053  1.2851  1.6932
  240TIP3    H2  727   0.361   0.777   1.277  0.2729  1.1203  1.8653
  241TIP3   OH2  728   3.174   0.256   1.730 -0.1947 -0.5492 -0.5192
  241TIP3    H1  729   3.228   0.252   1.809 -0.0551  1.8935 -0.4089
  241TIP3    H2  730   3.184   0.346   1.699 -1.0324 -1.1682 -2.7835
  242TIP3   OH2  731   3.509   2.698   3.613 -0.2277 -0.5958  0.2829
  242TIP3    H1  732   3.451   2.754   3.561  1.6719  2.2839  1.0549
  242TIP3    H2  733   3.450   2.633   3.651 -2.5381  0.5794 -1.0266
  243TIP3   OH2  734   4.902   0.353   0.540 -0.0289 -0.6313  0.5499
  243TIP3    H1  735   4.994   0.377   0.530 -0.8401  2.5859 -0.2983
  243TIP3    H2  736   4.886   0.358   0.635  0.6700 -1.2581  0.7026
  244TIP3   OH2  737   1.858   3.567   3.147  0.0576 -0.4970 -0.0386
  244TIP3    H1  738   1.836   3.474   3.153 -0.7041 -0.7440 -3.6972
  244TIP3    H2  739   1.945   3.568   3.106  0.0796  0.3912  0.0229
  245TIP3   OH2  740   3.863   1.119   3.247 -0.1890  0.1250  0.1887
  245TIP3    H1  741   3.931   1.076   3.298  1.0380  0.8174 -0.7892
  245TIP3    H2  742   3.825   1.050   3.193 -1.2993 -0.5524  1.7782
  246TIP3   OH2  743   1.169   5.430   0.990 -0.3345 -0.4112 -0.2780
  246TIP3    H1  744   1.238   5.386   0.940 -1.6631 -1.7497 -1.0053
  246TIP3    H2  745   1.124   5.485   0.926 -1.9414 -2.0085 -0.5933
  247TIP3   OH2  746   1.233   5.448   3.594  0.1809  0.3511 -0.0882
  247TIP3    H1  747   1.209   5.431   3.685 -1.4608  1.2711 -0.3065
  247TIP3    H2  748   1.326   5.469   3.597  0.4093 -0.7150  1.2067
  248TIP3   OH2  749   6.242   5.480   4.802  0.1854  0.1340  0.3251
  248TIP3    H1  750   6.148   5.495   4.815  0.1842  1.0873 -0.7245
  248TIP3    H2  751   6.262   5.406   4.860 -1.7239 -1.7037 -1.2194
  249TIP3   OH2  752   1.791   1.240   4.542  0.1861 -0.7646  0.4134
  249TIP3    H1  753   1.745   1.160   4.515 -1.9487  0.6653 -0.4634
  249TIP3    H2  754   1.803   1.289   4.460  0.8520  0.1324  1.0278
  250TIP3   OH2  755   4.819   5.493   4.847 -0.2366 -0.1151  0.5557
  250TIP3    H1  756   4.791   5.436   4.918  0.1499 -1.1690 -0.1141
  250TIP3    H2  757   4.748   5.487   4.782 -0.1909  0.1653  0.4784
  251TIP3   OH2  758   6.051   4.361   3.694  0.1158 -0.3217  0.9774
  251TIP3    H1  759   5.962   4.335   3.716  0.0590 -0.9229  0.0686
  251TIP3    H2  760   6.106   4.314   3.756 -0.1824 -0.1373  1.3848
  252TIP3   OH2  761   5.933   4.890   0.311 -0.5290 -0.1152 -0.1647
  252TIP3    H1  762   6.025   4.881   0.334 -0.4923 -0.1307 -0.3179
  252TIP3    H2  763   5.931   4.891   0.215 -0.5039  1.6624 -0.1880
  253TIP3   OH2  764   0.439   4.852   3.540 -0.2672  0.3521  0.8171
  253TIP3    H1  765   0.503   4.853   3.469  0.3332 -0.0145  1.3407
  253TIP3    H2  766   0.435   4.942   3.571  0.6140  0.2240  1.3188
  254TIP3   OH2  767   3.482   5.614   4.607  0.2757 -0.6563  0.6724
  254TIP3    H1  768   3.530   5.603   4.525 -0.7645 -1.0669  0.0981
  254TIP3    H2  769   3.527   5.685   4.652  1.3161 -0.9167  0.0853
  255TIP3   OH2  770   2.552   0.904   3.332 -0.3107  0.3072 -1.1138
  255TIP3    H1  771   2.471   0.878   3.288 -0.3176 -2.8407  0.4719
  255TIP3    H2  772   2.525   0.924   3.422  0.6505 -0.8994 -0.5376
  256TIP3   OH2  773   3.202   0.481   1.287 -0.1168  0.6021 -0.0036
  256TIP3    H1  774   3.209   0.397   1.242 -1.2659  0.7268 -0.4669
  256TIP3    H2  775   3.234   0.546   1.224 -0.1748  0.6092 -0.0260
  257TIP3   OH2  776   2.252   1.779   3.651  0.4287 -0.0775  0.5203
  257TIP3    H1  777   2.251   1.691   3.615  0.1942  0.2544 -0.2956
  257TIP3    H2  778   2.161   1.799   3.671  0.4626  0.0384  0.5620
  258TIP3   OH2  779   5.272   1.578   2.943  0.3370  0.2732 -0.4398
  258TIP3    H1  780   5.254   1.484   2.944 -0.1212  0.3470 -1.1788
  258TIP3    H2  781   5.287   1.600   3.035  1.0633 -0.6367 -0.3202
  259TIP3   OH2  782   5.522   3.420   1.322 -0.0006 -0.6920  0.3412
  259TIP3    H1  783   5.488   3.332   1.312  1.2782 -1.2643  0.8193
  259TIP3    H2  784   5.543   3.427   1.415  0.1009  0.0490  0.2714
  260TIP3   OH2  785   2.931   0.296   1.924 -0.0794 -0.3953  0.1985
  260TIP3    H1  786   3.007   0.259   1.879 -0.4550 -1.3801  0.3655
  260TIP3    H2  787   2.863   0.300   1.856  0.7836  2.8485 -0.6700
  261TIP3   OH2  788   0.238   0.779   3.155  0.3117 -0.1061 -0.2839
  261TIP3    H1  789   0.184   0.748   3.083 -0.1708  1.7350 -0.7749
  261TIP3    H2  790   0.176   0.800   3.225  0.4882  0.7479 -0.3663
  262TIP3   OH2  791   0.262   0.490   3.264  0.8072  0.5422  0.5052
  262TIP3    H1  792   0.305   0.565   3.224  1.6080  0.1800  0.6619
  262TIP3    H2  793   0.181   0.525   3.301  1.9918  1.6929  2.1422
  263TIP3   OH2  794   1.388   5.188   3.666  0.3522 -0.7122 -0.1790
  263TIP3    H1  795   1.469   5.148   3.634  0.4453 -1.5338  1.0418
  263TIP3    H2  796   1.418   5.262   3.719  0.2503 -0.2268 -0.7931
  264TIP3   OH2  797   1.043   4.503   2.445  0.1399  0.3697 -0.2746
  264TIP3    H1  798   0.970   4.510   2.383  1.7747  1.0592 -2.2554
  264TIP3    H2  799   1.109   4.563   2.410  2.0193 -0.8963  0.9248
  265TIP3   OH2  800   3.608   3.301   1.921 -0.2243 -0.3442 -0.1834
  265TIP3    H1  801   3.516   3.276   1.931  0.5059 -3.0502  0.4680
  265TIP3    H2  802   3.633   3.270   1.834  0.4024 -0.8761  0.1730
  266TIP3   OH2  803   3.265   1.097   4.666  0.9625 -0.1186  0.5500
  266TIP3    H1  804   3.354   1.108   4.698  1.4135  2.2204 -1.1817
  266TIP3    H2  805   3.247   1.178   4.618 -0.9204 -1.8260 -1.8973
  267TIP3   OH2  806   4.028   1.627   3.689 -0.3180 -0.5229 -0.0236
  267TIP3    H1  807   4.077   1.673   3.621 -1.9744  1.0196 -0.2555
  267TIP3    H2  808   3.994   1.696   3.746 -1.4178 -1.5753  0.6625
  268TIP3   OH2  809   0.317   1.171   0.249 -0.3428 -0.6096 -0.2524
  268TIP3    H1  810   0.375   1.095   0.250 -0.8018 -0.9699  0.5061
  268TIP3    H2  811   0.250   1.149   0.184  0.5794 -0.0131 -1.4345
  269TIP3   OH2  812   4.460   5.799   3.276 -0.2465  0.2627  0.2707
  269TIP3    H1  813   4.505   5.878   3.306  1.3793 -0.7362  0.6022
  269TIP3    H2  814   4.453   5.809   3.181 -0.3737  0.9639  0.3538
  270TIP3   OH2  815   0.718   2.237   1.829  0.0766  0.2318  0.5453
  270TIP3    H1  816   0.805   2.200   1.816 -0.5903 -1.8204  1.6020
  270TIP3    H2  817   0.673   2.222   1.745 -1.3151 -4.8278  1.8774
  271TIP3   OH2  818   2.798   3.596   1.412  0.3440  0.2617 -0.0355
  271TIP3    H1  819   2.703   3.600   1.402  0.3555 -0.5035 -0.5615
  271TIP3    H2  820   2.819   3.668   1.471 -0.6518 -0.0905  0.7842
  272TIP3   OH2  821   1.342   1.918   3.510  0.1287 -0.2679  0.1997
  272TIP3    H1  822   1.314   1.930   3.600  2.1130 -1.0447  0.9816
  272TIP3    H2  823   1.282   1.972   3.458 -1.0747  0.1577  1.9576
  273TIP3   OH2  824   2.758   1.631   0.158  0.3585 -0.3301  0.2052
  273TIP3    H1  825   2.823   1.584   0.106  0.2808  0.4397 -0.6085
  273TIP3    H2  826   2.699   1.671   0.094  1.0847  1.8148  0.7838
  274TIP3   OH2  827   1.747   2.124   4.157 -0.5171 -0.1818  0.2295
  274TIP3    H1  828   1.744   2.104   4.063  0.9559 -0.5458  0.2333
  274TIP3    H2  829   1.726   2.217   4.162  0.5283  0.1220 -0.5932
  275TIP3   OH2  830   1.615   4.916   3.835 -0.4522  0.8959 -0.0106
  275TIP3    H1  831   1.588   4.913   3.927 -1.3758  0.2655 -0.2875
  275TIP3    H2  832   1.660   4.833   3.821  1.6781  1.9061  0.4269
  276TIP3   OH2  833   4.931   0.693   2.875  0.0612 -0.1635  0.2510
  276TIP3    H1  834   4.851   0.678   2.824 -0.0274 -0.7357  0.5511
  276TIP3    H2  835   4.946   0.610   2.920  1.5654 -0.5069 -0.8292
  277TIP3   OH2  836   4.291   4.583   2.148  0.5839  0.3623  0.8643
  277TIP3    H1  837   4.308   4.530   2.225  1.4959 -0.3227  0.2127
  277TIP3    H2  838   4.201   4.615   2.160  0.4998 -0.2359  1.9042
  278TIP3   OH2  839   1.744   5.836   2.387 -0.2465  0.1834  0.1410
  278TIP3    H1  840   1.805   5.795   2.449  0.8072  1.5635  0.0531
  278TIP3    H2  841   1.703   5.906   2.438  0.2187  0.9707 -0.5520
  279TIP3   OH2  842   5.536   2.786   3.971 -0.0605  0.1057 -0.4315
  279TIP3    H1  843   5.479   2.848   3.927 -0.1320 -1.1051 -2.1591
  279TIP3    H2  844   5.618   2.788   3.921  0.4606 -0.1046  0.3909
  280TIP3   OH2  845   1.262   4.651   0.156  0.2283 -0.2694 -0.1417
  280TIP3    H1  846   1.204   4.655   0.232  3.1681 -3.7532  2.6744
  280TIP3    H2  847   1.282   4.743   0.136 -0.1674  0.8727  3.8154
  281TIP3   OH2  848   2.591   4.272   0.180  0.0133  0.2235 -0.3319
  281TIP3    H1  849   2.582   4.363   0.211 -0.6210  0.3210 -0.8018
  281TIP3    H2  850   2.503   4.245   0.157  0.2368 -0.4388 -0.4357
  282TIP3   OH2  851   1.648   2.483   3.944 -0.3446  0.4217  0.5072
  282TIP3    H1  852   1.556   2.473   3.919 -0.5174 -1.7415  1.7307
  282TIP3    H2  853   1.697   2.464   3.863 -0.9540  1.0754 -0.0230
  283TIP3   OH2  854   4.054   3.816   4.950 -0.3799 -0.3283 -0.0329
  283TIP3    H1  855   4.149   3.829   4.942 -0.4235  1.0827  1.2725
  283TIP3    H2  856   4.016   3.876   4.887 -0.4290  1.4700  1.6114
  284TIP3   OH2  857   0.069   2.961   3.263 -0.4285  0.4420  0.5801
  284TIP3    H1  858   0.136   2.993   3.202  0.9085 -0.4184  1.5551
  284TIP3    H2  859   0.007   3.033   3.269 -0.2538  0.7999 -1.2907
  285TIP3   OH2  860   1.853   0.304   0.638  0.7975 -0.0338 -0.2000
  285TIP3    H1  861   1.765   0.269   0.648  1.0007 -0.3486  0.4709
  285TIP3    H2  862   1.867   0.305   0.543  0.0054  0.1955 -0.3232
  286TIP3   OH2  863   1.976   5.554   2.049  0.5365 -0.3953 -0.2201
  286TIP3    H1  864   1.920   5.615   2.098  1.9259  0.1417  0.7718
  286TIP3    H2  865   1.940   5.468   2.068 -0.4251 -0.0122 -0.2464
  287TIP3   OH2  866   1.000   3.742   1.832  0.1734 -0.4173  0.6910
  287TIP3    H1  867   1.036   3.656   1.812 -0.5892 -1.1077  2.1504
  287TIP3    H2  868   0.964   3.734   1.921  0.3068  1.4740  0.9716
  288TIP3   OH2  869   4.690   0.553   0.551 -0.2638 -0.1599 -0.0753
  288TIP3    H1  870   4.776   0.526   0.580  0.7413  0.6604 -2.0760
  288TIP3    H2  871   4.648   0.473   0.521  0.1751 -0.4378  0.0501
  289TIP3   OH2  872   5.266   0.687   3.348 -0.4545 -0.4704  0.0579
  289TIP3    H1  873   5.234   0.718   3.264 -0.3373 -0.4480  0.0207
  289TIP3    H2  874   5.225   0.744   3.412  1.0576  0.8807 -0.1043
  290TIP3   OH2  875   0.415   1.096   4.059 -0.4706  0.0103  0.1461
  290TIP3    H1  876   0.475   1.040   4.108 -0.2232  0.3460  0.2254
  290TIP3    H2  877   0.463   1.123   3.982 -1.1299 -1.1533 -0.6971
  291TIP3   OH2  878   1.302   0.934   4.760 -0.2717  0.1848  0.3904
  291TIP3    H1  879   1.287   1.014   4.710 -1.5671 -0.6789 -0.6733
  291TIP3    H2  880   1.262   0.951   4.845 -0.1315  0.8395  0.3278
  292TIP3   OH2  881   1.475   0.407   3.728 -0.3906  0.4023  0.6876
  292TIP3    H1  882   1.385   0.409   3.694  0.4785  0.7163 -1.7590
  292TIP3    H2  883   1.516   0.333   3.685  0.3213 -0.3707  2.5598
  293TIP3   OH2  884   5.081   5.368   1.980 -0.9016  0.2886  0.0145
  293TIP3    H1  885   5.002   5.415   1.954 -0.0412  1.5882 -0.3243
  293TIP3    H2  886   5.131   5.359   1.899  0.1352  1.1333  0.5356
  294TIP3   OH2  887   1.486   1.405   1.800  0.4627 -0.6537  0.3530
  294TIP3    H1  888   1.544   1.475   1.771  0.2833 -0.8849 -0.5696
  294TIP3    H2  889   1.533   1.324   1.777 -0.6298 -0.8555 -1.2639
  295TIP3   OH2  890   5.085   3.971   0.973  0.1506  0.4739 -0.5741
  295TIP3    H1  891   5.133   3.928   1.044  0.3450  1.8023  0.1320
  295TIP3    H2  892   5.041   4.045   1.014 -1.7888 -0.1523 -1.3873
  296TIP3   OH2  893   1.770   1.062   1.978  0.0695 -0.5507  0.3439
  296TIP3    H1  894   1.860   1.084   1.954 -0.4499  0.4887 -0.7235
  296TIP3    H2  895   1.754   1.110   2.059  0.4022 -0.5972  0.4393
  297TIP3   OH2  896   0.517   5.877   1.190 -0.5151  0.2532 -0.1134
  297TIP3    H1  897   0.581   5.811   1.164 -0.3277 -1.2636  3.5750
  297TIP3    H2  898   0.440   5.858   1.138  0.5469 -0.8611 -1.3549
  298TIP3   OH2  899   4.034   1.554   3.122  0.6097  0.2419  0.0508
  298TIP3    H1  900   4.064   1.521   3.037 -2.0916  1.8933 -1.7070
  298TIP3    H2  901   3.964   1.494   3.148 -0.5052  1.3151 -0.3691
  299TIP3   OH2  902   4.535   5.129   0.369  0.3370  0.7519 -0.5716
  299TIP3    H1  903   4.482   5.143   0.290  1.5440  0.9858 -1.3828
  299TIP3    H2  904   4.608   5.074   0.339  2.6802  3.5745 -0.5174
  300TIP3   OH2  905   4.026   1.755   4.154 -0.1653  0.1138 -0.1968
  300TIP3    H1  906   4.000   1.693   4.222  0.5726  1.3092  1.2419
  300TIP3    H2  907   3.960   1.746   4.085 -0.4684 -1.7195  0.3049
  301TIP3   OH2  908   0.046   2.146   3.448  0.4718  0.7230  0.1431
  301TIP3    H1  909   0.034   2.158   3.542 -0.9472  1.8029 -0.1399
  301TIP3    H2  910  -0.039   2.169   3.410  0.4534 -1.4107 -1.2811
  302TIP3   OH2  911   2.707   5.360   1.693 -0.1982  0.3381 -0.4204
  302TIP3    H1  912   2.728   5.291   1.756 -0.8214  0.2461 -0.3047
  302TIP3    H2  913   2.667   5.313   1.619  0.6562  0.4284 -0.9571
  303TIP3   OH2  914   6.268   4.680   1.056 -0.2307  0.3711 -0.4112
  303TIP3    H1  915   6.237   4.699   1.145 -3.5306  1.6174 -1.6487
  303TIP3    H2  916   6.329   4.607   1.067 -0.6778  0.3265  2.8443
  304TIP3   OH2  917   1.953   4.302   4.221 -0.3516  0.4021 -0.5620
  304TIP3    H1  918   1.963   4.216   4.179  0.9914  0.6824 -0.8670
  304TIP3    H2  919   1.997   4.291   4.306 -1.6177  0.3196  0.0978
  305TIP3   OH2  920   3.983   0.252   3.493 -0.7824  0.2556 -0.2933
  305TIP3    H1  921   3.944   0.270   3.578 -0.0386  0.4155  0.0198
  305TIP3    H2  922   3.998   0.339   3.455  1.2286  0.2900  0.4948
  306TIP3   OH2  923   4.507   1.751   4.055 -0.3918 -0.1279  0.2784
  306TIP3    H1  924   4.601   1.771   4.053 -0.4405  0.0974  0.3344
  306TIP3    H2  925   4.471   1.807   4.123 -0.7764  0.6779 -0.5624
  307TIP3   OH2  926   2.311   1.833   3.308  0.1656  0.0936 -0.4967
  307TIP3    H1  927   2.267   1.887   3.374  0.0580  1.0296 -1.3125
  307TIP3    H2  928   2.244   1.813   3.244  0.8186  1.3089 -1.6143
  308TIP3   OH2  929   0.755   3.273   0.474 -0.5442 -0.3450 -0.0092
  308TIP3    H1  930   0.696   3.269   0.550 -0.5340 -0.0577  0.0168
  308TIP3    H2  931   0.789   3.184   0.465  0.6198 -0.0706  1.2579
  309TIP3   OH2  932   4.534   1.759   1.117 -0.0224 -0.2548 -0.4048
  309TIP3    H1  933   4.561   1.667   1.107  2.2508  0.2360  0.6934
  309TIP3    H2  934   4.614   1.809   1.104 -1.1454  1.5678 -0.5566
  310TIP3   OH2  935   0.725   3.156   4.906 -0.2541  0.6434 -0.2207
  310TIP3    H1  936   0.642   3.174   4.949 -0.4787 -0.9502  0.0483
  310TIP3    H2  937   0.704   3.158   4.812 -1.1970 -2.1576 -0.1574
  311TIP3   OH2  938   6.164   4.689   1.293  0.0285  0.2633 -0.5558
  311TIP3    H1  939   6.161   4.705   1.387  0.6326  1.5644 -0.7409
  311TIP3    H2  940   6.075   4.709   1.263 -0.0313  0.3474 -0.3268
  312TIP3   OH2  941   2.780   2.520   5.160 -0.1304 -0.0261  0.7891
  312TIP3    H1  942   2.843   2.535   5.090 -0.3128  3.0003  1.1378
  312TIP3    H2  943   2.698   2.501   5.115 -0.4122  2.5764  0.0285
  313TIP3   OH2  944   5.342   2.967   3.062  0.1324 -0.7367  0.4189
  313TIP3    H1  945   5.341   2.901   2.993  2.5365 -1.0126  0.5501
  313TIP3    H2  946   5.434   2.971   3.089  0.5905  4.0948 -0.9698
  314TIP3   OH2  947   3.256   0.382   4.451 -0.1045  0.0953  0.3236
  314TIP3    H1  948   3.209   0.302   4.475  3.0278 -1.1964  2.9968
  314TIP3    H2  949   3.295   0.363   4.366  0.9849 -1.5092  1.1345
  315TIP3   OH2  950   2.130   2.353   1.638 -0.2739  0.5744 -0.3357
  315TIP3    H1  951   2.036   2.345   1.653  0.0819 -0.0288  1.8781
  315TIP3    H2  952   2.160   2.263   1.624  0.3658  0.3724  1.9395
  316TIP3   OH2  953   5.390   4.742   4.687 -0.1922 -0.0027  0.4601
  316TIP3    H1  954   5.445   4.672   4.651  1.0215  1.5700 -0.8964
  316TIP3    H2  955   5.316   4.746   4.627  0.4746  0.8163 -0.3332
  317TIP3   OH2  956   0.839   2.573   3.892 -0.5498 -0.4973 -0.2219
  317TIP3    H1  957   0.812   2.664   3.880  4.4039  1.1722 -1.1247
  317TIP3    H2  958   0.855   2.540   3.803  1.7014 -0.6823  0.1880
  318TIP3   OH2  959   5.037   3.293   0.004 -0.1309  0.5618  0.0279
  318TIP3    H1  960   5.001   3.231   0.067 -2.5077 -0.4285 -2.1451
  318TIP3    H2  961   5.118   3.252  -0.026 -0.4129 -0.2897  0.4031
  319TIP3   OH2  962   6.310   4.294   5.078 -0.7099  0.1934  0.1113
  319TIP3    H1  963   6.271   4.222   5.128 -2.2408  0.8289 -0.1042
  319TIP3    H2  964   6.302   4.267   4.986  1.4763 -0.6707  0.1337
  320TIP3   OH2  965   3.335   5.084   0.964 -0.1606  0.6641 -0.4736
  320TIP3    H1  966   3.392   5.053   1.034  0.8248 -1.3531 -2.0497
  320TIP3    H2  967   3.343   5.179   0.967  1.7814  0.5227  0.5983
  321TIP3   OH2  968   6.055   3.855   3.864 -0.0312  0.2062 -0.2451
  321TIP3    H1  969   6.109   3.854   3.943  0.7400  0.7210 -0.7611
  321TIP3    H2  970   6.001   3.934   3.874  0.0507  0.2597 -0.2265
  322TIP3   OH2  971   0.737   5.248  -0.018  0.4419 -0.1490 -0.6966
  322TIP3    H1  972   0.673   5.310   0.015  0.3312  0.3437 -1.8138
  322TIP3    H2  973   0.779   5.213   0.061  0.2714  1.0848 -0.0420
  323TIP3   OH2  974   5.244   0.424   2.686 -0.4755 -0.1574 -0.1176
  323TIP3    H1  975   5.337   0.443   2.671 -0.5654 -1.5808 -3.1975
  323TIP3    H2  976   5.198   0.496   2.644 -0.7906  0.0571  0.5833
  324TIP3   OH2  977   6.288   0.038   3.951  0.3188 -0.5607  0.1837
  324TIP3    H1  978   6.316   0.078   4.033  0.5696  1.5693 -0.8840
  324TIP3    H2  979   6.199   0.071   3.937 -0.1330 -1.7581  0.0958
  325TIP3   OH2  980   5.024   4.092   0.235  0.0232  0.2092  0.1432
  325TIP3    H1  981   5.045   4.185   0.235  0.8494  0.0370 -0.7570
  325TIP3    H2  982   5.107   4.048   0.214 -0.3829 -0.7225  0.4175
  326TIP3   OH2  983   4.860   4.565   4.311 -0.5413 -0.0163  0.1609
  326TIP3    H1  984   4.851   4.643   4.366 -0.4193 -0.6836  1.1589
  326TIP3    H2  985   4.934   4.518   4.349  0.6951  0.3546 -1.6751
  327TIP3   OH2  986   0.720   0.478   4.753 -0.6281 -0.0198 -0.1888
  327TIP3    H1  987   0.800   0.486   4.702 -0.8333  1.3131 -0.3369
  327TIP3    H2  988   0.726   0.391   4.793  1.5242  0.5293  0.8492
  328TIP3   OH2  989   2.974   5.227   4.997 -0.0558  0.2579 -0.6143
  328TIP3    H1  990   2.970   5.240   4.902  0.8216  0.0759 -0.6802
  328TIP3    H2  991   3.060   5.189   5.013  0.3457  1.5329  0.4079
  329TIP3   OH2  992   5.858   3.084   0.023  0.2745 -0.5979 -0.1016
  329TIP3    H1  993   5.833   3.107   0.113  2.6131  0.9533  0.2385
  329TIP3    H2  994   5.935   3.028   0.033  0.7267 -0.1944 -1.1134
  330TIP3   OH2  995   3.134   5.814   4.008 -1.1554  0.8637 -0.2125
  330TIP3    H1  996   3.229   5.825   4.020 -1.2671  2.7564 -0.8557
  330TIP3    H2  997   3.122   5.814   3.913 -1.9566  2.4150 -0.1361
  331TIP3   OH2  998   2.946   1.066   0.389 -0.3092  0.2810 -0.7427
  331TIP3    H1  999   2.965   1.071   0.295 -1.9834  2.9210 -1.0319
  331TIP3    H2 1000   2.880   0.998   0.397  2.5167 -2.7510 -0.8351
  332TIP3   OH2 1001   0.552   5.822   3.627 -0.7287  0.1223 -0.3488
  332TIP3    H1 1002   0.496   5.898   3.610 -0.0712  0.6711 -0.1056
  332TIP3    H2 1003   0.616   5.853   3.692 -0.4576 -0.6433 -0.2352
  333TIP3   OH2 1004   5.941   5.197   0.239 -0.5792 -0.1564 -0.1716
  333TIP3    H1 1005   5.899   5.191   0.153 -0.9499 -0.2770  0.0174
  333TIP3    H2 1006   5.872   5.228   0.297 -0.4489 -0.5160  0.1753
  334TIP3   OH2 1007   4.335   4.661   3.874  0.0045  0.2353 -0.6124
  334TIP3    H1 1008   4.372   4.577   3.846 -1.7835 -0.9953  0.5182
  334TIP3    H2 1009   4.325   4.653   3.969  0.0103  1.8422 -0.4463
  335TIP3   OH2 1010   2.166   0.121   4.041  0.1244  0.5698 -0.3120
  335TIP3    H1 1011   2.094   0.073   4.082 -0.0837 -0.2481 -1.5529
  335TIP3    H2 1012   2.125   0.165   3.966  0.2932  2.8066  0.8084
  336TIP3   OH2 1013   5.142   5.207   1.727 -0.1326  0.0894 -0.3105
  336TIP3    H1 1014   5.084   5.205   1.652 -0.9917 -1.5522  0.3380
  336TIP3    H2 1015   5.197   5.129   1.717  0.7752  0.6682 -0.0035
  337TIP3   OH2 1016   2.512   4.665   0.962 -0.4425  0.4137 -0.2098
  337TIP3    H1 1017   2.451   4.592   0.967  1.1580 -0.9895 -0.2952
  337TIP3    H2 1018   2.486   4.723   1.034 -0.6734 -1.1121  0.9846
  338TIP3   OH2 1019   4.637   3.684   4.645  0.5638  0.0270  0.0361
  338TIP3    H1 1020   4.686   3.643   4.716 -0.2847 -0.4917  0.3399
  338TIP3    H2 1021   4.698   3.746   4.606  0.8390  0.8165  1.6552
  339TIP3   OH2 1022   4.225   4.522   0.292 -0.1564 -0.5060  0.1526
  339TIP3    H1 1023   4.171   4.601   0.293  0.9474  0.3145 -1.2425
  339TIP3    H2 1024   4.163   4.450   0.289 -1.1844  0.3376  0.6868
  340TIP3   OH2 1025   4.939   3.600   2.484 -0.1406 -0.1746 -0.2512
  340TIP3    H1 1026   4.895   3.596   2.569 -1.2444  2.7504 -0.5561
  340TIP3    H2 1027   4.870   3.582   2.421 -0.1756  1.0989 -0.6071
  341TIP3   OH2 1028   4.568   3.162   2.211 -0.0280  0.2857  0.0252
  341TIP3    H1 1029   4.661   3.163   2.187  0.2308 -1.3010  0.8383
  341TIP3    H2 1030   4.543   3.070   2.209 -1.5041  0.6478  0.1980
  342TIP3   OH2 1031   0.292   2.031   2.771  0.0489  0.0728  0.1903
  342TIP3    H1 1032   0.218   2.046   2.829 -0.6299 -0.4139 -0.5187
  342TIP3    H2 1033   0.317   1.939   2.786  1.8959  0.7808  1.9467
  343TIP3   OH2 1034   1.014   5.533   3.011 -0.0369 -0.0650 -0.2236
  343TIP3    H1 1035   0.951   5.593   2.970  0.6351  1.4786  0.9048
  343TIP3    H2 1036   1.053   5.486   2.938 -0.4675  1.0217 -1.1909
  344TIP3   OH2 1037   6.133   1.457   0.329 -0.0824  0.6094  0.6809
  344TIP3    H1 1038   6.067   1.457   0.398 -0.2533 -0.4820  0.5462
  344TIP3    H2 1039   6.193   1.386   0.353  0.1393  0.5429 -0.0222
  345TIP3   OH2 1040   2.768   2.767   3.741 -0.0003  0.3946  0.1968
  345TIP3    H1 1041   2.743   2.723   3.822 -0.1562  1.8075  0.9586
  345TIP3    H2 1042   2.799   2.697   3.684  1.6095 -0.4786  2.0241
  346TIP3   OH2 1043   2.639   1.212   0.579 -0.5242 -0.2667 -0.1769
  346TIP3    H1 1044   2.548   1.208   0.551 -0.7024  0.1332  0.3188
  346TIP3    H2 1045   2.687   1.164   0.512 -1.3599 -2.4608  0.6924
  347TIP3   OH2 1046   6.191   1.839   5.063 -0.2398 -0.2022  0.1943
  347TIP3    H1 1047   6.162   1.869   5.150 -0.2585 -1.1809  0.5343
  347TIP3    H2 1048   6.249   1.765   5.082 -0.0031 -0.2306 -0.6239
  348TIP3   OH2 1049   6.046   2.587   4.234  0.1040 -0.3503 -0.1597
  348TIP3    H1 1050   6.131   2.573   4.275  0.8392 -0.1121 -1.5378
  348TIP3    H2 1051   6.065   2.645   4.160 -1.6611  1.9136  1.0415
  349TIP3   OH2 1052   1.625   3.584   3.573 -0.3772 -0.2945  0.3535
  349TIP3    H1 1053   1.701   3.583   3.514  0.4957  0.7760  1.4158
  349TIP3    H2 1054   1.571   3.511   3.543  0.5012 -0.3700 -1.1603
  350TIP3   OH2 1055   0.432   3.493   3.527 -0.7522 -0.3698  0.1425
  350TIP3    H1 1056   0.484   3.571   3.507 -1.0019 -0.4890 -1.0523
  350TIP3    H2 1057   0.344   3.526   3.543 -1.0990 -0.4565 -1.3818
  351TIP3   OH2 1058   0.763   4.244   2.464  0.5981  0.4846  0.1671
  351TIP3    H1 1059   0.810   4.193   2.529  2.5177  1.0625 -0.6794
  351TIP3    H2 1060   0.680   4.266   2.505  0.4654 -1.7427  1.2287
  352TIP3   OH2 1061   4.803   5.563   0.690 -0.2416 -0.4014  0.0042
  352TIP3    H1 1062   4.836   5.505   0.621  0.1780 -0.6509  0.4076
  352TIP3    H2 1063   4.850   5.535   0.769 -0.0045  0.5041  0.2002
  353TIP3   OH2 1064   2.111   0.640   4.118 -0.2280  0.1679  0.1290
  353TIP3    H1 1065   2.162   0.565   4.086  0.2558 -0.1110  1.5073
  353TIP3    H2 1066   2.067   0.609   4.196 -1.2249  0.9054 -0.1078
  354TIP3   OH2 1067   0.168   2.223   0.646  0.4723  0.2194  0.5393
  354TIP3    H1 1068   0.238   2.165   0.677  0.2413  1.0818  2.8629
  354TIP3    H2 1069   0.169   2.296   0.707 -1.0451  1.3262 -0.6967
  355TIP3   OH2 1070   5.330   1.334   5.085 -0.2601 -0.0359  0.5085
  355TIP3    H1 1071   5.413   1.288   5.097 -0.0622 -0.2112 -1.2474
  355TIP3    H2 1072   5.309   1.368   5.172  1.1611 -0.7904  1.1919
  356TIP3   OH2 1073   3.497   2.843   3.326 -0.3014  0.1230  0.0436
  356TIP3    H1 1074   3.560   2.812   3.392 -2.6150 -2.2759  1.2879
  356TIP3    H2 1075   3.466   2.927   3.361  0.3347  0.0853  0.7242
  357TIP3   OH2 1076   3.850   4.582   1.140  0.3436  0.4439  0.2705
  357TIP3    H1 1077   3.871   4.663   1.094  1.3507 -0.2139 -0.4514
  357TIP3    H2 1078   3.935   4.545   1.164 -0.1279  0.6394  2.4845
  358TIP3   OH2 1079   3.877   4.163   2.767 -0.3221  0.3824  0.4034
  358TIP3    H1 1080   3.783   4.177   2.756 -0.1490 -0.0867 -2.2428
  358TIP3    H2 1081   3.915   4.251   2.773 -0.7464  0.6333 -0.5185
  359TIP3   OH2 1082   5.192   2.150   0.112  0.1162  1.3177 -0.0081
  359TIP3    H1 1083   5.209   2.113   0.198  1.4629 -0.3843 -0.9527
  359TIP3    H2 1084   5.122   2.095   0.076  0.9206  0.7618 -0.7447
  360TIP3   OH2 1085   4.494   2.846   1.491  0.3385  0.4631 -0.2357
  360TIP3    H1 1086   4.451   2.892   1.563 -1.4239 -0.1677 -0.8130
  360TIP3    H2 1087   4.485   2.753   1.513  1.5315  0.3089 -0.3380
  361TIP3   OH2 1088   3.058   4.739   1.633 -0.4559 -0.1264 -0.0927
  361TIP3    H1 1089   3.007   4.730   1.552 -2.6830 -0.1482  1.2256
  361TIP3    H2 1090   3.087   4.650   1.654 -2.5246 -0.6766  0.6925
  362TIP3   OH2 1091   4.915   1.156   4.795 -0.3458 -0.0321 -0.3379
  362TIP3    H1 1092   4.890   1.066   4.816  0.0812  0.3245  1.9155
  362TIP3    H2 1093   4.834   1.197   4.763 -0.7486 -0.9584 -0.5276
  363TIP3   OH2 1094   0.352   3.894   1.535 -0.1768  0.3642 -0.0574
  363TIP3    H1 1095   0.441   3.924   1.551 -0.2971  0.4888  0.3836
  363TIP3    H2 1096   0.339   3.908   1.441 -0.0827  1.3148  0.0568
  364TIP3   OH2 1097   1.292   3.371   2.703  0.1691  0.3422  0.1658
  364TIP3    H1 1098   1.205   3.334   2.686 -0.4627  1.5879  0.5400
  364TIP3    H2 1099   1.274   3.458   2.738  1.5764  0.4986  0.5483
  365TIP3   OH2 1100   2.457   4.497   1.797 -0.7348 -0.4519  0.1397
  365TIP3    H1 1101   2.397   4.427   1.774 -0.6405 -0.4045 -0.2646
  365TIP3    H2 1102   2.416   4.541   1.872  0.7846 -3.0268  2.6992
  366TIP3   OH2 1103   2.807   3.883   1.556  0.2652  0.3407  0.2795
  366TIP3    H1 1104   2.817   3.977   1.574 -1.3017  0.6704 -0.3767
  366TIP3    H2 1105   2.843   3.840   1.634  0.6968  1.4969  0.7435
  367TIP3   OH2 1106   3.950   3.259   2.074  0.3901 -0.0192  0.1915
  367TIP3    H1 1107   4.035   3.239   2.035  0.3456  2.2513 -1.2818
  367TIP3    H2 1108   3.912   3.174   2.094  2.2613 -1.1521 -0.7504
  368TIP3   OH2 1109   3.111   5.857   0.552 -0.1985  0.2500 -0.1691
  368TIP3    H1 1110   3.071   5.781   0.509  0.2824 -0.2667  0.2782
  368TIP3    H2 1111   3.059   5.931   0.522 -2.5392 -0.5324  1.6414
  369TIP3   OH2 1112   2.911   0.358   3.981  0.7872  0.3753  0.7067
  369TIP3    H1 1113   2.903   0.405   3.899  0.9373 -0.2398  0.3303
  369TIP3    H2 1114   2.958   0.277   3.958  0.5906  0.0721  1.3385
  370TIP3   OH2 1115   4.702   3.603   4.916 -0.4694 -0.4503  0.1782
  370TIP3    H1 1116   4.666   3.521   4.884 -0.5594 -0.8786  1.3384
  370TIP3    H2 1117   4.769   3.577   4.979 -0.2948  0.3643  0.3424
  371TIP3   OH2 1118   0.150   4.249   2.704  0.3327  0.2353 -0.4842
  371TIP3    H1 1119   0.172   4.156   2.694  3.0506  0.9415 -1.9077
  371TIP3    H2 1120   0.222   4.296   2.663  0.3112  3.0831  2.3154
  372TIP3   OH2 1121   4.983   4.629   2.100  0.2913 -0.5521 -0.2963
  372TIP3    H1 1122   4.984   4.699   2.165  0.8019 -1.0462  0.2468
  372TIP3    H2 1123   5.017   4.553   2.147 -1.0178 -1.3803 -0.6447
  373TIP3   OH2 1124   4.407   4.619   1.530  0.4409 -0.2811  0.3034
  373TIP3    H1 1125   4.458   4.594   1.607 -0.9634 -0.6143  1.1484
  373TIP3    H2 1126   4.384   4.711   1.545 -1.0445 -0.7397  1.0049
  374TIP3   OH2 1127   4.488   0.117   4.617  0.1776 -0.5213 -0.6724
  374TIP3    H1 1128   4.473   0.099   4.710 -0.6153 -0.0118 -0.6989
  374TIP3    H2 1129   4.575   0.158   4.615 -0.4653  0.9516  0.0455
  375TIP3   OH2 1130   5.596   0.665   3.502 -0.2001  0.4996 -0.0012
  375TIP3    H1 1131   5.530   0.604   3.468  1.2725 -0.5665 -1.1269
  375TIP3    H2 1132   5.568   0.751   3.472 -1.6979  0.2364  0.5895
  376TIP3   OH2 1133   2.831   0.307   3.683  0.1441  0.1359  0.4229
  376TIP3    H1 1134   2.915   0.261   3.691  0.1611 -0.0054 -0.4641
  376TIP3    H2 1135   2.837   0.354   3.600 -0.8152 -0.2288  0.1335
  377TIP3   OH2 1136   6.075   5.280   4.447  0.0658 -0.5299 -0.2015
  377TIP3    H1 1137   6.161   5.304   4.413  0.3589  0.6641  1.2646
  377TIP3    H2 1138   6.091   5.252   4.537 -1.2670  1.8780  0.8914
  378TIP3   OH2 1139   5.743   3.857   4.911  0.0267 -0.5183 -0.0461
  378TIP3    H1 1140   5.777   3.915   4.842 -2.5419  0.9958 -0.1607
  378TIP3    H2 1141   5.698   3.788   4.863  0.9495 -1.2659  0.1307
  379TIP3   OH2 1142   1.221   3.559   0.377  0.1166  0.4076 -0.1330
  379TIP3    H1 1143   1.252   3.489   0.435  0.4816 -0.1251 -0.9432
  379TIP3    H2 1144   1.135   3.528   0.347  0.0358  0.5634 -0.0580
  380TIP3   OH2 1145   2.253   1.176   0.985 -0.7641  0.0545  0.4009
  380TIP3    H1 1146   2.341   1.151   0.960 -0.5739 -0.6864  1.7497
  380TIP3    H2 1147   2.230   1.246   0.924  0.3425 -0.4602 -0.6416
  381TIP3   OH2 1148   4.514   4.219   1.694 -0.1176 -0.2058  0.4230
  381TIP3    H1 1149   4.587   4.265   1.736 -0.4793  2.6533 -1.7876
  381TIP3    H2 1150   4.546   4.130   1.682  2.4750  0.5991  0.7845
  382TIP3   OH2 1151   4.002   0.252   4.142  0.1424 -0.3140 -0.6678
  382TIP3    H1 1152   3.948   0.211   4.075  0.7350 -2.2008 -0.0622
  382TIP3    H2 1153   3.980   0.206   4.223 -1.3154  2.5709  0.7444
  383TIP3   OH2 1154   5.704   1.863   1.152 -0.5766  0.3120  0.0198
  383TIP3    H1 1155   5.702   1.865   1.248  1.3923  4.0477  0.1726
  383TIP3    H2 1156   5.620   1.901   1.126 -0.6242  0.4338  0.3357
  384TIP3   OH2 1157   2.072   4.630   0.239  0.0345 -0.5653 -0.6393
  384TIP3    H1 1158   2.118   4.668   0.164 -1.5274 -0.4915 -1.6210
  384TIP3    H2 1159   1.992   4.593   0.202  0.1401 -2.3064  0.7236
  385TIP3   OH2 1160   4.685   4.592   2.073 -0.3215  0.4424 -0.2180
  385TIP3    H1 1161   4.767   4.642   2.068 -0.3258  0.3432 -1.6174
  385TIP3    H2 1162   4.622   4.655   2.108  0.1814  0.7483  0.1572
  386TIP3   OH2 1163   3.904   2.076   4.510  0.4793 -0.2283  0.5848
  386TIP3    H1 1164   3.818   2.118   4.521  0.4472  0.8561 -2.7838
  386TIP3    H2 1165   3.884   1.985   4.490 -0.0751  0.3762 -1.8717
  387TIP3   OH2 1166   2.353   1.478   4.432  0.1297  0.2373  0.2441
  387TIP3    H1 1167   2.400   1.494   4.350 -0.1610 -0.7496 -0.1273
  387TIP3    H2 1168   2.271   1.436   4.405  0.2720 -0.5986  1.0729
  388TIP3   OH2 1169   1.251   5.877   1.618  0.2230  0.3672  0.1789
  388TIP3    H1 1170   1.316   5.946   1.635  0.1232  0.3406  0.6945
  388TIP3    H2 1171   1.303   5.797   1.613  0.1662  0.2217  1.4416
  389TIP3   OH2 1172   1.511   5.167   2.718 -0.5148  0.2618  0.3760
  389TIP3    H1 1173   1.532   5.078   2.747 -2.0249 -0.3465 -0.2621
  389TIP3    H2 1174   1.527   5.166   2.624 -2.2629  0.0759  0.0428
  390TIP3   OH2 1175   5.063   5.040   4.432 -0.3952 -0.3448  0.4656
  390TIP3    H1 1176   5.010   5.083   4.364 -0.4299  1.1760  1.4053
  390TIP3    H2 1177   5.024   5.068   4.514  0.7226 -0.7188  1.1471
  391TIP3   OH2 1178   1.880   4.806   3.087  0.3545 -0.1669 -0.7264
  391TIP3    H1 1179   1.834   4.758   3.156 -0.0179  1.1342 -0.0255
  391TIP3    H2 1180   1.973   4.794   3.108  0.2376  0.8895  0.5230
  392TIP3   OH2 1181   1.718   5.569   4.334  0.6732  0.0872 -0.2352
  392TIP3    H1 1182   1.782   5.578   4.263  0.5247  1.5209 -0.2137
  392TIP3    H2 1183   1.636   5.548   4.289  1.0346 -1.3018 -0.2955
  393TIP3   OH2 1184   0.980   0.697   2.235 -0.1668  0.4329  0.0997
  393TIP3    H1 1185   1.033   0.662   2.307 -2.2167  0.7229  1.8290
  393TIP3    H2 1186   0.896   0.652   2.242 -1.5021  2.7492 -0.1134
  394TIP3   OH2 1187   0.307   0.848   0.317 -0.8518 -0.3267  0.0639
  394TIP3    H1 1188   0.289   0.758   0.288 -0.9644  0.0113 -0.9682
  394TIP3    H2 1189   0.302   0.900   0.237 -1.3517  0.6900  0.7361
  395TIP3   OH2 1190   4.431   5.580   1.061 -0.5522  0.8761  0.0982
  395TIP3    H1 1191   4.484   5.507   1.029 -1.6467  0.4700 -0.8629
  395TIP3    H2 1192   4.455   5.654   1.005 -1.0531  0.6691 -0.3956
  396TIP3   OH2 1193   2.826   3.987   0.874  0.2999  0.1057 -0.5157
  396TIP3    H1 1194   2.766   4.057   0.850 -0.7027 -0.4554  0.2455
  396TIP3    H2 1195   2.890   4.029   0.932 -0.3427  0.3932  0.0023
  397TIP3   OH2 1196   5.124   3.906   2.941  1.0340  0.0201  0.0935
  397TIP3    H1 1197   5.166   3.948   3.016  0.6003  0.4297  0.1151
  397TIP3    H2 1198   5.135   3.812   2.956  1.2912  0.1082  0.4669
  398TIP3   OH2 1199   0.610   0.397   1.964 -0.1293  0.0486  0.3258
  398TIP3    H1 1200   0.682   0.408   1.901 -0.7944 -0.1667 -0.4953
  398TIP3    H2 1201   0.632   0.317   2.011 -0.9670 -1.3634 -1.5398
  399TIP3   OH2 1202   0.128   5.054   4.580 -0.2343 -0.1970 -0.5412
  399TIP3    H1 1203   0.114   4.975   4.632  0.9478 -0.5962 -0.8156
  399TIP3    H2 1204   0.190   5.106   4.631 -3.3368  2.1287  1.2614
  400TIP3   OH2 1205   2.185   5.450   1.300  0.0909  0.3723 -0.0545
  400TIP3    H1 1206   2.257   5.513   1.300  1.9251 -1.5812  0.9671
  400TIP3    H2 1207   2.192   5.404   1.216  0.5625 -0.3677  0.3842
  401TIP3   OH2 1208   6.138   1.265   3.463 -0.3434  0.3857  0.2425
  401TIP3    H1 1209   6.051   1.224   3.461 -0.7214  1.1858 -1.3169
  401TIP3    H2 1210   6.126   1.349   3.418  1.3202  0.3309 -0.3832
  402TIP3   OH2 1211   3.876   1.300   0.587 -0.1228 -0.6950  0.2984
  402TIP3    H1 1212   3.870   1.382   0.636 -1.5038 -0.8458  0.4219
  402TIP3    H2 1213   3.960   1.305   0.542 -0.1513  0.7638  0.3471
  403TIP3   OH2 1214   5.316   5.721   1.869 -0.0544 -0.2319  0.5331
  403TIP3    H1 1215   5.392   5.713   1.927 -0.5630  0.9060  1.4114
  403TIP3    H2 1216   5.307   5.635   1.829  1.9341 -0.2784  0.0893
  404TIP3   OH2 1217   1.625   2.600   4.745 -0.5650  0.0499 -0.1090
  404TIP3    H1 1218   1.646   2.678   4.797 -0.5609  0.6931 -1.0282
  404TIP3    H2 1219   1.539   2.619   4.708 -0.3837 -0.1858 -0.6758
  405TIP3   OH2 1220   5.187   4.961   4.116  0.1539  0.2933 -0.0051
  405TIP3    H1 1221   5.186   5.025   4.187 -0.3490  2.3120 -1.7095
  405TIP3    H2 1222   5.260   4.904   4.135  0.0225  0.7718  2.1133
  406TIP3   OH2 1223   3.637   5.214   1.684  0.5031  0.3325  0.3095
  406TIP3    H1 1224   3.561   5.230   1.628  2.3982  0.3897 -2.4557
  406TIP3    H2 1225   3.643   5.291   1.739 -1.6337  0.1435  0.9124
  407TIP3   OH2 1226   1.089   0.265   4.542  0.0288 -0.4144  0.0946
  407TIP3    H1 1227   1.147   0.339   4.528 -0.6978  0.3552  1.0398
  407TIP3    H2 1228   1.137   0.207   4.602  0.5292 -0.6478 -0.5202
  408TIP3   OH2 1229   0.507   0.040   3.269 -0.6747 -0.1046 -0.4152
  408TIP3    H1 1230   0.548   0.124   3.251  0.4234 -0.7613 -1.1150
  408TIP3    H2 1231   0.465   0.015   3.187 -1.1976 -0.1335 -0.1423
  409TIP3   OH2 1232   3.287   3.026   2.893  0.1201 -0.3012  0.0128
  409TIP3    H1 1233   3.328   2.982   2.967  0.0580  0.6357  0.6204
  409TIP3    H2 1234   3.312   2.974   2.817  1.1523 -0.6131  0.5500
  410TIP3   OH2 1235   3.050   4.431   3.241  0.0791 -0.1078  0.4878
  410TIP3    H1 1236   3.066   4.409   3.333 -0.2562 -0.2919  0.5028
  410TIP3    H2 1237   3.083   4.356   3.192  0.5804  0.1439  0.4358
  411TIP3   OH2 1238   3.414   2.174   0.013  0.7798  0.7370 -0.0912
  411TIP3    H1 1239   3.455   2.103   0.061 -0.7186 -0.8211 -0.9843
  411TIP3    H2 1240   3.372   2.227   0.080  0.0412 -0.5114  0.4712
  412TIP3   OH2 1241   6.064   2.933   2.999 -0.2618  0.1132  0.2908
  412TIP3    H1 1242   6.127   3.001   2.978 -1.4978  1.5430  0.9664
  412TIP3    H2 1243   6.089   2.903   3.086  0.6079 -0.6937 -0.2318
  413TIP3   OH2 1244   1.195   3.297   3.893 -0.2799  0.0342  0.2650
  413TIP3    H1 1245   1.289   3.281   3.896 -0.5315 -1.4516  0.7325
  413TIP3    H2 1246   1.162   3.237   3.825 -1.0930 -0.6235  1.2145
  414TIP3   OH2 1247   2.923   2.032   1.080 -0.1809 -0.2484  0.3553
  414TIP3    H1 1248   2.883   1.948   1.103  0.1793  0.0327  2.1443
  414TIP3    H2 1249   2.985   2.050   1.151  1.3641  0.4989 -1.0982
  415TIP3   OH2 1250   4.462   2.563   1.022 -0.3727  1.0022  0.0794
  415TIP3    H1 1251   4.450   2.543   0.929  0.8246  0.9692 -0.0749
  415TIP3    H2 1252   4.435   2.483   1.067  0.3816  0.5148 -0.3198
  416TIP3   OH2 1253   0.687   5.064   0.908 -0.2659  0.2697 -0.1015
  416TIP3    H1 1254   0.641   5.062   0.825 -2.2930  2.1969  0.8600
  416TIP3    H2 1255   0.771   5.106   0.888  0.1755 -1.1710 -1.4742
  417TIP3   OH2 1256   3.497   0.782   1.661 -0.0187 -0.5202  0.6649
  417TIP3    H1 1257   3.443   0.710   1.628  1.7633 -2.4652  1.7647
  417TIP3    H2 1258   3.531   0.751   1.745  2.5497  0.6775  0.1738
  418TIP3   OH2 1259   6.195   5.180   0.124 -0.8253 -0.8748 -0.2369
  418TIP3    H1 1260   6.206   5.088   0.149  1.0943  0.2030  3.4531
  418TIP3    H2 1261   6.113   5.206   0.165 -2.4285 -1.2747 -2.9163
  419TIP3   OH2 1262   1.117   2.404   4.731  0.4046 -0.3348  0.0358
  419TIP3    H1 1263   1.129   2.462   4.656 -0.2354  0.0619  0.2327
  419TIP3    H2 1264   1.024   2.409   4.752  0.6259 -0.1860  1.0601
  420TIP3   OH2 1265   5.716   0.532   0.428 -0.2523  0.4836 -0.2391
  420TIP3    H1 1266   5.676   0.449   0.402  2.0127 -0.3642 -1.3160
  420TIP3    H2 1267   5.649   0.598   0.411 -1.2120 -0.8335 -1.8450
  421TIP3   OH2 1268   4.390   1.940   2.179 -0.2028 -0.4470  0.2415
  421TIP3    H1 1269   4.322   1.899   2.126 -0.0694 -1.3839  0.7842
  421TIP3    H2 1270   4.349   2.021   2.211 -0.9558 -0.8516  0.3211
  422TIP3   OH2 1271   5.879   5.872   2.587 -0.4466 -0.2917  0.0612
  422TIP3    H1 1272   5.968   5.870   2.551 -0.4921 -0.1428 -0.0637
  422TIP3    H2 1273   5.873   5.794   2.642 -0.9396 -1.5042 -1.6270
  423TIP3   OH2 1274   4.219   0.768   1.848  0.3462  0.1092  0.3039
  423TIP3    H1 1275   4.300   0.736   1.887  0.1330 -0.2854  0.4242
  423TIP3    H2 1276   4.243   0.790   1.758  0.4172 -0.7399  0.1044
  424TIP3   OH2 1277   4.063   3.221   0.488  0.1769  0.0556  0.3961
  424TIP3    H1 1278   4.084   3.157   0.420  2.2552 -0.2467  1.2233
  424TIP3    H2 1279   3.968   3.222   0.493  0.0562 -1.6193 -0.8933
  425TIP3   OH2 1280   4.702   4.954   4.241 -0.2136 -0.4646  0.0742
  425TIP3    H1 1281   4.618   4.908   4.244  0.6814 -2.1667  2.0813
  425TIP3    H2 1282   4.690   5.031   4.296 -0.0893 -1.5356  1.6815
  426TIP3   OH2 1283   3.102   3.202   2.312 -0.3426 -0.1895 -0.6127
  426TIP3    H1 1284   3.162   3.277   2.314 -1.5664  0.8031  0.4807
  426TIP3    H2 1285   3.037   3.221   2.379 -1.1044 -1.9123 -0.8044
  427TIP3   OH2 1286   2.473   4.018   4.487 -0.3219  0.3711  0.2697
  427TIP3    H1 1287   2.512   4.087   4.541  0.7025 -1.2509  1.6843
  427TIP3    H2 1288   2.437   3.956   4.550  0.7888 -1.5301 -0.8684
  428TIP3   OH2 1289   0.374   3.381   4.037  0.1644  0.5282 -0.4279
  428TIP3    H1 1290   0.307   3.429   3.988  0.6001  0.3737 -1.1859
  428TIP3    H2 1291   0.424   3.449   4.082  1.8768  1.0159 -2.8510
  429TIP3   OH2 1292   3.126   3.568   3.808  0.2951 -0.7054  0.2535
  429TIP3    H1 1293   3.203   3.528   3.766  1.0522 -0.2529  1.1956
  429TIP3    H2 1294   3.124   3.658   3.775  0.8625 -0.3631  1.1264
  430TIP3   OH2 1295   0.258   5.372   4.434  0.0362 -0.0568 -0.4005
  430TIP3    H1 1296   0.233   5.429   4.506  1.3722  0.3395 -0.2132
  430TIP3    H2 1297   0.323   5.312   4.471 -0.1122 -0.6029 -0.9951
  431TIP3   OH2 1298   5.669   2.307   2.001 -0.5489 -0.3160 -0.2302
  431TIP3    H1 1299   5.755   2.314   2.042 -0.9814 -0.0132  0.6532
  431TIP3    H2 1300   5.649   2.396   1.970  0.1003 -0.6870 -1.8188
  432TIP3   OH2 1301   2.749   3.732   3.406 -0.1833  0.1373  0.1646
  432TIP3    H1 1302   2.763   3.826   3.417  0.1883  0.1211 -0.1722
  432TIP3    H2 1303   2.833   3.692   3.427  0.2201  0.0217 -1.5048
  433TIP3   OH2 1304   1.614   1.552   4.479  0.1863  0.4354 -0.4165
  433TIP3    H1 1305   1.559   1.534   4.402  0.1720  0.6059 -0.4463
  433TIP3    H2 1306   1.580   1.494   4.547  1.7938 -1.5559 -1.2465
  434TIP3   OH2 1307   6.014   2.044   0.228 -0.1218 -0.6667 -0.3316
  434TIP3    H1 1308   5.984   1.956   0.207  0.0153 -0.6755 -0.4920
  434TIP3    H2 1309   6.058   2.035   0.312 -1.8652 -0.3819  0.6500
  435TIP3   OH2 1310   3.709   1.422   0.277  0.5765 -0.2054  0.3813
  435TIP3    H1 1311   3.803   1.409   0.286  0.8748 -0.0524 -1.8878
  435TIP3    H2 1312   3.679   1.346   0.226 -0.2261  0.5562 -0.3179
  436TIP3   OH2 1313   4.083   0.118   1.995  0.3004 -0.1217  0.4092
  436TIP3    H1 1314   4.005   0.160   2.033 -0.0199 -0.1937 -0.1602
  436TIP3    H2 1315   4.048   0.054   1.933  0.8134  1.4760 -1.6245
  437TIP3   OH2 1316   5.201   4.727   4.486  0.2435 -0.2993 -0.2874
  437TIP3    H1 1317   5.245   4.678   4.416 -1.0003 -1.4650 -0.2976
  437TIP3    H2 1318   5.183   4.812   4.447 -1.0040 -1.1393 -1.6574
  438TIP3   OH2 1319   3.013   4.163   4.574  0.0280  1.0703 -0.4958
  438TIP3    H1 1320   2.931   4.188   4.617 -1.4926 -2.3048 -1.1489
  438TIP3    H2 1321   3.076   4.158   4.646 -1.5058 -0.6920  0.8372
  439TIP3   OH2 1322   1.531   0.613   1.487 -0.2732  0.3460 -0.2983
  439TIP3    H1 1323   1.444   0.623   1.526 -0.1384  0.3627  0.0041
  439TIP3    H2 1324   1.585   0.578   1.558 -0.2046 -0.3826 -0.6956
  440TIP3   OH2 1325   2.934   1.864   0.654  0.2744  0.0213  0.3694
  440TIP3    H1 1326   3.010   1.866   0.713  1.1796  0.4729 -0.7602
  440TIP3    H2 1327   2.863   1.827   0.706  0.7431  1.4195  2.0854
  441TIP3   OH2 1328   3.798   5.186   3.783  0.3831 -0.0725 -0.2430
  441TIP3    H1 1329   3.770   5.165   3.694 -2.2562  1.0711  0.2294
  441TIP3    H2 1330   3.887   5.220   3.773  0.7837 -1.5223 -2.2034
  442TIP3   OH2 1331   2.887   5.636   1.796  0.0316 -0.2051  0.2733
  442TIP3    H1 1332   2.966   5.654   1.745 -0.1212  0.4908  0.2753
  442TIP3    H2 1333   2.833   5.583   1.739 -0.0746  0.4464 -0.2374
  443TIP3   OH2 1334   1.907   4.360   1.080  0.3606  0.2553 -0.5519
  443TIP3    H1 1335   1.870   4.355   1.168  0.3073 -2.8260 -0.6176
  443TIP3    H2 1336   1.960   4.439   1.081 -0.8633  1.1464  1.7298
  444TIP3   OH2 1337   1.012   5.359   1.200  0.1996 -0.3017 -0.4893
  444TIP3    H1 1338   1.056   5.384   1.119  0.3425  0.8830 -0.0730
  444TIP3    H2 1339   0.918   5.367   1.180  0.2073 -1.1091 -0.8601
  445TIP3   OH2 1340   2.210   5.039   1.659  0.0891 -0.2532  0.1948
  445TIP3    H1 1341   2.229   5.126   1.694  1.0381 -0.0959 -0.6602
  445TIP3    H2 1342   2.293   5.010   1.620 -0.2461 -1.4916  0.3630
  446TIP3   OH2 1343   4.586   0.784   2.137  0.6906  0.3183 -0.2504
  446TIP3    H1 1344   4.547   0.869   2.161 -0.9689 -0.7256  0.9989
  446TIP3    H2 1345   4.516   0.721   2.154  2.9093 -1.7261  2.1939
  447TIP3   OH2 1346   5.224   0.275   1.903 -0.0447  0.1261 -0.3608
  447TIP3    H1 1347   5.238   0.276   1.998  0.1653 -1.0216 -0.3646
  447TIP3    H2 1348   5.302   0.232   1.868 -1.4059 -2.1741 -0.7827
  448TIP3   OH2 1349   3.611   5.562   4.361 -0.3720 -0.3119  0.1519
  448TIP3    H1 1350   3.530   5.585   4.316 -0.9066  0.0718  1.2865
  448TIP3    H2 1351   3.674   5.547   4.290 -1.4904 -0.8975 -0.7555
  449TIP3   OH2 1352   4.065   0.416   2.938 -0.3972  0.3390  0.2269
  449TIP3    H1 1353   4.121   0.352   2.894  0.3556 -0.1124  1.7777
  449TIP3    H2 1354   4.030   0.369   3.014 -1.7383  1.0674  0.0946
  450TIP3   OH2 1355   2.384   2.807   2.307  0.4500  0.0689 -0.2403
  450TIP3    H1 1356   2.452   2.766   2.254 -1.3739 -4.4104  0.4361
  450TIP3    H2 1357   2.302   2.779   2.267 -1.0432  2.5078  0.9024
  451TIP3   OH2 1358   5.324   3.685   0.981 -0.2646 -0.3375  0.0912
  451TIP3    H1 1359   5.247   3.698   0.926 -1.7662  2.0729  2.5144
  451TIP3    H2 1360   5.377   3.763   0.967  1.9298 -1.9887 -1.5884
  452TIP3   OH2 1361   2.291   4.290   3.064  0.2097 -0.2326  0.0047
  452TIP3    H1 1362   2.294   4.370   3.011  0.9654 -0.5663 -0.4736
  452TIP3    H2 1363   2.244   4.227   3.009 -0.5247 -0.0876  0.4452
  453TIP3   OH2 1364   4.367   2.489   2.358  0.0218 -0.1196  0.1952
  453TIP3    H1 1365   4.295   2.433   2.388 -0.9036  1.2671  0.6361
  453TIP3    H2 1366   4.352   2.573   2.400  1.2843  0.5425 -0.5989
  454TIP3   OH2 1367   5.040   2.646   0.388 -0.0334 -0.0220 -0.3629
  454TIP3    H1 1368   4.955   2.603   0.381 -0.3712  0.7144 -0.9792
  454TIP3    H2 1369   5.029   2.707   0.462  0.9012 -1.9450  1.4696
  455TIP3   OH2 1370   2.199   4.387   2.606  0.1920 -0.0539 -0.0004
  455TIP3    H1 1371   2.275   4.365   2.552 -0.1476 -1.3598  0.0170
  455TIP3    H2 1372   2.143   4.310   2.600 -1.1300  0.8799  0.0079
  456TIP3   OH2 1373   0.124   0.975   2.852 -0.6818 -0.7684 -0.1513
  456TIP3    H1 1374   0.124   1.046   2.915 -0.4366 -1.9800  1.2538
  456TIP3    H2 1375   0.141   0.896   2.903  0.8100 -1.6597 -1.8946
  457TIP3   OH2 1376   3.373   3.156   0.708 -0.0740 -0.4111 -0.0683
  457TIP3    H1 1377   3.313   3.082   0.722  0.9893 -1.2700  0.1201
  457TIP3    H2 1378   3.387   3.157   0.613  0.2842 -0.7839 -0.0268
  458TIP3   OH2 1379   1.633   4.455   3.177  0.0023  0.3084  0.0072
  458TIP3    H1 1380   1.696   4.521   3.207  1.1119 -1.8158  2.8741
  458TIP3    H2 1381   1.551   4.480   3.219  0.4902 -0.1998  1.3347
  459TIP3   OH2 1382   4.669   2.644   1.179  0.6071  0.6963 -0.1860
  459TIP3    H1 1383   4.608   2.612   1.245  0.8426  0.1534 -0.2240
  459TIP3    H2 1384   4.626   2.626   1.096  1.2458 -0.6393 -0.2536
  460TIP3   OH2 1385   1.377   0.359   4.091  0.3171  0.3100 -0.0153
  460TIP3    H1 1386   1.465   0.341   4.125  0.3036  1.8126  0.9173
  460TIP3    H2 1387   1.372   0.455   4.088 -0.6468  0.2405 -1.8124
  461TIP3   OH2 1388   4.057   0.884   2.994  0.1442 -0.5126 -0.7120
  461TIP3    H1 1389   4.099   0.943   2.932 -0.7417  0.7585 -0.1373
  461TIP3    H2 1390   3.969   0.920   3.008  0.6553 -0.0781  2.1019
  462TIP3   OH2 1391   4.220   0.306   1.220 -0.3854 -0.2000  0.4145
  462TIP3    H1 1392   4.209   0.385   1.272  0.3749 -0.1281  0.4686
  462TIP3    H2 1393   4.131   0.271   1.211 -0.5028 -0.3194  1.9105
  463TIP3   OH2 1394   5.646   0.278   1.532 -0.3413 -0.3083 -0.3417
  463TIP3    H1 1395   5.694   0.197   1.548 -0.6030 -0.3658  0.1902
  463TIP3    H2 1396   5.554   0.250   1.529 -0.7476  0.2940  2.6771
  464TIP3   OH2 1397   4.159   1.377   4.482 -0.1750 -0.2318 -0.4293
  464TIP3    H1 1398   4.068   1.381   4.510  0.6186  1.8022  2.3396
  464TIP3    H2 1399   4.192   1.295   4.519 -0.6160 -0.4225 -0.4616
  465TIP3   OH2 1400   1.480   2.987   1.862  0.6588 -0.0571 -0.0358
  465TIP3    H1 1401   1.398   3.021   1.899  1.0129  1.4836 -0.6264
  465TIP3    H2 1402   1.470   2.892   1.868 -0.7170  0.1079  0.8954
  466TIP3   OH2 1403   4.078   4.980   3.556 -0.3926  0.2371  0.1169
  466TIP3    H1 1404   4.138   4.993   3.483  0.4091  0.3466  0.7831
  466TIP3    H2 1405   4.028   4.902   3.533  2.4545 -2.0616  1.1236
  467TIP3   OH2 1406   2.349   0.250   0.720  0.1393 -0.4737  0.1354
  467TIP3    H1 1407   2.326   0.193   0.646 -1.3704  0.3301 -0.0629
  467TIP3    H2 1408   2.264   0.275   0.758  0.7868  1.0614  0.6470
  468TIP3   OH2 1409   6.272   1.718   3.270 -0.1840 -0.2388 -0.2808
  468TIP3    H1 1410   6.321   1.759   3.341  1.1725  0.8037 -1.7636
  468TIP3    H2 1411   6.255   1.788   3.208 -0.7509 -1.2496 -1.3166
  469TIP3   OH2 1412   0.189   4.966   0.253  0.2048  0.1653 -0.3123
  469TIP3    H1 1413   0.117   4.987   0.193 -0.7053 -0.7253  0.4330
  469TIP3    H2 1414   0.241   5.047   0.257 -0.8471  0.8838 -0.7244
  470TIP3   OH2 1415   2.704   5.273   2.699 -0.2504 -0.2959 -0.0789
  470TIP3    H1 1416   2.612   5.298   2.692 -0.0944  0.1112 -0.7589
  470TIP3    H2 1417   2.751   5.340   2.650  0.5803  0.5190  1.7116
  471TIP3   OH2 1418   4.732   0.456   5.104  0.1589  0.1178 -0.7730
  471TIP3    H1 1419   4.769   0.470   5.017 -0.1359  0.8926 -0.7836
  471TIP3    H2 1420   4.786   0.509   5.162  0.2837 -0.3078 -0.4973
  472TIP3   OH2 1421   0.894   1.391   3.927 -0.5064  0.2018  0.4023
  472TIP3    H1 1422   0.971   1.335   3.932 -0.3881  0.3707  0.4986
  472TIP3    H2 1423   0.927   1.475   3.894 -0.8476 -0.0960 -0.7532
  473TIP3   OH2 1424   4.099   5.250   3.844  0.3403 -0.1191 -0.2155
  473TIP3    H1 1425   4.090   5.158   3.867 -0.6050 -0.1999 -0.8543
  473TIP3    H2 1426   4.129   5.293   3.925 -3.8492 -0.1922  1.6657
  474TIP3   OH2 1427   1.390   3.674   0.182  0.2770  0.5933 -0.2609
  474TIP3    H1 1428   1.344   3.671   0.266 -1.7562 -0.9750 -1.3603
  474TIP3    H2 1429   1.428   3.762   0.179  0.1451  0.7942  2.1331
  475TIP3   OH2 1430   1.392   0.403   1.843 -0.5481 -0.3885 -0.1645
  475TIP3    H1 1431   1.369   0.319   1.804 -0.9796 -0.1139 -0.5090
  475TIP3    H2 1432   1.357   0.398   1.933 -0.5956 -0.5654 -0.1921
  476TIP3   OH2 1433   2.991   5.419   3.811  0.6387 -0.3012  0.6511
  476TIP3    H1 1434   3.043   5.354   3.762  1.3122  1.1880 -0.7039
  476TIP3    H2 1435   3.039   5.430   3.893  1.0336 -0.8243  0.5008
  477TIP3   OH2 1436   5.569   2.590   2.023 -0.7877  0.6389  0.3429
  477TIP3    H1 1437   5.576   2.650   1.949 -0.5501  1.9164  1.3749
  477TIP3    H2 1438   5.565   2.646   2.100  0.4761 -0.6864  1.4305
  478TIP3   OH2 1439   4.242   4.559   5.025  0.9199  0.1343 -0.6334
  478TIP3    H1 1440   4.283   4.490   4.972  1.7781  0.5865 -0.5795
  478TIP3    H2 1441   4.312   4.622   5.040  0.2856  0.7536 -0.2192
  479TIP3   OH2 1442   1.276   2.705   3.934 -0.1888 -0.0085  0.2187
  479TIP3    H1 1443   1.233   2.655   4.004  0.4650  0.4856  1.0022
  479TIP3    H2 1444   1.256   2.796   3.954  0.7434  0.1951  0.2886
  480TIP3   OH2 1445   4.541   4.749   2.225  0.9847  0.6194  0.0428
  480TIP3    H1 1446   4.451   4.781   2.237  1.2303  1.8756 -1.1762
  480TIP3    H2 1447   4.555   4.688   2.298 -1.3717 -0.8042 -0.5657
  481TIP3   OH2 1448   4.664   1.541   0.478  0.2836  0.5438 -0.5235
  481TIP3    H1 1449   4.673   1.549   0.573 -0.2075 -0.1388 -0.4113
  481TIP3    H2 1450   4.676   1.447   0.461 -1.0614  0.4404 -0.9717
  482TIP3   OH2 1451   3.595   1.299   4.925 -0.2333  0.0224 -0.3816
  482TIP3    H1 1452   3.614   1.321   5.016 -1.8577 -0.2103  0.0503
  482TIP3    H2 1453   3.536   1.369   4.895 -0.8172 -0.6283 -0.8009
  483TIP3   OH2 1454   2.518   2.675   3.364  0.2550  0.3412  0.3552
  483TIP3    H1 1455   2.464   2.736   3.315  0.2433  0.2452  0.2491
  483TIP3    H2 1456   2.457   2.613   3.402  0.3288 -0.0613 -0.1737
  484TIP3   OH2 1457   2.981   1.198   4.722 -0.2632 -0.2275 -0.1143
  484TIP3    H1 1458   3.058   1.165   4.767 -0.2336 -0.2233 -0.1619
  484TIP3    H2 1459   3.004   1.196   4.629  0.1406  0.9926 -0.0497
  485TIP3   OH2 1460   1.831   1.531   4.062 -0.1313  0.3640  0.3271
  485TIP3    H1 1461   1.825   1.436   4.054  0.0396  0.3995 -0.2026
  485TIP3    H2 1462   1.781   1.565   3.988 -0.3726  0.6891  0.6354
  486TIP3   OH2 1463   4.747   4.007   1.942 -0.3011  0.4768 -0.0821
  486TIP3    H1 1464   4.741   3.919   1.979 -2.0840  0.7614  0.4058
  486TIP3    H2 1465   4.704   3.999   1.856  1.4096  0.4308 -0.9779
  487TIP3   OH2 1466   1.276   0.900   3.648 -0.4554  0.2643  0.2335
  487TIP3    H1 1467   1.342   0.951   3.695  0.0011  1.3393 -1.4643
  487TIP3    H2 1468   1.323   0.824   3.614 -0.2627  0.6041 -0.2772
  488TIP3   OH2 1469   3.544   5.890   4.447  0.3859 -0.3512  0.2234
  488TIP3    H1 1470   3.614   5.897   4.382  1.2404 -1.5717  0.9750
  488TIP3    H2 1471   3.585   5.847   4.522 -1.1262 -0.9153  0.7625
  489TIP3   OH2 1472   2.090   5.107   1.077 -0.5948  0.7641  0.5350
  489TIP3    H1 1473   2.017   5.063   1.033 -0.4220 -0.0959  1.0733
  489TIP3    H2 1474   2.115   5.047   1.147  1.5646  0.3244 -0.5121
  490TIP3   OH2 1475   5.281   2.234   4.083 -0.0361 -0.2745  0.0591
  490TIP3    H1 1476   5.213   2.232   4.150 -0.5298 -0.4831 -0.4443
  490TIP3    H2 1477   5.279   2.147   4.044  1.4045 -0.7235  0.9054
  491TIP3   OH2 1478   3.857   3.104   2.847 -0.0988 -0.0337 -0.4255
  491TIP3    H1 1479   3.948   3.078   2.840 -0.1346 -0.9675  1.8792
  491TIP3    H2 1480   3.807   3.026   2.823 -0.2174 -0.5846  1.4141
  492TIP3   OH2 1481   5.041   0.685   0.863  0.0992 -0.3475 -0.2005
  492TIP3    H1 1482   4.957   0.644   0.886 -1.6715  1.5026 -2.8537
  492TIP3    H2 1483   5.092   0.614   0.824 -0.6519 -1.2453  0.3860
  493TIP3   OH2 1484   1.677   2.406   0.575 -0.2477  0.3275 -0.8661
  493TIP3    H1 1485   1.735   2.351   0.522 -0.2484 -1.1199  0.5622
  493TIP3    H2 1486   1.735   2.467   0.621 -0.0885  0.4285 -1.2016
  494TIP3   OH2 1487   2.402   3.989   1.182 -0.0487 -0.1696  0.2382
  494TIP3    H1 1488   2.323   4.001   1.129  0.2864  0.2576 -0.1676
  494TIP3    H2 1489   2.383   4.033   1.265 -0.6440 -0.9924  0.5534
  495TIP3   OH2 1490   4.532   2.618   2.664 -0.4743  0.3918  0.0905
  495TIP3    H1 1491   4.545   2.669   2.585  0.6947 -0.6492 -0.4305
  495TIP3    H2 1492   4.563   2.675   2.735 -0.3577  0.8679 -0.3390
  496TIP3   OH2 1493   2.317   1.245   4.660  0.1698  0.2840  0.5215
  496TIP3    H1 1494   2.333   1.338   4.648  0.6088  0.3452  1.4638
  496TIP3    H2 1495   2.224   1.233   4.644  0.4051  0.5985 -1.2193
  497TIP3   OH2 1496   4.451   5.676   3.526 -0.1318  0.2810  0.2077
  497TIP3    H1 1497   4.452   5.722   3.442  0.2270  0.2371  0.1863
  497TIP3    H2 1498   4.358   5.663   3.545 -0.2401  1.1579  0.3016
  498TIP3   OH2 1499   3.945   5.687   5.047 -0.4173 -0.5042 -0.1299
  498TIP3    H1 1500   3.999   5.684   4.968 -0.8356 -1.7109 -0.3967
  498TIP3    H2 1501   3.932   5.595   5.070  0.7990 -0.1732  2.1277
  499TIP3   OH2 1502   3.608   0.929   1.028 -1.1220  0.6121 -0.0584
  499TIP3    H1 1503   3.553   0.884   0.963 -1.2752  1.2883 -0.4027
  499TIP3    H2 1504   3.679   0.968   0.977 -0.5888  0.1640  0.3262
  500TIP3   OH2 1505   1.259   0.129   1.341  0.2440 -0.2354  0.4725
  500TIP3    H1 1506   1.266   0.049   1.289 -1.0957 -1.0941  1.5362
  500TIP3    H2 1507   1.196   0.183   1.293 -1.6063 -1.3560  1.5016
  501TIP3   OH2 1508   5.227   5.795   4.720 -0.1170  0.1488  0.1532
  501TIP3    H1 1509   5.306   5.759   4.680  0.9494  2.5045 -0.0210
  501TIP3    H2 1510   5.174   5.718   4.741  1.6247 -1.4410 -0.9123
  502TIP3   OH2 1511   3.651   0.468   3.801 -0.6583 -0.0071  0.6296
  502TIP3    H1 1512   3.721   0.481   3.864  0.2314  0.5928 -0.4593
  502TIP3    H2 1513   3.646   0.373   3.790  1.1088 -0.0096 -0.4920
  503TIP3   OH2 1514   4.301   5.143   1.365 -0.6867 -0.5771  0.3615
  503TIP3    H1 1515   4.283   5.123   1.457 -1.6173  1.5228  0.6842
  503TIP3    H2 1516   4.393   5.121   1.353 -0.8430 -1.9766  1.4561
  504TIP3   OH2 1517   3.437   2.882   2.666  0.1842  0.1896 -0.7085
  504TIP3    H1 1518   3.368   2.821   2.693  0.6239  0.5072  1.2859
  504TIP3    H2 1519   3.393   2.943   2.607 -1.3745  0.6014  0.8063
  505TIP3   OH2 1520   0.457   2.528   2.230 -0.2488 -0.4721 -0.0430
  505TIP3    H1 1521   0.547   2.513   2.204  0.3920 -2.1767  2.7566
  505TIP3    H2 1522   0.462   2.587   2.306 -1.4146 -1.0163  0.4975
  506TIP3   OH2 1523   0.364   1.008   0.551 -0.1300  0.2738  0.2790
  506TIP3    H1 1524   0.349   0.937   0.489 -0.1134 -0.5731  1.2047
  506TIP3    H2 1525   0.277   1.033   0.581 -0.0741 -1.0663  1.7584
  507TIP3   OH2 1526   1.674   2.884   1.677  0.4685  0.4248 -0.0940
  507TIP3    H1 1527   1.590   2.921   1.703  1.2775  1.7098  0.7637
  507TIP3    H2 1528   1.651   2.802   1.633 -1.1763  0.3392  0.8622
  508TIP3   OH2 1529   5.260   5.619   0.070  0.0544 -0.0569  0.5740
  508TIP3    H1 1530   5.242   5.706   0.035  0.0110  0.3055  1.4690
  508TIP3    H2 1531   5.185   5.599   0.125  0.1020 -0.6300  0.4384
  509TIP3   OH2 1532   1.237   2.109   2.016 -0.3159 -0.5326 -0.1882
  509TIP3    H1 1533   1.149   2.088   1.985 -0.9665 -0.8743  1.7740
  509TIP3    H2 1534   1.238   2.080   2.107  1.1355  1.4078  0.4732
  510TIP3   OH2 1535   5.956   3.726   0.150  0.8637 -0.7046  0.0324
  510TIP3    H1 1536   5.900   3.670   0.205 -1.1543  0.5846 -0.5922
  510TIP3    H2 1537   5.978   3.671   0.074  1.7206 -1.7129  0.9795
  511TIP3   OH2 1538   2.367   5.912   1.161  0.4502 -0.0505  0.1231
  511TIP3    H1 1539   2.354   6.006   1.175  0.1045  0.1769 -1.5940
  511TIP3    H2 1540   2.343   5.873   1.245  0.5101  1.3728  0.8499
  512TIP3   OH2 1541   4.959   0.473   3.034  0.5527  0.2013  0.2514
  512TIP3    H1 1542   4.911   0.390   3.032  1.2321 -0.3483  2.9859
  512TIP3    H2 1543   4.905   0.531   3.087  0.4780  1.2813 -0.9610
  513TIP3   OH2 1544   2.445   5.905   4.426 -0.5002 -0.6543 -0.2077
  513TIP3    H1 1545   2.530   5.878   4.461 -0.2470  0.5537  0.1580
  513TIP3    H2 1546   2.394   5.931   4.502 -0.7620 -0.2187 -0.5252
  514TIP3   OH2 1547   5.439   3.532   4.163  0.0326 -0.2243 -0.4344
  514TIP3    H1 1548   5.532   3.537   4.139 -0.0470 -2.3339 -1.3762
  514TIP3    H2 1549   5.439   3.493   4.250  0.0556  1.7193  0.4993
  515TIP3   OH2 1550   3.683   5.532   2.639  0.3802  0.6765  0.5420
  515TIP3    H1 1551   3.591   5.559   2.638 -0.0951 -0.8311 -0.3209
  515TIP3    H2 1552   3.693   5.486   2.722  0.3161  0.7363  0.5833
  516TIP3   OH2 1553   0.681   1.837   3.031 -0.2263  0.2281 -0.1722
  516TIP3    H1 1554   0.585   1.842   3.034 -0.3335 -1.6992  1.2286
  516TIP3    H2 1555   0.704   1.778   3.102  2.0418  0.7313 -0.4185
  517TIP3   OH2 1556   3.043   3.087   3.024  0.5877 -0.6347  0.3592
  517TIP3    H1 1557   3.111   3.045   2.971  1.2646 -2.7389  2.6882
  517TIP3    H2 1558   2.963   3.077   2.971  1.3712 -1.8038 -0.6681
  518TIP3   OH2 1559   6.055   3.101   1.466 -0.0070 -0.6015 -0.5173
  518TIP3    H1 1560   6.067   3.066   1.555 -1.4609 -1.4185 -0.6042
  518TIP3    H2 1561   6.012   3.186   1.479  2.3670  0.6410 -0.3586
  519TIP3   OH2 1562   1.022   2.775   0.596  0.0450  0.0633 -0.2612
  519TIP3    H1 1563   1.046   2.786   0.504  0.2164 -1.8861 -0.4761
  519TIP3    H2 1564   0.968   2.696   0.598  1.0398 -0.6109  1.4775
  520TIP3   OH2 1565   4.377   1.277   0.120  0.1507 -0.3774  0.0176
  520TIP3    H1 1566   4.336   1.309   0.039 -1.5341 -0.3290  0.8327
  520TIP3    H2 1567   4.430   1.350   0.151  1.2710 -0.5936 -1.3139
  521TIP3   OH2 1568   4.611   3.909   4.933 -0.2586 -0.0815  0.4954
  521TIP3    H1 1569   4.647   3.943   4.851  1.2654 -2.1623  0.2181
  521TIP3    H2 1570   4.629   3.815   4.929 -2.3993 -0.6225  2.1262
  522TIP3   OH2 1571   0.409   2.630   3.409  0.3407 -0.1704  0.1264
  522TIP3    H1 1572   0.314   2.628   3.394  0.4542 -0.7714 -0.5185
  522TIP3    H2 1573   0.431   2.723   3.409 -0.2914 -0.0104  0.5851
  523TIP3   OH2 1574   2.065   3.043   1.587  0.1381  0.1802 -0.6666
  523TIP3    H1 1575   1.989   3.027   1.531 -0.0871 -2.4577  0.2478
  523TIP3    H2 1576   2.139   3.043   1.526 -0.2923 -0.6721 -1.2189
  524TIP3   OH2 1577   3.332   4.620   0.365  0.1158  0.3959  0.1235
  524TIP3    H1 1578   3.352   4.640   0.274  0.0230  1.9575  0.4155
  524TIP3    H2 1579   3.251   4.569   0.361 -1.6624  3.0186 -0.6154
  525TIP3   OH2 1580   6.185   0.273   0.083  0.3283 -0.3920  0.1012
  525TIP3    H1 1581   6.104   0.286   0.133 -0.8634  1.6020 -2.0963
  525TIP3    H2 1582   6.254   0.311   0.138 -0.5916 -0.0715  1.0615
  526TIP3   OH2 1583   0.675   3.187   1.278  0.2003 -0.0197  0.0100
  526TIP3    H1 1584   0.728   3.264   1.298  2.6844 -1.2633 -1.2312
  526TIP3    H2 1585   0.712   3.118   1.334  0.1043 -0.9990 -1.1040
  527TIP3   OH2 1586   3.800   0.539   3.510 -0.7514 -0.3241  0.4314
  527TIP3    H1 1587   3.806   0.554   3.604  0.4099 -0.4853  0.3992
  527TIP3    H2 1588   3.802   0.626   3.471 -0.0964 -0.2989  0.5136
  528TIP3   OH2 1589   1.451   0.229   4.808 -0.9778 -0.3209 -0.3290
  528TIP3    H1 1590   1.539   0.266   4.816 -1.1839  0.4285 -1.3839
  528TIP3    H2 1591   1.439   0.178   4.888 -0.1751  0.8079  0.5269
  529TIP3   OH2 1592   4.727   4.336   2.082  0.0857 -0.2016  0.6246
  529TIP3    H1 1593   4.774   4.310   2.161  0.8158  0.6498  0.4922
  529TIP3    H2 1594   4.706   4.428   2.096  0.2600 -0.0316 -0.1783
  530TIP3   OH2 1595   0.904   4.506   0.439  0.3577  0.4495  0.0110
  530TIP3    H1 1596   0.839   4.462   0.495  0.1378  0.5495 -0.1614
  530TIP3    H2 1597   0.968   4.542   0.500  0.0895  0.6057  0.2037
  531TIP3   OH2 1598   5.914   2.449   2.118 -0.5539 -0.3909  0.0777
  531TIP3    H1 1599   5.855   2.454   2.193  1.0489 -0.5501  1.3994
  531TIP3    H2 1600   5.993   2.496   2.145  0.4584 -1.3088 -1.1217
  532TIP3   OH2 1601   0.908   5.848   3.312 -0.0644 -0.5241 -0.0589
  532TIP3    H1 1602   0.896   5.766   3.359 -1.9325  0.2016  0.8520
  532TIP3    H2 1603   0.878   5.915   3.373  0.6775  0.7716 -1.0676
  533TIP3   OH2 1604   3.913   3.597   4.667  0.5477 -0.2217  0.0312
  533TIP3    H1 1605   3.822   3.623   4.656 -0.0066 -0.7670  2.8404
  533TIP3    H2 1606   3.933   3.546   4.588 -0.7392  1.9536 -1.8275
  534TIP3   OH2 1607   5.035   0.090   4.912  0.7206 -0.2072  0.8954
  534TIP3    H1 1608   5.020   0.051   4.998  1.4667 -1.6071  0.4155
  534TIP3    H2 1609   5.094   0.029   4.868  2.6317  1.8434  0.4117
  535TIP3   OH2 1610   1.542   0.888   0.616  0.1445 -0.4381  0.0347
  535TIP3    H1 1611   1.510   0.819   0.557  0.1431 -2.4369  2.2581
  535TIP3    H2 1612   1.474   0.895   0.683  1.1468  0.2215  1.0060
  536TIP3   OH2 1613   3.654   1.228   4.328 -0.0770 -0.2715  0.4815
  536TIP3    H1 1614   3.651   1.312   4.373  0.5727 -0.0747  0.1693
  536TIP3    H2 1615   3.606   1.168   4.386  0.6313  0.0025  1.3675
  537TIP3   OH2 1616   4.769   4.111   0.380  0.1256  0.5880 -0.1187
  537TIP3    H1 1617   4.852   4.073   0.351 -0.3478 -0.7768  0.2452
  537TIP3    H2 1618   4.762   4.192   0.329 -0.1347 -1.1291 -3.0665
  538TIP3   OH2 1619   2.128   0.328   5.018 -0.2497 -0.1847  0.5366
  538TIP3    H1 1620   2.060   0.290   4.964 -0.3699  0.4406  0.2393
  538TIP3    H2 1621   2.206   0.330   4.962 -0.2127 -0.0988  0.5900
  539TIP3   OH2 1622   5.584   5.276   1.625  0.1410 -0.0575  0.0226
  539TIP3    H1 1623   5.591   5.271   1.529 -0.1205 -0.7782  0.0384
  539TIP3    H2 1624   5.632   5.200   1.657  0.8746  0.5932  0.5044
  540TIP3   OH2 1625   4.606   5.004   2.996  0.6053 -0.1498  0.2720
  540TIP3    H1 1626   4.642   5.035   3.079  0.3873 -0.5545  0.5237
  540TIP3    H2 1627   4.621   4.909   2.998 -0.1764 -0.2778  0.2368
  541TIP3   OH2 1628   4.483   2.034   0.393  0.0781 -0.4397  0.4891
  541TIP3    H1 1629   4.423   2.019   0.466 -0.0052  0.0813  0.5335
  541TIP3    H2 1630   4.456   1.972   0.326 -0.4389 -0.2881  0.5560
  542TIP3   OH2 1631   6.121   3.403   4.798  0.5838 -0.2852 -0.1945
  542TIP3    H1 1632   6.114   3.373   4.707  0.8488 -0.0070 -0.3110
  542TIP3    H2 1633   6.119   3.323   4.850  1.2912 -0.5170 -0.4979
  543TIP3   OH2 1634   1.020   3.613   1.222  0.3387  0.2545  0.0500
  543TIP3    H1 1635   1.048   3.570   1.141  2.2346  0.9249  0.2869
  543TIP3    H2 1636   1.098   3.661   1.252 -0.1854 -0.2609  2.4663
  544TIP3   OH2 1637   0.401   3.265   3.347  0.5169 -0.0643 -0.6473
  544TIP3    H1 1638   0.474   3.215   3.382  0.0351 -1.4847 -1.5576
  544TIP3    H2 1639   0.405   3.349   3.392  1.3464 -0.9248  0.9809
  545TIP3   OH2 1640   5.811   0.065   1.604 -0.2587  0.1466  0.1110
  545TIP3    H1 1641   5.882   0.126   1.626 -0.4582  0.2212  0.5426
  545TIP3    H2 1642   5.851   0.006   1.539 -0.1501  0.8998 -0.5220
  546TIP3   OH2 1643   0.074   4.980   3.457  0.0493  0.2810 -0.0663
  546TIP3    H1 1644   0.092   5.060   3.506 -0.5790  0.3815  0.0099
  546TIP3    H2 1645  -0.021   4.968   3.465  0.2754 -1.0905  0.8811
  547TIP3   OH2 1646   3.374   4.300   2.678  0.0212  0.3825  0.1582
  547TIP3    H1 1647   3.283   4.318   2.654 -0.4917  1.3337  2.5373
  547TIP3    H2 1648   3.372   4.286   2.772  2.0818 -1.6653 -0.0129
  548TIP3   OH2 1649   4.473   4.589   4.818 -0.1521  0.6728  0.8639
  548TIP3    H1 1650   4.556   4.617   4.781 -0.0787  0.0909  0.5804
  548TIP3    H2 1651   4.484   4.496   4.835 -1.2604  0.2214 -0.6537
  549TIP3   OH2 1652   3.594   3.051   2.395 -0.3477  0.2346  0.2621
  549TIP3    H1 1653   3.658   2.983   2.416  0.5654  1.0519  0.2270
  549TIP3    H2 1654   3.644   3.132   2.398 -1.7610  1.1183  2.0005
  550TIP3   OH2 1655   3.897   1.967   2.735  0.6113  0.9520 -0.2180
  550TIP3    H1 1656   3.975   1.998   2.689  1.1480  3.5409  2.1841
  550TIP3    H2 1657   3.927   1.891   2.784  0.5580 -0.4926 -2.2859
  551TIP3   OH2 1658   0.145   3.679   1.454  0.3551 -0.1826 -0.4218
  551TIP3    H1 1659   0.083   3.658   1.524  1.3316 -0.3393  0.4330
  551TIP3    H2 1660   0.210   3.735   1.497  2.2826 -2.1928 -0.5404
  552TIP3   OH2 1661   0.553   3.211   2.507 -0.0344 -0.2746  0.1326
  552TIP3    H1 1662   0.481   3.270   2.485  0.3814  0.0762 -0.3048
  552TIP3    H2 1663   0.616   3.222   2.436  0.4893 -0.5192  0.5512
  553TIP3   OH2 1664   4.343   5.842   1.818 -0.1029  0.3010  0.5988
  553TIP3    H1 1665   4.355   5.812   1.727 -1.1946  2.2942 -0.2685
  553TIP3    H2 1666   4.428   5.827   1.859  1.5131  2.2303 -1.6961
  554TIP3   OH2 1667   0.351   1.308   2.203  0.1238 -0.2109 -0.2356
  554TIP3    H1 1668   0.278   1.255   2.172  0.1026 -0.3612  0.0614
  554TIP3    H2 1669   0.316   1.356   2.278  0.4915 -0.7565  0.3010
  555TIP3   OH2 1670   2.117   5.279   2.553 -0.4004  0.3223 -0.5774
  555TIP3    H1 1671   2.146   5.293   2.644 -0.2210 -0.7305 -0.4536
  555TIP3    H2 1672   2.050   5.346   2.539  0.1884  1.0678  0.0341
  556TIP3   OH2 1673   2.312   3.463   3.998 -0.3017 -0.4631  0.6054
  556TIP3    H1 1674   2.361   3.545   3.990 -2.2491  0.5955 -1.6856
  556TIP3    H2 1675   2.356   3.402   3.939  0.2029 -0.5874  1.1001
  557TIP3   OH2 1676   1.121   1.325   0.070 -0.6104 -0.1477 -0.4700
  557TIP3    H1 1677   1.044   1.350   0.020  0.9715  1.2230 -2.3386
  557TIP3    H2 1678   1.169   1.264   0.014  0.2097 -0.1685  0.2140
  558TIP3   OH2 1679   5.279   1.275   0.973  0.4168  0.1886 -0.3808
  558TIP3    H1 1680   5.359   1.233   0.944 -0.0177 -0.4795 -0.6231
  558TIP3    H2 1681   5.304   1.322   1.053  0.7068 -1.2941  0.4247
  559TIP3   OH2 1682   1.645   1.617   3.875 -0.2091 -0.4896  0.5568
  559TIP3    H1 1683   1.636   1.711   3.891  0.9796 -0.4564  1.1701
  559TIP3    H2 1684   1.579   1.597   3.809  0.1651  0.9687 -0.3089
  560TIP3   OH2 1685   4.628   4.971   1.856 -0.2072 -0.0254 -0.4987
  560TIP3    H1 1686   4.548   4.933   1.891 -0.0294 -0.0160 -0.0744
  560TIP3    H2 1687   4.672   5.009   1.932  0.1074  0.1359 -0.7573
  561TIP3   OH2 1688   5.223   1.305   4.167  0.1746  0.7105 -0.4720
  561TIP3    H1 1689   5.207   1.223   4.212 -0.1524  1.1332  0.2026
  561TIP3    H2 1690   5.318   1.309   4.157  0.1759  0.1487 -0.7193
  562TIP3   OH2 1691   1.857   4.828   1.188 -0.1960  0.2384  0.7599
  562TIP3    H1 1692   1.786   4.767   1.208 -0.7760  0.6655  0.0759
  562TIP3    H2 1693   1.872   4.818   1.094  0.1724  0.6497  0.7698
  563TIP3   OH2 1694   4.387   4.315   4.917 -0.1814  0.4572  0.3272
  563TIP3    H1 1695   4.472   4.310   4.962 -0.3998  1.2959  0.8768
  563TIP3    H2 1696   4.334   4.247   4.958  0.3006 -0.2530 -0.2077
  564TIP3   OH2 1697   5.960   0.100   2.009  0.3956 -0.6682 -0.2833
  564TIP3    H1 1698   6.011   0.046   1.947  1.1699 -1.7952  1.2527
  564TIP3    H2 1699   5.967   0.053   2.092 -1.8896 -0.0051  0.3470
  565TIP3   OH2 1700   5.844   0.998   5.056 -0.3613 -0.0206  0.5085
  565TIP3    H1 1701   5.854   0.913   5.011  0.0255  0.2326  0.1060
  565TIP3    H2 1702   5.799   0.977   5.138 -1.8661 -0.3941 -0.3651
  566TIP3   OH2 1703   0.961   4.714   2.929  0.0011  0.3063  0.0275
  566TIP3    H1 1704   1.036   4.751   2.975  0.9704 -0.7433 -0.6206
  566TIP3    H2 1705   0.989   4.713   2.837 -0.3471 -1.1209 -0.0835
  567TIP3   OH2 1706   0.356   1.228   1.459  0.4314  0.3485 -0.1231
  567TIP3    H1 1707   0.281   1.240   1.517  1.2149 -0.1452  1.0344
  567TIP3    H2 1708   0.384   1.316   1.435  0.0307  0.5500  0.1556
  568TIP3   OH2 1709   6.175   0.922   3.717 -0.5603 -0.5794 -0.0813
  568TIP3    H1 1710   6.210   0.843   3.758  1.5358  0.0446 -0.5429
  568TIP3    H2 1711   6.155   0.896   3.627 -1.8866 -1.0769  0.3320
  569TIP3   OH2 1712   5.101   0.527   5.038 -0.3475  0.3687 -0.2368
  569TIP3    H1 1713   5.037   0.530   4.967 -0.5666  0.7394 -0.0281
  569TIP3    H2 1714   5.183   0.501   4.996  0.1336  2.9548 -1.0934
  570TIP3   OH2 1715   2.350   5.201   0.180 -0.1704 -0.1367 -0.1735
  570TIP3    H1 1716   2.435   5.245   0.183  0.3699 -1.0070 -1.6086
  570TIP3    H2 1717   2.286   5.270   0.199  0.5868  1.4894 -2.9713
  571TIP3   OH2 1718   1.691   0.340   2.332 -0.3783 -0.6639 -0.0085
  571TIP3    H1 1719   1.775   0.300   2.355  0.7302  1.6343  0.2522
  571TIP3    H2 1720   1.703   0.371   2.242 -0.7933  0.0058  0.1571
  572TIP3   OH2 1721   3.189   0.448   2.372  0.1275 -0.0284  0.1788
  572TIP3    H1 1722   3.144   0.385   2.428 -0.1073 -0.6513 -0.6766
  572TIP3    H2 1723   3.127   0.466   2.301  0.7069  0.1345 -0.2957
  573TIP3   OH2 1724   5.007   3.022   3.606  0.2886 -0.5985 -0.4587
  573TIP3    H1 1725   5.101   3.014   3.589  0.6455  0.6935  0.7090
  573TIP3    H2 1726   4.989   3.115   3.598 -0.7603 -0.7466 -0.0311
  574TIP3   OH2 1727   5.799   2.112   0.710 -0.0680  0.1592  0.6516
  574TIP3    H1 1728   5.839   2.085   0.793  2.0217 -0.2923 -0.4157
  574TIP3    H2 1729   5.845   2.193   0.687 -0.2167 -0.0171 -0.3052
  575TIP3   OH2 1730   0.576   5.454   4.032  0.4436 -0.7026 -0.1040
  575TIP3    H1 1731   0.668   5.458   4.056  0.4274  0.6568 -0.2132
  575TIP3    H2 1732   0.530   5.443   4.115  0.6621 -0.6613  0.0247
  576TIP3   OH2 1733   5.400  -0.002   4.581  0.2374  0.2319  0.4524
  576TIP3    H1 1734   5.367   0.057   4.513 -0.9737 -0.7159  0.1827
  576TIP3    H2 1735   5.472  -0.049   4.539  1.7595  2.0350  0.9192
  577TIP3   OH2 1736   5.803   2.856   3.862  0.4956 -0.2034 -0.5123
  577TIP3    H1 1737   5.870   2.912   3.902  0.8487  0.1656 -1.5852
  577TIP3    H2 1738   5.736   2.917   3.831  0.1355 -0.4961 -0.3126
  578TIP3   OH2 1739   4.774   4.424   1.471  0.2919 -0.0637 -0.2845
  578TIP3    H1 1740   4.699   4.443   1.416 -0.9973  0.1833  1.4689
  578TIP3    H2 1741   4.803   4.337   1.444 -0.4212 -0.0264 -1.1915
  579TIP3   OH2 1742   4.109   5.993   4.277  0.3312 -0.5397  0.2536
  579TIP3    H1 1743   4.200   5.966   4.269  0.0018 -1.4690 -0.6509
  579TIP3    H2 1744   4.061   5.933   4.219 -0.8584 -0.1051  0.7521
  580TIP3   OH2 1745   5.583   0.499   1.260  0.2370 -0.2390 -0.2492
  580TIP3    H1 1746   5.522   0.425   1.262  0.3270 -0.3186  2.0065
  580TIP3    H2 1747   5.669   0.460   1.273  0.3301  0.2200  0.5417
  581TIP3   OH2 1748   2.081   1.380   2.117  0.0986 -0.0078  0.0462
  581TIP3    H1 1749   2.040   1.416   2.197  1.6681 -1.2455  1.4783
  581TIP3    H2 1750   2.035   1.424   2.045 -0.1970  2.4928  1.6245
  582TIP3   OH2 1751   2.823   3.279   0.704  1.0650 -0.4563 -0.6811
  582TIP3    H1 1752   2.833   3.192   0.742 -0.1949  0.1155  1.0436
  582TIP3    H2 1753   2.868   3.272   0.619  2.6478 -2.2191  0.2035
  583TIP3   OH2 1754   0.110   3.202   1.856 -0.2838 -0.4732  0.0484
  583TIP3    H1 1755   0.041   3.238   1.800 -2.2105 -0.7384  2.0952
  583TIP3    H2 1756   0.179   3.268   1.854 -0.4862 -0.2532 -2.1783
  584TIP3   OH2 1757   2.615   2.501   2.010  0.1264 -0.3509  0.2877
  584TIP3    H1 1758   2.607   2.407   2.024 -0.3864 -0.3470  0.0530
  584TIP3    H2 1759   2.525   2.532   2.004  0.2741 -0.1760 -1.7122
  585TIP3   OH2 1760   6.062   4.483   5.125  0.0014 -0.4413  0.7518
  585TIP3    H1 1761   6.146   4.439   5.107  0.5934  0.5179  1.0830
  585TIP3    H2 1762   6.052   4.476   5.220  0.7981  1.3059  1.0031
  586TIP3   OH2 1763   3.832   0.214   1.787 -0.0619 -0.4299  0.8106
  586TIP3    H1 1764   3.802   0.302   1.764  2.7810  0.5003  0.3220
  586TIP3    H2 1765   3.848   0.217   1.881 -0.0920 -0.4675  0.8170
  587TIP3   OH2 1766   5.436   0.096   1.802 -0.2082 -0.0783 -0.3997
  587TIP3    H1 1767   5.417   0.022   1.859 -0.1262  0.7614  0.7755
  587TIP3    H2 1768   5.532   0.101   1.800 -0.2159  0.2975 -0.0432
  588TIP3   OH2 1769   4.055   4.467   4.123  0.0372  0.0111 -0.1584
  588TIP3    H1 1770   4.001   4.504   4.193 -0.1361  0.1621 -0.3701
  588TIP3    H2 1771   4.142   4.504   4.138  0.5783 -1.7286  1.3319
  589TIP3   OH2 1772   2.049   3.884   5.113 -0.9341 -0.4095 -0.0639
  589TIP3    H1 1773   2.120   3.838   5.069 -1.2608 -0.6688 -0.3232
  589TIP3    H2 1774   2.042   3.967   5.066 -0.3021 -0.0579  0.4448
  590TIP3   OH2 1775   4.030   0.932   4.751 -0.6443 -0.1833 -0.9872
  590TIP3    H1 1776   3.984   0.856   4.715  0.5907 -1.3339 -0.2127
  590TIP3    H2 1777   3.960   0.990   4.781 -1.7399 -2.8645  2.1993
  591TIP3   OH2 1778   1.775   4.504   0.331  0.0588  0.2585  0.3250
  591TIP3    H1 1779   1.729   4.581   0.365  0.5143  1.0981 -0.9053
  591TIP3    H2 1780   1.782   4.519   0.237 -0.6031 -1.7105 -0.0968
  592TIP3   OH2 1781   4.183   1.884   0.656 -0.2989 -0.6506  0.1267
  592TIP3    H1 1782   4.152   1.974   0.668  0.9997 -0.0338 -0.8066
  592TIP3    H2 1783   4.278   1.891   0.665 -0.0708 -1.6933 -1.2186
  593TIP3   OH2 1784   3.031   0.066   3.714  0.3851 -0.3020  0.1643
  593TIP3    H1 1785   3.122   0.037   3.703 -0.0828 -1.6403 -0.3665
  593TIP3    H2 1786   2.990  -0.005   3.764 -0.0940  0.8478  1.4773
  594TIP3   OH2 1787   1.824   0.644   1.340 -0.3552  0.0270 -0.4764
  594TIP3    H1 1788   1.749   0.603   1.297 -0.4182 -0.4531  0.0808
  594TIP3    H2 1789   1.795   0.657   1.430 -0.1268  0.7787 -0.5037
  595TIP3   OH2 1790   5.723   4.380   0.261 -0.4789  0.7572  0.5651
  595TIP3    H1 1791   5.666   4.305   0.277 -0.3866  0.5021 -0.2475
  595TIP3    H2 1792   5.763   4.399   0.346  1.3420 -1.6002  0.3369
  596TIP3   OH2 1793   2.083   2.059   1.793  0.0754 -0.2810  0.4725
  596TIP3    H1 1794   1.995   2.070   1.759  0.4414 -1.3346 -0.9245
  596TIP3    H2 1795   2.088   2.117   1.868 -2.7233 -2.2366  2.3647
  597TIP3   OH2 1796   1.051   4.700   2.661  0.0178 -0.8913 -0.2407
  597TIP3    H1 1797   1.010   4.639   2.601 -1.3723 -0.3608  0.1278
  597TIP3    H2 1798   1.041   4.786   2.619  0.6994 -0.7360 -0.1057
  598TIP3   OH2 1799   4.530   1.952   4.384  0.6851 -0.0026 -0.1399
  598TIP3    H1 1800   4.549   1.997   4.302 -1.4579  1.1926 -0.0590
  598TIP3    H2 1801   4.548   1.860   4.366 -0.4974  0.1222 -2.2064
  599TIP3   OH2 1802   1.716   3.589   2.568 -0.1137  0.6249 -0.1677
  599TIP3    H1 1803   1.712   3.685   2.569  1.5747  0.7233 -0.2301
  599TIP3    H2 1804   1.638   3.561   2.617 -1.7515  1.9593 -1.8441
  600TIP3   OH2 1805   4.219   0.452   2.287 -0.0844 -0.0595 -0.0007
  600TIP3    H1 1806   4.306   0.486   2.310  0.5153 -1.0190 -0.7924
  600TIP3    H2 1807   4.224   0.358   2.307 -0.8354 -0.1826 -0.3578
  601TIP3   OH2 1808   0.888   4.087   3.489 -0.5334 -0.3170 -0.1672
  601TIP3    H1 1809   0.904   4.140   3.411 -0.9973 -0.3782 -0.3109
  601TIP3    H2 1810   0.824   4.021   3.461 -0.3443 -0.6364  0.1402
  602TIP3   OH2 1811   4.257   1.988   3.719  0.3394  0.4090 -0.0201
  602TIP3    H1 1812   4.312   1.910   3.715 -0.5919 -0.2331 -2.1183
  602TIP3    H2 1813   4.279   2.036   3.639 -0.9165  0.9612 -0.0627
  603TIP3   OH2 1814   0.152   4.633   4.033  0.2864 -0.1532  0.2304
  603TIP3    H1 1815   0.184   4.723   4.029 -1.2223  0.4562  1.2299
  603TIP3    H2 1816   0.195   4.589   3.959  1.6108  1.1802  0.1623
  604TIP3   OH2 1817   2.384   0.516   0.816  0.4809  0.3590 -0.2361
  604TIP3    H1 1818   2.296   0.532   0.851  0.8761 -0.2357  1.1060
  604TIP3    H2 1819   2.371   0.455   0.743 -0.1644 -0.3046  0.4212
  605TIP3   OH2 1820   0.627   2.263   1.212 -0.3134 -0.2596 -0.3768
  605TIP3    H1 1821   0.678   2.342   1.229 -0.3671 -0.4058  0.5138
  605TIP3    H2 1822   0.687   2.191   1.229  0.5566 -0.4964 -3.6300
  606TIP3   OH2 1823   0.146   3.975   1.232 -0.1000 -0.5997  0.3029
  606TIP3    H1 1824   0.063   3.949   1.272  0.2026 -0.6818  0.8773
  606TIP3    H2 1825   0.185   3.892   1.204 -1.2144 -0.4311 -2.0056
  607TIP3   OH2 1826   2.540   4.945   3.855 -0.4068 -0.0831 -0.2726
  607TIP3    H1 1827   2.459   4.995   3.845 -0.1233  0.4434  0.0486
  607TIP3    H2 1828   2.514   4.854   3.842 -1.1784  0.0107  0.5553
  608TIP3   OH2 1829   5.017   0.736   4.442 -0.4843  0.7449 -1.0003
  608TIP3    H1 1830   5.062   0.651   4.435 -0.2097  0.9877 -2.6659
  608TIP3    H2 1831   5.069   0.785   4.507 -0.8147 -0.4318  0.1925
  609TIP3   OH2 1832   3.354   2.599   2.494 -0.0925  0.0816  0.4089
  609TIP3    H1 1833   3.319   2.667   2.551  0.3527  1.0295 -0.4196
  609TIP3    H2 1834   3.441   2.631   2.470 -0.7004  0.2844 -1.7014
  610TIP3   OH2 1835   3.668   0.642   2.590 -0.1436 -0.6894 -0.3198
  610TIP3    H1 1836   3.717   0.567   2.557 -0.1515 -0.3372 -1.1599
  610TIP3    H2 1837   3.576   0.617   2.581 -0.1554 -1.7331  2.1527
  611TIP3   OH2 1838   5.693   3.968   2.828  0.1003  0.2160  0.3778
  611TIP3    H1 1839   5.607   3.975   2.870 -0.2638  0.9703 -0.4663
  611TIP3    H2 1840   5.679   3.913   2.751  0.0876  1.3142 -0.4362
  612TIP3   OH2 1841   2.878   0.154   4.920 -0.1551  0.4996 -0.3848
  612TIP3    H1 1842   2.889   0.184   5.010  4.3542  1.2062 -0.9748
  612TIP3    H2 1843   2.926   0.072   4.916  2.0131  1.7684 -2.6543
  613TIP3   OH2 1844   0.065   0.329   0.240  0.1762 -0.0752  0.3731
  613TIP3    H1 1845  -0.009   0.360   0.292  0.3469  1.5273 -0.2691
  613TIP3    H2 1846   0.129   0.298   0.304 -1.1529 -1.8064  0.9235
  614TIP3   OH2 1847   3.644   2.295   2.991 -0.1939 -0.1437  0.0099
  614TIP3    H1 1848   3.686   2.209   2.983 -1.6805 -0.9262  0.3063
  614TIP3    H2 1849   3.605   2.312   2.906  0.0055  0.2114 -0.0165
  615TIP3   OH2 1850   3.984   0.166   1.245 -0.1695 -0.0270 -0.3425
  615TIP3    H1 1851   4.005   0.073   1.248  0.6926  0.0210 -2.9334
  615TIP3    H2 1852   3.936   0.182   1.326 -1.1880 -2.9010 -0.2728
  616TIP3   OH2 1853   1.829   3.290   1.879 -0.3164  0.6182  0.1117
  616TIP3    H1 1854   1.752   3.244   1.843 -0.5553 -0.8335  2.2994
  616TIP3    H2 1855   1.805   3.382   1.876 -2.0021  0.2268  0.3937
  617TIP3   OH2 1856   0.761   1.475   4.729 -0.5009 -0.1376  0.4646
  617TIP3    H1 1857   0.741   1.401   4.786 -0.0220 -1.5959 -1.1901
  617TIP3    H2 1858   0.717   1.454   4.646 -1.1371  1.8939  0.2318
  618TIP3   OH2 1859   0.917   3.106   1.755  0.2732  0.2970  0.1479
  618TIP3    H1 1860   0.963   3.129   1.835  1.4456 -0.8474 -0.1768
  618TIP3    H2 1861   0.930   3.181   1.697  0.2967  0.6837  0.6479
  619TIP3   OH2 1862   4.900   2.591   5.044 -0.1336  0.7321 -0.0205
  619TIP3    H1 1863   4.865   2.504   5.062  0.3782  0.6694  0.7032
  619TIP3    H2 1864   4.850   2.650   5.101 -0.8497  0.9982 -0.8960
  620TIP3   OH2 1865   6.013   1.186   1.113  0.2245 -0.5633 -0.4563
  620TIP3    H1 1866   6.046   1.237   1.039 -0.3067  0.6228  0.0990
  620TIP3    H2 1867   6.071   1.209   1.185 -0.4375 -0.1872 -0.0342
  621TIP3   OH2 1868   4.574   0.121   5.109 -0.1427  0.1580  0.2039
  621TIP3    H1 1869   4.552   0.184   5.177  1.2216 -0.2783  1.0823
  621TIP3    H2 1870   4.656   0.152   5.071 -1.0788  0.6220 -1.5769
  622TIP3   OH2 1871   0.765   1.248   3.673  0.5730  0.2705 -0.2288
  622TIP3    H1 1872   0.843   1.299   3.651  0.6131  1.9036  3.0426
  622TIP3    H2 1873   0.692   1.299   3.637  0.8046  1.0405  0.3667
  623TIP3   OH2 1874   3.730   2.130   0.006  0.0714 -0.2154  0.1866
  623TIP3    H1 1875   3.789   2.061  -0.026  1.7832 -0.1195  2.8392
  623TIP3    H2 1876   3.717   2.110   0.099 -0.4598  2.2953  0.7262
  624TIP3   OH2 1877   2.915   4.512   4.861 -0.6459  0.3734 -0.0797
  624TIP3    H1 1878   2.899   4.570   4.787  0.0022  0.0086 -0.5163
  624TIP3    H2 1879   2.971   4.562   4.920  0.4646 -0.0378 -0.7705
  625TIP3   OH2 1880   4.083   5.009   0.761 -1.0764 -0.2595  0.3171
  625TIP3    H1 1881   4.118   4.935   0.812  2.3875  0.0133 -1.3938
  625TIP3    H2 1882   4.046   5.068   0.826 -0.1035 -1.5680  2.1355
  626TIP3   OH2 1883   5.770   5.306   4.584 -0.1694  0.0967 -0.0229
  626TIP3    H1 1884   5.700   5.284   4.645  0.9657 -1.9987  0.6359
  626TIP3    H2 1885   5.829   5.363   4.634  0.6249 -1.4050  0.8587
  627TIP3   OH2 1886   2.969   0.516   5.003  0.2477 -0.2914  0.2357
  627TIP3    H1 1887   3.006   0.448   4.947 -0.8447  0.1119 -0.9955
  627TIP3    H2 1888   2.940   0.469   5.081  0.3203 -1.1016 -0.2150
  628TIP3   OH2 1889   1.865   0.596   2.615 -0.1936 -0.2240 -0.1449
  628TIP3    H1 1890   1.777   0.559   2.608 -0.1214 -0.2259 -1.1715
  628TIP3    H2 1891   1.921   0.534   2.567  0.1576  0.4693 -0.6387
  629TIP3   OH2 1892   1.478   3.026   1.131  0.1556 -0.2511  0.6891
  629TIP3    H1 1893   1.473   2.962   1.201  0.3080 -0.3861  0.5770
  629TIP3    H2 1894   1.572   3.039   1.116  0.1610 -1.3720 -0.5241
  630TIP3   OH2 1895   4.936   1.969   2.307  0.0617 -0.3881 -0.0415
  630TIP3    H1 1896   4.909   2.057   2.283 -1.7441 -1.2769 -1.4824
  630TIP3    H2 1897   5.023   1.960   2.267 -0.4679  0.1722 -1.4110
  631TIP3   OH2 1898   2.602   4.312   4.557 -0.1885  0.1560  0.2450
  631TIP3    H1 1899   2.650   4.317   4.639  0.5650  0.2051 -0.1911
  631TIP3    H2 1900   2.667   4.287   4.492 -0.2928  2.2149 -0.7378
  632TIP3   OH2 1901   1.418   4.127   2.267 -0.0205 -0.5943 -0.0910
  632TIP3    H1 1902   1.401   4.129   2.173  0.9475 -1.2966 -0.2987
  632TIP3    H2 1903   1.473   4.049   2.280  2.5156  1.1900  0.5918
  633TIP3   OH2 1904   2.347   1.479   3.660  0.2454 -0.0185  0.2637
  633TIP3    H1 1905   2.400   1.408   3.696 -0.1066  0.2490  1.3443
  633TIP3    H2 1906   2.305   1.442   3.582  1.7002 -0.3485 -0.3931
  634TIP3   OH2 1907   0.094   1.146   2.146 -0.2385 -0.3254  0.1152
  634TIP3    H1 1908   0.080   1.120   2.055 -1.7818  0.2034  0.1665
  634TIP3    H2 1909   0.010   1.182   2.174  0.7245  1.2319  1.1895
  635TIP3   OH2 1910   4.329   4.200   4.011  0.2003  0.1887 -0.3360
  635TIP3    H1 1911   4.401   4.187   3.949  1.3996 -1.8753  1.3628
  635TIP3    H2 1912   4.366   4.175   4.096 -2.3456 -0.2809  0.7107
  636TIP3   OH2 1913   0.248   4.105   2.037 -0.0037 -0.3015 -0.0592
  636TIP3    H1 1914   0.182   4.174   2.048 -0.2121 -0.4257 -0.4800
  636TIP3    H2 1915   0.296   4.131   1.959 -0.1276 -0.6631 -0.2595
  637TIP3   OH2 1916   1.033   5.796   1.491 -0.2929 -0.2322 -0.1614
  637TIP3    H1 1917   1.050   5.802   1.397  1.0135  0.3558  0.0888
  637TIP3    H2 1918   1.116   5.820   1.532 -0.2341 -2.4068  1.1376
  638TIP3   OH2 1919   0.903   3.040   2.660 -0.6003  0.3269  0.1948
  638TIP3    H1 1920   0.866   3.129   2.663  0.8555  1.0014 -0.8302
  638TIP3    H2 1921   0.996   3.052   2.677  0.4459 -0.4157 -3.9001
  639TIP3   OH2 1922   3.409   2.889   4.999  0.0127 -0.4550  0.6669
  639TIP3    H1 1923   3.415   2.979   5.032 -0.7809 -0.3748  0.6302
  639TIP3    H2 1924   3.336   2.893   4.937  0.2476 -1.0343  0.3522
  640TIP3   OH2 1925   1.012   3.091   4.831  0.0957  0.0425  0.4709
  640TIP3    H1 1926   0.922   3.117   4.846  0.0040  0.9194 -1.3879
  640TIP3    H2 1927   1.061   3.173   4.828  0.6921 -0.3262 -0.0760
  641TIP3   OH2 1928   0.593   2.213   2.340  0.1794 -0.4927 -0.8620
  641TIP3    H1 1929   0.587   2.213   2.245  0.3638  1.2176 -0.9134
  641TIP3    H2 1930   0.503   2.199   2.370 -0.0611  0.0423 -1.3137
  642TIP3   OH2 1931   0.047   1.089   3.533 -0.2423  0.4988  0.3017
  642TIP3    H1 1932  -0.039   1.117   3.565 -0.5796 -1.3040  1.0469
  642TIP3    H2 1933   0.071   1.015   3.588  0.5286 -0.8069 -1.6978
  643TIP3   OH2 1934   4.547   3.359   3.937  0.3291 -0.2346  0.2060
  643TIP3    H1 1935   4.570   3.295   4.004  2.3175  0.1602 -0.0278
  643TIP3    H2 1936   4.534   3.441   3.984  0.3245 -0.2605  0.2496
  644TIP3   OH2 1937   1.983   1.572   4.281  0.3810 -0.3362  0.0167
  644TIP3    H1 1938   1.920   1.601   4.215 -0.6441  0.4871  1.3292
  644TIP3    H2 1939   2.068   1.598   4.245 -0.2378  1.1159 -0.4816
  645TIP3   OH2 1940   1.750   2.563   2.679 -0.1607 -0.7681  0.3088
  645TIP3    H1 1941   1.795   2.645   2.660  0.6717 -1.0725  0.8930
  645TIP3    H2 1942   1.820   2.499   2.690 -0.8364 -1.9777 -1.9200
  646TIP3   OH2 1943   5.262   4.903   1.389 -0.2955  0.0023 -0.6846
  646TIP3    H1 1944   5.300   4.883   1.303 -1.8229 -1.7969 -1.0260
  646TIP3    H2 1945   5.167   4.897   1.374 -0.5961  0.1099  1.0273
  647TIP3   OH2 1946   4.478   5.227   2.011 -0.4241  0.6402  0.2698
  647TIP3    H1 1947   4.572   5.212   2.025 -0.5481 -1.2483 -0.6864
  647TIP3    H2 1948   4.464   5.209   1.918 -1.6403  1.5237  0.2613
  648TIP3   OH2 1949   3.300   2.409   3.659  0.4550 -0.4424  0.6028
  648TIP3    H1 1950   3.341   2.400   3.573 -0.4082  3.0036 -0.3000
  648TIP3    H2 1951   3.213   2.370   3.648 -0.1271  1.0874 -0.5298
  649TIP3   OH2 1952   1.441   4.670   3.201 -0.0394  0.3300 -0.6174
  649TIP3    H1 1953   1.373   4.604   3.184 -0.1139  0.0678  0.5919
  649TIP3    H2 1954   1.466   4.701   3.115 -0.5765 -0.7143 -1.1731
  650TIP3   OH2 1955   5.653   5.740   1.720 -0.0371 -0.1722  0.8548
  650TIP3    H1 1956   5.673   5.824   1.762 -2.1440 -0.0379  1.6947
  650TIP3    H2 1957   5.592   5.761   1.651 -1.0896 -1.0558  1.4773
  651TIP3   OH2 1958   5.321   2.705   2.521 -0.6936 -0.1979  0.0779
  651TIP3    H1 1959   5.252   2.771   2.524 -0.1094  0.3919  0.6075
  651TIP3    H2 1960   5.313   2.667   2.433 -0.8253  0.8009 -0.3555
  652TIP3   OH2 1961   5.245   5.779   5.074 -0.3086  0.2446  0.3387
  652TIP3    H1 1962   5.154   5.756   5.054 -1.1401  0.5684  3.2534
  652TIP3    H2 1963   5.290   5.695   5.081 -0.7801  0.0055  0.5431
  653TIP3   OH2 1964   6.366   1.647   1.064  0.2862 -0.2338 -0.1459
  653TIP3    H1 1965   6.277   1.636   1.097  1.0940  1.8868  3.2357
  653TIP3    H2 1966   6.372   1.740   1.042  1.5070 -0.4791 -0.9310
  654TIP3   OH2 1967   1.821   2.176   3.738  0.4816 -0.1172 -0.2435
  654TIP3    H1 1968   1.833   2.128   3.657 -0.4306  1.5055 -1.3928
  654TIP3    H2 1969   1.735   2.218   3.729  0.7379  0.8001  1.1878
  655TIP3   OH2 1970   6.126   1.108   0.275  0.4114  0.2694  0.4044
  655TIP3    H1 1971   6.119   1.018   0.305  1.0129  0.3144  0.6954
  655TIP3    H2 1972   6.176   1.153   0.343  0.3571  0.7601  0.1324
  656TIP3   OH2 1973   2.953   0.169   4.192 -0.4652  0.2938 -0.8378
  656TIP3    H1 1974   2.951   0.261   4.163  2.5358  0.6723 -0.1571
  656TIP3    H2 1975   2.961   0.174   4.287 -2.7374 -0.7971 -0.5216
  657TIP3   OH2 1976   0.756   0.334   4.081  0.4385  0.2025 -0.1921
  657TIP3    H1 1977   0.763   0.279   4.159  0.0673 -1.2856 -1.1739
  657TIP3    H2 1978   0.838   0.384   4.081  0.5587  0.0474  0.9987
  658TIP3   OH2 1979   3.085   2.821   0.171 -0.1895 -0.2903 -0.5362
  658TIP3    H1 1980   3.136   2.833   0.091 -0.3028  2.8246 -0.2489
  658TIP3    H2 1981   2.994   2.815   0.142 -0.1793  0.3038 -0.7111
  659TIP3   OH2 1982   2.679   2.594   4.399  0.9502 -0.1222 -0.2439
  659TIP3    H1 1983   2.755   2.652   4.404 -0.0976  1.2641  0.7781
  659TIP3    H2 1984   2.681   2.544   4.481  0.3452  0.5175  0.1778
  660TIP3   OH2 1985   4.202   1.237   3.662 -0.2428  0.1117  0.1769
  660TIP3    H1 1986   4.211   1.142   3.656  0.7550  0.0693  1.8602
  660TIP3    H2 1987   4.117   1.251   3.703 -0.8211  0.0125 -0.9302
  661TIP3   OH2 1988   3.550   2.004   4.604 -0.2561  0.2785  0.1767
  661TIP3    H1 1989   3.610   2.015   4.678  1.3787  0.1342 -1.0883
  661TIP3    H2 1990   3.572   2.075   4.544 -0.4705 -0.5504 -0.9040
  662TIP3   OH2 1991   4.440   1.832   3.416 -0.0419 -0.3399 -0.3833
  662TIP3    H1 1992   4.391   1.757   3.383  1.7094 -1.3280 -0.8428
  662TIP3    H2 1993   4.448   1.816   3.510  2.2651 -1.9976 -0.7722
  663TIP3   OH2 1994   1.215   2.826   1.743 -0.0627 -0.1115 -0.5038
  663TIP3    H1 1995   1.280   2.759   1.764  1.1107  0.2336 -2.7276
  663TIP3    H2 1996   1.220   2.889   1.815  0.1799 -1.4069  0.6415
  664TIP3   OH2 1997   5.986   0.202   3.624 -0.6484 -0.3664 -0.0137
  664TIP3    H1 1998   6.053   0.266   3.600 -1.7732  1.2823  0.9993
  664TIP3    H2 1999   6.029   0.117   3.615  1.2296  0.5698 -0.3939
  665TIP3   OH2 2000   0.279   3.323   0.664  0.1251  0.3698  0.2872
  665TIP3    H1 2001   0.268   3.287   0.576 -0.3835  1.4152 -0.0996
  665TIP3    H2 2002   0.358   3.281   0.698 -0.6764 -1.3941  0.0398
  666TIP3   OH2 2003   4.438   4.253   2.920 -0.1732 -0.2455 -0.2995
  666TIP3    H1 2004   4.520   4.204   2.920  0.5016  0.8041 -1.8022
  666TIP3    H2 2005   4.447   4.316   2.992  0.8576  0.6446 -1.1803
  667TIP3   OH2 2006   3.819   1.034   2.923  0.0434 -0.6443  0.3193
  667TIP3    H1 2007   3.729   1.014   2.945  0.0308 -1.2073 -0.2409
  667TIP3    H2 2008   3.814   1.091   2.846  0.1735 -1.0018  0.0423
  668TIP3   OH2 2009   3.808   3.740   2.690 -0.1867  0.0159 -0.0604
  668TIP3    H1 2010   3.717   3.742   2.720  0.2212  1.6253  1.1859
  668TIP3    H2 2011   3.833   3.832   2.682  1.3482 -0.3939 -0.3181
  669TIP3   OH2 2012   3.619   2.693   4.517 -0.4185 -0.2164  0.4170
  669TIP3    H1 2013   3.586   2.650   4.596 -0.4902  0.4719  0.7665
  669TIP3    H2 2014   3.588   2.638   4.445 -1.7926  0.0645  0.7727
  670TIP3   OH2 2015   5.434   2.205   0.782 -0.4645 -0.3024 -0.1030
  670TIP3    H1 2016   5.354   2.182   0.829 -0.8468 -1.9158 -1.4744
  670TIP3    H2 2017   5.488   2.249   0.847 -2.1916  0.2432  1.0253
  671TIP3   OH2 2018   1.760   4.475   5.056  0.3491 -0.5518 -0.5102
  671TIP3    H1 2019   1.815   4.397   5.065 -0.0345 -0.7766 -0.0772
  671TIP3    H2 2020   1.711   4.460   4.975 -0.3415 -1.1559  0.0091
  672TIP3   OH2 2021   2.324   2.106   0.436  0.9566  0.2441 -0.2499
  672TIP3    H1 2022   2.354   2.056   0.511  0.9643  0.0944 -0.3528
  672TIP3    H2 2023   2.264   2.047   0.389  0.3701  0.5960  0.0416
  673TIP3   OH2 2024   5.923   3.928   5.123 -0.6605 -0.6626  0.3495
  673TIP3    H1 2025   5.936   3.851   5.178  1.0721 -0.3701  0.3857
  673TIP3    H2 2026   5.842   3.909   5.074  0.2719 -2.9861 -0.4159
  674TIP3   OH2 2027   1.951   0.735   4.831  0.0488  0.3901  0.3724
  674TIP3    H1 2028   1.950   0.830   4.832  0.3652  0.4010 -0.1566
  674TIP3    H2 2029   2.032   0.712   4.785 -0.1800 -0.1252  0.2169
  675TIP3   OH2 2030   0.917   4.150   1.159 -0.2473  0.0328 -0.0190
  675TIP3    H1 2031   0.881   4.183   1.077 -1.2222  0.2355  0.4754
  675TIP3    H2 2032   1.000   4.197   1.169 -1.0737  1.5302  0.1158
  676TIP3   OH2 2033   5.284   4.048   0.144  0.1641  0.4245 -0.3482
  676TIP3    H1 2034   5.378   4.066   0.143  0.1075  0.7923  0.4632
  676TIP3    H2 2035   5.255   4.064   0.054  1.0670 -0.7471 -0.8737
  677TIP3   OH2 2036   4.526   5.720   0.267 -0.0794 -0.2513 -0.1716
  677TIP3    H1 2037   4.433   5.741   0.275 -0.2944 -0.8855 -0.9166
  677TIP3    H2 2038   4.545   5.668   0.346 -0.0792  0.8064  0.5360
  678TIP3   OH2 2039   5.106   0.967   0.378 -0.3910 -0.3821 -0.3007
  678TIP3    H1 2040   5.084   0.898   0.441  0.7756 -0.8873 -0.4225
  678TIP3    H2 2041   5.021   0.994   0.342 -0.9151 -1.3931  0.1242
  679TIP3   OH2 2042   1.375   3.679   4.880  0.3990 -0.4664  0.1133
  679TIP3    H1 2043   1.308   3.738   4.845 -0.1027 -1.4911 -0.7236
  679TIP3    H2 2044   1.416   3.728   4.952 -2.7223 -0.5685  2.1673
  680TIP3   OH2 2045   2.838   1.471   0.483  0.6293 -0.0729  0.0445
  680TIP3    H1 2046   2.743   1.472   0.472  0.2192  0.6179  2.7899
  680TIP3    H2 2047   2.853   1.412   0.556  2.3181 -0.1409 -0.3212
  681TIP3   OH2 2048   5.874   3.216   1.013  0.2280 -0.2721  0.2419
  681TIP3    H1 2049   5.858   3.290   1.071  0.0918 -0.9284  1.0534
  681TIP3    H2 2050   5.808   3.152   1.036 -0.0620 -0.4111 -0.8945
  682TIP3   OH2 2051   2.139   1.127   1.806 -0.4367  0.2073 -0.9188
  682TIP3    H1 2052   2.091   1.131   1.888  0.2627  1.0435 -0.5353
  682TIP3    H2 2053   2.088   1.180   1.745 -1.1742 -0.7506 -1.1566
  683TIP3   OH2 2054   6.161   4.414   3.456  0.1156  0.1680 -0.5735
  683TIP3    H1 2055   6.240   4.469   3.461 -0.5104  1.0377  0.1722
  683TIP3    H2 2056   6.139   4.396   3.547 -0.7119  0.1802 -0.7620
  684TIP3   OH2 2057   6.313   2.678   0.774  0.4606 -0.2365 -0.1067
  684TIP3    H1 2058   6.272   2.764   0.774 -0.1344 -0.5145  0.2637
  684TIP3    H2 2059   6.390   2.689   0.718  0.3135  0.4942 -0.1839
  685TIP3   OH2 2060   3.464   0.318   4.754 -0.0202  0.1030  0.6333
  685TIP3    H1 2061   3.523   0.300   4.828  1.6958 -2.0675 -1.1008
  685TIP3    H2 2062   3.518   0.365   4.691 -1.0843  0.8177  0.2279
  686TIP3   OH2 2063   1.436   5.165   2.196 -0.1165 -0.2116  0.2141
  686TIP3    H1 2064   1.488   5.194   2.121  0.8888 -1.4119  0.4101
  686TIP3    H2 2065   1.373   5.103   2.159  0.2618 -0.6676  0.3220
  687TIP3   OH2 2066   6.076   0.621   4.758 -0.1084  0.4284  0.1365
  687TIP3    H1 2067   6.085   0.537   4.803  0.0144 -1.1694 -2.6293
  687TIP3    H2 2068   6.151   0.624   4.698 -2.1388  0.6612 -2.5329
  688TIP3   OH2 2069   4.647   0.354   0.347 -0.4806  0.1933  0.6041
  688TIP3    H1 2070   4.735   0.374   0.378 -0.4097 -0.1355  0.6094
  688TIP3    H2 2071   4.629   0.266   0.378 -0.2990 -0.2614 -0.5298
  689TIP3   OH2 2072   4.576   5.962   2.802  0.8118  0.3965  0.5644
  689TIP3    H1 2073   4.598   6.006   2.720  2.5163 -0.8524  0.2911
  689TIP3    H2 2074   4.521   5.889   2.775  0.7753  0.4056  0.6154
  690TIP3   OH2 2075   5.462   5.684   4.678 -0.4700  0.0459  0.3446
  690TIP3    H1 2076   5.523   5.734   4.733 -0.8562  1.0299 -0.1019
  690TIP3    H2 2077   5.478   5.592   4.702  0.7748  0.3242  0.6563
  691TIP3   OH2 2078   3.190   5.753   3.728  0.1884 -0.0258  0.1936
  691TIP3    H1 2079   3.240   5.672   3.732 -1.2988 -0.9339  2.5149
  691TIP3    H2 2080   3.104   5.726   3.696  0.0308  0.8681 -0.1818
  692TIP3   OH2 2081   4.172   0.684   4.009  0.4177 -0.3377 -0.1956
  692TIP3    H1 2082   4.118   0.672   4.087 -1.0587 -1.1126 -1.2798
  692TIP3    H2 2083   4.167   0.600   3.964 -0.2179  0.6235 -2.0023
  693TIP3   OH2 2084   5.999   2.643   0.401  0.8626  0.1081  0.0840
  693TIP3    H1 2085   5.982   2.623   0.309  1.1137 -1.6689  0.4037
  693TIP3    H2 2086   5.914   2.633   0.444  0.6014  1.5711 -0.0193
  694TIP3   OH2 2087   3.819   4.029   3.960  0.2482  0.5096 -0.3326
  694TIP3    H1 2088   3.894   4.087   3.972 -1.2466  2.8629 -1.5809
  694TIP3    H2 2089   3.753   4.063   4.021 -0.4754 -0.2610 -0.6746
  695TIP3   OH2 2090   3.094   5.425   2.671 -0.8208 -0.5182  0.0279
  695TIP3    H1 2091   3.020   5.438   2.612 -0.0797 -1.4053 -1.1358
  695TIP3    H2 2092   3.090   5.333   2.696  1.5963 -1.4441 -2.5325
  696TIP3   OH2 2093   2.466   1.740   4.479 -0.0140  0.5933  0.5736
  696TIP3    H1 2094   2.377   1.774   4.483 -0.0570  0.4382  1.0905
  696TIP3    H2 2095   2.456   1.645   4.490 -0.0367  0.1329 -2.5262
  697TIP3   OH2 2096   4.628   5.361   1.020  0.1880  0.2214 -0.2655
  697TIP3    H1 2097   4.683   5.434   0.992 -0.6804  1.7785  1.8510
  697TIP3    H2 2098   4.689   5.287   1.029  1.5788  1.3590  0.0304
  698TIP3   OH2 2099   0.493   5.668   0.609 -0.3187  0.3472 -0.4011
  698TIP3    H1 2100   0.587   5.673   0.588 -0.2518 -0.7439 -0.4282
  698TIP3    H2 2101   0.491   5.627   0.695 -0.6170  4.0216  1.5698
  699TIP3   OH2 2102   2.875   5.477   5.089  0.0650 -0.2527 -0.1202
  699TIP3    H1 2103   2.943   5.515   5.033  0.1327 -1.5601 -0.9854
  699TIP3    H2 2104   2.900   5.385   5.097 -0.8811 -0.4553  0.6689
  700TIP3   OH2 2105   3.069   1.446   3.265  0.2363  0.2177 -0.1618
  700TIP3    H1 2106   2.986   1.458   3.311  0.3309  0.9062 -0.1650
  700TIP3    H2 2107   3.048   1.385   3.194  0.0848 -0.8471  0.7620
  701TIP3   OH2 2108   2.779   1.272   3.842 -0.6100  0.3302 -0.0734
  701TIP3    H1 2109   2.844   1.232   3.899  0.3930 -1.2432 -2.1745
  701TIP3    H2 2110   2.831   1.322   3.778 -1.5881  0.6930 -0.6036
  702TIP3   OH2 2111   1.441   1.430   4.665 -0.0282  0.4181 -0.0925
  702TIP3    H1 2112   1.467   1.344   4.696 -1.3116  0.2593  0.6311
  702TIP3    H2 2113   1.468   1.490   4.735  0.4249  0.5424 -0.3723
  703TIP3   OH2 2114   3.076   4.241   0.272  0.4786 -0.4793  0.1064
  703TIP3    H1 2115   3.112   4.320   0.232 -0.3895 -0.4012 -0.5640
  703TIP3    H2 2116   3.005   4.273   0.327  0.8327 -0.7062  0.7013
  704TIP3   OH2 2117   0.377   4.049   1.779  0.5495  0.1850  0.0107
  704TIP3    H1 2118   0.353   4.016   1.692 -0.5271 -0.5683  0.5613
  704TIP3    H2 2119   0.393   4.142   1.765  2.2307 -0.2412 -1.3225
  705TIP3   OH2 2120   5.787   0.622   4.672 -0.4383 -0.3759 -0.5198
  705TIP3    H1 2121   5.881   0.611   4.658 -0.6191 -2.3888 -0.4305
  705TIP3    H2 2122   5.760   0.543   4.719 -1.5110  1.8984  3.1165
  706TIP3   OH2 2123   1.546   1.941   1.283 -0.0107  0.1747  0.1281
  706TIP3    H1 2124   1.575   2.031   1.301  1.6487 -0.3599  0.2120
  706TIP3    H2 2125   1.460   1.935   1.326  0.0775  1.5599  0.5443
  707TIP3   OH2 2126   0.116   0.902   1.903  0.0933  0.1660 -0.1112
  707TIP3    H1 2127   0.074   0.947   1.830 -1.7798  0.3665  1.0203
  707TIP3    H2 2128   0.191   0.957   1.925 -1.9373  2.6724  1.0282
  708TIP3   OH2 2129   3.684   3.601   1.360  0.0556  0.1744  0.4580
  708TIP3    H1 2130   3.705   3.650   1.280 -0.9816  0.6347  0.4545
  708TIP3    H2 2131   3.627   3.659   1.409  0.8991  0.0022  1.6800
  709TIP3   OH2 2132   0.953   0.670   3.701 -0.5694 -0.5831 -0.1401
  709TIP3    H1 2133   0.979   0.717   3.622  0.6118 -0.9073  0.0238
  709TIP3    H2 2134   0.873   0.624   3.678 -0.3281 -0.5355 -1.1031
  710TIP3   OH2 2135   2.136   2.806   4.077 -0.2361  0.7169  0.3071
  710TIP3    H1 2136   2.214   2.822   4.023 -0.6501 -1.5479 -1.1198
  710TIP3    H2 2137   2.064   2.846   4.028 -0.2741  0.8294  0.4555
  711TIP3   OH2 2138   5.314   5.011   4.547 -0.4227 -0.1688  0.2521
  711TIP3    H1 2139   5.252   5.024   4.475 -0.7178  0.0278  0.5416
  711TIP3    H2 2140   5.390   4.968   4.506 -0.5866 -0.0510 -0.1749
  712TIP3   OH2 2141   3.840   3.020   2.143 -0.1029  0.4018 -0.3335
  712TIP3    H1 2142   3.762   2.999   2.091 -1.7981  0.4722  2.0041
  712TIP3    H2 2143   3.835   2.961   2.219  1.0101  1.7885  0.8780
  713TIP3   OH2 2144   0.756   5.277   1.490  0.6653 -0.1316 -0.0009
  713TIP3    H1 2145   0.667   5.241   1.494  0.3369  0.2949 -2.2753
  713TIP3    H2 2146   0.744   5.372   1.500  0.7946 -0.0242 -0.8078
  714TIP3   OH2 2147   5.889   4.940   2.300 -0.6040 -0.2226  0.2159
  714TIP3    H1 2148   5.852   4.884   2.231 -0.8238  0.3858 -0.1713
  714TIP3    H2 2149   5.974   4.901   2.320 -0.8750 -0.8588  0.1566
  715TIP3   OH2 2150   3.880   4.083   4.426 -0.2669  0.0895  0.4072
  715TIP3    H1 2151   3.830   4.145   4.373 -0.0747 -0.8357 -0.9239
  715TIP3    H2 2152   3.888   4.005   4.370  0.3558 -0.7650  1.6296
  716TIP3   OH2 2153   1.712   5.201   1.715  0.1040  0.5717  0.2215
  716TIP3    H1 2154   1.795   5.168   1.680  0.8146  1.9196  0.5781
  716TIP3    H2 2155   1.645   5.160   1.660  0.9469 -1.0774  0.3460
  717TIP3   OH2 2156   0.767   1.124   0.291  0.3445  0.2865  0.3541
  717TIP3    H1 2157   0.814   1.207   0.293  1.0198 -0.0850  0.1342
  717TIP3    H2 2158   0.791   1.080   0.372  0.2109  0.1825  0.3387
  718TIP3   OH2 2159   4.162   3.203   2.657 -0.5151 -0.4450  0.1175
  718TIP3    H1 2160   4.149   3.120   2.703  0.4316  0.4336  2.0795
  718TIP3    H2 2161   4.187   3.178   2.569 -1.2652 -2.2235  0.3631
  719TIP3   OH2 2162   5.101   4.682   2.473  0.0568  0.1639  0.0103
  719TIP3    H1 2163   5.186   4.671   2.432 -0.6008  0.0657 -1.3891
  719TIP3    H2 2164   5.115   4.658   2.565  1.7018  0.9444  0.0061
  720TIP3   OH2 2165   0.326   3.201   0.414  0.8400  1.3066 -0.3724
  720TIP3    H1 2166   0.343   3.108   0.401  0.9793  1.2612  0.1051
  720TIP3    H2 2167   0.361   3.243   0.336 -0.0734  0.8750 -1.0369
  721TIP3   OH2 2168   4.682   2.872   0.638  0.6393 -0.1204  0.4645
  721TIP3    H1 2169   4.605   2.920   0.607 -0.5538  0.1357  3.4984
  721TIP3    H2 2170   4.648   2.785   0.662  1.1895  0.0911  2.0967
  722TIP3   OH2 2171   4.370   0.226   2.355  0.3745 -0.0193  0.1919
  722TIP3    H1 2172   4.449   0.261   2.396 -0.4718  0.2183  1.6693
  722TIP3    H2 2173   4.331   0.168   2.420  0.7301 -2.3146 -1.5221
  723TIP3   OH2 2174   1.775   0.695   3.122 -0.2816 -0.2255 -0.0561
  723TIP3    H1 2175   1.725   0.628   3.076 -0.9488  0.3687 -0.2192
  723TIP3    H2 2176   1.865   0.662   3.123 -0.3632 -0.5148 -1.2628
  724TIP3   OH2 2177   5.445   4.116   1.106 -0.3023  0.2972 -0.0702
  724TIP3    H1 2178   5.463   4.025   1.085 -0.2994  0.4065 -0.5384
  724TIP3    H2 2179   5.492   4.166   1.040 -0.3935  0.6388  0.1194
  725TIP3   OH2 2180   5.839   1.375   5.153  0.3306  0.0631 -0.6337
  725TIP3    H1 2181   5.862   1.348   5.064  1.2768  1.5529 -0.8795
  725TIP3    H2 2182   5.797   1.460   5.142  0.9058  0.4979  0.3638
  726TIP3   OH2 2183   5.577   1.490   0.743 -0.4631 -0.2100  0.7340
  726TIP3    H1 2184   5.596   1.568   0.795  1.4320  0.6416 -1.0972
  726TIP3    H2 2185   5.502   1.515   0.689  0.1171  0.3583  0.1770
  727TIP3   OH2 2186   2.315   2.738   1.551 -0.6397  0.0462 -0.7071
  727TIP3    H1 2187   2.398   2.755   1.506 -1.5618  0.4839 -2.2935
  727TIP3    H2 2188   2.298   2.818   1.601  1.5652 -1.2670  2.5223
  728TIP3   OH2 2189   6.347   3.409   3.887  0.6939 -0.0856 -0.8544
  728TIP3    H1 2190   6.323   3.345   3.954  1.3045  1.4321  0.8927
  728TIP3    H2 2191   6.278   3.474   3.890  1.1521  0.4210 -1.1181
  729TIP3   OH2 2192   4.988   5.448   3.152 -0.4924 -0.0836  0.4083
  729TIP3    H1 2193   5.077   5.417   3.137  0.3441  2.3517 -0.1122
  729TIP3    H2 2194   4.963   5.489   3.069 -1.5330  0.5560  1.0263
  730TIP3   OH2 2195   2.592   2.776   2.117 -0.3606 -0.2136  0.5939
  730TIP3    H1 2196   2.539   2.728   2.053  0.0552 -0.6532  0.5706
  730TIP3    H2 2197   2.649   2.832   2.065 -1.5543  1.0758  0.6518
  731TIP3   OH2 2198   5.576   4.071   2.076 -0.4745  0.6752  0.2494
  731TIP3    H1 2199   5.524   3.993   2.057  0.9076  0.0221 -1.0607
  731TIP3    H2 2200   5.516   4.144   2.061 -1.8781 -0.0943  1.7777
  732TIP3   OH2 2201   3.545   0.385   1.738  0.5470  0.3369  0.2455
  732TIP3    H1 2202   3.626   0.435   1.727  2.0903 -2.0846 -0.1151
  732TIP3    H2 2203   3.502   0.388   1.652  0.5305  1.1362  0.2767
  733TIP3   OH2 2204   2.607   5.078   2.092 -0.1985  0.6338 -0.2715
  733TIP3    H1 2205   2.521   5.108   2.120 -0.1765 -0.4428  1.0241
  733TIP3    H2 2206   2.617   4.991   2.131  0.3275 -0.4900 -2.6973
  734TIP3   OH2 2207   5.918   4.186   5.030  0.0616  0.0555  0.7401
  734TIP3    H1 2208   5.880   4.171   5.116 -0.2895 -0.5875  0.4820
  734TIP3    H2 2209   5.987   4.121   5.022 -0.2988 -0.2861  0.3095
  735TIP3   OH2 2210   3.532   2.657   4.038  0.2265 -0.5629  0.7066
  735TIP3    H1 2211   3.463   2.688   3.979 -0.5300 -2.3728  0.5595
  735TIP3    H2 2212   3.488   2.646   4.122  1.7246  3.9718  2.3876
  736TIP3   OH2 2213   2.470   0.870   4.176 -0.2301 -0.4191  0.0720
  736TIP3    H1 2214   2.494   0.840   4.264  1.0144 -0.8372 -0.3825
  736TIP3    H2 2215   2.550   0.911   4.142 -1.3969  1.9565  0.0346
  737TIP3   OH2 2216   4.455   4.953   4.674  0.2873 -0.2614 -0.7535
  737TIP3    H1 2217   4.528   4.924   4.728  2.0799  2.0192 -1.7757
  737TIP3    H2 2218   4.400   5.004   4.734 -0.1082 -1.3358 -0.1641
  738TIP3   OH2 2219   4.052   2.205   3.309 -0.3039  0.4351  0.5506
  738TIP3    H1 2220   4.047   2.290   3.265 -1.0758  1.2838  2.1999
  738TIP3    H2 2221   3.965   2.192   3.347  0.1220 -0.5913  1.2246
  739TIP3   OH2 2222   2.768   5.290   4.118  0.5487 -0.3880 -0.0029
  739TIP3    H1 2223   2.797   5.370   4.162  1.6519 -0.7055 -0.1175
  739TIP3    H2 2224   2.835   5.225   4.141 -0.4183 -1.3268  0.2228
  740TIP3   OH2 2225   4.337   0.681   3.595 -0.5667  0.0402  0.5527
  740TIP3    H1 2226   4.373   0.732   3.522 -0.3727 -2.4785 -1.2689
  740TIP3    H2 2227   4.242   0.688   3.584 -0.5403 -0.7172 -0.2851
  741TIP3   OH2 2228   0.540   4.155   5.050  0.1945 -0.0675  0.1187
  741TIP3    H1 2229   0.493   4.154   4.966  1.5626  0.0091 -0.6626
  741TIP3    H2 2230   0.585   4.071   5.054  0.1468 -0.0705  0.7891
  742TIP3   OH2 2231   0.693   5.324   4.385 -0.6265  0.3417  0.1638
  742TIP3    H1 2232   0.755   5.372   4.441  0.2080  0.3645 -0.7610
  742TIP3    H2 2233   0.737   5.316   4.301 -1.4690 -0.5437 -0.2182
  743TIP3   OH2 2234   2.526   4.089   1.755 -0.5834 -0.0867 -0.2573
  743TIP3    H1 2235   2.555   4.097   1.664 -1.6024  1.4985 -0.4616
  743TIP3    H2 2236   2.436   4.057   1.749 -0.4990 -0.4355  0.2315
  744TIP3   OH2 2237   0.850   2.571   2.370  0.4530  0.1330 -0.4052
  744TIP3    H1 2238   0.939   2.561   2.405 -0.4689 -0.4288  1.9757
  744TIP3    H2 2239   0.820   2.655   2.405 -0.6492 -0.6369  0.5461
  745TIP3   OH2 2240   3.004   5.107   2.294 -0.3599 -0.5052  0.1728
  745TIP3    H1 2241   2.991   5.186   2.242 -0.8349 -0.8572 -0.2499
  745TIP3    H2 2242   3.060   5.051   2.240 -1.3386 -1.1151 -0.2245
  746TIP3   OH2 2243   5.063   0.944   2.529  0.1255 -0.1301 -0.0189
  746TIP3    H1 2244   5.026   1.014   2.583 -0.2472 -1.4717  1.5489
  746TIP3    H2 2245   5.153   0.973   2.512  0.0428  0.6538  0.7492
  747TIP3   OH2 2246   6.166   2.700   0.138 -0.0120 -0.0901  0.3907
  747TIP3    H1 2247   6.237   2.640   0.160 -1.3399 -1.9457 -0.1687
  747TIP3    H2 2248   6.168   2.766   0.208  2.8267  0.5110 -0.1181
  748TIP3   OH2 2249   5.377   0.767   2.668 -0.0160 -0.7924  0.4561
  748TIP3    H1 2250   5.434   0.694   2.644 -0.3572  0.1432 -4.0437
  748TIP3    H2 2251   5.427   0.846   2.646 -0.9533  0.2657  1.9072
  749TIP3   OH2 2252   4.772   0.194   4.621  1.2008 -0.1279 -0.3006
  749TIP3    H1 2253   4.860   0.156   4.623  1.6316  0.8532  0.2093
  749TIP3    H2 2254   4.785   0.284   4.650  0.1071  0.2064 -0.8368
  750TIP3   OH2 2255   0.606   3.402   1.593 -0.0750 -0.2713  0.3030
  750TIP3    H1 2256   0.555   3.365   1.520  1.4082  0.6118 -1.2610
  750TIP3    H2 2257   0.575   3.492   1.600  0.9359  0.1408 -0.3723
  751TIP3   OH2 2258   1.850   1.405   4.748  0.2690  0.4138 -0.1263
  751TIP3    H1 2259   1.862   1.495   4.716 -1.1175  0.4002 -0.7686
  751TIP3    H2 2260   1.810   1.359   4.674  0.5899 -0.6309  0.3447
  752TIP3   OH2 2261   5.364   0.854   2.922  0.0232 -0.2276 -0.3011
  752TIP3    H1 2262   5.366   0.809   2.838  0.5027  0.5611 -0.7292
  752TIP3    H2 2263   5.357   0.947   2.899 -0.0940 -0.0226  0.5330
  753TIP3   OH2 2264   1.862   3.795   3.304 -0.2997 -0.1564 -0.4869
  753TIP3    H1 2265   1.775   3.814   3.270  0.2034 -0.0902 -1.7769
  753TIP3    H2 2266   1.885   3.711   3.264  0.2508 -0.1445 -0.1980
  754TIP3   OH2 2267   0.614   5.586   1.774 -0.1404 -0.1882  0.0475
  754TIP3    H1 2268   0.659   5.651   1.830  0.0216 -0.6998  0.5183
  754TIP3    H2 2269   0.657   5.595   1.689 -1.5572  1.8283 -0.5334
  755TIP3   OH2 2270   0.618   1.465   3.975 -0.9923  0.2471 -0.3382
  755TIP3    H1 2271   0.695   1.408   3.987 -1.7365 -0.4369  1.5561
  755TIP3    H2 2272   0.656   1.550   3.954  0.4613  0.4021  2.4044
  756TIP3   OH2 2273   2.086   1.702   0.864 -0.1049  0.2420  0.4663
  756TIP3    H1 2274   2.016   1.756   0.900 -1.1221  0.7184 -2.0016
  756TIP3    H2 2275   2.041   1.633   0.815  1.1826 -1.0890  1.0608
  757TIP3   OH2 2276   2.364   0.680   1.790  0.6338 -0.0221 -0.3044
  757TIP3    H1 2277   2.346   0.732   1.712 -0.1028  0.7781  0.3741
  757TIP3    H2 2278   2.360   0.743   1.863  0.2488 -0.9223  0.4792
  758TIP3   OH2 2279   5.832   0.647   0.741 -0.1993 -0.0223  0.0258
  758TIP3    H1 2280   5.813   0.711   0.810  0.3546  0.7693 -0.5376
  758TIP3    H2 2281   5.824   0.697   0.659 -1.0645 -0.9985 -0.5064
  759TIP3   OH2 2282   2.829   1.982   2.649  0.1437 -0.6442  0.1904
  759TIP3    H1 2283   2.800   1.942   2.732 -1.6074 -0.4236 -0.2678
  759TIP3    H2 2284   2.796   1.923   2.582  1.4137 -0.7303 -0.3749
  760TIP3   OH2 2285   3.633   0.506   0.152  0.1585  0.4741  0.6869
  760TIP3    H1 2286   3.691   0.435   0.178 -1.1479 -1.3156 -0.9784
  760TIP3    H2 2287   3.553   0.491   0.203 -0.2589  0.5207  0.0512
  761TIP3   OH2 2288   1.380   4.739   3.699  0.0977  0.1608  0.4945
  761TIP3    H1 2289   1.423   4.669   3.649 -0.4022  0.6482 -0.6351
  761TIP3    H2 2290   1.295   4.702   3.723 -0.4140  0.5686 -0.6205
  762TIP3   OH2 2291   2.981   1.439   1.912  0.4594 -0.1159  0.4349
  762TIP3    H1 2292   2.996   1.525   1.873 -2.1547 -0.2044 -0.9824
  762TIP3    H2 2293   2.887   1.426   1.906  0.8618 -3.5384 -0.3823
  763TIP3   OH2 2294   1.183   5.509   0.576 -0.1040  0.3855 -0.4996
  763TIP3    H1 2295   1.126   5.477   0.506 -0.2060 -1.0650  0.2145
  763TIP3    H2 2296   1.162   5.602   0.584 -2.6756 -0.1763  0.0020
  764TIP3   OH2 2297   1.877   2.315   0.369  0.6287 -0.3824  0.5404
  764TIP3    H1 2298   1.914   2.293   0.284 -1.8539  0.3777 -0.8322
  764TIP3    H2 2299   1.953   2.337   0.424  2.2969 -1.0450 -1.3948
  765TIP3   OH2 2300   3.608   3.808   1.951  0.0558 -0.2238 -0.3500
  765TIP3    H1 2301   3.620   3.733   1.892  0.9281 -0.8432  0.5846
  765TIP3    H2 2302   3.686   3.807   2.006 -0.5608  0.5779  0.5561
  766TIP3   OH2 2303   4.059   3.055   1.646  0.6774  0.5088  0.2541
  766TIP3    H1 2304   3.987   3.107   1.681  0.8704 -0.1481  1.7193
  766TIP3    H2 2305   4.023   3.013   1.568  0.4552  2.6219 -0.8223
  767TIP3   OH2 2306   4.896   0.806   4.731 -0.7691  0.1522 -0.1768
  767TIP3    H1 2307   4.900   0.715   4.762  0.2891 -0.3890 -1.7801
  767TIP3    H2 2308   4.973   0.848   4.770 -1.2724  0.3830  0.5850
  768TIP3   OH2 2309   4.408   3.471   3.352 -0.2884 -0.5317 -0.0923
  768TIP3    H1 2310   4.337   3.411   3.373 -0.9444 -0.5186 -2.0602
  768TIP3    H2 2311   4.364   3.551   3.323  0.5391 -0.0407 -0.0130
  769TIP3   OH2 2312   4.042   0.681   3.209  0.7121 -0.6398 -0.1323
  769TIP3    H1 2313   4.071   0.681   3.118  0.3746  0.1475 -0.2564
  769TIP3    H2 2314   3.956   0.723   3.207  0.9778 -0.0220  0.6244
  770TIP3   OH2 2315   0.483   2.242   5.097  0.4279 -0.1830  0.3095
  770TIP3    H1 2316   0.451   2.174   5.037  1.2527 -0.0325 -0.3123
  770TIP3    H2 2317   0.565   2.207   5.131  0.9698  0.5780 -0.1779
  771TIP3   OH2 2318   5.674   4.161   2.445 -0.0884  0.3149 -0.2532
  771TIP3    H1 2319   5.692   4.075   2.408  1.7767  0.9629 -0.9830
  771TIP3    H2 2320   5.598   4.193   2.396 -2.8085 -2.0352  2.0528
  772TIP3   OH2 2321   2.591   3.869   0.206  0.6019 -0.5091 -0.2863
  772TIP3    H1 2322   2.576   3.887   0.299  1.9486 -0.3361 -0.0789
  772TIP3    H2 2323   2.505   3.879   0.166  0.0871 -0.0834  0.8596
  773TIP3   OH2 2324   4.002   3.730   0.368  0.3888 -0.2810  0.4365
  773TIP3    H1 2325   4.094   3.710   0.388  0.0386 -0.8945  1.5132
  773TIP3    H2 2326   3.958   3.645   0.371 -0.1284 -0.0604 -0.5956
  774TIP3   OH2 2327   0.565   3.030   0.386 -0.1581  0.1761 -0.0477
  774TIP3    H1 2328   0.483   2.999   0.348 -0.1492  1.5932 -1.3152
  774TIP3    H2 2329   0.627   2.959   0.371 -1.1881 -1.0415  1.1961
  775TIP3   OH2 2330   4.245   3.388   3.643  0.2132  0.6413 -0.9212
  775TIP3    H1 2331   4.253   3.293   3.638 -2.5496  0.3174 -0.8985
  775TIP3    H2 2332   4.214   3.414   3.556  0.8177  1.5030 -0.8840
  776TIP3   OH2 2333   6.128   3.298   2.953  0.0442 -0.4014 -0.4830
  776TIP3    H1 2334   6.132   3.377   2.899  1.9698 -0.9556 -1.2245
  776TIP3    H2 2335   6.187   3.315   3.026 -0.2591 -0.8005 -0.1394
  777TIP3   OH2 2336   0.257   1.067   1.251 -0.3800 -0.0633  0.2937
  777TIP3    H1 2337   0.295   1.124   1.319 -0.6417  1.3855 -0.7391
  777TIP3    H2 2338   0.163   1.077   1.261 -0.5481  3.0404 -2.4331
  778TIP3   OH2 2339   4.287   5.100   0.112  0.8751 -0.7505  0.2508
  778TIP3    H1 2340   4.263   5.157   0.038  1.4753  0.9947  1.3354
  778TIP3    H2 2341   4.341   5.032   0.073  0.9194 -0.0452 -0.9841
  779TIP3   OH2 2342   6.115   1.705   0.223  0.1500  0.1230 -0.2788
  779TIP3    H1 2343   6.144   1.616   0.244 -0.6822 -0.5345 -1.7791
  779TIP3    H2 2344   6.064   1.732   0.300  0.9855 -0.4023  0.4887
  780TIP3   OH2 2345   2.377   4.992   3.541  0.0553  0.3548  0.1496
  780TIP3    H1 2346   2.341   4.988   3.629 -1.1744 -0.7425 -0.3658
  780TIP3    H2 2347   2.430   5.071   3.540 -0.5809  0.8319  1.6270
  781TIP3   OH2 2348   5.592   2.806   1.824  0.2647  0.0025  0.4314
  781TIP3    H1 2349   5.501   2.831   1.808 -0.0419 -1.3732 -0.1433
  781TIP3    H2 2350   5.620   2.860   1.897 -0.8683  0.7736  0.3155
  782TIP3   OH2 2351   0.087   3.804   4.248 -0.1056 -0.0155  0.0549
  782TIP3    H1 2352   0.135   3.779   4.169  0.6430  2.0397 -0.2254
  782TIP3    H2 2353   0.123   3.749   4.317  2.0198  0.7795 -0.3428
  783TIP3   OH2 2354   3.257   1.138   0.264  0.5161  0.2560  0.2201
  783TIP3    H1 2355   3.200   1.102   0.196  1.2216  0.6314 -0.5827
  783TIP3    H2 2356   3.208   1.212   0.300  0.5383  0.6351 -0.5288
  784TIP3   OH2 2357   4.051   2.806   4.855 -0.9674 -0.0347  0.8590
  784TIP3    H1 2358   4.137   2.776   4.887 -0.6091  0.7755  0.6878
  784TIP3    H2 2359   4.029   2.879   4.912 -0.4973  1.1866 -0.4607
  785TIP3   OH2 2360   4.267   4.942   4.048 -0.3046  0.4744  0.1196
  785TIP3    H1 2361   4.351   4.909   4.017 -0.4711 -1.9194  1.9089
  785TIP3    H2 2362   4.212   4.945   3.969  0.9926  0.5905 -0.8132
  786TIP3   OH2 2363   4.936   4.907   2.414 -0.7514  0.4714  0.5598
  786TIP3    H1 2364   4.990   4.915   2.336 -0.2730  2.1924  1.0378
  786TIP3    H2 2365   4.980   4.840   2.467  0.2925  1.0370  0.4313
  787TIP3   OH2 2366   3.196   5.048   3.274  0.3453 -0.0423  0.0816
  787TIP3    H1 2367   3.121   5.006   3.316  2.1150 -1.4781  1.9929
  787TIP3    H2 2368   3.176   5.142   3.278 -0.2238 -0.1726  3.0943
  788TIP3   OH2 2369   0.862   5.277   2.509 -0.6134 -0.0995  1.3084
  788TIP3    H1 2370   0.909   5.257   2.589  1.7266  1.0905  0.3266
  788TIP3    H2 2371   0.778   5.313   2.538  0.7647  1.7533  3.3137
  789TIP3   OH2 2372   3.853   2.716   2.135  0.3110  0.2183 -0.1978
  789TIP3    H1 2373   3.854   2.786   2.070  1.0491  0.6200  0.2293
  789TIP3    H2 2374   3.873   2.759   2.218 -2.0249 -0.0477  0.5748
  790TIP3   OH2 2375   1.073   1.784   0.572  0.7410 -0.1990  0.2904
  790TIP3    H1 2376   1.099   1.868   0.610 -0.7321  0.8444 -0.9023
  790TIP3    H2 2377   1.141   1.765   0.507 -0.0758  1.2535 -1.0560
  791TIP3   OH2 2378   1.431   2.084   4.605 -0.6155 -0.1240 -0.1462
  791TIP3    H1 2379   1.499   2.018   4.620 -0.1008  0.4193 -0.0643
  791TIP3    H2 2380   1.361   2.036   4.562 -0.0644 -0.6379 -0.4905
  792TIP3   OH2 2381   5.080   1.620   0.483  0.2906  0.7096  0.1352
  792TIP3    H1 2382   5.068   1.568   0.404 -1.3927  1.7825 -0.3600
  792TIP3    H2 2383   5.149   1.683   0.461  1.7630 -0.7020  0.4765
  793TIP3   OH2 2384   4.680   1.528   3.681  0.3712 -0.1604 -0.5749
  793TIP3    H1 2385   4.631   1.465   3.733 -1.5649  1.1658 -0.6858
  793TIP3    H2 2386   4.763   1.537   3.727 -0.3803 -0.7445  0.9789
  794TIP3   OH2 2387   3.591   4.799   2.197 -0.3198 -0.5386 -0.1010
  794TIP3    H1 2388   3.558   4.709   2.200 -0.6624 -0.4238  2.9500
  794TIP3    H2 2389   3.685   4.790   2.186 -0.0369 -1.4893  2.4290
  795TIP3   OH2 2390   1.067   1.842   3.307  0.5075 -0.9546 -0.8142
  795TIP3    H1 2391   1.141   1.884   3.349 -0.2835 -0.7262  0.3967
  795TIP3    H2 2392   0.993   1.900   3.324 -0.4553 -2.4042  0.1885
  796TIP3   OH2 2393   3.482   1.447   4.391  0.3550  0.5738  0.4629
  796TIP3    H1 2394   3.420   1.521   4.392 -0.4339  0.0051 -1.2713
  796TIP3    H2 2395   3.483   1.420   4.299 -0.9406 -2.8555  1.3206
  797TIP3   OH2 2396   0.142   0.195  -0.007 -0.5414  0.3567  0.1738
  797TIP3    H1 2397   0.225   0.150   0.008  0.4248  1.2949 -1.9774
  797TIP3    H2 2398   0.137   0.261   0.063  1.1607  1.1211 -0.3834
  798TIP3   OH2 2399   1.318   1.816   3.971  0.4921 -0.1713  0.6591
  798TIP3    H1 2400   1.336   1.850   3.883  1.3129  2.0537  1.6080
  798TIP3    H2 2401   1.404   1.806   4.011  0.0838 -0.1909  1.5523
  799TIP3   OH2 2402   1.861   3.558   1.806 -0.0270 -0.5822 -0.2206
  799TIP3    H1 2403   1.951   3.586   1.818  0.7840 -2.1350 -2.1042
  799TIP3    H2 2404   1.836   3.592   1.720 -0.9710 -0.8320 -0.0648
  800TIP3   OH2 2405   6.259   2.542   3.040 -0.1233 -0.8125  0.5889
  800TIP3    H1 2406   6.337   2.489   3.057 -0.3785 -1.2679  0.3480
  800TIP3    H2 2407   6.202   2.485   2.988 -1.2208 -0.9833  1.9265
  801TIP3   OH2 2408   6.061   3.658   4.885  0.1499  0.5962 -0.4111
  801TIP3    H1 2409   6.072   3.565   4.865  0.8479  0.8301 -1.1639
  801TIP3    H2 2410   5.981   3.661   4.938  0.5822 -0.5189  0.3446
  802TIP3   OH2 2411   1.732   0.441   0.987 -0.2191  0.2157 -0.5494
  802TIP3    H1 2412   1.693   0.496   0.920 -1.7665 -2.2413 -1.8221
  802TIP3    H2 2413   1.689   0.467   1.068 -0.8105  0.9501 -1.0899
  803TIP3   OH2 2414   1.013   5.878   2.929  0.5043  0.3678 -0.5275
  803TIP3    H1 2415   1.050   5.819   2.864  0.6938  0.0168 -0.1083
  803TIP3    H2 2416   0.920   5.856   2.932  0.7637 -0.7287  0.4491
  804TIP3   OH2 2417   0.830   5.473   4.562 -0.2916  0.1650 -0.1003
  804TIP3    H1 2418   0.873   5.533   4.624  0.2950  0.7164 -1.0236
  804TIP3    H2 2419   0.743   5.458   4.599 -0.6477  2.0246 -0.1322
  805TIP3   OH2 2420   2.028   0.414   4.717  0.1859  0.7533 -0.0494
  805TIP3    H1 2421   2.106   0.455   4.756 -1.8173  3.6748  1.1693
  805TIP3    H2 2422   1.986   0.483   4.667 -2.2471 -0.3954  0.2606
  806TIP3   OH2 2423   0.509   5.548   1.054 -0.8095 -0.1434 -0.8233
  806TIP3    H1 2424   0.498   5.457   1.025 -1.0568  0.2988 -2.1911
  806TIP3    H2 2425   0.480   5.600   0.979  1.1966  1.0744 -0.8063
  807TIP3   OH2 2426   0.485   4.280   2.118  0.3053 -0.0510 -0.2013
  807TIP3    H1 2427   0.534   4.349   2.164  1.1727 -0.1718 -0.9132
  807TIP3    H2 2428   0.443   4.325   2.045  1.2989 -0.3510 -0.9746
  808TIP3   OH2 2429   5.097   4.407   1.555 -0.0969 -0.4199 -0.3152
  808TIP3    H1 2430   5.012   4.398   1.514 -0.3874  0.0717  0.1607
  808TIP3    H2 2431   5.118   4.501   1.547  1.6655 -0.9177 -2.8720
  809TIP3   OH2 2432   2.484   3.762   1.643  0.1846 -0.5037 -0.1874
  809TIP3    H1 2433   2.412   3.777   1.703 -0.0963 -1.7586 -0.1809
  809TIP3    H2 2434   2.559   3.739   1.699 -0.1061 -1.7863 -0.2765
  810TIP3   OH2 2435   4.761   0.066   3.703 -0.2032 -0.4417 -0.0053
  810TIP3    H1 2436   4.850   0.090   3.728 -1.1717  0.8766  2.5996
  810TIP3    H2 2437   4.747  -0.019   3.745 -0.3819 -0.3286  0.1649
  811TIP3   OH2 2438   2.606   0.463   1.019 -0.3444  0.2825  0.4106
  811TIP3    H1 2439   2.543   0.499   1.081 -0.4169 -1.5881  1.5244
  811TIP3    H2 2440   2.557   0.453   0.937 -1.8893 -2.0187  1.5013
  812TIP3   OH2 2441   2.155   3.597   3.310 -0.2956 -0.5658  0.4402
  812TIP3    H1 2442   2.139   3.637   3.225 -0.7271  0.8110  1.1234
  812TIP3    H2 2443   2.209   3.521   3.292 -1.3215 -0.9459 -1.1674
  813TIP3   OH2 2444   3.208   2.796   1.035  0.4626 -0.5349 -0.4878
  813TIP3    H1 2445   3.237   2.866   1.094  1.1175 -0.9366 -0.3262
  813TIP3    H2 2446   3.196   2.839   0.951  0.6332 -0.1779 -0.3318
  814TIP3   OH2 2447   3.394   3.738   4.899  0.3223  0.4537 -0.4272
  814TIP3    H1 2448   3.306   3.767   4.876 -0.2036 -0.8651 -0.1224
  814TIP3    H2 2449   3.406   3.656   4.851  0.5568 -0.4921  1.1851
  815TIP3   OH2 2450   6.004   0.090   3.999  0.5924  0.2613 -0.1488
  815TIP3    H1 2451   5.990   0.128   4.086 -0.0035 -1.6601  0.6444
  815TIP3    H2 2452   5.920   0.099   3.955  0.3185 -0.5128  0.2045
  816TIP3   OH2 2453   5.964   5.146   1.451 -0.7477 -0.2039 -0.5957
  816TIP3    H1 2454   5.899   5.097   1.401 -1.5513  1.5216 -1.3169
  816TIP3    H2 2455   5.930   5.235   1.455 -0.4349 -0.1139  2.5892
  817TIP3   OH2 2456   4.003   4.069   0.196  0.0621  0.0871  0.1679
  817TIP3    H1 2457   4.044   4.021   0.268  0.3848 -0.5353 -0.4264
  817TIP3    H2 2458   3.955   4.002   0.147 -0.4120  0.5617 -0.0214
  818TIP3   OH2 2459   5.994   4.910   5.105 -0.0986 -0.6430  0.0766
  818TIP3    H1 2460   5.938   4.851   5.054 -0.4269  0.3682 -0.7609
  818TIP3    H2 2461   5.993   4.873   5.193 -0.2216 -1.9351 -0.4374
  819TIP3   OH2 2462   1.967   2.053   3.963 -0.3803  0.5831 -0.3521
  819TIP3    H1 2463   1.940   2.098   3.884 -0.9335  1.4530  0.3085
  819TIP3    H2 2464   1.951   2.116   4.034  0.2646 -0.0988  0.4333
  820TIP3   OH2 2465   3.463   4.283   1.499  0.5204  0.0613 -0.3306
  820TIP3    H1 2466   3.409   4.352   1.460  0.3672 -0.1757 -0.5374
  820TIP3    H2 2467   3.475   4.311   1.590  0.3334  0.2872 -0.3754
  821TIP3   OH2 2468   5.959   0.854   4.496  0.2646 -0.1608 -0.4878
  821TIP3    H1 2469   5.979   0.872   4.588 -0.2415  0.6610 -0.5280
  821TIP3    H2 2470   5.996   0.928   4.449 -2.1270  1.0250 -0.6347
  822TIP3   OH2 2471   0.634   0.340   1.262  0.4248 -0.0750 -0.3886
  822TIP3    H1 2472   0.597   0.428   1.270  2.6545  0.7659  4.6011
  822TIP3    H2 2473   0.728   0.354   1.258  0.8120 -2.2523 -0.1137
  823TIP3   OH2 2474   1.280   3.735   4.549  0.0417 -0.2826  0.2193
  823TIP3    H1 2475   1.331   3.681   4.608 -0.2893 -0.8859 -0.0340
  823TIP3    H2 2476   1.191   3.734   4.586  0.0856  0.3085  0.3572
  824TIP3   OH2 2477   5.221   2.424   0.024  0.0031 -0.1877 -0.0299
  824TIP3    H1 2478   5.165   2.398  -0.049  1.9200 -0.2433 -1.5322
  824TIP3    H2 2479   5.227   2.345   0.079  0.3767 -0.8697 -1.0252
  825TIP3   OH2 2480   3.466   2.352   1.429  0.1661  0.1009  0.1064
  825TIP3    H1 2481   3.394   2.327   1.371  2.1256 -1.1648 -1.9654
  825TIP3    H2 2482   3.424   2.373   1.512 -2.6658  0.5112 -1.2998
  826TIP3   OH2 2483   0.956   2.345   3.991 -0.6129  0.2483 -0.2579
  826TIP3    H1 2484   0.900   2.312   4.060 -0.0149  0.6073  0.4116
  826TIP3    H2 2485   0.921   2.432   3.972 -3.1129 -1.1644 -3.0395
  827TIP3   OH2 2486   4.281   3.587   1.127  0.0679 -0.3609 -0.1837
  827TIP3    H1 2487   4.228   3.646   1.179 -0.2352  0.2751 -1.1921
  827TIP3    H2 2488   4.309   3.519   1.189 -1.7477 -0.6141  0.4129
  828TIP3   OH2 2489   1.845   2.867   4.191  0.2473 -0.0030  0.2670
  828TIP3    H1 2490   1.830   2.811   4.115 -0.4118 -0.7647  0.9496
  828TIP3    H2 2491   1.760   2.873   4.234  0.2485  1.7067  0.0961
  829TIP3   OH2 2492   2.439   2.938   2.566  0.1772  0.2243 -0.0847
  829TIP3    H1 2493   2.365   2.984   2.607 -0.7837 -2.2368  1.1673
  829TIP3    H2 2494   2.403   2.905   2.484  0.3393  0.2132 -0.1516
  830TIP3   OH2 2495   6.187   1.315   2.973  0.0230 -0.5673 -0.1440
  830TIP3    H1 2496   6.170   1.402   3.009 -3.1849 -0.2564 -2.0165
  830TIP3    H2 2497   6.125   1.258   3.017 -2.5649 -0.5480 -3.4120
  831TIP3   OH2 2498   4.359   3.585   0.710  0.1869  0.2932  0.2079
  831TIP3    H1 2499   4.329   3.518   0.772 -0.0050  0.2109  0.0317
  831TIP3    H2 2500   4.417   3.538   0.651 -0.2310  0.1949 -0.1354
  832TIP3   OH2 2501   2.576   5.414   1.982 -0.0240 -0.0586  0.1596
  832TIP3    H1 2502   2.648   5.391   1.923  0.2329  1.4377 -0.1598
  832TIP3    H2 2503   2.561   5.507   1.965 -0.9061  0.0506  1.4448
  833TIP3   OH2 2504   2.855   3.408   1.934  0.4818 -0.2375 -0.5343
  833TIP3    H1 2505   2.819   3.340   1.877 -2.6724  1.1106 -0.3439
  833TIP3    H2 2506   2.859   3.367   2.021  1.9663 -1.2001 -1.0193
  834TIP3   OH2 2507   6.171   0.797   0.728  0.2774  0.3138 -0.7306
  834TIP3    H1 2508   6.156   0.845   0.809  0.4251 -2.5126  1.1126
  834TIP3    H2 2509   6.173   0.705   0.755  1.0844 -0.6954 -3.8483
  835TIP3   OH2 2510   3.456   2.574   0.089 -0.2766 -0.3515  0.3150
  835TIP3    H1 2511   3.396   2.569   0.014  1.2478 -0.6221 -0.9389
  835TIP3    H2 2512   3.434   2.497   0.142  0.2422 -1.5863 -1.1613
  836TIP3   OH2 2513   0.290   4.580   4.324 -0.2910 -0.2908 -0.2049
  836TIP3    H1 2514   0.324   4.491   4.333  0.7194  0.1084  0.0722
  836TIP3    H2 2515   0.309   4.604   4.234  2.6491  0.8665  0.5909
  837TIP3   OH2 2516   4.593   3.146   5.127  0.2184  0.1875 -0.3142
  837TIP3    H1 2517   4.678   3.113   5.156  0.6046 -0.1974 -1.7869
  837TIP3    H2 2518   4.601   3.151   5.032 -0.9756  1.3814 -0.3864
  838TIP3   OH2 2519   4.559   3.506   2.536  0.4002 -0.2508  0.4680
  838TIP3    H1 2520   4.610   3.498   2.616 -2.9766 -1.1654  2.6991
  838TIP3    H2 2521   4.537   3.416   2.511  0.2017  0.0910 -0.6709
  839TIP3   OH2 2522   1.144   3.656   3.160 -0.3002  0.9467  0.3586
  839TIP3    H1 2523   1.124   3.589   3.095  0.1846 -0.4814  1.6345
  839TIP3    H2 2524   1.062   3.705   3.170 -0.4878  0.9476 -1.0254
  840TIP3   OH2 2525   3.427   0.386   1.474  0.9621  0.9992  0.5295
  840TIP3    H1 2526   3.496   0.321   1.459 -1.2733 -1.4362  0.1523
  840TIP3    H2 2527   3.410   0.422   1.387  0.4672  0.1814  0.2753
  841TIP3   OH2 2528   3.410   3.486   2.972  0.8595 -0.1925 -0.0433
  841TIP3    H1 2529   3.496   3.514   3.005  1.1699  0.6224 -1.4855
  841TIP3    H2 2530   3.428   3.404   2.926  1.0112  0.3578 -0.9827
  842TIP3   OH2 2531   4.124   5.965   0.928  0.5030 -0.3420  0.5579
  842TIP3    H1 2532   4.047   5.933   0.975 -0.2594 -0.6150 -0.7982
  842TIP3    H2 2533   4.139   5.899   0.860  2.0227 -0.3548  0.8847
  843TIP3   OH2 2534   6.118   2.222   2.544  0.0330 -0.1806  0.2192
  843TIP3    H1 2535   6.179   2.218   2.471 -1.5343 -1.2278 -1.1203
  843TIP3    H2 2536   6.058   2.293   2.522  0.4076  0.4898  1.2556
  844TIP3   OH2 2537   1.698   5.381   1.119  0.3888  0.4254 -0.6599
  844TIP3    H1 2538   1.715   5.432   1.040 -0.1763  1.6154 -0.0280
  844TIP3    H2 2539   1.630   5.319   1.093 -1.0617  1.9537 -0.7030
  845TIP3   OH2 2540   2.334   0.308   4.796 -0.1160 -0.3019  0.0539
  845TIP3    H1 2541   2.396   0.382   4.797  0.5040 -0.8123 -0.1819
  845TIP3    H2 2542   2.344   0.269   4.710  1.0650 -1.8862  0.8420
  846TIP3   OH2 2543   6.121   2.879   0.410 -0.1679 -0.0635  0.4084
  846TIP3    H1 2544   6.061   2.951   0.431  0.9453  0.4606  1.9408
  846TIP3    H2 2545   6.071   2.800   0.430 -0.2104  0.3746  2.2993
  847TIP3   OH2 2546   2.750   1.360   5.040  0.3177 -0.2134  0.0180
  847TIP3    H1 2547   2.708   1.419   4.977 -0.5835  1.0672  1.7220
  847TIP3    H2 2548   2.833   1.403   5.061  1.7225 -1.7905 -1.9235
  848TIP3   OH2 2549   6.303   0.241   3.507 -0.2028 -0.0749  0.2820
  848TIP3    H1 2550   6.245   0.314   3.528  1.0116  0.7614  0.8446
  848TIP3    H2 2551   6.353   0.227   3.587 -0.8916 -2.0145  0.4252
  849TIP3   OH2 2552   4.854   4.978   3.259 -0.4167 -0.2538  0.0915
  849TIP3    H1 2553   4.859   5.073   3.257 -0.4504 -0.2003  1.5509
  849TIP3    H2 2554   4.919   4.952   3.325  0.0652 -1.2840 -0.7618
  850TIP3   OH2 2555   1.679   3.854   0.292  0.4529  0.5818 -0.0673
  850TIP3    H1 2556   1.717   3.880   0.376  0.0933  0.5574  0.1092
  850TIP3    H2 2557   1.687   3.759   0.290  0.4172  0.5777 -0.0351
  851TIP3   OH2 2558   3.362   4.672   2.931 -0.0133 -0.1440 -0.4274
  851TIP3    H1 2559   3.280   4.627   2.909 -1.1122  1.2939  0.5441
  851TIP3    H2 2560   3.351   4.698   3.022  1.2049  0.7664 -0.5236
  852TIP3   OH2 2561   2.804   5.742   3.303  0.3792 -0.0702 -0.4211
  852TIP3    H1 2562   2.743   5.753   3.376  0.9087  0.2261 -0.0172
  852TIP3    H2 2563   2.890   5.758   3.341  0.6758 -0.0626 -1.0819
  853TIP3   OH2 2564   4.986   2.061   0.929  0.5648 -0.1265 -0.2164
  853TIP3    H1 2565   4.961   2.030   0.842  2.2880 -0.7798 -0.5307
  853TIP3    H2 2566   4.917   2.122   0.954 -0.7307 -1.0446 -1.4036
  854TIP3   OH2 2567   3.184   1.402   2.357 -0.8726 -0.4907  0.3294
  854TIP3    H1 2568   3.125   1.420   2.430 -1.4578  2.0206 -0.6802
  854TIP3    H2 2569   3.127   1.367   2.288 -0.3599 -2.6247  0.9212
  855TIP3   OH2 2570   3.199   4.977   0.200 -0.0425 -0.0865  0.4026
  855TIP3    H1 2571   3.282   4.930   0.198  0.2592  0.4376 -1.3995
  855TIP3    H2 2572   3.133   4.908   0.210  0.4525 -0.8289 -1.1471
  856TIP3   OH2 2573   0.134   5.845   4.081 -0.5815  0.1313  0.4569
  856TIP3    H1 2574   0.128   5.925   4.029 -2.9279 -0.4117 -0.2588
  856TIP3    H2 2575   0.189   5.786   4.029  0.3412  0.9220  0.5179
  857TIP3   OH2 2576   1.477   4.808   1.639  0.0507  0.0454  0.4515
  857TIP3    H1 2577   1.421   4.732   1.625 -1.8706  1.6315 -0.9919
  857TIP3    H2 2578   1.443   4.848   1.719  0.3002  0.0271  0.5667
  858TIP3   OH2 2579   3.879   3.220   4.416 -0.4597  0.2315  0.1838
  858TIP3    H1 2580   3.804   3.230   4.358 -0.7776 -0.6699  0.4209
  858TIP3    H2 2581   3.847   3.165   4.488  0.6418 -0.9076 -0.1485
  859TIP3   OH2 2582   3.668   1.133   0.547  0.4487  0.1220  0.7949
  859TIP3    H1 2583   3.711   1.069   0.490 -0.4868  0.5057 -0.3967
  859TIP3    H2 2584   3.735   1.200   0.562  0.8634 -0.2230  0.5230
  860TIP3   OH2 2585   4.361   0.425   0.659 -0.5095  0.3910 -0.2649
  860TIP3    H1 2586   4.265   0.423   0.657 -0.4963 -1.5670 -0.1477
  860TIP3    H2 2587   4.382   0.509   0.701 -2.1434  1.1889 -0.9682
  861TIP3   OH2 2588   1.615   3.387   4.329  0.1032 -0.4724  0.0068
  861TIP3    H1 2589   1.540   3.420   4.279 -0.8003 -3.2354 -0.6272
  861TIP3    H2 2590   1.685   3.380   4.264  0.4819  0.6076  0.2668
  862TIP3   OH2 2591   2.283   3.996   4.166  0.4345  0.6226  0.3610
  862TIP3    H1 2592   2.285   4.069   4.228 -0.8689  1.7872 -0.9104
  862TIP3    H2 2593   2.309   3.920   4.219 -1.1053  1.4718  2.4826
  863TIP3   OH2 2594   0.682   2.115   0.446  0.2779 -0.0283  0.1611
  863TIP3    H1 2595   0.663   2.056   0.372 -2.6935  1.0897 -0.0981
  863TIP3    H2 2596   0.770   2.148   0.428  0.2254 -0.9305 -2.0866
  864TIP3   OH2 2597   1.059   2.160   3.157 -0.1985 -0.7338  0.2122
  864TIP3    H1 2598   0.997   2.102   3.112 -0.7738  0.5019 -0.6835
  864TIP3    H2 2599   1.062   2.238   3.101  1.5684 -0.4337  0.6684
  865TIP3   OH2 2600   2.496   2.463   0.998 -0.4118  0.1883 -0.3681
  865TIP3    H1 2601   2.572   2.433   1.048  0.1316  0.8954 -0.7550
  865TIP3    H2 2602   2.460   2.383   0.959  1.6004  0.1176 -2.2087
  866TIP3   OH2 2603   0.546   2.364   3.244 -0.0035 -0.3741  0.1540
  866TIP3    H1 2604   0.630   2.400   3.215  1.6689 -2.8463  1.5915
  866TIP3    H2 2605   0.501   2.439   3.284  1.2416  1.1281 -1.0919
  867TIP3   OH2 2606   1.983   2.245   4.737 -0.5308 -0.3493  0.0067
  867TIP3    H1 2607   2.035   2.220   4.660  1.2929 -2.1727  1.6858
  867TIP3    H2 2608   2.011   2.335   4.756  0.0199 -0.3649 -0.6774
  868TIP3   OH2 2609   1.800   4.539   3.993 -0.1451  0.5519  0.1770
  868TIP3    H1 2610   1.755   4.485   4.058  0.5008 -1.1689 -0.7248
  868TIP3    H2 2611   1.891   4.509   3.996 -0.1755  0.0799 -1.7860
  869TIP3   OH2 2612   0.612   5.060   2.229 -0.2081 -0.0543  0.1367
  869TIP3    H1 2613   0.604   5.060   2.134 -0.8720  0.7405  0.1717
  869TIP3    H2 2614   0.607   5.153   2.253 -1.5669 -0.3329  1.0410
  870TIP3   OH2 2615   1.342   2.132  -0.007 -0.7064  0.2616 -0.2973
  870TIP3    H1 2616   1.418   2.101   0.043 -1.6937 -2.0823 -0.1301
  870TIP3    H2 2617   1.267   2.085   0.032 -2.4160  3.1032  0.1160
  871TIP3   OH2 2618   6.208   5.260   3.569  0.7493  0.1228  0.2263
  871TIP3    H1 2619   6.236   5.208   3.645  0.3106 -0.4751 -0.0113
  871TIP3    H2 2620   6.236   5.349   3.589  0.1699  0.0719  1.3255
  872TIP3   OH2 2621   0.189   2.437   4.719  0.1726 -0.5708 -0.4404
  872TIP3    H1 2622   0.277   2.402   4.709 -0.1453 -1.3279 -0.7396
  872TIP3    H2 2623   0.162   2.409   4.807  0.1221 -0.5969 -0.4640
  873TIP3   OH2 2624   4.832   0.534   1.577  0.0620  0.6916  0.4376
  873TIP3    H1 2625   4.842   0.442   1.603 -0.5714  0.8622  1.3271
  873TIP3    H2 2626   4.842   0.533   1.482 -1.6092 -0.5479  0.2257
  874TIP3   OH2 2627   5.005   0.841   0.609  0.2573 -0.3924  0.2954
  874TIP3    H1 2628   4.989   0.936   0.605 -2.2218 -0.7511  0.5247
  874TIP3    H2 2629   4.989   0.818   0.700 -0.2450 -1.1984  0.0103
  875TIP3   OH2 2630   1.516   3.888   2.853 -1.5206 -0.0715  0.0909
  875TIP3    H1 2631   1.549   3.799   2.868 -1.7991 -0.2559 -0.3693
  875TIP3    H2 2632   1.441   3.896   2.912 -0.9116  0.2063  0.8442
  876TIP3   OH2 2633   6.323   2.705   4.260  0.9505  0.6927  0.3204
  876TIP3    H1 2634   6.385   2.681   4.329  0.9101  2.6992  1.1464
  876TIP3    H2 2635   6.261   2.763   4.304 -0.2002  0.4915 -0.9964
  877TIP3   OH2 2636   1.837   2.610   0.929  0.1234 -0.4868  0.3613
  877TIP3    H1 2637   1.838   2.580   0.838  0.7959  1.2468 -0.2446
  877TIP3    H2 2638   1.919   2.657   0.940 -1.8379  3.3612  0.3816
  878TIP3   OH2 2639   3.446   3.623   4.228 -0.3327  0.1221 -0.0972
  878TIP3    H1 2640   3.482   3.698   4.276  2.0468 -1.2408  0.4604
  878TIP3    H2 2641   3.412   3.659   4.147  1.4615  1.7190 -0.1931
  879TIP3   OH2 2642   3.648   1.995   0.741 -0.9011 -0.0839  0.3079
  879TIP3    H1 2643   3.608   1.947   0.814 -0.4359  0.6204  1.0374
  879TIP3    H2 2644   3.724   1.943   0.717  0.0208  0.6210  1.5790
  880TIP3   OH2 2645   5.246   0.487   3.005 -0.1240  0.2228  0.2634
  880TIP3    H1 2646   5.206   0.500   3.091  0.0404  0.9518  0.2365
  880TIP3    H2 2647   5.173   0.465   2.947 -0.2347 -0.2563  0.5872
  881TIP3   OH2 2648   2.965   5.431   0.749 -0.2385 -0.4902  0.4135
  881TIP3    H1 2649   3.058   5.413   0.731 -0.2292 -0.0886  0.0507
  881TIP3    H2 2650   2.931   5.348   0.783 -0.1035 -1.0991 -0.8761
  882TIP3   OH2 2651   1.341   5.643   1.491  0.2375  0.3448 -0.2493
  882TIP3    H1 2652   1.277   5.635   1.420  1.4560 -0.4244 -1.3118
  882TIP3    H2 2653   1.387   5.560   1.491 -0.4017 -0.0683  2.1651
  883TIP3   OH2 2654   5.584   4.649   1.847 -0.2301 -0.4073 -0.0616
  883TIP3    H1 2655   5.547   4.703   1.777  0.8917  1.1951  0.5226
  883TIP3    H2 2656   5.545   4.684   1.927  1.5175  0.4539  0.4442
  884TIP3   OH2 2657   2.208   0.084   0.012 -0.2351  0.0280 -0.0150
  884TIP3    H1 2658   2.301   0.083  -0.009 -0.2778 -0.8295 -0.2059
  884TIP3    H2 2659   2.179  -0.006  -0.002 -1.3438  0.5166 -1.0467
  885TIP3   OH2 2660   4.965   4.253   3.851 -0.2848  0.0028 -0.4171
  885TIP3    H1 2661   5.022   4.210   3.915  1.0996  3.2659  0.7873
  885TIP3    H2 2662   4.876   4.237   3.884  0.0967 -2.2704 -0.3640
  886TIP3   OH2 2663   4.934   3.207   4.384 -0.3296 -0.2324 -0.1579
  886TIP3    H1 2664   4.892   3.293   4.392  0.1786 -0.0215  0.3257
  886TIP3    H2 2665   4.947   3.178   4.474  2.1720  0.5230 -0.2140
  887TIP3   OH2 2666   2.612   3.391   0.875 -0.6539  0.1508  0.4865
  887TIP3    H1 2667   2.683   3.357   0.929 -0.0421  0.0341 -0.3622
  887TIP3    H2 2668   2.633   3.360   0.787 -2.1085 -0.4240  0.3313
  888TIP3   OH2 2669   1.872   4.168   0.890 -0.3665 -0.4844  0.3324
  888TIP3    H1 2670   1.955   4.188   0.847 -0.4600 -0.5509  0.1199
  888TIP3    H2 2671   1.873   4.220   0.970 -1.2053  1.4692 -0.8536
  889TIP3   OH2 2672   1.657   3.057   4.019 -0.2101 -0.0057 -0.5614
  889TIP3    H1 2673   1.607   3.001   4.079  0.7726 -1.2679 -0.8814
  889TIP3    H2 2674   1.697   2.996   3.957  0.6177  1.0857 -1.1345
  890TIP3   OH2 2675   4.148   5.936   1.655 -0.0322  0.2417 -0.0932
  890TIP3    H1 2676   4.133   6.025   1.625  0.4195  0.2977 -0.1642
  890TIP3    H2 2677   4.218   5.944   1.720  0.4082 -0.1258 -0.5084
  891TIP3   OH2 2678   3.189   5.307   5.145 -0.5582  0.2913  0.5077
  891TIP3    H1 2679   3.126   5.317   5.216 -0.7134 -2.0980  0.7827
  891TIP3    H2 2680   3.261   5.366   5.169 -0.8264 -0.0728  2.4315
  892TIP3   OH2 2681   5.149   4.249   0.889  0.3530 -0.0086 -0.2089
  892TIP3    H1 2682   5.180   4.161   0.869 -0.7649 -0.5009  0.1260
  892TIP3    H2 2683   5.085   4.268   0.821 -0.2084  0.1009  0.3414
  893TIP3   OH2 2684   3.886   3.482   2.875 -0.1370  0.1223  0.3827
  893TIP3    H1 2685   3.863   3.538   2.801 -0.8170 -1.0288 -0.3090
  893TIP3    H2 2686   3.925   3.404   2.834 -1.4065 -0.9511  1.1541
  894TIP3   OH2 2687   5.449   2.813   3.427 -0.4514 -0.6313  0.2452
  894TIP3    H1 2688   5.491   2.760   3.495 -2.2318 -0.3740  1.6215
  894TIP3    H2 2689   5.504   2.800   3.349  3.0189  0.8849  2.2213
  895TIP3   OH2 2690   4.837   5.608   1.183  0.6552  0.2797 -0.6823
  895TIP3    H1 2691   4.833   5.609   1.088  0.5860 -0.8673 -0.7022
  895TIP3    H2 2692   4.924   5.574   1.204  0.0065 -1.2761 -0.3687
  896TIP3   OH2 2693   5.984   0.344   5.039  0.0471  0.0735  0.6310
  896TIP3    H1 2694   5.980   0.282   5.112  1.1765 -0.0935  0.5692
  896TIP3    H2 2695   5.990   0.289   4.961  0.9727  0.2461  0.5702
  897TIP3   OH2 2696   2.665   1.250   0.858  0.3659 -0.2533  0.5154
  897TIP3    H1 2697   2.657   1.258   0.763 -0.0810  0.3623  0.5954
  897TIP3    H2 2698   2.748   1.205   0.872  1.3882  1.3532 -0.1275
  898TIP3   OH2 2699   3.314   1.741   2.934 -0.7204 -0.2917 -0.1114
  898TIP3    H1 2700   3.265   1.817   2.967 -0.1411  0.4194 -0.8374
  898TIP3    H2 2701   3.330   1.761   2.842 -0.0464 -1.0268 -0.1665
  899TIP3   OH2 2702   5.475   5.065   3.236 -0.0979  0.3173  0.0083
  899TIP3    H1 2703   5.543   5.050   3.302 -0.8054  0.9158  0.9075
  899TIP3    H2 2704   5.397   5.085   3.287 -0.8915 -0.1093 -1.0173
  900TIP3   OH2 2705   4.758   1.302   3.944 -0.3408  0.0812  0.0657
  900TIP3    H1 2706   4.738   1.359   4.018 -2.4766 -1.4345  0.7590
  900TIP3    H2 2707   4.853   1.307   3.935 -0.0524  0.6189  2.6562
  901TIP3   OH2 2708   2.441   4.418   5.073  0.4843  0.3417 -0.0295
  901TIP3    H1 2709   2.458   4.486   5.138  1.4069 -0.1508  0.2558
  901TIP3    H2 2710   2.482   4.451   4.993  0.4632  0.3641 -0.0313
  902TIP3   OH2 2711   4.783   1.388   1.338  0.2944  0.2479  0.5565
  902TIP3    H1 2712   4.757   1.416   1.426  0.2187 -2.5705  1.5149
  902TIP3    H2 2713   4.871   1.353   1.349 -0.7223 -2.7411  0.2198
  903TIP3   OH2 2714   5.039   1.341   0.822 -0.3450  0.1323 -0.0556
  903TIP3    H1 2715   5.106   1.318   0.887 -1.4350 -1.1982  0.6663
  903TIP3    H2 2716   5.060   1.287   0.746 -1.6133 -1.7010  0.8363
  904TIP3   OH2 2717   5.719   5.034   2.507  0.1036  0.0231 -0.4892
  904TIP3    H1 2718   5.792   5.011   2.449  0.5415 -1.0680  0.4667
  904TIP3    H2 2719   5.643   4.992   2.467  0.7063 -2.2680  0.6246
  905TIP3   OH2 2720   5.467   4.972   2.416  0.5534  0.4484  0.0729
  905TIP3    H1 2721   5.413   5.050   2.429  0.5296  0.8082 -1.8108
  905TIP3    H2 2722   5.443   4.941   2.329  1.8265 -0.6486  0.0798
  906TIP3   OH2 2723   2.888   1.615   5.058 -0.6565  0.1323  0.2107
  906TIP3    H1 2724   2.842   1.619   4.974 -0.9623 -0.6005  0.3413
  906TIP3    H2 2725   2.981   1.615   5.033 -0.7482 -0.5640 -0.1568
  907TIP3   OH2 2726   3.857   0.684   4.618 -0.2798  0.2576 -0.0709
  907TIP3    H1 2727   3.778   0.667   4.668  0.7221 -1.8384  0.9397
  907TIP3    H2 2728   3.863   0.610   4.557 -0.0654  1.3822 -1.4563
  908TIP3   OH2 2729   5.892   4.528   4.612 -0.5435  0.5273  0.3329
  908TIP3    H1 2730   5.979   4.499   4.586 -0.6112  0.3267  0.3256
  908TIP3    H2 2731   5.864   4.465   4.677 -1.0983 -0.0153 -0.4119
  909TIP3   OH2 2732  -0.001   0.161   1.901  0.5297  0.1153 -0.1845
  909TIP3    H1 2733   0.088   0.197   1.908  0.8581 -0.9429  1.3926
  909TIP3    H2 2734  -0.008   0.099   1.973 -1.7534  0.7036  0.1672
  910TIP3   OH2 2735   3.770   3.034   5.115  0.4599 -0.6080  0.5727
  910TIP3    H1 2736   3.702   2.976   5.151 -1.3024  0.5186 -0.7780
  910TIP3    H2 2737   3.756   3.117   5.161 -0.0617  0.0605 -0.7639
  911TIP3   OH2 2738   4.675   1.557   2.814  0.2754  0.5992  0.3381
  911TIP3    H1 2739   4.768   1.577   2.798  0.6016 -0.9044  0.2196
  911TIP3    H2 2740   4.628   1.610   2.749  1.0841  0.9150 -0.0102
  912TIP3   OH2 2741   1.881   2.748   4.589 -0.7265 -0.0780 -0.2903
  912TIP3    H1 2742   1.810   2.801   4.552 -1.4803 -0.4928  0.5253
  912TIP3    H2 2743   1.883   2.669   4.534 -0.3025  0.3187 -0.8554
  913TIP3   OH2 2744   5.069   4.454   3.325  0.4006 -0.6222 -0.3457
  913TIP3    H1 2745   5.042   4.441   3.416  1.2351  2.3268  0.4415
  913TIP3    H2 2746   5.144   4.396   3.313 -0.6772 -2.1956  0.3136
  914TIP3   OH2 2747   1.190   3.215   4.479  0.1578  0.6779  0.1498
  914TIP3    H1 2748   1.230   3.145   4.531 -1.0562 -1.3862 -1.5165
  914TIP3    H2 2749   1.105   3.230   4.521  0.2958  0.9406  0.3347
  915TIP3   OH2 2750   0.167   2.435   2.802  0.1824 -0.2275  0.4448
  915TIP3    H1 2751   0.079   2.444   2.766  0.2902 -0.5854  0.0954
  915TIP3    H2 2752   0.224   2.426   2.726  0.6821  1.2577  0.6003
  916TIP3   OH2 2753   0.020   4.434   4.173  0.2071  0.0349  0.0011
  916TIP3    H1 2754   0.075   4.500   4.130 -0.8793  0.7337 -0.3559
  916TIP3    H2 2755  -0.033   4.485   4.235 -0.8943 -0.4439 -0.5275
  917TIP3   OH2 2756   5.661   2.260   0.933 -0.3744  0.5435 -0.0310
  917TIP3    H1 2757   5.700   2.239   1.018  0.1431  1.8014  0.0658
  917TIP3    H2 2758   5.727   2.312   0.888 -1.1184  0.9193 -0.7275
  918TIP3   OH2 2759   3.698   4.836   1.259  0.0108  0.1772 -0.0329
  918TIP3    H1 2760   3.755   4.760   1.248 -0.0575  0.2869 -1.2415
  918TIP3    H2 2761   3.631   4.807   1.321 -0.4865 -1.0349 -1.0989
  919TIP3   OH2 2762   2.981   4.134   2.722  0.2809 -0.2095 -0.3987
  919TIP3    H1 2763   2.960   4.042   2.733 -0.4887 -0.0282 -0.2574
  919TIP3    H2 2764   2.896   4.178   2.722  0.6429  0.5090 -0.3615
  920TIP3   OH2 2765   5.100   1.383   4.963  0.1687 -0.1210  0.0743
  920TIP3    H1 2766   5.077   1.307   4.910  1.5382 -0.2825 -0.3029
  920TIP3    H2 2767   5.174   1.355   5.016 -0.1316  0.5576  0.8751
  921TIP3   OH2 2768   3.474   5.167   0.159 -0.0457  0.5035 -0.0210
  921TIP3    H1 2769   3.476   5.117   0.077 -0.8778  0.4506 -0.0190
  921TIP3    H2 2770   3.566   5.176   0.184  0.1767 -0.0946 -0.5897
  922TIP3   OH2 2771   4.215   5.528   1.242  0.2167 -0.4900  0.5151
  922TIP3    H1 2772   4.303   5.536   1.205 -0.3734 -0.4876 -0.9508
  922TIP3    H2 2773   4.175   5.614   1.226 -0.0515 -0.4927  1.1720
  923TIP3   OH2 2774   0.395   1.496   4.596 -0.9360  0.1686  0.3155
  923TIP3    H1 2775   0.373   1.406   4.622 -0.3214 -0.3720 -0.9921
  923TIP3    H2 2776   0.393   1.495   4.501 -0.7181  1.5063  0.2788
  924TIP3   OH2 2777   3.349   5.696   3.407 -0.3863 -0.2734  0.4281
  924TIP3    H1 2778   3.383   5.658   3.326  1.3280 -0.6285  1.2679
  924TIP3    H2 2779   3.312   5.622   3.455 -3.3592  0.2259 -0.8500
  925TIP3   OH2 2780   0.486   0.552   2.389  0.2064  0.2731 -0.3726
  925TIP3    H1 2781   0.489   0.611   2.314 -2.0312 -0.5942 -1.2280
  925TIP3    H2 2782   0.394   0.525   2.395  0.8250 -1.7603  1.0422
  926TIP3   OH2 2783   0.995   5.257   1.661 -0.3372  0.1829  0.4673
  926TIP3    H1 2784   0.958   5.234   1.576  1.6684 -0.3817 -0.3185
  926TIP3    H2 2785   1.018   5.350   1.652 -0.8095  0.3238  0.6760
  927TIP3   OH2 2786   4.816   5.727   4.069 -0.0263  0.0595 -0.3001
  927TIP3    H1 2787   4.904   5.758   4.089 -0.0755  0.2497 -0.3661
  927TIP3    H2 2788   4.829   5.644   4.024  0.1134  0.0211 -0.1892
  928TIP3   OH2 2789   2.477   1.323   3.320 -0.0910 -0.8171  0.5314
  928TIP3    H1 2790   2.464   1.239   3.276 -1.6068 -0.1635 -0.3297
  928TIP3    H2 2791   2.392   1.343   3.358 -0.0835  0.8893 -0.2890
  929TIP3   OH2 2792   1.820   5.276   4.174  0.0651 -0.5859  0.0731
  929TIP3    H1 2793   1.852   5.258   4.263 -0.6250  0.2161  0.5040
  929TIP3    H2 2794   1.890   5.327   4.134  0.1847 -0.5507  0.3228
  930TIP3   OH2 2795   0.615   5.005   1.967  0.2321 -0.2698 -0.4874
  930TIP3    H1 2796   0.658   5.059   1.902  0.5812  0.5901  0.4391
  930TIP3    H2 2797   0.633   4.915   1.939  0.3103  0.0842 -1.6062
  931TIP3   OH2 2798   1.514   1.484   1.510  0.1121 -0.2192  0.0967
  931TIP3    H1 2799   1.505   1.517   1.421  1.5703  1.0770  0.3889
  931TIP3    H2 2800   1.426   1.495   1.548 -0.5723 -0.9940 -1.2240
  932TIP3   OH2 2801   3.089   2.622   1.755 -0.3980 -0.6038  0.1121
  932TIP3    H1 2802   3.160   2.589   1.809  0.1281 -0.0175 -0.2129
  932TIP3    H2 2803   3.031   2.668   1.816  0.2085  0.0804  0.1889
  933TIP3   OH2 2804   3.733   5.658   3.406  0.1601  0.2701 -0.1961
  933TIP3    H1 2805   3.802   5.619   3.354 -0.0776 -0.6687  0.1793
  933TIP3    H2 2806   3.745   5.752   3.394  1.2205  0.1137 -0.4862
  934TIP3   OH2 2807   5.363   2.093   5.007  0.4370 -0.2228 -0.0421
  934TIP3    H1 2808   5.416   2.066   4.932 -0.2641 -0.4517 -0.4570
  934TIP3    H2 2809   5.275   2.102   4.973  0.7561  3.9973 -0.3103
  935TIP3   OH2 2810   0.797   3.455   3.590  0.0460 -0.1280  0.3386
  935TIP3    H1 2811   0.750   3.378   3.557 -0.8272  0.1111  0.9728
  935TIP3    H2 2812   0.738   3.528   3.573 -0.1648  0.0833  1.8097
  936TIP3   OH2 2813   0.195   1.432   0.302  0.5432  0.8585  0.2014
  936TIP3    H1 2814   0.231   1.355   0.257  0.0456  1.2322 -0.8654
  936TIP3    H2 2815   0.242   1.435   0.385  2.7524  1.1189 -0.9803
  937TIP3   OH2 2816   4.904   3.108   0.163 -0.4485 -0.6891 -0.1312
  937TIP3    H1 2817   4.925   3.016   0.173 -0.1107 -0.6490 -0.4191
  937TIP3    H2 2818   4.830   3.110   0.103 -0.8303 -0.8003  0.3361
  938TIP3   OH2 2819   1.072   0.075   3.808 -0.0711  0.5349 -0.0661
  938TIP3    H1 2820   1.038   0.042   3.892 -1.2307 -0.6905 -0.9737
  938TIP3    H2 2821   1.166   0.082   3.822 -0.1201 -0.5655  1.0695
  939TIP3   OH2 2822   3.587   5.304   4.517  0.2324  0.6947 -0.0199
  939TIP3    H1 2823   3.628   5.389   4.503  0.5731  0.6353  0.5872
  939TIP3    H2 2824   3.538   5.287   4.437 -0.0272  1.5666 -0.0487
  940TIP3   OH2 2825   0.967   3.420   2.380  0.1643  0.6046  0.1466
  940TIP3    H1 2826   1.056   3.423   2.345  0.3340 -0.2749  0.4879
  940TIP3    H2 2827   0.936   3.332   2.359 -1.1522  1.3563 -1.2411
  941TIP3   OH2 2828   1.657   0.840   3.782  0.2791  0.1655 -0.3211
  941TIP3    H1 2829   1.741   0.803   3.809  0.6795  0.1382 -1.5233
  941TIP3    H2 2830   1.645   0.916   3.839  2.7602  2.1398 -2.1647
  942TIP3   OH2 2831   5.114   0.898   3.459 -0.0755  0.0564  0.3631
  942TIP3    H1 2832   5.170   0.975   3.454 -0.3206  0.2877  1.1379
  942TIP3    H2 2833   5.075   0.901   3.546 -0.2177 -0.8519  0.3477
  943TIP3   OH2 2834   3.744   0.901   0.329  0.0716  0.3441 -0.0581
  943TIP3    H1 2835   3.663   0.948   0.311 -0.5067 -0.4740  0.3194
  943TIP3    H2 2836   3.759   0.846   0.252 -0.4094 -0.4138  0.3732
  944TIP3   OH2 2837   5.141   1.882   4.249 -0.2178  0.3314 -0.3223
  944TIP3    H1 2838   5.123   1.901   4.157  0.1693 -0.5472 -0.5993
  944TIP3    H2 2839   5.207   1.812   4.246  0.0194  0.4978  0.6235
  945TIP3   OH2 2840   5.413   2.028   1.510  0.2629 -0.1497 -0.5549
  945TIP3    H1 2841   5.486   2.084   1.535  0.2319  0.2203 -1.2514
  945TIP3    H2 2842   5.367   2.010   1.592 -0.5165  1.9835 -0.4393
  946TIP3   OH2 2843   6.122   2.034   4.463 -0.2642  0.7765  0.5934
  946TIP3    H1 2844   6.184   1.970   4.429 -1.4566 -1.6501  2.6501
  946TIP3    H2 2845   6.060   2.048   4.391  1.0131  1.0324 -0.4847
  947TIP3   OH2 2846   5.982   2.310   5.038 -0.0078 -0.6552 -0.0787
  947TIP3    H1 2847   5.972   2.405   5.044 -0.7321 -0.7504  0.3601
  947TIP3    H2 2848   6.059   2.290   5.091  0.9904 -0.1747 -1.3168
  948TIP3   OH2 2849   5.516   3.859   0.936  0.2549  0.2905 -0.6510
  948TIP3    H1 2850   5.586   3.827   0.992 -0.7597  0.2365  0.6140
  948TIP3    H2 2851   5.551   3.940   0.899  1.0037  0.2328 -0.1058
  949TIP3   OH2 2852   4.279   4.040   1.099  0.2152  0.3181 -0.0286
  949TIP3    H1 2853   4.331   3.981   1.046 -0.0041  0.0935  0.0041
  949TIP3    H2 2854   4.230   3.983   1.158  1.5023  0.6075  1.4026
  950TIP3   OH2 2855   3.762   0.366   3.276 -0.2620 -0.5399  0.0423
  950TIP3    H1 2856   3.787   0.407   3.358  1.7656 -0.0272 -0.7763
  950TIP3    H2 2857   3.706   0.430   3.233 -0.9052 -0.5983  0.7748
  951TIP3   OH2 2858   2.614   3.084   3.448  0.4163 -0.1121  0.5205
  951TIP3    H1 2859   2.660   3.060   3.367  2.3993  0.3891  1.4237
  951TIP3    H2 2860   2.608   3.002   3.498 -0.3995 -0.3337  0.0641
  952TIP3   OH2 2861   0.475   0.453   3.716 -0.2219 -0.0787  0.1387
  952TIP3    H1 2862   0.514   0.376   3.758 -0.9472 -0.1919  0.6216
  952TIP3    H2 2863   0.405   0.479   3.776 -2.3654 -1.2005 -1.7372
  953TIP3   OH2 2864   4.095   3.906   0.693 -0.3079 -0.3052 -0.2673
  953TIP3    H1 2865   4.121   3.814   0.701  0.2838 -0.3777 -2.4616
  953TIP3    H2 2866   4.047   3.924   0.774 -0.3044 -2.4830  0.2873
  954TIP3   OH2 2867   5.705   2.325   3.559  0.1013  0.0292  0.2919
  954TIP3    H1 2868   5.716   2.345   3.652  1.1464  1.8631 -0.1721
  954TIP3    H2 2869   5.628   2.375   3.533 -0.5460 -0.9559  0.2813
  955TIP3   OH2 2870   5.043   2.631   0.097 -0.0881  0.1794 -0.3008
  955TIP3    H1 2871   5.086   2.550   0.070  0.5937  0.9599 -1.6767
  955TIP3    H2 2872   5.032   2.622   0.191  1.6011 -0.7684 -0.1507
  956TIP3   OH2 2873   1.442   5.245   1.827  0.5213  0.1942  0.1678
  956TIP3    H1 2874   1.435   5.339   1.840  0.1709  0.0662  0.9416
  956TIP3    H2 2875   1.534   5.231   1.803  0.3258  0.8485 -1.0624
  957TIP3   OH2 2876   4.447   1.963   1.300  0.3576 -0.1654  0.3245
  957TIP3    H1 2877   4.494   1.884   1.272 -1.3959 -0.8687 -0.8209
  957TIP3    H2 2878   4.390   1.933   1.371 -0.7335 -0.0833 -0.4998
  958TIP3   OH2 2879   2.722   0.129   1.322  0.1967  0.2434  0.2698
  958TIP3    H1 2880   2.732   0.202   1.261  0.0830 -0.8130 -1.0466
  958TIP3    H2 2881   2.674   0.062   1.273 -0.3143 -0.4621  1.6706
  959TIP3   OH2 2882   4.408   4.333   0.911 -0.1654 -0.5396 -0.6045
  959TIP3    H1 2883   4.501   4.341   0.890 -0.5121  0.8914 -1.7532
  959TIP3    H2 2884   4.376   4.264   0.853  0.3197 -1.6708  0.4195
  960TIP3   OH2 2885   2.600   2.287   4.197 -0.0086 -0.3677  0.2292
  960TIP3    H1 2886   2.554   2.370   4.183  0.2990 -0.3097 -0.5002
  960TIP3    H2 2887   2.534   2.220   4.176 -0.0317 -0.2976  0.0758
  961TIP3   OH2 2888   4.928   3.392   1.552  0.0849  0.2985 -0.3373
  961TIP3    H1 2889   4.992   3.463   1.542 -0.1938  0.4300 -1.2302
  961TIP3    H2 2890   4.898   3.373   1.463 -2.4071  1.3961  0.1962
  962TIP3   OH2 2891   4.338   0.660   0.456 -0.2429  0.4226  0.3559
  962TIP3    H1 2892   4.358   0.753   0.460 -0.0734  0.4691 -1.0986
  962TIP3    H2 2893   4.262   0.649   0.513 -0.4430  1.4938  0.3114
  963TIP3   OH2 2894   5.181   3.977   3.217 -0.0698 -0.1169  0.4935
  963TIP3    H1 2895   5.243   4.037   3.259  0.7748  0.2651 -1.1935
  963TIP3    H2 2896   5.198   3.893   3.257  1.1371  0.1158  0.4997
  964TIP3   OH2 2897   1.882   1.796   1.015  0.1954 -0.3034  0.2260
  964TIP3    H1 2898   1.806   1.790   0.958  0.8845 -3.2853 -0.5559
  964TIP3    H2 2899   1.851   1.763   1.099 -0.1924  1.8101  0.9774
  965TIP3   OH2 2900   4.243  -0.007   2.222 -0.0470 -0.2134  1.3173
  965TIP3    H1 2901   4.227   0.006   2.316  0.6441  0.9221  1.3062
  965TIP3    H2 2902   4.226   0.079   2.183  2.7255  0.2537  0.8856
  966TIP3   OH2 2903   3.302   3.972   1.287 -0.1783  0.3835 -0.0921
  966TIP3    H1 2904   3.252   3.928   1.355 -1.7378 -1.5738 -2.3657
  966TIP3    H2 2905   3.393   3.965   1.316 -0.5073 -2.9979  0.4545
  967TIP3   OH2 2906   2.881   1.301   0.159 -0.0265  0.0912  0.6825
  967TIP3    H1 2907   2.790   1.279   0.178  0.3162 -0.4355  1.8626
  967TIP3    H2 2908   2.877   1.380   0.106 -1.2112 -0.8268 -0.6642
  968TIP3   OH2 2909   3.724   3.227   0.169 -0.1496  1.1681 -0.0616
  968TIP3    H1 2910   3.752   3.236   0.260 -2.1824 -1.6655  0.9896
  968TIP3    H2 2911   3.797   3.184   0.125 -0.4525 -0.8083  1.2153
  969TIP3   OH2 2912   5.853   1.138   4.233 -0.0354 -0.4972  0.6268
  969TIP3    H1 2913   5.762   1.160   4.251  0.1026  1.6511 -0.9083
  969TIP3    H2 2914   5.896   1.223   4.218  1.5720 -1.5852 -1.5040
  970TIP3   OH2 2915   1.642   3.692   3.008 -0.1010  0.1873  0.3513
  970TIP3    H1 2916   1.706   3.651   3.066 -0.3337 -1.2411 -0.3526
  970TIP3    H2 2917   1.585   3.742   3.067 -0.3102 -1.1856  1.3635
  971TIP3   OH2 2918   0.625   5.432   2.830 -0.3261  0.2894 -0.2156
  971TIP3    H1 2919   0.607   5.351   2.879 -0.1742 -0.3213 -1.1453
  971TIP3    H2 2920   0.610   5.502   2.894  0.0117 -0.4863  0.7479
  972TIP3   OH2 2921   1.427   4.011   4.656 -0.0370 -0.2395 -0.1049
  972TIP3    H1 2922   1.346   4.061   4.643  1.2229  2.1057  0.4596
  972TIP3    H2 2923   1.398   3.927   4.692 -2.1402  1.0523  1.4634
  973TIP3   OH2 2924   5.334   5.592   3.984  0.1717  0.0698 -0.1869
  973TIP3    H1 2925   5.354   5.498   3.984 -0.0151  0.0193  0.9428
  973TIP3    H2 2926   5.332   5.616   3.891  0.3813 -1.0079 -0.4826
  974TIP3   OH2 2927   3.855   2.600   2.618  0.0134 -0.1956  0.1943
  974TIP3    H1 2928   3.948   2.580   2.633  0.0952  0.0300 -0.0091
  974TIP3    H2 2929   3.811   2.571   2.698  0.2348 -0.4693  0.2198
  975TIP3   OH2 2930   0.519   3.544   4.812 -0.2253  0.3409  0.1054
  975TIP3    H1 2931   0.425   3.532   4.818 -0.5716  2.3146 -0.6210
  975TIP3    H2 2932   0.553   3.516   4.897 -1.3635 -0.8942  0.1908
  976TIP3   OH2 2933   6.299   0.432   1.422  0.6701  0.4201 -0.5481
  976TIP3    H1 2934   6.246   0.510   1.440  0.5208  0.2104 -0.0743
  976TIP3    H2 2935   6.328   0.444   1.331 -0.5725  0.3130 -0.9875
  977TIP3   OH2 2936   0.545   1.638   4.821  0.2439  0.3486  0.3138
  977TIP3    H1 2937   0.619   1.598   4.777 -0.6746  0.6122 -1.5513
  977TIP3    H2 2938   0.474   1.634   4.757 -0.6776  2.3110  1.1451
  978TIP3   OH2 2939   3.796   3.246   0.433 -0.6111  0.0892 -0.2619
  978TIP3    H1 2940   3.833   3.334   0.429  1.4992 -0.8013 -2.0275
  978TIP3    H2 2941   3.792   3.226   0.527 -1.9134  2.3237  0.2167
  979TIP3   OH2 2942   4.236   4.981   2.169 -0.6587 -0.0724 -0.2906
  979TIP3    H1 2943   4.278   5.054   2.216 -1.0925 -0.0218  0.0244
  979TIP3    H2 2944   4.230   5.012   2.078  0.8380 -0.4529 -0.5554
  980TIP3   OH2 2945   3.265   2.571   1.541  0.0110  0.0087  1.0409
  980TIP3    H1 2946   3.203   2.632   1.580 -1.3428  0.4206 -1.5142
  980TIP3    H2 2947   3.278   2.504   1.607 -2.2917  0.5198  2.1138
  981TIP3   OH2 2948   1.026   1.066   0.162  0.1487  0.0020  0.2858
  981TIP3    H1 2949   0.940   1.062   0.204 -1.3589  0.2043 -2.5809
  981TIP3    H2 2950   1.045   1.159   0.157 -0.4215  0.0715 -0.8304
  982TIP3   OH2 2951   0.747   3.854   3.358  0.5157 -0.4654  0.0477
  982TIP3    H1 2952   0.817   3.789   3.369  1.7049  0.8496  0.6475
  982TIP3    H2 2953   0.758   3.885   3.268 -1.5448 -2.6623 -1.0864
  983TIP3   OH2 2954   2.962   3.040   1.561  0.4462 -0.0907 -0.4497
  983TIP3    H1 2955   2.939   2.956   1.522 -0.3587  0.3275 -0.8977
  983TIP3    H2 2956   2.901   3.103   1.522 -0.3510  0.3719  1.4003
  984TIP3   OH2 2957   6.130   2.584   2.223  0.1349 -0.2604  0.0737
  984TIP3    H1 2958   6.136   2.633   2.141 -0.5925 -0.8221 -0.3226
  984TIP3    H2 2959   6.215   2.540   2.230 -0.5765 -2.0388 -1.5722
  985TIP3   OH2 2960   0.378   4.382   0.286  0.0593  0.8450  0.5813
  985TIP3    H1 2961   0.434   4.440   0.337 -0.1463  0.8121  0.8442
  985TIP3    H2 2962   0.329   4.332   0.351 -1.4881  2.0281  0.3621
  986TIP3   OH2 2963   3.214   2.608   4.939  0.5485 -0.1981 -0.3303
  986TIP3    H1 2964   3.234   2.610   5.033 -0.1547  2.1123 -0.1758
  986TIP3    H2 2965   3.285   2.557   4.901  0.4896 -1.7781  1.5111
  987TIP3   OH2 2966   4.483   2.929   3.521  0.0257 -0.4066 -0.1469
  987TIP3    H1 2967   4.577   2.910   3.516  0.2047  0.0864  0.9902
  987TIP3    H2 2968   4.442   2.844   3.539  0.3051 -0.5389 -0.1305
  988TIP3   OH2 2969   3.590   5.930   0.742  0.6439  0.2813  0.3640
  988TIP3    H1 2970   3.502   5.894   0.727  1.0136 -0.6587  0.4245
  988TIP3    H2 2971   3.598   5.933   0.837  0.3831  1.1215  0.3688
  989TIP3   OH2 2972   4.561   1.940   1.952  0.6603 -0.0258  0.0739
  989TIP3    H1 2973   4.503   1.972   2.021 -0.3043 -0.6222 -0.4350
  989TIP3    H2 2974   4.637   1.906   1.999 -0.7685 -2.1320  1.0458
  990TIP3   OH2 2975   2.522   1.088   2.131  0.0280 -0.0195 -0.6828
  990TIP3    H1 2976   2.480   1.107   2.047  0.4095 -1.2247 -1.1800
  990TIP3    H2 2977   2.604   1.136   2.129 -0.7236  1.3287 -0.2477
  991TIP3   OH2 2978   4.489   3.422   4.564  0.1081 -0.1764  0.7616
  991TIP3    H1 2979   4.437   3.382   4.634  0.6785  0.3026  1.4752
  991TIP3    H2 2980   4.561   3.466   4.610 -0.2008  1.2158 -0.0310
  992TIP3   OH2 2981   1.671   4.271   2.377 -0.0491  0.1080 -0.2949
  992TIP3    H1 2982   1.588   4.284   2.332  0.0390  0.7718 -0.2633
  992TIP3    H2 2983   1.687   4.352   2.425 -0.2615 -0.6817  1.1667
  993TIP3   OH2 2984   5.949   2.114   1.793  0.0849  0.3163  0.0948
  993TIP3    H1 2985   5.909   2.186   1.746 -1.0587 -0.9918 -1.0278
  993TIP3    H2 2986   6.038   2.143   1.812  0.3175  1.2099 -2.1807
  994TIP3   OH2 2987   3.996   3.302   4.850  0.0964  0.2536  0.4391
  994TIP3    H1 2988   3.995   3.391   4.886 -0.6312  1.1171 -1.5811
  994TIP3    H2 2989   4.024   3.314   4.759  0.4665 -1.6580  0.2772
  995TIP3   OH2 2990   0.793   4.658   2.370  0.3105 -0.1646 -0.5208
  995TIP3    H1 2991   0.824   4.746   2.352 -0.9283  0.1501 -1.2258
  995TIP3    H2 2992   0.751   4.664   2.456  0.7254 -0.2186 -0.3081
  996TIP3   OH2 2993   0.835   3.527   0.701  0.1840  0.1749 -0.3250
  996TIP3    H1 2994   0.805   3.526   0.792  0.6499  0.7308 -0.1577
  996TIP3    H2 2995   0.930   3.529   0.708  0.2194  0.2550 -0.8248
  997TIP3   OH2 2996   3.999   4.262   4.958  0.4773  0.6134 -0.0658
  997TIP3    H1 2997   4.047   4.337   4.923  0.3489  0.3116 -0.8925
  997TIP3    H2 2998   3.907   4.281   4.938  0.5280 -0.1909 -1.0886
  998TIP3   OH2 2999   2.527   5.445   3.384  0.9560 -0.0532 -0.1290
  998TIP3    H1 3000   2.498   5.501   3.312  2.0600 -0.5180 -0.9567
  998TIP3    H2 3001   2.623   5.447   3.379  1.0220 -1.5851  0.1563
  999TIP3   OH2 3002   3.450   4.327   2.128  0.8424  0.5273  0.1526
  999TIP3    H1 3003   3.453   4.308   2.034  0.0018 -0.8407  0.3693
  999TIP3    H2 3004   3.478   4.245   2.169 -2.0164 -0.0703  1.1447
 1000TIP3   OH2 3005   5.971   4.947   4.702  0.5262 -0.1451  0.2341
 1000TIP3    H1 3006   6.021   5.028   4.711  0.0157  0.3125 -0.9151
 1000TIP3    H2 3007   6.037   4.878   4.695  1.0610  0.5168 -1.9093
 1001TIP3   OH2 3008   3.837   1.790   2.462  0.2208  0.3088 -0.8383
 1001TIP3    H1 3009   3.847   1.698   2.485 -1.2301  0.4298  0.4411
 1001TIP3    H2 3010   3.743   1.806   2.465  0.4993  2.0757  0.0665
 1002TIP3   OH2 3011   1.902   4.989   4.949 -0.0993  0.4506 -0.0822
 1002TIP3    H1 3012   1.979   5.015   4.899 -0.8468  1.8942 -0.5204
 1002TIP3    H2 3013   1.890   5.058   5.013 -0.3685 -0.3484  0.7483
 1003TIP3   OH2 3014   4.689   2.581   0.673 -0.0915 -0.4632  0.2484
 1003TIP3    H1 3015   4.761   2.533   0.714 -0.4194 -1.2593 -0.1037
 1003TIP3    H2 3016   4.690   2.553   0.582  1.1064  1.8448 -0.5249
 1004TIP3   OH2 3017   2.869   3.226   2.472  0.2235 -0.6964  0.1200
 1004TIP3    H1 3018   2.798   3.162   2.479 -0.5626 -0.0855 -1.7002
 1004TIP3    H2 3019   2.865   3.275   2.554 -0.9167 -1.2290  0.4030
 1005TIP3   OH2 3020   3.325   2.653   4.285 -0.3571 -0.1054 -0.1871
 1005TIP3    H1 3021   3.271   2.575   4.274 -0.5583 -0.5208  2.9332
 1005TIP3    H2 3022   3.410   2.619   4.315  0.0186  0.8176 -0.1813
 1006TIP3   OH2 3023   1.248   0.547   1.517 -0.2421 -0.0319  0.1933
 1006TIP3    H1 3024   1.179   0.499   1.563  0.4556  0.4121  1.7575
 1006TIP3    H2 3025   1.298   0.480   1.471 -2.1059 -0.3019 -1.5721
 1007TIP3   OH2 3026   0.701   0.886   3.413 -0.5117 -0.5285 -0.1265
 1007TIP3    H1 3027   0.777   0.878   3.470 -1.8544  1.6074  2.1558
 1007TIP3    H2 3028   0.733   0.860   3.326  2.0467 -2.3249  1.2235
 1008TIP3   OH2 3029   3.465   1.357   3.880 -0.1129 -0.1815 -0.2247
 1008TIP3    H1 3030   3.437   1.308   3.803 -1.8475  1.1506 -0.5125
 1008TIP3    H2 3031   3.542   1.405   3.851 -0.0232 -0.6333 -0.7477
 1009TIP3   OH2 3032   0.575   5.868   1.955  0.0431  0.3166 -0.4514
 1009TIP3    H1 3033   0.622   5.798   2.000 -0.6433  0.3341  0.3350
 1009TIP3    H2 3034   0.622   5.880   1.873  0.3777 -0.8242 -0.4458
 1010TIP3   OH2 3035   2.414   4.634   2.656 -0.5702  0.2962 -0.1833
 1010TIP3    H1 3036   2.319   4.628   2.647 -0.6146  1.3596 -0.5106
 1010TIP3    H2 3037   2.440   4.705   2.598 -0.0470  2.5851  2.6395
 1011TIP3   OH2 3038   1.569   3.286   4.612  0.0608 -0.1029  0.6749
 1011TIP3    H1 3039   1.603   3.307   4.525 -0.6037  0.0575  0.4492
 1011TIP3    H2 3040   1.646   3.257   4.661  0.9384  2.1955  0.8009
 1012TIP3   OH2 3041   1.765   0.052   3.074 -0.0168 -0.9420 -0.8368
 1012TIP3    H1 3042   1.816  -0.028   3.084  0.8630 -0.1508  1.9453
 1012TIP3    H2 3043   1.810   0.101   3.005  0.0091 -2.3715 -1.8684
 1013TIP3   OH2 3044   3.461   5.813   1.683 -0.1218  0.2836 -0.1163
 1013TIP3    H1 3045   3.551   5.801   1.711 -0.1795  1.4243  0.6592
 1013TIP3    H2 3046   3.408   5.776   1.754 -0.2631  0.4259 -0.1459
 1014TIP3   OH2 3047   3.076   4.777   0.854  0.3720 -0.5039 -0.0540
 1014TIP3    H1 3048   3.102   4.691   0.821  1.7800  0.3905 -1.4060
 1014TIP3    H2 3049   2.994   4.797   0.808  0.7753 -0.5413 -0.8035
 1015TIP3   OH2 3050   5.535   1.596   1.224 -0.0337 -0.0677  0.2001
 1015TIP3    H1 3051   5.505   1.602   1.315  0.1804  1.2437  0.2082
 1015TIP3    H2 3052   5.471   1.646   1.174 -1.2167 -2.3334 -0.6889
 1016TIP3   OH2 3053   5.461   3.871   3.230  0.6282  0.0749  0.0634
 1016TIP3    H1 3054   5.528   3.938   3.241 -0.3783  1.0768  0.3015
 1016TIP3    H2 3055   5.445   3.837   3.318 -0.9050  1.5920  0.4086
 1017TIP3   OH2 3056   6.192   2.345   3.387  0.2586 -0.1260  0.7630
 1017TIP3    H1 3057   6.131   2.416   3.366 -0.5756 -1.3375 -1.2430
 1017TIP3    H2 3058   6.273   2.389   3.409  0.1650  1.4957 -1.7294
 1018TIP3   OH2 3059   2.108   5.844   4.836 -0.1375 -0.2537  0.4244
 1018TIP3    H1 3060   2.052   5.832   4.759  1.1827  1.8343 -0.9713
 1018TIP3    H2 3061   2.112   5.758   4.876 -0.5553 -1.5463 -2.0863
 1019TIP3   OH2 3062   1.815   1.067   0.302 -0.6556 -0.3736  0.5930
 1019TIP3    H1 3063   1.838   1.113   0.221 -0.9556  1.6373  1.5851
 1019TIP3    H2 3064   1.734   1.021   0.281 -0.0187 -0.9799 -0.6176
 1020TIP3   OH2 3065   6.230   3.951   1.629 -0.0369  0.1659  0.5486
 1020TIP3    H1 3066   6.135   3.964   1.628  0.1308  1.8225 -1.8232
 1020TIP3    H2 3067   6.266   4.040   1.634  1.3461 -0.2108 -1.5486
 1021TIP3   OH2 3068   4.489   1.151   4.729  0.2321 -0.4040 -0.1773
 1021TIP3    H1 3069   4.397   1.125   4.740 -0.0661  0.7287  0.0556
 1021TIP3    H2 3070   4.537   1.068   4.738 -0.8009 -1.1346 -1.0554
 1022TIP3   OH2 3071   3.176   0.340   0.384  0.2623  0.4680  0.0933
 1022TIP3    H1 3072   3.236   0.397   0.432 -0.1290  1.1351 -0.1958
 1022TIP3    H2 3073   3.232   0.289   0.326  0.6547  0.2777  0.6316
 1023TIP3   OH2 3074   6.051   2.378   2.919  0.5064 -0.8646 -0.0314
 1023TIP3    H1 3075   5.965   2.376   2.961  0.4923  0.1894  0.0228
 1023TIP3    H2 3076   6.066   2.288   2.889 -0.1640 -1.2892  0.8592
 1024TIP3   OH2 3077   4.785   5.106   3.556 -0.1093  0.4081 -0.1704
 1024TIP3    H1 3078   4.721   5.105   3.485 -0.0057  1.0917 -0.2804
 1024TIP3    H2 3079   4.808   5.198   3.567 -1.7754  0.6147  2.2547
 1025TIP3   OH2 3080   0.433   2.643   2.891 -0.7148  0.1142 -0.0492
 1025TIP3    H1 3081   0.412   2.551   2.878  0.4631  0.1596 -3.0484
 1025TIP3    H2 3082   0.475   2.670   2.809 -0.4054  3.1522  0.9827
 1026TIP3   OH2 3083   1.666   2.824   0.683  0.1389 -0.3755  0.2156
 1026TIP3    H1 3084   1.622   2.835   0.767  0.3235 -1.3231  0.4522
 1026TIP3    H2 3085   1.755   2.855   0.699 -0.5582  2.1997 -0.4518
 1027TIP3   OH2 3086   5.529   3.208   4.740 -0.7640 -0.6227 -0.3537
 1027TIP3    H1 3087   5.485   3.126   4.762 -0.0123 -1.6014 -2.2547
 1027TIP3    H2 3088   5.535   3.207   4.644  0.6836  0.8928 -0.3188
 1028TIP3   OH2 3089   6.058   0.924   4.740 -0.2518 -0.4400  0.2481
 1028TIP3    H1 3090   6.093   0.842   4.774  0.8854  0.3243  1.0203
 1028TIP3    H2 3091   5.970   0.930   4.779 -0.4637 -1.4171 -0.0567
 1029TIP3   OH2 3092   4.208   1.175   4.992 -0.1866 -0.3905 -0.1119
 1029TIP3    H1 3093   4.296   1.201   5.019  0.6879  1.1566 -3.7681
 1029TIP3    H2 3094   4.206   1.080   5.004  1.8622 -0.4267  0.3658
 1030TIP3   OH2 3095   0.631   4.483   0.928 -0.1513  0.2431  0.3569
 1030TIP3    H1 3096   0.619   4.390   0.944  2.2859 -0.7888 -2.7772
 1030TIP3    H2 3097   0.566   4.504   0.860 -1.1416  1.0565  1.5139
 1031TIP3   OH2 3098   3.648   4.164   0.044 -0.1598  0.1076 -0.3474
 1031TIP3    H1 3099   3.653   4.101   0.116 -2.5125 -1.4614 -1.4367
 1031TIP3    H2 3100   3.683   4.245   0.081  0.2122 -1.0587  2.0409
 1032TIP3   OH2 3101   0.331   4.079   2.989 -0.1705  0.0910 -0.2744
 1032TIP3    H1 3102   0.285   4.143   3.044 -0.7825 -1.2911  0.8841
 1032TIP3    H2 3103   0.414   4.063   3.035 -0.3251 -0.4574 -0.1821
 1033TIP3   OH2 3104   1.703   0.412   4.544  0.2224  0.1495 -0.7956
 1033TIP3    H1 3105   1.761   0.340   4.520 -0.3230 -0.9069  0.8690
 1033TIP3    H2 3106   1.616   0.383   4.514 -0.0374 -0.0204  0.0914
 1034TIP3   OH2 3107   6.199   4.828   3.896 -0.2013  0.2766  0.5616
 1034TIP3    H1 3108   6.281   4.780   3.891 -0.1465  0.4940 -1.1713
 1034TIP3    H2 3109   6.139   4.778   3.840 -1.1683  0.2939  1.5548
 1035TIP3   OH2 3110   0.350   3.848   3.474  0.0407  0.2197  0.1373
 1035TIP3    H1 3111   0.369   3.849   3.380 -0.1007  1.8903  0.0980
 1035TIP3    H2 3112   0.434   3.823   3.515  1.2418  3.2323 -0.2705
 1036TIP3   OH2 3113   6.050   5.980   3.799 -0.1373  0.3660 -0.1939
 1036TIP3    H1 3114   5.972   5.930   3.826  0.0531 -0.6051 -1.3370
 1036TIP3    H2 3115   6.121   5.917   3.803  0.5164  1.1324  0.3950
 1037TIP3   OH2 3116   0.870   2.237   2.150 -0.3804 -0.3623 -0.7157
 1037TIP3    H1 3117   0.952   2.286   2.146  0.4313 -1.6749 -1.0036
 1037TIP3    H2 3118   0.862   2.211   2.242  0.0867 -1.1068 -0.8752
 1038TIP3   OH2 3119   2.083   4.574   1.075  0.3445 -0.1266 -0.0664
 1038TIP3    H1 3120   2.153   4.582   1.010  0.5109  0.2598  0.1569
 1038TIP3    H2 3121   2.121   4.610   1.155  0.3812 -1.2389  0.4314
 1039TIP3   OH2 3122   3.582   0.759   1.270 -0.3611 -0.5765  1.0200
 1039TIP3    H1 3123   3.566   0.824   1.201 -0.7163 -1.5742  0.1461
 1039TIP3    H2 3124   3.571   0.675   1.227 -0.2390 -1.2273  2.2231
 1040TIP3   OH2 3125   3.434   5.223   3.012  0.3268  0.3404  0.0625
 1040TIP3    H1 3126   3.396   5.135   3.019  1.4259 -0.1750 -0.1574
 1040TIP3    H2 3127   3.380   5.267   2.946 -0.9786  0.2524  1.0355
 1041TIP3   OH2 3128   5.388   0.667   1.924  0.3921  0.3240 -0.0667
 1041TIP3    H1 3129   5.460   0.638   1.868  1.0280  1.5249  0.1095
 1041TIP3    H2 3130   5.425   0.669   2.012 -0.6085 -1.5950  0.4606
 1042TIP3   OH2 3131   2.161   3.191   4.853 -0.1659  0.1919  0.1558
 1042TIP3    H1 3132   2.250   3.158   4.850 -0.1781  0.1186  0.6169
 1042TIP3    H2 3133   2.150   3.238   4.770  0.3456  0.3199  0.1606
 1043TIP3   OH2 3134   2.922   3.543   4.191 -0.0659  0.6772  0.0958
 1043TIP3    H1 3135   2.926   3.628   4.148  2.2866  0.1334 -0.8969
 1043TIP3    H2 3136   2.933   3.480   4.120 -3.7678 -0.6465  0.4965
 1044TIP3   OH2 3137   2.770   0.814   3.187 -0.8659 -0.2132 -0.4593
 1044TIP3    H1 3138   2.847   0.805   3.242 -0.4112  2.0669 -0.6159
 1044TIP3    H2 3139   2.696   0.818   3.248 -0.4784  1.1785 -0.0540
 1045TIP3   OH2 3140   3.681   0.619   0.460  0.1657  0.5436 -0.3043
 1045TIP3    H1 3141   3.765   0.583   0.488  0.2920 -0.2746 -1.6930
 1045TIP3    H2 3142   3.697   0.714   0.455  1.8530  0.2137 -3.1368
 1046TIP3   OH2 3143   2.999   5.829   4.760  0.0489 -0.0555 -0.5324
 1046TIP3    H1 3144   3.044   5.756   4.719 -2.0920 -1.6504 -0.2252
 1046TIP3    H2 3145   2.982   5.890   4.688  1.1880 -0.1964 -0.9395
 1047TIP3   OH2 3146   5.776   0.551   5.048  0.1431 -0.1202 -0.2021
 1047TIP3    H1 3147   5.720   0.557   5.126  0.4718 -0.2881  0.0461
 1047TIP3    H2 3148   5.818   0.466   5.054  0.9260  0.2681 -0.0470
 1048TIP3   OH2 3149   4.377   0.096   4.884 -0.0920  0.3731 -0.2155
 1048TIP3    H1 3150   4.327   0.018   4.861  0.1000  0.6146 -1.4899
 1048TIP3    H2 3151   4.407   0.080   4.974 -0.5689 -0.7379 -0.2464
 1049TIP3   OH2 3152   0.251   4.834   2.398  0.0939  0.6377  0.2541
 1049TIP3    H1 3153   0.279   4.836   2.307  1.3755  1.0217  0.6426
 1049TIP3    H2 3154   0.320   4.879   2.446 -0.9864  1.2385  1.3141
 1050TIP3   OH2 3155   3.597   2.473   3.404  0.1593  0.1088 -0.4243
 1050TIP3    H1 3156   3.603   2.551   3.458 -1.7382 -0.1758  0.2706
 1050TIP3    H2 3157   3.637   2.404   3.457 -3.1513 -0.5419  1.5417
 1051TIP3   OH2 3158   0.513   1.225   0.601 -0.6153  0.5986  0.3558
 1051TIP3    H1 3159   0.588   1.218   0.661 -0.9375  0.6772  0.7721
 1051TIP3    H2 3160   0.478   1.136   0.597 -1.8923  0.9872  1.9855
 1052TIP3   OH2 3161   6.300   4.611   3.626 -0.0721  0.0784 -0.1917
 1052TIP3    H1 3162   6.265   4.657   3.549  2.5693 -1.0630 -2.2300
 1052TIP3    H2 3163   6.387   4.648   3.637  0.1058 -0.7727  1.4266
 1053TIP3   OH2 3164   1.058   2.754   2.057 -0.1912  0.4674 -0.4644
 1053TIP3    H1 3165   1.031   2.710   1.976  1.4618  0.7506 -1.2140
 1053TIP3    H2 3166   1.118   2.692   2.099 -1.7688 -0.0733  1.0534
 1054TIP3   OH2 3167   1.860   5.965   1.761 -0.1753  0.0751 -0.3026
 1054TIP3    H1 3168   1.815   6.046   1.738 -1.1068  0.9229  3.8138
 1054TIP3    H2 3169   1.791   5.904   1.784  0.5834 -0.1513  1.5670
 1055TIP3   OH2 3170   3.905   2.635   3.954 -0.2600 -1.1483  0.4454
 1055TIP3    H1 3171   3.852   2.674   3.884  1.9132 -0.4482 -0.9242
 1055TIP3    H2 3172   3.866   2.548   3.968 -1.5068 -0.8219 -0.7321
 1056TIP3   OH2 3173   0.895   3.646   4.328  0.1718 -0.0390 -0.3326
 1056TIP3    H1 3174   0.815   3.697   4.313  0.5594  0.8184  0.4567
 1056TIP3    H2 3175   0.954   3.672   4.258  0.8572  1.6483  0.8127
 1057TIP3   OH2 3176   2.569   2.949   4.140  0.1107 -0.4871 -0.4865
 1057TIP3    H1 3177   2.655   2.971   4.105  1.3250 -1.8203  1.4687
 1057TIP3    H2 3178   2.547   3.022   4.197  0.7577 -0.9195  0.3328
 1058TIP3   OH2 3179   0.950   3.561   3.788  0.2611 -0.4015  0.4374
 1058TIP3    H1 3180   0.887   3.560   3.716  0.4620 -0.7126  0.2652
 1058TIP3    H2 3181   1.026   3.606   3.751  0.6382 -1.2030  0.2200
 1059TIP3   OH2 3182   0.315   3.998   2.706 -0.6069  0.1005  0.0779
 1059TIP3    H1 3183   0.328   4.018   2.799 -0.1978 -0.3943  0.1309
 1059TIP3    H2 3184   0.398   3.960   2.677 -0.1213  1.8072 -0.9268
 1060TIP3   OH2 3185   4.169   2.632   4.087 -0.1850  0.0475 -0.4461
 1060TIP3    H1 3186   4.165   2.550   4.136 -0.4328  0.0666 -0.4326
 1060TIP3    H2 3187   4.091   2.631   4.032 -1.2799  1.1880  1.0080
 1061TIP3   OH2 3188   4.553   4.489   1.312 -0.6392  0.1820 -0.5642
 1061TIP3    H1 3189   4.502   4.543   1.373 -0.3102 -0.5702  0.4004
 1061TIP3    H2 3190   4.494   4.418   1.288  0.0084 -0.8550  0.7867
 1062TIP3   OH2 3191   1.704   2.833   2.356 -0.7373  0.3624 -0.0472
 1062TIP3    H1 3192   1.642   2.839   2.284 -0.2287 -0.3405 -0.5682
 1062TIP3    H2 3193   1.651   2.808   2.432 -0.9541 -1.5233 -0.7601
 1063TIP3   OH2 3194   1.887   1.555   0.217 -0.2580 -0.0677 -0.1906
 1063TIP3    H1 3195   1.831   1.571   0.141  0.4443  2.8452 -0.2289
 1063TIP3    H2 3196   1.836   1.497   0.273 -1.9058 -0.1343 -1.6739
 1064TIP3   OH2 3197   0.633   3.045   3.070  0.5466 -0.1078 -0.1660
 1064TIP3    H1 3198   0.644   3.039   2.975 -1.9738 -0.1677 -0.5102
 1064TIP3    H2 3199   0.618   2.955   3.099 -0.7228  0.1275 -0.0344
 1065TIP3   OH2 3200   4.841   4.433   0.966 -0.1973  0.3864  0.3330
 1065TIP3    H1 3201   4.802   4.348   0.945  0.1214  0.0553  1.0813
 1065TIP3    H2 3202   4.769   4.483   1.005 -0.5787  0.7278 -0.7485
 1066TIP3   OH2 3203   5.188   4.309   0.075  0.6488  0.4205  0.5148
 1066TIP3    H1 3204   5.202   4.359  -0.005  1.8625  0.8957  0.9914
 1066TIP3    H2 3205   5.276   4.286   0.105  0.3245  1.4050  2.3979
 1067TIP3   OH2 3206   6.063   0.843   1.266 -0.4323 -0.3136  0.1819
 1067TIP3    H1 3207   5.983   0.792   1.252 -1.0490  0.6260  0.1874
 1067TIP3    H2 3208   6.069   0.899   1.189 -1.2090  1.4632  1.3445
 1068TIP3   OH2 3209   4.443   2.209   1.427 -0.7405 -0.1032  0.6605
 1068TIP3    H1 3210   4.412   2.183   1.515 -2.0642  1.0030  0.5630
 1068TIP3    H2 3211   4.434   2.129   1.375 -1.0864 -0.4720  1.2600
 1069TIP3   OH2 3212   3.118   5.168   3.853  0.1980  0.4964 -0.9669
 1069TIP3    H1 3213   3.079   5.107   3.790  0.5588  0.2590 -0.9658
 1069TIP3    H2 3214   3.064   5.160   3.931 -0.3388  0.8955 -1.2898
 1070TIP3   OH2 3215   2.639   0.598   1.296 -0.2829  0.3712  0.0711
 1070TIP3    H1 3216   2.734   0.594   1.286 -0.3333  0.9332 -0.7004
 1070TIP3    H2 3217   2.620   0.541   1.370  0.4644 -1.3238 -0.9944
 1071TIP3   OH2 3218   0.372   3.714   0.263  0.4654 -0.0853  0.2726
 1071TIP3    H1 3219   0.368   3.766   0.343 -0.6026  0.0491  0.1455
 1071TIP3    H2 3220   0.464   3.693   0.253  1.1171  2.6498 -0.2323
 1072TIP3   OH2 3221   4.427   2.515   1.661  0.0984 -0.0492 -0.1519
 1072TIP3    H1 3222   4.447   2.455   1.733 -0.9432  0.0653  0.2470
 1072TIP3    H2 3223   4.376   2.585   1.701  0.2582  0.4797 -0.8433
 1073TIP3   OH2 3224   3.196   2.930   0.778 -0.0910  0.3028  0.9061
 1073TIP3    H1 3225   3.123   2.977   0.818 -1.5751  2.0368 -3.2816
 1073TIP3    H2 3226   3.157   2.854   0.737 -0.0151  1.8540 -2.3980
 1074TIP3   OH2 3227   4.223   2.557   4.785 -0.0652 -0.2047 -1.0076
 1074TIP3    H1 3228   4.296   2.535   4.727  0.8001  0.3275 -0.1500
 1074TIP3    H2 3229   4.259   2.622   4.845 -1.6714  1.2384 -1.5287
 1075TIP3   OH2 3230   0.501   0.656   1.570  0.0202  0.3642 -0.1641
 1075TIP3    H1 3231   0.484   0.664   1.664  1.9273 -3.1609  0.6218
 1075TIP3    H2 3232   0.414   0.662   1.529 -1.0179  0.4075  1.9457
 1076TIP3   OH2 3233   6.136   3.574   3.853  0.0936 -0.3791  0.6984
 1076TIP3    H1 3234   6.129   3.669   3.861 -0.2027 -0.3487  0.0970
 1076TIP3    H2 3235   6.049   3.542   3.876 -0.1469 -0.4241 -0.2292
 1077TIP3   OH2 3236   3.081   3.628   2.688  0.2616  0.3527 -0.7810
 1077TIP3    H1 3237   3.033   3.710   2.674 -0.1694  0.4267  0.8998
 1077TIP3    H2 3238   3.024   3.576   2.745  0.9439 -0.7351 -1.0635
 1078TIP3   OH2 3239   4.980   5.223   4.228  0.0121 -0.4541 -0.0456
 1078TIP3    H1 3240   4.992   5.312   4.196  1.9439  0.0769  1.8786
 1078TIP3    H2 3241   4.961   5.171   4.150  2.0165  1.1203 -1.6957
 1079TIP3   OH2 3242   2.702   0.981   4.093  0.1838 -0.4868  0.6746
 1079TIP3    H1 3243   2.741   0.898   4.063  0.7930  0.2202 -0.5775
 1079TIP3    H2 3244   2.646   1.008   4.020 -0.4875 -0.0931  1.3280
 1080TIP3   OH2 3245   0.974   1.686   0.830  0.0144 -0.4314  0.4471
 1080TIP3    H1 3246   1.007   1.597   0.822  0.6286 -0.2323  0.7137
 1080TIP3    H2 3247   1.024   1.736   0.766  0.0328 -0.1814  0.6525
 1081TIP3   OH2 3248   1.366   1.563   0.838  0.4102 -0.7890  0.1951
 1081TIP3    H1 3249   1.312   1.580   0.761 -1.1212  0.7695  1.5365
 1081TIP3    H2 3250   1.456   1.571   0.806 -0.1700 -0.7677 -1.5391
 1082TIP3   OH2 3251   5.402   5.403   2.070  0.4389  0.3712  0.1594
 1082TIP3    H1 3252   5.464   5.476   2.069  1.2186 -0.1964  2.0501
 1082TIP3    H2 3253   5.390   5.379   1.978  2.2390  1.1533 -0.3143
 1083TIP3   OH2 3254   0.541   0.090   1.319  0.1937  0.1660  0.4543
 1083TIP3    H1 3255   0.563   0.176   1.281  1.0563 -1.0185 -1.9798
 1083TIP3    H2 3256   0.615   0.034   1.295 -0.4329 -1.3229  1.8350
 1084TIP3   OH2 3257   6.315   5.219   4.955 -0.0084  0.2305  0.1742
 1084TIP3    H1 3258   6.290   5.226   5.047 -0.2001  0.8587  0.0762
 1084TIP3    H2 3259   6.294   5.128   4.931  0.9725 -0.2356  1.0104
 1085TIP3   OH2 3260   5.658   4.460   3.592  0.8721  0.1889  0.3075
 1085TIP3    H1 3261   5.737   4.503   3.558 -0.2482  2.2514  0.1486
 1085TIP3    H2 3262   5.606   4.440   3.514 -1.6830  4.8952  0.3932
 1086TIP3   OH2 3263   5.516   1.321   1.176  0.2443 -0.2037 -0.2878
 1086TIP3    H1 3264   5.470   1.284   1.251 -1.6233 -0.4438 -1.4802
 1086TIP3    H2 3265   5.525   1.414   1.197 -2.0573  0.1429 -0.5411
 1087TIP3   OH2 3266   2.055   1.319   1.647  0.6560 -0.2371  0.0179
 1087TIP3    H1 3267   2.113   1.377   1.598  1.1961 -0.5419  0.2912
 1087TIP3    H2 3268   1.969   1.332   1.607  1.0672 -0.4213 -0.9683
 1088TIP3   OH2 3269   2.220   2.045   3.459  0.4804 -0.0674  0.6048
 1088TIP3    H1 3270   2.277   2.112   3.421 -0.0396  0.2455  0.3571
 1088TIP3    H2 3271   2.259   2.024   3.543  1.3755 -0.3975  0.1167
 1089TIP3   OH2 3272   5.004   0.323   0.185 -0.6961  0.3812  0.5429
 1089TIP3    H1 3273   4.987   0.417   0.192  1.4125  0.8161  0.3312
 1089TIP3    H2 3274   4.946   0.284   0.251  0.0768  2.0536  2.3321
 1090TIP3   OH2 3275   5.187   3.450   5.191 -0.2613  0.3613  0.0463
 1090TIP3    H1 3276   5.186   3.447   5.095 -0.4524 -2.2156  0.0589
 1090TIP3    H2 3277   5.123   3.518   5.214 -1.8366 -0.4651 -1.6490
 1091TIP3   OH2 3278   3.182   4.324   4.368  0.3434  0.3126 -0.0754
 1091TIP3    H1 3279   3.110   4.324   4.431  0.3375 -0.9360 -0.0579
 1091TIP3    H2 3280   3.164   4.249   4.311  2.3174 -0.9262  0.7871
 1092TIP3   OH2 3281   6.267   4.961   1.619  0.3475 -0.1072 -0.1253
 1092TIP3    H1 3282   6.290   4.868   1.621 -0.2405 -0.2418  1.4474
 1092TIP3    H2 3283   6.318   4.999   1.690 -2.4443 -0.0029  1.9643
 1093TIP3   OH2 3284   2.048   3.289   1.679 -0.8827  0.4410 -0.6661
 1093TIP3    H1 3285   2.052   3.203   1.638 -1.1483 -0.6186  1.3891
 1093TIP3    H2 3286   1.967   3.287   1.731  0.7123  0.6008  2.0388
 1094TIP3   OH2 3287   2.508   0.409   3.496  0.1089  0.3099  1.3189
 1094TIP3    H1 3288   2.436   0.346   3.507 -0.4278  0.6611  0.0296
 1094TIP3    H2 3289   2.471   0.477   3.440  1.5072  0.4329  0.5164
 1095TIP3   OH2 3290   5.584   1.219   3.811  0.2485  0.2111  0.4160
 1095TIP3    H1 3291   5.580   1.302   3.764 -1.4800 -0.3223 -0.4541
 1095TIP3    H2 3292   5.493   1.201   3.834  0.4898 -1.8028 -0.0708
 1096TIP3   OH2 3293   0.679   2.010   0.937  0.1637  0.5572  0.4729
 1096TIP3    H1 3294   0.630   2.083   0.976  1.1783  1.4754  0.0640
 1096TIP3    H2 3295   0.637   1.997   0.851 -0.2351  0.4259  0.6839
 1097TIP3   OH2 3296   4.346   2.932   0.110  0.3682  0.6116 -0.1101
 1097TIP3    H1 3297   4.266   2.880   0.121  0.8934 -0.3693 -0.7074
 1097TIP3    H2 3298   4.409   2.892   0.169  0.9982  0.0725 -1.1231
 1098TIP3   OH2 3299   2.235   4.362   4.079 -0.0250 -0.6288  0.2911
 1098TIP3    H1 3300   2.243   4.394   4.169 -0.4358  0.7041 -0.1195
 1098TIP3    H2 3301   2.176   4.425   4.037  2.1068  0.2341 -1.5748
 1099TIP3   OH2 3302   1.455   3.139   3.875  0.7123 -0.5876  0.3434
 1099TIP3    H1 3303   1.490   3.228   3.876  0.7398 -0.5836  1.5528
 1099TIP3    H2 3304   1.528   3.085   3.908  0.5859 -1.0054 -0.0602
 1100TIP3   OH2 3305   5.539   2.979   4.586 -0.1600 -0.1122 -0.1308
 1100TIP3    H1 3306   5.608   2.935   4.536  1.3971  0.4943  1.3599
 1100TIP3    H2 3307   5.507   3.048   4.527  2.2601  1.1888 -0.0850
 1101TIP3   OH2 3308   0.033   5.378   1.332 -0.1653  0.0325  0.6724
 1101TIP3    H1 3309   0.003   5.376   1.241  1.5073 -1.8977  0.0862
 1101TIP3    H2 3310   0.009   5.292   1.367  2.5310 -0.7649  0.8285
 1102TIP3   OH2 3311   4.719   4.311   4.422 -0.1395  0.0293 -0.3136
 1102TIP3    H1 3312   4.733   4.396   4.379  1.5135  1.9202  3.4874
 1102TIP3    H2 3313   4.775   4.250   4.374  4.6069  2.7790  1.0657
 1103TIP3   OH2 3314   3.569   1.122   4.069 -0.2562  0.3813 -0.0399
 1103TIP3    H1 3315   3.598   1.151   4.155 -3.5204  0.1132  1.3183
 1103TIP3    H2 3316   3.545   1.203   4.024  2.1838  0.5907 -1.1036
 1104TIP3   OH2 3317   2.672   4.190   0.765 -0.0901 -1.0897  0.3452
 1104TIP3    H1 3318   2.619   4.237   0.830  0.0959 -0.1826 -0.1426
 1104TIP3    H2 3319   2.627   4.206   0.682  0.8923 -0.3630 -0.0700
 1105TIP3   OH2 3320   4.419   1.611   0.363 -0.5874  0.2707  0.0429
 1105TIP3    H1 3321   4.441   1.563   0.284 -0.2280 -0.9672  0.8649
 1105TIP3    H2 3322   4.502   1.618   0.411 -0.7959  1.0239  0.3213
 1106TIP3   OH2 3323   2.565   0.719   0.313  0.4993  0.2159 -0.3430
 1106TIP3    H1 3324   2.651   0.677   0.314  0.8889  0.9672  1.6835
 1106TIP3    H2 3325   2.507   0.657   0.357  0.4550  0.5795  0.1156
 1107TIP3   OH2 3326   0.827   4.407   4.512 -0.5400 -0.0044  0.5105
 1107TIP3    H1 3327   0.879   4.376   4.586  0.0358  0.3285  0.2582
 1107TIP3    H2 3328   0.795   4.493   4.539 -0.2842  0.1416  0.3612
 1108TIP3   OH2 3329   2.843   2.788   4.299  0.1137 -0.0428  0.0661
 1108TIP3    H1 3330   2.877   2.718   4.243  2.5273  0.1552  1.1521
 1108TIP3    H2 3331   2.867   2.869   4.255  0.9793  0.1008  0.7689
 1109TIP3   OH2 3332   4.382   5.770   2.987 -0.0385 -0.4723  0.1158
 1109TIP3    H1 3333   4.338   5.846   2.947 -0.6945  0.2226  2.0356
 1109TIP3    H2 3334   4.311   5.707   3.001 -0.2188  0.0331  1.7859
 1110TIP3   OH2 3335   5.380   4.640   5.023  0.1004  0.2214 -0.3174
 1110TIP3    H1 3336   5.366   4.704   5.092  4.5509  1.2147  0.0084
 1110TIP3    H2 3337   5.395   4.693   4.944 -0.2240 -0.6655 -0.9971
 1111TIP3   OH2 3338   4.696   4.064   2.713  0.2891  0.4871  0.3226
 1111TIP3    H1 3339   4.789   4.053   2.729  0.2852 -0.0660  0.0025
 1111TIP3    H2 3340   4.653   4.020   2.786  0.2770 -1.2627 -0.6845
 1112TIP3   OH2 3341   4.912   4.329   2.632 -0.7982  1.0273  0.2605
 1112TIP3    H1 3342   4.927   4.387   2.558  0.4870  0.0351 -0.2795
 1112TIP3    H2 3343   4.844   4.269   2.602 -1.1327  1.3638  0.3294
 1113TIP3   OH2 3344   5.953   0.307   4.505  0.0719  0.4166  0.3242
 1113TIP3    H1 3345   5.860   0.287   4.511  0.0476  0.1510 -0.7588
 1113TIP3    H2 3346   5.957   0.403   4.502 -0.2988  0.4052 -1.2682
 1114TIP3   OH2 3347   2.339   4.284   4.684 -0.0910  0.9515  0.0473
 1114TIP3    H1 3348   2.291   4.365   4.665 -0.1829  0.4575 -2.0409
 1114TIP3    H2 3349   2.431   4.311   4.690 -0.2480  1.3800  0.5746
 1115TIP3   OH2 3350   2.145   0.272   2.722 -0.1062  0.3397  0.3072
 1115TIP3    H1 3351   2.114   0.332   2.654 -2.3509  1.0259  1.7847
 1115TIP3    H2 3352   2.201   0.326   2.778  2.7537 -0.5296 -1.5546
 1116TIP3   OH2 3353   0.296   1.252   0.850 -0.0515 -0.2601 -0.2449
 1116TIP3    H1 3354   0.342   1.310   0.791 -0.4167 -0.5707 -0.8535
 1116TIP3    H2 3355   0.247   1.310   0.908  0.1183  0.0459 -0.4067
 1117TIP3   OH2 3356   0.581   3.611   2.492 -0.3532  0.1707 -0.0953
 1117TIP3    H1 3357   0.605   3.549   2.423  0.5060  0.0982  0.2596
 1117TIP3    H2 3358   0.626   3.692   2.469  0.2779  0.0242  0.5962
 1118TIP3   OH2 3359   4.461   0.650   1.896  0.4260 -0.1928 -0.5585
 1118TIP3    H1 3360   4.444   0.618   1.985  1.9004  1.7407  0.5040
 1118TIP3    H2 3361   4.533   0.595   1.865  1.3386  0.4503  0.3200
 1119TIP3   OH2 3362   3.758   5.788   3.762  0.7470 -0.2452  0.4499
 1119TIP3    H1 3363   3.663   5.793   3.747  0.7518 -0.2670  0.4126
 1119TIP3    H2 3364   3.778   5.695   3.757  0.8033 -0.2225  0.2665
 1120TIP3   OH2 3365   2.225   2.586   2.825 -0.3188 -0.6689  0.1009
 1120TIP3    H1 3366   2.176   2.620   2.900 -1.5445 -1.4439 -0.3205
 1120TIP3    H2 3367   2.225   2.658   2.762 -1.8185 -0.9786 -0.2906
 1121TIP3   OH2 3368   0.652   0.236   4.411  0.4178  0.1052  0.1252
 1121TIP3    H1 3369   0.742   0.206   4.400  0.2002 -0.6875  0.4380
 1121TIP3    H2 3370   0.646   0.259   4.504  0.1818 -0.2443  0.1969
 1122TIP3   OH2 3371   4.850   0.262   1.604  0.2370 -0.3325 -0.0082
 1122TIP3    H1 3372   4.925   0.274   1.662  0.9423 -2.0705 -0.5259
 1122TIP3    H2 3373   4.855   0.171   1.575 -0.4149  0.3211 -2.3683
 1123TIP3   OH2 3374   1.165   1.465   0.299  0.0831  0.0600 -0.0987
 1123TIP3    H1 3375   1.253   1.455   0.336 -0.2529 -4.6932  0.0286
 1123TIP3    H2 3376   1.166   1.411   0.220 -2.7122 -0.2249 -0.0448
 1124TIP3   OH2 3377   0.934   2.835   1.690  0.0270 -0.6177 -0.4970
 1124TIP3    H1 3378   0.951   2.928   1.677  2.8103 -0.8749  0.5210
 1124TIP3    H2 3379   1.021   2.797   1.701 -0.8960 -3.6011 -2.3305
 1125TIP3   OH2 3380   5.498   2.216   4.284  0.7599  0.8324  0.6918
 1125TIP3    H1 3381   5.453   2.137   4.313  1.5417  0.5372  1.1491
 1125TIP3    H2 3382   5.430   2.269   4.243  0.2585 -0.1432  0.2350
 1126TIP3   OH2 3383   4.710   4.310   3.681 -0.4572 -0.1244  0.3716
 1126TIP3    H1 3384   4.784   4.369   3.697 -0.8401  0.4895 -0.0968
 1126TIP3    H2 3385   4.634   4.357   3.715 -0.7674 -0.3356 -0.0175
 1127TIP3   OH2 3386   3.296   4.430   1.340 -0.1341  0.1587  0.0436
 1127TIP3    H1 3387   3.340   4.387   1.267 -1.6448 -0.5504 -0.4912
 1127TIP3    H2 3388   3.273   4.517   1.307  0.7394  0.4939  0.2910
 1128TIP3   OH2 3389   4.128   1.841   4.918 -0.2028  0.0075 -0.6099
 1128TIP3    H1 3390   4.063   1.787   4.963 -0.7301  0.9236 -0.2413
 1128TIP3    H2 3391   4.195   1.779   4.888 -0.2786 -0.7223  0.6772
 1129TIP3   OH2 3392   0.438   4.325   1.812  0.1725 -0.9116 -0.6535
 1129TIP3    H1 3393   0.516   4.354   1.860 -0.4780  1.7510 -1.0818
 1129TIP3    H2 3394   0.381   4.401   1.809 -2.0645 -2.5039 -1.2279
 1130TIP3   OH2 3395   2.705   0.579   3.026 -0.5483  0.0398  0.2972
 1130TIP3    H1 3396   2.725   0.602   3.117  3.0524 -1.2141 -0.0171
 1130TIP3    H2 3397   2.776   0.618   2.975 -1.2488 -1.1608 -1.7096
 1131TIP3   OH2 3398   3.483   3.866   0.069 -0.1029  0.2725 -0.3399
 1131TIP3    H1 3399   3.516   3.921   0.140  1.3877 -2.2690  1.0692
 1131TIP3    H2 3400   3.540   3.887  -0.005  0.4406  0.6263  0.1688
 1132TIP3   OH2 3401   3.630   4.448   1.213 -0.1135  0.0391  0.2645
 1132TIP3    H1 3402   3.564   4.483   1.153  0.1942 -1.0229 -0.7449
 1132TIP3    H2 3403   3.714   4.473   1.174  0.0898  0.1543  0.7678
 1133TIP3   OH2 3404   5.748   3.803   1.734  0.4410  0.4906 -0.3535
 1133TIP3    H1 3405   5.834   3.812   1.694  0.5578  2.2814  0.1960
 1133TIP3    H2 3406   5.725   3.892   1.762 -1.1247 -0.1231  0.4612
 1134TIP3   OH2 3407   5.454   1.896   3.279  0.0306 -0.0130  0.1502
 1134TIP3    H1 3408   5.448   1.990   3.260 -0.0602 -0.3135 -1.4584
 1134TIP3    H2 3409   5.381   1.878   3.337  0.7541  1.1217  1.4887
 1135TIP3   OH2 3410   5.910   3.994   0.513  0.3752  0.4650 -0.0407
 1135TIP3    H1 3411   5.985   4.043   0.477 -0.0140  1.3390  0.2967
 1135TIP3    H2 3412   5.880   4.048   0.586  0.1374 -0.4734  0.5572
 1136TIP3   OH2 3413   6.286   2.734   2.814 -0.3564  0.3094 -0.0895
 1136TIP3    H1 3414   6.276   2.715   2.721 -0.7270  0.7313 -0.1418
 1136TIP3    H2 3415   6.279   2.649   2.857 -0.8131  0.1842 -0.4023
 1137TIP3   OH2 3416   2.804   5.074   1.178 -0.4250  0.2810  0.1409
 1137TIP3    H1 3417   2.725   5.022   1.164 -0.4642 -0.0838  1.5301
 1137TIP3    H2 3418   2.837   5.093   1.090 -1.4517 -0.4874 -0.4286
 1138TIP3   OH2 3419   6.103   4.491   2.194  0.2739  0.7232 -0.5625
 1138TIP3    H1 3420   6.036   4.553   2.166 -0.3210 -0.3686 -1.6476
 1138TIP3    H2 3421   6.181   4.545   2.206 -0.7949  2.0497  0.8910
 1139TIP3   OH2 3422   4.776   3.501   3.434  0.8188  0.1601  0.0737
 1139TIP3    H1 3423   4.693   3.511   3.387  0.5758  0.3662  0.5364
 1139TIP3    H2 3424   4.752   3.505   3.526  1.6905  3.9564  0.3190
 1140TIP3   OH2 3425   0.585   3.778   2.969  0.0100 -0.0646 -0.4390
 1140TIP3    H1 3426   0.626   3.851   2.922  0.1378  1.0157  1.2273
 1140TIP3    H2 3427   0.597   3.702   2.913  2.3290  0.6632 -1.0303
 1141TIP3   OH2 3428   4.429   1.249   5.130  0.3193 -0.4747 -0.0128
 1141TIP3    H1 3429   4.398   1.325   5.180  0.7398  0.2897 -0.8797
 1141TIP3    H2 3430   4.437   1.179   5.194  1.1403  0.5664  1.0539
 1142TIP3   OH2 3431   3.081   2.708   0.684 -0.2969 -0.0465 -0.0500
 1142TIP3    H1 3432   3.057   2.681   0.595 -0.9844  0.7532 -0.1085
 1142TIP3    H2 3433   3.147   2.643   0.711 -1.3876 -1.3803 -0.4485
 1143TIP3   OH2 3434   2.734   0.340   1.733  0.0856  0.2412 -0.5866
 1143TIP3    H1 3435   2.642   0.319   1.719 -0.1679  0.8134  0.1508
 1143TIP3    H2 3436   2.733   0.420   1.786  1.0076  1.1037 -1.8177
 1144TIP3   OH2 3437   2.118   3.332   2.563 -0.3055  0.3677 -0.0602
 1144TIP3    H1 3438   2.152   3.422   2.555 -0.4530  0.3038 -1.6610
 1144TIP3    H2 3439   2.064   3.320   2.485  1.6540 -1.9250 -1.1713
 1145TIP3   OH2 3440   1.849   2.893   2.996  0.1513  0.7919  0.2564
 1145TIP3    H1 3441   1.905   2.950   2.944 -0.4337  2.7123  1.6472
 1145TIP3    H2 3442   1.878   2.906   3.086 -0.0249 -1.1151  0.6465
 1146TIP3   OH2 3443   5.410   5.288   3.576 -0.2588  0.1379  0.0856
 1146TIP3    H1 3444   5.353   5.337   3.635 -0.2782  0.0404  0.1485
 1146TIP3    H2 3445   5.470   5.353   3.540 -0.9304  0.3932 -0.6048
 1147TIP3   OH2 3446   3.557   3.969   1.504 -0.0079  0.0807 -0.5200
 1147TIP3    H1 3447   3.533   4.060   1.488  0.6484  0.6123  1.3018
 1147TIP3    H2 3448   3.618   3.947   1.434  2.1234  2.0172  0.6052
 1148TIP3   OH2 3449   0.756   4.211   0.475  0.1256 -0.3786  0.0748
 1148TIP3    H1 3450   0.742   4.145   0.407 -0.8551 -0.8656  0.7228
 1148TIP3    H2 3451   0.846   4.197   0.504 -0.1617 -1.6522  0.4063
 1149TIP3   OH2 3452   0.745   2.920   1.334 -0.0357 -0.2256  0.5253
 1149TIP3    H1 3453   0.804   2.869   1.390 -0.6427 -0.6930  0.7476
 1149TIP3    H2 3454   0.747   2.874   1.250  1.3813  0.8448 -0.0650
 1150TIP3   OH2 3455   5.532   1.419   4.403 -0.6029 -0.1508 -0.3282
 1150TIP3    H1 3456   5.463   1.406   4.468 -3.1522 -0.3850 -2.8611
 1150TIP3    H2 3457   5.591   1.483   4.442 -1.0660 -1.4401  2.7788
 1151TIP3   OH2 3458   5.289   4.131   3.811 -0.1953 -0.6668 -0.3468
 1151TIP3    H1 3459   5.300   4.197   3.879 -3.0333 -0.5390  0.0992
 1151TIP3    H2 3460   5.295   4.180   3.729  0.7861 -0.4215 -0.1441
 1152TIP3   OH2 3461   5.532   2.148   2.179 -0.4322  0.0693 -0.3162
 1152TIP3    H1 3462   5.584   2.197   2.115 -1.4682  1.0959 -0.4067
 1152TIP3    H2 3463   5.443   2.153   2.146 -1.1655  1.5026  1.6828
 1153TIP3   OH2 3464   1.045   0.568   3.356  0.1317  0.4436  0.0812
 1153TIP3    H1 3465   1.022   0.482   3.391  1.5490 -1.5588 -3.4015
 1153TIP3    H2 3466   1.141   0.571   3.361  0.1143  1.8067  0.0565
 1154TIP3   OH2 3467   3.431   1.038   2.630 -0.6761  0.1678 -0.3310
 1154TIP3    H1 3468   3.414   1.131   2.613 -0.1266  0.0352 -1.6943
 1154TIP3    H2 3469   3.344   0.998   2.634 -0.8917  0.6071 -0.5800
 1155TIP3   OH2 3470   4.951   0.949   1.197 -0.6843  0.3589 -0.0378
 1155TIP3    H1 3471   4.874   1.005   1.199 -1.3966 -0.5756 -0.3895
 1155TIP3    H2 3472   5.006   0.987   1.129 -0.8701  0.9788  0.1468
 1156TIP3   OH2 3473   1.610   3.121   3.555 -0.0774 -0.0649 -0.4798
 1156TIP3    H1 3474   1.655   3.090   3.634 -2.2462 -0.2509  0.7660
 1156TIP3    H2 3475   1.519   3.133   3.582 -0.6786  0.9590 -2.6904
 1157TIP3   OH2 3476   1.808   4.313   3.029  0.6668  0.1488 -0.1911
 1157TIP3    H1 3477   1.745   4.338   3.097 -0.8563 -1.2018 -1.0377
 1157TIP3    H2 3478   1.834   4.224   3.051 -0.1973 -0.4778 -1.5899
 1158TIP3   OH2 3479   2.946   3.414   2.858  0.0018 -0.1674  0.7244
 1158TIP3    H1 3480   3.010   3.354   2.821  0.0002  0.2217  0.0798
 1158TIP3    H2 3481   2.866   3.400   2.807 -0.5396 -0.8830  1.7352
 1159TIP3   OH2 3482   4.223   2.234   4.858  0.1820 -0.1127  0.3701
 1159TIP3    H1 3483   4.289   2.211   4.792 -0.1472 -4.2579  1.2042
 1159TIP3    H2 3484   4.260   2.309   4.904  2.1258  0.5751 -2.0953
 1160TIP3   OH2 3485   5.102   2.151   1.719  0.5098  0.2569  0.0553
 1160TIP3    H1 3486   5.126   2.203   1.642 -0.1270  0.2207 -0.1757
 1160TIP3    H2 3487   5.041   2.207   1.767 -0.4857 -0.4213 -0.3958
 1161TIP3   OH2 3488   2.937   3.036   3.498  0.8132 -0.3208 -0.7179
 1161TIP3    H1 3489   2.870   2.969   3.485 -0.2487  0.8379 -1.5358
 1161TIP3    H2 3490   2.945   3.078   3.412 -0.7070  2.4910  0.3946
 1162TIP3   OH2 3491   5.294   0.773   0.688 -0.3004  0.5265  0.5037
 1162TIP3    H1 3492   5.310   0.685   0.721 -0.9025  0.5993  1.0145
 1162TIP3    H2 3493   5.199   0.777   0.675 -0.0556  0.3668 -1.6638
 1163TIP3   OH2 3494   0.572   2.737   1.962  0.2468 -0.6707 -0.3313
 1163TIP3    H1 3495   0.542   2.650   1.988  0.3310 -0.5456  0.1932
 1163TIP3    H2 3496   0.630   2.721   1.888 -0.1919 -1.0121 -0.6054
 1164TIP3   OH2 3497   0.402   1.373   4.081  0.1799 -0.3851  0.7123
 1164TIP3    H1 3498   0.394   1.301   4.018 -0.9080  0.8051 -0.5923
 1164TIP3    H2 3499   0.473   1.427   4.047 -0.5175  0.3510  0.3741
 1165TIP3   OH2 3500   3.945   1.310   0.928 -0.3185  0.1689  0.3027
 1165TIP3    H1 3501   3.904   1.289   0.844 -1.2412 -2.4472  1.3038
 1165TIP3    H2 3502   4.038   1.313   0.909 -0.5621  0.2749 -0.9486
 1166TIP3   OH2 3503   2.105   2.310   0.526  0.4319  0.4820  0.0996
 1166TIP3    H1 3504   2.069   2.225   0.548  0.3998 -0.0047 -1.6562
 1166TIP3    H2 3505   2.187   2.290   0.481  2.0393  1.5098  2.3985
 1167TIP3   OH2 3506   2.841   0.782   3.969 -0.5384  0.2342  0.3159
 1167TIP3    H1 3507   2.818   0.704   4.019  3.2105 -1.8503 -0.8499
 1167TIP3    H2 3508   2.924   0.812   4.008 -0.6315  2.2066 -0.8509
 1168TIP3   OH2 3509   4.510   4.134   1.997 -0.3387  0.4660 -0.2210
 1168TIP3    H1 3510   4.599   4.168   2.000 -1.0001  2.3558 -0.8970
 1168TIP3    H2 3511   4.472   4.172   1.918 -1.6948 -0.4642 -0.0568
 1169TIP3   OH2 3512   0.389   1.811   0.239 -0.0068  0.1570  0.0798
 1169TIP3    H1 3513   0.407   1.764   0.320 -2.0676  0.4025  0.7568
 1169TIP3    H2 3514   0.350   1.894   0.268 -1.0320  0.1361 -1.1558
 1170TIP3   OH2 3515   0.365   2.593   0.833 -0.2515 -0.2634  0.0335
 1170TIP3    H1 3516   0.338   2.666   0.888 -0.5104  0.3470 -0.8809
 1170TIP3    H2 3517   0.284   2.549   0.808 -0.1272 -0.6111  0.2206
 1171TIP3   OH2 3518   5.462   4.987   1.545 -0.1371 -0.1043 -0.1000
 1171TIP3    H1 3519   5.396   4.962   1.481  0.0431 -1.0798  0.0785
 1171TIP3    H2 3520   5.536   5.019   1.493 -0.5166  0.4424 -0.3153
 1172TIP3   OH2 3521   5.560   2.564   4.388  0.2475 -0.2441  0.0220
 1172TIP3    H1 3522   5.550   2.475   4.354 -0.4751 -0.3051  0.3803
 1172TIP3    H2 3523   5.542   2.620   4.312 -1.2275 -0.3817  0.2333
 1173TIP3   OH2 3524   2.590   0.158   5.149 -0.4116 -0.5758  0.0131
 1173TIP3    H1 3525   2.580   0.200   5.064 -0.0123  1.4538  0.9171
 1173TIP3    H2 3526   2.566   0.066   5.134  1.0422 -0.6009 -2.5910
 1174TIP3   OH2 3527   0.277   4.624   3.471  0.1202 -0.2028  0.1107
 1174TIP3    H1 3528   0.323   4.702   3.500 -1.1504  0.8293 -0.5769
 1174TIP3    H2 3529   0.330   4.551   3.505  2.2563  0.9034 -0.6277
 1175TIP3   OH2 3530   4.082   1.915   2.390  0.1012  0.3679  0.0072
 1175TIP3    H1 3531   4.057   1.957   2.308  0.6738 -0.3612 -0.5451
 1175TIP3    H2 3532   4.009   1.857   2.411 -0.7423  1.6616  0.8264
 1176TIP3   OH2 3533   1.230   0.469   3.653  0.0005  0.2375 -0.6330
 1176TIP3    H1 3534   1.154   0.414   3.631 -0.7883  1.2996 -0.6750
 1176TIP3    H2 3535   1.204   0.514   3.733  1.2161 -0.5281  0.2047
 1177TIP3   OH2 3536   0.436   4.484   0.046 -0.4088 -0.1251 -0.0573
 1177TIP3    H1 3537   0.386   4.443   0.115 -0.6838  0.9101  0.3803
 1177TIP3    H2 3538   0.419   4.431  -0.032 -0.1570 -1.2524  0.6380
 1178TIP3   OH2 3539   1.654   5.861   0.932  0.6044  0.2552  0.1206
 1178TIP3    H1 3540   1.620   5.890   1.017 -1.0895  1.4840 -0.8983
 1178TIP3    H2 3541   1.719   5.794   0.953  0.3703  0.6599  2.3763
 1179TIP3   OH2 3542   5.318   5.976   1.772 -0.0151 -0.1659  0.1748
 1179TIP3    H1 3543   5.334   5.883   1.789 -0.4720 -0.2982 -0.1026
 1179TIP3    H2 3544   5.223   5.985   1.776 -0.1301 -0.1001 -1.6846
 1180TIP3   OH2 3545   5.908   3.481   0.414 -0.0603 -0.2893 -0.2266
 1180TIP3    H1 3546   5.966   3.558   0.417  0.0405 -0.3524 -0.4723
 1180TIP3    H2 3547   5.941   3.423   0.483  2.1049 -1.6656 -2.2351
 1181TIP3   OH2 3548   0.756   1.507   5.026 -0.4212  0.2337 -0.2226
 1181TIP3    H1 3549   0.667   1.472   5.017  0.8171 -2.9205 -1.8159
 1181TIP3    H2 3550   0.787   1.517   4.936  1.0781  0.6725  0.3031
 1182TIP3   OH2 3551   6.313   3.275   0.484  0.2487  0.6886  0.0509
 1182TIP3    H1 3552   6.354   3.246   0.565  1.0403  1.4090 -0.0719
 1182TIP3    H2 3553   6.343   3.213   0.418 -0.3217  0.1567  0.2805
 1183TIP3   OH2 3554   3.536   5.308   3.245  0.3251 -0.1344  0.0501
 1183TIP3    H1 3555   3.516   5.394   3.208 -3.9041  0.6974  3.4154
 1183TIP3    H2 3556   3.491   5.246   3.188  0.1336  0.3103 -0.2857
 1184TIP3   OH2 3557   4.220   1.047   0.181 -0.2013 -0.2028 -0.3173
 1184TIP3    H1 3558   4.281   1.002   0.238  0.9985  0.0438 -1.3703
 1184TIP3    H2 3559   4.247   1.138   0.183 -0.4920 -0.0988 -0.8430
 1185TIP3   OH2 3560   1.916   2.000   4.381  0.0544 -0.1298  0.6372
 1185TIP3    H1 3561   1.862   2.027   4.307 -0.1432  0.4283  0.9782
 1185TIP3    H2 3562   1.888   1.911   4.401 -0.5921  0.0791  0.6726
 1186TIP3   OH2 3563   4.290   0.040   4.337 -0.1897  0.4089 -0.2421
 1186TIP3    H1 3564   4.319  -0.052   4.336 -0.0193  0.4550  0.2502
 1186TIP3    H2 3565   4.261   0.054   4.427 -3.5250 -0.1955 -1.0534
 1187TIP3   OH2 3566   5.135   5.350   2.874 -0.0100 -0.1449 -0.0042
 1187TIP3    H1 3567   5.205   5.399   2.831 -0.1421  1.0949  1.1002
 1187TIP3    H2 3568   5.180   5.300   2.943 -0.3461  2.4829  2.3011
 1188TIP3   OH2 3569   5.691   0.816   2.558  0.2299  0.4698  0.2556
 1188TIP3    H1 3570   5.738   0.761   2.621 -0.7938 -0.5555  0.1511
 1188TIP3    H2 3571   5.752   0.825   2.484  0.4766 -0.3877  0.3469
 1189TIP3   OH2 3572   0.289   1.188   2.638 -0.8464  0.0093 -0.0556
 1189TIP3    H1 3573   0.248   1.204   2.723 -0.0828  0.7062  0.1943
 1189TIP3    H2 3574   0.258   1.260   2.583 -0.9572 -0.1753 -0.2388
 1190TIP3   OH2 3575   2.219   2.973   0.086 -0.2283  0.0770 -0.3157
 1190TIP3    H1 3576   2.300   2.923   0.086 -0.6065 -0.5421 -0.0198
 1190TIP3    H2 3577   2.150   2.908   0.072 -0.8626  0.2726  1.5784
 1191TIP3   OH2 3578   3.533   2.010   1.409 -0.7862  0.6572 -0.1176
 1191TIP3    H1 3579   3.562   2.099   1.389  0.5935  0.1601 -0.4620
 1191TIP3    H2 3580   3.488   1.980   1.330 -1.2450  1.0364 -0.0027
 1192TIP3   OH2 3581   5.906   4.749   2.723 -0.1814 -0.9382 -0.3334
 1192TIP3    H1 3582   5.823   4.773   2.764  0.1082 -1.4601  0.5854
 1192TIP3    H2 3583   5.908   4.653   2.728  0.8158 -0.8897  0.3508
 1193TIP3   OH2 3584   6.201   4.099   2.895  0.2271  0.5328 -0.1789
 1193TIP3    H1 3585   6.106   4.086   2.904  0.5219 -1.5911  0.5613
 1193TIP3    H2 3586   6.218   4.181   2.940 -1.3145  1.2500 -0.8105
 1194TIP3   OH2 3587   1.238   2.968   3.957  0.5317  0.2329  0.4897
 1194TIP3    H1 3588   1.225   3.002   4.045 -1.5798  1.2913 -0.1527
 1194TIP3    H2 3589   1.320   3.007   3.928  1.7866 -0.9065  2.2678
 1195TIP3   OH2 3590   4.734   4.035   3.707  0.0277 -0.3259  0.0493
 1195TIP3    H1 3591   4.685   4.002   3.631 -0.5891 -0.4091  0.4767
 1195TIP3    H2 3592   4.745   4.129   3.689 -2.1911  0.1598  0.9325
 1196TIP3   OH2 3593   5.360   0.221   3.971  0.0270  0.1955 -0.0494
 1196TIP3    H1 3594   5.366   0.155   3.902 -1.4700 -0.3779  0.3191
 1196TIP3    H2 3595   5.269   0.215   4.001 -0.0682  2.2592  0.1797
 1197TIP3   OH2 3596   1.612   2.871   1.334 -0.5232  0.1054 -0.1011
 1197TIP3    H1 3597   1.606   2.804   1.402  0.8639 -0.9873 -0.9995
 1197TIP3    H2 3598   1.687   2.924   1.359  2.2180 -2.3637 -2.4073
 1198TIP3   OH2 3599   0.683   4.015   4.138  0.2243  0.0544 -0.0238
 1198TIP3    H1 3600   0.771   4.005   4.100 -0.7184  0.4607 -2.5391
 1198TIP3    H2 3601   0.629   4.043   4.064 -2.0275 -0.1400  1.4709
 1199TIP3   OH2 3602   5.735   1.275   0.809  0.1644  0.1809  0.4280
 1199TIP3    H1 3603   5.830   1.285   0.811  0.0612  1.2772  0.5244
 1199TIP3    H2 3604   5.703   1.358   0.773 -0.7803 -0.0257  0.7638
 1200TIP3   OH2 3605   3.779   3.582   0.059  0.1021 -0.6634 -0.1897
 1200TIP3    H1 3606   3.706   3.520   0.052  0.2482 -0.7989 -0.5358
 1200TIP3    H2 3607   3.846   3.547   0.001 -0.6716  0.9933 -2.2574
 1201TIP3   OH2 3608   0.455   5.771   1.501 -0.3842  0.0265 -0.6315
 1201TIP3    H1 3609   0.433   5.775   1.408  0.4882  0.7836 -0.8170
 1201TIP3    H2 3610   0.542   5.731   1.503 -0.9265 -1.1756 -0.0416
 1202TIP3   OH2 3611   0.691   4.414   3.683 -0.6190  0.0300 -0.3392
 1202TIP3    H1 3612   0.768   4.399   3.738  0.2187 -0.4706 -1.5994
 1202TIP3    H2 3613   0.670   4.507   3.697 -1.7981 -0.5472  2.4513
 1203TIP3   OH2 3614   3.595   5.425   3.512  0.2047 -0.4467  0.2476
 1203TIP3    H1 3615   3.577   5.397   3.422  1.6312 -0.9861  0.0991
 1203TIP3    H2 3616   3.641   5.508   3.503  1.3353 -1.0378  0.4099
 1204TIP3   OH2 3617   0.024   3.592   4.504  0.1632 -0.2458  0.2892
 1204TIP3    H1 3618   0.019   3.554   4.416  0.1692  0.0672  0.1520
 1204TIP3    H2 3619   0.067   3.525   4.557  3.0365  0.7329 -0.6232
 1205TIP3   OH2 3620   4.823   5.808   0.287 -0.2150  0.3269  0.3465
 1205TIP3    H1 3621   4.847   5.865   0.360  0.2771 -1.7810  1.9513
 1205TIP3    H2 3622   4.728   5.801   0.293 -0.2177  0.4913  0.5270
 1206TIP3   OH2 3623   0.470   5.160   4.162 -0.1854 -0.2423 -0.3240
 1206TIP3    H1 3624   0.548   5.205   4.196 -1.3128  1.9039 -0.4490
 1206TIP3    H2 3625   0.408   5.230   4.143 -2.0699 -1.8793 -0.5022
 1207TIP3   OH2 3626   5.627   4.173   3.187  0.3262  0.5573  0.6570
 1207TIP3    H1 3627   5.552   4.216   3.229 -0.5841 -0.0093 -0.3487
 1207TIP3    H2 3628   5.628   4.208   3.098  0.7393 -0.0718  0.4071
 1208TIP3   OH2 3629   2.447   4.938   4.569 -0.5473 -0.3006 -0.7302
 1208TIP3    H1 3630   2.526   4.931   4.514 -1.0104 -0.4666 -1.3904
 1208TIP3    H2 3631   2.460   5.018   4.619 -0.6987  0.5847 -2.0423
 1209TIP3   OH2 3632   4.769   5.464   5.110 -0.0964  0.3870  0.0576
 1209TIP3    H1 3633   4.816   5.477   5.193  0.4924 -2.3801  0.2505
 1209TIP3    H2 3634   4.676   5.471   5.135 -0.0480 -2.5334  1.5392
 1210TIP3   OH2 3635   4.192   1.786   2.807 -0.3369 -0.3288 -0.1091
 1210TIP3    H1 3636   4.125   1.797   2.873 -0.4488 -2.1685  0.1225
 1210TIP3    H2 3637   4.267   1.836   2.840 -0.8652 -0.0511  0.6890
 1211TIP3   OH2 3638   0.356   5.126   3.717  0.1449 -0.0500  0.2095
 1211TIP3    H1 3639   0.266   5.129   3.748  0.5140 -1.7390  1.6498
 1211TIP3    H2 3640   0.360   5.188   3.644 -1.3467  2.4732  2.1454
 1212TIP3   OH2 3641   2.793   2.033   5.030 -0.0193  0.4397  0.1590
 1212TIP3    H1 3642   2.871   2.052   4.978 -0.4381 -0.5128 -0.8676
 1212TIP3    H2 3643   2.813   2.066   5.117  1.2787  0.7704 -0.2504
 1213TIP3   OH2 3644   0.056   2.751   1.445  0.6318  0.1098  0.2335
 1213TIP3    H1 3645  -0.034   2.736   1.473  0.7603  0.4048  0.8152
 1213TIP3    H2 3646   0.066   2.846   1.446  0.7433  0.1111 -0.4930
 1214TIP3   OH2 3647   1.227   2.991   2.019  0.2594 -0.1679  0.0579
 1214TIP3    H1 3648   1.151   2.937   2.039 -1.1281  1.2020 -1.2240
 1214TIP3    H2 3649   1.241   3.042   2.098  0.1415 -0.7457  0.4639
 1215TIP3   OH2 3650   0.079   4.407   3.807 -0.6153 -0.2545  0.1054
 1215TIP3    H1 3651   0.076   4.336   3.743 -1.7260 -1.0856  1.0582
 1215TIP3    H2 3652   0.020   4.474   3.772  1.0754  0.6290 -1.2233
 1216TIP3   OH2 3653   5.930   3.048   0.464 -0.1660  0.5938 -0.1698
 1216TIP3    H1 3654   5.859   2.998   0.505  1.9522 -1.0197  1.8253
 1216TIP3    H2 3655   5.886   3.107   0.403 -3.1737 -0.4269  0.8304
 1217TIP3   OH2 3656   2.297   5.297   1.487  0.4627  0.0387 -0.0290
 1217TIP3    H1 3657   2.288   5.330   1.576 -1.3848 -0.6251  0.0775
 1217TIP3    H2 3658   2.236   5.349   1.435 -1.5575 -2.2322 -0.0903
 1218TIP3   OH2 3659   3.820   4.992   4.470  0.3210 -0.1186  0.0457
 1218TIP3    H1 3660   3.820   4.904   4.507  2.4705 -0.2464 -0.1254
 1218TIP3    H2 3661   3.840   5.049   4.544  1.8673 -0.1071 -0.3438
 1219TIP3   OH2 3662   0.522   3.442   1.938 -0.1119  0.3990 -0.1311
 1219TIP3    H1 3663   0.536   3.536   1.923  1.3831 -0.0577 -2.0555
 1219TIP3    H2 3664   0.433   3.426   1.908  0.6342  0.7317 -2.8105
 1220TIP3   OH2 3665   2.869   4.272   0.439 -0.0122  0.4886 -0.3083
 1220TIP3    H1 3666   2.845   4.345   0.382  2.1576  0.8859 -0.8050
 1220TIP3    H2 3667   2.831   4.195   0.398 -1.6334  1.2059 -0.2280
 1221TIP3   OH2 3668   1.969   2.483   3.636 -0.1870  0.0527 -0.2020
 1221TIP3    H1 3669   1.982   2.394   3.604 -1.9094 -0.5767  0.7192
 1221TIP3    H2 3670   2.038   2.495   3.702 -0.1629 -0.7219 -0.0788
 1222TIP3   OH2 3671   3.632   1.249   1.544  0.2151  0.2796  0.2303
 1222TIP3    H1 3672   3.610   1.226   1.634  0.0058 -0.5221 -0.0127
 1222TIP3    H2 3673   3.663   1.167   1.505 -1.6939  0.0572 -1.0116
 1223TIP3   OH2 3674   4.133   5.249   0.280 -0.5283 -0.1159  0.3627
 1223TIP3    H1 3675   4.182   5.210   0.208 -0.5661 -1.0358  0.8174
 1223TIP3    H2 3676   4.185   5.228   0.358 -0.4749  0.8857  0.6144
 1224TIP3   OH2 3677   6.218   0.528   2.128 -0.1837 -0.4931 -0.1305
 1224TIP3    H1 3678   6.264   0.461   2.178  1.5924 -0.0331 -1.0418
 1224TIP3    H2 3679   6.285   0.594   2.110 -0.3582 -1.1218 -3.9601
 1225TIP3   OH2 3680   1.937   3.271   2.371  0.0241  0.2669 -0.2216
 1225TIP3    H1 3681   1.912   3.183   2.399  0.9052  0.5040  1.4362
 1225TIP3    H2 3682   1.954   3.262   2.277  0.4978 -1.4317 -0.0128
 1226TIP3   OH2 3683   4.907   0.355   0.824  0.4161  0.0989 -0.9871
 1226TIP3    H1 3684   4.848   0.388   0.892 -1.1365 -0.3339 -2.0754
 1226TIP3    H2 3685   4.961   0.291   0.869 -0.3677  0.0433 -0.0808
 1227TIP3   OH2 3686   0.230   5.300   4.139 -0.1158 -0.8368  0.3085
 1227TIP3    H1 3687   0.147   5.254   4.150 -0.8180  0.1117 -0.8458
 1227TIP3    H2 3688   0.225   5.373   4.201 -0.8737  0.1789 -0.9177
 1228TIP3   OH2 3689   0.882   4.892   2.277 -0.1428  0.6386  0.4193
 1228TIP3    H1 3690   0.905   4.894   2.184  1.1333  1.4025  0.7253
 1228TIP3    H2 3691   0.803   4.946   2.283  0.2167  1.2428 -0.1245
 1229TIP3   OH2 3692   2.756   5.933   5.144  0.4172 -0.0090 -0.3116
 1229TIP3    H1 3693   2.685   5.994   5.123  0.5284  1.8686  3.6928
 1229TIP3    H2 3694   2.712   5.861   5.190  0.8656  0.1640  0.4025
 1230TIP3   OH2 3695   3.021   2.014   2.276  0.2685  0.0754  0.1657
 1230TIP3    H1 3696   2.926   2.023   2.290  0.4854 -0.0199  2.0215
 1230TIP3    H2 3697   3.029   1.961   2.197 -1.2639 -1.3045  0.8855
 1231TIP3   OH2 3698   3.959   3.115   0.047  0.9194 -0.0913  0.3312
 1231TIP3    H1 3699   3.993   3.047  -0.012 -0.0896  1.5841 -2.4028
 1231TIP3    H2 3700   4.037   3.154   0.085  1.8404  0.2065 -1.6947
 1232TIP3   OH2 3701   1.707   3.674   0.677  0.0916 -0.4073 -0.3525
 1232TIP3    H1 3702   1.682   3.691   0.768  2.0462  0.7161  0.0288
 1232TIP3    H2 3703   1.719   3.762   0.640  1.0633 -0.8776 -1.1684
 1233TIP3   OH2 3704   1.567   0.262   0.707 -0.0174  0.7413 -0.6334
 1233TIP3    H1 3705   1.490   0.227   0.751 -1.0449 -0.2846 -3.0847
 1233TIP3    H2 3706   1.543   0.352   0.684  0.8499  1.5879  1.5177
 1234TIP3   OH2 3707   1.585   2.662   1.529 -0.2953 -0.3516  0.1121
 1234TIP3    H1 3708   1.652   2.607   1.489 -1.0124 -1.3682  0.2682
 1234TIP3    H2 3709   1.558   2.613   1.607  0.0321  0.8887  1.0330
 1235TIP3   OH2 3710   2.086   4.584   1.969 -0.3719  0.5180 -0.1787
 1235TIP3    H1 3711   2.051   4.580   2.058  0.3244  2.4150  0.2221
 1235TIP3    H2 3712   2.168   4.535   1.974 -1.4082 -1.3375 -0.3841
 1236TIP3   OH2 3713   1.811   2.436   4.859 -0.3987  0.4500  0.5730
 1236TIP3    H1 3714   1.763   2.498   4.805  0.2260  1.7296  1.4343
 1236TIP3    H2 3715   1.856   2.490   4.924  0.2008 -0.9041  1.3371
 1237TIP3   OH2 3716   1.805   0.653   4.254 -0.3379 -0.8755  0.5538
 1237TIP3    H1 3717   1.860   0.575   4.251 -0.8410 -1.2065 -0.7369
 1237TIP3    H2 3718   1.867   0.725   4.269  0.3312 -1.3480  0.1164
 1238TIP3   OH2 3719   3.415   0.757   4.949 -0.0654 -0.6085  0.5964
 1238TIP3    H1 3720   3.372   0.769   4.865 -0.7519  1.7681  1.1928
 1238TIP3    H2 3721   3.344   0.735   5.010  0.0453  0.0097  0.9633
 1239TIP3   OH2 3722   1.363   5.263   4.682 -0.3318  0.8906  0.6113
 1239TIP3    H1 3723   1.412   5.189   4.647  1.1313  1.7572  0.7206
 1239TIP3    H2 3724   1.419   5.298   4.752 -1.0822  1.9583  0.7000
 1240TIP3   OH2 3725   2.902   2.690   0.896 -0.2804 -0.1214  0.0425
 1240TIP3    H1 3726   2.895   2.596   0.915  1.8296 -0.5484 -0.9482
 1240TIP3    H2 3727   2.961   2.694   0.821 -1.0218  1.9765 -0.4831
 1241TIP3   OH2 3728   2.996   1.003   5.092 -0.2702  0.1212  0.0961
 1241TIP3    H1 3729   2.966   0.955   5.170 -2.3989  0.5066 -0.4348
 1241TIP3    H2 3730   2.917   1.041   5.055  1.1348  2.8785 -0.3355
 1242TIP3   OH2 3731   5.834   3.755   4.423 -0.7132  0.4848  0.5679
 1242TIP3    H1 3732   5.750   3.782   4.388 -0.6106  0.8417  0.5882
 1242TIP3    H2 3733   5.885   3.836   4.428 -0.5091  0.3371  0.9379
 1243TIP3   OH2 3734   4.890   2.636   2.983 -0.1049  0.3354 -0.4840
 1243TIP3    H1 3735   4.861   2.611   3.070  0.1952  1.8814  0.0946
 1243TIP3    H2 3736   4.967   2.690   2.998  0.5066 -0.1454 -1.7701
 1244TIP3   OH2 3737   3.394   5.793   4.056 -0.2733  0.0094 -0.1397
 1244TIP3    H1 3738   3.471   5.781   4.111  0.4588  1.9007 -0.6631
 1244TIP3    H2 3739   3.415   5.747   3.975  0.2463  0.3820 -0.2215
 1245TIP3   OH2 3740   4.948   5.892   0.037  0.0739  0.3450 -0.6044
 1245TIP3    H1 3741   4.897   5.826   0.085 -1.3728  0.8848 -1.3257
 1245TIP3    H2 3742   5.023   5.910   0.094 -1.1409  0.3637  1.1014
 1246TIP3   OH2 3743   1.389   2.092   2.531  0.3201 -0.1643 -0.1217
 1246TIP3    H1 3744   1.299   2.115   2.509 -0.4461 -0.9637  1.9226
 1246TIP3    H2 3745   1.390   1.996   2.530  0.5345 -0.2159  1.9742
 1247TIP3   OH2 3746   1.252   4.398   4.958  0.2789  0.1047  0.4349
 1247TIP3    H1 3747   1.262   4.308   4.929 -1.8724  0.1413 -0.6422
 1247TIP3    H2 3748   1.214   4.443   4.882 -0.2237  1.5258  1.4898
 1248TIP3   OH2 3749   2.940   2.520   4.929  0.0488  0.0195 -0.4629
 1248TIP3    H1 3750   3.030   2.546   4.943  0.3618 -1.2655  0.1008
 1248TIP3    H2 3751   2.901   2.592   4.879  1.1661  0.9249 -0.0634
 1249TIP3   OH2 3752   3.034   3.432   1.407  0.1693  0.5289 -0.3283
 1249TIP3    H1 3753   3.103   3.485   1.365 -0.1113  1.6519  0.5702
 1249TIP3    H2 3754   2.960   3.492   1.416 -0.3925 -0.2143  0.1300
 1250TIP3   OH2 3755   4.232   3.363   3.938 -0.5440  0.3489  0.4105
 1250TIP3    H1 3756   4.291   3.329   4.005 -0.0881  0.1716 -0.0799
 1250TIP3    H2 3757   4.285   3.371   3.860 -0.9903  0.8801  0.1493
 1251TIP3   OH2 3758   2.827   2.380   0.664 -0.2272 -0.5913 -0.6966
 1251TIP3    H1 3759   2.832   2.409   0.754  0.8488 -1.2482 -0.5296
 1251TIP3    H2 3760   2.909   2.332   0.649 -0.5968 -0.8977 -1.8688
 1252TIP3   OH2 3761   5.857   2.565   4.696 -0.4091 -0.4008  0.1980
 1252TIP3    H1 3762   5.917   2.588   4.767  0.5335  1.7049 -1.1753
 1252TIP3    H2 3763   5.777   2.537   4.740  0.1690  0.7563  2.0892
 1253TIP3   OH2 3764   3.672   0.304   1.102 -0.2107  0.1887 -0.5952
 1253TIP3    H1 3765   3.740   0.253   1.059  0.0704 -1.3433  1.5569
 1253TIP3    H2 3766   3.590   0.259   1.079 -0.2463  0.4094 -0.9174
 1254TIP3   OH2 3767   5.593   0.296   4.300 -0.1627 -0.0909 -0.1070
 1254TIP3    H1 3768   5.557   0.382   4.276  1.2373  0.6661  0.3958
 1254TIP3    H2 3769   5.613   0.304   4.393  0.7309 -0.6876 -0.2391
 1255TIP3   OH2 3770   3.477   4.825   3.458  0.6808  0.2335 -0.1612
 1255TIP3    H1 3771   3.569   4.801   3.447  0.7481  0.1048  0.6031
 1255TIP3    H2 3772   3.473   4.918   3.436  1.2416  0.5480  0.9963
 1256TIP3   OH2 3773   4.588   2.000   1.670 -0.3671 -0.1843 -0.0145
 1256TIP3    H1 3774   4.628   1.928   1.622  0.6283  1.6960 -2.2199
 1256TIP3    H2 3775   4.580   1.968   1.760 -0.5347 -3.2067 -1.0037
 1257TIP3   OH2 3776   2.708   0.921   0.427 -0.0080  0.2678 -0.0208
 1257TIP3    H1 3777   2.635   0.893   0.371  0.4745  0.0935 -0.5647
 1257TIP3    H2 3778   2.729   0.843   0.478 -0.6530  0.5128  0.6497
 1258TIP3   OH2 3779   4.331   5.721   0.729  0.0048  0.5661 -0.5739
 1258TIP3    H1 3780   4.401   5.666   0.766 -1.2284  0.0758  1.1545
 1258TIP3    H2 3781   4.362   5.811   0.741 -0.4368  0.4545  2.0348
 1259TIP3   OH2 3782   4.905   2.122   4.521 -0.0959  0.3116 -0.4923
 1259TIP3    H1 3783   4.996   2.111   4.547 -0.4688 -2.3471 -0.0713
 1259TIP3    H2 3784   4.864   2.166   4.595  0.5738  0.3903 -0.1607
 1260TIP3   OH2 3785   2.716   1.765   1.979  0.3315  0.5319 -0.4025
 1260TIP3    H1 3786   2.644   1.703   1.991  0.8850 -0.3985 -1.7872
 1260TIP3    H2 3787   2.694   1.838   2.038 -0.9537 -0.4096  0.3272
 1261TIP3   OH2 3788   3.414   1.792   0.338  0.3486  0.2339  0.4593
 1261TIP3    H1 3789   3.381   1.742   0.263  1.2091  0.4848 -0.0949
 1261TIP3    H2 3790   3.487   1.740   0.370  0.5389  0.5769  0.5809
 1262TIP3   OH2 3791   5.296   1.186   3.796 -0.0739  0.0384 -0.4959
 1262TIP3    H1 3792   5.218   1.233   3.770 -0.5011 -1.5682 -2.3920
 1262TIP3    H2 3793   5.271   1.093   3.791  1.7080 -0.4948 -0.4196
 1263TIP3   OH2 3794   5.862   4.353   2.356  0.6007  0.5915 -0.2821
 1263TIP3    H1 3795   5.786   4.307   2.389  0.7589 -0.3480 -1.1738
 1263TIP3    H2 3796   5.862   4.436   2.403 -0.3291  0.1459  0.5375
 1264TIP3   OH2 3797   4.094   2.600   3.733  0.5103 -0.1314 -0.4369
 1264TIP3    H1 3798   4.033   2.556   3.674 -0.1240  2.2518 -1.6893
 1264TIP3    H2 3799   4.048   2.605   3.817 -0.5081  0.4581 -1.0077
 1265TIP3   OH2 3800   6.257   2.068   4.903  0.2027 -0.5893 -0.0497
 1265TIP3    H1 3801   6.284   2.128   4.972  0.2962  0.0876 -0.6611
 1265TIP3    H2 3802   6.210   1.999   4.949  1.3715 -0.8358  0.8311
 1266TIP3   OH2 3803   0.345   3.123   4.777 -0.1756 -0.3088  0.7095
 1266TIP3    H1 3804   0.422   3.079   4.740 -0.0684  0.1396  0.3905
 1266TIP3    H2 3805   0.271   3.075   4.741 -0.0524 -0.6832  0.9412
 1267TIP3   OH2 3806   5.276   3.062   4.236 -0.2934 -0.7345 -0.1828
 1267TIP3    H1 3807   5.196   3.108   4.208  0.9444  1.6136 -0.1700
 1267TIP3    H2 3808   5.273   2.978   4.190 -0.9620  0.8025 -3.2166
 1268TIP3   OH2 3809   4.937   5.722   1.931  0.0782 -0.3073 -0.2117
 1268TIP3    H1 3810   5.031   5.735   1.919  0.3810 -1.8029  0.2177
 1268TIP3    H2 3811   4.897   5.759   1.853  1.0033  0.4894 -0.3275
 1269TIP3   OH2 3812   3.961   1.790   2.959  0.3367 -0.0544 -0.1361
 1269TIP3    H1 3813   3.930   1.706   2.993 -0.8997  0.4326 -0.0135
 1269TIP3    H2 3814   3.989   1.839   3.036 -3.5218  1.4965  0.5478
 1270TIP3   OH2 3815   3.149   5.013   0.685  0.1264 -0.0203 -0.0280
 1270TIP3    H1 3816   3.147   4.958   0.607  2.2804 -0.7048  0.3503
 1270TIP3    H2 3817   3.159   4.952   0.758 -1.4723  0.6392  0.8126
 1271TIP3   OH2 3818   5.812   3.244   0.317  0.3445  0.4770 -0.1267
 1271TIP3    H1 3819   5.885   3.239   0.256 -0.0423  0.4402 -0.5903
 1271TIP3    H2 3820   5.821   3.330   0.359 -0.1918  1.1086 -1.2591
 1272TIP3   OH2 3821   3.947   5.120   4.903  0.3452  0.1728 -0.4918
 1272TIP3    H1 3822   3.980   5.172   4.830  1.5544 -1.4008 -1.1378
 1272TIP3    H2 3823   3.997   5.151   4.978  0.5980  0.3761 -0.7410
 1273TIP3   OH2 3824   2.558   1.422   2.511 -0.3422 -0.0141 -0.5380
 1273TIP3    H1 3825   2.536   1.345   2.459  0.9067  0.5025 -1.9099
 1273TIP3    H2 3826   2.474   1.463   2.531 -0.9477 -1.1615 -0.6629
 1274TIP3   OH2 3827   1.601   4.935   0.805  0.3268 -0.2896  0.2611
 1274TIP3    H1 3828   1.561   4.892   0.880 -0.1749 -1.1201 -0.4533
 1274TIP3    H2 3829   1.535   4.999   0.776  0.2081 -0.4762  0.1083
 1275TIP3   OH2 3830   4.428   3.996   0.033 -0.0100  0.0991  0.2817
 1275TIP3    H1 3831   4.412   4.080  -0.011  2.1268 -0.3356 -1.5141
 1275TIP3    H2 3832   4.359   3.939   0.001  0.6585  0.2074 -1.4987
 1276TIP3   OH2 3833   1.220   4.659   4.051  0.3578 -0.2608  0.3241
 1276TIP3    H1 3834   1.286   4.728   4.039 -0.0246  0.3195  1.4402
 1276TIP3    H2 3835   1.199   4.631   3.962  1.6419 -0.0064 -0.0791
 1277TIP3   OH2 3836   0.026   1.587   2.721 -0.0376 -0.2211 -0.4854
 1277TIP3    H1 3837  -0.065   1.571   2.698 -0.2485 -0.9789  0.7847
 1277TIP3    H2 3838   0.070   1.600   2.637 -1.1198 -0.9052 -1.1831
 1278TIP3   OH2 3839   4.761   4.995   3.802  0.0843  0.1431  0.7990
 1278TIP3    H1 3840   4.768   5.069   3.862  0.2653  0.4178  0.4432
 1278TIP3    H2 3841   4.789   5.030   3.717  1.9019 -0.7869  0.9717
 1279TIP3   OH2 3842   1.873   0.455   3.764 -0.5578 -0.1810  0.3836
 1279TIP3    H1 3843   1.941   0.499   3.815 -0.9257 -0.3360  1.0033
 1279TIP3    H2 3844   1.791   0.475   3.809 -0.8139 -0.8882  0.2440
 1280TIP3   OH2 3845   4.168   2.741   1.774 -0.4931  0.4195  0.0948
 1280TIP3    H1 3846   4.153   2.754   1.681 -0.3729  0.4436  0.0784
 1280TIP3    H2 3847   4.112   2.667   1.798 -0.7297  0.5894  0.0621
 1281TIP3   OH2 3848   2.454   3.818   3.077  0.1589 -0.7512  0.3590
 1281TIP3    H1 3849   2.362   3.843   3.072  0.2718 -0.4555 -0.3328
 1281TIP3    H2 3850   2.476   3.788   2.989  1.2232  1.0260 -0.0399
 1282TIP3   OH2 3851   2.551   4.223   1.068 -0.4293 -0.5084 -0.1271
 1282TIP3    H1 3852   2.521   4.135   1.090  1.1968 -0.6883  1.6233
 1282TIP3    H2 3853   2.644   4.223   1.091 -0.2174  1.4680 -0.7770
 1283TIP3   OH2 3854   1.317   0.805   2.404  0.2342 -0.4009  0.2482
 1283TIP3    H1 3855   1.251   0.736   2.415 -0.6552  0.2079 -0.9821
 1283TIP3    H2 3856   1.398   0.764   2.433 -0.4410 -1.6379  0.5091
 1284TIP3   OH2 3857   3.399   0.243   1.899  0.0234  0.2772 -0.3076
 1284TIP3    H1 3858   3.455   0.304   1.853  0.2220  0.9849  0.8398
 1284TIP3    H2 3859   3.443   0.158   1.890  0.1698  0.4388 -1.1997
 1285TIP3   OH2 3860   3.201   4.484   1.901 -0.1043  0.0971  0.4876
 1285TIP3    H1 3861   3.266   4.414   1.893  0.5567  0.8597 -1.5748
 1285TIP3    H2 3862   3.248   4.563   1.874 -1.3298  1.0237  0.9851
 1286TIP3   OH2 3863   3.496   2.809   0.234  0.5478  0.0280 -0.1933
 1286TIP3    H1 3864   3.477   2.755   0.158 -3.3543  0.2678  0.3894
 1286TIP3    H2 3865   3.488   2.749   0.308  0.8978  0.4835  0.2224
 1287TIP3   OH2 3866   2.960   0.974   4.411 -0.2302 -0.2398 -0.3716
 1287TIP3    H1 3867   2.873   0.995   4.447  0.5561  1.1671  0.8173
 1287TIP3    H2 3868   3.010   1.055   4.421  1.1102 -0.8874 -1.4572
 1288TIP3   OH2 3869   3.521   4.484   2.502  0.0180 -0.1788 -0.1299
 1288TIP3    H1 3870   3.476   4.541   2.440  0.4472  2.7324  2.0201
 1288TIP3    H2 3871   3.451   4.434   2.544 -0.5156 -0.2475 -1.0650
 1289TIP3   OH2 3872   2.543   0.146   2.983  0.6009 -0.4684  0.6405
 1289TIP3    H1 3873   2.547   0.056   2.952 -2.5520 -0.3914 -0.2669
 1289TIP3    H2 3874   2.477   0.145   3.052 -0.9016  1.4394 -0.6710
 1290TIP3   OH2 3875   4.494   2.306   1.863  0.0761 -0.1373 -0.6083
 1290TIP3    H1 3876   4.589   2.290   1.863  0.1718  0.1805  1.3820
 1290TIP3    H2 3877   4.474   2.327   1.954 -1.9482 -0.3201 -0.9833
 1291TIP3   OH2 3878   2.265   0.110   0.473  0.1514 -0.4139  0.1200
 1291TIP3    H1 3879   2.333   0.100   0.407 -0.7831 -1.9773 -0.6536
 1291TIP3    H2 3880   2.221   0.192   0.450  0.2775 -0.5936 -0.7791
 1292TIP3   OH2 3881   3.073   2.990   2.702  0.8225 -0.4294 -0.1935
 1292TIP3    H1 3882   3.046   2.900   2.684  1.8351 -0.6867 -0.5073
 1292TIP3    H2 3883   3.152   3.002   2.648  0.8259  0.5663  0.0233
 1293TIP3   OH2 3884   2.216   5.116   4.038 -0.1054 -0.0886  1.0140
 1293TIP3    H1 3885   2.168   5.039   4.069 -0.6381  0.2978  1.1616
 1293TIP3    H2 3886   2.290   5.124   4.098 -0.5705  0.0585  1.5782
 1294TIP3   OH2 3887   2.102   2.355   4.338  0.3167 -0.5282 -0.2889
 1294TIP3    H1 3888   2.165   2.425   4.321  0.6890 -0.5761  0.8163
 1294TIP3    H2 3889   2.040   2.394   4.400  0.7876 -1.3062  0.6988
 1295TIP3   OH2 3890   3.177   1.737   4.199 -0.0002  0.1042 -0.4360
 1295TIP3    H1 3891   3.100   1.794   4.205  0.7375  1.0109  1.3769
 1295TIP3    H2 3892   3.241   1.787   4.149  1.0100  1.4471  1.9968
 1296TIP3   OH2 3893   5.853   2.280   0.319 -0.1540  0.0505 -0.1674
 1296TIP3    H1 3894   5.859   2.187   0.297 -0.0907  0.2907 -1.2307
 1296TIP3    H2 3895   5.795   2.317   0.252 -1.9092  0.4200  1.4601
 1297TIP3   OH2 3896   3.330   5.853   0.688 -0.1593  0.1660 -0.3127
 1297TIP3    H1 3897   3.333   5.759   0.671  0.0067  0.3844 -1.5429
 1297TIP3    H2 3898   3.243   5.880   0.660 -0.6604  0.1832  1.1870
 1298TIP3   OH2 3899   5.704   2.889   4.185 -0.5988  0.1410 -0.2936
 1298TIP3    H1 3900   5.780   2.866   4.131  0.1712  0.6080  0.5478
 1298TIP3    H2 3901   5.630   2.845   4.143  0.1943 -0.6276 -0.9364
 1299TIP3   OH2 3902   3.243   5.033   2.099  0.3920  0.7804 -0.2348
 1299TIP3    H1 3903   3.187   5.080   2.036  0.6748  0.1031 -1.0047
 1299TIP3    H2 3904   3.318   5.004   2.048  0.7280  0.3877  0.4681
 1300TIP3   OH2 3905   2.845   1.484   3.010  0.2712 -0.4434 -0.0479
 1300TIP3    H1 3906   2.851   1.397   2.971  1.8703 -2.2817  3.8063
 1300TIP3    H2 3907   2.753   1.492   3.036  0.1718 -1.1227 -0.1766
 1301TIP3   OH2 3908   1.804   1.322   0.705 -0.0940  0.3497  0.1171
 1301TIP3    H1 3909   1.804   1.245   0.761  0.6973  0.3206  0.1009
 1301TIP3    H2 3910   1.762   1.294   0.624  0.3518 -0.1282  0.0407
 1302TIP3   OH2 3911   4.581   5.864  -0.001  0.7169 -0.2328  0.2403
 1302TIP3    H1 3912   4.489   5.891  -0.001  1.1018  1.1540  0.0107
 1302TIP3    H2 3913   4.593   5.819   0.082 -0.1854 -0.5084  0.2326
 1303TIP3   OH2 3914   4.726   0.790   0.412  0.2539 -0.0966 -0.1316
 1303TIP3    H1 3915   4.715   0.716   0.472 -0.9413 -0.0133 -0.2189
 1303TIP3    H2 3916   4.682   0.863   0.455 -0.9930 -0.1338 -1.2650
 1304TIP3   OH2 3917   5.738   5.634   4.535  0.5842 -0.2476 -0.2697
 1304TIP3    H1 3918   5.726   5.712   4.480 -0.3320 -1.1217 -1.3538
 1304TIP3    H2 3919   5.657   5.585   4.525  1.3700 -1.6299 -0.0678
 1305TIP3   OH2 3920   5.059   4.745   0.904 -0.0010  0.0153  0.4281
 1305TIP3    H1 3921   4.993   4.813   0.904  2.3403  2.4870 -0.5118
 1305TIP3    H2 3922   5.020   4.673   0.854 -1.9725  1.3228 -0.0278
 1306TIP3   OH2 3923   0.972   4.406   3.439  0.0702  0.2079  0.4110
 1306TIP3    H1 3924   0.884   4.443   3.430  0.9062  1.9048 -1.5178
 1306TIP3    H2 3925   0.980   4.346   3.365  0.8085  0.6876  0.0933
 1307TIP3   OH2 3926   5.063   4.347   3.600  0.5968  0.1279 -0.6948
 1307TIP3    H1 3927   5.014   4.296   3.665  0.1829  1.1851 -0.1490
 1307TIP3    H2 3928   5.072   4.434   3.640  0.4424  0.7727 -2.0083
 1308TIP3   OH2 3929   0.109   4.285   3.556 -0.2286  0.4398 -0.4535
 1308TIP3    H1 3930   0.069   4.334   3.485 -2.7041 -0.5472  0.1416
 1308TIP3    H2 3931   0.116   4.195   3.522 -0.7530  0.1191  0.2462
 1309TIP3   OH2 3932   2.083   0.440   3.529 -0.0246 -0.1432 -0.1904
 1309TIP3    H1 3933   2.065   0.470   3.440  0.5512 -1.3044 -0.7228
 1309TIP3    H2 3934   2.014   0.478   3.583 -0.5544  0.3162 -1.1857
 1310TIP3   OH2 3935   0.872   1.578   2.278 -0.1775  0.0365 -0.6045
 1310TIP3    H1 3936   0.823   1.497   2.292  0.2206 -0.2909 -1.0511
 1310TIP3    H2 3937   0.957   1.549   2.243 -0.7457  0.7159 -2.6832
 1311TIP3   OH2 3938   2.795   0.074   4.486  0.6373 -0.0591 -0.3892
 1311TIP3    H1 3939   2.782   0.023   4.406 -0.2996 -2.0545  0.9519
 1311TIP3    H2 3940   2.876   0.038   4.524  0.2636 -0.1868  0.3021
 1312TIP3   OH2 3941   4.060   0.915   3.415  0.3636 -0.3246  0.0529
 1312TIP3    H1 3942   4.085   0.918   3.507  2.6141 -0.2747 -0.5027
 1312TIP3    H2 3943   4.063   0.821   3.392  1.1276 -0.2200 -0.2905
 1313TIP3   OH2 3944   0.754   5.845   3.838  0.4426 -0.4051  0.2536
 1313TIP3    H1 3945   0.768   5.855   3.932  0.1037  0.2986  0.2354
 1313TIP3    H2 3946   0.735   5.752   3.826 -1.1253 -0.2370  1.1101
 1314TIP3   OH2 3947   2.729   4.460   1.388 -0.6674 -0.5036 -0.1736
 1314TIP3    H1 3948   2.642   4.420   1.386 -0.6528 -0.5128 -0.7408
 1314TIP3    H2 3949   2.776   4.421   1.314 -0.1619 -0.5382  0.1590
 1315TIP3   OH2 3950   4.459   0.117   3.741  0.1324 -0.1933  0.5657
 1315TIP3    H1 3951   4.514   0.051   3.784  0.5861 -0.8708 -0.9732
 1315TIP3    H2 3952   4.399   0.067   3.686 -0.8275  0.6190  0.8490
 1316TIP3   OH2 3953   1.637   4.172   4.660  0.1764  0.3570 -0.0477
 1316TIP3    H1 3954   1.700   4.139   4.596 -0.9767  2.0256 -2.1642
 1316TIP3    H2 3955   1.591   4.093   4.690  1.6612 -0.6153 -0.2303
 1317TIP3   OH2 3956   3.502   1.751   1.195 -0.4763 -0.0041  0.0009
 1317TIP3    H1 3957   3.411   1.739   1.222 -0.8291  3.6514  0.9335
 1317TIP3    H2 3958   3.549   1.678   1.236 -2.6366 -0.6965  1.3909
 1318TIP3   OH2 3959   5.116   5.347   3.436 -0.0194 -0.3580  0.2593
 1318TIP3    H1 3960   5.037   5.312   3.393 -1.0514  0.1590  1.6475
 1318TIP3    H2 3961   5.170   5.271   3.453  0.2144 -0.6323 -1.4992
 1319TIP3   OH2 3962   5.482   2.996   0.005 -0.3791  0.1760 -0.0021
 1319TIP3    H1 3963   5.513   3.014   0.094 -0.6443 -0.8960  0.3204
 1319TIP3    H2 3964   5.559   2.959  -0.040 -0.7053 -0.8895  0.2969
 1320TIP3   OH2 3965   4.874   1.735   4.623  0.4208 -0.0344  0.0273
 1320TIP3    H1 3966   4.869   1.826   4.650  0.0956  0.1437 -0.6159
 1320TIP3    H2 3967   4.841   1.734   4.533 -0.5372 -0.9433  0.3610
 1321TIP3   OH2 3968   1.588   5.443   0.150 -0.5139  0.1217 -0.4904
 1321TIP3    H1 3969   1.523   5.376   0.128 -0.1717  0.0790 -1.3902
 1321TIP3    H2 3970   1.581   5.508   0.080  1.0394 -0.3373 -1.1021
 1322TIP3   OH2 3971   5.646   1.761   3.090  0.6321  0.4239  0.3300
 1322TIP3    H1 3972   5.676   1.842   3.048  0.2421  0.4780  0.1482
 1322TIP3    H2 3973   5.580   1.790   3.153  1.4414  0.3734  1.2202
 1323TIP3   OH2 3974   5.070   5.458   4.111 -0.0412  0.3305  0.0345
 1323TIP3    H1 3975   5.161   5.449   4.084  0.4410  0.5480  1.5211
 1323TIP3    H2 3976   5.026   5.494   4.034  1.0728  0.0277 -0.7727
 1324TIP3   OH2 3977   0.823   2.175   2.727  0.0178  0.5595 -0.1440
 1324TIP3    H1 3978   0.730   2.174   2.703  0.0349 -1.2784 -0.3314
 1324TIP3    H2 3979   0.859   2.099   2.681  0.8303 -0.9488  2.7475
 1325TIP3   OH2 3980   0.838   5.889   4.086  0.2539 -0.0011  0.3155
 1325TIP3    H1 3981   0.841   5.979   4.121  1.1947  0.0241  0.2063
 1325TIP3    H2 3982   0.929   5.871   4.061 -0.0691 -0.7118 -0.3685
 1326TIP3   OH2 3983   2.257   1.643   2.599 -0.7821  0.1520  0.0777
 1326TIP3    H1 3984   2.205   1.585   2.655 -1.7783  1.1370  0.2157
 1326TIP3    H2 3985   2.342   1.649   2.643 -0.6206 -1.2560  0.0059
 1327TIP3   OH2 3986   5.123   0.626   2.004  0.3120  0.1286  0.4446
 1327TIP3    H1 3987   5.116   0.615   2.099  1.2884 -1.3408  0.3794
 1327TIP3    H2 3988   5.210   0.591   1.982 -0.2586 -0.4279 -1.0931
 1328TIP3   OH2 3989   1.716   5.328   1.389 -0.1197 -0.2062  0.9412
 1328TIP3    H1 3990   1.711   5.341   1.294 -1.8572  0.7138  1.1186
 1328TIP3    H2 3991   1.762   5.245   1.399  0.7703  0.0490 -0.6826
 1329TIP3   OH2 3992   4.992   1.914   1.843  0.1024 -0.2540 -0.4645
 1329TIP3    H1 3993   5.076   1.950   1.812  0.1004 -0.8102 -1.1280
 1329TIP3    H2 3994   4.955   1.870   1.767  0.2664 -1.9897  0.4124
 1330TIP3   OH2 3995   4.412   1.367   3.495 -0.0887 -0.3912  0.3642
 1330TIP3    H1 3996   4.409   1.426   3.571  0.1793 -0.3938  0.3761
 1330TIP3    H2 3997   4.328   1.320   3.498 -1.0288  1.1231 -0.5543
 1331TIP3   OH2 3998   1.795   5.857   5.168 -0.0327  0.1078 -0.2839
 1331TIP3    H1 3999   1.859   5.807   5.218 -0.7398  1.5694  2.2621
 1331TIP3    H2 4000   1.847   5.919   5.117  0.6652 -0.3008 -0.0800
 1332TIP3   OH2 4001   3.595   1.840   3.550  0.1293 -0.2090 -0.0878
 1332TIP3    H1 4002   3.690   1.853   3.556  0.1221 -0.2631  0.1382
 1332TIP3    H2 4003   3.577   1.839   3.456  0.4197 -0.6693 -0.1416
 1333TIP3   OH2 4004   2.197   0.535   1.952  0.5210  0.3575 -0.2947
 1333TIP3    H1 4005   2.263   0.574   1.895  0.5681  0.2825 -0.2927
 1333TIP3    H2 4006   2.182   0.448   1.915  1.1773 -0.0205  0.2884
 1334TIP3   OH2 4007   4.623   4.362   4.006 -0.2483  0.0165  0.7132
 1334TIP3    H1 4008   4.555   4.329   4.064  0.5565 -1.0141  1.1068
 1334TIP3    H2 4009   4.696   4.301   4.018  0.5327  0.7595 -0.1290
 1335TIP3   OH2 4010   2.203   4.759   4.791  0.2574 -0.3880 -0.4679
 1335TIP3    H1 4011   2.197   4.854   4.789  0.1699 -0.3649  0.4855
 1335TIP3    H2 4012   2.182   4.735   4.882  1.0813 -1.2520 -0.4796
 1336TIP3   OH2 4013   1.912   3.439   3.463  0.0362 -0.2460 -0.0738
 1336TIP3    H1 4014   1.992   3.486   3.438 -0.0907 -0.7759 -1.6349
 1336TIP3    H2 4015   1.886   3.477   3.546  1.5896  0.3469  0.1719
 1337TIP3   OH2 4016   3.270   3.266   3.108  0.6824 -0.5974  0.1617
 1337TIP3    H1 4017   3.188   3.316   3.116  1.7836  1.7652 -1.9044
 1337TIP3    H2 4018   3.254   3.205   3.037  1.3368  1.5487 -1.9732
 1338TIP3   OH2 4019   2.299   4.394   1.248  0.5441 -0.0883 -0.2648
 1338TIP3    H1 4020   2.347   4.322   1.288  1.1401  0.6772  0.4409
 1338TIP3    H2 4021   2.353   4.471   1.266 -1.2162  0.9001  1.0317
 1339TIP3   OH2 4022   3.814   1.522   0.752 -0.5091  0.4755  0.0505
 1339TIP3    H1 4023   3.807   1.522   0.848  0.1109  1.3799  0.1047
 1339TIP3    H2 4024   3.725   1.538   0.721 -0.8955 -0.7599  0.4416
 1340TIP3   OH2 4025   5.813   5.668   3.485 -0.2648  0.8249 -0.1283
 1340TIP3    H1 4026   5.860   5.600   3.436  1.2870  0.3537  1.8757
 1340TIP3    H2 4027   5.804   5.740   3.422 -2.6779 -1.3946 -2.5940
 1341TIP3   OH2 4028   1.546   4.578   2.730 -0.0751  0.0867 -0.5597
 1341TIP3    H1 4029   1.603   4.655   2.721  0.3739  0.1396  2.0210
 1341TIP3    H2 4030   1.458   4.615   2.739  0.1959  0.3784  1.1788
 1342TIP3   OH2 4031   2.934   2.764   2.691  0.9878  0.0120  0.2345
 1342TIP3    H1 4032   2.862   2.786   2.749  0.8910  0.8089 -0.1724
 1342TIP3    H2 4033   2.912   2.677   2.657  0.5997 -0.0716  0.6897
 1343TIP3   OH2 4034   3.729   3.505   4.021 -0.2701  0.6535  0.0443
 1343TIP3    H1 4035   3.645   3.460   4.035 -0.3897  0.4493 -1.2588
 1343TIP3    H2 4036   3.704   3.596   4.006 -0.2682  0.5924 -0.3444
 1344TIP3   OH2 4037   0.065   0.907   3.304  0.0032 -0.1150  0.0231
 1344TIP3    H1 4038   0.040   0.962   3.378 -0.8814  1.4319 -1.3828
 1344TIP3    H2 4039  -0.007   0.845   3.295 -1.4582  1.6836 -1.4229
 1345TIP3   OH2 4040   4.281   2.844   4.646 -0.0557  0.1294 -0.1366
 1345TIP3    H1 4041   4.190   2.831   4.673 -0.2921  0.6790 -0.6476
 1345TIP3    H2 4042   4.329   2.856   4.729 -0.1805 -1.6254  0.2269
 1346TIP3   OH2 4043   1.525   4.885   2.659  0.0189 -0.1893 -0.2336
 1346TIP3    H1 4044   1.431   4.874   2.672 -0.1157 -0.6310 -1.4259
 1346TIP3    H2 4045   1.542   4.848   2.572  1.1263  0.8439 -0.4879
 1347TIP3   OH2 4046   1.131   5.803   4.430  0.0269 -0.3519 -0.4596
 1347TIP3    H1 4047   1.091   5.745   4.365 -0.9691  0.1021 -0.2601
 1347TIP3    H2 4048   1.130   5.890   4.389 -1.5281  0.1284  0.5289
 1348TIP3   OH2 4049   5.523   3.975   3.827  0.4870  0.0297 -0.2268
 1348TIP3    H1 4050   5.431   4.000   3.812  0.8778  1.0282 -1.0793
 1348TIP3    H2 4051   5.566   3.991   3.743  1.0734 -2.2930 -0.4361
 1349TIP3   OH2 4052   0.475   5.240   2.991  0.2527 -0.2280 -0.4600
 1349TIP3    H1 4053   0.473   5.157   3.040  0.0218 -1.0778 -1.8429
 1349TIP3    H2 4054   0.436   5.304   3.051  3.2251 -0.3736  1.8704
 1350TIP3   OH2 4055   6.136   4.687   0.494  0.4966  0.3710  1.2017
 1350TIP3    H1 4056   6.092   4.752   0.549 -1.6751 -1.0339  1.2403
 1350TIP3    H2 4057   6.065   4.636   0.456  1.8642  1.1582 -2.8822
 1351TIP3   OH2 4058   0.378   2.812   4.750  0.1947 -0.7830 -0.4773
 1351TIP3    H1 4059   0.389   2.748   4.680  0.9506  0.2867 -1.3688
 1351TIP3    H2 4060   0.291   2.849   4.735  0.1970 -0.8334 -0.6168
 1352TIP3   OH2 4061   0.703   2.838   2.453  0.4463 -0.3324 -0.3938
 1352TIP3    H1 4062   0.748   2.859   2.371 -0.2106  0.9487 -0.4469
 1352TIP3    H2 4063   0.725   2.910   2.512  0.7930 -1.1682  0.5254
 1353TIP3   OH2 4064   1.029   5.493   1.551 -0.3634  0.4272 -0.1416
 1353TIP3    H1 4065   1.074   5.461   1.473 -1.0818 -0.8588 -0.0610
 1353TIP3    H2 4066   0.998   5.580   1.527 -0.0141  0.3039 -1.0698
 1354TIP3   OH2 4067   2.087   3.985   3.332  0.1426 -0.6072 -0.2066
 1354TIP3    H1 4068   2.120   3.954   3.247  0.3885 -1.0424  0.0405
 1354TIP3    H2 4069   2.002   3.941   3.342  0.3412 -0.9509 -0.0053
 1355TIP3   OH2 4070   3.705   1.232   3.520 -0.4977  0.1835 -0.1632
 1355TIP3    H1 4071   3.686   1.271   3.435  0.5252 -1.0786 -1.0032
 1355TIP3    H2 4072   3.670   1.143   3.514  0.1956 -0.1441  0.4800
 1356TIP3   OH2 4073   0.284  -0.008   4.530  0.1002 -0.4692 -0.2240
 1356TIP3    H1 4074   0.317   0.073   4.568 -1.1524  0.2004 -0.5036
 1356TIP3    H2 4075   0.353  -0.036   4.469 -0.3395  1.5795 -1.7736
 1357TIP3   OH2 4076   5.215   2.327   1.489 -0.9055  0.2290 -0.3554
 1357TIP3    H1 4077   5.275   2.369   1.428  1.9426 -1.4574  1.0767
 1357TIP3    H2 4078   5.154   2.396   1.514  0.5277  2.1079 -1.7672
 1358TIP3   OH2 4079   6.230   0.051   0.549  0.0652  0.2868 -0.5991
 1358TIP3    H1 4080   6.210  -0.042   0.538  1.1221 -0.0257 -0.0321
 1358TIP3    H2 4081   6.323   0.058   0.527  0.8748  0.6050  2.4327
 1359TIP3   OH2 4082   5.101   3.779   4.914  0.1730 -0.2251 -0.2272
 1359TIP3    H1 4083   5.187   3.764   4.954  1.4501  1.7015 -1.9843
 1359TIP3    H2 4084   5.057   3.838   4.975  0.3514 -0.7044  0.3762
 1360TIP3   OH2 4085   1.137   4.348   1.201  0.5315  0.1229 -0.6529
 1360TIP3    H1 4086   1.175   4.346   1.113 -1.7433  0.1489 -1.6940
 1360TIP3    H2 4087   1.089   4.431   1.205  0.4791  0.0623  0.5839
 1361TIP3   OH2 4088   6.004   0.692   2.000  0.2981 -0.0997 -0.4768
 1361TIP3    H1 4089   6.011   0.666   1.908  2.3221  0.0545 -0.4216
 1361TIP3    H2 4090   6.065   0.634   2.045  0.0517  0.4747  0.6234
 1362TIP3   OH2 4091   3.098   2.314   3.227  0.1471 -0.3252  0.2340
 1362TIP3    H1 4092   3.190   2.292   3.237  0.1808 -0.4490 -0.2982
 1362TIP3    H2 4093   3.087   2.396   3.275  0.4449 -0.5156  0.6282
 1363TIP3   OH2 4094   0.723   1.313   0.753 -0.0581 -0.2064  0.2791
 1363TIP3    H1 4095   0.766   1.323   0.838  1.4525  0.6119 -0.5480
 1363TIP3    H2 4096   0.793   1.317   0.689 -1.2070 -0.4114 -1.0533
 1364TIP3   OH2 4097   2.397   4.708   3.479  0.4573 -0.1531  1.0768
 1364TIP3    H1 4098   2.377   4.799   3.459  1.5318 -0.5012 -2.1667
 1364TIP3    H2 4099   2.486   4.710   3.514  0.6482  0.0383  0.5931
 1365TIP3   OH2 4100   1.659   5.564   3.302  0.1227 -0.0873  0.0865
 1365TIP3    H1 4101   1.587   5.515   3.261 -1.5909 -0.8851  3.6475
 1365TIP3    H2 4102   1.634   5.656   3.293 -0.5182 -0.2733 -0.0924
 1366TIP3   OH2 4103   1.545   1.955   0.113 -0.2916 -0.4781 -0.1416
 1366TIP3    H1 4104   1.599   1.886   0.151 -0.4696 -1.6472 -1.8864
 1366TIP3    H2 4105   1.567   1.954   0.020 -0.0462  2.0939 -0.1671
 1367TIP3   OH2 4106   1.318   1.793   0.993 -0.6083 -0.7674 -0.2157
 1367TIP3    H1 4107   1.334   1.705   0.959 -0.0442 -0.6820 -0.1933
 1367TIP3    H2 4108   1.299   1.780   1.086 -0.7477 -0.8841 -0.2605
 1368TIP3   OH2 4109   4.965   3.991   2.738  0.3731  0.1691  0.1489
 1368TIP3    H1 4110   5.027   3.996   2.665 -0.0841 -0.1231 -0.2590
 1368TIP3    H2 4111   5.011   3.939   2.805 -0.4849 -2.5609 -1.2328
 1369TIP3   OH2 4112   4.818   5.247   3.218  0.5187  0.8383 -0.1539
 1369TIP3    H1 4113   4.743   5.281   3.170 -0.2126 -0.7752 -0.2174
 1369TIP3    H2 4114   4.885   5.314   3.208 -0.1922  1.3396 -1.9365
 1370TIP3   OH2 4115   1.982   0.008   1.646  0.2180  0.1825 -0.0072
 1370TIP3    H1 4116   2.048  -0.062   1.649 -0.2619 -0.2502  0.6323
 1370TIP3    H2 4117   2.016   0.069   1.580  1.8914  0.5870  1.1428
 1371TIP3   OH2 4118   2.724   2.881   0.813 -0.0724 -0.0448  0.2457
 1371TIP3    H1 4119   2.777   2.906   0.737  1.9672 -0.9345  1.3143
 1371TIP3    H2 4120   2.775   2.813   0.857 -2.7088 -1.9220  0.6682
 1372TIP3   OH2 4121   5.808   0.972   1.173  0.1807  0.2918 -0.3260
 1372TIP3    H1 4122   5.800   0.902   1.108  0.9263 -0.3525  0.2509
 1372TIP3    H2 4123   5.893   1.011   1.155  0.2923  0.2564  0.1184
 1373TIP3   OH2 4124   2.761   4.355   3.107  0.2360 -0.0836 -0.0817
 1373TIP3    H1 4125   2.834   4.380   3.163  0.4386 -0.1858 -0.2949
 1373TIP3    H2 4126   2.757   4.260   3.115  1.1455 -0.2632 -1.2790
 1374TIP3   OH2 4127   4.458   5.412   3.333  0.4629  0.3968  0.1197
 1374TIP3    H1 4128   4.494   5.345   3.391  0.6377  0.3265 -0.0694
 1374TIP3    H2 4129   4.432   5.365   3.254 -0.1108  0.4339  0.2746
 1375TIP3   OH2 4130   1.841   5.684   0.994 -0.0492 -0.0825  0.4445
 1375TIP3    H1 4131   1.900   5.662   0.922 -0.2693  0.3891  0.1119
 1375TIP3    H2 4132   1.877   5.638   1.069 -0.2433 -1.1950 -0.1242
 1376TIP3   OH2 4133   2.511   0.503   4.793  0.3700  0.8232  0.6635
 1376TIP3    H1 4134   2.538   0.533   4.707  1.2752  3.0539  1.6338
 1376TIP3    H2 4135   2.491   0.583   4.841 -1.2530 -0.4159  2.1824
 1377TIP3   OH2 4136   2.829   5.195   0.600 -0.0848  0.5596 -0.5736
 1377TIP3    H1 4137   2.879   5.148   0.533  0.6943 -0.4414  0.6474
 1377TIP3    H2 4138   2.895   5.217   0.666 -1.3386 -1.7661  1.6250
 1378TIP3   OH2 4139   1.016   3.334   2.646 -0.0233 -0.1043 -1.0498
 1378TIP3    H1 4140   0.928   3.330   2.684 -0.9014  0.6161 -2.8551
 1378TIP3    H2 4141   1.002   3.375   2.560  2.2192  0.8356 -1.0123
 1379TIP3   OH2 4142   1.807   3.776   2.320  0.1143  0.7250 -0.0947
 1379TIP3    H1 4143   1.785   3.683   2.318  0.3102  0.6830 -0.3683
 1379TIP3    H2 4144   1.737   3.817   2.370 -0.7550  0.6521 -1.2223
 1380TIP3   OH2 4145   4.046   0.017   3.382 -0.4927 -0.2594 -0.0524
 1380TIP3    H1 4146   3.974  -0.037   3.417  0.5074 -1.6362 -0.0345
 1380TIP3    H2 4147   4.032   0.103   3.421 -0.2965 -1.3242  2.5713
 1381TIP3   OH2 4148   5.317   2.039   4.410 -0.2089  0.4242 -0.3575
 1381TIP3    H1 4149   5.283   2.082   4.489  0.2982 -1.2813  0.8667
 1381TIP3    H2 4150   5.239   2.012   4.362 -0.5284  1.7851 -0.6472
 1382TIP3   OH2 4151   0.579   4.090   3.077 -0.1230 -0.1566 -0.4528
 1382TIP3    H1 4152   0.644   4.021   3.081  0.8852  0.6111 -2.4107
 1382TIP3    H2 4153   0.630   4.170   3.064 -1.2816  0.9259  1.2905
 1383TIP3   OH2 4154   2.720   2.292   1.794  0.1587 -0.3852 -0.7512
 1383TIP3    H1 4155   2.647   2.249   1.748 -0.0584 -0.5556 -0.2472
 1383TIP3    H2 4156   2.736   2.372   1.743 -0.5943 -0.1823 -0.6813
 1384TIP3   OH2 4157   4.044   2.780   1.053 -0.3849 -0.2493 -0.0132
 1384TIP3    H1 4158   4.116   2.748   1.107 -0.8964  0.2366  0.9811
 1384TIP3    H2 4159   3.985   2.823   1.115 -1.0001  0.2986 -0.9614
 1385TIP3   OH2 4160   1.768   4.445   2.598  0.2801  0.2927 -0.0633
 1385TIP3    H1 4161   1.688   4.487   2.629  0.0296 -0.0804 -0.1902
 1385TIP3    H2 4162   1.832   4.515   2.591 -0.0549  0.6028 -0.0112
 1386TIP3   OH2 4163   5.489   1.898   2.695 -0.0322 -0.5506  0.6942
 1386TIP3    H1 4164   5.495   1.963   2.626  1.0954 -0.4314  0.8800
 1386TIP3    H2 4165   5.396   1.878   2.702 -0.5046  1.6232  1.1923
 1387TIP3   OH2 4166   5.851   4.388   4.326 -0.4231  0.0195  0.3997
 1387TIP3    H1 4167   5.758   4.385   4.350 -0.1987  0.9220  1.4624
 1387TIP3    H2 4168   5.874   4.297   4.307 -1.9443 -0.0242 -1.6102
 1388TIP3   OH2 4169   6.180   2.461   0.633  0.4102  0.4241  0.4078
 1388TIP3    H1 4170   6.177   2.502   0.546  0.3201 -0.6815 -0.1355
 1388TIP3    H2 4171   6.211   2.530   0.691  0.7336  1.1115 -0.5486
 1389TIP3   OH2 4172   3.421   2.984   4.134  0.2699  0.1690  0.1858
 1389TIP3    H1 4173   3.463   2.966   4.218 -0.2618  0.6604  0.5691
 1389TIP3    H2 4174   3.329   2.961   4.148  0.5290 -1.8043 -0.9250
 1390TIP3   OH2 4175   1.395   5.269   3.383 -0.7331  0.0653  0.3407
 1390TIP3    H1 4176   1.393   5.296   3.475 -0.5915  1.4178 -0.0250
 1390TIP3    H2 4177   1.343   5.336   3.338 -2.2812 -1.5341 -0.3494
 1391TIP3   OH2 4178   1.856   1.818   4.057 -0.1609  0.2555 -1.0335
 1391TIP3    H1 4179   1.893   1.906   4.051 -0.6606  0.5432 -0.1645
 1391TIP3    H2 4180   1.823   1.799   3.969 -0.3534  1.0784 -1.1457
 1392TIP3   OH2 4181   1.400   2.392   3.056  0.0865 -0.2684 -0.5445
 1392TIP3    H1 4182   1.341   2.327   3.018  1.0879 -1.2296 -0.5014
 1392TIP3    H2 4183   1.447   2.429   2.982  0.4005 -0.4884 -0.4568
 1393TIP3   OH2 4184   3.854   5.565   1.918  0.2355  0.4786  0.0337
 1393TIP3    H1 4185   3.918   5.591   1.851  0.9441  1.2261  0.9768
 1393TIP3    H2 4186   3.894   5.491   1.962  1.0196  1.6446  1.3755
 1394TIP3   OH2 4187   5.434   4.004   3.540 -0.0607  0.3924 -0.4575
 1394TIP3    H1 4188   5.355   3.950   3.540  0.1768  0.0220  0.6448
 1394TIP3    H2 4189   5.403   4.093   3.529 -0.6870  0.3058  0.5024
 1395TIP3   OH2 4190   6.347   4.912   4.362  0.3541 -0.0964  0.0022
 1395TIP3    H1 4191   6.259   4.910   4.401  0.3039 -0.7326 -0.1288
 1395TIP3    H2 4192   6.396   4.975   4.415 -0.3127  0.6211 -0.2082
 1396TIP3   OH2 4193   0.806   2.294   0.744 -0.0925 -0.1848 -0.1775
 1396TIP3    H1 4194   0.793   2.309   0.651  2.8174  0.2674 -0.6083
 1396TIP3    H2 4195   0.773   2.205   0.760  1.3409 -1.1328 -2.1441
 1397TIP3   OH2 4196   5.443   2.099   1.870 -0.4398  0.1235 -0.4883
 1397TIP3    H1 4197   5.458   2.188   1.837  0.0646 -0.3792 -1.6383
 1397TIP3    H2 4198   5.368   2.109   1.929  0.5547  1.5794  0.6146
 1398TIP3   OH2 4199   0.953   5.291   2.769  0.5621  0.2130  0.4131
 1398TIP3    H1 4200   1.003   5.232   2.825 -0.2076 -0.8849 -0.0289
 1398TIP3    H2 4201   0.862   5.279   2.795  0.0727 -1.0020 -1.6058
 1399TIP3   OH2 4202   0.501   4.851   1.717 -0.1909  0.6724  0.1186
 1399TIP3    H1 4203   0.567   4.800   1.763  0.3583 -0.4620 -1.8120
 1399TIP3    H2 4204   0.453   4.897   1.786  1.1208 -0.2712  1.7140
 1400TIP3   OH2 4205   2.493   4.038   3.932  0.6475 -0.4935 -0.3467
 1400TIP3    H1 4206   2.400   4.016   3.941  0.4156 -0.0780 -1.4822
 1400TIP3    H2 4207   2.500   4.126   3.969  0.9399 -1.1674  1.2680
 1401TIP3   OH2 4208   3.048   2.226   0.647  0.0225 -0.0440 -0.1259
 1401TIP3    H1 4209   3.060   2.166   0.720  0.8589  1.7742  1.3078
 1401TIP3    H2 4210   3.134   2.227   0.603  0.7285  1.6423  1.1575
 1402TIP3   OH2 4211   2.912   0.805   1.292  0.3885  0.8961  0.0176
 1402TIP3    H1 4212   2.830   0.854   1.279 -0.6846 -0.9104 -0.3634
 1402TIP3    H2 4213   2.980   0.862   1.257 -0.8589  1.9017 -0.8626
 1403TIP3   OH2 4214   1.644   4.805   2.423 -0.2106 -0.0360  0.4141
 1403TIP3    H1 4215   1.738   4.797   2.409 -0.3485  0.8909 -1.2413
 1403TIP3    H2 4216   1.605   4.754   2.351 -0.9613  1.4067 -0.2342
 1404TIP3   OH2 4217   4.753   4.341   3.127 -0.0554  1.3082  0.1077
 1404TIP3    H1 4218   4.835   4.333   3.177 -0.0778  2.3370  0.3412
 1404TIP3    H2 4219   4.697   4.396   3.182  0.3688  3.5338 -1.5453
 1405TIP3   OH2 4220   4.094   2.353   1.240  0.5995 -0.6577  0.0981
 1405TIP3    H1 4221   4.090   2.263   1.272  0.3565 -0.9313 -0.6784
 1405TIP3    H2 4222   4.052   2.405   1.308 -1.2325 -1.4210 -0.3934
 1406TIP3   OH2 4223   4.882   3.808   4.521 -0.0900  0.4521  0.1674
 1406TIP3    H1 4224   4.889   3.756   4.440  2.0794  2.1221 -0.8249
 1406TIP3    H2 4225   4.969   3.803   4.560 -0.3555  1.8717  0.9888
 1407TIP3   OH2 4226   1.202   5.575   4.562  0.1844  0.4452  0.3950
 1407TIP3    H1 4227   1.258   5.511   4.518  0.2629  1.0428 -0.3952
 1407TIP3    H2 4228   1.187   5.642   4.496 -2.9540 -0.5651 -0.0658
 1408TIP3   OH2 4229   3.122   1.841   5.036 -0.3109 -0.4598 -0.1447
 1408TIP3    H1 4230   3.107   1.820   4.944  0.5926  1.2526 -0.7193
 1408TIP3    H2 4231   3.175   1.769   5.069 -0.1969 -0.8303 -1.1032
 1409TIP3   OH2 4232   5.539   0.865   3.317  0.3639 -0.6949  0.2330
 1409TIP3    H1 4233   5.491   0.826   3.244  0.6277  0.4515 -0.5777
 1409TIP3    H2 4234   5.491   0.944   3.339 -0.5888 -1.7679  2.3544
 1410TIP3   OH2 4235   6.148   4.486   1.914  0.1245  0.3693  0.0918
 1410TIP3    H1 4236   6.223   4.449   1.960 -0.0246 -1.1582 -0.8422
 1410TIP3    H2 4237   6.157   4.456   1.824 -2.0258 -0.5921  0.1300
 1411TIP3   OH2 4238   4.137   0.447   3.319  0.3277 -0.1759 -0.7288
 1411TIP3    H1 4239   4.098   0.379   3.265  0.2228 -0.5267 -0.2205
 1411TIP3    H2 4240   4.096   0.528   3.290  0.9771 -0.2196 -1.8371
 1412TIP3   OH2 4241   1.942   0.970   5.008  0.2596 -0.2857  0.2581
 1412TIP3    H1 4242   2.034   0.945   5.004  0.0066 -1.3123  0.5483
 1412TIP3    H2 4243   1.901   0.902   5.061 -0.5737  0.4654  0.6080
 1413TIP3   OH2 4244   0.124   4.240   3.099 -0.3074 -0.3264  0.5380
 1413TIP3    H1 4245   0.068   4.163   3.090  0.0319 -0.5318  0.1682
 1413TIP3    H2 4246   0.066   4.314   3.077 -0.7852 -0.4217  1.4588
 1414TIP3   OH2 4247   3.456   3.196   0.410  0.3370  0.0874 -0.0873
 1414TIP3    H1 4248   3.523   3.130   0.393  0.0920 -0.3110  0.4543
 1414TIP3    H2 4249   3.485   3.274   0.362  1.8506  0.3288  1.1462
 1415TIP3   OH2 4250   4.617   3.143   3.047  0.5143  0.5266 -0.5735
 1415TIP3    H1 4251   4.693   3.157   2.990  0.9923  0.8102  0.1220
 1415TIP3    H2 4252   4.577   3.063   3.013  0.4988  0.9642 -1.6192
 1416TIP3   OH2 4253   0.420   0.906   3.351  0.0901 -0.0418 -0.2152
 1416TIP3    H1 4254   0.387   0.869   3.269 -0.6046 -1.8755  0.8284
 1416TIP3    H2 4255   0.513   0.884   3.351  0.1834  0.3455 -0.7037
 1417TIP3   OH2 4256   1.129   0.122   0.742 -0.3390 -0.6174  0.0569
 1417TIP3    H1 4257   1.215   0.144   0.777 -0.4763  0.5836 -0.3329
 1417TIP3    H2 4258   1.107   0.195   0.684 -1.7998 -0.6959  0.4719
 1418TIP3   OH2 4259   5.828   1.859   2.347  0.0861 -0.2486 -0.1024
 1418TIP3    H1 4260   5.761   1.908   2.395  0.9304 -0.0969  0.9542
 1418TIP3    H2 4261   5.802   1.767   2.357 -0.3506 -0.1505 -0.3042
 1419TIP3   OH2 4262   6.245   4.020   2.601 -0.1082  0.1712  0.1589
 1419TIP3    H1 4263   6.165   4.065   2.574  1.0212  2.3525  0.2273
 1419TIP3    H2 4264   6.261   4.052   2.690  0.3339 -0.9749  0.5012
 1420TIP3   OH2 4265   1.422   4.454   2.035 -0.0939  0.2826  0.0824
 1420TIP3    H1 4266   1.379   4.478   1.952  1.4474 -0.4386 -0.9750
 1420TIP3    H2 4267   1.350   4.434   2.094 -1.2595  1.4976 -0.8678
 1421TIP3   OH2 4268   2.437   0.762   4.915 -0.1251 -0.0116  0.1468
 1421TIP3    H1 4269   2.460   0.831   4.852 -1.3201  0.6410  0.3975
 1421TIP3    H2 4270   2.489   0.782   4.992  1.2019 -0.6995 -0.5271
 1422TIP3   OH2 4271   4.578   5.944   2.265  0.3698 -0.3518 -0.5833
 1422TIP3    H1 4272   4.531   5.861   2.266  0.3103 -0.3180 -0.0362
 1422TIP3    H2 4273   4.652   5.930   2.207 -1.3561  0.1805 -3.0838
 1423TIP3   OH2 4274   0.475   4.648   4.867  0.0397  0.1401  0.3168
 1423TIP3    H1 4275   0.387   4.658   4.902  0.3004  0.6516  0.8340
 1423TIP3    H2 4276   0.463   4.597   4.787 -0.8159  0.9447 -0.0754
 1424TIP3   OH2 4277   5.222   1.087   4.352  0.6226  0.2229  0.4102
 1424TIP3    H1 4278   5.257   1.006   4.389 -1.1425 -0.3491  0.9195
 1424TIP3    H2 4279   5.172   1.126   4.423 -1.2320  0.0781 -0.7520
 1425TIP3   OH2 4280   0.688   0.221   0.052 -0.2378 -0.6831 -0.3592
 1425TIP3    H1 4281   0.715   0.280  -0.018 -2.3731  1.9120  0.8116
 1425TIP3    H2 4282   0.723   0.136   0.027 -1.0609  0.0177 -4.6755
 1426TIP3   OH2 4283   0.913   5.292   2.252 -0.3261  0.1513  0.4787
 1426TIP3    H1 4284   0.825   5.283   2.214 -0.2704  1.4613 -0.0258
 1426TIP3    H2 4285   0.898   5.302   2.346 -0.7356  0.5491  0.3752
 1427TIP3   OH2 4286   0.633   2.447   2.509 -0.0834  0.3742  0.5177
 1427TIP3    H1 4287   0.624   2.369   2.455 -1.1462  0.8426 -0.0230
 1427TIP3    H2 4288   0.700   2.499   2.467 -0.1824  0.2673  0.2266
 1428TIP3   OH2 4289   3.720   3.297   2.422 -0.0071  0.4667  0.2117
 1428TIP3    H1 4290   3.685   3.385   2.413 -0.0171  0.3911 -0.5552
 1428TIP3    H2 4291   3.802   3.309   2.470 -0.2111  0.8405  0.4736
 1429TIP3   OH2 4292   2.530   2.410   5.094 -0.2832 -0.0290  0.5911
 1429TIP3    H1 4293   2.443   2.448   5.103 -0.7472 -0.8703 -0.2153
 1429TIP3    H2 4294   2.530   2.335   5.154 -0.6183 -0.8781 -0.4524
 1430TIP3   OH2 4295   3.155   4.074   0.768  0.1448 -0.2265  0.3995
 1430TIP3    H1 4296   3.086   4.132   0.801  1.7685  1.1565  1.5442
 1430TIP3    H2 4297   3.132   4.059   0.676 -1.6906  0.1385  0.7615
 1431TIP3   OH2 4298   1.088   0.915   0.951  0.4203 -0.0080 -0.2437
 1431TIP3    H1 4299   1.005   0.962   0.940 -1.3783 -2.4627  1.6690
 1431TIP3    H2 4300   1.130   0.955   1.026 -0.4492 -0.5320  0.5400
 1432TIP3   OH2 4301   0.087   4.571   3.096  0.3565  0.2030 -0.1871
 1432TIP3    H1 4302   0.165   4.591   3.045 -0.3994  0.1912 -1.3906
 1432TIP3    H2 4303   0.027   4.643   3.076 -1.3098 -1.6069 -2.2715
 1433TIP3   OH2 4304   0.497   5.468   1.320 -0.1802 -0.7903  0.2835
 1433TIP3    H1 4305   0.483   5.524   1.244 -0.2051 -0.1905  0.7223
 1433TIP3    H2 4306   0.492   5.379   1.286 -1.2761 -0.5475 -0.2240
 1434TIP3   OH2 4307   3.437   2.312   4.231 -0.1315 -0.5788  0.0716
 1434TIP3    H1 4308   3.416   2.299   4.139 -0.8088 -0.9724  0.2688
 1434TIP3    H2 4309   3.351   2.326   4.273  0.2658  0.9788  0.4315
 1435TIP3   OH2 4310   4.554   1.421   4.325 -0.4323 -0.7028  0.4136
 1435TIP3    H1 4311   4.492   1.351   4.347  1.0563 -2.7281 -1.3416
 1435TIP3    H2 4312   4.640   1.377   4.327  0.5541  1.0638 -0.8394
 1436TIP3   OH2 4313   0.655   3.784   4.292  0.1982  0.0132  0.6689
 1436TIP3    H1 4314   0.561   3.798   4.301 -0.1595 -0.2798 -1.9336
 1436TIP3    H2 4315   0.686   3.859   4.242  0.7662 -1.3820 -1.1501
 1437TIP3   OH2 4316   2.940   0.336   2.217 -0.2624  0.4082 -0.3826
 1437TIP3    H1 4317   2.924   0.247   2.185  0.2320  0.0025  0.4698
 1437TIP3    H2 4318   2.975   0.383   2.141 -1.7869  0.2589 -1.2117
 1438TIP3   OH2 4319   5.952   3.436   3.381 -0.0372 -0.0726 -0.6221
 1438TIP3    H1 4320   5.935   3.344   3.360  0.5639 -0.0786 -1.1108
 1438TIP3    H2 4321   5.938   3.482   3.298  1.5350  0.0199 -0.8626
 1439TIP3   OH2 4322   4.655   4.735   3.102 -0.3633  0.6053 -0.4580
 1439TIP3    H1 4323   4.727   4.747   3.165 -1.1834 -1.5308  0.9977
 1439TIP3    H2 4324   4.681   4.657   3.052 -1.1415  0.4658 -0.6522
 1440TIP3   OH2 4325   0.784   5.411   1.924 -0.1402 -0.2056  0.7203
 1440TIP3    H1 4326   0.753   5.373   2.006 -0.5227 -2.5239 -0.4180
 1440TIP3    H2 4327   0.705   5.446   1.882 -0.3451 -1.1117  0.3253
 1441TIP3   OH2 4328   0.613   2.997   0.803 -0.1190 -0.4052  0.0594
 1441TIP3    H1 4329   0.597   3.023   0.894  0.1179 -0.8708  0.2352
 1441TIP3    H2 4330   0.615   2.901   0.805  1.2099 -0.3951 -0.2018
 1442TIP3   OH2 4331   4.001   2.028   2.141  0.3366 -0.5113  0.1511
 1442TIP3    H1 4332   3.918   1.985   2.123 -0.6235  1.9541 -1.9749
 1442TIP3    H2 4333   4.060   1.997   2.072  0.3087 -0.1391 -0.0445
 1443TIP3   OH2 4334   5.064   1.974   3.578  0.3388 -0.0785  0.2070
 1443TIP3    H1 4335   5.087   2.034   3.649  0.2962 -0.7657  0.8105
 1443TIP3    H2 4336   4.977   1.942   3.601 -0.2256  0.6768 -0.8275
 1444TIP3   OH2 4337   4.715   3.093   0.405  0.1701  0.6034 -0.0421
 1444TIP3    H1 4338   4.697   3.119   0.496 -1.6739  1.0957 -0.5193
 1444TIP3    H2 4339   4.766   3.165   0.369 -0.7774  1.3452  0.0551
 1445TIP3   OH2 4340   5.251   5.703   0.877 -0.5600 -0.2412 -0.3658
 1445TIP3    H1 4341   5.321   5.688   0.814 -0.5330 -0.6325 -0.2415
 1445TIP3    H2 4342   5.209   5.618   0.888 -1.8412  0.2277 -1.3649
 1446TIP3   OH2 4343   0.097   5.864   0.668 -0.0803 -0.6055  0.1491
 1446TIP3    H1 4344   0.090   5.893   0.577 -2.8560 -1.2987  0.0568
 1446TIP3    H2 4345   0.064   5.938   0.719  0.2835 -0.6852  0.5002
 1447TIP3   OH2 4346   1.300   5.357   2.326 -0.2558 -0.0679 -0.0541
 1447TIP3    H1 4347   1.347   5.279   2.297 -0.5584 -0.2283 -0.1164
 1447TIP3    H2 4348   1.229   5.368   2.262  0.0017  0.4661 -0.2533
 1448TIP3   OH2 4349   5.564   5.939   2.589  0.4971 -0.0369  0.1423
 1448TIP3    H1 4350   5.487   5.927   2.532 -0.2091  1.6408  0.6747
 1448TIP3    H2 4351   5.639   5.932   2.530 -0.1712  0.5015 -0.8003
 1449TIP3   OH2 4352   3.034   2.449   2.570 -0.2409  0.5592  0.3967
 1449TIP3    H1 4353   3.039   2.360   2.534 -0.2273  0.9862 -0.7142
 1449TIP3    H2 4354   3.113   2.458   2.623 -1.1040 -0.6812  1.9846
 1450TIP3   OH2 4355   6.136   5.037   3.440  0.0069 -0.7391 -0.3893
 1450TIP3    H1 4356   6.048   5.028   3.476  0.2336  0.1861  0.4797
 1450TIP3    H2 4357   6.162   5.126   3.464  1.8388 -1.5620  0.9554
 1451TIP3   OH2 4358   0.985   2.107   0.995 -0.3137 -0.0685  0.3904
 1451TIP3    H1 4359   0.912   2.104   0.933  0.4363  1.4408 -0.6364
 1451TIP3    H2 4360   0.996   2.201   1.014  0.5985 -0.3699  1.4490
 1452TIP3   OH2 4361   3.829   0.669   5.002 -0.3458 -0.0989 -0.0575
 1452TIP3    H1 4362   3.804   0.590   5.049 -1.4475  0.7777  0.9235
 1452TIP3    H2 4363   3.885   0.717   5.063 -2.2217  1.3031  0.6728
 1453TIP3   OH2 4364   6.108   5.715   1.422  0.3381  0.1290 -0.3524
 1453TIP3    H1 4365   6.151   5.636   1.455  1.1855  0.4818 -0.5866
 1453TIP3    H2 4366   6.180   5.770   1.390 -0.4076 -0.1852 -2.7529
 1454TIP3   OH2 4367   5.837   2.308   2.486 -0.0917  0.0596  0.5716
 1454TIP3    H1 4368   5.846   2.298   2.581 -0.3124 -0.5164  0.5375
 1454TIP3    H2 4369   5.747   2.337   2.473  0.4429  1.8330  0.6439
 1455TIP3   OH2 4370   0.226   0.852   3.712 -0.2719  0.1666  0.5772
 1455TIP3    H1 4371   0.292   0.890   3.771  0.4045  0.2607 -0.2160
 1455TIP3    H2 4372   0.274   0.786   3.663 -1.1123 -0.7356  0.9412
 1456TIP3   OH2 4373   1.838   4.575   3.535  0.1697  0.5150 -0.0119
 1456TIP3    H1 4374   1.899   4.509   3.568 -0.4388 -1.1369 -1.9761
 1456TIP3    H2 4375   1.806   4.619   3.614  0.3341 -1.7968  1.4381
 1457TIP3   OH2 4376   1.272   1.398   1.179  0.0297 -0.6020 -0.4745
 1457TIP3    H1 4377   1.350   1.451   1.196  0.0473 -0.8517  0.2733
 1457TIP3    H2 4378   1.260   1.347   1.259 -2.2304  1.1054  0.3754
 1458TIP3   OH2 4379   4.449   3.131   3.802  0.6628 -0.5009 -0.2620
 1458TIP3    H1 4380   4.412   3.136   3.714 -2.1160  0.4851  0.8561
 1458TIP3    H2 4381   4.465   3.222   3.827 -1.3462 -0.4939  1.2514
 1459TIP3   OH2 4382   0.878   4.536   1.906 -0.0542  0.5480 -0.1978
 1459TIP3    H1 4383   0.964   4.545   1.948  0.7315  0.2846 -1.6799
 1459TIP3    H2 4384   0.897   4.531   1.813 -1.7003  0.5056 -0.5664
 1460TIP3   OH2 4385   5.551   1.098   1.848 -0.4532  0.0688  0.0905
 1460TIP3    H1 4386   5.567   1.014   1.805  1.7073 -0.1667  1.2031
 1460TIP3    H2 4387   5.588   1.163   1.788 -1.6725  0.2113 -0.5353
 1461TIP3   OH2 4388   0.611   1.119   3.132 -0.0257  0.2646 -0.4189
 1461TIP3    H1 4389   0.566   1.035   3.124  2.3416 -1.2656  1.0259
 1461TIP3    H2 4390   0.649   1.135   3.046  0.0963 -0.5313 -0.5175
 1462TIP3   OH2 4391   6.129   2.345   0.262 -0.7886  0.1442  0.4893
 1462TIP3    H1 4392   6.163   2.256   0.276  0.5867  0.0933 -2.5580
 1462TIP3    H2 4393   6.039   2.332   0.235 -0.2633 -0.4625 -1.0638
 1463TIP3   OH2 4394   5.125   4.673   1.537  0.0795  0.3565 -0.1199
 1463TIP3    H1 4395   5.190   4.692   1.469 -0.6507  0.7110 -0.7456
 1463TIP3    H2 4396   5.167   4.698   1.619  1.2394 -0.7216 -0.3585
 1464TIP3   OH2 4397   3.892   2.418   3.032 -0.2333 -0.6164  0.5597
 1464TIP3    H1 4398   3.807   2.376   3.045  0.1024 -1.4463  0.1284
 1464TIP3    H2 4399   3.910   2.406   2.939 -0.4810  1.1678  0.2444
 1465TIP3   OH2 4400   0.512   5.010   3.899  0.3798 -0.4704 -0.4566
 1465TIP3    H1 4401   0.448   5.038   3.833  0.3282  0.1961 -0.1320
 1465TIP3    H2 4402   0.509   5.079   3.965 -0.6351 -1.8199  0.9902
 1466TIP3   OH2 4403   1.867   4.738   1.648 -0.5316  0.8416  0.1783
 1466TIP3    H1 4404   1.933   4.689   1.697 -2.6010 -0.1546  2.2045
 1466TIP3    H2 4405   1.821   4.790   1.715 -1.0663  2.3837 -1.3156
 1467TIP3   OH2 4406   1.643   5.592   4.752 -0.0121 -0.0620 -0.1675
 1467TIP3    H1 4407   1.717   5.642   4.787  0.7394 -1.5990  0.5222
 1467TIP3    H2 4408   1.578   5.592   4.822  0.0820 -0.2572 -0.0814
 1468TIP3   OH2 4409   3.659   0.740   1.892 -0.4831  0.0983 -0.2037
 1468TIP3    H1 4410   3.698   0.700   1.970  1.1610  0.4401 -0.8046
 1468TIP3    H2 4411   3.607   0.813   1.926  0.0865  0.1494  0.5885
 1469TIP3   OH2 4412   2.497   3.789   0.679 -0.4032 -0.1026 -0.1420
 1469TIP3    H1 4413   2.463   3.699   0.686 -0.5853  0.1065  2.3767
 1469TIP3    H2 4414   2.567   3.794   0.744  0.9628  1.0428 -1.6177
 1470TIP3   OH2 4415   5.280   4.393   5.019  0.0199 -0.0387  0.1655
 1470TIP3    H1 4416   5.306   4.479   4.987  1.2855 -1.0630 -1.7522
 1470TIP3    H2 4417   5.217   4.361   4.954  0.5827 -1.0789  0.1056
 1471TIP3   OH2 4418   1.485   2.819   0.283 -0.0441 -0.5451 -0.3746
 1471TIP3    H1 4419   1.516   2.886   0.345 -0.2780 -0.3171 -0.5012
 1471TIP3    H2 4420   1.555   2.754   0.281  0.3250 -0.1514 -0.4792
 1472TIP3   OH2 4421   5.999   5.645   2.445  0.2154 -0.5248  0.7651
 1472TIP3    H1 4422   6.011   5.659   2.351  2.2585  0.1026  1.0523
 1472TIP3    H2 4423   6.062   5.576   2.466  1.7876  1.1902  2.0664
 1473TIP3   OH2 4424   0.008   4.256   2.028 -0.9923  0.5192 -0.2365
 1473TIP3    H1 4425   0.054   4.325   2.076  0.7525 -1.6458  1.4437
 1473TIP3    H2 4426  -0.059   4.225   2.089 -1.0428  0.0349 -0.5322
 1474TIP3   OH2 4427   3.103   2.218   4.438  0.6273  0.0011  0.4517
 1474TIP3    H1 4428   3.148   2.194   4.519 -0.2387 -1.5631  0.4871
 1474TIP3    H2 4429   3.010   2.220   4.461  0.3440 -0.7310 -0.5557
 1475TIP3   OH2 4430   1.173   5.099   4.030 -0.0544  0.0247  0.4444
 1475TIP3    H1 4431   1.082   5.103   4.001  0.0588  1.2803  0.1833
 1475TIP3    H2 4432   1.220   5.058   3.957 -0.2516  0.3480  0.1307
 1476TIP3   OH2 4433   0.421   0.537   4.661 -0.3575  0.3867 -0.3035
 1476TIP3    H1 4434   0.460   0.511   4.744  2.2738  2.2399 -0.8053
 1476TIP3    H2 4435   0.381   0.622   4.679 -1.6275 -0.1407 -0.5098
 1477TIP3   OH2 4436   5.143   5.796   0.502 -0.2014 -0.2500  0.2290
 1477TIP3    H1 4437   5.096   5.858   0.446 -0.3412 -0.0211  0.5921
 1477TIP3    H2 4438   5.226   5.840   0.522  0.3203 -0.7845 -0.6668
 1478TIP3   OH2 4439   3.846   0.261   1.451 -0.3404 -0.0200 -0.3163
 1478TIP3    H1 4440   3.861   0.255   1.545 -0.4493 -0.5777 -0.3306
 1478TIP3    H2 4441   3.761   0.220   1.437 -0.2672 -0.0602 -0.6702
 1479TIP3   OH2 4442   5.894   5.220   3.872  0.0824 -0.5469  0.1281
 1479TIP3    H1 4443   5.974   5.259   3.908  0.0639 -0.1974 -0.1993
 1479TIP3    H2 4444   5.847   5.294   3.833  0.7717 -1.0947 -1.8568
 1480TIP3   OH2 4445   5.628   1.641   0.182 -0.4853  0.0324  0.8739
 1480TIP3    H1 4446   5.682   1.628   0.261  2.0990 -0.3995 -0.8432
 1480TIP3    H2 4447   5.653   1.568   0.125 -2.3175  0.3300 -0.3635
 1481TIP3   OH2 4448   0.028   3.412   1.403 -0.5213  0.0302 -0.1573
 1481TIP3    H1 4449   0.035   3.507   1.398  2.1914 -0.0234  1.0958
 1481TIP3    H2 4450   0.006   3.385   1.314  0.5120  1.7225 -0.9845
 1482TIP3   OH2 4451   4.505   2.677   0.438 -0.1707  0.4639  0.2590
 1482TIP3    H1 4452   4.412   2.666   0.419  0.3241  0.5344 -2.7569
 1482TIP3    H2 4453   4.534   2.745   0.377  2.0966 -0.5049  0.1634
 1483TIP3   OH2 4454   3.229   0.705   1.073 -0.1900  0.2547 -0.3056
 1483TIP3    H1 4455   3.168   0.653   1.022  2.9568 -3.0214 -1.0948
 1483TIP3    H2 4456   3.301   0.725   1.013 -0.2775  4.0271  0.5477
 1484TIP3   OH2 4457   4.556   4.897   3.964 -0.0916 -0.5462  0.4263
 1484TIP3    H1 4458   4.626   4.934   3.911 -0.1856 -0.6005  0.2633
 1484TIP3    H2 4459   4.596   4.821   4.007  0.1046 -0.2505  0.7702
 1485TIP3   OH2 4460   4.730   0.633   3.128  0.2279 -0.2477  0.1893
 1485TIP3    H1 4461   4.687   0.716   3.147  1.8645  0.5452  0.5623
 1485TIP3    H2 4462   4.662   0.581   3.084 -0.7561  1.3479 -0.2687
 1486TIP3   OH2 4463   4.862   2.421   2.788 -0.0340 -0.1423  0.1489
 1486TIP3    H1 4464   4.885   2.465   2.869 -0.4176 -1.4024  0.9623
 1486TIP3    H2 4465   4.941   2.371   2.765  1.1570  2.4290 -1.8618
 1487TIP3   OH2 4466   6.083   4.763   1.911 -0.3596 -0.0186  0.2141
 1487TIP3    H1 4467   6.093   4.669   1.892  0.1628  0.3942 -1.7097
 1487TIP3    H2 4468   6.010   4.767   1.972 -1.2484 -1.5910 -0.6926
 1488TIP3   OH2 4469   1.222   5.612   4.009  0.2053  0.1001 -0.0188
 1488TIP3    H1 4470   1.162   5.686   4.012  0.4522  0.2602  1.1854
 1488TIP3    H2 4471   1.307   5.650   3.985  0.0819  0.0316 -0.5817
 1489TIP3   OH2 4472   0.476   2.443   1.934  0.5435  0.0236  0.1015
 1489TIP3    H1 4473   0.565   2.409   1.921  0.5089  0.2163 -0.6739
 1489TIP3    H2 4474   0.419   2.378   1.894  0.2000 -0.9405  2.0683
 1490TIP3   OH2 4475   5.836   1.200   0.156  0.1486 -0.3503 -0.7276
 1490TIP3    H1 4476   5.752   1.182   0.197  0.5418 -0.7086 -0.0777
 1490TIP3    H2 4477   5.851   1.293   0.173  1.4109 -0.9631  2.0577
 1491TIP3   OH2 4478   0.338   5.600   5.121  0.2006 -0.3938 -0.2699
 1491TIP3    H1 4479   0.266   5.584   5.183  0.6901  1.4735  0.8550
 1491TIP3    H2 4480   0.412   5.553   5.159  0.3800  0.3561  0.3179
 1492TIP3   OH2 4481   2.767   5.215   1.917 -0.0380  0.3109 -0.1165
 1492TIP3    H1 4482   2.706   5.188   1.986  0.5828  1.3715  0.8857
 1492TIP3    H2 4483   2.825   5.141   1.906  0.8437  0.6828  1.6697
 1493TIP3   OH2 4484   0.043   3.958   1.942 -0.2590 -0.2650  0.0973
 1493TIP3    H1 4485   0.131   3.993   1.959 -0.6986 -0.1031  2.4895
 1493TIP3    H2 4486  -0.009   4.035   1.921 -0.5496  0.2103  2.2854
 1494TIP3   OH2 4487   5.310   1.605   4.314 -0.1382 -0.1900  0.2668
 1494TIP3    H1 4488   5.357   1.523   4.330 -0.4270 -0.2151  1.0589
 1494TIP3    H2 4489   5.367   1.654   4.255 -0.1571 -1.1217 -0.5334
 1495TIP3   OH2 4490   1.423   2.381   1.451 -0.8271 -0.1411 -0.1616
 1495TIP3    H1 4491   1.385   2.311   1.504  0.2804  0.4031  1.4498
 1495TIP3    H2 4492   1.380   2.461   1.482  1.4554  0.4955  1.7342
 1496TIP3   OH2 4493   3.082   5.378   3.193  0.0615 -0.1329 -0.1804
 1496TIP3    H1 4494   3.110   5.432   3.120 -1.1221 -0.3102 -0.7962
 1496TIP3    H2 4495   3.067   5.291   3.155  0.8754 -0.6282  0.5748
 1497TIP3   OH2 4496   2.177   0.575   3.298  0.4689 -0.5291 -0.2701
 1497TIP3    H1 4497   2.264   0.612   3.283  0.3281 -0.1713 -0.2323
 1497TIP3    H2 4498   2.181   0.487   3.260  0.9606 -0.6566  0.0668
 1498TIP3   OH2 4499   5.126   0.952   3.772  0.4573  0.0243 -0.1114
 1498TIP3    H1 4500   5.140   0.966   3.865 -1.0737  0.6574  0.0572
 1498TIP3    H2 4501   5.031   0.963   3.760  0.6547  0.1724 -1.7671
 1499TIP3   OH2 4502   4.423   4.859   2.008  0.0126  0.1412  0.3088
 1499TIP3    H1 4503   4.456   4.775   2.037  0.8733  0.1212 -0.6835
 1499TIP3    H2 4504   4.361   4.886   2.076  1.3382 -0.2789  1.7173
 1500TIP3   OH2 4505   2.195   2.342   2.683 -0.0603 -0.3117 -0.4203
 1500TIP3    H1 4506   2.208   2.422   2.733  0.0877 -0.7227  0.2151
 1500TIP3    H2 4507   2.264   2.283   2.713  0.8424 -0.1458 -2.0501
 1501TIP3   OH2 4508   5.318   4.652   2.310 -0.3850  0.2893  0.0193
 1501TIP3    H1 4509   5.329   4.702   2.229 -1.2696 -2.2019 -1.7749
 1501TIP3    H2 4510   5.407   4.626   2.335 -0.0353  1.7116  0.3225
 1502TIP3   OH2 4511   5.838   1.512   1.643 -0.2183  0.1827  0.0070
 1502TIP3    H1 4512   5.835   1.606   1.627 -0.6857  0.1418 -0.1885
 1502TIP3    H2 4513   5.811   1.473   1.560  0.7363 -0.1504 -0.1495
 1503TIP3   OH2 4514   2.069   4.358   1.472 -0.2221  0.0666 -0.6467
 1503TIP3    H1 4515   2.016   4.416   1.418 -0.1710 -0.8642 -1.7358
 1503TIP3    H2 4516   2.140   4.329   1.416  0.3541 -0.2202  0.2012
 1504TIP3   OH2 4517   1.517   0.752   1.951  0.4549  0.7042 -0.6438
 1504TIP3    H1 4518   1.605   0.760   1.914  1.1034  1.0964  0.9336
 1504TIP3    H2 4519   1.527   0.775   2.043 -0.6256 -2.6514  0.4503
 1505TIP3   OH2 4520   3.943   1.653   4.968 -0.2184  0.2498  0.5362
 1505TIP3    H1 4521   3.853   1.647   5.000 -0.7321 -1.2262 -1.0673
 1505TIP3    H2 4522   3.985   1.574   5.001 -0.0880 -0.0662 -0.3519
 1506TIP3   OH2 4523   5.864   5.490   2.887  0.6227 -0.0026 -0.3980
 1506TIP3    H1 4524   5.890   5.516   2.798  0.8562  0.9277 -0.0706
 1506TIP3    H2 4525   5.850   5.396   2.881 -1.7192  0.3340 -2.0249
 1507TIP3   OH2 4526   3.056   1.107   2.383 -0.2118 -0.5345 -0.6149
 1507TIP3    H1 4527   3.042   1.174   2.315  0.5137 -0.6628 -0.8960
 1507TIP3    H2 4528   3.011   1.030   2.350 -1.5385 -0.0457 -0.0304
 1508TIP3   OH2 4529   3.982   3.858   3.714 -0.1278 -0.8499 -0.5752
 1508TIP3    H1 4530   4.054   3.855   3.777  0.0984 -0.2657 -0.8064
 1508TIP3    H2 4531   4.012   3.804   3.641  0.4922  0.1990 -1.1056
 1509TIP3   OH2 4532   6.221   1.030   4.041 -0.2952 -0.3085  0.8927
 1509TIP3    H1 4533   6.296   1.006   3.988  1.3608  1.5578  2.2245
 1509TIP3    H2 4534   6.183   1.106   3.996  0.8798  1.0342  2.0791
 1510TIP3   OH2 4535   1.276   5.424   4.955 -0.1183  0.1674  0.7433
 1510TIP3    H1 4536   1.272   5.360   4.884 -2.0321 -1.6954  2.3766
 1510TIP3    H2 4537   1.314   5.376   5.029 -0.0185  1.4421  1.5687
 1511TIP3   OH2 4538   2.439   0.047   4.866  0.0861  0.0153  0.1904
 1511TIP3    H1 4539   2.529   0.021   4.846  0.1156  0.1979  0.0852
 1511TIP3    H2 4540   2.416   0.109   4.797  0.0360  0.3113  0.4719
 1512TIP3   OH2 4541   1.950   3.867   2.879  0.1665  0.4970 -0.2958
 1512TIP3    H1 4542   1.925   3.959   2.884 -0.4106  0.3096  0.4786
 1512TIP3    H2 4543   1.870   3.819   2.898  0.7306 -0.1439  0.5641
 1513TIP3   OH2 4544   5.176   3.872   3.905 -0.0637 -0.0283 -0.2495
 1513TIP3    H1 4545   5.227   3.793   3.885 -0.1453 -0.3486  0.7552
 1513TIP3    H2 4546   5.229   3.944   3.869 -0.2109 -0.5544 -1.5881
 1514TIP3   OH2 4547   1.480   3.928   0.121 -0.1981  0.2535 -0.4047
 1514TIP3    H1 4548   1.405   3.955   0.173 -0.0449 -0.7122  0.3525
 1514TIP3    H2 4549   1.554   3.929   0.182  0.1618 -0.0061 -0.8227
 1515TIP3   OH2 4550   4.303   0.756   0.890  0.1529  0.1746  0.0140
 1515TIP3    H1 4551   4.256   0.673   0.880 -1.9186  1.2643  0.2417
 1515TIP3    H2 4552   4.393   0.736   0.862 -0.7636 -1.6318 -1.9138
 1516TIP3   OH2 4553   1.944   0.341   2.033  0.0204  0.0713 -0.3570
 1516TIP3    H1 4554   1.996   0.421   2.029 -0.2693  0.4047  1.4106
 1516TIP3    H2 4555   2.008   0.270   2.039  0.2907  0.3494  0.1066
 1517TIP3   OH2 4556   3.983   1.693   1.525 -0.5488 -0.0884 -0.4688
 1517TIP3    H1 4557   4.039   1.618   1.546 -0.9576 -0.2488  0.0994
 1517TIP3    H2 4558   3.932   1.665   1.449 -0.5308 -0.2948 -0.4043
 1518TIP3   OH2 4559   3.087   2.119   1.323 -0.1267  0.1881 -0.4371
 1518TIP3    H1 4560   3.147   2.193   1.323 -2.5603  2.3288  0.1460
 1518TIP3    H2 4561   3.121   2.059   1.389  1.5841  1.0633 -0.4763
 1519TIP3   OH2 4562   4.805   2.899   4.414 -0.5949  0.0583  0.4383
 1519TIP3    H1 4563   4.743   2.852   4.358 -0.8677  0.3496  0.4882
 1519TIP3    H2 4564   4.777   2.991   4.409  1.1117  0.5318 -1.1878
 1520TIP3   OH2 4565   3.053   5.942   0.160 -0.2167  0.0604  0.3793
 1520TIP3    H1 4566   3.063   6.006   0.089  0.0633  0.1888  0.5319
 1520TIP3    H2 4567   2.980   5.975   0.212 -0.5304 -0.1240  0.0547
 1521TIP3   OH2 4568   2.050   0.132   0.244 -0.4381 -0.3792  0.6228
 1521TIP3    H1 4569   2.125   0.127   0.185 -1.2341 -0.8882 -0.3761
 1521TIP3    H2 4570   1.983   0.077   0.202 -1.7441  0.9386  0.9144
 1522TIP3   OH2 4571   2.905   4.933   1.768  0.3581  0.0301  0.8688
 1522TIP3    H1 4572   2.828   4.916   1.714  0.5629  1.6743  0.0109
 1522TIP3    H2 4573   2.975   4.882   1.727  0.0560 -0.3159  0.7826
 1523TIP3   OH2 4574   3.872   2.133   4.104  0.5141 -0.7196  0.3460
 1523TIP3    H1 4575   3.954   2.094   4.075  0.2880 -0.8868 -0.0854
 1523TIP3    H2 4576   3.805   2.084   4.056  0.1996 -0.1710  0.2205
 1524TIP3   OH2 4577   4.964   3.242   3.786 -0.0591 -0.2785 -0.1434
 1524TIP3    H1 4578   4.914   3.294   3.849 -0.4585  1.8209 -2.0330
 1524TIP3    H2 4579   4.899   3.189   3.741  0.3506 -2.5793  1.7928
 1525TIP3   OH2 4580   2.576   3.226   2.792  0.0966  0.4693  0.4061
 1525TIP3    H1 4581   2.617   3.304   2.757 -0.7511  1.0498  0.6739
 1525TIP3    H2 4582   2.506   3.206   2.730  0.9949 -0.7478 -0.2709
 1526TIP3   OH2 4583   2.124   1.931   4.830  0.5400  0.0500  0.1068
 1526TIP3    H1 4584   2.093   2.016   4.799 -0.2962  0.0884  1.0138
 1526TIP3    H2 4585   2.096   1.926   4.921  0.6789 -1.1503  0.1072
 1527TIP3   OH2 4586   1.414   5.763   3.594 -0.2959 -0.2352  0.0378
 1527TIP3    H1 4587   1.391   5.786   3.504 -2.5691 -2.1821  0.0056
 1527TIP3    H2 4588   1.446   5.673   3.589  0.1934 -0.1326  1.0821
 1528TIP3   OH2 4589   4.648   3.379   4.359  0.1194  0.0753 -0.8339
 1528TIP3    H1 4590   4.635   3.462   4.313 -1.3225  1.2862  1.6028
 1528TIP3    H2 4591   4.593   3.385   4.437  1.5811 -2.3185  0.5081
 1529TIP3   OH2 4592   0.547   5.418   4.746  0.4466  0.3720 -0.9469
 1529TIP3    H1 4593   0.571   5.443   4.835 -2.7321  2.2701 -0.4807
 1529TIP3    H2 4594   0.545   5.500   4.697 -1.2027 -0.1390 -1.8284
 1530TIP3   OH2 4595   0.878   4.657   3.893  0.0683  0.2161  0.2616
 1530TIP3    H1 4596   0.845   4.736   3.937 -0.3681 -0.3063  0.8898
 1530TIP3    H2 4597   0.872   4.588   3.959  1.3293 -0.1555  0.0125
 1531TIP3   OH2 4598   3.746   2.491   0.100 -0.8293  0.4905 -0.6464
 1531TIP3    H1 4599   3.651   2.504   0.099 -0.7327  1.8711  1.3939
 1531TIP3    H2 4600   3.758   2.406   0.142 -1.1513  0.4129 -0.7042
 1532TIP3   OH2 4601   0.039   0.878   0.572  0.2939 -0.5914  0.1112
 1532TIP3    H1 4602  -0.049   0.856   0.601  0.5213  0.3948  1.6843
 1532TIP3    H2 4603   0.064   0.807   0.514 -0.7677 -1.9411  1.2349
 1533TIP3   OH2 4604   5.248   5.239   4.680  0.2659 -0.1679  0.2056
 1533TIP3    H1 4605   5.253   5.236   4.776 -2.0340  0.2388  0.3890
 1533TIP3    H2 4606   5.245   5.148   4.653 -1.2808 -0.2824  0.7085
 1534TIP3   OH2 4607   5.547   2.786   0.311  0.0876  0.2942 -0.0227
 1534TIP3    H1 4608   5.546   2.871   0.267  1.2047 -0.0575 -0.7763
 1534TIP3    H2 4609   5.492   2.730   0.256  0.3857  0.2070 -0.2358
 1535TIP3   OH2 4610   0.589   0.892   4.583  0.1767 -0.4749 -0.6810
 1535TIP3    H1 4611   0.636   0.973   4.601 -0.8674  0.3971 -1.6923
 1535TIP3    H2 4612   0.497   0.918   4.580 -0.0921 -1.4589 -2.1130
 1536TIP3   OH2 4613   0.122   2.721   3.591  0.8805  0.0667  0.9091
 1536TIP3    H1 4614   0.152   2.811   3.580 -0.3953  0.2727 -2.0276
 1536TIP3    H2 4615   0.154   2.694   3.677  4.1530  2.2023  0.5073
 1537TIP3   OH2 4616   4.747   1.718   1.620 -0.2181 -0.3954 -0.1080
 1537TIP3    H1 4617   4.841   1.702   1.625 -0.4980 -1.9146  1.0117
 1537TIP3    H2 4618   4.734   1.754   1.532  1.6917  2.3081  0.5858
 1538TIP3   OH2 4619   5.162   4.245   4.828 -0.0029 -0.5542 -0.0527
 1538TIP3    H1 4620   5.236   4.191   4.855  0.9364  0.9132  0.3718
 1538TIP3    H2 4621   5.187   4.280   4.743 -0.3256 -0.2544 -0.0249
 1539TIP3   OH2 4622   2.694   0.159   4.112  0.0406 -0.5696 -0.1493
 1539TIP3    H1 4623   2.786   0.172   4.135 -0.2130 -0.6697  0.9718
 1539TIP3    H2 4624   2.666   0.084   4.164 -0.4818 -1.0328 -1.0565
 1540TIP3   OH2 4625   4.531   1.476   2.377 -0.4353 -0.4978 -0.8218
 1540TIP3    H1 4626   4.584   1.520   2.444 -3.3754  1.7435  0.2732
 1540TIP3    H2 4627   4.569   1.505   2.294  0.7815  0.0032 -0.1176
 1541TIP3   OH2 4628   5.762   5.666   4.083 -0.0370  0.3754  0.1288
 1541TIP3    H1 4629   5.810   5.635   4.006 -0.2377  3.2491 -1.2687
 1541TIP3    H2 4630   5.815   5.738   4.117 -1.1807  0.7492  1.2065
 1542TIP3   OH2 4631   2.184   2.207   4.559 -0.2197  1.2403  0.1492
 1542TIP3    H1 4632   2.278   2.190   4.549 -0.5410 -0.8742  0.1379
 1542TIP3    H2 4633   2.149   2.195   4.471 -0.6721  0.5209  0.4166
 1543TIP3   OH2 4634   4.118   0.893   1.593 -0.5192  0.0920 -0.2366
 1543TIP3    H1 4635   4.097   0.909   1.501  0.1657  0.2959 -0.3615
 1543TIP3    H2 4636   4.036   0.911   1.639 -0.3326  2.0216 -0.5745
 1544TIP3   OH2 4637   3.427   4.050   0.521 -0.1838 -0.0480 -0.3934
 1544TIP3    H1 4638   3.382   4.133   0.536 -0.9485 -0.3757 -0.8300
 1544TIP3    H2 4639   3.360   3.992   0.486  0.5746 -0.5529 -1.0568
 1545TIP3   OH2 4640   5.214   0.537   4.417  0.2894 -0.1273 -0.0192
 1545TIP3    H1 4641   5.137   0.481   4.417  0.4035 -0.2858 -0.2327
 1545TIP3    H2 4642   5.250   0.528   4.329  0.0816  0.5923 -0.1865
 1546TIP3   OH2 4643   2.114   5.691   2.350 -0.3371  0.1178 -0.1159
 1546TIP3    H1 4644   2.048   5.722   2.287 -1.7473  1.3051  1.8326
 1546TIP3    H2 4645   2.198   5.710   2.308 -1.2109  0.8576 -1.6351
 1547TIP3   OH2 4646   5.480   0.313   0.385 -0.2404 -0.2605  0.3192
 1547TIP3    H1 4647   5.420   0.328   0.312  0.6348 -1.1803 -0.6284
 1547TIP3    H2 4648   5.430   0.259   0.446 -0.6575 -0.3126 -0.0623
 1548TIP3   OH2 4649   0.638   1.242   4.844  0.2216  0.2728  0.2735
 1548TIP3    H1 4650   0.596   1.275   4.923  0.2305 -1.4783  1.0506
 1548TIP3    H2 4651   0.621   1.148   4.845 -3.1788  0.5515 -3.8526
 1549TIP3   OH2 4652   0.143   2.113   4.732 -0.2027 -0.1926 -0.2120
 1549TIP3    H1 4653   0.074   2.065   4.778  1.1268 -1.2382  0.7528
 1549TIP3    H2 4654   0.106   2.201   4.719 -2.2228 -1.0737 -0.9278
 1550TIP3   OH2 4655   2.229   0.652   4.760 -0.6222 -0.4832 -0.0720
 1550TIP3    H1 4656   2.287   0.674   4.832 -0.4986  2.2817 -0.9013
 1550TIP3    H2 4657   2.287   0.618   4.691 -0.1474  0.8120 -0.3383
 1551TIP3   OH2 4658   5.466   4.986   0.459  0.1870  0.5914  0.6012
 1551TIP3    H1 4659   5.450   4.968   0.551 -1.7271 -1.3986 -0.0315
 1551TIP3    H2 4660   5.406   5.057   0.437 -0.6199 -0.0845  0.5452
 1552TIP3   OH2 4661   1.126   0.592   2.454  0.1808  0.9271  0.2428
 1552TIP3    H1 4662   1.084   0.591   2.540 -1.1508  0.7892 -0.3976
 1552TIP3    H2 4663   1.148   0.500   2.437 -0.3752  0.8266  0.0492
 1553TIP3   OH2 4664   1.631   5.674   5.053  0.2102  0.7444  0.0604
 1553TIP3    H1 4665   1.678   5.710   5.128  0.7503 -0.7909  0.5099
 1553TIP3    H2 4666   1.545   5.649   5.088  0.4193  0.1391  0.1638
 1554TIP3   OH2 4667   1.905   2.388   2.196 -0.0681  0.4335  0.2627
 1554TIP3    H1 4668   1.950   2.359   2.275  0.2320 -0.8766 -0.3603
 1554TIP3    H2 4669   1.857   2.466   2.223  2.3039  1.7156  1.0437
 1555TIP3   OH2 4670   6.262   5.645   0.193 -0.1965  0.4731  0.2678
 1555TIP3    H1 4671   6.194   5.701   0.230 -2.4149 -1.0309 -1.3091
 1555TIP3    H2 4672   6.270   5.573   0.255 -0.5040  0.3396  0.1548
 1556TIP3   OH2 4673   3.680   1.516   1.609 -0.0668 -0.0256  0.4659
 1556TIP3    H1 4674   3.663   1.428   1.575  0.9101  0.0094 -0.1380
 1556TIP3    H2 4675   3.596   1.543   1.647 -0.2036 -1.4715  1.2524
 1557TIP3   OH2 4676   2.913   4.704   2.159  0.7890 -0.3487  0.0307
 1557TIP3    H1 4677   2.946   4.686   2.247  2.1429  0.9685 -0.1811
 1557TIP3    H2 4678   2.978   4.665   2.101 -0.0196 -1.0698 -0.4198
 1558TIP3   OH2 4679   2.137   1.937   2.962 -0.4797 -0.7607 -0.1155
 1558TIP3    H1 4680   2.078   2.004   2.998  0.6878 -0.4557  1.3667
 1558TIP3    H2 4681   2.209   1.987   2.923 -1.1929 -1.1257 -1.9989
 1559TIP3   OH2 4682   3.087   4.433   1.657 -0.0721  0.0872 -0.3770
 1559TIP3    H1 4683   3.083   4.340   1.636  0.3559 -0.2521  0.9744
 1559TIP3    H2 4684   3.138   4.438   1.737  0.2919  1.5366 -0.6641
 1560TIP3   OH2 4685   0.677   0.601   1.312  0.2088 -0.0603  0.1425
 1560TIP3    H1 4686   0.600   0.649   1.344  0.1345 -1.1924  1.7848
 1560TIP3    H2 4687   0.746   0.622   1.374  0.5043 -1.0945  0.1736
 1561TIP3   OH2 4688   0.617   0.875   2.290 -0.2650 -0.3732 -0.1398
 1561TIP3    H1 4689   0.596   0.968   2.278  2.3849  0.0173 -2.9423
 1561TIP3    H2 4690   0.537   0.829   2.263 -0.9368  1.0910 -0.7421
 1562TIP3   OH2 4691   3.929   3.869   4.227  0.3917  0.8772  0.0696
 1562TIP3    H1 4692   3.878   3.799   4.187  0.5709 -0.3250  1.8438
 1562TIP3    H2 4693   3.959   3.922   4.153  1.8523 -1.9759 -1.5687
 1563TIP3   OH2 4694   0.611   1.168   3.398  0.0479  0.7652  0.1491
 1563TIP3    H1 4695   0.665   1.099   3.436  0.4901  0.9606 -0.1095
 1563TIP3    H2 4696   0.627   1.162   3.304 -1.4471 -0.0628 -0.0801
 1564TIP3   OH2 4697   5.281   5.137   3.405 -0.7844  0.1824 -0.1418
 1564TIP3    H1 4698   5.331   5.173   3.479  1.4649 -0.0230 -1.4970
 1564TIP3    H2 4699   5.217   5.078   3.446  0.1805  0.3184  1.6478
 1565TIP3   OH2 4700   4.815   2.186   1.101 -0.0039  0.4777 -0.1737
 1565TIP3    H1 4701   4.828   2.117   1.165  0.0649  2.1298  1.6710
 1565TIP3    H2 4702   4.725   2.175   1.071 -0.4427  0.3940  1.1336
 1566TIP3   OH2 4703   4.119   1.964   4.658 -1.0336  0.0387 -0.4562
 1566TIP3    H1 4704   4.057   2.035   4.639 -1.6935  0.0845  1.6396
 1566TIP3    H2 4705   4.096   1.935   4.746  1.0296 -0.9038 -0.1710
 1567TIP3   OH2 4706   0.734   1.148   2.356  0.0942 -0.3629  0.1099
 1567TIP3    H1 4707   0.805   1.091   2.328 -0.1308 -0.9784  0.7713
 1567TIP3    H2 4708   0.715   1.121   2.446  1.2806  2.0154  1.1780
 1568TIP3   OH2 4709   3.483   0.107   1.110 -0.5311  0.0403  0.0487
 1568TIP3    H1 4710   3.444   0.039   1.055 -0.4739  0.5694 -0.6591
 1568TIP3    H2 4711   3.467   0.077   1.200 -0.8454 -0.7123 -0.2477
 1569TIP3   OH2 4712   3.033   0.333   4.812  0.4143 -0.3945 -0.0456
 1569TIP3    H1 4713   3.102   0.290   4.763 -0.2469 -0.3096 -1.0881
 1569TIP3    H2 4714   2.979   0.262   4.846  0.1784 -0.4276 -0.4874
 1570TIP3   OH2 4715   5.419   5.892   2.932  0.0213  0.3575  0.3622
 1570TIP3    H1 4716   5.449   5.981   2.952  0.7148  0.6205 -1.6119
 1570TIP3    H2 4717   5.339   5.904   2.882 -1.0009 -0.2346  1.7755
 1571TIP3   OH2 4718   0.722   2.860   4.237 -0.2255 -0.0358 -0.0278
 1571TIP3    H1 4719   0.698   2.937   4.185 -0.1795  0.2740  0.3995
 1571TIP3    H2 4720   0.639   2.823   4.267 -0.2152  1.3195  1.8599
 1572TIP3   OH2 4721   5.656   5.855   4.383 -0.1156 -0.4073  0.3315
 1572TIP3    H1 4722   5.601   5.839   4.307  0.4309 -1.1645  0.0832
 1572TIP3    H2 4723   5.603   5.909   4.441 -0.7001 -0.1970 -0.3913
 1573TIP3   OH2 4724   2.456   2.234   0.023  0.1056 -0.2756  0.3279
 1573TIP3    H1 4725   2.507   2.272   0.094  0.8658  1.7443 -1.1697
 1573TIP3    H2 4726   2.411   2.160   0.062  0.4867  0.7297  2.8927
 1574TIP3   OH2 4727   1.708   2.946   4.574 -0.3546 -0.0563  0.0448
 1574TIP3    H1 4728   1.654   2.946   4.653 -1.9049  0.0972 -0.9801
 1574TIP3    H2 4729   1.731   3.038   4.561 -1.3685  0.1366 -0.4947
 1575TIP3   OH2 4730   5.130   1.482   1.162  0.3017 -0.5992 -0.1758
 1575TIP3    H1 4731   5.207   1.508   1.111  0.4043  0.3901  0.4531
 1575TIP3    H2 4732   5.094   1.565   1.194 -1.6074 -0.9490 -1.2609
 1576TIP3   OH2 4733   4.382   0.866   1.125  0.3464 -0.4225  0.3208
 1576TIP3    H1 4734   4.340   0.872   1.039  0.7917  0.7569  0.1622
 1576TIP3    H2 4735   4.344   0.788   1.165 -2.5807  0.9516  0.4961
 1577TIP3   OH2 4736   5.881   2.077   1.287  0.2630 -0.2470 -0.0688
 1577TIP3    H1 4737   5.807   2.120   1.244 -0.6633 -0.3324  1.3467
 1577TIP3    H2 4738   5.840   2.012   1.345  1.5033 -0.9963  0.0038
 1578TIP3   OH2 4739   5.370   3.594   4.599 -0.3010  0.8603 -0.6232
 1578TIP3    H1 4740   5.293   3.546   4.628 -0.0800  0.5403 -0.5671
 1578TIP3    H2 4741   5.336   3.657   4.536 -0.6228  0.7873 -0.5260
 1579TIP3   OH2 4742   2.475   4.155   5.039  0.0381  0.0289  0.4216
 1579TIP3    H1 4743   2.406   4.118   5.094 -1.3422  0.4330 -0.9675
 1579TIP3    H2 4744   2.460   4.249   5.042 -0.2277  0.0421 -0.8345
 1580TIP3   OH2 4745   4.335   0.142   1.536 -0.6544  0.0218  0.2485
 1580TIP3    H1 4746   4.286   0.061   1.523 -2.3821  1.1583 -0.5867
 1580TIP3    H2 4747   4.311   0.197   1.462  2.9322  0.1940 -0.9613
 1581TIP3   OH2 4748   6.317   1.441   1.580  0.5525 -0.4945  0.1606
 1581TIP3    H1 4749   6.251   1.510   1.593  2.4978  1.1703  1.7060
 1581TIP3    H2 4750   6.266   1.359   1.584 -1.2030  0.5946  3.3703
 1582TIP3   OH2 4751   6.279   3.241   1.611  0.4328  0.2113 -0.4453
 1582TIP3    H1 4752   6.307   3.300   1.541 -1.8090  0.8440 -0.8866
 1582TIP3    H2 4753   6.249   3.162   1.565  1.3337 -0.4194  0.0063
 1583TIP3   OH2 4754   1.799   2.686   3.992  0.4391 -0.1100 -0.2664
 1583TIP3    H1 4755   1.749   2.605   4.004 -1.0048  0.8676  0.6748
 1583TIP3    H2 4756   1.841   2.676   3.907 -0.7825 -1.2979 -0.7760
 1584TIP3   OH2 4757   0.610   2.733   0.804  0.2609 -0.3568 -0.4717
 1584TIP3    H1 4758   0.658   2.663   0.847 -1.0168 -0.2300  1.2817
 1584TIP3    H2 4759   0.518   2.708   0.813 -0.2063  1.3584 -0.1122
 1585TIP3   OH2 4760   4.853   4.914   1.722  0.0400 -0.3411  0.0010
 1585TIP3    H1 4761   4.781   4.906   1.785 -0.1715  0.6145 -0.0944
 1585TIP3    H2 4762   4.914   4.845   1.746 -0.6215 -0.7792  0.4719
 1586TIP3   OH2 4763   4.599   2.269   3.509 -0.2887  0.2954 -0.0424
 1586TIP3    H1 4764   4.582   2.212   3.584 -0.4546 -0.5122 -0.6794
 1586TIP3    H2 4765   4.578   2.215   3.433  1.2281  0.6027 -0.7272
 1587TIP3   OH2 4766   1.748   2.794   0.418 -0.3221  0.5045  0.0878
 1587TIP3    H1 4767   1.700   2.814   0.499 -0.8206 -0.1887 -0.0311
 1587TIP3    H2 4768   1.782   2.879   0.390  0.5738  0.6438  1.4648
 1588TIP3   OH2 4769   6.133   4.817   2.380  0.4284 -0.3056 -0.2935
 1588TIP3    H1 4770   6.165   4.767   2.304 -1.0713 -1.2359 -0.3421
 1588TIP3    H2 4771   6.212   4.834   2.432  1.2127 -1.2506 -1.1290
 1589TIP3   OH2 4772   5.470   1.211   0.741  0.5509 -0.0870 -0.1070
 1589TIP3    H1 4773   5.565   1.219   0.739  0.9973 -3.1997 -3.7280
 1589TIP3    H2 4774   5.439   1.269   0.671 -0.5119  2.0477  1.9923
 1590TIP3   OH2 4775   5.120   2.888   2.478 -0.2460  0.5245  0.6114
 1590TIP3    H1 4776   5.096   2.968   2.523 -1.2086  0.3473  0.4193
 1590TIP3    H2 4777   5.067   2.887   2.399  0.2123  0.0040  0.3008
 1591TIP3   OH2 4778   0.401   4.949   1.059 -0.0221 -0.4376 -0.3092
 1591TIP3    H1 4779   0.464   4.909   1.118 -0.9813 -1.7195 -0.0911
 1591TIP3    H2 4780   0.386   4.882   0.992  0.8436  0.8850 -1.8878
 1592TIP3   OH2 4781   3.762   2.911   4.560  0.0123  0.1483  0.4689
 1592TIP3    H1 4782   3.791   2.903   4.651 -0.9145 -0.4600  0.7269
 1592TIP3    H2 4783   3.724   2.826   4.539  1.4048 -0.1860 -0.9441
 1593TIP3   OH2 4784   0.475   0.744   4.314 -0.1717  0.0531  0.0962
 1593TIP3    H1 4785   0.537   0.818   4.312  0.1948 -0.0508  3.1807
 1593TIP3    H2 4786   0.427   0.755   4.396 -0.1320 -3.0816  0.6594
 1594TIP3   OH2 4787   1.002   3.723   3.418  0.2524 -0.3264  0.4089
 1594TIP3    H1 4788   1.043   3.768   3.492 -0.0661 -0.5736  0.7377
 1594TIP3    H2 4789   1.014   3.630   3.437  1.7768 -0.4043 -0.7498
 1595TIP3   OH2 4790   5.038   1.511   4.273  0.1638 -0.5495 -0.4232
 1595TIP3    H1 4791   5.096   1.441   4.243  0.6241 -0.4042  0.1152
 1595TIP3    H2 4792   5.093   1.567   4.327 -0.9264 -1.7035  2.1108
 1596TIP3   OH2 4793   4.938   2.126   2.579 -0.0006  0.0163 -0.4142
 1596TIP3    H1 4794   4.852   2.165   2.564  0.2674  1.1364  0.8205
 1596TIP3    H2 4795   4.998   2.182   2.528  0.3147  0.9612  0.9332
 1597TIP3   OH2 4796   4.453   4.262   2.277  0.3194  0.2446 -0.3663
 1597TIP3    H1 4797   4.506   4.238   2.202 -1.1344 -0.2325 -1.2751
 1597TIP3    H2 4798   4.372   4.212   2.267 -0.2042  0.7215  1.1286
 1598TIP3   OH2 4799   3.649   4.316   0.588  0.8607  0.1675  0.3390
 1598TIP3    H1 4800   3.675   4.408   0.587  2.2937 -0.2309 -0.6060
 1598TIP3    H2 4801   3.726   4.268   0.558 -0.7169 -1.1236 -1.9838
 1599TIP3   OH2 4802   3.961   1.532   4.696 -0.0821 -0.4631  0.6024
 1599TIP3    H1 4803   4.039   1.495   4.737  0.5063  0.0685 -0.0315
 1599TIP3    H2 4804   3.917   1.579   4.767  0.3702 -0.4442  0.8767
 1600TIP3   OH2 4805   4.121   0.613   2.772 -0.4798  0.2318  0.1349
 1600TIP3    H1 4806   4.044   0.664   2.746 -0.6679  0.7228  1.5794
 1600TIP3    H2 4807   4.085   0.535   2.813 -0.2219  0.4528  0.7959
 1601TIP3   OH2 4808   6.025   1.069   0.807 -0.0691  0.4373  0.6606
 1601TIP3    H1 4809   6.014   1.042   0.715  0.8009 -1.5191  1.0904
 1601TIP3    H2 4810   5.938   1.058   0.845 -0.4406  1.2762  0.0915
 1602TIP3   OH2 4811   4.697   1.936   4.643 -0.4979  0.0020  0.1337
 1602TIP3    H1 4812   4.634   1.905   4.577 -0.1698 -1.3017  0.4178
 1602TIP3    H2 4813   4.738   2.013   4.602 -1.4593  0.1958 -0.5084
 1603TIP3   OH2 4814   0.639   2.355   4.364 -0.2314  0.1078  0.0782
 1603TIP3    H1 4815   0.694   2.304   4.304 -1.6480 -0.4542 -0.7846
 1603TIP3    H2 4816   0.574   2.292   4.396 -1.2741  1.0881 -0.0732
 1604TIP3   OH2 4817   6.246   5.649   2.291 -0.1389  0.8592  0.1306
 1604TIP3    H1 4818   6.334   5.613   2.301  0.3134  1.8910 -0.0018
 1604TIP3    H2 4819   6.194   5.578   2.253  0.8862  0.5670 -0.7444
 1605TIP3   OH2 4820   3.256   3.433   4.269 -0.2311 -0.2268  0.2142
 1605TIP3    H1 4821   3.331   3.490   4.250  0.8697 -2.3412 -2.5702
 1605TIP3    H2 4822   3.187   3.464   4.212 -0.9395  0.5674  1.4472
 1606TIP3   OH2 4823   4.291   1.323   1.349  0.5238 -0.0926  0.7154
 1606TIP3    H1 4824   4.297   1.407   1.303 -0.2375  0.4969  1.6421
 1606TIP3    H2 4825   4.227   1.273   1.298  0.0889  0.3476  0.8201
 1607TIP3   OH2 4826   1.438   1.270   0.100  0.0809  0.1160 -0.0660
 1607TIP3    H1 4827   1.403   1.182   0.112  0.2356  0.0737  0.0891
 1607TIP3    H2 4828   1.500   1.262   0.028  1.9171 -0.4425  1.4900
 1608TIP3   OH2 4829   2.261   5.625   0.499  0.1852 -0.2949 -0.1563
 1608TIP3    H1 4830   2.240   5.657   0.587 -0.6351 -1.8901  0.2598
 1608TIP3    H2 4831   2.208   5.680   0.441 -0.1541  0.0086  0.4243
 1609TIP3   OH2 4832   1.760   2.817   4.884  0.9739  0.4822 -0.6216
 1609TIP3    H1 4833   1.822   2.884   4.854  0.3081  1.5676  0.3536
 1609TIP3    H2 4834   1.816   2.749   4.923  1.5926  1.2193 -0.1855
 1610TIP3   OH2 4835   2.451   0.532   3.248 -0.2421  0.7297  0.7412
 1610TIP3    H1 4836   2.545   0.540   3.262 -0.4155  1.7047  1.5113
 1610TIP3    H2 4837   2.441   0.457   3.190  0.9866  0.4376  0.8858
 1611TIP3   OH2 4838   0.818   0.913   0.499 -0.0429 -0.1464 -0.1551
 1611TIP3    H1 4839   0.774   0.954   0.573  1.4773  0.5163  0.4187
 1611TIP3    H2 4840   0.747   0.875   0.447 -1.1096 -1.2277  1.9649
 1612TIP3   OH2 4841   3.425   4.542   1.063 -0.4143  0.1897  0.7079
 1612TIP3    H1 4842   3.384   4.600   1.127  0.2639  1.1261  0.3227
 1612TIP3    H2 4843   3.469   4.602   1.002 -0.4992 -0.7012 -0.2511
 1613TIP3   OH2 4844   2.004   0.825   1.245  0.2245 -0.1243  0.4135
 1613TIP3    H1 4845   2.080   0.807   1.300 -1.4203 -3.4865  1.8260
 1613TIP3    H2 4846   1.938   0.761   1.272 -2.8428  1.9896 -1.3860
 1614TIP3   OH2 4847   5.168   5.472   1.013 -0.0707 -0.1124 -0.6769
 1614TIP3    H1 4848   5.230   5.485   1.085 -2.8835 -1.8060  2.3305
 1614TIP3    H2 4849   5.205   5.400   0.962  0.6630 -0.8483  0.8282
 1615TIP3   OH2 4850   3.304   3.643   0.857  0.0145  0.6630 -0.5655
 1615TIP3    H1 4851   3.251   3.721   0.877 -2.1787 -0.0606 -2.9599
 1615TIP3    H2 4852   3.380   3.677   0.810  0.5473  1.5597  0.9061
 1616TIP3   OH2 4853   5.943   5.463   3.347  0.1992  0.3318 -0.2572
 1616TIP3    H1 4854   5.857   5.449   3.306 -0.0583  1.2423 -0.0500
 1616TIP3    H2 4855   6.004   5.414   3.292 -0.4449 -0.2926 -0.4343
 1617TIP3   OH2 4856   3.578   3.431   4.454 -0.0400 -0.6235  0.5920
 1617TIP3    H1 4857   3.486   3.434   4.425 -0.0591 -0.1010  0.7004
 1617TIP3    H2 4858   3.594   3.338   4.473 -0.7609 -0.6213  1.2630
 1618TIP3   OH2 4859   2.729   1.870   4.286  0.5991 -0.4959 -0.6369
 1618TIP3    H1 4860   2.777   1.790   4.306 -0.0588 -0.3677  1.6480
 1618TIP3    H2 4861   2.641   1.854   4.320  0.3592  1.0569 -0.4839
 1619TIP3   OH2 4862   4.015   4.463   4.740 -0.3657 -0.2676  1.1181
 1619TIP3    H1 4863   4.018   4.387   4.683 -0.8005 -0.2234  1.0352
 1619TIP3    H2 4864   3.923   4.487   4.744 -0.0792  1.0980  0.0429
 1620TIP3   OH2 4865   1.512   3.721   3.244 -0.0555 -0.0704 -0.0800
 1620TIP3    H1 4866   1.439   3.719   3.306  0.6109 -0.4272  0.7041
 1620TIP3    H2 4867   1.542   3.630   3.240  0.1393  0.0115 -0.6682
 1621TIP3   OH2 4868   5.564   5.236   3.894 -0.3944 -0.3068 -0.5452
 1621TIP3    H1 4869   5.581   5.263   3.803  0.9883  1.1580  0.0982
 1621TIP3    H2 4870   5.601   5.306   3.947 -0.0178 -1.7322  1.1820
 1622TIP3   OH2 4871   5.026   2.684   1.847  0.1513 -0.4433  0.0820
 1622TIP3    H1 4872   5.117   2.713   1.843 -0.4157  1.6345  0.7062
 1622TIP3    H2 4873   4.991   2.705   1.760 -0.0351 -0.0187  0.2531
 1623TIP3   OH2 4874   4.513   5.105   0.912  0.0850 -0.3053  0.6041
 1623TIP3    H1 4875   4.507   5.121   0.817 -1.8177 -3.0792  0.1277
 1623TIP3    H2 4876   4.485   5.188   0.952  1.1479  1.0053 -1.2093
 1624TIP3   OH2 4877   1.770   1.337   1.549  0.0672  0.4785  0.0876
 1624TIP3    H1 4878   1.759   1.281   1.626  1.2285  0.4729  0.2705
 1624TIP3    H2 4879   1.682   1.349   1.515 -0.4812  0.5651  1.4833
 1625TIP3   OH2 4880   0.040   3.433   2.116  0.0968 -0.0295  0.7985
 1625TIP3    H1 4881   0.096   3.504   2.087  0.0674 -0.8919 -1.6642
 1625TIP3    H2 4882   0.080   3.354   2.079 -3.3651 -0.5512 -2.4601
 1626TIP3   OH2 4883   4.576   1.707   2.212  0.1335 -0.5841  0.2706
 1626TIP3    H1 4884   4.495   1.756   2.218 -1.2135 -2.8502  3.2026
 1626TIP3    H2 4885   4.642   1.772   2.188 -2.3033  1.5451 -1.1550
 1627TIP3   OH2 4886   4.400   1.314   2.040 -0.4168  0.4074  0.1007
 1627TIP3    H1 4887   4.418   1.269   1.957  0.8615  1.0321  0.0177
 1627TIP3    H2 4888   4.403   1.407   2.019  1.2279  0.6107  1.0757
 1628TIP3   OH2 4889   3.074   2.306   3.556  0.3021 -0.0055 -0.2478
 1628TIP3    H1 4890   3.124   2.327   3.477  0.0364  0.5748 -0.2680
 1628TIP3    H2 4891   3.005   2.247   3.526 -0.5940  1.2341 -0.7065
 1629TIP3   OH2 4892   2.875   2.208   1.507  0.0819 -0.0053  0.9790
 1629TIP3    H1 4893   2.876   2.302   1.528  2.3837  0.5058 -0.9929
 1629TIP3    H2 4894   2.944   2.197   1.441 -1.5936 -2.7137 -0.5264
 1630TIP3   OH2 4895   4.692   2.314   1.347 -0.2416  0.6489 -0.3513
 1630TIP3    H1 4896   4.760   2.249   1.332  1.4994  2.0794  0.8774
 1630TIP3    H2 4897   4.617   2.264   1.381  1.5571 -0.5955  2.0846
 1631TIP3   OH2 4898   1.066   5.261   4.721 -0.0975  0.3610 -0.4312
 1631TIP3    H1 4899   1.160   5.246   4.705 -0.0498 -0.8172  0.7552
 1631TIP3    H2 4900   1.041   5.328   4.657  1.1649 -0.5200 -1.9259
 1632TIP3   OH2 4901   2.322   4.171   0.101 -0.1753  0.2347 -0.1077
 1632TIP3    H1 4902   2.272   4.252   0.092  0.6927  0.8224  0.2684
 1632TIP3    H2 4903   2.310   4.146   0.192 -0.4942 -0.1057 -0.2393
 1633TIP3   OH2 4904   4.476   0.093   2.638  0.4662  0.3483  0.1213
 1633TIP3    H1 4905   4.409   0.042   2.591 -0.0107  1.7861 -0.8251
 1633TIP3    H2 4906   4.447   0.183   2.629  0.5221  0.7486  2.9585
 1634TIP3   OH2 4907   4.259   4.175   3.571  1.0909  0.4916  0.2035
 1634TIP3    H1 4908   4.208   4.151   3.494  0.5203  1.5068  0.2465
 1634TIP3    H2 4909   4.195   4.187   3.641  1.5108  0.5388  0.5920
 1635TIP3   OH2 4910   5.889   5.221   1.913  0.1894 -0.2847 -0.5659
 1635TIP3    H1 4911   5.813   5.275   1.889  1.2896  0.3110 -3.1503
 1635TIP3    H2 4912   5.883   5.145   1.855  0.0282 -1.7362  1.2825
 1636TIP3   OH2 4913   1.118   1.818   4.711  0.2694 -0.0413 -0.8830
 1636TIP3    H1 4914   1.069   1.876   4.769  0.0352 -0.0793 -1.0426
 1636TIP3    H2 4915   1.066   1.738   4.708  0.7661 -0.3899 -0.3895
 1637TIP3   OH2 4916   2.652   5.735   0.261 -0.7358  0.4431  0.2317
 1637TIP3    H1 4917   2.669   5.793   0.186 -0.6364 -0.2105 -0.2607
 1637TIP3    H2 4918   2.617   5.655   0.221  0.1355 -0.2463  0.8119
 1638TIP3   OH2 4919   1.838   5.382   0.242  0.2497  0.6629 -0.4437
 1638TIP3    H1 4920   1.751   5.392   0.203 -0.0701 -1.4902 -0.4162
 1638TIP3    H2 4921   1.821   5.347   0.329  1.0843 -3.1056 -1.5862
 1639TIP3   OH2 4922   6.142   3.366   4.500  0.0210 -0.0022 -0.2588
 1639TIP3    H1 4923   6.074   3.312   4.460  0.7348 -0.8442 -0.3586
 1639TIP3    H2 4924   6.165   3.430   4.432 -0.8926  0.5168 -0.1045
 1640TIP3   OH2 4925   5.134   4.654   2.774 -1.2692 -0.3219 -0.0679
 1640TIP3    H1 4926   5.067   4.721   2.763 -0.2736  0.7805  0.3644
 1640TIP3    H2 4927   5.149   4.651   2.869 -0.5673 -0.4043 -0.1796
 1641TIP3   OH2 4928   0.001   2.792   2.241 -0.2748  0.1084 -0.3555
 1641TIP3    H1 4929  -0.016   2.757   2.153 -1.8231  0.4659 -0.2243
 1641TIP3    H2 4930   0.019   2.715   2.294 -1.3850 -0.3058 -0.5564
 1642TIP3   OH2 4931   4.655   4.607   5.107 -0.1973  0.3034 -0.1370
 1642TIP3    H1 4932   4.693   4.530   5.064  1.9092  0.3286  1.5100
 1642TIP3    H2 4933   4.670   4.679   5.045  0.3774 -0.1207 -0.5042
 1643TIP3   OH2 4934   1.714   2.285   1.907  0.0254  0.4770  0.1347
 1643TIP3    H1 4935   1.646   2.303   1.973  0.6061  0.3757  0.7759
 1643TIP3    H2 4936   1.746   2.372   1.882  1.4219  0.4814  1.7364
 1644TIP3   OH2 4937   5.183   5.539   0.396  0.2022  0.3196  0.4631
 1644TIP3    H1 4938   5.114   5.553   0.330 -0.9315 -0.3003  1.4725
 1644TIP3    H2 4939   5.174   5.614   0.456 -0.4686 -0.4134  1.3084
 1645TIP3   OH2 4940   5.940   0.262   0.197 -0.3430  0.4616  0.2301
 1645TIP3    H1 4941   5.892   0.183   0.171  0.6107 -0.1051  0.1395
 1645TIP3    H2 4942   5.872   0.326   0.217 -1.2273 -0.9479  2.1367
 1646TIP3   OH2 4943   1.569   1.925   3.360  0.5604 -0.2564 -0.4067
 1646TIP3    H1 4944   1.544   1.960   3.274  2.4247  1.8788 -0.1858
 1646TIP3    H2 4945   1.489   1.930   3.412 -0.1628  0.1217 -1.5125
 1647TIP3   OH2 4946   3.625   5.008   2.402  0.0120  0.2777  0.2394
 1647TIP3    H1 4947   3.637   4.924   2.359  2.7173 -0.0662  1.4439
 1647TIP3    H2 4948   3.536   5.006   2.435 -0.6912 -1.2016 -1.5835
 1648TIP3   OH2 4949   6.041   5.300   1.213 -0.4928  0.0121 -0.1695
 1648TIP3    H1 4950   5.970   5.365   1.213 -0.4429  0.0694 -0.4959
 1648TIP3    H2 4951   6.002   5.221   1.176 -0.6506 -0.2586  0.5580
 1649TIP3   OH2 4952   6.307   1.128   1.733 -0.3217  0.1063 -0.0178
 1649TIP3    H1 4953   6.267   1.047   1.702  1.8099 -0.8634 -0.4647
 1649TIP3    H2 4954   6.247   1.161   1.799 -1.4494 -1.6323 -0.0964
 1650TIP3   OH2 4955   5.565   4.113   0.407 -0.1883  0.2739 -0.5730
 1650TIP3    H1 4956   5.544   4.068   0.490  0.7556 -0.6539 -0.8217
 1650TIP3    H2 4957   5.625   4.054   0.362  0.1413  1.2571 -1.4631
 1651TIP3   OH2 4958   4.306   1.411   2.680 -0.2143  0.0269  0.2166
 1651TIP3    H1 4959   4.362   1.420   2.757 -1.0797  0.7272  0.7764
 1651TIP3    H2 4960   4.328   1.325   2.644  1.3044  0.3357  0.3490
 1652TIP3   OH2 4961   1.751   1.366   3.646  0.3066  0.2479  0.3272
 1652TIP3    H1 4962   1.814   1.376   3.718  1.0512  1.1189 -0.4157
 1652TIP3    H2 4963   1.805   1.354   3.568 -0.3690  2.1993 -0.5129
 1653TIP3   OH2 4964   3.322   1.458   2.921 -0.0440 -0.0631 -0.6237
 1653TIP3    H1 4965   3.299   1.548   2.900 -1.8114  0.0945  1.6321
 1653TIP3    H2 4966   3.253   1.405   2.881  0.1208 -0.2765 -0.6284
 1654TIP3   OH2 4967   0.165   5.272   2.364  0.2317  0.4713 -0.1130
 1654TIP3    H1 4968   0.205   5.352   2.330  1.1946 -0.3525 -0.9946
 1654TIP3    H2 4969   0.131   5.297   2.450  0.9687  1.6958 -0.1471
 1655TIP3   OH2 4970   1.905   0.037   4.231  0.2145 -0.0663  0.3056
 1655TIP3    H1 4971   1.822   0.084   4.241 -1.1326 -2.2934  0.0883
 1655TIP3    H2 4972   1.958   0.068   4.305 -1.2362  0.5218  1.1633
 1656TIP3   OH2 4973   0.912   0.181   4.340 -0.3182  0.4172 -0.3090
 1656TIP3    H1 4974   0.992   0.207   4.386 -0.3576  0.8934 -0.4984
 1656TIP3    H2 4975   0.908   0.086   4.349 -1.7840  0.6553  3.1596
 1657TIP3   OH2 4976   6.253   3.655   1.897  0.2085  0.1364  0.1094
 1657TIP3    H1 4977   6.274   3.748   1.907  0.7697  0.0357 -0.0863
 1657TIP3    H2 4978   6.268   3.617   1.984 -0.4788  0.3088  0.3113
 1658TIP3   OH2 4979   0.916   0.268   3.739  0.1111 -0.2806  0.2915
 1658TIP3    H1 4980   0.835   0.243   3.695  0.3085 -0.6641  0.1351
 1658TIP3    H2 4981   0.953   0.185   3.770  0.6081 -0.1488  0.0672
 1659TIP3   OH2 4982   0.752   1.781   2.772  0.4196 -0.2285  0.3545
 1659TIP3    H1 4983   0.668   1.795   2.729  0.3543 -0.9108  0.2627
 1659TIP3    H2 4984   0.737   1.811   2.862  0.5410  1.1376 -0.0583
 1660TIP3   OH2 4985   0.719   4.140   2.724  0.2779 -0.1818  0.0957
 1660TIP3    H1 4986   0.790   4.104   2.778  1.0340 -0.6687 -1.1919
 1660TIP3    H2 4987   0.675   4.064   2.687  0.2668  0.1502 -0.5960
 1661TIP3   OH2 4988   4.309   1.733   0.925  0.5355 -0.3567  0.8698
 1661TIP3    H1 4989   4.339   1.785   0.851 -1.3268 -0.0876  0.2336
 1661TIP3    H2 4990   4.362   1.762   0.998  1.3085  0.5640 -0.0234
 1662TIP3   OH2 4991   4.786   1.886   2.100  0.2086 -0.1295  0.7484
 1662TIP3    H1 4992   4.832   1.919   2.177 -0.2883  0.9586  0.6085
 1662TIP3    H2 4993   4.854   1.876   2.033  0.3356  0.9776  0.6945
 1663TIP3   OH2 4994   1.289   1.119   0.861  0.4247 -0.5598 -0.2497
 1663TIP3    H1 4995   1.230   1.194   0.860  1.0990 -0.0111 -0.2082
 1663TIP3    H2 4996   1.289   1.087   0.771  1.5265  0.6350 -0.7068
 1664TIP3   OH2 4997   5.605   1.155   4.888  0.0115  0.5111 -0.2264
 1664TIP3    H1 4998   5.597   1.208   4.808  0.3284 -0.6815 -1.0749
 1664TIP3    H2 4999   5.699   1.147   4.902 -0.0458  0.8386  0.3606
 1665TIP3   OH2 5000   4.305   3.077   3.329 -0.3920 -0.1578 -0.2554
 1665TIP3    H1 5001   4.388   3.109   3.292 -0.7372  0.6076 -0.3796
 1665TIP3    H2 5002   4.331   3.006   3.388  0.3426 -0.0018 -0.3829
 1666TIP3   OH2 5003   5.855   1.147   3.616  0.0936  0.3313 -0.0991
 1666TIP3    H1 5004   5.796   1.082   3.655  0.0227  0.1952 -0.4306
 1666TIP3    H2 5005   5.813   1.231   3.634 -0.6602  0.1892 -1.0870
 1667TIP3   OH2 5006   6.109   1.089   2.367  0.0410  0.1768  0.1968
 1667TIP3    H1 5007   6.132   0.998   2.347 -2.2140 -1.0602  2.5971
 1667TIP3    H2 5008   6.047   1.113   2.299  0.3448 -0.1964 -0.2265
 1668TIP3   OH2 5009   1.402   5.421   4.442  0.7442 -0.5557 -0.0021
 1668TIP3    H1 5010   1.388   5.372   4.523 -1.8555 -2.1598 -1.3045
 1668TIP3    H2 5011   1.453   5.361   4.386  2.2914  0.4342  0.3024
 1669TIP3   OH2 5012   5.690   0.385   2.092  0.5169  0.5949  0.2299
 1669TIP3    H1 5013   5.679   0.291   2.108  0.6723  0.6867  0.8868
 1669TIP3    H2 5014   5.773   0.407   2.135  1.3195  0.7139 -1.3103
 1670TIP3   OH2 5015   4.111   2.416   4.513  0.3926 -0.2104  0.5293
 1670TIP3    H1 5016   4.078   2.488   4.566 -0.1179 -0.2382  0.2559
 1670TIP3    H2 5017   4.032   2.374   4.477  0.6693  2.1116 -3.4031
 1671TIP3   OH2 5018   5.244   1.186   2.235 -0.2834 -0.1705 -0.6105
 1671TIP3    H1 5019   5.284   1.114   2.284 -2.0527 -0.1960  0.9035
 1671TIP3    H2 5020   5.313   1.215   2.175  0.9959 -2.0757 -0.1565
 1672TIP3   OH2 5021   1.802   2.176   2.590 -0.4585 -0.5732  0.6450
 1672TIP3    H1 5022   1.782   2.083   2.577 -0.9231 -0.5282  0.9944
 1672TIP3    H2 5023   1.896   2.184   2.573 -0.7564 -0.7682 -1.2489
 1673TIP3   OH2 5024   1.757   3.496   2.224  0.4413  0.2142 -0.4235
 1673TIP3    H1 5025   1.699   3.421   2.240  1.0910 -0.1703  0.2064
 1673TIP3    H2 5026   1.844   3.465   2.250  0.5149  1.5957  1.1650
 1674TIP3   OH2 5027   3.322   3.570   2.618  0.1386 -0.0549 -0.2711
 1674TIP3    H1 5028   3.238   3.614   2.634  1.0318  3.3452 -3.4013
 1674TIP3    H2 5029   3.388   3.631   2.650  1.4595 -1.1349 -0.8461
 1675TIP3   OH2 5030   3.204   4.816   3.702 -0.3528 -0.2180  0.1122
 1675TIP3    H1 5031   3.296   4.795   3.720 -0.5568 -1.0387  0.2508
 1675TIP3    H2 5032   3.208   4.892   3.645  0.4175 -0.2979  0.0401
 1676TIP3   OH2 5033   4.324   0.937   0.578  0.5570 -0.0995  0.2633
 1676TIP3    H1 5034   4.301   1.008   0.518  0.0247  0.5669  1.2241
 1676TIP3    H2 5035   4.365   0.981   0.653 -0.3579 -0.7080  1.1627
 1677TIP3   OH2 5036   2.417   5.841   3.313 -0.1261 -0.2277  0.3047
 1677TIP3    H1 5037   2.330   5.829   3.350  0.2926 -1.3187  1.0122
 1677TIP3    H2 5038   2.474   5.789   3.370  1.0569  0.8326  0.1354
 1678TIP3   OH2 5039   3.033   1.250   4.451 -0.1982  0.2446  0.0264
 1678TIP3    H1 5040   3.037   1.268   4.357  0.3536  1.1483  0.2083
 1678TIP3    H2 5041   3.113   1.289   4.486  0.3302 -1.3323  0.6808
 1679TIP3   OH2 5042   1.086   1.458   1.961 -0.2377 -0.0135 -0.7396
 1679TIP3    H1 5043   1.058   1.410   2.039  0.4044  0.3891 -0.2479
 1679TIP3    H2 5044   1.033   1.538   1.960 -0.2198 -0.0012 -0.6922
 1680TIP3   OH2 5045   2.159   4.254   2.287 -0.1310  0.3308 -0.0366
 1680TIP3    H1 5046   2.103   4.181   2.314  1.0312 -0.6444 -0.1771
 1680TIP3    H2 5047   2.248   4.220   2.294  0.3886  1.3650 -1.2294
 1681TIP3   OH2 5048   5.381   3.197   1.344  0.1108 -0.1039  0.3015
 1681TIP3    H1 5049   5.365   3.103   1.331  0.5305 -0.3091  1.1944
 1681TIP3    H2 5050   5.377   3.209   1.439 -0.1683  0.8303  0.1750
 1682TIP3   OH2 5051   3.298   5.818   0.261  0.2289 -0.3407  1.0457
 1682TIP3    H1 5052   3.324   5.886   0.323  0.4533 -0.8944  1.5672
 1682TIP3    H2 5053   3.211   5.844   0.231 -0.1440 -0.3958  2.0670
 1683TIP3   OH2 5054   3.954   0.252   3.142  0.4644 -0.1093  0.5455
 1683TIP3    H1 5055   3.881   0.291   3.191  1.4035  2.5833 -0.0177
 1683TIP3    H2 5056   3.942   0.158   3.152 -2.1643  0.2662  1.7944
 1684TIP3   OH2 5057   1.087   3.480   5.113  0.1264 -0.3264 -0.1243
 1684TIP3    H1 5058   1.131   3.561   5.136 -0.1614  0.4912 -2.2790
 1684TIP3    H2 5059   1.155   3.425   5.074 -0.0735 -0.3365 -0.4648
 1685TIP3   OH2 5060   0.012   1.029   4.681  0.0190  0.4655 -0.5413
 1685TIP3    H1 5061   0.033   0.956   4.740  0.8233  1.5170  0.5318
 1685TIP3    H2 5062   0.018   0.992   4.593  1.1230 -0.5946 -0.0400
 1686TIP3   OH2 5063   3.819   5.829   0.307 -0.3938 -0.4449  0.3068
 1686TIP3    H1 5064   3.779   5.744   0.322  1.8952 -1.3369  1.8683
 1686TIP3    H2 5065   3.897   5.829   0.362  0.0198  2.4385 -0.1236
 1687TIP3   OH2 5066   3.063   2.311   2.939  0.0605 -0.5617  0.0125
 1687TIP3    H1 5067   3.035   2.239   2.882 -2.5689  0.4950 -0.1859
 1687TIP3    H2 5068   3.029   2.288   3.025 -0.2524  0.1391  0.0804
 1688TIP3   OH2 5069   4.811   2.291   0.689  0.0962  0.2769  0.0266
 1688TIP3    H1 5070   4.746   2.268   0.755  0.0781 -0.2668 -0.1730
 1688TIP3    H2 5071   4.777   2.254   0.607  0.8735 -0.4262  0.0013
 1689TIP3   OH2 5072   4.670   5.146   0.046 -0.1181  0.3513 -0.8384
 1689TIP3    H1 5073   4.650   5.058   0.013 -1.3731 -0.1612  1.1203
 1689TIP3    H2 5074   4.760   5.140   0.076  0.5019  0.3699 -2.5609
 1690TIP3   OH2 5075   0.703   3.854   2.437 -0.2052 -0.3416 -0.2249
 1690TIP3    H1 5076   0.794   3.871   2.410  0.0010 -0.7595  0.1975
 1690TIP3    H2 5077   0.651   3.873   2.359  0.1343  1.0093 -0.1456
 1691TIP3   OH2 5078   3.368   2.417   0.325 -0.3122 -0.7435 -0.1876
 1691TIP3    H1 5079   3.300   2.386   0.265  0.4140 -1.3919 -0.7054
 1691TIP3    H2 5080   3.325   2.421   0.411 -1.7492  1.5310 -0.9384
 1692TIP3   OH2 5081   4.711   3.276   1.676  0.4906  0.5518 -0.1534
 1692TIP3    H1 5082   4.786   3.324   1.639 -0.0421 -0.2887 -2.5315
 1692TIP3    H2 5083   4.689   3.212   1.609 -1.6614  0.0184  0.9823
 1693TIP3   OH2 5084   6.034   0.217   0.493  0.7669  0.0170 -0.0171
 1693TIP3    H1 5085   6.094   0.142   0.494  0.4898 -0.2114 -0.1786
 1693TIP3    H2 5086   6.006   0.223   0.401  2.0073  1.3048 -0.3427
 1694TIP3   OH2 5087   3.062   1.294   4.170  0.7504 -0.7139  0.5702
 1694TIP3    H1 5088   3.070   1.257   4.082  2.7279 -0.7954  0.7332
 1694TIP3    H2 5089   3.043   1.387   4.155 -0.4122 -1.0133  0.1027
 1695TIP3   OH2 5090   2.135   4.868   0.335  0.0621  0.3324 -0.3336
 1695TIP3    H1 5091   2.103   4.778   0.330  0.1242  0.0672  2.2938
 1695TIP3    H2 5092   2.057   4.920   0.354  0.2781  0.5394  0.0102
 1696TIP3   OH2 5093   4.751   3.473   3.694  0.4100  0.4422 -0.6572
 1696TIP3    H1 5094   4.762   3.414   3.768  0.4636 -0.7881 -1.5923
 1696TIP3    H2 5095   4.656   3.477   3.681  0.4322 -0.2238 -1.1507
 1697TIP3   OH2 5096   1.323   1.299   1.998 -0.2912  0.3334 -0.6295
 1697TIP3    H1 5097   1.236   1.334   1.983 -0.6812 -1.4619 -3.2991
 1697TIP3    H2 5098   1.378   1.341   1.931  0.4905  0.1353 -0.1298
 1698TIP3   OH2 5099   0.182   4.205   4.720  0.1881  0.0397 -0.0259
 1698TIP3    H1 5100   0.209   4.189   4.630  0.6497  0.8989 -0.0546
 1698TIP3    H2 5101   0.089   4.224   4.715  0.1954 -0.0027 -0.3058
 1699TIP3   OH2 5102   4.967   0.034   2.580 -0.0151 -0.2027 -0.0924
 1699TIP3    H1 5103   4.931  -0.054   2.577  0.0265 -0.2020 -0.6539
 1699TIP3    H2 5104   4.961   0.059   2.673 -0.5521 -0.5698 -0.0230
 1700TIP3   OH2 5105   1.299   0.018   2.125 -0.4986  0.1344  0.0133
 1700TIP3    H1 5106   1.308   0.069   2.206  0.1270 -2.4300  1.6955
 1700TIP3    H2 5107   1.388   0.011   2.091 -0.5073 -0.2403  0.0677
 1701TIP3   OH2 5108   2.185   1.131   4.986  0.1290  0.3632 -0.0713
 1701TIP3    H1 5109   2.174   1.077   4.908 -0.6544  1.1763 -0.5372
 1701TIP3    H2 5110   2.169   1.220   4.956  2.2123  0.9976  0.4930
 1702TIP3   OH2 5111   5.280   0.652   1.024 -0.1530 -0.0025 -0.2971
 1702TIP3    H1 5112   5.301   0.603   0.944 -1.5973 -0.2272 -0.5711
 1702TIP3    H2 5113   5.192   0.685   1.009  0.2249  1.4463  0.5094
 1703TIP3   OH2 5114   5.632   0.232   0.929 -0.2305  0.1406 -0.2809
 1703TIP3    H1 5115   5.724   0.228   0.954 -0.1586 -0.4169 -0.6168
 1703TIP3    H2 5116   5.629   0.297   0.858 -0.1994  0.6047  0.1329
 1704TIP3   OH2 5117   2.771   2.819   3.433  0.1543  0.3685 -0.5097
 1704TIP3    H1 5118   2.684   2.784   3.448  1.1612 -2.1053  0.0462
 1704TIP3    H2 5119   2.793   2.793   3.343  0.6544  0.1665 -0.3348
 1705TIP3   OH2 5120   1.724   3.115   0.968 -0.3674 -0.4381  0.3538
 1705TIP3    H1 5121   1.799   3.107   1.027 -0.7170 -2.0342  0.6179
 1705TIP3    H2 5122   1.734   3.043   0.906 -1.0244  0.0902 -0.3809
 1706TIP3   OH2 5123   3.277   1.867   0.747  0.2956  0.4869 -0.0904
 1706TIP3    H1 5124   3.271   1.792   0.689  0.7332 -0.2303  0.7705
 1706TIP3    H2 5125   3.310   1.832   0.830  1.2659  1.7422  0.0976
 1707TIP3   OH2 5126   1.735   1.744   1.246  0.0503  0.3790 -0.0249
 1707TIP3    H1 5127   1.739   1.725   1.340 -0.4690  1.7887  0.3064
 1707TIP3    H2 5128   1.687   1.826   1.240 -2.1321 -0.9179 -1.7272
 1708TIP3   OH2 5129   1.967   2.432   0.744 -0.2307 -0.0282  0.2042
 1708TIP3    H1 5130   2.039   2.469   0.795 -0.4493  0.1347  0.3947
 1708TIP3    H2 5131   2.009   2.396   0.666 -0.1367  1.7205 -0.6050
 1709TIP3   OH2 5132   0.059   1.405   4.636  0.0259 -0.0550  0.3129
 1709TIP3    H1 5133   0.123   1.368   4.696  1.9118 -0.2672 -1.6991
 1709TIP3    H2 5134   0.069   1.354   4.556 -4.9841 -2.3123  0.7514
 1710TIP3   OH2 5135   5.624   3.475   0.182  0.9507 -0.0479  0.2948
 1710TIP3    H1 5136   5.577   3.446   0.260  1.3207  0.0735  0.5635
 1710TIP3    H2 5137   5.563   3.533   0.138  0.8389  0.0974  0.6361
 1711TIP3   OH2 5138   0.277   1.711   0.808  0.4888 -0.1555 -0.1216
 1711TIP3    H1 5139   0.299   1.707   0.901  1.1889 -0.4385 -0.2900
 1711TIP3    H2 5140   0.207   1.647   0.797  1.3004 -1.0865 -0.0171
 1712TIP3   OH2 5141   2.953   1.698   1.851 -0.3962  0.5725  0.0851
 1712TIP3    H1 5142   2.874   1.713   1.903 -1.0507  0.5799 -0.8821
 1712TIP3    H2 5143   2.927   1.721   1.762  1.2631  2.4708  0.0273
 1713TIP3   OH2 5144   2.576   5.212   1.504  0.1035  0.0819  0.1144
 1713TIP3    H1 5145   2.493   5.259   1.496  0.1841  0.2165  0.0731
 1713TIP3    H2 5146   2.552   5.120   1.492  0.1268  0.2160 -1.0206
 1714TIP3   OH2 5147   3.677   2.855   2.562  0.1936  0.0345 -0.2544
 1714TIP3    H1 5148   3.596   2.896   2.590  0.3062  1.8343 -2.2371
 1714TIP3    H2 5149   3.720   2.827   2.642  0.2949  4.2919  1.4288
 1715TIP3   OH2 5150   0.898   3.045   0.641 -0.2263  0.4243  0.2110
 1715TIP3    H1 5151   0.988   3.050   0.607 -0.8431  0.4551 -1.4956
 1715TIP3    H2 5152   0.867   2.958   0.615 -1.6589  1.4837 -1.8552
 1716TIP3   OH2 5153   0.838   0.784   4.764  0.0727  0.0874  0.3721
 1716TIP3    H1 5154   0.861   0.708   4.711  0.4194 -0.6623  1.5689
 1716TIP3    H2 5155   0.768   0.827   4.715  2.0586  0.8800 -2.0025
 1717TIP3   OH2 5156   4.142   5.783   1.215  0.0218 -0.1223  0.3511
 1717TIP3    H1 5157   4.071   5.839   1.184 -0.6087  0.1415  2.1598
 1717TIP3    H2 5158   4.215   5.844   1.229  0.1794 -0.1802 -0.1909
 1718TIP3   OH2 5159   1.157   2.257   3.766  0.0459 -0.1906  0.4283
 1718TIP3    H1 5160   1.223   2.325   3.750  0.7179 -0.4720  1.8606
 1718TIP3    H2 5161   1.082   2.305   3.804  0.1515 -0.1183  0.5465
 1719TIP3   OH2 5162   1.392   0.981   3.400  0.1770 -0.1016  0.5585
 1719TIP3    H1 5163   1.334   0.945   3.332  2.0863  0.3665 -1.4617
 1719TIP3    H2 5164   1.340   1.048   3.443 -0.6735  0.7007 -1.5569
 1720TIP3   OH2 5165   1.796   4.714   2.855 -0.3110  0.1680  0.5889
 1720TIP3    H1 5166   1.830   4.752   2.936 -1.2388 -0.7175  1.4267
 1720TIP3    H2 5167   1.829   4.624   2.854 -1.6784 -0.3635  0.8703
 1721TIP3   OH2 5168   1.651   2.165   2.873  0.3003 -0.0141 -0.5840
 1721TIP3    H1 5169   1.620   2.074   2.871 -1.5048  0.5509 -0.5649
 1721TIP3    H2 5170   1.624   2.201   2.789 -0.8000  1.0186  0.1723
 1722TIP3   OH2 5171   5.747   5.438   0.654 -0.1845  0.0671 -0.2611
 1722TIP3    H1 5172   5.794   5.423   0.572 -0.2211 -1.3654 -0.0399
 1722TIP3    H2 5173   5.712   5.353   0.678 -1.0548  0.6730  0.7213
 1723TIP3   OH2 5174   2.376   4.528   3.264 -0.5024  0.4845 -0.0202
 1723TIP3    H1 5175   2.388   4.578   3.345 -1.2504  0.7521 -0.0689
 1723TIP3    H2 5176   2.381   4.593   3.194  0.5931  0.1930 -0.2302
 1724TIP3   OH2 5177   2.095   1.068   3.424 -0.3445 -0.6267  0.1028
 1724TIP3    H1 5178   2.088   0.978   3.390 -1.0049 -1.1403  1.5342
 1724TIP3    H2 5179   2.005   1.099   3.428 -0.1354  0.0197 -0.1337
 1725TIP3   OH2 5180   3.249   0.710   4.092  0.5477  0.5110 -0.2244
 1725TIP3    H1 5181   3.155   0.725   4.078  0.4126 -0.9357 -1.1101
 1725TIP3    H2 5182   3.282   0.793   4.125 -0.6288  1.7878 -2.0654
 1726TIP3   OH2 5183   4.874   1.376   1.025  0.3844  0.0454 -0.1378
 1726TIP3    H1 5184   4.925   1.423   1.091  0.3259 -1.6997  1.2226
 1726TIP3    H2 5185   4.933   1.366   0.951  1.1420  0.3080  0.4175
 1727TIP3   OH2 5186   3.231   1.635   3.359 -0.1085 -0.4379  0.1648
 1727TIP3    H1 5187   3.191   1.704   3.307  0.4014  0.4226  0.8734
 1727TIP3    H2 5188   3.181   1.557   3.339 -1.7610  0.4751  0.5843
 1728TIP3   OH2 5189   0.383   0.040   4.937  0.4202  0.2832 -0.1068
 1728TIP3    H1 5190   0.470   0.074   4.956  1.1434 -1.8778  0.8555
 1728TIP3    H2 5191   0.325   0.090   4.994  1.5703 -0.7637  2.1157
 1729TIP3   OH2 5192   2.952   0.123   3.451  0.4654 -0.1001 -0.3915
 1729TIP3    H1 5193   2.984   0.213   3.441  3.4061 -1.1226 -1.3225
 1729TIP3    H2 5194   2.970   0.101   3.542 -2.6218  0.9608  0.5968
 1730TIP3   OH2 5195   3.485   4.488   4.055  0.6024 -0.1384  0.1652
 1730TIP3    H1 5196   3.555   4.553   4.055  0.3882  0.1644  2.6076
 1730TIP3    H2 5197   3.524   4.412   4.011  2.6432 -0.0975  1.7306
 1731TIP3   OH2 5198   1.068   4.323   4.399 -0.0488  0.1572  0.0578
 1731TIP3    H1 5199   1.086   4.345   4.307  0.8264  2.2792  0.6574
 1731TIP3    H2 5200   0.973   4.328   4.407 -0.0269  2.1879 -0.3073
 1732TIP3   OH2 5201   0.474   2.578   3.724 -0.2068  0.1371 -0.5859
 1732TIP3    H1 5202   0.378   2.576   3.715 -0.1428 -2.3308 -1.6389
 1732TIP3    H2 5203   0.490   2.540   3.810 -0.1618  1.6017  0.0805
 1733TIP3   OH2 5204   1.417   1.295   2.519 -0.6331  0.0332  0.6108
 1733TIP3    H1 5205   1.429   1.331   2.431 -0.6314  1.0105  0.9951
 1733TIP3    H2 5206   1.375   1.211   2.505 -1.3295  0.5124 -0.3004
 1734TIP3   OH2 5207   0.224   2.968   2.396  0.3340  0.1318 -0.4830
 1734TIP3    H1 5208   0.239   3.056   2.363 -0.5024  0.6950  0.5365
 1734TIP3    H2 5209   0.168   2.927   2.331  2.0957 -0.2677 -1.8115
 1735TIP3   OH2 5210   4.752   0.786   3.980 -0.1888  0.2598 -0.4228
 1735TIP3    H1 5211   4.700   0.754   3.906  0.2220  1.6924 -1.3711
 1735TIP3    H2 5212   4.724   0.877   3.992 -1.0812 -0.2305  1.9687
 1736TIP3   OH2 5213   0.354   5.670   1.730 -0.5820 -0.3838  0.1644
 1736TIP3    H1 5214   0.373   5.719   1.650 -0.2723 -0.0017  0.4684
 1736TIP3    H2 5215   0.440   5.644   1.764 -0.6805 -0.0406  0.6863
 1737TIP3   OH2 5216   5.539   5.472   4.453 -0.3022 -0.7209  0.3031
 1737TIP3    H1 5217   5.456   5.467   4.405  0.4331  1.1400 -1.3011
 1737TIP3    H2 5218   5.599   5.418   4.401 -0.0480 -0.5448  0.4198
 1738TIP3   OH2 5219   0.896   0.148   4.813 -0.4421 -0.1747  0.0790
 1738TIP3    H1 5220   0.967   0.159   4.877 -0.5074  1.0478 -0.0484
 1738TIP3    H2 5221   0.932   0.087   4.749  1.3140  1.9638 -1.1011
 1739TIP3   OH2 5222   0.828   5.607   4.076  0.1634 -0.3257  0.2318
 1739TIP3    H1 5223   0.847   5.701   4.080  0.9977 -0.4685 -0.0728
 1739TIP3    H2 5224   0.800   5.591   3.986  2.2323 -0.7336 -0.3887
 1740TIP3   OH2 5225   2.769   3.440   4.744  0.2967  0.2393 -0.0252
 1740TIP3    H1 5226   2.750   3.529   4.714  0.0322  1.2862  2.9349
 1740TIP3    H2 5227   2.686   3.393   4.733 -0.0212  0.8129 -0.1439
 1741TIP3   OH2 5228   0.323   5.851   2.733  0.6445  0.5714  0.7213
 1741TIP3    H1 5229   0.294   5.805   2.812 -0.0783 -3.0536 -1.4468
 1741TIP3    H2 5230   0.404   5.807   2.708  1.4324  2.3616 -0.0566
 1742TIP3   OH2 5231   0.686   0.588   3.615 -0.2222  0.0121  0.3912
 1742TIP3    H1 5232   0.677   0.683   3.600  2.2871  0.5992  1.9664
 1742TIP3    H2 5233   0.604   0.562   3.657  0.2653  2.2387  3.0097
 1743TIP3   OH2 5234   2.574   4.507   4.337  0.1349 -0.4780 -0.0477
 1743TIP3    H1 5235   2.586   4.422   4.379 -0.7868 -1.4123 -1.5471
 1743TIP3    H2 5236   2.559   4.568   4.409 -0.3781 -1.8065  1.0210
 1744TIP3   OH2 5237   5.400   1.816   1.985  0.3445 -0.9599 -0.0280
 1744TIP3    H1 5238   5.401   1.722   2.001  0.2076 -0.7488  1.3139
 1744TIP3    H2 5239   5.491   1.839   1.968  0.4565 -1.2475  0.1788
 1745TIP3   OH2 5240   0.808   0.820   4.292  0.2907 -0.1326 -0.4116
 1745TIP3    H1 5241   0.794   0.744   4.349 -1.0199  0.5176  0.1786
 1745TIP3    H2 5242   0.865   0.878   4.343 -0.8402  0.4258  0.2734
 1746TIP3   OH2 5243   2.577   3.261   4.660 -0.3282  0.0265  0.2320
 1746TIP3    H1 5244   2.529   3.294   4.584 -1.7125 -1.2842  0.4931
 1746TIP3    H2 5245   2.655   3.221   4.623 -2.0646 -2.6521 -0.8346
 1747TIP3   OH2 5246   6.218   2.243   2.286 -0.1778  0.1284  0.6509
 1747TIP3    H1 5247   6.151   2.242   2.218  1.6717  0.4218 -1.3070
 1747TIP3    H2 5248   6.259   2.157   2.281  2.0247  1.1525 -0.9044
 1748TIP3   OH2 5249   2.547   5.797   0.511  0.3707 -0.1055  0.5191
 1748TIP3    H1 5250   2.566   5.765   0.423 -1.6803  0.3863 -0.1536
 1748TIP3    H2 5251   2.521   5.720   0.560 -0.3082 -0.1106  0.1523
 1749TIP3   OH2 5252   5.643   1.598   5.097  0.4363 -0.1335  0.3319
 1749TIP3    H1 5253   5.574   1.608   5.162 -2.0132 -3.1093 -1.5354
 1749TIP3    H2 5254   5.613   1.650   5.022  0.3272 -1.1282 -0.3440
 1750TIP3   OH2 5255   0.494   2.247   0.942  0.6793  0.0798 -0.6502
 1750TIP3    H1 5256   0.407   2.225   0.977  0.1590  0.2692 -1.7869
 1750TIP3    H2 5257   0.530   2.308   1.006 -0.0986  0.1266 -0.2437
 1751TIP3   OH2 5258   6.285   1.896   2.069 -0.2355 -0.9350 -0.6214
 1751TIP3    H1 5259   6.212   1.910   2.129  0.5574 -0.1655  0.1757
 1751TIP3    H2 5260   6.277   1.967   2.005  0.4042 -0.2399  0.0612
 1752TIP3   OH2 5261   0.938   5.903   2.516 -0.1719  0.1051 -0.5415
 1752TIP3    H1 5262   0.977   5.827   2.560  1.7970 -0.3023 -2.7699
 1752TIP3    H2 5263   0.977   5.979   2.559  0.5934 -0.2382 -0.6188
 1753TIP3   OH2 5264   6.067   0.249   0.786 -0.2039 -0.3754 -0.0638
 1753TIP3    H1 5265   6.029   0.222   0.702 -1.5718  2.6704 -0.5697
 1753TIP3    H2 5266   6.130   0.181   0.807 -0.3107 -1.6124 -3.2168
 1754TIP3   OH2 5267   1.290   1.258   1.624 -0.4937 -0.1295 -0.8435
 1754TIP3    H1 5268   1.357   1.308   1.670 -1.8225  0.8136  0.1454
 1754TIP3    H2 5269   1.262   1.192   1.688 -1.5707  0.4739 -0.6670
 1755TIP3   OH2 5270   0.126   3.439   5.025 -0.1065  0.1444 -0.6296
 1755TIP3    H1 5271   0.212   3.447   4.985 -1.2028 -1.0569 -3.4792
 1755TIP3    H2 5272   0.069   3.495   4.973 -1.0501  1.2283  1.4384
 1756TIP3   OH2 5273   0.572   5.625   3.043 -0.1148 -0.0269 -0.1437
 1756TIP3    H1 5274   0.562   5.623   3.138 -0.8946 -1.6192 -0.2245
 1756TIP3    H2 5275   0.524   5.703   3.015 -1.7557 -0.7156  0.6123
 1757TIP3   OH2 5276   3.902   4.641   1.994  0.5268 -0.3354  0.1463
 1757TIP3    H1 5277   3.904   4.663   1.901  0.4184 -0.2039  0.1744
 1757TIP3    H2 5278   3.889   4.546   1.997 -1.0100 -0.1476  0.0343
 1758TIP3   OH2 5279   5.857   1.742   1.882 -0.0796  0.1783 -0.2061
 1758TIP3    H1 5280   5.830   1.830   1.906  1.9576  1.3203 -1.8315
 1758TIP3    H2 5281   5.922   1.717   1.948 -0.1767  0.1482 -0.1213
 1759TIP3   OH2 5282   4.651   2.336   3.979  0.0864  0.0569 -0.3579
 1759TIP3    H1 5283   4.657   2.426   3.947  2.6257  0.2307  0.3675
 1759TIP3    H2 5284   4.703   2.284   3.917 -2.5121 -1.2670 -1.6085
 1760TIP3   OH2 5285   4.178   5.552   2.990 -0.0603  0.1419  0.1292
 1760TIP3    H1 5286   4.179   5.536   2.896  1.6130 -1.3640  0.3507
 1760TIP3    H2 5287   4.087   5.570   3.011 -0.4356  0.6273 -1.7851
 1761TIP3   OH2 5288   0.362   4.490   2.896 -0.5346 -0.1344 -0.2970
 1761TIP3    H1 5289   0.268   4.492   2.877 -0.8348 -1.2208  0.8706
 1761TIP3    H2 5290   0.370   4.424   2.965  0.9288  0.8368  0.5030
 1762TIP3   OH2 5291   3.871   0.923   1.721  0.0662  0.7353  0.0588
 1762TIP3    H1 5292   3.814   0.880   1.785 -0.6384  1.1671 -0.2643
 1762TIP3    H2 5293   3.898   1.004   1.764  1.2163  0.1049  0.5804
 1763TIP3   OH2 5294   5.446   4.123   2.608  0.5439 -0.0355 -0.1313
 1763TIP3    H1 5295   5.534   4.119   2.571  0.7090 -1.7631  0.3265
 1763TIP3    H2 5296   5.452   4.190   2.677  1.9487 -1.1360  0.8899
 1764TIP3   OH2 5297   2.431   3.863   2.267 -0.4043 -0.4890 -0.0993
 1764TIP3    H1 5298   2.472   3.792   2.219  1.3874 -0.3436  1.1271
 1764TIP3    H2 5299   2.503   3.907   2.312 -1.6271  1.2928  0.2306
 1765TIP3   OH2 5300   2.400   1.902   2.236 -0.0887  0.1834  0.0319
 1765TIP3    H1 5301   2.420   1.970   2.300 -1.2736  0.6052 -0.0365
 1765TIP3    H2 5302   2.338   1.943   2.176 -2.0840 -1.4270  0.9091
 1766TIP3   OH2 5303   2.311   5.329   3.840 -0.0421  0.8586  0.0484
 1766TIP3    H1 5304   2.218   5.354   3.837 -0.4572 -0.6296 -0.0936
 1766TIP3    H2 5305   2.315   5.260   3.906  1.0807  1.3242  0.4780
 1767TIP3   OH2 5306   4.001   3.730   2.251 -0.0577 -0.3549  0.3261
 1767TIP3    H1 5307   4.097   3.731   2.258 -0.0554  0.4326  0.2619
 1767TIP3    H2 5308   3.973   3.810   2.295 -0.7282 -0.8270  0.7960
 1768TIP3   OH2 5309   3.490   5.918   1.030  0.4682  0.2966  0.6632
 1768TIP3    H1 5310   3.547   5.984   1.068  0.6227 -0.1573  1.2292
 1768TIP3    H2 5311   3.535   5.835   1.046 -0.1707 -0.0317  0.7873
 1769TIP3   OH2 5312   2.371   3.380   2.209  0.3457  0.0653  0.4116
 1769TIP3    H1 5313   2.420   3.364   2.128 -0.4665 -1.2312  0.1463
 1769TIP3    H2 5314   2.363   3.294   2.250 -2.3816  0.0370  0.0213
 1770TIP3   OH2 5315   4.117   2.744   1.504  0.1880 -0.2079 -0.3516
 1770TIP3    H1 5316   4.075   2.813   1.453  0.8624 -0.0120 -0.6517
 1770TIP3    H2 5317   4.072   2.664   1.477  0.3225 -0.0613 -1.0352
 1771TIP3   OH2 5318   3.547   2.001   0.218  0.3999 -0.0121  0.2584
 1771TIP3    H1 5319   3.610   1.992   0.289 -1.1649 -0.7034  1.6106
 1771TIP3    H2 5320   3.477   1.940   0.239  0.0503 -0.5410 -2.1042
 1772TIP3   OH2 5321   5.027   5.784   3.682 -0.1070 -0.0831  0.3885
 1772TIP3    H1 5322   5.017   5.701   3.728  0.1682 -1.6414 -2.1294
 1772TIP3    H2 5323   4.976   5.772   3.601 -0.5385  2.4564  0.2082
 1773TIP3   OH2 5324   0.423   3.310   0.147 -0.4821  0.0215 -0.0570
 1773TIP3    H1 5325   0.465   3.349   0.224  0.5139 -1.3086  0.1114
 1773TIP3    H2 5326   0.451   3.366   0.074  2.2042 -1.1417 -0.0465
 1774TIP3   OH2 5327   0.921   3.140   5.146  0.3000  0.3324 -0.0592
 1774TIP3    H1 5328   0.869   3.116   5.069  2.8325  1.4641 -2.2947
 1774TIP3    H2 5329   0.862   3.191   5.200 -1.4252 -0.0081 -1.5293
 1775TIP3   OH2 5330   4.701   2.788   2.824  0.6305  0.7359  0.4441
 1775TIP3    H1 5331   4.759   2.755   2.755  1.4560  1.1038  0.9430
 1775TIP3    H2 5332   4.728   2.739   2.902 -2.5998 -2.2933 -0.0824
 1776TIP3   OH2 5333   0.475   2.751   0.097 -0.8646  0.1776 -0.0819
 1776TIP3    H1 5334   0.493   2.721   0.186 -1.0395  0.1564 -0.0531
 1776TIP3    H2 5335   0.497   2.675   0.042  0.3742  0.5713 -0.1666
 1777TIP3   OH2 5336   4.637   1.489   1.103 -0.3052 -0.2722  0.5577
 1777TIP3    H1 5337   4.656   1.480   1.197  2.2337  1.1157  0.2665
 1777TIP3    H2 5338   4.700   1.432   1.060 -0.5924  0.0855 -0.3664
 1778TIP3   OH2 5339   3.005   4.082   1.071 -0.4166 -0.0937 -0.5919
 1778TIP3    H1 5340   3.069   4.143   1.107 -1.0851  1.1435 -1.4345
 1778TIP3    H2 5341   2.955   4.052   1.148  2.1893 -2.4367  0.3459
 1779TIP3   OH2 5342   3.590   3.996   4.179 -0.0443 -0.3924  0.3314
 1779TIP3    H1 5343   3.551   3.949   4.252 -0.2989 -1.6073 -0.5517
 1779TIP3    H2 5344   3.520   4.055   4.149  0.3390  0.7531  1.5573
 1780TIP3   OH2 5345   0.369   2.524   2.556  0.0605 -0.8403 -0.3995
 1780TIP3    H1 5346   0.390   2.608   2.517 -0.0310 -0.2516  0.7654
 1780TIP3    H2 5347   0.441   2.467   2.531  0.6851 -0.1134 -0.2914
 1781TIP3   OH2 5348   0.721   1.613   0.286 -0.5535 -0.4331  0.2823
 1781TIP3    H1 5349   0.704   1.578   0.199  0.0760 -2.1037  0.7892
 1781TIP3    H2 5350   0.657   1.570   0.343 -0.3758 -0.0518  0.7815
 1782TIP3   OH2 5351   2.651   5.978   3.241  0.3980  0.4726  0.7254
 1782TIP3    H1 5352   2.710   5.906   3.217 -1.3266 -0.5839 -0.5270
 1782TIP3    H2 5353   2.569   5.936   3.265 -0.3911  1.9889  0.8458
 1783TIP3   OH2 5354   1.462   4.471   5.124  0.5885 -0.0247 -0.6105
 1783TIP3    H1 5355   1.390   4.440   5.069  2.3686 -0.7640 -2.6532
 1783TIP3    H2 5356   1.536   4.415   5.101  1.5929 -0.0318  2.2338
 1784TIP3   OH2 5357   1.500   4.359   1.324  0.5384  0.6037 -0.1038
 1784TIP3    H1 5358   1.456   4.322   1.247  3.7938 -0.8328 -1.4693
 1784TIP3    H2 5359   1.471   4.305   1.397  0.2432 -0.4436 -0.9718
 1785TIP3   OH2 5360   4.314   5.846   2.688  0.4305  0.0668  1.1054
 1785TIP3    H1 5361   4.337   5.926   2.641  0.0662  0.2543  1.2356
 1785TIP3    H2 5362   4.271   5.877   2.768 -0.3253 -0.2679  0.8371
 1786TIP3   OH2 5363   0.968   1.836   1.192 -0.1601 -0.5392  0.1528
 1786TIP3    H1 5364   0.980   1.837   1.287 -0.6861  1.1442  0.2302
 1786TIP3    H2 5365   1.011   1.756   1.163 -0.5564 -1.4120  1.8793
 1787TIP3   OH2 5366   4.786   2.558   0.381 -0.4240 -0.0227  0.2720
 1787TIP3    H1 5367   4.753   2.503   0.310  1.3854  0.4751 -1.0149
 1787TIP3    H2 5368   4.719   2.626   0.392 -0.4361  0.2843 -1.4331
 1788TIP3   OH2 5369   2.470   3.431   4.446 -0.0935 -0.7582  0.2419
 1788TIP3    H1 5370   2.389   3.417   4.397 -1.2638  0.4696  1.7124
 1788TIP3    H2 5371   2.520   3.493   4.393 -1.3652  0.5982  0.5622
 1789TIP3   OH2 5372   2.003   2.037   0.558 -0.0758  0.0032  0.1819
 1789TIP3    H1 5373   2.037   1.968   0.501 -1.0126 -2.1758  2.0911
 1789TIP3    H2 5374   1.915   2.007   0.582 -0.8375  2.2679  0.5276
 1790TIP3   OH2 5375   2.360   3.484   4.932 -0.2821 -0.2086  0.0338
 1790TIP3    H1 5376   2.278   3.442   4.958 -0.5948 -1.9469 -3.1799
 1790TIP3    H2 5377   2.425   3.453   4.995 -1.9373  0.8921  2.4004
 1791TIP3   OH2 5378   5.336   5.021   1.778 -0.2428 -0.1873  0.5315
 1791TIP3    H1 5379   5.399   5.018   1.850 -1.4624 -2.3013  1.5807
 1791TIP3    H2 5380   5.391   5.026   1.700  1.2124 -0.9976  1.4495
 1792TIP3   OH2 5381   5.013   0.645   3.903  0.2221  0.2362 -0.2103
 1792TIP3    H1 5382   4.929   0.672   3.942  0.5381  1.6133 -0.4417
 1792TIP3    H2 5383   4.997   0.556   3.873 -0.8620  0.1220  0.6250
 1793TIP3   OH2 5384   1.085   4.742   1.514  0.3416 -0.2151 -1.0358
 1793TIP3    H1 5385   1.127   4.674   1.566  0.6738  0.1759 -0.7884
 1793TIP3    H2 5386   1.084   4.707   1.425  0.7284 -0.4433 -0.9533
 1794TIP3   OH2 5387   5.148   3.066   4.550 -0.0864 -0.7041 -0.0520
 1794TIP3    H1 5388   5.150   2.984   4.500  0.4538 -0.3742 -0.5900
 1794TIP3    H2 5389   5.241   3.089   4.561 -0.2205 -0.4489  0.5680
 1795TIP3   OH2 5390   0.196   1.959   1.815 -0.0744  0.2617  0.3165
 1795TIP3    H1 5391   0.241   1.880   1.787 -1.5371  0.0022 -1.4935
 1795TIP3    H2 5392   0.178   1.945   1.908  1.4631 -0.6153  0.5063
 1796TIP3   OH2 5393   2.850   3.084   2.833  0.1152 -0.2436  0.4417
 1796TIP3    H1 5394   2.777   3.120   2.782  0.4665  0.8718  0.7022
 1796TIP3    H2 5395   2.915   3.058   2.767 -0.2850 -0.7470  0.2361
 1797TIP3   OH2 5396   4.102   5.558   4.220 -0.5657  0.2007 -0.0048
 1797TIP3    H1 5397   4.197   5.567   4.216 -0.8129  3.6712 -2.1831
 1797TIP3    H2 5398   4.076   5.610   4.296 -0.8388  1.8915 -1.2069
 1798TIP3   OH2 5399   4.055   0.655   4.250  0.0014  0.4345 -0.3968
 1798TIP3    H1 5400   4.044   0.689   4.339 -1.6559 -0.0781 -0.3724
 1798TIP3    H2 5401   3.966   0.633   4.222  0.5471  0.1935 -2.0305
 1799TIP3   OH2 5402   0.980   3.223   1.988  0.1471  0.4359  0.1501
 1799TIP3    H1 5403   0.964   3.194   2.078  1.4257  0.2539  0.3432
 1799TIP3    H2 5404   1.014   3.312   1.997  0.6130  0.2894 -0.1236
 1800TIP3   OH2 5405   4.605   0.966   0.878  0.1345  0.9901 -0.1051
 1800TIP3    H1 5406   4.584   0.887   0.828 -1.5912  0.9870  0.5530
 1800TIP3    H2 5407   4.692   0.992   0.846  0.6795 -1.0566 -0.4616
 1801TIP3   OH2 5408   4.015   4.216   2.465 -0.3345  0.3164 -0.4423
 1801TIP3    H1 5409   4.071   4.234   2.541  1.5467  2.2793 -2.1473
 1801TIP3    H2 5410   3.932   4.258   2.485 -0.4979 -0.7306  1.2243
 1802TIP3   OH2 5411   3.468   3.498   2.202  0.0987  0.8152 -0.4099
 1802TIP3    H1 5412   3.453   3.496   2.108 -2.1253 -1.3849 -0.1129
 1802TIP3    H2 5413   3.540   3.437   2.217  0.8340  1.5925 -0.6942
 1803TIP3   OH2 5414   6.275   2.077   1.877  0.3374 -0.5939  0.4979
 1803TIP3    H1 5415   6.256   2.168   1.854  0.1443 -0.4958  1.0412
 1803TIP3    H2 5416   6.292   2.035   1.793  0.8879  0.0499  0.2700
 1804TIP3   OH2 5417   4.836   0.147   0.294  0.5200 -0.1053 -0.0226
 1804TIP3    H1 5418   4.855   0.122   0.204  2.1689 -0.3490  0.3538
 1804TIP3    H2 5419   4.776   0.080   0.325  0.5251 -0.4392 -0.7182
 1805TIP3   OH2 5420   4.969   3.523   0.159 -0.4031 -0.3055  0.4642
 1805TIP3    H1 5421   4.994   3.441   0.119  0.0025  1.0866 -2.3880
 1805TIP3    H2 5422   5.051   3.560   0.192 -0.0916  0.1423 -0.7384
 1806TIP3   OH2 5423   1.301   1.564   4.937 -0.0078 -0.4119 -0.0169
 1806TIP3    H1 5424   1.389   1.528   4.950  0.3395  0.4906  0.2042
 1806TIP3    H2 5425   1.261   1.507   4.872  1.2542 -0.0069 -1.1955
 1807TIP3   OH2 5426   5.336   1.214   1.370 -0.4494 -0.5074 -0.1570
 1807TIP3    H1 5427   5.365   1.190   1.458 -1.6577  0.0406  0.4327
 1807TIP3    H2 5428   5.342   1.134   1.319  1.7001 -0.4846  0.0049
 1808TIP3   OH2 5429   1.023   5.507   2.609 -0.3109  0.3385 -0.6796
 1808TIP3    H1 5430   0.991   5.537   2.524 -4.5414  1.8239  1.1528
 1808TIP3    H2 5431   0.983   5.421   2.621 -1.4025  0.9673  0.4974
 1809TIP3   OH2 5432   6.271   4.788   2.993 -0.8915  0.5691  0.1837
 1809TIP3    H1 5433   6.254   4.870   3.040 -0.5325  1.5065 -1.2535
 1809TIP3    H2 5434   6.276   4.814   2.901  2.6704 -0.5133 -0.0514
 1810TIP3   OH2 5435   1.309   0.207   2.361 -0.2737 -0.2038 -0.2925
 1810TIP3    H1 5436   1.377   0.166   2.414 -0.7165 -2.3150 -1.2399
 1810TIP3    H2 5437   1.239   0.228   2.423  0.1504 -0.5107  0.2987
 1811TIP3   OH2 5438   1.650   4.724   1.450  0.6327  0.3013 -0.5231
 1811TIP3    H1 5439   1.579   4.745   1.510 -0.0567 -1.1918 -0.7670
 1811TIP3    H2 5440   1.729   4.735   1.502  0.0233 -1.6238  0.9361
 1812TIP3   OH2 5441   0.364   4.792   4.006  0.2982  0.1659  0.1009
 1812TIP3    H1 5442   0.428   4.841   3.954  1.6519 -2.0942 -0.4745
 1812TIP3    H2 5443   0.379   4.822   4.096  1.0049  0.8642 -0.2297
 1813TIP3   OH2 5444   2.323   1.533   2.375  0.4131  0.2081 -0.5801
 1813TIP3    H1 5445   2.414   1.563   2.363  0.5725  1.1485  2.1214
 1813TIP3    H2 5446   2.277   1.610   2.409 -0.9558 -0.7228 -0.2343
 1814TIP3   OH2 5447   5.770   3.500   4.563 -0.1818 -0.1425  0.0466
 1814TIP3    H1 5448   5.835   3.570   4.556 -0.2549 -0.0713  0.0831
 1814TIP3    H2 5449   5.749   3.495   4.656 -1.1210  0.6456 -0.1135
 1815TIP3   OH2 5450   1.095   2.429   2.085 -0.1707  0.0309  0.2831
 1815TIP3    H1 5451   1.177   2.459   2.125 -0.3820  2.2263 -0.7420
 1815TIP3    H2 5452   1.123   2.384   2.005  0.0554  0.7149 -0.0304
 1816TIP3   OH2 5453   1.658   5.342   2.897 -0.7090  0.0732  0.3871
 1816TIP3    H1 5454   1.748   5.331   2.867 -1.0826 -1.4632 -0.2574
 1816TIP3    H2 5455   1.605   5.293   2.835 -1.7323 -1.2946  2.2272
 1817TIP3   OH2 5456   0.483   5.246   2.511 -0.2070  0.4138 -0.0212
 1817TIP3    H1 5457   0.411   5.191   2.482 -1.9562  2.4780  0.1401
 1817TIP3    H2 5458   0.508   5.210   2.596 -0.1934 -1.0637 -0.6249
 1818TIP3   OH2 5459   4.727   1.146   1.173 -0.5785  0.0594 -0.0110
 1818TIP3    H1 5460   4.656   1.159   1.237  0.5869 -1.3556  1.6900
 1818TIP3    H2 5461   4.758   1.234   1.154 -0.6810  0.5372  1.7759
 1819TIP3   OH2 5462   0.510   2.616   4.293  0.3793  0.2177  0.5337
 1819TIP3    H1 5463   0.575   2.548   4.309  0.2082  0.2725  1.4825
 1819TIP3    H2 5464   0.451   2.577   4.228 -0.0989 -0.8215  1.5454
 1820TIP3   OH2 5465   5.898   4.491   2.756  0.6356  0.8262  0.1478
 1820TIP3    H1 5466   5.829   4.444   2.710  0.5122  1.8826 -0.7876
 1820TIP3    H2 5467   5.930   4.428   2.821 -1.4140  0.4308  0.8479
 1821TIP3   OH2 5468   1.004   1.961   1.458  0.8703 -0.0277 -0.4141
 1821TIP3    H1 5469   0.995   1.907   1.537  0.3470  2.8599  1.6777
 1821TIP3    H2 5470   1.079   2.017   1.477  1.1695  0.2508 -2.3150
 1822TIP3   OH2 5471   1.921   1.433   1.887 -0.3707  0.2998 -0.0209
 1822TIP3    H1 5472   1.966   1.400   1.810 -0.1644  1.1590 -0.2840
 1822TIP3    H2 5473   1.892   1.521   1.862  1.1007  1.2471  1.3830
 1823TIP3   OH2 5474   2.539   0.810   2.034 -0.2918 -0.5271 -0.1649
 1823TIP3    H1 5475   2.510   0.885   1.983  0.9842  1.1245  1.4168
 1823TIP3    H2 5476   2.490   0.816   2.116  0.9827 -0.4533  0.6179
 1824TIP3   OH2 5477   0.909   4.003   4.000 -0.6352  0.0352  0.1671
 1824TIP3    H1 5478   0.919   4.008   3.905 -0.5078  0.8120  0.2184
 1824TIP3    H2 5479   0.995   3.974   4.032 -1.2065 -2.1576 -0.0792
 1825TIP3   OH2 5480   4.577   2.640   4.504 -0.1802 -0.3114 -0.1190
 1825TIP3    H1 5481   4.519   2.680   4.439 -1.8631  0.4636  1.7640
 1825TIP3    H2 5482   4.519   2.606   4.571  1.4061 -2.9560  0.0418
 1826TIP3   OH2 5483   2.397   2.014   3.850 -0.6134  0.4848 -0.4087
 1826TIP3    H1 5484   2.465   1.950   3.873 -0.9296  0.0378 -0.7086
 1826TIP3    H2 5485   2.440   2.074   3.788 -1.1704 -1.2963 -2.6536
 1827TIP3   OH2 5486   2.922   2.821   1.406  0.4821 -0.3220  0.8726
 1827TIP3    H1 5487   2.955   2.783   1.324  1.0228 -0.9971  1.3849
 1827TIP3    H2 5488   2.827   2.819   1.397  0.5368 -0.3220  0.2299
 1828TIP3   OH2 5489   4.606   3.726   3.797 -0.5624 -0.1313 -0.6547
 1828TIP3    H1 5490   4.577   3.655   3.739 -1.4643 -0.1781 -0.1603
 1828TIP3    H2 5491   4.639   3.793   3.737  1.2367 -1.3369 -1.1103
 1829TIP3   OH2 5492   6.199   0.431   0.404 -0.3399  0.3139 -0.5970
 1829TIP3    H1 5493   6.113   0.472   0.394  0.1117  1.5869  0.4843
 1829TIP3    H2 5494   6.192   0.378   0.484 -0.4999 -0.6332 -1.2260
 1830TIP3   OH2 5495   6.336   1.144   1.279 -0.0838  0.4205  0.4071
 1830TIP3    H1 5496   6.258   1.195   1.298  1.0843  2.3723  0.2414
 1830TIP3    H2 5497   6.347   1.151   1.184 -0.7117 -1.4367  0.1599
 1831TIP3   OH2 5498   0.427   3.270   1.297  0.2273 -0.0058 -0.1205
 1831TIP3    H1 5499   0.517   3.242   1.277  0.1918  1.0612 -1.9520
 1831TIP3    H2 5500   0.372   3.201   1.260  0.2500 -0.0000 -0.1645
 1832TIP3   OH2 5501   1.956   2.326   4.111  0.1922  0.0138  0.1239
 1832TIP3    H1 5502   1.893   2.398   4.105 -1.2099 -1.2141 -0.9284
 1832TIP3    H2 5503   1.989   2.329   4.201 -0.8169  1.1570  0.4759
 1833TIP3   OH2 5504   2.129   0.520   0.957  0.2898 -0.0002  0.4421
 1833TIP3    H1 5505   2.140   0.517   1.053 -0.3079 -0.9897  0.5010
 1833TIP3    H2 5506   2.112   0.429   0.933  0.1076  0.2927 -0.5736
 1834TIP3   OH2 5507   0.310   3.041   3.202 -0.5536  0.2228  0.0499
 1834TIP3    H1 5508   0.394   3.046   3.155 -0.7868 -0.6103 -0.4792
 1834TIP3    H2 5509   0.296   3.129   3.235  0.2008  0.5429 -0.4524
 1835TIP3   OH2 5510   2.832   2.852   0.071  0.1915  0.5197  0.2592
 1835TIP3    H1 5511   2.872   2.916   0.013  1.3436  0.1347  0.6049
 1835TIP3    H2 5512   2.756   2.819   0.022  0.0621  1.5397 -0.2477
 1836TIP3   OH2 5513   3.942   2.387   1.624  0.8043  0.4169 -0.3289
 1836TIP3    H1 5514   3.957   2.301   1.586  0.3921  0.1611  0.0816
 1836TIP3    H2 5515   3.925   2.444   1.548  0.3539 -0.0111 -0.5534
 1837TIP3   OH2 5516   1.105   1.703   2.512  0.5370  0.3081 -0.1432
 1837TIP3    H1 5517   1.061   1.654   2.582 -1.3314  0.8625 -0.8659
 1837TIP3    H2 5518   1.147   1.635   2.458  0.8377 -0.2171  0.7189
 1838TIP3   OH2 5519   1.104   4.279   2.610  0.1885 -0.8699  0.4825
 1838TIP3    H1 5520   1.079   4.282   2.702 -2.3308  0.2959 -0.1352
 1838TIP3    H2 5521   1.053   4.350   2.569  1.9832 -0.6789 -1.6562
 1839TIP3   OH2 5522   1.126   1.926   0.819  0.1485 -0.4662  0.6269
 1839TIP3    H1 5523   1.199   1.881   0.862  0.7156  1.8817  2.3327
 1839TIP3    H2 5524   1.072   1.957   0.891 -0.8319  0.5450 -0.5038
 1840TIP3   OH2 5525   1.923   4.591   4.307 -0.3385 -0.1469  0.0359
 1840TIP3    H1 5526   1.883   4.521   4.359 -0.4127 -0.8670 -0.9571
 1840TIP3    H2 5527   2.011   4.557   4.286 -0.5140 -0.1126 -0.7722
 1841TIP3   OH2 5528   5.370   3.736   4.979 -0.0380  0.3499  0.2528
 1841TIP3    H1 5529   5.420   3.654   4.971  0.6192  0.9179 -3.7096
 1841TIP3    H2 5530   5.430   3.796   5.024  0.3487 -0.7146  1.2056
 1842TIP3   OH2 5531   5.464   2.853   0.978 -0.4845  0.5691 -0.3628
 1842TIP3    H1 5532   5.549   2.855   1.023 -0.5940  2.6086 -0.1462
 1842TIP3    H2 5533   5.451   2.942   0.947 -3.4149  0.8811  1.3016
 1843TIP3   OH2 5534   3.902   5.058   2.386  0.3044  0.0659  1.3554
 1843TIP3    H1 5535   3.917   5.077   2.293  1.8880  2.0084  1.9385
 1843TIP3    H2 5536   3.814   5.021   2.389 -0.3576  1.3241 -0.7591
 1844TIP3   OH2 5537   4.126   1.531   0.701 -0.1937 -0.2031 -0.3264
 1844TIP3    H1 5538   4.219   1.526   0.723 -0.1533  0.5954 -0.2776
 1844TIP3    H2 5539   4.091   1.595   0.763 -1.6735 -3.4695  2.5520
 1845TIP3   OH2 5540   3.697   5.751   1.803  0.3208  0.1038  0.0856
 1845TIP3    H1 5541   3.758   5.820   1.777 -0.2261  1.0272  1.1810
 1845TIP3    H2 5542   3.750   5.691   1.855  0.3272  0.8553  0.9593
 1846TIP3   OH2 5543   5.951   1.782   4.513  0.4528 -0.0532 -0.3264
 1846TIP3    H1 5544   5.898   1.861   4.518  1.8848  0.8410  1.6390
 1846TIP3    H2 5545   6.028   1.800   4.566  2.1605 -1.7743 -2.0349
 1847TIP3   OH2 5546   4.635   0.860   1.193  0.1526  0.0947 -0.6061
 1847TIP3    H1 5547   4.540   0.871   1.186 -0.0946  0.2301  1.9298
 1847TIP3    H2 5548   4.671   0.943   1.162 -0.6190  0.4081 -0.6984
 1848TIP3   OH2 5549   2.314   4.639   2.311  0.7748 -0.1379 -0.4792
 1848TIP3    H1 5550   2.356   4.707   2.364  1.9793 -1.0609 -0.2330
 1848TIP3    H2 5551   2.352   4.557   2.341 -2.3402 -1.2464  0.8730
 1849TIP3   OH2 5552   6.073   0.671   2.853 -0.6740  0.0796  0.3152
 1849TIP3    H1 5553   6.059   0.696   2.762 -0.3102  0.0705  0.2532
 1849TIP3    H2 5554   5.991   0.694   2.897 -0.4845  1.0581  0.1856
 1850TIP3   OH2 5555   0.811   5.250   4.115 -0.3924 -0.2173  0.8205
 1850TIP3    H1 5556   0.805   5.155   4.125  1.2524 -0.4190  0.2073
 1850TIP3    H2 5557   0.841   5.263   4.025  1.7435  0.7348  1.5871
 1851TIP3   OH2 5558   2.877   0.428   0.701 -0.3706 -0.4842 -0.1746
 1851TIP3    H1 5559   2.788   0.394   0.694 -0.7471 -0.4587  2.9211
 1851TIP3    H2 5560   2.870   0.517   0.666 -1.1467 -1.0090 -1.4389
 1852TIP3   OH2 5561   5.985   3.346   2.587 -0.5649  0.2851  0.4401
 1852TIP3    H1 5562   5.914   3.391   2.541 -0.5161 -0.1851 -0.1016
 1852TIP3    H2 5563   6.060   3.356   2.529 -0.8112 -1.4232 -0.2138
 1853TIP3   OH2 5564   3.616   5.442   1.858  0.4622 -0.2712 -0.2913
 1853TIP3    H1 5565   3.704   5.481   1.859  0.5489 -0.4702 -0.1537
 1853TIP3    H2 5566   3.620   5.373   1.923  0.6231 -1.2027 -1.2684
 1854TIP3   OH2 5567   5.505   1.749   0.813  0.1722 -0.1776 -0.3485
 1854TIP3    H1 5568   5.552   1.823   0.850  0.1539 -1.0748  1.6437
 1854TIP3    H2 5569   5.481   1.776   0.724  0.2623  2.1277  0.2748
 1855TIP3   OH2 5570   5.055   4.479   5.167  0.4331  0.0647  0.5996
 1855TIP3    H1 5571   5.048   4.536   5.091 -0.3814 -0.3406  0.3607
 1855TIP3    H2 5572   5.134   4.427   5.151  0.1399 -0.1796 -0.0848
 1856TIP3   OH2 5573   2.880   0.904   2.305  0.2543  0.2363 -0.2377
 1856TIP3    H1 5574   2.786   0.918   2.318  0.3944  0.2643  0.8208
 1856TIP3    H2 5575   2.891   0.809   2.311  0.6231  0.3776  2.2277
 1857TIP3   OH2 5576   2.604   4.557   3.649 -0.4253  0.0891 -0.4095
 1857TIP3    H1 5577   2.656   4.611   3.589 -0.5965  0.3463 -0.3330
 1857TIP3    H2 5578   2.550   4.621   3.697 -0.7873 -0.1699 -0.4688
 1858TIP3   OH2 5579   5.751   2.557   3.343  0.3239 -0.1802  0.2126
 1858TIP3    H1 5580   5.771   2.467   3.368 -1.6573  0.1542  3.5783
 1858TIP3    H2 5581   5.760   2.607   3.424 -1.6866  2.0723 -0.8227
 1859TIP3   OH2 5582   5.155   0.881   4.839 -0.3675  0.0650  0.6636
 1859TIP3    H1 5583   5.197   0.806   4.797 -1.9907 -1.0050  0.8327
 1859TIP3    H2 5584   5.224   0.946   4.847  0.8906 -1.0887 -0.2743
 1860TIP3   OH2 5585   1.553   1.965   2.233 -0.3580  0.1147  0.0192
 1860TIP3    H1 5586   1.467   1.991   2.266  0.3406  2.0718  0.3988
 1860TIP3    H2 5587   1.538   1.881   2.190 -2.4329  0.3700  0.1739
 1861TIP3   OH2 5588   5.495   4.287   2.815 -0.2242 -0.4676  0.0921
 1861TIP3    H1 5589   5.483   4.371   2.859  1.8275  0.4848 -1.0714
 1861TIP3    H2 5590   5.467   4.222   2.880  0.3625  0.9901  1.8891
 1862TIP3   OH2 5591   3.984   5.740   4.384  0.0111 -0.0936 -0.5338
 1862TIP3    H1 5592   3.934   5.720   4.464  0.0106 -1.8098 -0.9227
 1862TIP3    H2 5593   3.975   5.834   4.373  0.0785  0.2144  1.5422
 1863TIP3   OH2 5594   5.148   1.643   2.205  0.6346  0.2181 -0.3127
 1863TIP3    H1 5595   5.083   1.573   2.213 -0.3050  0.8262 -2.1173
 1863TIP3    H2 5596   5.229   1.598   2.179  0.8183 -0.4823  1.3959
 1864TIP3   OH2 5597   3.871   1.484   2.493  0.5092 -0.5735 -0.4793
 1864TIP3    H1 5598   3.872   1.429   2.414  0.5600  1.1148 -1.7097
 1864TIP3    H2 5599   3.963   1.499   2.513  0.5015 -1.3890  0.2036
 1865TIP3   OH2 5600   0.067   4.746   1.927  0.7275 -0.1522 -0.4777
 1865TIP3    H1 5601   0.023   4.744   1.842  0.1437  0.7941 -0.2125
 1865TIP3    H2 5602   0.136   4.811   1.917  0.4844  0.1654 -0.1610
 1866TIP3   OH2 5603   3.333   2.376   2.641  0.3636 -0.0309 -0.3331
 1866TIP3    H1 5604   3.347   2.465   2.608 -1.1297  0.5091  0.4103
 1866TIP3    H2 5605   3.308   2.325   2.565  1.0049  0.2184 -0.7237
 1867TIP3   OH2 5606   3.405   2.044   4.320 -0.0587  0.2336  0.2494
 1867TIP3    H1 5607   3.311   2.036   4.337 -0.4079  1.8284 -0.7368
 1867TIP3    H2 5608   3.422   2.138   4.323  1.5052 -0.0385  0.3662
 1868TIP3   OH2 5609   2.500   5.730   4.959 -0.3940  0.1338  0.1391
 1868TIP3    H1 5610   2.571   5.786   4.926 -1.0088  1.1641  0.5257
 1868TIP3    H2 5611   2.489   5.756   5.050 -0.9395 -0.3688  0.2222
 1869TIP3   OH2 5612   2.782   0.100   2.157  0.0987 -0.3755  0.1667
 1869TIP3    H1 5613   2.695   0.061   2.163 -0.3784  0.2568 -1.7679
 1869TIP3    H2 5614   2.830   0.042   2.098  0.2503  0.4591 -0.5514
 1870TIP3   OH2 5615   5.088   2.945   1.049 -0.0260  0.8560 -0.0608
 1870TIP3    H1 5616   5.111   3.038   1.045 -0.1021  0.8260 -1.8839
 1870TIP3    H2 5617   5.002   2.940   1.008 -0.4632  0.0885  0.9014
 1871TIP3   OH2 5618   5.650   1.945   0.522  0.3351  0.1916  0.1388
 1871TIP3    H1 5619   5.720   1.913   0.465  0.2480  0.4030 -0.0860
 1871TIP3    H2 5620   5.696   1.987   0.595  0.4467  1.2853 -0.5424
 1872TIP3   OH2 5621   2.004   0.872   1.698  0.2240 -0.2591 -0.3160
 1872TIP3    H1 5622   1.943   0.922   1.644  0.0638 -1.7790 -1.6550
 1872TIP3    H2 5623   2.091   0.895   1.663  0.1078 -1.4147 -1.4575
 1873TIP3   OH2 5624   0.190   5.968   1.313  0.5134  0.2435  0.3887
 1873TIP3    H1 5625   0.171   5.890   1.261  0.9053  0.2962  0.1591
 1873TIP3    H2 5626   0.230   6.029   1.250 -1.5882  1.4038  0.0756
 1874TIP3   OH2 5627   5.534   4.578   3.339  0.6559  0.0053 -0.0504
 1874TIP3    H1 5628   5.471   4.513   3.308  1.7555 -1.3916  0.5315
 1874TIP3    H2 5629   5.485   4.630   3.403  0.1721 -1.2534  0.6257
 1875TIP3   OH2 5630   4.632   5.641   3.122  0.1080 -0.1007 -0.0241
 1875TIP3    H1 5631   4.635   5.546   3.106 -2.5585  0.1469 -2.6696
 1875TIP3    H2 5632   4.564   5.651   3.188  0.7609 -0.0148  0.6532
 1876TIP3   OH2 5633   4.810   2.215   2.217  0.0264 -0.5597  0.2251
 1876TIP3    H1 5634   4.722   2.254   2.215  0.7515  1.1589  0.2717
 1876TIP3    H2 5635   4.869   2.289   2.208  1.5129 -1.6123  0.9280
 1877TIP3   OH2 5636   5.428   5.336   0.905  0.0348  0.1922 -0.2787
 1877TIP3    H1 5637   5.452   5.428   0.897 -1.9467  0.8956  1.1156
 1877TIP3    H2 5638   5.512   5.291   0.916  1.0035  1.9290 -0.1073
 1878TIP3   OH2 5639   5.025   5.914   3.314  0.3698  0.9181  0.1556
 1878TIP3    H1 5640   4.975   5.855   3.258  0.5799 -0.0967  1.0179
 1878TIP3    H2 5641   5.037   5.993   3.260 -0.7199  0.5501 -0.6609
 1879TIP3   OH2 5642   2.314   2.253   0.976  0.1358  0.2145 -0.4478
 1879TIP3    H1 5643   2.266   2.178   0.940  2.8740 -0.8100 -2.2600
 1879TIP3    H2 5644   2.321   2.233   1.070 -1.9749 -0.0822 -0.2868
 1880TIP3   OH2 5645   0.992   4.750   4.673 -0.7114 -0.1389 -0.4239
 1880TIP3    H1 5646   0.965   4.819   4.734  0.5895  1.0670 -1.1636
 1880TIP3    H2 5647   0.915   4.694   4.665 -1.6369  0.9295  0.6037
 1881TIP3   OH2 5648   2.200   1.249   0.154 -0.1670  0.3940  0.7120
 1881TIP3    H1 5649   2.259   1.205   0.093 -0.0872  0.0614  1.0237
 1881TIP3    H2 5650   2.204   1.341   0.129 -0.1930  0.2511  0.1716
 1882TIP3   OH2 5651   5.026   5.840   0.970 -0.2256  0.1196  0.6986
 1882TIP3    H1 5652   5.076   5.770   0.927 -1.1352  0.4292 -0.9605
 1882TIP3    H2 5653   5.044   5.918   0.918 -1.2105  0.5599  0.9889
 1883TIP3   OH2 5654   3.256   1.606   4.422 -0.2303  0.1275  0.2210
 1883TIP3    H1 5655   3.187   1.641   4.478 -0.3223 -1.2433  1.0085
 1883TIP3    H2 5656   3.246   1.652   4.339 -0.8278  1.3649  0.9492
 1884TIP3   OH2 5657   4.703   5.539   3.442  0.0685  0.0983 -0.4617
 1884TIP3    H1 5658   4.639   5.564   3.508  0.4741 -1.8958  0.7465
 1884TIP3    H2 5659   4.653   5.534   3.361 -0.6191  1.6976 -0.1784
 1885TIP3   OH2 5660   5.243   1.698   2.560  0.3410  0.3446  0.0554
 1885TIP3    H1 5661   5.187   1.620   2.557 -1.3615  1.5115  0.3206
 1885TIP3    H2 5662   5.302   1.687   2.485 -1.5427 -0.0149 -1.4673
 1886TIP3   OH2 5663   0.225   0.709   1.543 -0.4491 -0.1159  0.0045
 1886TIP3    H1 5664   0.241   0.761   1.622  0.0403  0.1740 -0.2798
 1886TIP3    H2 5665   0.177   0.768   1.485 -2.8950 -1.0519  0.9438
 1887TIP3   OH2 5666   1.558   3.692   4.586  0.1814 -0.1605  0.0501
 1887TIP3    H1 5667   1.616   3.662   4.516 -0.2422 -1.4475  0.2157
 1887TIP3    H2 5668   1.502   3.757   4.545  0.9845  0.2542 -0.4002
 1888TIP3   OH2 5669   2.975   3.738   4.721  0.1210  0.1946 -0.0851
 1888TIP3    H1 5670   2.992   3.682   4.645  0.1081 -0.0569  0.0924
 1888TIP3    H2 5671   2.880   3.731   4.735  0.2560 -0.5925  0.5738
 1889TIP3   OH2 5672   1.767   2.701   1.200 -0.2900  0.5860  0.4039
 1889TIP3    H1 5673   1.694   2.764   1.204 -0.5184  0.3687 -0.3140
 1889TIP3    H2 5674   1.756   2.657   1.116 -0.2196 -0.5255  0.9587
 1890TIP3   OH2 5675   2.791   4.951   2.345 -0.0910 -0.0949  0.0902
 1890TIP3    H1 5676   2.858   5.018   2.333  0.5368 -0.4767  1.2501
 1890TIP3    H2 5677   2.824   4.874   2.299  0.7576 -0.5746  1.4470
 1891TIP3   OH2 5678   3.804   2.464   2.368  0.5003  0.1656  0.2353
 1891TIP3    H1 5679   3.889   2.477   2.411  0.0531  0.6482  1.0090
 1891TIP3    H2 5680   3.816   2.386   2.315  0.6430 -1.4300  2.4560
 1892TIP3   OH2 5681   1.942   2.699   0.251  0.2155 -0.2110 -0.4905
 1892TIP3    H1 5682   1.875   2.745   0.301  0.3946 -1.3865  0.8895
 1892TIP3    H2 5683   2.013   2.685   0.314  1.2314 -0.1299 -1.5760
 1893TIP3   OH2 5684   1.373   0.795   1.159  0.1138  0.0264  0.2369
 1893TIP3    H1 5685   1.324   0.876   1.165 -2.8117 -1.1211 -3.9000
 1893TIP3    H2 5686   1.456   0.820   1.119 -0.1084  1.1530  0.4468
 1894TIP3   OH2 5687   3.446   4.917   1.949 -0.4536  0.1158  0.7199
 1894TIP3    H1 5688   3.473   4.927   2.040  0.2479 -1.6736  0.7360
 1894TIP3    H2 5689   3.527   4.926   1.899 -0.3529 -1.7620  0.5019
 1895TIP3   OH2 5690   6.101   3.688   1.397  0.0440  0.0968 -1.0164
 1895TIP3    H1 5691   6.109   3.618   1.332  0.9215  0.3710 -1.2229
 1895TIP3    H2 5692   6.190   3.721   1.407  0.0129 -0.2129  0.6269
 1896TIP3   OH2 5693   1.479   0.388   2.637  0.3319  0.4682 -0.2254
 1896TIP3    H1 5694   1.481   0.304   2.592 -0.7957  0.3422 -0.0654
 1896TIP3    H2 5695   1.528   0.373   2.719 -0.0588 -0.0891 -0.0936
 1897TIP3   OH2 5696   6.205   3.272   4.063 -0.1663 -0.8827 -0.3851
 1897TIP3    H1 5697   6.140   3.251   4.130 -1.7791 -1.4748 -2.0706
 1897TIP3    H2 5698   6.258   3.193   4.056  0.0687 -0.7854  0.2393
 1898TIP3   OH2 5699   4.248   3.714   1.773  0.4541  0.3200 -0.0431
 1898TIP3    H1 5700   4.254   3.641   1.835 -0.8644  0.6666  0.5307
 1898TIP3    H2 5701   4.215   3.787   1.825 -2.2676  0.1960 -1.4310
 1899TIP3   OH2 5702   6.230   2.205   3.127  0.3995  0.9135  0.6133
 1899TIP3    H1 5703   6.169   2.272   3.157  0.0622  0.6804  0.4578
 1899TIP3    H2 5704   6.313   2.251   3.116 -0.4482  1.9618 -2.2158
 1900TIP3   OH2 5705   1.098   2.733   0.056  0.3547 -0.2311 -0.0765
 1900TIP3    H1 5706   1.154   2.805   0.083  0.4131 -0.7918  1.3795
 1900TIP3    H2 5707   1.012   2.773   0.042  0.8037  0.4195 -1.1375
 1901TIP3   OH2 5708   4.348   1.859   1.675 -0.1304 -0.1259 -0.0274
 1901TIP3    H1 5709   4.417   1.924   1.662  0.1027 -0.8078 -2.6544
 1901TIP3    H2 5710   4.290   1.869   1.600 -1.4152 -1.3681  0.7432
 1902TIP3   OH2 5711   5.048   4.492   3.054  0.8343 -0.2389  0.6034
 1902TIP3    H1 5712   5.108   4.563   3.034 -0.3541  0.3600 -1.0483
 1902TIP3    H2 5713   5.059   4.477   3.148  1.5053  1.7403  0.8851
 1903TIP3   OH2 5714   3.570   2.533   4.297 -0.4795  0.5336 -0.2291
 1903TIP3    H1 5715   3.541   2.451   4.258 -0.3400 -0.3163  1.3539
 1903TIP3    H2 5716   3.663   2.540   4.275 -0.3812  0.0166 -0.0006
 1904TIP3   OH2 5717   4.058   0.048   4.998 -0.2846 -0.5590  0.5992
 1904TIP3    H1 5718   4.000   0.105   4.947  1.8211  1.3624  0.2055
 1904TIP3    H2 5719   4.120   0.014   4.934  0.4873 -0.6425  1.3762
 1905TIP3   OH2 5720   6.323   5.928   2.082 -0.3926  0.4300  0.5503
 1905TIP3    H1 5721   6.355   5.846   2.045 -0.7740  1.1704 -1.5673
 1905TIP3    H2 5722   6.230   5.913   2.097 -1.0044  1.0595 -1.9677
 1906TIP3   OH2 5723   5.500   4.074   4.081 -0.3237 -0.0480  0.5194
 1906TIP3    H1 5724   5.511   4.163   4.048  0.4229 -0.4131 -0.2833
 1906TIP3    H2 5725   5.528   4.018   4.008 -0.8666 -0.9423  0.9740
 1907TIP3   OH2 5726   2.712   4.913   0.255  0.0578  0.4527  0.4312
 1907TIP3    H1 5727   2.673   4.944   0.336 -0.6806  0.5382  0.0505
 1907TIP3    H2 5728   2.665   4.960   0.186  0.2244 -0.1088 -0.0713
 1908TIP3   OH2 5729   5.319   0.174   0.557  0.2941  0.0968 -0.2147
 1908TIP3    H1 5730   5.332   0.149   0.648 -0.1341 -0.2116 -0.2335
 1908TIP3    H2 5731   5.226   0.157   0.541  0.3985  0.0166 -0.7489
 1909TIP3   OH2 5732   4.971   5.268   0.421  0.4270  0.2405 -0.1072
 1909TIP3    H1 5733   5.057   5.309   0.433  0.2821  0.3585  0.5853
 1909TIP3    H2 5734   4.986   5.175   0.440  0.2925  0.3538  0.6040
 1910TIP3   OH2 5735   3.691   1.968   3.963  0.1721  0.0656  0.5519
 1910TIP3    H1 5736   3.669   1.944   4.053 -0.9970 -0.4389  0.1489
 1910TIP3    H2 5737   3.608   1.993   3.924  0.5364 -0.4768 -0.6128
 1911TIP3   OH2 5738   4.937   0.632   0.284  0.4061 -0.2040  0.0344
 1911TIP3    H1 5739   4.876   0.650   0.212 -0.1757 -3.0509 -0.2851
 1911TIP3    H2 5740   4.890   0.660   0.362 -0.2129  0.0862 -0.4276
 1912TIP3   OH2 5741   5.689   5.683   0.734  0.0490  0.2404 -0.2853
 1912TIP3    H1 5742   5.716   5.593   0.712 -2.0222 -0.4392 -0.2282
 1912TIP3    H2 5743   5.712   5.734   0.656 -0.4336 -0.7139 -1.0816
 1913TIP3   OH2 5744   1.959   2.205   1.289  1.1319 -0.4292 -0.8804
 1913TIP3    H1 5745   1.867   2.222   1.268  0.4866  0.9146  2.3964
 1913TIP3    H2 5746   2.006   2.280   1.254  0.6758 -0.0933 -0.7794
 1914TIP3   OH2 5747   1.612   0.244   2.840  0.2635  0.4264  0.0207
 1914TIP3    H1 5748   1.702   0.213   2.850  0.4776  0.8044 -0.7001
 1914TIP3    H2 5749   1.561   0.164   2.823  0.6096  0.3141 -0.5065
 1915TIP3   OH2 5750   4.791   1.793   3.167 -0.0500 -0.4316 -0.3497
 1915TIP3    H1 5751   4.708   1.812   3.123 -0.4479  0.2710  0.6658
 1915TIP3    H2 5752   4.801   1.698   3.159 -0.5150 -0.4148 -1.2303
 1916TIP3   OH2 5753   1.257   0.851   0.734  0.0002 -0.5924  0.0207
 1916TIP3    H1 5754   1.214   0.872   0.817  0.8277 -0.9916  0.5648
 1916TIP3    H2 5755   1.244   0.756   0.724  0.0480 -0.5746 -0.2322
 1917TIP3   OH2 5756   1.724   4.282   0.482 -0.3425  0.1798 -0.0756
 1917TIP3    H1 5757   1.725   4.355   0.420  1.0244  0.3683  0.1462
 1917TIP3    H2 5758   1.718   4.323   0.568 -2.1924 -0.0810 -0.0252
 1918TIP3   OH2 5759   0.772   5.398   1.067 -0.2771  0.5917 -0.5390
 1918TIP3    H1 5760   0.809   5.389   0.979 -0.1740 -1.5392 -0.3177
 1918TIP3    H2 5761   0.685   5.359   1.060 -0.7157  1.4133  0.0679
 1919TIP3   OH2 5762   2.323   5.922   1.717 -0.0587  0.1685 -0.1361
 1919TIP3    H1 5763   2.238   5.878   1.721  0.0215  0.0854  1.2086
 1919TIP3    H2 5764   2.307   6.002   1.668 -0.7442 -0.1931 -0.5229
 1920TIP3   OH2 5765   5.758   0.396   1.818 -0.4254  0.1132 -0.1028
 1920TIP3    H1 5766   5.748   0.458   1.891 -1.3747 -0.9578  0.7242
 1920TIP3    H2 5767   5.721   0.314   1.852 -0.3061 -0.5782 -1.5894
 1921TIP3   OH2 5768   3.653   5.666   1.063  0.3023 -0.1838  0.0118
 1921TIP3    H1 5769   3.633   5.581   1.104 -2.5981  0.9511  1.2485
 1921TIP3    H2 5770   3.634   5.653   0.970 -0.0513 -0.9190  0.1786
 1922TIP3   OH2 5771   3.834   3.238   4.029  0.0864 -0.1092  0.1640
 1922TIP3    H1 5772   3.811   3.329   4.009  1.3444  0.3637  0.7851
 1922TIP3    H2 5773   3.783   3.217   4.107  0.7291  0.4753  0.7457
 1923TIP3   OH2 5774   5.598   3.068   0.740  0.8533 -0.1631  0.2286
 1923TIP3    H1 5775   5.644   3.005   0.795 -1.0667 -2.1833 -0.3624
 1923TIP3    H2 5776   5.558   3.016   0.670 -3.2314  1.1895  1.2757
 1924TIP3   OH2 5777   1.698   5.855   3.515 -0.1079  0.1397 -0.4059
 1924TIP3    H1 5778   1.626   5.858   3.578 -0.0178  2.4532 -0.2967
 1924TIP3    H2 5779   1.655   5.859   3.430 -0.1523  0.1655 -0.3822
 1925TIP3   OH2 5780   5.639   2.611   0.003 -0.4012  0.2354 -0.4666
 1925TIP3    H1 5781   5.554   2.648   0.028 -0.1764 -0.7267  2.0371
 1925TIP3    H2 5782   5.617   2.524  -0.030 -0.4547  0.3028 -0.6096
 1926TIP3   OH2 5783   3.199   2.755   4.530  0.1948  0.2111 -0.5352
 1926TIP3    H1 5784   3.213   2.661   4.539  1.1811  0.0250 -3.1376
 1926TIP3    H2 5785   3.193   2.770   4.436  2.2390  3.0080 -0.3541
 1927TIP3   OH2 5786   4.552   3.425   2.125  0.2812  0.0371 -0.1636
 1927TIP3    H1 5787   4.590   3.338   2.113 -0.1899  0.0411 -1.9785
 1927TIP3    H2 5788   4.479   3.411   2.186  0.1601 -0.8541 -0.4994
 1928TIP3   OH2 5789   5.354   4.945   3.014 -0.0823 -0.0875 -0.4273
 1928TIP3    H1 5790   5.386   4.992   3.091 -1.1069  0.8903 -0.5889
 1928TIP3    H2 5791   5.414   4.970   2.944 -0.2281  0.4472 -0.3595
 1929TIP3   OH2 5792   4.371   0.834   4.401  0.3433  0.2021 -0.1012
 1929TIP3    H1 5793   4.281   0.838   4.434 -0.4093  1.6761 -2.1522
 1929TIP3    H2 5794   4.364   0.787   4.318  1.6059 -0.3366  0.0809
 1930TIP3   OH2 5795   5.638   3.163   5.088 -0.2657 -0.2048  0.6478
 1930TIP3    H1 5796   5.688   3.136   5.011 -0.6723 -0.2653  0.3982
 1930TIP3    H2 5797   5.589   3.240   5.058 -0.3720 -0.1886  0.8653
 1931TIP3   OH2 5798   4.620   1.106   0.113 -0.2066 -0.3003 -0.4618
 1931TIP3    H1 5799   4.667   1.118   0.030 -0.6048  1.3998 -0.4749
 1931TIP3    H2 5800   4.534   1.144   0.098  0.1519  1.2292  1.1170
 1932TIP3   OH2 5801   0.781   0.358   3.472  0.2529 -0.1968 -0.0828
 1932TIP3    H1 5802   0.745   0.424   3.532 -0.5797 -1.6204  1.0607
 1932TIP3    H2 5803   0.753   0.387   3.385  0.7544  1.4646  0.2739
 1933TIP3   OH2 5804   1.288   3.919   2.994  0.3223 -0.4130 -0.1727
 1933TIP3    H1 5805   1.331   3.995   3.031 -0.6617 -1.0422  2.5214
 1933TIP3    H2 5806   1.231   3.887   3.065 -3.3792 -0.5444 -2.9128
 1934TIP3   OH2 5807   1.942   4.015   0.247  0.7702 -0.5045 -0.1162
 1934TIP3    H1 5808   1.853   3.985   0.264  0.3822  1.7397  2.6903
 1934TIP3    H2 5809   1.933   4.084   0.181  0.2890  0.1705  0.6353
 1935TIP3   OH2 5810   5.888   0.182   1.040 -0.3766  0.3007  0.6501
 1935TIP3    H1 5811   5.968   0.190   0.988 -0.6649 -0.0836  0.1459
 1935TIP3    H2 5812   5.897   0.249   1.108 -0.3081  1.2638 -0.2906
 1936TIP3   OH2 5813   1.081   0.453   3.875 -0.0390  0.7448 -0.1092
 1936TIP3    H1 5814   1.088   0.408   3.959  2.8402 -0.8450 -1.0950
 1936TIP3    H2 5815   1.015   0.404   3.826  0.6949 -0.4081  0.0328
 1937TIP3   OH2 5816   2.369   2.284   4.032  0.0385  0.1242  0.0949
 1937TIP3    H1 5817   2.294   2.240   3.993 -0.7051  1.7246 -0.4031
 1937TIP3    H2 5818   2.440   2.271   3.970  0.1926 -1.3907  0.5592
 1938TIP3   OH2 5819   2.792   1.489   0.958 -0.3252  0.0261  0.0417
 1938TIP3    H1 5820   2.716   1.431   0.954 -0.4144  0.0679  0.9890
 1938TIP3    H2 5821   2.866   1.430   0.974 -0.5487  0.2207  2.1042
 1939TIP3   OH2 5822   3.877   2.566   4.296 -0.5110  0.5530 -0.3336
 1939TIP3    H1 5823   3.852   2.526   4.379 -1.2859  1.9384  0.1251
 1939TIP3    H2 5824   3.969   2.541   4.285 -0.7289 -0.6322  0.3349
 1940TIP3   OH2 5825   6.090   1.491   3.314 -0.8134 -0.1656 -0.0814
 1940TIP3    H1 5826   6.144   1.570   3.315 -0.9056 -0.0243  2.9911
 1940TIP3    H2 5827   6.004   1.521   3.286 -0.6498  0.6775  0.3041
 1941TIP3   OH2 5828   5.944   0.960   1.994  0.0684 -0.1396 -0.5731
 1941TIP3    H1 5829   5.965   0.874   2.029 -1.5950 -0.2110  0.3653
 1941TIP3    H2 5830   5.964   0.953   1.900  1.4247 -1.0206 -0.2408
 1942TIP3   OH2 5831   0.254   0.260   3.891  0.6627  0.2892 -0.1437
 1942TIP3    H1 5832   0.242   0.218   3.976  0.5388  0.2089 -0.2009
 1942TIP3    H2 5833   0.257   0.354   3.910 -4.4898  0.8114 -0.5011
 1943TIP3   OH2 5834   4.646   1.659   1.859  0.4881 -0.7543  0.7320
 1943TIP3    H1 5835   4.684   1.698   1.780 -0.0803  0.3285  0.9739
 1943TIP3    H2 5836   4.680   1.570   1.860  1.2369 -0.5013 -0.2423
 1944TIP3   OH2 5837   5.774   5.767   2.963  0.5843  0.1683  0.6148
 1944TIP3    H1 5838   5.761   5.677   2.931 -0.2537  0.9425 -1.4021
 1944TIP3    H2 5839   5.869   5.781   2.955  0.3640  0.6759 -2.8783
 1945TIP3   OH2 5840   4.301   4.861   3.361 -0.4018 -0.2878 -0.2453
 1945TIP3    H1 5841   4.396   4.870   3.361 -0.1599 -1.7870 -2.6936
 1945TIP3    H2 5842   4.282   4.798   3.430  0.7328 -2.0724 -1.4782
 1946TIP3   OH2 5843   5.910   4.251   1.067  0.1258  0.2473 -0.0574
 1946TIP3    H1 5844   5.969   4.262   0.992 -0.4857  0.5233 -0.5063
 1946TIP3    H2 5845   5.886   4.341   1.092  1.0167  0.1989  1.0359
 1947TIP3   OH2 5846   5.054   1.285   4.578  0.0295 -0.2887  0.5862
 1947TIP3    H1 5847   5.010   1.244   4.652  1.0807  0.4004  1.6150
 1947TIP3    H2 5848   4.983   1.328   4.529 -0.5616  0.1783  1.8045
 1948TIP3   OH2 5849   2.409   4.405   2.422  0.1565 -0.1131  0.5782
 1948TIP3    H1 5850   2.499   4.432   2.434 -0.0722  2.4228 -2.1697
 1948TIP3    H2 5851   2.415   4.321   2.376  1.2495  1.0259 -1.4929
 1949TIP3   OH2 5852   2.885   2.402   0.942 -0.1174  0.2678  0.2705
 1949TIP3    H1 5853   2.889   2.418   1.036 -2.6959 -1.8485  0.8853
 1949TIP3    H2 5854   2.821   2.331   0.933  2.0656 -1.5429 -2.8676
 1950TIP3   OH2 5855   4.625   1.161   3.699  0.5876  0.0894  0.2693
 1950TIP3    H1 5856   4.702   1.209   3.669 -0.4754  0.5075 -2.1099
 1950TIP3    H2 5857   4.591   1.212   3.773  1.7293  0.7432  0.3543
 1951TIP3   OH2 5858   4.226   3.200   0.081 -0.1779  0.2799 -0.3531
 1951TIP3    H1 5859   4.227   3.232  -0.009  2.3324  0.5132 -0.3138
 1951TIP3    H2 5860   4.274   3.117   0.078 -1.4816 -0.5592  0.5410
 1952TIP3   OH2 5861   1.455   4.504   3.536 -0.1281 -0.1684  0.1271
 1952TIP3    H1 5862   1.389   4.443   3.567  0.2516 -1.0360 -0.7396
 1952TIP3    H2 5863   1.489   4.465   3.456  2.4773 -0.4903  1.2927
 1953TIP3   OH2 5864   3.371   4.548   5.114  0.0518 -0.3042 -0.2029
 1953TIP3    H1 5865   3.310   4.500   5.170  0.5798 -2.7186 -1.5587
 1953TIP3    H2 5866   3.452   4.552   5.164 -0.4989  0.8467  0.6487
 1954TIP3   OH2 5867   3.441   1.679   0.079 -0.0427 -0.0794  0.0419
 1954TIP3    H1 5868   3.432   1.741   0.006 -0.6241  1.0205  1.0105
 1954TIP3    H2 5869   3.535   1.665   0.088  0.0141 -0.6017 -1.2072
 1955TIP3   OH2 5870   1.994   1.937   1.226 -0.3495 -0.8170 -0.4542
 1955TIP3    H1 5871   1.937   1.915   1.153 -2.1464  0.8331  0.3726
 1955TIP3    H2 5872   1.959   2.019   1.261  2.7954  0.5502 -0.1434
 1956TIP3   OH2 5873   1.157   0.825   4.512  0.2505  0.4759 -0.6576
 1956TIP3    H1 5874   1.080   0.881   4.499 -1.2820 -1.4221 -0.2830
 1956TIP3    H2 5875   1.203   0.864   4.586 -2.7616 -0.6273  2.0698
 1957TIP3   OH2 5876   0.071   5.334   0.048 -0.4391  0.4030  0.0114
 1957TIP3    H1 5877   0.082   5.387   0.127 -0.5239  2.0171 -1.0138
 1957TIP3    H2 5878  -0.012   5.288   0.062 -0.3465  0.4869  0.9481
 1958TIP3   OH2 5879   2.792   5.451   4.493 -1.0290  0.2180 -0.1306
 1958TIP3    H1 5880   2.774   5.494   4.577  0.5936  1.7607 -0.5207
 1958TIP3    H2 5881   2.838   5.370   4.517 -1.4128  0.1715  0.4830
 1959TIP3   OH2 5882   1.159   1.273   1.397  0.7873 -0.2928  0.6390
 1959TIP3    H1 5883   1.098   1.200   1.386  0.5091 -0.1246  1.0631
 1959TIP3    H2 5884   1.176   1.277   1.491 -2.9335  3.1599  1.4257
 1960TIP3   OH2 5885   5.662   1.014   4.518 -0.1787 -0.2258  0.6890
 1960TIP3    H1 5886   5.751   1.049   4.524 -0.1058 -0.4838  1.1687
 1960TIP3    H2 5887   5.633   1.037   4.430 -0.1398  1.0434  0.9900
 1961TIP3   OH2 5888   1.907   1.213   5.132  0.1148 -0.0747  0.4911
 1961TIP3    H1 5889   1.954   1.155   5.073 -0.5998 -0.0672 -0.0994
 1961TIP3    H2 5890   1.914   1.171   5.218  1.0588 -0.1424  0.3951
 1962TIP3   OH2 5891   5.780   3.414   1.216 -0.3247 -0.1524  0.1892
 1962TIP3    H1 5892   5.685   3.415   1.220 -0.3330 -0.2190  0.0292
 1962TIP3    H2 5893   5.806   3.505   1.227 -0.4040 -0.1468  0.3255
 1963TIP3   OH2 5894   3.851   5.174   4.282 -0.2990 -0.1682  0.2837
 1963TIP3    H1 5895   3.758   5.187   4.263 -0.4218 -0.1194  0.8916
 1963TIP3    H2 5896   3.853   5.096   4.338  0.1825 -1.1781 -1.0914
 1964TIP3   OH2 5897   5.673   1.702   2.624 -0.3442 -0.1177  0.2467
 1964TIP3    H1 5898   5.629   1.787   2.632 -0.3178  0.1564 -1.8342
 1964TIP3    H2 5899   5.602   1.638   2.631 -0.4215  0.0786  1.4244
 1965TIP3   OH2 5900   1.083   5.741   0.599 -0.2276  0.3224  0.3290
 1965TIP3    H1 5901   1.115   5.822   0.638  0.0155  0.1795  0.4271
 1965TIP3    H2 5902   1.020   5.770   0.533  1.9700  0.7530 -1.7046
 1966TIP3   OH2 5903   5.950   4.871   0.031  1.4385  0.2702 -0.2464
 1966TIP3    H1 5904   5.900   4.801  -0.011  1.7823 -0.1667  0.0645
 1966TIP3    H2 5905   5.909   4.952  -0.000 -0.6015 -0.0702  1.3416
 1967TIP3   OH2 5906   5.199   1.905   2.218 -0.2385  0.1967  0.2751
 1967TIP3    H1 5907   5.217   1.915   2.124  0.9926 -2.8117  0.0942
 1967TIP3    H2 5908   5.176   1.813   2.229 -2.9990  1.0358  2.6035
 1968TIP3   OH2 5909   1.607   2.562   2.082  0.0879  0.2815 -0.0103
 1968TIP3    H1 5910   1.580   2.652   2.100 -0.4080  0.3294 -0.9175
 1968TIP3    H2 5911   1.625   2.525   2.168  0.0462  1.1685  0.3942
 1969TIP3   OH2 5912   2.023   5.865   0.109 -0.2847 -0.0539 -0.9959
 1969TIP3    H1 5913   2.091   5.834   0.050  0.4277  0.0793 -0.2657
 1969TIP3    H2 5914   1.944   5.868   0.056  0.4776  0.7356 -2.1361
 1970TIP3   OH2 5915   1.386   4.910   4.725  0.2994 -0.2027  0.0565
 1970TIP3    H1 5916   1.431   4.927   4.642 -0.0715  0.5001 -0.0106
 1970TIP3    H2 5917   1.321   4.843   4.703  0.2279 -0.0484 -0.2086
 1971TIP3   OH2 5918   2.360   1.892   0.952 -0.3878  0.3331  0.2578
 1971TIP3    H1 5919   2.313   1.971   0.927 -0.2148  0.0988 -0.8592
 1971TIP3    H2 5920   2.326   1.824   0.894  0.7274 -0.0105 -0.0212
 1972TIP3   OH2 5921   2.191   5.566   3.316  0.0770 -0.3889 -0.5634
 1972TIP3    H1 5922   2.105   5.539   3.282 -0.3314  1.5793 -1.2145
 1972TIP3    H2 5923   2.199   5.520   3.399 -1.2219 -1.2896 -0.9073
 1973TIP3   OH2 5924   5.097   2.458   4.498 -0.1172 -0.0002  0.1199
 1973TIP3    H1 5925   5.010   2.462   4.457 -0.5107  0.0325  0.9362
 1973TIP3    H2 5926   5.158   2.465   4.425 -0.7927  1.9026 -0.3240
 1974TIP3   OH2 5927   4.377   2.338   3.258 -0.2784 -0.1175  0.6446
 1974TIP3    H1 5928   4.385   2.386   3.341 -1.3464  0.1332  0.6221
 1974TIP3    H2 5929   4.403   2.249   3.280 -0.5695 -0.0591  1.2601
 1975TIP3   OH2 5930   1.418   5.517   1.126 -0.0303 -0.5537  0.0466
 1975TIP3    H1 5931   1.391   5.470   1.047 -1.3972  0.7900 -0.3555
 1975TIP3    H2 5932   1.388   5.463   1.198  0.1290 -1.2099 -0.3751
 1976TIP3   OH2 5933   5.611   3.792   3.988 -0.1174  0.1376 -0.3170
 1976TIP3    H1 5934   5.554   3.848   3.935 -1.7320 -1.5592 -0.5083
 1976TIP3    H2 5935   5.671   3.752   3.925 -1.2346 -0.9424 -0.7351
 1977TIP3   OH2 5936   3.404   1.796   2.025 -0.0633 -0.2030 -0.0095
 1977TIP3    H1 5937   3.373   1.717   2.069  0.9982 -0.4232  0.3660
 1977TIP3    H2 5938   3.343   1.864   2.055  0.3264 -0.4451  1.4307
 1978TIP3   OH2 5939   5.567   5.488   4.852 -0.1956 -0.1950  0.3577
 1978TIP3    H1 5940   5.562   5.413   4.793 -0.0848  0.0266  0.0674
 1978TIP3    H2 5941   5.650   5.477   4.898  0.7740  0.7967 -1.1002
 1979TIP3   OH2 5942   3.324   0.991   1.396 -0.2603 -0.0249  0.4250
 1979TIP3    H1 5943   3.373   0.969   1.476  1.3435 -0.5425 -0.6578
 1979TIP3    H2 5944   3.269   1.065   1.422  1.1580  0.6427  1.6898
 1980TIP3   OH2 5945   4.875   4.879   4.046  0.2117  0.0227  0.0833
 1980TIP3    H1 5946   4.960   4.892   4.088 -0.2941  1.5204  0.7141
 1980TIP3    H2 5947   4.811   4.909   4.111 -0.7010  0.5599 -1.0220
 1981TIP3   OH2 5948   1.336   2.238   4.809 -0.1362 -0.0764  0.4429
 1981TIP3    H1 5949   1.349   2.161   4.754 -2.9889 -2.3944  2.6902
 1981TIP3    H2 5950   1.280   2.295   4.757 -0.6094 -0.9801 -0.0576
 1982TIP3   OH2 5951   4.102   0.742   2.443  0.1536 -0.4361 -0.2333
 1982TIP3    H1 5952   4.164   0.680   2.480  1.4746  0.2306 -1.2259
 1982TIP3    H2 5953   4.028   0.741   2.503  0.0590 -3.0392 -0.2878
 1983TIP3   OH2 5954   3.113   4.338   2.647  0.4565 -0.5367 -0.2845
 1983TIP3    H1 5955   3.043   4.400   2.665 -0.3541 -0.8101 -2.2180
 1983TIP3    H2 5956   3.078   4.252   2.671  0.6714 -0.5255  0.0826
 1984TIP3   OH2 5957   1.808   1.851   0.309 -0.2480 -0.6525  0.5870
 1984TIP3    H1 5958   1.884   1.803   0.277  0.3560  0.8432 -0.3767
 1984TIP3    H2 5959   1.759   1.788   0.362  1.9985 -1.4979  1.8020
 1985TIP3   OH2 5960   5.023   1.244   3.978  0.1474  0.0588 -0.4691
 1985TIP3    H1 5961   5.037   1.280   3.891 -1.6497  2.1336  0.0066
 1985TIP3    H2 5962   5.097   1.277   4.030  0.2570  0.3170 -0.7887
 1986TIP3   OH2 5963   5.077   1.305   1.405  0.2200 -0.0779 -0.0793
 1986TIP3    H1 5964   5.089   1.337   1.315 -1.4460 -0.1420 -0.3408
 1986TIP3    H2 5965   5.158   1.257   1.423  1.7524  2.1516 -0.5634
 1987TIP3   OH2 5966   2.911   2.380   4.704  0.1168  0.1946  0.3609
 1987TIP3    H1 5967   2.935   2.416   4.790 -0.0419 -1.4112  1.1108
 1987TIP3    H2 5968   2.838   2.321   4.722  0.0875 -0.1802 -0.8953
 1988TIP3   OH2 5969   0.528   4.674   3.164 -0.3765 -0.3242  0.0997
 1988TIP3    H1 5970   0.586   4.707   3.095  1.1445  0.9739  1.8927
 1988TIP3    H2 5971   0.514   4.582   3.141  1.6833 -0.4564 -0.8878
 1989TIP3   OH2 5972   1.144   2.205   2.444  0.4882  0.6316 -0.5348
 1989TIP3    H1 5973   1.063   2.169   2.407  1.5004 -1.8921 -0.4954
 1989TIP3    H2 5974   1.115   2.271   2.506 -1.8348 -2.5848  2.1135
 1990TIP3   OH2 5975   2.512   4.672   5.173 -0.5815 -0.6425 -0.3580
 1990TIP3    H1 5976   2.485   4.710   5.256  1.3733 -1.3085  0.6373
 1990TIP3    H2 5977   2.469   4.727   5.107 -0.9071  0.8940  1.0594
 1991TIP3   OH2 5978   4.271   1.857   4.453 -0.2254  0.2456 -0.1203
 1991TIP3    H1 5979   4.328   1.933   4.445  0.1310  0.0046  0.1406
 1991TIP3    H2 5980   4.204   1.884   4.516 -0.0898  0.3345 -0.0145
 1992TIP3   OH2 5981   3.866   3.468   1.756  0.2287  0.2874 -0.4526
 1992TIP3    H1 5982   3.911   3.391   1.720 -0.7719 -0.1033 -0.9325
 1992TIP3    H2 5983   3.891   3.470   1.848  0.5125 -0.4463 -0.5058
 1993TIP3   OH2 5984   5.393   4.124   4.940  0.3103 -0.2241 -0.3068
 1993TIP3    H1 5985   5.437   4.060   4.995  1.4719 -0.4963 -1.4913
 1993TIP3    H2 5986   5.385   4.202   4.995 -2.2195 -1.6741  1.5631
 1994TIP3   OH2 5987   0.708   0.015   0.464  0.2094 -0.4766  0.5171
 1994TIP3    H1 5988   0.666   0.099   0.479 -2.0448 -1.1585 -1.3640
 1994TIP3    H2 5989   0.679  -0.041   0.537 -0.7901 -0.4428  0.1611
 1995TIP3   OH2 5990   2.551   3.956   0.472 -0.6952 -0.2020 -0.6504
 1995TIP3    H1 5991   2.564   4.039   0.517  1.8813 -0.2204 -1.1621
 1995TIP3    H2 5992   2.532   3.893   0.541  0.5727  0.2585  0.1616
 1996TIP3   OH2 5993   4.897   5.466   0.954  0.2165  0.2319  0.7085
 1996TIP3    H1 5994   4.883   5.372   0.958  0.6855  0.0698 -0.7849
 1996TIP3    H2 5995   4.992   5.476   0.947  0.3029  0.9097  2.4025
 1997TIP3   OH2 5996   1.875   1.692   1.763 -0.3457  0.6729 -0.7094
 1997TIP3    H1 5997   1.830   1.776   1.757 -1.0497  0.3895  0.3629
 1997TIP3    H2 5998   1.966   1.715   1.780 -0.9087  1.2529  1.9791
 1998TIP3   OH2 5999   5.863   3.838   1.334 -0.4467 -0.0078  0.0591
 1998TIP3    H1 6000   5.790   3.789   1.372  1.2432 -2.4074  0.4311
 1998TIP3    H2 6001   5.941   3.793   1.367  1.2036  2.1245 -0.7580
 1999TIP3   OH2 6002   4.758   4.375   0.296 -0.2021 -0.6593 -0.2688
 1999TIP3    H1 6003   4.669   4.373   0.260 -0.8287 -2.3264  1.2223
 1999TIP3    H2 6004   4.810   4.418   0.229 -2.1233  0.3120 -1.2105
 2000TIP3   OH2 6005   5.718   3.143   3.531  0.0936  0.2663  0.1459
 2000TIP3    H1 6006   5.782   3.145   3.460  0.9633 -1.6690  0.8120
 2000TIP3    H2 6007   5.770   3.144   3.611 -0.6500 -1.3751  0.7011
 2001TIP3   OH2 6008   1.585   1.741   1.971  0.2702 -0.0604 -0.1016
 2001TIP3    H1 6009   1.651   1.745   1.902  0.5829  2.6499  0.2290
 2001TIP3    H2 6010   1.511   1.790   1.935 -0.4253 -0.5261  0.6548
 2002TIP3   OH2 6011   1.685   3.044   2.699  0.2719  0.6167  0.0135
 2002TIP3    H1 6012   1.660   3.137   2.698 -1.5039  0.2262  1.4273
 2002TIP3    H2 6013   1.615   3.001   2.748  0.8941 -1.5424 -0.8494
 2003TIP3   OH2 6014   1.101   0.419   3.095  0.5450  0.2370  0.2479
 2003TIP3    H1 6015   1.069   0.501   3.057  0.4037  0.5815  1.0797
 2003TIP3    H2 6016   1.052   0.410   3.177  1.9506  0.3395  1.1329
 2004TIP3   OH2 6017   4.844   2.910   0.941  0.2706 -0.1698  0.0714
 2004TIP3    H1 6018   4.754   2.943   0.939  0.2153 -0.3472 -0.4891
 2004TIP3    H2 6019   4.840   2.824   0.900  0.3058 -1.2072  2.1293
 2005TIP3   OH2 6020   2.306   5.610   2.640 -0.2062 -0.4734 -0.2188
 2005TIP3    H1 6021   2.305   5.579   2.549 -0.7398 -0.0514 -0.3618
 2005TIP3    H2 6022   2.237   5.676   2.643 -0.5429 -0.8533  0.6247
 2006TIP3   OH2 6023   1.202   2.074   1.157  0.2259 -0.5770  0.2735
 2006TIP3    H1 6024   1.179   2.045   1.245 -0.1962  0.3945  0.4932
 2006TIP3    H2 6025   1.120   2.072   1.108 -0.0192  1.1161  0.5544
 2007TIP3   OH2 6026   1.667   2.230   1.377 -0.6032  0.1524  0.6092
 2007TIP3    H1 6027   1.607   2.297   1.408 -0.7213  1.1721 -1.6291
 2007TIP3    H2 6028   1.697   2.262   1.292  1.7026 -1.1983  0.8264
 2008TIP3   OH2 6029   1.503   4.780   1.031 -0.3244 -0.4631  0.2931
 2008TIP3    H1 6030   1.510   4.743   1.118 -1.4268 -0.5248  0.3652
 2008TIP3    H2 6031   1.410   4.795   1.018 -0.0246  1.2283 -0.1745
 2009TIP3   OH2 6032   1.309   2.255   2.812 -0.6437  0.6561 -0.0166
 2009TIP3    H1 6033   1.229   2.292   2.776 -0.0347  0.8895 -1.1694
 2009TIP3    H2 6034   1.370   2.328   2.815 -0.6236  0.6122  1.3987
 2010TIP3   OH2 6035   4.595   4.804   1.373 -0.0818 -0.0607  0.0083
 2010TIP3    H1 6036   4.676   4.753   1.371 -0.1128 -0.1006 -0.7281
 2010TIP3    H2 6037   4.619   4.885   1.419 -0.0427 -0.7369  1.2060
 2011TIP3   OH2 6038   2.978   0.746   3.372 -0.5071  0.1939  0.6913
 2011TIP3    H1 6039   2.981   0.657   3.409  0.9115  0.1675  0.5361
 2011TIP3    H2 6040   2.979   0.803   3.448 -0.8579  0.1028  0.7710
 2012TIP3   OH2 6041   2.809   4.474   0.260 -0.3062  0.5818  0.0058
 2012TIP3    H1 6042   2.754   4.514   0.327  0.1576 -0.4440  1.0406
 2012TIP3    H2 6043   2.788   4.521   0.179  0.1762  2.8566  1.1175
 2013TIP3   OH2 6044   0.738   0.222   2.818 -0.2825  0.0869 -0.3814
 2013TIP3    H1 6045   0.732   0.318   2.825  0.7228  0.1234  0.1151
 2013TIP3    H2 6046   0.702   0.190   2.900  0.0171  0.0611 -0.2611
 2014TIP3   OH2 6047   1.979   0.206   3.434  0.4591  0.3892  0.4199
 2014TIP3    H1 6048   1.992   0.288   3.481 -1.9093  2.0212 -1.4674
 2014TIP3    H2 6049   1.886   0.207   3.411  1.0643 -1.1057 -2.6539
 2015TIP3   OH2 6050   3.726   4.299   2.496  0.0201 -0.1960 -0.5138
 2015TIP3    H1 6051   3.651   4.351   2.467 -0.1475  0.4353  0.9427
 2015TIP3    H2 6052   3.690   4.213   2.516 -0.0484 -0.3212 -1.1637
 2016TIP3   OH2 6053   3.630   3.277   1.555  0.8594 -0.0637 -0.2142
 2016TIP3    H1 6054   3.715   3.275   1.512  0.1385  0.3300 -1.7371
 2016TIP3    H2 6055   3.583   3.348   1.511 -0.1201 -0.0076  0.8701
 2017TIP3   OH2 6056   1.986   5.515   2.497 -0.3558 -0.0329 -0.4779
 2017TIP3    H1 6057   2.045   5.559   2.436  1.3857 -0.1352  1.0317
 2017TIP3    H2 6058   1.944   5.587   2.545 -1.4417  0.0375 -1.4839
 2018TIP3   OH2 6059   4.975   4.710   3.406  0.3012  0.5550 -0.6542
 2018TIP3    H1 6060   5.007   4.632   3.362  2.1928 -0.5269  2.3352
 2018TIP3    H2 6061   4.880   4.701   3.407  0.4579 -3.4834  2.2401
 2019TIP3   OH2 6062   3.674   5.275   2.068  0.1393  0.8745  0.0425
 2019TIP3    H1 6063   3.682   5.195   2.016 -0.5854  1.2784 -0.7126
 2019TIP3    H2 6064   3.596   5.261   2.122 -1.2655  1.8782 -1.6223
 2020TIP3   OH2 6065   2.773   0.396   4.644 -0.5282 -0.6285  0.4875
 2020TIP3    H1 6066   2.815   0.442   4.572 -0.3373  0.4669  1.2738
 2020TIP3    H2 6067   2.843   0.379   4.707 -1.1815  1.1600  1.7817
 2021TIP3   OH2 6068   0.272   3.435   1.816  0.1832 -0.1729  0.1447
 2021TIP3    H1 6069   0.287   3.410   1.725 -3.2592 -1.5743 -0.1963
 2021TIP3    H2 6070   0.263   3.531   1.813 -1.4120 -0.3174 -1.3283
 2022TIP3   OH2 6071   4.469   1.105   2.873  0.2152 -0.3371 -0.0350
 2022TIP3    H1 6072   4.488   1.193   2.907 -0.9996  0.5729 -1.5894
 2022TIP3    H2 6073   4.375   1.105   2.857  0.7228 -0.3856 -3.9909
 2023TIP3   OH2 6074   5.972   0.379   2.074 -0.6169 -0.0559 -0.1220
 2023TIP3    H1 6075   5.969   0.288   2.047 -0.6475 -0.1789  0.2835
 2023TIP3    H2 6076   6.058   0.411   2.045 -0.4878 -0.2976 -0.0063
 2024TIP3   OH2 6077   2.721   5.119   5.087  0.4070 -0.5256 -0.0973
 2024TIP3    H1 6078   2.815   5.124   5.071  0.7427  0.1482  1.7613
 2024TIP3    H2 6079   2.681   5.130   5.001  2.0074  0.5068 -0.7561
 2025TIP3   OH2 6080   1.466   5.815   0.462  0.3367 -0.2061  0.0105
 2025TIP3    H1 6081   1.450   5.727   0.428 -1.0532  0.4239 -1.0238
 2025TIP3    H2 6082   1.491   5.801   0.554  0.8346 -1.7065 -0.3340
 2026TIP3   OH2 6083   4.556   1.142   3.433 -0.8251 -0.3829  0.1570
 2026TIP3    H1 6084   4.514   1.226   3.416 -0.8417 -0.5790 -0.7966
 2026TIP3    H2 6085   4.584   1.148   3.525 -0.5730  0.7600  0.0228
 2027TIP3   OH2 6086   3.637   2.196   4.434 -0.3900  0.2685 -0.1231
 2027TIP3    H1 6087   3.706   2.261   4.449  0.4407 -0.4303 -0.7916
 2027TIP3    H2 6088   3.587   2.231   4.360 -1.9524  1.6998  1.5352
 2028TIP3   OH2 6089   3.230   4.420   4.082  0.6409 -0.6640 -0.4881
 2028TIP3    H1 6090   3.317   4.459   4.086 -0.0311  0.8197  0.6687
 2028TIP3    H2 6091   3.197   4.427   4.172 -1.0943 -0.1454 -1.1263
 2029TIP3   OH2 6092   4.744   4.953   0.344  0.3589  0.7892 -0.4192
 2029TIP3    H1 6093   4.819   4.991   0.300  0.3477  0.1892 -0.9745
 2029TIP3    H2 6094   4.778   4.874   0.385  0.5942  1.8343  1.5175
 2030TIP3   OH2 6095   5.883   2.623   3.594 -0.4727 -0.0530 -0.3361
 2030TIP3    H1 6096   5.818   2.681   3.635 -0.7811 -0.2217 -0.5850
 2030TIP3    H2 6097   5.967   2.666   3.612 -0.4651 -0.7792  1.5995
 2031TIP3   OH2 6098   5.805   3.391   2.856 -0.1641  0.3181 -0.0110
 2031TIP3    H1 6099   5.878   3.415   2.799 -0.0693 -0.4046 -0.2039
 2031TIP3    H2 6100   5.729   3.390   2.798 -0.3488  1.1372  0.2033
 2032TIP3   OH2 6101   6.131   4.966   4.127  0.2273  0.3776  0.3133
 2032TIP3    H1 6102   6.169   4.929   4.047 -0.7320  1.9486 -0.9284
 2032TIP3    H2 6103   6.179   4.923   4.198  1.6767 -0.4831 -1.1079
 2033TIP3   OH2 6104   4.066   2.635   5.104  0.2377  0.3584  0.1655
 2033TIP3    H1 6105   4.147   2.671   5.068 -0.7276  0.7823 -1.7392
 2033TIP3    H2 6106   4.083   2.624   5.197  2.2210  1.1380 -0.0682
 2034TIP3   OH2 6107   1.890   1.068   1.498  0.1855 -0.3612  0.5243
 2034TIP3    H1 6108   1.831   1.006   1.457 -0.5542  0.6338  0.0319
 2034TIP3    H2 6109   1.848   1.153   1.485  0.4773  0.1057  2.3918
 2035TIP3   OH2 6110   1.538   5.435   0.506  0.3042 -0.2357  0.2628
 2035TIP3    H1 6111   1.510   5.433   0.597  0.3288  1.1954  0.3184
 2035TIP3    H2 6112   1.632   5.416   0.509  0.2067 -0.6933  0.4807
 2036TIP3   OH2 6113   1.796   5.072   1.336 -0.7337 -0.1410 -0.2346
 2036TIP3    H1 6114   1.704   5.068   1.307 -0.5814 -0.8243 -0.6427
 2036TIP3    H2 6115   1.842   5.015   1.275  0.4149  2.1833 -1.6951
 2037TIP3   OH2 6116   4.189   2.856   3.587  0.0930  0.0129 -0.0087
 2037TIP3    H1 6117   4.164   2.822   3.501 -1.6969  2.0039 -0.3666
 2037TIP3    H2 6118   4.133   2.808   3.648 -1.4443  1.2030 -0.3897
 2038TIP3   OH2 6119   4.861   1.253   3.596  0.1442  0.1236 -0.5019
 2038TIP3    H1 6120   4.906   1.326   3.637  0.3729 -0.2546 -0.0622
 2038TIP3    H2 6121   4.926   1.212   3.540  0.4096 -0.5217  0.2605
 2039TIP3   OH2 6122   4.814   0.555   4.167  0.2604 -0.6122  0.2905
 2039TIP3    H1 6123   4.753   0.542   4.239 -1.3374 -2.1404 -1.2574
 2039TIP3    H2 6124   4.775   0.624   4.114  1.7471  0.9587  1.1597
 2040TIP3   OH2 6125   1.983   5.307   3.041 -0.5166 -0.1029  0.3326
 2040TIP3    H1 6126   1.958   5.215   3.034 -0.5049 -0.0883  0.0696
 2040TIP3    H2 6127   2.071   5.305   3.079  0.0336 -0.2745 -0.8886
 2041TIP3   OH2 6128   5.021   5.982   3.897  0.1520 -0.3023 -0.2653
 2041TIP3    H1 6129   5.044   5.910   3.955  1.5123 -0.3595 -0.8431
 2041TIP3    H2 6130   5.021   5.944   3.809 -0.7272  0.0476 -0.4309
 2042TIP3   OH2 6131   4.476   0.220   4.243 -0.0655  0.7189  0.5244
 2042TIP3    H1 6132   4.411   0.153   4.264  1.2492 -0.1210  2.1497
 2042TIP3    H2 6133   4.478   0.276   4.320  2.1579 -0.1600  1.1920
 2043TIP3   OH2 6134   6.213   5.584   4.342 -0.2941 -0.1100 -0.1779
 2043TIP3    H1 6135   6.307   5.595   4.332 -0.0418 -1.7306  0.1018
 2043TIP3    H2 6136   6.194   5.614   4.431 -0.3317  1.7129 -0.7670
 2044TIP3   OH2 6137   3.956   5.790   3.035  0.0443 -0.1054 -0.2282
 2044TIP3    H1 6138   4.024   5.798   3.102 -0.8782 -0.8736  0.8382
 2044TIP3    H2 6139   3.936   5.881   3.010  0.4874  0.1877  0.4466
 2045TIP3   OH2 6140   5.567   1.494   3.088  0.4352 -0.8956  0.2693
 2045TIP3    H1 6141   5.519   1.484   3.170  0.9672 -1.6004  0.5043
 2045TIP3    H2 6142   5.611   1.579   3.095 -1.7183  0.3438 -0.4631
 2046TIP3   OH2 6143   6.119   3.332   0.966  0.1288  0.1124  0.3450
 2046TIP3    H1 6144   6.097   3.392   0.895 -1.1741 -1.0088 -0.2546
 2046TIP3    H2 6145   6.048   3.267   0.965  1.4440 -1.4071  0.9880
 2047TIP3   OH2 6146   6.319   5.978   4.778 -0.3761 -0.2714  0.3687
 2047TIP3    H1 6147   6.246   6.013   4.829 -0.0264  1.0060  0.0173
 2047TIP3    H2 6148   6.352   5.905   4.831 -2.0184 -1.0093  0.4401
 2048TIP3   OH2 6149   0.655   1.880   1.702 -0.3065 -0.0015 -0.2162
 2048TIP3    H1 6150   0.602   1.864   1.623 -1.2720  0.0536  0.4024
 2048TIP3    H2 6151   0.684   1.971   1.694 -0.4543  0.0244 -0.4723
 2049TIP3   OH2 6152   4.670   1.039   5.036  0.0097 -0.2285 -0.0625
 2049TIP3    H1 6153   4.742   0.977   5.050  0.2207 -0.3323 -1.4620
 2049TIP3    H2 6154   4.626   1.007   4.957 -0.6393  0.6996 -0.0892
 2050TIP3   OH2 6155   2.087   5.323   4.804 -0.5334  0.2285 -0.5384
 2050TIP3    H1 6156   2.003   5.365   4.787 -0.4646  0.6016  0.0074
 2050TIP3    H2 6157   2.140   5.392   4.844 -1.1856 -0.9844  2.6397
 2051TIP3   OH2 6158   2.884   0.617   2.340  0.1949  0.1861 -0.1876
 2051TIP3    H1 6159   2.853   0.622   2.250 -1.7197 -1.1824  0.3449
 2051TIP3    H2 6160   2.921   0.529   2.349  0.1550  0.2244  0.4358
 2052TIP3   OH2 6161   4.658   3.413   5.149  0.2626 -0.3301 -0.2294
 2052TIP3    H1 6162   4.572   3.456   5.146  0.8609  0.8493 -2.1012
 2052TIP3    H2 6163   4.643   3.326   5.114  0.1831  0.6556 -2.8314
 2053TIP3   OH2 6164   4.494   0.272   1.731  0.2926  0.1385 -0.5904
 2053TIP3    H1 6165   4.451   0.245   1.650  0.3630  0.7449 -0.8268
 2053TIP3    H2 6166   4.424   0.267   1.797  0.7974 -2.9416 -0.0977
 2054TIP3   OH2 6167   1.550   4.363   1.654  0.2150 -0.0547 -0.0104
 2054TIP3    H1 6168   1.634   4.373   1.610 -0.4712  1.0545 -1.1524
 2054TIP3    H2 6169   1.566   4.300   1.724  2.4192  1.4228  0.9312
 2055TIP3   OH2 6170   5.369   2.406   3.861  0.7178  0.7528 -0.2205
 2055TIP3    H1 6171   5.309   2.479   3.875 -0.8215 -0.4124 -0.4658
 2055TIP3    H2 6172   5.355   2.349   3.936  1.1244  0.1968 -0.5610
 2056TIP3   OH2 6173   5.004   3.963   5.082 -0.1600  0.0670  0.4204
 2056TIP3    H1 6174   4.928   3.919   5.121 -0.3526 -1.8682 -1.9552
 2056TIP3    H2 6175   4.966   4.031   5.027 -0.2907 -1.3381 -1.3021
 2057TIP3   OH2 6176   2.827   3.564   1.117  0.3679 -0.3379  0.5233
 2057TIP3    H1 6177   2.810   3.471   1.131 -1.8114  0.0326  0.6765
 2057TIP3    H2 6178   2.829   3.602   1.204 -1.0635  0.0965  0.3817
 2058TIP3   OH2 6179   5.907   0.884   3.832 -0.4121  0.4959  0.3268
 2058TIP3    H1 6180   5.837   0.916   3.775 -0.3527  1.4369  0.7717
 2058TIP3    H2 6181   5.988   0.908   3.786 -0.3479 -1.1345 -0.4920
 2059TIP3   OH2 6182   0.082   5.859   4.521 -0.3999  0.3154 -0.2301
 2059TIP3    H1 6183   0.023   5.792   4.555  0.1043  0.7440  1.5887
 2059TIP3    H2 6184   0.085   5.926   4.589  0.6743  1.2288 -1.1226
 2060TIP3   OH2 6185   5.442   3.157   0.915  0.6153  1.2261 -0.0124
 2060TIP3    H1 6186   5.465   3.242   0.953 -0.3794  2.4724 -2.0259
 2060TIP3    H2 6187   5.505   3.144   0.844 -0.3226  1.1472 -0.8489
 2061TIP3   OH2 6188   1.498   1.084   4.119 -0.2208  0.0057 -0.3712
 2061TIP3    H1 6189   1.566   1.076   4.186 -0.1068  0.4111 -0.4349
 2061TIP3    H2 6190   1.428   1.027   4.150 -1.0357  1.7229  1.1672
 2062TIP3   OH2 6191   2.171   5.032   2.465 -0.9235 -0.5854  0.1522
 2062TIP3    H1 6192   2.144   5.024   2.373  3.3039 -1.3102 -1.2516
 2062TIP3    H2 6193   2.168   5.125   2.483 -1.0355 -0.3492 -1.0137
 2063TIP3   OH2 6194   1.642   5.472   1.675  0.5858 -0.1504 -0.0765
 2063TIP3    H1 6195   1.686   5.388   1.666 -1.2910 -1.1813 -0.0622
 2063TIP3    H2 6196   1.571   5.469   1.610 -0.6439  0.6452  1.1801
 2064TIP3   OH2 6197   5.226   2.466   2.918  0.6191  0.0514 -0.1184
 2064TIP3    H1 6198   5.235   2.432   3.007  1.3605  0.1750 -0.1391
 2064TIP3    H2 6199   5.192   2.392   2.867  1.1583 -0.3254  0.0635
 2065TIP3   OH2 6200   4.648   5.463   1.317  0.4082 -0.1956  0.0818
 2065TIP3    H1 6201   4.606   5.403   1.256  0.4570 -1.2488  1.0423
 2065TIP3    H2 6202   4.727   5.491   1.272  0.2835 -0.7046 -0.4742
 2066TIP3   OH2 6203   3.810   5.087   3.511 -0.7189  0.5271 -0.6435
 2066TIP3    H1 6204   3.801   5.012   3.453  0.8306  1.1762 -1.8097
 2066TIP3    H2 6205   3.898   5.079   3.548 -1.3952  0.5455  1.0488
 2067TIP3   OH2 6206   2.024   2.712   1.255 -0.1084 -0.2724 -0.2875
 2067TIP3    H1 6207   1.929   2.702   1.253 -0.1509  0.1610 -0.6619
 2067TIP3    H2 6208   2.051   2.670   1.336 -0.7230  0.4522  0.3075
 2068TIP3   OH2 6209   1.483   0.557   0.028  0.6182 -0.1407  0.0424
 2068TIP3    H1 6210   1.416   0.625   0.025  0.6658 -0.1161 -0.7317
 2068TIP3    H2 6211   1.458   0.502   0.103  0.4453  0.5816  0.5247
 2069TIP3   OH2 6212   0.517   1.318   2.578  0.1624  0.7636  0.1720
 2069TIP3    H1 6213   0.433   1.274   2.589  1.2426 -1.5546 -0.3152
 2069TIP3    H2 6214   0.522   1.338   2.485  0.9816 -1.0532 -0.2288
 2070TIP3   OH2 6215   1.986   2.642   1.752 -0.0717 -0.0650  0.0552
 2070TIP3    H1 6216   2.043   2.588   1.807  0.1648  0.4745  0.3522
 2070TIP3    H2 6217   2.013   2.732   1.771 -1.1581  0.2152  0.3607
 2071TIP3   OH2 6218   5.941   1.857   1.655  0.3716  0.0429  0.1053
 2071TIP3    H1 6219   5.935   1.949   1.683  0.4865  0.3799 -0.9305
 2071TIP3    H2 6220   5.929   1.807   1.735  1.9151  0.9945  0.9828
 2072TIP3   OH2 6221   2.248   0.393   4.069  1.0172 -0.6828 -0.6505
 2072TIP3    H1 6222   2.219   0.302   4.062 -0.9908 -0.1315 -0.1433
 2072TIP3    H2 6223   2.310   0.405   3.996  1.2891 -2.4151 -0.7378
 2073TIP3   OH2 6224   1.195   4.546   3.806 -0.0393 -0.2466  0.0387
 2073TIP3    H1 6225   1.126   4.481   3.820 -0.1834 -0.0973  0.0246
 2073TIP3    H2 6226   1.259   4.502   3.751 -0.3957 -0.1953 -0.4157
 2074TIP3   OH2 6227   4.923   2.588   0.839  0.0994  0.1114 -0.1790
 2074TIP3    H1 6228   5.006   2.550   0.811  0.5246  0.7005  0.2694
 2074TIP3    H2 6229   4.905   2.546   0.923  0.1926  0.3523 -0.0393
 2075TIP3   OH2 6230   2.228   2.047   2.070  0.3226 -0.1908  0.4680
 2075TIP3    H1 6231   2.256   2.105   1.999 -0.7988  1.6714  1.4644
 2075TIP3    H2 6232   2.133   2.044   2.062  0.3855 -2.6945 -0.0896
 2076TIP3   OH2 6233   5.216   5.716   3.188  0.0315  0.5048  0.3590
 2076TIP3    H1 6234   5.209   5.621   3.198 -1.4453  0.4987 -0.3955
 2076TIP3    H2 6235   5.150   5.737   3.122  1.2236  1.9061 -0.4281
 2077TIP3   OH2 6236   3.992   4.647   4.471  0.0954  0.0594 -0.2112
 2077TIP3    H1 6237   4.029   4.693   4.396 -0.7370  0.3446 -0.4653
 2077TIP3    H2 6238   4.045   4.676   4.545  0.8802 -0.1675 -0.6733
 2078TIP3   OH2 6239   6.061   4.693   4.807 -0.3567 -0.0350 -0.4189
 2078TIP3    H1 6240   6.128   4.652   4.862 -0.0880  0.2287 -0.5419
 2078TIP3    H2 6241   6.016   4.620   4.765 -1.5939 -0.3268  1.3009
 2079TIP3   OH2 6242   5.703   0.859   0.934 -0.1115  0.5234  0.0917
 2079TIP3    H1 6243   5.657   0.879   0.852 -0.0837 -0.1749 -0.1065
 2079TIP3    H2 6244   5.638   0.813   0.987 -0.0657  0.7870  0.3719
 2080TIP3   OH2 6245   4.794   5.458   1.679 -0.7418 -0.8868 -0.9389
 2080TIP3    H1 6246   4.720   5.497   1.632 -1.3533  0.8842  1.3029
 2080TIP3    H2 6247   4.866   5.520   1.668 -0.8016 -0.6000  0.1180
 2081TIP3   OH2 6248   4.411   4.925   1.659 -0.3702 -0.6028 -0.4664
 2081TIP3    H1 6249   4.351   4.871   1.710 -0.8097  0.1430 -0.1869
 2081TIP3    H2 6250   4.411   5.010   1.703  0.9789 -0.6224 -0.3983
 2082TIP3   OH2 6251   6.189   0.676   4.096 -0.2842  0.0524 -0.6427
 2082TIP3    H1 6252   6.267   0.681   4.151  0.1797  0.2898 -1.3006
 2082TIP3    H2 6253   6.207   0.736   4.023 -1.2508  0.4095 -0.6024
 2083TIP3   OH2 6254   1.496   5.503   3.552  0.1066  0.3242  0.2618
 2083TIP3    H1 6255   1.507   5.500   3.457  0.0171 -1.5550  0.2674
 2083TIP3    H2 6256   1.582   5.479   3.587 -0.3700 -1.0234  0.5772
 2084TIP3   OH2 6257   2.289   2.394   1.414  0.3221 -0.0843 -0.4420
 2084TIP3    H1 6258   2.267   2.444   1.335 -0.2349 -0.5737 -0.6037
 2084TIP3    H2 6259   2.211   2.401   1.469  0.8454  0.5741  0.2469
 2085TIP3   OH2 6260   3.242   1.725   1.273  0.1396 -0.1564 -0.1730
 2085TIP3    H1 6261   3.164   1.672   1.290  0.1970 -0.7394 -1.5940
 2085TIP3    H2 6262   3.230   1.804   1.326  0.2690 -1.7236  2.3831
 2086TIP3   OH2 6263   3.976   0.965   0.459 -0.6839  0.2004 -0.0080
 2086TIP3    H1 6264   4.044   0.908   0.424 -0.5995  0.9781 -1.1453
 2086TIP3    H2 6265   3.910   0.969   0.390 -0.7712  1.3321  0.1324
 2087TIP3   OH2 6266   6.174   4.757   3.406 -0.0257  0.3285  0.2648
 2087TIP3    H1 6267   6.158   4.851   3.413  0.9521  0.4413  1.1766
 2087TIP3    H2 6268   6.131   4.732   3.324 -2.1721  1.1416  1.0752
 2088TIP3   OH2 6269   1.455   1.000   1.689 -0.0282  0.5012 -0.2882
 2088TIP3    H1 6270   1.388   0.935   1.712  1.6560 -0.8870  0.9044
 2088TIP3    H2 6271   1.450   1.006   1.593 -3.2852  2.0970 -0.1552
 2089TIP3   OH2 6272   0.095   1.877   3.440  0.2440 -0.2590 -0.1516
 2089TIP3    H1 6273   0.119   1.850   3.529  1.5211  0.4500 -0.2506
 2089TIP3    H2 6274   0.076   1.970   3.448  1.6151  0.1146 -0.8055
 2090TIP3   OH2 6275   0.158   1.852   3.954 -0.2949 -0.2675  0.0736
 2090TIP3    H1 6276   0.082   1.844   4.012  0.0213  0.1546  0.5436
 2090TIP3    H2 6277   0.204   1.769   3.963 -0.1418 -0.1274  0.5721
 2091TIP3   OH2 6278   2.248   0.413   0.164 -0.3680  0.1281 -0.1546
 2091TIP3    H1 6279   2.181   0.354   0.129 -1.4817  1.3344 -0.1298
 2091TIP3    H2 6280   2.276   0.465   0.088  1.2176 -0.9394 -0.3588
 2092TIP3   OH2 6281   4.038   0.508   4.794  0.1662 -0.7811 -0.3254
 2092TIP3    H1 6282   3.975   0.578   4.812  1.6742  0.1046  2.0818
 2092TIP3    H2 6283   4.055   0.514   4.700 -0.6359  1.3228 -0.3946
 2093TIP3   OH2 6284   5.978   1.663   0.808 -0.0831 -0.1810 -0.1192
 2093TIP3    H1 6285   5.973   1.590   0.746  0.6129 -0.0274 -0.3691
 2093TIP3    H2 6286   5.910   1.644   0.873 -1.4071  0.0927 -1.3843
 2094TIP3   OH2 6287   6.044   5.632   3.094 -0.3193  0.1051  0.6024
 2094TIP3    H1 6288   6.091   5.665   3.017  0.1413 -1.1738  0.3232
 2094TIP3    H2 6289   5.978   5.573   3.058 -0.2311 -0.3449  1.1698
 2095TIP3   OH2 6290   3.796   2.368   4.819 -0.5435  0.0470  0.2239
 2095TIP3    H1 6291   3.840   2.304   4.876  0.3049  0.9420  0.5957
 2095TIP3    H2 6292   3.845   2.449   4.832 -0.8542  0.4797 -1.1700
 2096TIP3   OH2 6293   1.369   2.327   3.332  0.0310  0.2580  0.2636
 2096TIP3    H1 6294   1.353   2.368   3.247  0.1499 -1.5112 -0.6655
 2096TIP3    H2 6295   1.463   2.336   3.346  0.1205 -0.0475 -0.1269
 2097TIP3   OH2 6296   2.577   2.212   3.716 -0.0564  0.3889 -0.2116
 2097TIP3    H1 6297   2.611   2.261   3.641 -0.7991  0.0062 -0.8169
 2097TIP3    H2 6298   2.650   2.157   3.744  0.0187 -0.0006 -1.1318
 2098TIP3   OH2 6299   5.224   5.067   0.231  0.0886 -0.0143 -0.1616
 2098TIP3    H1 6300   5.216   5.095   0.140  1.9406 -1.2669 -0.7569
 2098TIP3    H2 6301   5.272   5.138   0.274 -2.0962  1.2895  0.2612
 2099TIP3   OH2 6302   3.936   1.164   1.847 -0.3571  0.5724 -0.2926
 2099TIP3    H1 6303   3.958   1.232   1.911  1.1271 -0.3777  0.2671
 2099TIP3    H2 6304   3.917   1.212   1.767 -1.8742  1.7724  0.7301
 2100TIP3   OH2 6305   6.147   0.413   2.792  0.4868  0.0496  0.0577
 2100TIP3    H1 6306   6.142   0.508   2.790  0.9061  0.0726 -1.7248
 2100TIP3    H2 6307   6.091   0.387   2.866  0.6205  1.6688  0.7574
 2101TIP3   OH2 6308   2.520   4.625   4.099  1.0136  0.5010 -0.0011
 2101TIP3    H1 6309   2.514   4.581   4.184 -0.4718 -1.5221 -1.0649
 2101TIP3    H2 6310   2.612   4.617   4.074  0.9091 -1.6931  0.0821
 2102TIP3   OH2 6311   4.132   4.071   3.346 -0.2980  0.5499 -0.0568
 2102TIP3    H1 6312   4.202   4.006   3.345  0.3503  1.1667  1.4438
 2102TIP3    H2 6313   4.129   4.105   3.256  0.0800 -0.7564 -0.5846
 2103TIP3   OH2 6314   3.821   5.343   3.164 -0.9496 -0.1249  0.3982
 2103TIP3    H1 6315   3.730   5.372   3.175 -0.6649  1.4694 -1.0674
 2103TIP3    H2 6316   3.873   5.421   3.181 -0.1111  0.1712 -2.8821
 2104TIP3   OH2 6317   4.435   0.703   4.112  1.0818  0.2276 -0.3632
 2104TIP3    H1 6318   4.342   0.718   4.095  1.2282  0.0778 -1.3301
 2104TIP3    H2 6319   4.469   0.667   4.030  2.2741  1.5460 -0.4882
 2105TIP3   OH2 6320   4.480   0.515   3.018  0.5227 -0.5142 -0.1268
 2105TIP3    H1 6321   4.435   0.452   3.075  0.5227 -2.7071 -2.3581
 2105TIP3    H2 6322   4.424   0.593   3.020  0.0067 -0.8779  2.0114
 2106TIP3   OH2 6323   5.631   3.165   1.159  0.3600  0.3598  0.1481
 2106TIP3    H1 6324   5.705   3.185   1.216  0.5653  2.3855 -0.7584
 2106TIP3    H2 6325   5.560   3.140   1.219  1.6421 -1.3659  1.0368
 2107TIP3   OH2 6326   2.400   1.352   1.336  0.0060 -0.3290  0.1500
 2107TIP3    H1 6327   2.480   1.323   1.291 -0.5404 -0.0323 -1.0743
 2107TIP3    H2 6328   2.392   1.293   1.411  0.0243 -2.0711 -1.1284
 2108TIP3   OH2 6329   3.660   0.195   3.785 -0.4482 -0.0740 -0.0929
 2108TIP3    H1 6330   3.675   0.186   3.691 -0.2221 -3.4491  0.1720
 2108TIP3    H2 6331   3.602   0.123   3.808 -1.4886  1.3712  2.2132
 2109TIP3   OH2 6332   5.230   1.295   0.249 -0.4607  0.4635 -0.2499
 2109TIP3    H1 6333   5.142   1.274   0.217 -1.2317  2.1577  0.5749
 2109TIP3    H2 6334   5.258   1.369   0.194  0.1068  0.4448  0.0084
 2110TIP3   OH2 6335   5.816   4.364   1.409  0.1649  0.3966 -0.5093
 2110TIP3    H1 6336   5.907   4.375   1.382  0.3047  0.3111 -0.0839
 2110TIP3    H2 6337   5.809   4.271   1.432  0.3657  0.6942  0.8582
 2111TIP3   OH2 6338   3.188   2.368   1.304  0.5230  0.4636 -0.7738
 2111TIP3    H1 6339   3.128   2.426   1.256  1.0627  0.2774 -1.7118
 2111TIP3    H2 6340   3.164   2.378   1.396 -0.0550  1.4118 -1.0169
 2112TIP3   OH2 6341   2.396   3.994   3.269 -0.2654  0.6744  0.2555
 2112TIP3    H1 6342   2.470   4.054   3.279 -0.0475  0.5332 -0.4702
 2112TIP3    H2 6343   2.429   3.924   3.213 -0.4875 -0.1858  1.1665
 2113TIP3   OH2 6344   6.142   1.583   3.043  0.4349  0.5507 -0.1818
 2113TIP3    H1 6345   6.070   1.553   3.099  0.9503 -0.9632 -0.2996
 2113TIP3    H2 6346   6.212   1.607   3.104  0.1063  1.3527 -0.0998
 2114TIP3   OH2 6347   3.794   0.598   4.202 -0.3685 -0.2449 -0.0170
 2114TIP3    H1 6348   3.731   0.669   4.217 -0.3338 -0.4052  0.9608
 2114TIP3    H2 6349   3.739   0.523   4.180 -0.5609 -0.4811  1.2094
 2115TIP3   OH2 6350   2.662   4.337   2.288 -0.3809 -0.5788 -0.7149
 2115TIP3    H1 6351   2.719   4.316   2.214  0.0577 -0.8801 -0.2986
 2115TIP3    H2 6352   2.704   4.296   2.363  0.1203  1.1622  0.0150
 2116TIP3   OH2 6353   4.151   0.166   2.818  0.3162  0.6983  0.0392
 2116TIP3    H1 6354   4.062   0.166   2.783 -0.0123 -0.1233  0.8090
 2116TIP3    H2 6355   4.142   0.129   2.906  1.7576 -2.0947 -0.8623
 2117TIP3   OH2 6356   5.218   3.792   3.519  0.2479 -0.2052  0.8025
 2117TIP3    H1 6357   5.248   3.709   3.482 -1.1041 -0.0120 -0.8862
 2117TIP3    H2 6358   5.164   3.768   3.593 -1.2448 -0.9785 -0.4745
 2118TIP3   OH2 6359   0.747   4.224   0.941  0.2063 -0.5039  0.1656
 2118TIP3    H1 6360   0.694   4.158   0.898 -0.8417  0.9385 -0.8597
 2118TIP3    H2 6361   0.783   4.276   0.870  0.7588  0.2085  0.9456
 2119TIP3   OH2 6362   1.114   1.147   3.460  0.1427  0.4264  0.2641
 2119TIP3    H1 6363   1.050   1.139   3.389 -0.5789  0.1808  0.9275
 2119TIP3    H2 6364   1.065   1.124   3.539  0.9541  0.6200  0.8353
 2120TIP3   OH2 6365   4.939   4.400   4.582 -0.1076 -0.3507  0.0191
 2120TIP3    H1 6366   4.897   4.315   4.594  0.0659 -0.3365  0.7508
 2120TIP3    H2 6367   5.024   4.379   4.543  0.8376 -0.7193  2.1254
 2121TIP3   OH2 6368   4.472   4.411   0.296  0.0723 -0.3556  0.3260
 2121TIP3    H1 6369   4.391   4.461   0.287  0.4823  0.6058  1.5878
 2121TIP3    H2 6370   4.472   4.382   0.387  1.5745  0.4489  0.6104
 2122TIP3   OH2 6371   5.465   1.527   2.709  0.1499 -0.0998  0.4041
 2122TIP3    H1 6372   5.374   1.537   2.681 -0.0995  0.9043  1.5089
 2122TIP3    H2 6373   5.468   1.566   2.796  1.3082 -1.4988  1.0355
 2123TIP3   OH2 6374   5.833   4.575   1.757 -0.2141 -0.3018 -0.3921
 2123TIP3    H1 6375   5.741   4.587   1.782  0.1881 -2.8228  2.9720
 2123TIP3    H2 6376   5.882   4.622   1.825  1.0087 -0.8307 -0.8880
 2124TIP3   OH2 6377   3.612   3.237   3.483 -0.2751  0.0715  0.0551
 2124TIP3    H1 6378   3.649   3.221   3.397  0.9007 -0.3138  0.6175
 2124TIP3    H2 6379   3.553   3.312   3.470 -0.9961 -0.6942 -1.2950
 2125TIP3   OH2 6380   1.707   4.418   1.945  0.1742  0.1914  0.3866
 2125TIP3    H1 6381   1.613   4.417   1.963  0.0564 -1.0003 -0.1907
 2125TIP3    H2 6382   1.725   4.332   1.908  2.0801 -0.8750  3.3953
 2126TIP3   OH2 6383   4.000   3.461   1.143  0.4349 -0.2109 -0.2593
 2126TIP3    H1 6384   4.085   3.447   1.101  0.8219  1.5118 -0.1082
 2126TIP3    H2 6385   4.006   3.549   1.181 -1.4867  0.0031 -0.3756
 2127TIP3   OH2 6386   2.802   1.368   2.366 -0.2280  0.6046  0.0296
 2127TIP3    H1 6387   2.774   1.301   2.303 -0.4107  0.1818  0.5537
 2127TIP3    H2 6388   2.721   1.394   2.410  0.1019 -0.1783  1.1211
 2128TIP3   OH2 6389   2.417   5.434   0.404 -0.5775 -0.1125  0.2064
 2128TIP3    H1 6390   2.366   5.489   0.464 -2.4712  2.0892 -3.0756
 2128TIP3    H2 6391   2.355   5.367   0.375 -1.0518  1.1972 -2.0747
 2129TIP3   OH2 6392   1.431   3.377   3.524 -0.0510 -0.7005 -0.3537
 2129TIP3    H1 6393   1.359   3.435   3.547 -0.1473 -0.4755 -1.2087
 2129TIP3    H2 6394   1.397   3.289   3.541 -0.6120 -0.6095 -0.9615
 2130TIP3   OH2 6395   6.107   3.483   1.217 -0.0537 -0.5497 -0.0868
 2130TIP3    H1 6396   6.121   3.392   1.246  0.2861 -0.3569  0.3722
 2130TIP3    H2 6397   6.121   3.480   1.123 -0.2054 -1.0094 -0.0968
 2131TIP3   OH2 6398   5.959   3.929   0.880  0.2615  0.3685 -0.4243
 2131TIP3    H1 6399   5.980   4.004   0.823  0.8516  1.4114  1.1102
 2131TIP3    H2 6400   6.040   3.913   0.929 -0.8756  0.9890  1.7497
 2132TIP3   OH2 6401   5.429   0.620   1.508 -0.1769 -0.6069 -0.1751
 2132TIP3    H1 6402   5.402   0.632   1.417 -1.0292 -0.5148  0.0802
 2132TIP3    H2 6403   5.378   0.545   1.539 -0.3275 -0.2746  0.3967
 2133TIP3   OH2 6404   3.375   3.528   1.947 -0.1890  0.5056 -0.2295
 2133TIP3    H1 6405   3.325   3.447   1.945  0.5720  0.0013  0.6412
 2133TIP3    H2 6406   3.327   3.587   1.888 -1.3300 -0.2195 -0.0525
 2134TIP3   OH2 6407   3.294   1.057   3.867  0.0077  0.0980 -0.1236
 2134TIP3    H1 6408   3.287   0.962   3.874  0.2775  0.1796  1.5592
 2134TIP3    H2 6409   3.309   1.073   3.773  2.1786 -1.6609 -0.1553
 2135TIP3   OH2 6410   3.760   3.906   0.444  0.3222 -0.1754  0.2655
 2135TIP3    H1 6411   3.698   3.870   0.381  1.4545  1.7926 -2.1380
 2135TIP3    H2 6412   3.840   3.854   0.431  1.3894  1.8169 -1.9458
 2136TIP3   OH2 6413   2.669   1.204   2.903  0.0659 -0.6865 -0.8794
 2136TIP3    H1 6414   2.576   1.212   2.925  0.4337  0.4694  0.4207
 2136TIP3    H2 6415   2.691   1.114   2.929  0.3651  0.4216  3.6139
 2137TIP3   OH2 6416   3.315   3.044   1.074 -0.1237 -0.1327  0.0529
 2137TIP3    H1 6417   3.367   3.109   1.027  1.0853 -1.1080 -0.0112
 2137TIP3    H2 6418   3.338   3.058   1.166 -0.1255 -0.2461  0.0707
 2138TIP3   OH2 6419   3.552   0.223   2.465  0.3537 -0.0438 -0.3135
 2138TIP3    H1 6420   3.531   0.252   2.554 -1.5334 -1.3228 -0.2812
 2138TIP3    H2 6421   3.490   0.271   2.409  0.9377  0.0982 -0.8436
 2139TIP3   OH2 6422   3.204   4.332   4.867  0.1941 -0.3569 -0.4988
 2139TIP3    H1 6423   3.184   4.268   4.798 -1.8916 -1.0064  0.6326
 2139TIP3    H2 6424   3.228   4.278   4.942 -1.2206  0.1982  0.3619
 2140TIP3   OH2 6425   0.928   1.925   2.615 -0.1673 -0.7003  0.4780
 2140TIP3    H1 6426   0.990   1.868   2.570 -0.2174 -1.1830  1.0111
 2140TIP3    H2 6427   0.856   1.867   2.640 -1.0974 -0.0501 -0.6013
 2141TIP3   OH2 6428   3.174   5.051   4.725 -0.9256 -0.0110  0.2658
 2141TIP3    H1 6429   3.181   4.955   4.719 -0.0513  0.0379  0.3311
 2141TIP3    H2 6430   3.211   5.072   4.811 -0.0252  0.4811 -0.2318
 2142TIP3   OH2 6431   5.283   2.710   1.128 -0.3426 -0.1130  0.2010
 2142TIP3    H1 6432   5.201   2.737   1.086  0.1609  0.0128 -0.7319
 2142TIP3    H2 6433   5.350   2.728   1.062  0.3429 -0.9632  0.6549
 2143TIP3   OH2 6434   3.769   0.203   4.596 -0.5994  0.3633  0.2484
 2143TIP3    H1 6435   3.693   0.237   4.549 -0.9680  0.0433  0.6076
 2143TIP3    H2 6436   3.738   0.123   4.638 -0.1775  0.4540  0.7454
 2144TIP3   OH2 6437   0.713   3.360   3.285  0.1813  0.4243 -0.2320
 2144TIP3    H1 6438   0.797   3.364   3.331 -0.6382  2.6883  1.2485
 2144TIP3    H2 6439   0.673   3.279   3.317  0.6633  0.7113  1.1942
 2145TIP3   OH2 6440   5.108   3.383   4.643  0.3471  0.1151 -0.3527
 2145TIP3    H1 6441   5.126   3.302   4.595  0.2537  0.4411 -0.9494
 2145TIP3    H2 6442   5.035   3.423   4.595 -0.3179  0.0304  0.5708
 2146TIP3   OH2 6443   3.192   1.034   0.499  0.4512 -0.0510  0.4003
 2146TIP3    H1 6444   3.104   1.041   0.461  0.5664  1.7857  0.3785
 2146TIP3    H2 6445   3.249   1.079   0.437  1.2422 -0.2805  0.9392
 2147TIP3   OH2 6446   0.365   3.295   3.713 -0.1951  0.3895  0.1297
 2147TIP3    H1 6447   0.274   3.271   3.730 -0.2816  1.1117  0.7041
 2147TIP3    H2 6448   0.362   3.341   3.629 -0.6518  1.9743  0.9607
 2148TIP3   OH2 6449   1.474   2.041   0.961 -0.7260  0.1634  0.7308
 2148TIP3    H1 6450   1.392   1.993   0.973 -0.5248 -0.4109 -0.1555
 2148TIP3    H2 6451   1.496   2.072   1.049 -1.7596  0.1178  1.0223
 2149TIP3   OH2 6452   3.423   1.944   3.292  0.4773  0.2373  0.2988
 2149TIP3    H1 6453   3.435   1.897   3.210 -0.7858 -0.0443  0.2575
 2149TIP3    H2 6454   3.464   2.029   3.277  2.5278 -0.6802  0.2687
 2150TIP3   OH2 6455   0.039   5.699   1.371  0.1866  0.0381 -0.6911
 2150TIP3    H1 6456   0.055   5.605   1.365 -1.2259 -0.1526 -2.5040
 2150TIP3    H2 6457   0.113   5.739   1.325  2.0016  0.0189  2.0480
 2151TIP3   OH2 6458   1.256   4.048   3.536 -0.4957  0.0246  0.7856
 2151TIP3    H1 6459   1.348   4.058   3.559 -0.0945 -2.4470  0.6171
 2151TIP3    H2 6460   1.226   3.975   3.591 -1.4063 -1.4190 -1.4846
 2152TIP3   OH2 6461   3.489   3.274   5.063 -0.1138 -0.2280  0.0177
 2152TIP3    H1 6462   3.526   3.357   5.093  1.6676 -0.3291 -1.6798
 2152TIP3    H2 6463   3.435   3.297   4.988 -2.1767 -0.3040  1.4088
 2153TIP3   OH2 6464   3.807   3.353   1.317  0.3015  0.0377  0.0197
 2153TIP3    H1 6465   3.763   3.437   1.330 -1.6479 -0.9731  0.4513
 2153TIP3    H2 6466   3.886   3.374   1.268 -1.1147  1.9075 -1.6585
 2154TIP3   OH2 6467   6.170   0.725   1.491 -0.1346  0.0346  0.0940
 2154TIP3    H1 6468   6.244   0.784   1.508  0.6631 -0.3372 -1.8439
 2154TIP3    H2 6469   6.127   0.761   1.414  1.1040 -2.4852 -1.9102
 2155TIP3   OH2 6470   0.612   0.395   1.611  0.4783 -0.6507 -0.0965
 2155TIP3    H1 6471   0.703   0.381   1.637  0.9180  0.4291 -0.9650
 2155TIP3    H2 6472   0.607   0.488   1.591 -1.0556 -0.5014  0.7950
 2156TIP3   OH2 6473   4.840   1.013   0.277 -0.2832  0.0770  0.1057
 2156TIP3    H1 6474   4.770   1.023   0.213 -0.0583  0.8306 -0.0306
 2156TIP3    H2 6475   4.806   0.950   0.341 -0.5140 -0.6710 -0.7387
 2157TIP3   OH2 6476   2.612   1.031   3.833 -0.2189 -0.7520  0.5437
 2157TIP3    H1 6477   2.691   1.086   3.837 -0.8639  0.2427  0.0795
 2157TIP3    H2 6478   2.622   0.981   3.752 -1.3125  1.4243 -1.0513
 2158TIP3   OH2 6479   1.249   1.137   3.100  0.2687 -0.1031  0.2182
 2158TIP3    H1 6480   1.233   1.231   3.108  0.2994 -0.0863  0.0837
 2158TIP3    H2 6481   1.222   1.115   3.011  3.0563  0.3727 -0.8685
 2159TIP3   OH2 6482   0.407   3.491   1.127  0.2645  0.0874 -0.6044
 2159TIP3    H1 6483   0.356   3.453   1.198  0.6104  0.3644 -0.2022
 2159TIP3    H2 6484   0.438   3.415   1.076  2.7121 -0.3770  1.3804
 2160TIP3   OH2 6485   1.145   5.376   2.105  0.3152 -0.2688 -0.0998
 2160TIP3    H1 6486   1.110   5.449   2.054 -1.2428 -0.6816  0.3115
 2160TIP3    H2 6487   1.092   5.301   2.078 -0.5250 -0.5196  2.0391
 2161TIP3   OH2 6488   0.384   1.318   2.911  0.3660  0.5652 -0.2532
 2161TIP3    H1 6489   0.408   1.361   2.993 -0.4367  1.0752 -0.2736
 2161TIP3    H2 6490   0.288   1.313   2.914  0.3729 -0.0385 -0.8496
 2162TIP3   OH2 6491   3.096   4.241   3.046 -0.0379  0.0452  0.2563
 2162TIP3    H1 6492   3.052   4.203   2.969  0.1521  0.2223  0.0565
 2162TIP3    H2 6493   3.143   4.168   3.085  1.1342  0.2637 -0.6953
 2163TIP3   OH2 6494   4.345   1.403   4.728  0.3089  0.2713 -0.2131
 2163TIP3    H1 6495   4.358   1.309   4.740 -2.0158 -0.3041 -1.6520
 2163TIP3    H2 6496   4.334   1.414   4.633 -1.7947  1.6132  0.1242
 2164TIP3   OH2 6497   2.862   5.556   1.465  0.2646 -0.5988  1.0037
 2164TIP3    H1 6498   2.788   5.613   1.488  1.0927  0.4765  1.0387
 2164TIP3    H2 6499   2.825   5.468   1.468 -0.7772 -0.1520  1.9832
 2165TIP3   OH2 6500   2.858   5.504   2.928  0.1582 -0.5604  0.1409
 2165TIP3    H1 6501   2.900   5.418   2.916 -0.1811 -0.8737  1.0959
 2165TIP3    H2 6502   2.766   5.489   2.907  0.0507 -0.4992  0.5496
 2166TIP3   OH2 6503   4.299   5.166   2.363  0.5392 -0.2123  0.1355
 2166TIP3    H1 6504   4.394   5.159   2.374  0.5010 -0.2304  0.4476
 2166TIP3    H2 6505   4.264   5.166   2.452  0.3501  1.4648  0.0886
 2167TIP3   OH2 6506   3.858   1.842   3.794 -0.4074 -0.2383  0.7385
 2167TIP3    H1 6507   3.802   1.884   3.859 -2.2560 -0.0149 -0.9210
 2167TIP3    H2 6508   3.869   1.908   3.725  1.2846 -0.5634  0.6501
 2168TIP3   OH2 6509   4.014   2.001   3.123 -0.1672 -0.0408 -0.7059
 2168TIP3    H1 6510   4.080   2.011   3.055  0.8831  0.3128  0.3253
 2168TIP3    H2 6511   4.040   2.064   3.191 -2.9900  1.9377 -1.3161
 2169TIP3   OH2 6512   2.126   0.310   3.221  0.0040 -0.8603 -0.3385
 2169TIP3    H1 6513   2.082   0.259   3.289  0.5221 -1.1901 -0.2466
 2169TIP3    H2 6514   2.199   0.255   3.193  0.5497 -0.1840 -0.2711
 2170TIP3   OH2 6515   4.231   0.951   3.671  0.5806 -0.2135  0.4418
 2170TIP3    H1 6516   4.278   0.917   3.596  1.4868 -1.0530  1.3534
 2170TIP3    H2 6517   4.286   0.928   3.746  0.2212  1.4788  1.2832
 2171TIP3   OH2 6518   0.376   2.674   4.529 -0.0860  0.1828 -0.2504
 2171TIP3    H1 6519   0.416   2.684   4.442  1.2579 -0.3596  0.2689
 2171TIP3    H2 6520   0.311   2.605   4.518  1.6888 -1.5446 -0.3590
 2172TIP3   OH2 6521   6.172   0.833   2.258 -0.4274  0.4287 -0.1518
 2172TIP3    H1 6522   6.155   0.744   2.287 -1.4224  0.4980 -0.4966
 2172TIP3    H2 6523   6.254   0.828   2.209  0.0952 -0.0897  0.7548
 2173TIP3   OH2 6524   3.365   2.211   2.399 -0.5235  0.2875  0.6499
 2173TIP3    H1 6525   3.303   2.245   2.334  0.2394 -0.9112 -0.7662
 2173TIP3    H2 6526   3.447   2.201   2.350 -0.1761 -1.5608  1.5487
 2174TIP3   OH2 6527   5.166   3.174   2.186 -0.2772  0.3641 -0.2303
 2174TIP3    H1 6528   5.200   3.214   2.106 -1.4883  0.4616 -0.7032
 2174TIP3    H2 6529   5.140   3.248   2.240  1.1775  0.3309  0.5814
 2175TIP3   OH2 6530   1.089   2.186   4.439 -0.0684 -0.9116 -0.7072
 2175TIP3    H1 6531   1.025   2.121   4.468  0.2353  0.1156  2.7426
 2175TIP3    H2 6532   1.039   2.268   4.433  0.4849 -0.5302 -0.1848
 2176TIP3   OH2 6533   5.290   3.917   1.886 -0.1969 -0.2886 -0.4914
 2176TIP3    H1 6534   5.195   3.927   1.892 -0.3623 -2.2908  1.3686
 2176TIP3    H2 6535   5.310   3.844   1.944  2.8222  1.9604  1.5992
 2177TIP3   OH2 6536   5.751   1.476   4.758  0.0792  0.0032  0.2966
 2177TIP3    H1 6537   5.668   1.441   4.788  0.5551 -1.7540 -0.3078
 2177TIP3    H2 6538   5.758   1.561   4.801 -1.7648 -0.0407  0.7683
 2178TIP3   OH2 6539   2.662   2.269   2.766 -0.0647 -0.1828  0.1991
 2178TIP3    H1 6540   2.654   2.175   2.781 -0.6080  0.0031  1.1839
 2178TIP3    H2 6541   2.686   2.277   2.674  1.5118 -1.3536  0.4554
 2179TIP3   OH2 6542   1.821   2.876   1.929  0.3134 -0.2974 -0.2363
 2179TIP3    H1 6543   1.903   2.909   1.892  0.1417  0.7132  0.2456
 2179TIP3    H2 6544   1.758   2.887   1.858  0.3579 -0.0037 -0.2344
 2180TIP3   OH2 6545   4.065   3.341   4.582  0.1692  0.1898 -0.4441
 2180TIP3    H1 6546   4.007   3.295   4.522 -0.4483  0.2842  0.0654
 2180TIP3    H2 6547   4.124   3.391   4.526 -0.4615  0.3533 -0.9735
 2181TIP3   OH2 6548   2.252   1.131   2.823  0.3416 -0.2216  0.0770
 2181TIP3    H1 6549   2.324   1.070   2.807  0.3976 -0.0427 -0.3970
 2181TIP3    H2 6550   2.176   1.090   2.782  0.1021 -0.5583  0.8543
 2182TIP3   OH2 6551   6.212   0.044   2.508 -0.4887  0.0256 -0.4255
 2182TIP3    H1 6552   6.300   0.083   2.510 -0.6177  0.2783  0.7697
 2182TIP3    H2 6553   6.219  -0.025   2.442  0.5314  0.2218 -0.5503
 2183TIP3   OH2 6554   3.337   0.774   3.853 -0.5347 -0.6473  0.4281
 2183TIP3    H1 6555   3.312   0.737   3.938 -1.3092  1.2748  1.0983
 2183TIP3    H2 6556   3.433   0.772   3.853 -0.5242 -0.5078  1.4363
 2184TIP3   OH2 6557   1.292   0.698   4.916  0.2921 -0.2549 -0.2572
 2184TIP3    H1 6558   1.377   0.728   4.948 -0.0734 -0.0609  0.5571
 2184TIP3    H2 6559   1.276   0.751   4.838  0.1758  0.8957  0.5135
 2185TIP3   OH2 6560   4.669   0.475   1.796  0.0889  0.2653  0.1019
 2185TIP3    H1 6561   4.609   0.404   1.775 -0.2610  1.2991 -2.8192
 2185TIP3    H2 6562   4.747   0.430   1.831 -0.4108 -1.5044 -0.9080
 2186TIP3   OH2 6563   0.437   1.267   3.814 -0.1463 -0.4249  0.2082
 2186TIP3    H1 6564   0.450   1.216   3.734  1.4381  1.0605 -0.5303
 2186TIP3    H2 6565   0.494   1.343   3.804 -0.9034  0.4674  2.1837
 2187TIP3   OH2 6566   2.391   2.235   2.867  0.6821  0.3929  0.3047
 2187TIP3    H1 6567   2.480   2.266   2.848 -0.6275  4.0233 -0.8048
 2187TIP3    H2 6568   2.369   2.275   2.951  0.4483 -1.4972  1.1923
 2188TIP3   OH2 6569   4.418   1.580   1.624 -0.0718  0.2425 -0.3256
 2188TIP3    H1 6570   4.382   1.510   1.679  0.9323 -0.4113 -0.4597
 2188TIP3    H2 6571   4.411   1.659   1.678 -0.1450 -0.1787  0.2937
 2189TIP3   OH2 6572   1.173   4.086   2.405  0.2503  0.4101 -0.3586
 2189TIP3    H1 6573   1.265   4.094   2.383  0.2349  2.2309  0.0760
 2189TIP3    H2 6574   1.167   4.118   2.496 -0.6677 -0.5528 -0.0635
 2190TIP3   OH2 6575   0.646   1.784   1.961  0.7268 -0.5375 -0.2407
 2190TIP3    H1 6576   0.614   1.695   1.955  0.0579 -0.2807 -0.5463
 2190TIP3    H2 6577   0.636   1.819   1.872  1.3927 -0.2939 -0.2279
 2191TIP3   OH2 6578   2.131   1.714   3.122 -1.1446 -0.4177  0.2286
 2191TIP3    H1 6579   2.102   1.792   3.074 -2.7150 -1.5019 -0.6643
 2191TIP3    H2 6580   2.169   1.658   3.054 -0.9812 -0.8798  0.7033
 2192TIP3   OH2 6581   0.912   0.404   1.258 -0.0080 -0.0001  0.6898
 2192TIP3    H1 6582   1.002   0.377   1.239  0.1388  1.1698 -0.4332
 2192TIP3    H2 6583   0.920   0.463   1.333  0.0433 -0.5491  1.1267
 2193TIP3   OH2 6584   0.501   5.758   4.075 -0.2202 -0.2918 -0.0989
 2193TIP3    H1 6585   0.465   5.683   4.122 -0.0680 -0.9412 -0.9794
 2193TIP3    H2 6586   0.469   5.747   3.985 -0.8392  1.1333 -0.0810
 2194TIP3   OH2 6587   1.753   0.877   5.192 -0.1381 -0.1202  0.1891
 2194TIP3    H1 6588   1.733   0.785   5.206  0.4804 -0.3860 -0.6220
 2194TIP3    H2 6589   1.701   0.902   5.115  0.3637 -0.0306 -0.1267
 2195TIP3   OH2 6590   4.275   5.624   2.529  0.2861 -0.1379 -0.5161
 2195TIP3    H1 6591   4.299   5.697   2.587 -0.6059 -0.4164  0.2153
 2195TIP3    H2 6592   4.333   5.553   2.554  0.0060 -0.2083 -0.0682
 2196TIP3   OH2 6593   2.310   3.236   3.834  0.1519 -0.4228 -0.8300
 2196TIP3    H1 6594   2.260   3.169   3.787 -0.4011 -0.9230  0.4357
 2196TIP3    H2 6595   2.294   3.317   3.785 -1.5794 -0.6486 -0.6986
 2197TIP3   OH2 6596   4.026   5.794   3.893 -0.7859 -0.3213 -0.1617
 2197TIP3    H1 6597   4.090   5.860   3.921 -0.8530 -0.7374  1.0457
 2197TIP3    H2 6598   3.943   5.843   3.887 -0.5236  0.0426 -0.9078
 2198TIP3   OH2 6599   6.035   4.700   1.540 -0.0931 -0.0180 -0.6260
 2198TIP3    H1 6600   6.001   4.781   1.578  0.3988 -0.0376 -0.1416
 2198TIP3    H2 6601   5.990   4.630   1.588  1.2642 -0.0603  0.6513
 2199TIP3   OH2 6602   1.108   5.027   1.459 -0.0345  0.0446 -0.0241
 2199TIP3    H1 6603   1.072   4.940   1.477 -0.3721  0.0451 -0.6952
 2199TIP3    H2 6604   1.107   5.071   1.545 -0.4245 -0.4024  0.2075
 2200TIP3   OH2 6605   0.763   4.647   4.744  0.3025  0.9774  0.2796
 2200TIP3    H1 6606   0.674   4.672   4.719  0.4669  2.2004  0.8263
 2200TIP3    H2 6607   0.769   4.671   4.837  0.9718  0.2244  0.4409
 2201TIP3   OH2 6608   0.047   5.307   2.630 -0.3645  0.3018 -0.0715
 2201TIP3    H1 6609   0.091   5.232   2.670 -1.8905 -0.0785  0.9815
 2201TIP3    H2 6610   0.014   5.358   2.703 -1.2118  0.8529 -0.8113
 2202TIP3   OH2 6611   0.515   5.065   5.115 -0.1616 -0.3627 -0.0062
 2202TIP3    H1 6612   0.449   5.010   5.157  0.6644 -0.7836  0.7842
 2202TIP3    H2 6613   0.466   5.118   5.052 -1.3116 -0.3566  0.8584
 2203TIP3   OH2 6614   0.964   5.419   3.575 -0.0047  0.0564 -0.2462
 2203TIP3    H1 6615   1.056   5.431   3.554  0.4797 -0.9474  1.1575
 2203TIP3    H2 6616   0.952   5.324   3.575 -0.8945  0.1625  0.2126
 2204TIP3   OH2 6617   1.809   4.291   1.619  0.1024 -0.2962  0.0255
 2204TIP3    H1 6618   1.876   4.356   1.640  0.5194 -0.5726 -0.4143
 2204TIP3    H2 6619   1.849   4.207   1.642  0.4736 -0.5897 -1.5357
 2205TIP3   OH2 6620   3.046   1.292   2.148 -0.1330 -0.1615 -0.2519
 2205TIP3    H1 6621   3.067   1.220   2.088 -0.6650 -0.6324  0.1086
 2205TIP3    H2 6622   2.986   1.348   2.098 -0.5726 -0.5502 -0.1773
 2206TIP3   OH2 6623   3.061   2.103   2.760 -0.0570  0.6294  0.1550
 2206TIP3    H1 6624   2.976   2.104   2.716  0.6560 -1.6391 -1.4424
 2206TIP3    H2 6625   3.125   2.096   2.688  1.4635  1.5125  1.3556
 2207TIP3   OH2 6626   0.807   4.990   4.198 -0.0256  0.5209 -0.1250
 2207TIP3    H1 6627   0.803   4.984   4.294 -0.5474 -0.0689 -0.1813
 2207TIP3    H2 6628   0.858   4.914   4.171 -2.3881 -1.0206 -0.4989
 2208TIP3   OH2 6629   3.669   1.586   2.228  0.7854 -0.0179 -0.5591
 2208TIP3    H1 6630   3.592   1.640   2.210  0.6973 -0.3930 -1.3651
 2208TIP3    H2 6631   3.642   1.529   2.300  1.2917  1.8228  1.1767
 2209TIP3   OH2 6632   1.671   0.362   4.917  0.6199 -0.0961 -0.2283
 2209TIP3    H1 6633   1.627   0.351   5.001  0.4808  0.8831 -0.1610
 2209TIP3    H2 6634   1.662   0.456   4.897 -1.8359 -0.6995 -2.6573
 2210TIP3   OH2 6635   0.338   2.279   3.620 -0.0501 -0.5522 -0.5745
 2210TIP3    H1 6636   0.326   2.308   3.530 -2.1484  0.4672 -0.0269
 2210TIP3    H2 6637   0.252   2.289   3.660  1.4540  2.1083  2.4025
 2211TIP3   OH2 6638   0.747   5.703   0.594 -0.2001  0.2922  0.2597
 2211TIP3    H1 6639   0.812   5.634   0.581 -0.2658  0.3384 -0.3334
 2211TIP3    H2 6640   0.796   5.784   0.583 -0.3612  0.3275 -0.2214
 2212TIP3   OH2 6641   4.413   5.754   1.574  0.1078  0.3707 -0.4013
 2212TIP3    H1 6642   4.442   5.691   1.509  2.7455 -0.9704  1.8980
 2212TIP3    H2 6643   4.470   5.830   1.561  1.8632 -0.5667  1.3049
 2213TIP3   OH2 6644   2.036   3.109   3.484  0.2532  0.7309 -0.5319
 2213TIP3    H1 6645   1.976   3.035   3.493  0.1145  0.7708 -1.1152
 2213TIP3    H2 6646   2.123   3.070   3.482  0.2496  0.6650  0.2178
 2214TIP3   OH2 6647   6.372   0.559   3.411  0.2825 -0.3257  0.2047
 2214TIP3    H1 6648   6.318   0.542   3.333  0.6463 -0.6093  0.0151
 2214TIP3    H2 6649   6.309   0.582   3.479 -0.0709 -0.5335 -0.0510
 2215TIP3   OH2 6650   5.022   0.498   1.286  0.1601 -0.1196 -0.3444
 2215TIP3    H1 6651   5.100   0.442   1.284  0.3441  0.1291 -0.2345
 2215TIP3    H2 6652   5.054   0.581   1.322  0.4027  0.8826 -2.7298
 2216TIP3   OH2 6653   1.056   5.807   5.154  0.5621 -0.3592 -0.0654
 2216TIP3    H1 6654   1.116   5.879   5.173  1.1698 -0.3123 -1.9089
 2216TIP3    H2 6655   0.969   5.842   5.175  0.9119  0.6701 -0.2400
 2217TIP3   OH2 6656   6.125   0.444   3.563  0.2780 -0.6290 -0.7631
 2217TIP3    H1 6657   6.114   0.468   3.471  3.7356  2.4500 -0.5812
 2217TIP3    H2 6658   6.067   0.505   3.610  0.0782 -0.7958 -0.7898
 2218TIP3   OH2 6659   4.916   2.924   0.370  0.3561 -0.1339 -0.0600
 2218TIP3    H1 6660   4.848   2.991   0.364 -1.6814 -2.1726 -1.9593
 2218TIP3    H2 6661   4.917   2.899   0.462  1.2278  2.4301  0.7236
 2219TIP3   OH2 6662   1.588   0.672   2.229 -1.0647 -0.4385  0.1650
 2219TIP3    H1 6663   1.621   0.622   2.154  0.9993  0.7110  0.2080
 2219TIP3    H2 6664   1.547   0.607   2.285  0.8326 -2.0144 -0.1432
 2220TIP3   OH2 6665   2.415   3.086   4.348 -0.1631  0.4027 -0.4664
 2220TIP3    H1 6666   2.347   3.094   4.281 -0.3504  0.5168 -0.2646
 2220TIP3    H2 6667   2.389   3.011   4.401 -0.2744  0.6094 -0.2269
 2221TIP3   OH2 6668   6.068   4.818   4.374 -0.4224  0.2135  0.1193
 2221TIP3    H1 6669   6.033   4.736   4.339  0.6574  0.2894 -1.2692
 2221TIP3    H2 6670   6.080   4.802   4.467  0.7517 -1.6184 -0.2855
 2222TIP3   OH2 6671   5.458   3.171   3.417 -0.3120  0.2704 -0.1239
 2222TIP3    H1 6672   5.543   3.172   3.461 -0.0384 -0.3358 -0.6215
 2222TIP3    H2 6673   5.478   3.202   3.328 -0.6757  0.4705 -0.1356
 2223TIP3   OH2 6674   0.086   2.638   2.499  0.2577 -0.1310 -0.4262
 2223TIP3    H1 6675   0.174   2.644   2.535  0.2414 -0.0240 -0.4023
 2223TIP3    H2 6676   0.096   2.590   2.417  0.2331 -0.7568 -0.0704
 2224TIP3   OH2 6677   5.038   1.537   0.218  0.5927  0.4300 -1.0486
 2224TIP3    H1 6678   5.080   1.603   0.164 -2.9353  3.0809 -0.9728
 2224TIP3    H2 6679   4.989   1.482   0.157  0.9822 -0.1092 -0.8856
 2225TIP3   OH2 6680   3.748   1.468   1.992 -0.7466 -0.4007 -0.7928
 2225TIP3    H1 6681   3.730   1.499   2.081  0.3760 -0.9497 -0.3569
 2225TIP3    H2 6682   3.751   1.548   1.939 -1.1168 -0.0464 -0.2876
 2226TIP3   OH2 6683   5.054   2.448   3.480  0.6667  0.5094 -0.2509
 2226TIP3    H1 6684   4.965   2.443   3.516  0.3604 -0.9913 -1.1336
 2226TIP3    H2 6685   5.067   2.364   3.437  2.6912  0.5295  0.2215
 2227TIP3   OH2 6686   0.884   3.126   3.161 -0.3876  0.0570 -0.1449
 2227TIP3    H1 6687   0.794   3.126   3.129 -0.1609 -1.0035 -0.8739
 2227TIP3    H2 6688   0.932   3.178   3.097 -0.7637  2.2276  1.2531
 2228TIP3   OH2 6689   2.636   3.608   1.826  0.0306  0.3418 -0.0934
 2228TIP3    H1 6690   2.584   3.531   1.849 -1.6889  1.3457 -0.4636
 2228TIP3    H2 6691   2.725   3.575   1.816 -0.5157 -1.4327  0.6083
 2229TIP3   OH2 6692   5.076   3.647   1.165  0.3605  0.2030  0.1014
 2229TIP3    H1 6693   5.140   3.580   1.186  0.8466  1.2009  2.0047
 2229TIP3    H2 6694   5.119   3.702   1.099  1.6384  1.0008  1.5274
 2230TIP3   OH2 6695   5.001   5.922   3.009  0.0446 -0.7086  0.2674
 2230TIP3    H1 6696   5.040   5.883   2.930  1.3904  0.5863  0.2627
 2230TIP3    H2 6697   4.940   5.855   3.040  0.9383 -2.0599 -0.7523
 2231TIP3   OH2 6698   3.435   0.773   0.872  0.3053  0.0302 -0.1260
 2231TIP3    H1 6699   3.471   0.687   0.851 -0.6907 -0.7523  1.2274
 2231TIP3    H2 6700   3.434   0.820   0.788  3.4970 -0.2258 -0.4163
 2232TIP3   OH2 6701   3.730   3.414   2.127 -0.0080  0.5747  0.0931
 2232TIP3    H1 6702   3.688   3.361   2.059  2.6856  0.5851 -1.7688
 2232TIP3    H2 6703   3.815   3.372   2.140  0.6035  2.1661  1.5290
 2233TIP3   OH2 6704   3.660   4.537   1.468  0.0625 -0.5718  0.3708
 2233TIP3    H1 6705   3.628   4.461   1.516  0.2349 -0.5064  0.5946
 2233TIP3    H2 6706   3.636   4.521   1.377 -0.5640 -0.5416  0.5300
 2234TIP3   OH2 6707   5.681   3.795   2.570  0.0476 -0.4768 -0.8094
 2234TIP3    H1 6708   5.764   3.751   2.552  0.6800  0.6415 -0.7213
 2234TIP3    H2 6709   5.635   3.796   2.486  0.4653 -0.4273 -1.0390
 2235TIP3   OH2 6710   1.175   4.115   4.578 -0.1653 -0.4038 -0.3676
 2235TIP3    H1 6711   1.094   4.064   4.586  0.0666 -1.1874 -2.3875
 2235TIP3    H2 6712   1.150   4.192   4.526  0.4450 -0.8663 -1.3762
 2236TIP3   OH2 6713   0.605   4.655   3.785  0.2941  0.3477 -0.2507
 2236TIP3    H1 6714   0.695   4.653   3.818 -0.0546  0.7876  0.7820
 2236TIP3    H2 6715   0.591   4.745   3.759 -0.7485  1.0499  2.3575
 2237TIP3   OH2 6716   3.461   0.432   3.550  0.5272  0.2802  0.0884
 2237TIP3    H1 6717   3.552   0.423   3.581  0.7844  1.2922 -0.3181
 2237TIP3    H2 6718   3.440   0.524   3.568 -0.5587 -0.0474  0.5328
 2238TIP3   OH2 6719   1.595   0.903   1.074 -0.1437 -0.2225  0.6597
 2238TIP3    H1 6720   1.557   0.970   1.017  0.0790 -0.7538 -0.1414
 2238TIP3    H2 6721   1.688   0.926   1.080 -0.0193 -0.5796  0.1894
 2239TIP3   OH2 6722   3.091   4.111   3.803  0.0663  0.4331  0.2983
 2239TIP3    H1 6723   3.005   4.084   3.836 -0.0372 -0.2626 -0.4954
 2239TIP3    H2 6724   3.075   4.134   3.711  0.6890  0.5324  0.2082
 2240TIP3   OH2 6725   4.270   0.988   4.085  0.4224  0.1808 -0.2945
 2240TIP3    H1 6726   4.242   0.976   3.994  1.3086  0.3151 -0.5850
 2240TIP3    H2 6727   4.361   1.014   4.080  0.1317  1.4612  0.5872
 2241TIP3   OH2 6728   5.719   2.050   0.212 -0.1005  0.0084 -0.5575
 2241TIP3    H1 6729   5.727   2.088   0.124  0.1797 -0.1042 -0.5813
 2241TIP3    H2 6730   5.786   1.982   0.215  0.5044  0.6113  0.0510
 2242TIP3   OH2 6731   6.042   2.219   2.053  0.1108  0.2258  0.2916
 2242TIP3    H1 6732   5.995   2.144   2.089 -1.6939  1.3107  0.3213
 2242TIP3    H2 6733   5.985   2.293   2.070  0.9255  1.3288 -1.4896
 2243TIP3   OH2 6734   5.333   1.325   0.509  0.6257 -0.0093  0.1117
 2243TIP3    H1 6735   5.295   1.304   0.424 -0.2510  0.8151  0.2924
 2243TIP3    H2 6736   5.368   1.413   0.499  2.4741 -0.6962 -0.0236
 2244TIP3   OH2 6737   0.167   1.047   0.034  0.0023  0.1856  0.5018
 2244TIP3    H1 6738   0.096   0.985   0.046  0.3559 -0.2711  0.2822
 2244TIP3    H2 6739   0.241   0.994   0.006  0.3391  0.6958  0.3977
 2245TIP3   OH2 6740   1.143   3.832   4.809  0.3919 -0.2161  0.1303
 2245TIP3    H1 6741   1.060   3.792   4.782  0.7829 -0.8098 -0.2132
 2245TIP3    H2 6742   1.134   3.845   4.903 -0.9719  1.8193 -0.2276
 2246TIP3   OH2 6743   4.123   5.657   1.899  0.4497  0.0848 -0.2252
 2246TIP3    H1 6744   4.185   5.716   1.855  0.5323  1.0399  1.1195
 2246TIP3    H2 6745   4.157   5.569   1.882  0.8678  0.4672 -1.4524
 2247TIP3   OH2 6746   4.097   2.064   3.916 -0.5977 -0.5609  0.2638
 2247TIP3    H1 6747   4.133   2.004   3.851 -1.7299  0.2157 -1.1375
 2247TIP3    H2 6748   4.173   2.098   3.962  0.2751 -0.8305 -0.9341
 2248TIP3   OH2 6749   3.713   4.315   3.987  0.2595  0.3956 -0.3003
 2248TIP3    H1 6750   3.768   4.296   4.064 -0.8923  2.1362  1.0156
 2248TIP3    H2 6751   3.755   4.390   3.946  1.4391 -1.1242 -2.0439
 2249TIP3   OH2 6752   3.317   4.220   3.909  0.6752 -0.0138 -0.3159
 2249TIP3    H1 6753   3.225   4.195   3.896  0.9002 -2.0072  1.3635
 2249TIP3    H2 6754   3.317   4.263   3.994  0.9750  2.2406 -1.3907
 2250TIP3   OH2 6755   0.885   2.443   3.628  0.7573  0.0519 -0.5857
 2250TIP3    H1 6756   0.913   2.362   3.586  0.0366 -0.5337  0.0418
 2250TIP3    H2 6757   0.819   2.479   3.568  0.4080 -0.3001 -0.4111
 2251TIP3   OH2 6758   3.270   0.246   2.140 -0.5969  0.7606  0.3505
 2251TIP3    H1 6759   3.305   0.252   2.051 -1.2403 -0.6140 -0.0159
 2251TIP3    H2 6760   3.325   0.306   2.190  1.1601  0.0013 -0.5494
 2252TIP3   OH2 6761   4.853   4.689   1.436  0.2456 -0.5656 -0.1174
 2252TIP3    H1 6762   4.940   4.676   1.473  0.0105 -0.6210  0.4269
 2252TIP3    H2 6763   4.799   4.622   1.477  0.2040 -1.3291 -1.3811
 2253TIP3   OH2 6764   5.456   0.164   2.193  0.3332  0.1091 -0.3022
 2253TIP3    H1 6765   5.396   0.236   2.171  2.1960  1.5783 -0.8315
 2253TIP3    H2 6766   5.441   0.148   2.286 -0.1772  1.1492 -0.1887
 2254TIP3   OH2 6767   3.231   0.836   4.758 -0.3132  0.3225  0.1369
 2254TIP3    H1 6768   3.262   0.922   4.730 -1.5637  1.2991  1.6307
 2254TIP3    H2 6769   3.199   0.795   4.678  0.4549  1.1621 -0.6205
 2255TIP3   OH2 6770   5.440   3.173   4.451 -0.0446  0.6286  0.0470
 2255TIP3    H1 6771   5.382   3.153   4.378  0.9658  0.4396 -0.7278
 2255TIP3    H2 6772   5.467   3.264   4.436  0.2934  0.5384  0.0948
 2256TIP3   OH2 6773   0.465   3.207   5.017  0.0922 -0.0002 -0.4023
 2256TIP3    H1 6774   0.392   3.176   4.962 -0.2052 -0.6711  0.3593
 2256TIP3    H2 6775   0.422   3.247   5.093  0.5170 -0.0706 -0.1257
 2257TIP3   OH2 6776   2.840   3.556   0.777 -0.2525  0.4433 -0.1624
 2257TIP3    H1 6777   2.811   3.473   0.739 -1.0379  1.3717 -1.6832
 2257TIP3    H2 6778   2.761   3.593   0.817 -0.0314  0.6848  0.0517
 2258TIP3   OH2 6779   2.451   5.067   3.291 -0.6246  0.2242  0.3781
 2258TIP3    H1 6780   2.532   5.093   3.334 -0.1629  0.1713 -0.4388
 2258TIP3    H2 6781   2.384   5.075   3.359  0.1588 -0.3530  1.2447
 2259TIP3   OH2 6782   3.072   3.694   0.613  0.2795  0.1347 -0.4980
 2259TIP3    H1 6783   3.153   3.745   0.619  0.3400 -0.0804  1.0310
 2259TIP3    H2 6784   3.002   3.759   0.617  0.3292  0.3694 -2.3660
 2260TIP3   OH2 6785   0.635   1.743   4.011 -0.3938 -0.7691 -0.2364
 2260TIP3    H1 6786   0.691   1.793   3.952 -0.0387  0.8705  1.3708
 2260TIP3    H2 6787   0.692   1.721   4.085 -1.6884  0.6804  1.2987
 2261TIP3   OH2 6788   2.916   5.362   1.088 -0.3175  0.3024  0.6122
 2261TIP3    H1 6789   2.951   5.406   1.165 -0.2522  1.6661 -0.1516
 2261TIP3    H2 6790   2.864   5.430   1.043 -1.3348 -0.7852  0.0745
 2262TIP3   OH2 6791   5.843   2.469   1.199 -0.3139 -0.5238  0.2204
 2262TIP3    H1 6792   5.857   2.496   1.290  1.6511  0.5704 -0.3382
 2262TIP3    H2 6793   5.774   2.403   1.203  1.2129 -2.1094  2.7828
 2263TIP3   OH2 6794   4.331   0.184   0.996 -0.0108  0.4141 -0.3433
 2263TIP3    H1 6795   4.285   0.233   1.064  1.0562  0.4743  0.3728
 2263TIP3    H2 6796   4.381   0.250   0.949  1.2940  0.0775  0.5120
 2264TIP3   OH2 6797   2.740   3.555   2.255  0.3137 -0.2045 -0.1255
 2264TIP3    H1 6798   2.821   3.598   2.280 -0.9069  1.6766  0.8436
 2264TIP3    H2 6799   2.768   3.478   2.206  2.6547  0.6257 -0.2345
 2265TIP3   OH2 6800   6.250   3.934   1.359  0.6278 -0.0363 -0.0195
 2265TIP3    H1 6801   6.267   3.935   1.453  0.3289  1.5854  0.0507
 2265TIP3    H2 6802   6.169   3.985   1.349 -0.4494 -1.8401 -0.9803
 2266TIP3   OH2 6803   3.418   3.164   1.353  0.0566 -0.0449 -0.0707
 2266TIP3    H1 6804   3.323   3.170   1.361  0.0467  0.3387 -0.4808
 2266TIP3    H2 6805   3.448   3.255   1.347  0.4102 -0.1814 -0.4201
 2267TIP3   OH2 6806   1.304   0.794   1.803 -0.4819  0.1887  0.0634
 2267TIP3    H1 6807   1.240   0.830   1.865 -0.5657 -0.5284  0.4059
 2267TIP3    H2 6808   1.378   0.767   1.858  0.2177  1.2101 -0.3518
 2268TIP3   OH2 6809   4.484   5.064   3.663 -0.0199  0.0248  0.0660
 2268TIP3    H1 6810   4.445   5.111   3.737 -0.0841  0.6317 -0.3510
 2268TIP3    H2 6811   4.544   5.001   3.704 -1.0902 -0.6184  0.6918
 2269TIP3   OH2 6812   2.106   1.026   2.596 -0.1273 -0.0757 -0.0880
 2269TIP3    H1 6813   2.024   1.073   2.582 -0.9309 -1.4231 -0.1003
 2269TIP3    H2 6814   2.139   1.008   2.508  0.0704  0.2828 -0.0867
 2270TIP3   OH2 6815   2.472   5.142   4.756  0.4256 -0.6171  0.1883
 2270TIP3    H1 6816   2.450   5.170   4.845  0.0439  0.2362 -0.1710
 2270TIP3    H2 6817   2.568   5.135   4.757  0.4970  0.2860  0.4073
 2271TIP3   OH2 6818   2.919   0.676   0.105 -0.8866  0.2807  0.1496
 2271TIP3    H1 6819   2.910   0.655   0.198  1.5661  0.8300  0.5855
 2271TIP3    H2 6820   2.869   0.756   0.092 -1.3112  0.1522  0.9912
 2272TIP3   OH2 6821   2.392   3.924   3.618  0.3529 -0.0216  0.2521
 2272TIP3    H1 6822   2.357   3.913   3.706  2.3160  0.9705  1.2246
 2272TIP3    H2 6823   2.415   3.835   3.590 -1.3162 -0.4853  0.2279
 2273TIP3   OH2 6824   1.202   4.719   5.052 -0.4339  0.0416 -0.4861
 2273TIP3    H1 6825   1.295   4.707   5.070 -0.5189 -0.8555 -0.6077
 2273TIP3    H2 6826   1.186   4.813   5.066  0.6969  0.3913 -1.4177
 2274TIP3   OH2 6827   5.583   3.382   0.660 -0.0610 -0.1124 -0.0799
 2274TIP3    H1 6828   5.617   3.432   0.735 -2.1822  1.8743 -0.3107
 2274TIP3    H2 6829   5.602   3.291   0.682 -0.6482  0.3614  2.9656
 2275TIP3   OH2 6830   2.957   5.105   0.394  0.4516 -0.0229 -0.4105
 2275TIP3    H1 6831   3.032   5.146   0.351 -1.7843  2.2148 -2.4368
 2275TIP3    H2 6832   2.913   5.056   0.325 -0.2646 -0.8713  0.6165
 2276TIP3   OH2 6833   1.451   4.063   4.032 -0.3757 -0.2935  0.5196
 2276TIP3    H1 6834   1.484   4.063   4.122  0.4967  0.3300  0.2063
 2276TIP3    H2 6835   1.494   3.989   3.990  1.2919  0.9622 -0.1018
 2277TIP3   OH2 6836   3.189   2.288   2.156  0.7505  0.7534  0.3750
 2277TIP3    H1 6837   3.165   2.247   2.073  2.3085  0.7476 -0.1041
 2277TIP3    H2 6838   3.194   2.381   2.137 -1.8188  1.1610  1.2314
 2278TIP3   OH2 6839   2.825   2.277   3.977 -0.2371  0.0773 -0.0292
 2278TIP3    H1 6840   2.814   2.192   3.936 -1.0998 -0.3996  1.1335
 2278TIP3    H2 6841   2.739   2.296   4.016  0.4542  0.6159  1.3073
 2279TIP3   OH2 6842   5.889   4.814   4.090  0.4602  0.7413 -0.0506
 2279TIP3    H1 6843   5.828   4.867   4.039  0.8140  0.6787 -0.5492
 2279TIP3    H2 6844   5.959   4.876   4.114  1.5302  0.2493 -1.7248
 2280TIP3   OH2 6845   3.230   5.314   0.678  0.0296  0.6235  0.4055
 2280TIP3    H1 6846   3.207   5.221   0.672  0.8774  0.4186  0.2373
 2280TIP3    H2 6847   3.284   5.320   0.756  0.8928  0.7701 -0.1857
 2281TIP3   OH2 6848   2.352   1.146   3.184  0.6021  0.1812 -0.1408
 2281TIP3    H1 6849   2.347   1.053   3.209  0.5359  0.3678  0.5657
 2281TIP3    H2 6850   2.263   1.167   3.155  0.7647 -0.1303 -0.8724
 2282TIP3   OH2 6851   4.481   2.958   2.899  0.3312 -0.0037 -0.2076
 2282TIP3    H1 6852   4.521   2.881   2.940 -1.9448 -0.8380  0.6512
 2282TIP3    H2 6853   4.486   2.941   2.805  1.8628 -0.0822 -0.1395
 2283TIP3   OH2 6854   5.238   4.648   1.241  0.2083 -0.3333  0.7301
 2283TIP3    H1 6855   5.212   4.725   1.190 -0.4283 -0.2293  1.2013
 2283TIP3    H2 6856   5.161   4.591   1.239  0.9087 -1.2996 -0.2251
 2284TIP3   OH2 6857   0.127   4.501   1.518 -0.2176 -0.4335 -0.1365
 2284TIP3    H1 6858   0.120   4.500   1.423 -1.3066  0.1805 -0.0794
 2284TIP3    H2 6859   0.182   4.577   1.537 -0.1349 -0.4607 -0.2644
 2285TIP3   OH2 6860   2.164   1.060   2.335  0.0267  0.0576 -0.1294
 2285TIP3    H1 6861   2.074   1.026   2.334  0.0617 -0.2032 -3.2056
 2285TIP3    H2 6862   2.217   0.988   2.301  0.6835  1.6637 -2.7711
 2286TIP3   OH2 6863   1.773   1.980   4.763  0.2165  0.0987  0.0748
 2286TIP3    H1 6864   1.851   1.925   4.760  0.8048  0.8743  0.4510
 2286TIP3    H2 6865   1.722   1.947   4.837  0.7574  0.2957  0.5412
 2287TIP3   OH2 6866   2.542   5.937   1.499  0.3302  0.2986  0.0159
 2287TIP3    H1 6867   2.609   5.951   1.566 -0.3115  0.5589  0.5999
 2287TIP3    H2 6868   2.575   5.985   1.423  0.6639  0.6798  0.3955
 2288TIP3   OH2 6869   4.881   4.480   2.409  0.0623  0.6481  0.3906
 2288TIP3    H1 6870   4.929   4.563   2.410  0.0769  0.7308 -1.8025
 2288TIP3    H2 6871   4.792   4.504   2.384 -0.4772  0.1952  1.7731
 2289TIP3   OH2 6872   2.804   2.253   4.414  0.0288  0.7391  0.3027
 2289TIP3    H1 6873   2.730   2.245   4.354  0.8075 -1.8562 -0.4060
 2289TIP3    H2 6874   2.784   2.192   4.485  1.3789  0.1904  0.2271
 2290TIP3   OH2 6875   2.023   0.591   0.531  0.2249  0.7100  0.1283
 2290TIP3    H1 6876   1.971   0.645   0.470  0.4359  1.0186  0.2192
 2290TIP3    H2 6877   1.993   0.617   0.618 -0.9977 -0.6564  0.1430
 2291TIP3   OH2 6878   1.133   5.121   3.087 -0.0166 -0.3895  0.3648
 2291TIP3    H1 6879   1.046   5.158   3.078  0.7777  2.6553  3.2172
 2291TIP3    H2 6880   1.191   5.183   3.044  1.0822  0.2448  2.5979
 2292TIP3   OH2 6881   4.305   1.112   3.160 -0.4933 -0.1223 -0.0398
 2292TIP3    H1 6882   4.274   1.180   3.220 -1.3710 -1.1267  0.6972
 2292TIP3    H2 6883   4.229   1.091   3.106 -0.4384 -0.9714  0.1977
 2293TIP3   OH2 6884   2.992   0.847   0.771 -0.3341 -0.1537  0.3746
 2293TIP3    H1 6885   2.970   0.797   0.850  0.0945 -1.1650 -0.1336
 2293TIP3    H2 6886   3.088   0.840   0.764 -0.4653 -1.0458 -0.8496
 2294TIP3   OH2 6887   4.516   1.353   2.963 -0.1704 -0.2334  0.5311
 2294TIP3    H1 6888   4.499   1.367   3.056  2.3625 -1.8010  1.3304
 2294TIP3    H2 6889   4.555   1.435   2.933  1.3160 -0.5488  1.5219
 2295TIP3   OH2 6890   4.628   2.594   3.896  0.1505 -0.0435 -0.0480
 2295TIP3    H1 6891   4.552   2.611   3.951  0.3005  0.4483  0.0052
 2295TIP3    H2 6892   4.639   2.673   3.844  0.6937 -0.0677  0.0231
 2296TIP3   OH2 6893   4.238   5.432   1.786 -0.3317  0.5352 -0.0949
 2296TIP3    H1 6894   4.300   5.449   1.715 -0.9116  0.9876 -0.5072
 2296TIP3    H2 6895   4.222   5.338   1.781 -0.7955  0.6472 -0.9358
 2297TIP3   OH2 6896   5.205   4.277   2.444 -0.7464  0.6885 -0.3419
 2297TIP3    H1 6897   5.297   4.304   2.450 -0.5822  0.0858 -0.0897
 2297TIP3    H2 6898   5.166   4.309   2.525 -0.6128  0.3942 -0.1613
 2298TIP3   OH2 6899   3.874   2.046   1.447 -0.5323  0.3182  0.5313
 2298TIP3    H1 6900   3.816   1.972   1.430 -0.3693  0.1536  0.6835
 2298TIP3    H2 6901   3.862   2.104   1.372 -0.1000 -0.2139  0.0466
 2299TIP3   OH2 6902   5.609   0.993   0.028 -0.2404  0.4269 -0.3430
 2299TIP3    H1 6903   5.583   1.081   0.057 -0.7146 -0.0890  0.8861
 2299TIP3    H2 6904   5.629   0.946   0.109 -1.2281 -0.9756 -0.8722
 2300TIP3   OH2 6905   1.685   1.693   3.140  0.0659 -0.3434 -0.0102
 2300TIP3    H1 6906   1.594   1.663   3.143 -0.2188 -0.1078 -3.2589
 2300TIP3    H2 6907   1.682   1.778   3.097  1.8820 -0.6074 -0.7530
 2301TIP3   OH2 6908   0.342   5.707   4.850  0.2381 -0.2019  0.6969
 2301TIP3    H1 6909   0.318   5.673   4.937  0.7031  0.5523  1.1344
 2301TIP3    H2 6910   0.306   5.795   4.848  1.1458  0.1823  0.5545
 2302TIP3   OH2 6911   1.096   0.400   1.689 -0.5464  0.1458  0.8722
 2302TIP3    H1 6912   1.164   0.335   1.675 -0.9156  0.1771 -1.3838
 2302TIP3    H2 6913   1.098   0.417   1.783  1.3235 -1.1658  1.1156
 2303TIP3   OH2 6914   4.813   3.541   1.129  0.1789 -0.7130 -0.1246
 2303TIP3    H1 6915   4.904   3.572   1.132  0.1085 -0.5500  0.4138
 2303TIP3    H2 6916   4.807   3.493   1.047  0.2235  0.9209 -1.1302
 2304TIP3   OH2 6917   0.853   0.248   1.627 -0.4139 -0.3851 -0.6541
 2304TIP3    H1 6918   0.801   0.170   1.607 -1.0818 -0.3865  1.0148
 2304TIP3    H2 6919   0.941   0.225   1.598 -0.7335 -1.5041 -0.7920
 2305TIP3   OH2 6920   4.984   3.282   3.495 -0.2302  0.5715 -0.1969
 2305TIP3    H1 6921   5.058   3.311   3.442 -0.4910  1.7054  0.0248
 2305TIP3    H2 6922   4.918   3.351   3.484 -1.9085 -1.1459 -1.6283
 2306TIP3   OH2 6923   4.097   5.694   1.506 -0.0538  0.1444  0.4435
 2306TIP3    H1 6924   4.164   5.747   1.550  0.3128 -0.2007  0.3086
 2306TIP3    H2 6925   4.134   5.676   1.419  0.0938 -0.8180  0.6876
 2307TIP3   OH2 6926   0.422   1.215   1.774  0.0411 -0.2643  0.0957
 2307TIP3    H1 6927   0.497   1.270   1.751 -1.5362  2.3045  0.7905
 2307TIP3    H2 6928   0.345   1.268   1.752 -1.6093 -2.4596  0.2222
 2308TIP3   OH2 6929   4.785   2.488   3.530  0.2318 -0.0710  0.1710
 2308TIP3    H1 6930   4.714   2.424   3.523 -0.0563  0.2169  0.4566
 2308TIP3    H2 6931   4.742   2.571   3.551  0.6681  0.0485  0.6401
 2309TIP3   OH2 6932   5.124   3.048   2.904 -0.3345 -0.1428 -0.4406
 2309TIP3    H1 6933   5.201   3.022   2.954 -1.4395 -2.6340  0.0574
 2309TIP3    H2 6934   5.072   3.101   2.964 -0.4268 -0.9699  0.2144
 2310TIP3   OH2 6935   4.190   1.112   2.849 -0.0203  0.2472  0.5088
 2310TIP3    H1 6936   4.134   1.173   2.896  1.2703  0.8250  1.3520
 2310TIP3    H2 6937   4.167   1.125   2.756 -0.9417  0.7867  0.7978
 2311TIP3   OH2 6938   0.602   2.006   0.686 -0.0677 -0.4002  0.3593
 2311TIP3    H1 6939   0.650   2.027   0.607 -0.3054 -1.3854 -0.0659
 2311TIP3    H2 6940   0.513   2.037   0.669  0.2810  1.0355  0.9788
 2312TIP3   OH2 6941   0.343   0.992   0.981 -0.6648 -0.6241 -0.3832
 2312TIP3    H1 6942   0.330   1.042   1.061  0.5355 -0.7462 -0.0935
 2312TIP3    H2 6943   0.344   1.058   0.911 -2.6705 -0.6017 -0.4521
 2313TIP3   OH2 6944   0.158   1.803   2.237  0.1168  0.2938 -0.5672
 2313TIP3    H1 6945   0.092   1.802   2.168 -0.4635  0.9340 -0.0421
 2313TIP3    H2 6946   0.220   1.871   2.209 -1.6251  2.6332  0.8401
 2314TIP3   OH2 6947   1.678   0.435   2.073 -0.0007  0.7480  0.1614
 2314TIP3    H1 6948   1.611   0.434   2.005 -1.3656 -0.8092  1.4431
 2314TIP3    H2 6949   1.754   0.394   2.031 -0.6023  0.4018 -0.6371
 2315TIP3   OH2 6950   5.044   0.039   4.581  0.6634 -0.0617 -0.2318
 2315TIP3    H1 6951   5.054   0.028   4.487 -0.7365  0.6399 -0.4954
 2315TIP3    H2 6952   5.057   0.133   4.596  1.2502 -0.2238  0.3350
 2316TIP3   OH2 6953   1.907   5.914   4.678  0.2665  0.2752 -0.0009
 2316TIP3    H1 6954   1.812   5.924   4.683  0.2741 -0.3040  1.6205
 2316TIP3    H2 6955   1.922   5.868   4.595 -0.6846  2.1271 -1.2912
 2317TIP3   OH2 6956   3.622   5.016   2.996  0.0357 -0.1173  0.1010
 2317TIP3    H1 6957   3.610   5.111   2.992 -0.2799 -0.1952 -0.9050
 2317TIP3    H2 6958   3.555   4.987   3.059  0.0805  0.3079  0.3530
 2318TIP3   OH2 6959   0.129   2.306   4.961  0.0971  0.2748 -0.0546
 2318TIP3    H1 6960   0.221   2.286   4.976 -0.1834 -1.4090 -0.4648
 2318TIP3    H2 6961   0.084   2.274   5.039 -0.3415 -0.5123 -0.6250
 2319TIP3   OH2 6962   2.781   3.854   5.109 -0.2547  0.0665  0.0952
 2319TIP3    H1 6963   2.776   3.763   5.137  0.2552 -0.7218 -2.1354
 2319TIP3    H2 6964   2.875   3.872   5.103 -0.3519  0.6523  0.2351
 2320TIP3   OH2 6965   4.040   2.723   2.929  0.0675  0.3260 -0.0025
 2320TIP3    H1 6966   4.018   2.649   2.986 -0.1133  0.3159 -0.0824
 2320TIP3    H2 6967   4.124   2.755   2.961 -0.2661  0.6241  0.5740
 2321TIP3   OH2 6968   0.752   2.394   0.487  0.7201  0.0601  0.2518
 2321TIP3    H1 6969   0.734   2.487   0.498  1.9501  0.3539 -0.0170
 2321TIP3    H2 6970   0.686   2.363   0.425 -1.1071  0.2294  2.0102
 2322TIP3   OH2 6971   4.778   1.480   4.140 -0.8425 -0.2433 -0.0090
 2322TIP3    H1 6972   4.867   1.467   4.173 -0.7434 -0.5497 -0.3844
 2322TIP3    H2 6973   4.774   1.573   4.119 -1.3438  0.2460  2.1007
 2323TIP3   OH2 6974   2.384   0.873   0.140 -0.3539  0.2423 -0.0078
 2323TIP3    H1 6975   2.434   0.822   0.204  1.4742  0.0924 -1.4593
 2323TIP3    H2 6976   2.307   0.820   0.121  0.7426 -1.2991 -0.3472
 2324TIP3   OH2 6977   2.332   5.683   0.227  0.6700  0.0695 -0.1882
 2324TIP3    H1 6978   2.261   5.703   0.288  0.5252  1.3112 -0.7154
 2324TIP3    H2 6979   2.374   5.605   0.263 -2.0772 -1.8701 -0.8207
 2325TIP3   OH2 6980   5.043   1.683   3.218  0.0396  0.1680 -0.8311
 2325TIP3    H1 6981   5.068   1.736   3.142 -0.4947  0.4348 -0.8251
 2325TIP3    H2 6982   4.948   1.697   3.227  0.1956  0.6304  0.2565
 2326TIP3   OH2 6983   0.365   1.698   3.377  0.4212  0.6360 -0.2818
 2326TIP3    H1 6984   0.302   1.626   3.370  0.4235  0.4151  1.3616
 2326TIP3    H2 6985   0.317   1.775   3.351 -0.6852  0.5138  1.2291
 2327TIP3   OH2 6986   1.520  -0.038   0.230  0.6821 -0.0463  0.1437
 2327TIP3    H1 6987   1.593   0.023   0.238  0.5640 -0.0808  1.9307
 2327TIP3    H2 6988   1.444   0.017   0.211  0.8482  0.1836  0.1425
 2328TIP3   OH2 6989   4.240   3.716   2.981  0.0479  0.0056  0.0785
 2328TIP3    H1 6990   4.154   3.744   2.952 -0.3048 -1.3570 -0.2697
 2328TIP3    H2 6991   4.270   3.654   2.914  0.6384 -0.6799  0.9332
 2329TIP3   OH2 6992   3.108   3.108   2.060  0.2079 -0.1112  0.2258
 2329TIP3    H1 6993   3.015   3.087   2.049  0.1436  0.6185 -0.7235
 2329TIP3    H2 6994   3.115   3.134   2.152 -0.7079  0.6258  0.1141
 2330TIP3   OH2 6995   3.233   0.305   1.044 -0.0137  0.4211 -0.1364
 2330TIP3    H1 6996   3.161   0.248   1.072 -1.1558  1.1262 -1.4882
 2330TIP3    H2 6997   3.311   0.252   1.057 -0.8047 -0.5354  0.9813
 2331TIP3   OH2 6998   1.907   2.180   0.897 -0.0056 -0.1951  0.3437
 2331TIP3    H1 6999   1.824   2.217   0.926 -1.1455 -1.7080 -0.8466
 2331TIP3    H2 7000   1.945   2.247   0.840  0.4193  1.1694  2.1159
 2332TIP3   OH2 7001   5.241   0.141   1.154  0.3185  0.5897 -0.5522
 2332TIP3    H1 7002   5.271   0.051   1.158  1.1252  0.7499 -2.0734
 2332TIP3    H2 7003   5.315   0.193   1.188 -0.2897  0.6675  0.6864
 2333TIP3   OH2 7004   4.575   3.870   3.552 -1.2178 -0.5221 -0.0384
 2333TIP3    H1 7005   4.479   3.867   3.545 -1.4024  2.6249 -0.4652
 2333TIP3    H2 7006   4.606   3.876   3.461 -0.7232 -0.1604  0.1498
 2334TIP3   OH2 7007   1.161   0.643   1.255  0.5124 -0.1295 -0.3449
 2334TIP3    H1 7008   1.238   0.665   1.203  0.2679 -0.7848 -0.9908
 2334TIP3    H2 7009   1.169   0.699   1.333  2.5174 -1.3776  0.4254
 2335TIP3   OH2 7010   0.836   2.373   5.117 -0.3155  0.4822 -0.0639
 2335TIP3    H1 7011   0.853   2.287   5.156  1.4739  0.7955 -0.0711
 2335TIP3    H2 7012   0.800   2.425   5.188 -0.6979 -0.0582  0.1404
 2336TIP3   OH2 7013   4.972   1.992   0.269 -0.6251  0.0548 -0.1850
 2336TIP3    H1 7014   5.059   1.989   0.311 -0.7107  0.5462  0.0304
 2336TIP3    H2 7015   4.923   1.921   0.311 -0.2532 -0.3871 -0.4839
 2337TIP3   OH2 7016   5.066   1.230   1.700 -0.4506 -0.1015  0.3013
 2337TIP3    H1 7017   5.023   1.197   1.621  0.7108 -0.1824 -0.3138
 2337TIP3    H2 7018   5.155   1.249   1.672 -0.1714  0.3639  1.4782
 2338TIP3   OH2 7019   2.518   1.748   3.647 -0.5438 -0.4624 -0.2888
 2338TIP3    H1 7020   2.425   1.766   3.658 -0.8279 -1.5902 -0.7685
 2338TIP3    H2 7021   2.535   1.671   3.702  0.0452 -0.4299 -0.4127
 2339TIP3   OH2 7022   4.520   2.931   4.224  0.0855  0.8840  0.1114
 2339TIP3    H1 7023   4.562   3.000   4.173 -0.1506  0.8219 -0.1739
 2339TIP3    H2 7024   4.475   2.978   4.294 -1.0772  1.1477 -0.7742
 2340TIP3   OH2 7025   5.372   5.545   5.051  0.4692  0.0357 -0.2181
 2340TIP3    H1 7026   5.288   5.506   5.026  0.6267 -0.9789  0.7586
 2340TIP3    H2 7027   5.435   5.510   4.988  0.0830  1.3466 -1.3947
 2341TIP3   OH2 7028   2.251   5.717   2.048  0.1232 -0.3407  0.7627
 2341TIP3    H1 7029   2.249   5.771   1.969  0.3297  0.8161  1.5209
 2341TIP3    H2 7030   2.168   5.671   2.048  1.0485 -2.1706 -1.3242
 2342TIP3   OH2 7031   4.080   0.662   1.187  0.2933  0.2553  0.5881
 2342TIP3    H1 7032   4.143   0.628   1.250  0.3674  0.4724  0.6320
 2342TIP3    H2 7033   4.011   0.596   1.183  0.2296  0.2997  0.9850
 2343TIP3   OH2 7034   5.471   3.126   1.848  0.0760 -0.5350 -0.3140
 2343TIP3    H1 7035   5.537   3.082   1.901  0.8481 -0.5838 -1.3002
 2343TIP3    H2 7036   5.466   3.076   1.767 -0.7806 -0.2134 -0.4779
 2344TIP3   OH2 7037   0.851   3.775   1.393  0.5898 -0.2237 -0.0604
 2344TIP3    H1 7038   0.932   3.823   1.410  1.1089 -0.6213 -1.3007
 2344TIP3    H2 7039   0.873   3.713   1.324 -0.7552 -0.3860 -0.3874
 2345TIP3   OH2 7040   3.361   5.553   1.480  0.2809 -0.3704  0.0507
 2345TIP3    H1 7041   3.396   5.642   1.474  0.3281 -0.4765 -1.8179
 2345TIP3    H2 7042   3.268   5.562   1.461  0.2020 -0.6826  0.2729
 2346TIP3   OH2 7043   3.031   4.182   1.555 -0.0475  0.2813  0.3692
 2346TIP3    H1 7044   2.952   4.185   1.608 -1.3906 -0.7633 -1.4412
 2346TIP3    H2 7045   3.065   4.094   1.567  0.5882  0.5709  0.7555
 2347TIP3   OH2 7046   3.174   4.449   1.027 -0.4477  0.1059  0.5262
 2347TIP3    H1 7047   3.265   4.480   1.026 -0.5888  0.6225  1.6249
 2347TIP3    H2 7048   3.179   4.363   1.070 -0.3481 -0.3991 -0.4605
 2348TIP3   OH2 7049   2.803   1.586   3.648  0.3265 -0.0487 -0.1664
 2348TIP3    H1 7050   2.771   1.547   3.567  0.1891 -2.8522  1.1368
 2348TIP3    H2 7051   2.729   1.581   3.708  1.2574 -0.6194  0.9574
 2349TIP3   OH2 7052   0.386   0.210   4.664  0.0960 -0.1799  0.1012
 2349TIP3    H1 7053   0.419   0.293   4.630  1.2161  0.0981  1.7375
 2349TIP3    H2 7054   0.322   0.235   4.731 -0.1367 -0.6544  0.0635
 2350TIP3   OH2 7055   1.169   4.864   1.752  0.2201  0.6010 -0.2164
 2350TIP3    H1 7056   1.176   4.957   1.770  0.8968  0.7931 -1.3901
 2350TIP3    H2 7057   1.147   4.859   1.659  2.2958 -0.4213 -0.7125
 2351TIP3   OH2 7058   2.484   1.616   1.990  0.5548  0.4501  0.2461
 2351TIP3    H1 7059   2.397   1.596   1.955  0.9214 -0.8790  0.0452
 2351TIP3    H2 7060   2.481   1.587   2.081  1.2324 -1.0149 -0.1688
 2352TIP3   OH2 7061   0.233   2.350   3.375  0.4593  0.1391 -0.1858
 2352TIP3    H1 7062   0.190   2.266   3.362  1.1914 -0.3710  0.6248
 2352TIP3    H2 7063   0.162   2.409   3.402 -0.0835 -0.1621 -0.9210
 2353TIP3   OH2 7064   2.698   0.951   2.617 -0.1194  0.2014  0.3780
 2353TIP3    H1 7065   2.730   0.862   2.627 -2.5689 -0.7271  0.5601
 2353TIP3    H2 7066   2.683   0.961   2.523 -0.9403  0.0133  0.4886
 2354TIP3   OH2 7067   1.973   1.301   2.878 -0.0352  0.0894 -0.0711
 2354TIP3    H1 7068   1.932   1.371   2.928 -1.5879  1.2942 -2.7930
 2354TIP3    H2 7069   1.944   1.221   2.921 -1.9959  1.0349  0.4833
 2355TIP3   OH2 7070   1.532   2.927   4.797  0.3302 -0.2159  0.2443
 2355TIP3    H1 7071   1.469   2.958   4.862 -0.8513  0.0525 -0.9822
 2355TIP3    H2 7072   1.606   2.894   4.849 -0.0604  1.0508  1.6872
 2356TIP3   OH2 7073   0.773   2.488   1.251  0.0958  0.2367  0.2378
 2356TIP3    H1 7074   0.779   2.474   1.345 -0.8785  0.3658  0.3339
 2356TIP3    H2 7075   0.855   2.532   1.227 -0.1458  1.2878  1.2327
 2357TIP3   OH2 7076   2.821   0.565   4.149 -0.1652  0.0473  0.3545
 2357TIP3    H1 7077   2.842   0.497   4.084  0.5000 -0.1612  0.7751
 2357TIP3    H2 7078   2.738   0.537   4.187 -0.2527 -0.1526  0.0252
 2358TIP3   OH2 7079   5.217   5.604   2.240  0.3539 -0.2270  0.3129
 2358TIP3    H1 7080   5.257   5.593   2.154  0.3736  1.1129  0.1391
 2358TIP3    H2 7081   5.141   5.546   2.238  0.6956 -0.6645 -0.3817
 2359TIP3   OH2 7082   1.128   3.970   3.290 -0.3785 -0.4726  0.0206
 2359TIP3    H1 7083   1.135   3.875   3.304 -1.1083 -0.4801  0.3487
 2359TIP3    H2 7084   1.164   4.009   3.370 -0.7458 -0.4774  0.1868
 2360TIP3   OH2 7085   4.862   0.948   3.713  0.0530 -0.3617 -0.3921
 2360TIP3    H1 7086   4.802   0.999   3.767  0.8563  0.0028  0.1840
 2360TIP3    H2 7087   4.805   0.891   3.661 -0.7973 -2.9185  2.9339
 2361TIP3   OH2 7088   2.231   3.963   3.845  0.4463 -0.3641 -0.2933
 2361TIP3    H1 7089   2.200   3.884   3.890  1.7342  0.1949  1.7346
 2361TIP3    H2 7090   2.169   4.031   3.872 -0.5071 -0.5665 -1.8284
 2362TIP3   OH2 7091   1.158   5.268   0.227  0.4394 -0.3247  0.1920
 2362TIP3    H1 7092   1.106   5.316   0.292  0.0781 -1.2065  0.5748
 2362TIP3    H2 7093   1.210   5.207   0.280 -0.3695 -1.5429 -0.3593
 2363TIP3   OH2 7094   4.283   3.509   1.984 -0.0463  0.5843  0.0158
 2363TIP3    H1 7095   4.247   3.590   2.019  0.7654  1.3046 -0.7899
 2363TIP3    H2 7096   4.326   3.468   2.059 -2.0868 -0.0940  0.9113
 2364TIP3   OH2 7097   1.514   4.005   3.247 -0.5175 -0.5306  0.0345
 2364TIP3    H1 7098   1.434   4.051   3.221 -0.5844  0.3189  1.6403
 2364TIP3    H2 7099   1.489   3.913   3.246 -2.0892 -0.2022  2.1682
 2365TIP3   OH2 7100   3.332   4.673   3.218  0.2597  1.0821  0.0625
 2365TIP3    H1 7101   3.290   4.689   3.302  0.7995 -0.3666  0.6274
 2365TIP3    H2 7102   3.336   4.578   3.210 -0.1830  1.1801 -1.8153
 2366TIP3   OH2 7103   2.832   4.116   3.917 -1.2536  0.1252  0.3358
 2366TIP3    H1 7104   2.882   4.129   3.997 -1.0738  0.8472  0.1163
 2366TIP3    H2 7105   2.788   4.200   3.902 -1.0035  0.1188 -0.5093
 2367TIP3   OH2 7106   1.777   4.830   0.616  0.2602 -0.0711  0.3894
 2367TIP3    H1 7107   1.726   4.866   0.688 -1.1560 -1.6090  0.2027
 2367TIP3    H2 7108   1.846   4.779   0.659  0.6337  0.6408  0.6432
 2368TIP3   OH2 7109   1.502   1.167   4.799  0.4606 -0.2062 -0.2861
 2368TIP3    H1 7110   1.591   1.179   4.832  0.0000 -0.2181  1.0212
 2368TIP3    H2 7111   1.497   1.074   4.778  1.0794 -0.0052 -1.3947
 2369TIP3   OH2 7112   6.107   3.500   0.040 -0.4477 -0.1708 -0.1430
 2369TIP3    H1 7113   6.149   3.458  -0.035 -2.5731 -1.5274 -0.6457
 2369TIP3    H2 7114   6.159   3.471   0.115  1.1078  0.4111 -0.9307
 2370TIP3   OH2 7115   5.156   3.377   4.909  0.4466 -0.5754 -0.2212
 2370TIP3    H1 7116   5.142   3.383   4.814 -2.2767 -0.9913  0.0613
 2370TIP3    H2 7117   5.077   3.333   4.942  0.6852  0.7635  2.3911
 2371TIP3   OH2 7118   0.010   4.234   1.187  0.8646 -0.1505  0.8621
 2371TIP3    H1 7119   0.060   4.152   1.188  1.3628  0.0440 -1.2249
 2371TIP3    H2 7120   0.014   4.262   1.095  0.2988  1.9630  1.4299
 2372TIP3   OH2 7121   4.606   1.720   2.589 -0.3281  0.7477  0.0398
 2372TIP3    H1 7122   4.688   1.765   2.566  0.2473 -0.9500 -1.5101
 2372TIP3    H2 7123   4.544   1.750   2.523 -0.4409  0.6639  0.1079
 2373TIP3   OH2 7124   3.372   4.257   1.877  1.0865  0.2066  0.3295
 2373TIP3    H1 7125   3.462   4.232   1.857  1.2199  1.4230 -0.6857
 2373TIP3    H2 7126   3.329   4.174   1.901  2.4718 -0.3766  0.9056
 2374TIP3   OH2 7127   1.288   4.684   1.909  0.0454 -0.3452  0.0322
 2374TIP3    H1 7128   1.254   4.710   1.823  2.4697  0.2926 -0.8371
 2374TIP3    H2 7129   1.210   4.670   1.963 -1.5535 -0.2324 -2.1057
 2375TIP3   OH2 7130   3.240   0.271   2.905  0.5041  0.0276 -0.1858
 2375TIP3    H1 7131   3.289   0.307   2.980  0.7697  0.8424 -0.7316
 2375TIP3    H2 7132   3.148   0.287   2.927  0.3982 -2.0155  1.1010
 2376TIP3   OH2 7133   3.200   4.370   3.499 -0.0911 -0.1075 -0.7181
 2376TIP3    H1 7134   3.187   4.389   3.592 -1.0289 -1.6092 -0.4960
 2376TIP3    H2 7135   3.265   4.300   3.498  0.6189  0.5550 -1.2576
 2377TIP3   OH2 7136   0.888   0.955   2.999  0.1009  0.4091 -0.4962
 2377TIP3    H1 7137   0.823   0.997   2.943 -2.3779 -1.7607  0.5115
 2377TIP3    H2 7138   0.939   0.900   2.939  0.1327  1.0976 -1.1198
 2378TIP3   OH2 7139   0.019   0.259   4.128  0.3549  0.3017 -0.5691
 2378TIP3    H1 7140  -0.015   0.245   4.217  0.2075  1.9538 -0.3332
 2378TIP3    H2 7141   0.114   0.252   4.137  0.2759 -3.0664 -0.9943
 2379TIP3   OH2 7142   1.250   0.981   4.260  0.4644  0.4916 -0.0431
 2379TIP3    H1 7143   1.295   1.049   4.310 -0.8093  0.0967  1.7330
 2379TIP3    H2 7144   1.200   0.932   4.326 -1.7561  0.2881 -1.7770
 2380TIP3   OH2 7145   1.521   1.172   1.023  0.2415 -0.0355  0.4283
 2380TIP3    H1 7146   1.436   1.158   0.982  0.9012 -0.8672 -0.7219
 2380TIP3    H2 7147   1.512   1.255   1.069 -0.5925  0.9301 -1.3612
 2381TIP3   OH2 7148   5.068   1.761   2.947 -0.6700  0.1146 -0.1761
 2381TIP3    H1 7149   5.141   1.713   2.910 -0.9317 -0.1383 -0.3738
 2381TIP3    H2 7150   4.992   1.730   2.898 -1.2670 -1.3636  1.5344
 2382TIP3   OH2 7151   2.148   5.376   2.804 -0.2978 -0.0437  0.2402
 2382TIP3    H1 7152   2.145   5.319   2.880 -1.8075 -0.2344  0.0695
 2382TIP3    H2 7153   2.094   5.451   2.828 -0.6083 -0.0011 -0.5504
 2383TIP3   OH2 7154   1.292   4.654   2.764  0.0137  0.1281 -0.2270
 2383TIP3    H1 7155   1.230   4.628   2.833 -0.6533  1.3242 -0.3493
 2383TIP3    H2 7156   1.236   4.670   2.688  0.7723 -1.5082 -1.1795
 2384TIP3   OH2 7157   4.978   1.228   0.145 -0.0195 -0.7459 -0.2037
 2384TIP3    H1 7158   4.933   1.144   0.137  0.2736 -1.0170  0.7892
 2384TIP3    H2 7159   4.945   1.265   0.227  2.1637 -1.3698  1.0585
 2385TIP3   OH2 7160   2.761   3.614   0.166  0.0697  0.4440  0.7406
 2385TIP3    H1 7161   2.787   3.559   0.239 -0.1342  0.6529  0.9748
 2385TIP3    H2 7162   2.842   3.657   0.138 -0.0913  1.4689  1.7841
 2386TIP3   OH2 7163   1.400   3.832   1.865  0.3580  0.5228 -0.5434
 2386TIP3    H1 7164   1.427   3.878   1.945  0.4205  1.4020 -1.0524
 2386TIP3    H2 7165   1.314   3.870   1.844 -0.7449 -1.3437  0.3571
 2387TIP3   OH2 7166   2.062   4.940   1.859  0.4911 -0.1287  0.1298
 2387TIP3    H1 7167   1.971   4.967   1.853  0.1254 -1.0816  1.0725
 2387TIP3    H2 7168   2.105   4.983   1.785 -0.8411 -0.1888 -0.7107
 2388TIP3   OH2 7169   0.555   0.553   0.429  0.4592 -0.2513  0.6712
 2388TIP3    H1 7170   0.555   0.620   0.497 -0.2672 -0.0921  0.5262
 2388TIP3    H2 7171   0.636   0.505   0.442  1.3336  1.0754  0.3780
 2389TIP3   OH2 7172   0.220   3.538   2.843  0.1204  0.2621  0.1112
 2389TIP3    H1 7173   0.177   3.558   2.761 -2.0146  0.0963  1.1095
 2389TIP3    H2 7174   0.227   3.442   2.844 -1.4532  0.1214  0.8137
 2390TIP3   OH2 7175   1.573   2.346   0.997 -0.3872  0.1771  0.2621
 2390TIP3    H1 7176   1.512   2.387   0.935 -0.3059 -0.4835 -0.2632
 2390TIP3    H2 7177   1.517   2.319   1.070 -0.2643  2.3969  1.2644
 2391TIP3   OH2 7178   1.867   2.470   3.003 -0.4680  0.4996 -0.7762
 2391TIP3    H1 7179   1.798   2.536   2.998 -0.6650  0.3101 -0.5525
 2391TIP3    H2 7180   1.886   2.448   2.912 -0.0270  1.2505 -0.8782
 2392TIP3   OH2 7181   4.179   1.763   2.085  0.3674 -0.1086 -0.1859
 2392TIP3    H1 7182   4.198   1.737   2.175  0.5618  0.9403  0.0879
 2392TIP3    H2 7183   4.147   1.683   2.043  1.8104 -1.0177  0.3631
 2393TIP3   OH2 7184   4.792   1.750   4.096 -0.3044  0.1762  0.0677
 2393TIP3    H1 7185   4.849   1.737   4.020 -0.9397  1.0089 -0.5662
 2393TIP3    H2 7186   4.850   1.781   4.165  0.0169  1.0079 -0.5707
 2394TIP3   OH2 7187   0.576   4.015   1.953 -0.3702 -0.2465  0.3338
 2394TIP3    H1 7188   0.506   4.027   1.888 -0.0884 -2.7392 -0.5077
 2394TIP3    H2 7189   0.657   4.026   1.904 -0.1315  0.7192  0.9119
 2395TIP3   OH2 7190   6.155   2.411   1.284 -0.0793  0.2350  0.3707
 2395TIP3    H1 7191   6.098   2.470   1.234 -0.5668 -1.3785 -1.1052
 2395TIP3    H2 7192   6.237   2.459   1.294 -0.7239  1.4714 -0.0405
 2396TIP3   OH2 7193   3.041   1.007   3.274  0.0877 -0.1537  0.5611
 2396TIP3    H1 7194   3.121   0.956   3.280 -0.4904 -1.0942  0.4018
 2396TIP3    H2 7195   2.998   0.993   3.359 -0.2109 -0.1608  0.4081
 2397TIP3   OH2 7196   3.280   2.055   3.875  0.0827 -0.1208  0.4145
 2397TIP3    H1 7197   3.306   2.146   3.891  1.2777 -0.5305  0.9599
 2397TIP3    H2 7198   3.200   2.061   3.824  1.2495  1.2390 -1.3435
 2398TIP3   OH2 7199   0.363   4.412   3.170  0.8385  0.0931 -0.0687
 2398TIP3    H1 7200   0.362   4.491   3.225  2.1494 -1.7828  2.9453
 2398TIP3    H2 7201   0.275   4.376   3.178  0.4768  0.7680 -0.7957
 2399TIP3   OH2 7202   3.344   4.186   0.245 -0.2571  0.6417  0.4276
 2399TIP3    H1 7203   3.380   4.246   0.310 -0.8403  1.0175  0.4193
 2399TIP3    H2 7204   3.250   4.204   0.247 -0.2089  1.1704 -1.0161
 2400TIP3   OH2 7205   5.687   4.130   0.019  0.5439 -0.0670  0.4111
 2400TIP3    H1 7206   5.766   4.093   0.060  0.2581  0.1938  1.2093
 2400TIP3    H2 7207   5.705   4.124  -0.075  1.7079  0.3875  0.5823
 2401TIP3   OH2 7208   1.319   0.122   0.095 -0.0396  0.5301  0.4808
 2401TIP3    H1 7209   1.367   0.155   0.019 -0.2993  0.2089  0.1808
 2401TIP3    H2 7210   1.240   0.175   0.098 -0.9057 -0.6650 -0.5464
 2402TIP3   OH2 7211   3.254   2.514   0.761 -0.1513 -0.5449  0.0288
 2402TIP3    H1 7212   3.191   2.448   0.791  1.3484 -1.5617  1.0984
 2402TIP3    H2 7213   3.310   2.467   0.699 -0.8300  0.5322 -1.4474
 2403TIP3   OH2 7214   4.979   5.584   3.434  0.1320 -0.3607 -0.0037
 2403TIP3    H1 7215   4.885   5.576   3.449  0.4226 -0.3918  2.0947
 2403TIP3    H2 7216   5.013   5.495   3.445  0.4967 -0.2392 -0.1154
 2404TIP3   OH2 7217   3.469   5.638   3.859  0.2280  0.0103 -0.3213
 2404TIP3    H1 7218   3.505   5.550   3.847  3.3006  1.2306 -1.0193
 2404TIP3    H2 7219   3.504   5.688   3.785  0.1350  2.2548  1.0543
 2405TIP3   OH2 7220   2.657   2.740   4.705  0.7413  0.2605  0.0690
 2405TIP3    H1 7221   2.646   2.654   4.664 -1.0032  0.0656  0.8329
 2405TIP3    H2 7222   2.623   2.802   4.641 -0.1927  0.1362  0.4270
 2406TIP3   OH2 7223   4.722   4.196   0.827  0.5796  0.0605  0.3298
 2406TIP3    H1 7224   4.716   4.140   0.904 -2.2824  0.7250  0.6972
 2406TIP3    H2 7225   4.711   4.136   0.753  1.0981 -0.2778  0.5170
 2407TIP3   OH2 7226   4.783   2.458   4.482 -0.1823  0.1180  0.4312
 2407TIP3    H1 7227   4.756   2.392   4.545 -0.0248  0.2655  0.6561
 2407TIP3    H2 7228   4.727   2.533   4.500 -0.7383 -0.1404 -0.1882
 2408TIP3   OH2 7229   1.809   5.669   1.830  0.2949 -0.0538  0.2198
 2408TIP3    H1 7230   1.750   5.603   1.795  1.1208  0.0371 -1.4454
 2408TIP3    H2 7231   1.856   5.625   1.901  1.4313 -1.5708 -1.3976
 2409TIP3   OH2 7232   4.135   1.938   0.995 -0.0516 -0.4638  0.1194
 2409TIP3    H1 7233   4.190   1.863   1.015 -0.3062 -0.5778  0.4065
 2409TIP3    H2 7234   4.048   1.901   0.978 -0.3679 -0.1858  1.0209
 2410TIP3   OH2 7235   2.761   5.618   3.966 -0.2386 -0.3214 -0.7546
 2410TIP3    H1 7236   2.817   5.592   4.039 -0.1397  0.4535 -0.5473
 2410TIP3    H2 7237   2.695   5.549   3.960  0.0002 -0.6030 -0.2034
 2411TIP3   OH2 7238   3.395   0.379   3.106 -0.0824  0.4261  0.7646
 2411TIP3    H1 7239   3.353   0.391   3.191  0.6254 -1.4002  1.4438
 2411TIP3    H2 7240   3.485   0.409   3.119  0.4792 -1.3078  1.1977
 2412TIP3   OH2 7241   0.193   3.345   0.981  0.2164  0.2204  0.7434
 2412TIP3    H1 7242   0.152   3.396   0.912 -0.5173 -1.6513 -0.2817
 2412TIP3    H2 7243   0.287   3.348   0.961  0.2918  1.8167  1.2118
 2413TIP3   OH2 7244   5.600   2.701   2.956  0.5748 -0.9790 -0.1671
 2413TIP3    H1 7245   5.654   2.689   2.878  0.3235  2.5712 -1.0302
 2413TIP3    H2 7246   5.510   2.699   2.924  0.4302  4.1830 -0.9659
 2414TIP3   OH2 7247   1.099   3.785   2.436  0.0925 -0.2672 -0.4052
 2414TIP3    H1 7248   1.117   3.870   2.395  0.8578  0.1883  0.8375
 2414TIP3    H2 7249   1.178   3.765   2.486 -0.2647 -1.5003 -0.2976
 2415TIP3   OH2 7250   3.749   0.166   0.053 -0.0209  0.4361  0.3775
 2415TIP3    H1 7251   3.663   0.148   0.015  0.0101 -0.2819  0.6432
 2415TIP3    H2 7252   3.765   0.094   0.113  0.4441  0.9570  0.8951
 2416TIP3   OH2 7253   1.521   5.524   4.177  0.1660  0.0723  0.5661
 2416TIP3    H1 7254   1.428   5.547   4.182 -0.0127 -0.3135 -0.7933
 2416TIP3    H2 7255   1.524   5.441   4.131  1.1130 -0.6593  1.8596
 2417TIP3   OH2 7256   0.992   1.964   2.028 -0.3181  0.3186  0.2588
 2417TIP3    H1 7257   1.047   1.903   2.077 -0.5076  0.5110  0.7108
 2417TIP3    H2 7258   0.930   1.998   2.092 -1.6077 -0.6196 -0.4295
 2418TIP3   OH2 7259   1.245   4.335   3.533 -0.1319  0.2084  0.1033
 2418TIP3    H1 7260   1.237   4.240   3.531 -1.7728  0.3105 -0.1512
 2418TIP3    H2 7261   1.155   4.366   3.523  0.1756  1.7676  1.6127
 2419TIP3   OH2 7262   2.080   0.885   3.998  0.2149 -0.4854  0.2578
 2419TIP3    H1 7263   2.111   0.807   4.043  1.5089 -0.5020 -0.5801
 2419TIP3    H2 7264   1.987   0.871   3.985  0.5454 -2.2169 -0.4793
 2420TIP3   OH2 7265   0.174   3.861   5.179  0.1150 -0.3054 -0.3302
 2420TIP3    H1 7266   0.192   3.938   5.126  1.7092  1.8335  3.0182
 2420TIP3    H2 7267   0.093   3.882   5.225  1.0654 -0.1238  1.3283
 2421TIP3   OH2 7268   5.779   0.208   0.576  0.0371  0.3606 -0.0232
 2421TIP3    H1 7269   5.874   0.205   0.561  0.3237  1.9174  1.2105
 2421TIP3    H2 7270   5.760   0.125   0.621  0.4824 -0.7399 -1.7567
 2422TIP3   OH2 7271   3.357   4.303   2.972 -0.2151 -0.0893 -0.3203
 2422TIP3    H1 7272   3.265   4.308   2.948 -0.1783 -1.2645 -0.7812
 2422TIP3    H2 7273   3.360   4.330   3.064 -1.1207 -0.7200 -0.0912
 2423TIP3   OH2 7274   2.866   1.594   2.193 -0.2441 -0.3069 -0.7510
 2423TIP3    H1 7275   2.784   1.620   2.151 -1.1673 -0.6726  0.7221
 2423TIP3    H2 7276   2.842   1.517   2.246  0.5760  0.6804  1.1758
 2424TIP3   OH2 7277   0.974   5.682   4.692 -0.1285 -0.1127  0.0084
 2424TIP3    H1 7278   1.054   5.680   4.639 -0.2956 -0.3107 -0.2408
 2424TIP3    H2 7279   1.002   5.652   4.778  0.2168  0.5602  0.1321
 2425TIP3   OH2 7280   2.369   5.049   4.272 -0.0935 -0.2913 -0.6300
 2425TIP3    H1 7281   2.382   5.024   4.364 -0.4293  0.8494 -0.2458
 2425TIP3    H2 7282   2.425   4.990   4.222  0.0600 -0.9571  0.3138
 2426TIP3   OH2 7283   1.912   4.972   0.405 -0.5348  0.0013  0.2994
 2426TIP3    H1 7284   1.867   4.942   0.485  0.7185  1.3023  1.5615
 2426TIP3    H2 7285   1.884   5.063   0.396  0.6915  0.3810  0.2557
 2427TIP3   OH2 7286   0.120   1.140   0.624 -0.1634 -0.5033  0.8386
 2427TIP3    H1 7287   0.084   1.051   0.615  1.5667 -1.1825  0.1243
 2427TIP3    H2 7288   0.147   1.146   0.716 -0.8786 -0.4610  1.0520
 2428TIP3   OH2 7289   1.453   3.152   4.341 -0.3035  0.3715  0.3135
 2428TIP3    H1 7290   1.527   3.213   4.343 -0.8944  1.1099  0.0638
 2428TIP3    H2 7291   1.399   3.177   4.416 -1.4929  1.3719 -0.8393
 2429TIP3   OH2 7292   4.637   5.906   3.070  0.3805 -0.1087  0.4625
 2429TIP3    H1 7293   4.622   5.930   2.979 -0.6022  1.7812  1.0566
 2429TIP3    H2 7294   4.666   5.815   3.067 -2.7336 -1.2052 -1.5453
 2430TIP3   OH2 7295   6.193   0.598   2.458  0.5630 -0.2569 -0.4780
 2430TIP3    H1 7296   6.120   0.566   2.405 -0.4342 -0.7119  1.1160
 2430TIP3    H2 7297   6.265   0.539   2.436 -0.0123 -0.8341 -0.8628
 2431TIP3   OH2 7298   1.239   1.686   4.300 -0.0275 -0.1322  0.1499
 2431TIP3    H1 7299   1.230   1.607   4.353  0.2732 -1.6137 -1.8862
 2431TIP3    H2 7300   1.251   1.654   4.211 -0.4601  2.2437 -0.8423
 2432TIP3   OH2 7301   2.813   0.934   4.732 -0.0900  0.3852  0.1851
 2432TIP3    H1 7302   2.827   1.026   4.751 -2.5096  0.8499 -0.0006
 2432TIP3    H2 7303   2.879   0.888   4.785  1.9116  2.2050 -0.5986
 2433TIP3   OH2 7304   0.159   2.681   0.102 -0.4657  0.0919 -0.1071
 2433TIP3    H1 7305   0.169   2.586   0.111  1.3562  0.2743  0.1832
 2433TIP3    H2 7306   0.117   2.708   0.184 -0.7526 -0.4399 -0.0782
 2434TIP3   OH2 7307   1.044   2.545   0.300  0.1299 -0.3093 -0.6379
 2434TIP3    H1 7308   0.995   2.584   0.228  1.0821 -1.7092 -2.1023
 2434TIP3    H2 7309   1.109   2.611   0.324 -1.6962  1.1473  0.6436
 2435TIP3   OH2 7310   1.944   4.106   2.360  0.2255 -0.1396  0.0694
 2435TIP3    H1 7311   1.854   4.076   2.350  0.1552  0.0126  0.2395
 2435TIP3    H2 7312   1.944   4.158   2.440  0.3147  0.4268 -0.2847
 2436TIP3   OH2 7313   6.124   2.677   1.229 -0.0230  1.0346 -0.1552
 2436TIP3    H1 7314   6.135   2.766   1.263  2.0081  0.8584 -0.2438
 2436TIP3    H2 7315   6.212   2.650   1.204 -0.8045 -0.5078 -1.4101
 2437TIP3   OH2 7316   2.405   4.884   4.984  0.1863  0.6351 -0.1879
 2437TIP3    H1 7317   2.329   4.909   5.036 -0.3418 -0.6086 -0.3140
 2437TIP3    H2 7318   2.424   4.961   4.931 -2.7247  0.1343 -2.1964
 2438TIP3   OH2 7319   1.881   4.968   0.110 -0.0606 -0.3156 -0.5327
 2438TIP3    H1 7320   1.786   4.964   0.100  0.0681 -2.9222 -1.2433
 2438TIP3    H2 7321   1.896   4.965   0.204 -0.6659 -1.3463 -0.4603
 2439TIP3   OH2 7322   3.883   5.546   0.096 -0.4005 -0.4378  0.8641
 2439TIP3    H1 7323   3.965   5.586   0.127 -0.1324 -1.1719  1.1099
 2439TIP3    H2 7324   3.819   5.569   0.163 -0.5531  0.6656  0.3671
 2440TIP3   OH2 7325   2.114   4.280   0.804 -0.3671  0.0171 -0.2070
 2440TIP3    H1 7326   2.204   4.248   0.818 -0.8208 -1.2714 -0.0905
 2440TIP3    H2 7327   2.125   4.371   0.776  0.9916 -0.2287 -0.5517
 2441TIP3   OH2 7328   0.756   1.662   3.224 -0.0003  0.2868  0.1509
 2441TIP3    H1 7329   0.713   1.577   3.230 -1.8267  1.0999 -0.7268
 2441TIP3    H2 7330   0.736   1.706   3.306 -4.1666  2.0429 -1.5057
 2442TIP3   OH2 7331   2.544   4.946   2.984 -0.0093  0.0016  0.0584
 2442TIP3    H1 7332   2.481   5.005   3.024 -0.2974  0.3676 -0.9100
 2442TIP3    H2 7333   2.535   4.961   2.890  1.4062 -0.0470 -0.1109
 2443TIP3   OH2 7334   1.918   5.514   1.238  0.4243 -0.3071  0.1238
 2443TIP3    H1 7335   1.988   5.449   1.230 -1.3612 -2.5081  1.2264
 2443TIP3    H2 7336   1.840   5.470   1.205 -0.8837  1.2552  0.9726
 2444TIP3   OH2 7337   0.964   0.514   4.146 -0.0665 -0.0421  0.0911
 2444TIP3    H1 7338   1.017   0.434   4.137  1.1806  0.7432  0.2444
 2444TIP3    H2 7339   0.973   0.538   4.238 -0.3387  0.3471  0.0152
 2445TIP3   OH2 7340   0.894   3.180   2.248  0.3871 -0.0717  1.0904
 2445TIP3    H1 7341   0.803   3.207   2.234  0.8538  1.8511  1.5234
 2445TIP3    H2 7342   0.892   3.085   2.239 -1.3085  0.0780 -0.8787
 2446TIP3   OH2 7343   3.059   0.237   2.561  0.3956  0.5581 -0.1234
 2446TIP3    H1 7344   3.122   0.178   2.602  0.2854  1.1225  0.8888
 2446TIP3    H2 7345   3.047   0.308   2.624 -1.1622  0.5278 -0.3460
 2447TIP3   OH2 7346   3.760   1.065   0.828  0.3016  0.2519 -0.0016
 2447TIP3    H1 7347   3.689   1.116   0.866 -0.9204 -2.3920  1.6039
 2447TIP3    H2 7348   3.734   1.049   0.738 -2.0551 -1.9585  0.9620
 2448TIP3   OH2 7349   2.797   5.942   1.586 -0.1162 -0.5666 -0.4177
 2448TIP3    H1 7350   2.825   5.899   1.505  0.0924 -1.9926  0.3990
 2448TIP3    H2 7351   2.876   5.986   1.618 -0.2296  0.1181 -1.0274
 2449TIP3   OH2 7352   0.101   5.843   1.614  0.7422 -0.2168  0.5834
 2449TIP3    H1 7353   0.071   5.786   1.543  0.1785  0.0167  0.6266
 2449TIP3    H2 7354   0.152   5.786   1.671  0.6219 -0.5615  0.3497
 2450TIP3   OH2 7355   0.566   0.287   3.074 -0.6882  0.0754  0.1949
 2450TIP3    H1 7356   0.492   0.248   3.029  0.3939 -1.3501 -0.4232
 2450TIP3    H2 7357   0.531   0.368   3.112 -2.4453 -0.3718 -0.3766
 2451TIP3   OH2 7358   1.885   2.929   0.812  0.4821 -0.1615 -0.6840
 2451TIP3    H1 7359   1.949   2.965   0.750  0.7499  0.8493  0.1622
 2451TIP3    H2 7360   1.934   2.918   0.893 -0.5847  1.3945  0.2165
 2452TIP3   OH2 7361   3.135   1.976   2.998  0.3374 -0.0574  0.5379
 2452TIP3    H1 7362   3.125   2.005   2.907 -0.1316  0.2341  0.6833
 2452TIP3    H2 7363   3.220   2.012   3.025  0.2012  0.3607  0.4108
 2453TIP3   OH2 7364   5.635   3.519   3.300  0.1954 -0.3642 -0.0729
 2453TIP3    H1 7365   5.665   3.552   3.385 -0.9202  0.1609  0.1414
 2453TIP3    H2 7366   5.708   3.534   3.241  1.2635 -1.3820  0.9349
 2454TIP3   OH2 7367   4.601   5.099   2.732  0.0993  0.0615  0.3645
 2454TIP3    H1 7368   4.532   5.163   2.750  0.0844 -0.2277  1.4013
 2454TIP3    H2 7369   4.631   5.071   2.819  0.8074 -0.5818 -0.0758
 2455TIP3   OH2 7370   5.828   2.196   3.261 -0.4659  0.4186 -0.0226
 2455TIP3    H1 7371   5.863   2.159   3.180 -1.4750 -0.3259 -0.1354
 2455TIP3    H2 7372   5.733   2.192   3.250 -0.6305 -0.1894  1.3988
 2456TIP3   OH2 7373   4.465   3.862   1.986  0.0225 -0.0300 -0.0881
 2456TIP3    H1 7374   4.495   3.953   1.989  1.2245 -0.4067 -0.3876
 2456TIP3    H2 7375   4.370   3.869   1.979  0.1801  1.2191 -1.4792
 2457TIP3   OH2 7376   3.375   1.422   0.019 -0.1753 -0.0544  0.0606
 2457TIP3    H1 7377   3.382   1.516   0.035  0.5373 -0.3657  1.8147
 2457TIP3    H2 7378   3.290   1.411  -0.024 -0.6960  1.2827  0.6993
 2458TIP3   OH2 7379   5.566   3.141   2.881  0.1158 -0.1416  0.6401
 2458TIP3    H1 7380   5.505   3.177   2.816  0.0245 -0.8028  0.3434
 2458TIP3    H2 7381   5.539   3.180   2.964 -0.4463 -0.0989  0.4420
 2459TIP3   OH2 7382   3.319   4.137   5.042  0.0134  0.5642  0.5842
 2459TIP3    H1 7383   3.325   4.048   5.075 -1.3146 -0.0740 -0.7723
 2459TIP3    H2 7384   3.406   4.155   5.005  0.1764 -0.3291  0.5130
 2460TIP3   OH2 7385   5.995   1.150   1.758 -0.3795 -0.8026 -0.0028
 2460TIP3    H1 7386   6.055   1.193   1.820 -0.8181 -0.3435  0.1106
 2460TIP3    H2 7387   5.908   1.160   1.797 -0.7530  0.0858 -1.0054
 2461TIP3   OH2 7388   4.604   5.736   4.802  0.0466  0.0265  0.3581
 2461TIP3    H1 7389   4.595   5.822   4.841 -1.2040 -0.1252  0.4625
 2461TIP3    H2 7390   4.596   5.751   4.708  2.9041  0.3720  0.0968
 2462TIP3   OH2 7391   5.692   0.415   0.733  0.1094 -0.2820 -0.3589
 2462TIP3    H1 7392   5.721   0.376   0.650 -0.4915  0.5592 -0.9760
 2462TIP3    H2 7393   5.721   0.506   0.728 -0.1082 -0.1788  0.2703
 2463TIP3   OH2 7394   1.910   1.641   3.335  0.0002  0.2856  0.2349
 2463TIP3    H1 7395   1.854   1.679   3.267 -0.0109  0.4168  0.3168
 2463TIP3    H2 7396   1.998   1.644   3.299  0.0531  0.7538  0.4000
 2464TIP3   OH2 7397   3.636   2.922   1.996 -0.3189 -0.1078  0.8157
 2464TIP3    H1 7398   3.544   2.900   2.011 -0.3282 -2.2290 -1.6313
 2464TIP3    H2 7399   3.635   2.972   1.914  0.8336 -2.9698 -1.1143
 2465TIP3   OH2 7400   0.582   3.512   3.814  0.2440  0.1749  0.4561
 2465TIP3    H1 7401   0.550   3.529   3.725  2.3330 -1.9752 -0.8320
 2465TIP3    H2 7402   0.517   3.452   3.851  0.8713 -1.3517 -0.8085
 2466TIP3   OH2 7403   5.937   2.957   4.558 -0.0623  0.2437  0.6139
 2466TIP3    H1 7404   5.875   2.886   4.539  0.7667 -0.5024  0.6009
 2466TIP3    H2 7405   5.882   3.031   4.583 -1.0637  0.3406 -1.6747
 2467TIP3   OH2 7406   0.485   1.928   4.134 -0.9393  0.3144  0.5902
 2467TIP3    H1 7407   0.528   1.875   4.067  1.2841  1.6935  0.8470
 2467TIP3    H2 7408   0.424   1.867   4.177  0.6644 -1.7324  0.1289
 2468TIP3   OH2 7409   1.065   3.192   3.656  0.0845 -1.0940 -0.4050
 2468TIP3    H1 7410   1.135   3.149   3.606  0.8139 -0.7587  0.2998
 2468TIP3    H2 7411   1.034   3.262   3.599  2.5341  0.8305  0.4342
 2469TIP3   OH2 7412   6.227   4.312   4.746 -0.0136  0.4189  0.1255
 2469TIP3    H1 7413   6.220   4.361   4.664  0.1256  0.1422 -0.0520
 2469TIP3    H2 7414   6.162   4.243   4.739 -0.1656  0.5365  0.3503
 2470TIP3   OH2 7415   0.735   4.877   3.956 -0.2619 -0.0342 -0.0131
 2470TIP3    H1 7416   0.661   4.928   3.923 -1.2515 -1.1559  0.4165
 2470TIP3    H2 7417   0.774   4.932   4.024 -1.0337  0.3463  0.1271
 2471TIP3   OH2 7418   1.017   1.585   4.740  0.0170  0.2847  0.1789
 2471TIP3    H1 7419   0.922   1.573   4.734 -0.2817 -0.3023  4.0143
 2471TIP3    H2 7420   1.053   1.497   4.750  1.1957  0.3922 -2.2980
 2472TIP3   OH2 7421   0.980   0.699   0.455 -0.0460 -0.3610 -0.2649
 2472TIP3    H1 7422   1.052   0.761   0.463  0.9964 -1.4968 -0.5326
 2472TIP3    H2 7423   0.901   0.753   0.456  0.8616  1.0418 -1.5331
 2473TIP3   OH2 7424   5.045   4.643   4.694 -0.5767  0.1813 -0.2962
 2473TIP3    H1 7425   5.002   4.562   4.663 -2.4801  0.6886  0.8152
 2473TIP3    H2 7426   5.100   4.670   4.621 -0.5578 -1.6560 -1.0324
 2474TIP3   OH2 7427   1.454   4.589   2.452 -0.9812 -0.1517 -0.3742
 2474TIP3    H1 7428   1.503   4.583   2.534  0.0879 -1.7956 -1.0958
 2474TIP3    H2 7429   1.419   4.502   2.437 -1.6175  0.2530 -1.3947
 2475TIP3   OH2 7430   2.970   5.126   2.567 -0.7014 -0.3058  0.0628
 2475TIP3    H1 7431   2.912   5.201   2.576 -1.7559 -1.0304 -0.4311
 2475TIP3    H2 7432   2.984   5.117   2.473 -1.7649 -1.5666  0.0008
 2476TIP3   OH2 7433   6.134   2.952   3.379 -0.1422  0.2363  0.0199
 2476TIP3    H1 7434   6.145   2.883   3.313 -1.2753 -0.8020  0.8673
 2476TIP3    H2 7435   6.172   2.915   3.459 -0.9513  0.5050  0.5407
 2477TIP3   OH2 7436   3.236   3.670   2.924  0.1879 -0.1072  0.2351
 2477TIP3    H1 7437   3.300   3.603   2.948 -0.6631 -0.9218  0.2692
 2477TIP3    H2 7438   3.231   3.666   2.829 -0.0480 -0.2702  0.2536
 2478TIP3   OH2 7439   5.514   3.214   2.299  0.4358 -0.2277 -0.5573
 2478TIP3    H1 7440   5.604   3.202   2.327  1.0309 -0.8475 -2.5475
 2478TIP3    H2 7441   5.474   3.128   2.307  0.0498  0.0100  0.1663
 2479TIP3   OH2 7442   2.200   0.592   2.211 -0.1560  0.3673  0.1872
 2479TIP3    H1 7443   2.201   0.505   2.252 -0.3218  0.4000  0.2602
 2479TIP3    H2 7444   2.156   0.578   2.127 -2.9234  0.9191  1.4152
 2480TIP3   OH2 7445   5.427   1.132   4.612  0.3447  0.1175 -0.1263
 2480TIP3    H1 7446   5.368   1.062   4.584 -2.6137  1.1456  2.7578
 2480TIP3    H2 7447   5.514   1.095   4.605 -1.0362 -3.9775  1.3011
 2481TIP3   OH2 7448   3.403   3.314   2.568  0.3744  0.2839 -0.2794
 2481TIP3    H1 7449   3.480   3.293   2.515 -0.3042 -1.0407 -0.8010
 2481TIP3    H2 7450   3.401   3.410   2.572  1.1586  0.3735 -1.5990
 2482TIP3   OH2 7451   3.495   4.878   4.879 -0.4816  0.6729 -0.1138
 2482TIP3    H1 7452   3.486   4.966   4.843 -0.8929  0.5170 -0.4046
 2482TIP3    H2 7453   3.418   4.831   4.845  0.6727 -0.3163 -1.4716
 2483TIP3   OH2 7454   1.143   1.094   2.842 -1.1511 -0.0344  0.5282
 2483TIP3    H1 7455   1.231   1.117   2.812  0.0320 -2.1989  2.0938
 2483TIP3    H2 7456   1.092   1.086   2.761  0.3134  0.4125 -0.4828
 2484TIP3   OH2 7457   3.487   2.233   5.004  0.2463 -0.2072 -0.3764
 2484TIP3    H1 7458   3.434   2.154   5.016 -0.5334  0.4804  0.9730
 2484TIP3    H2 7459   3.441   2.301   5.055  0.1331  1.4805 -2.5679
 2485TIP3   OH2 7460   5.397   2.626   0.144 -0.1248  0.0292  0.2874
 2485TIP3    H1 7461   5.384   2.537   0.112  2.7285  0.0583 -1.2856
 2485TIP3    H2 7462   5.331   2.678   0.098 -0.7090 -1.0085 -0.0803
 2486TIP3   OH2 7463   4.626   5.868   1.878 -0.5155 -0.1971  0.3976
 2486TIP3    H1 7464   4.634   5.774   1.895 -0.4817 -0.6066 -1.7045
 2486TIP3    H2 7465   4.658   5.880   1.789 -1.2885  1.7060  0.3194
 2487TIP3   OH2 7466   0.496   0.001   4.324 -0.8979  0.2670  0.8741
 2487TIP3    H1 7467   0.518   0.030   4.235 -2.5030 -1.7392 -0.2665
 2487TIP3    H2 7468   0.546   0.059   4.381  1.7353  0.4008 -1.3563
 2488TIP3   OH2 7469   2.719   3.183   4.038  0.5676  0.2377 -0.1705
 2488TIP3    H1 7470   2.644   3.153   3.987  0.5427  1.1068 -0.6620
 2488TIP3    H2 7471   2.787   3.202   3.973  0.1174  2.5902 -0.0411
 2489TIP3   OH2 7472   4.958   3.748   1.392 -0.0451  0.4805 -0.5367
 2489TIP3    H1 7473   4.864   3.729   1.389 -0.0044  0.3450 -1.1218
 2489TIP3    H2 7474   4.981   3.767   1.301  0.7185 -0.5897 -0.5792
 2490TIP3   OH2 7475   5.624   2.624   0.758  0.1722 -0.5531  0.2803
 2490TIP3    H1 7476   5.585   2.552   0.710 -0.6366 -0.0930  0.2243
 2490TIP3    H2 7477   5.574   2.629   0.839  1.2824 -1.0876  1.0344
 2491TIP3   OH2 7478   4.279   5.041   3.041  0.3529  0.2278  0.6490
 2491TIP3    H1 7479   4.234   5.061   2.959 -1.3978  1.8863  1.9372
 2491TIP3    H2 7480   4.364   5.006   3.014 -1.1291 -1.7475 -1.8693
 2492TIP3   OH2 7481   2.581   0.754   0.695  0.5668  0.1317 -0.9389
 2492TIP3    H1 7482   2.544   0.668   0.716 -0.0444  0.8306  1.0539
 2492TIP3    H2 7483   2.513   0.796   0.641 -0.3284  0.3156  0.2832
 2493TIP3   OH2 7484   5.904   1.436   2.788 -0.0761 -0.5382 -0.3409
 2493TIP3    H1 7485   5.998   1.447   2.804 -0.5937  0.9841  2.3595
 2493TIP3    H2 7486   5.869   1.408   2.872 -2.3549  1.5307 -0.4887
 2494TIP3   OH2 7487   5.202   4.565   4.196  0.3237 -0.2263 -0.2686
 2494TIP3    H1 7488   5.196   4.576   4.101 -2.0095  2.0755  0.0297
 2494TIP3    H2 7489   5.273   4.623   4.222  0.2987 -0.0813 -0.5187
 2495TIP3   OH2 7490   3.632   1.807   3.025 -0.0520  0.1232  0.0067
 2495TIP3    H1 7491   3.613   1.900   3.010  0.1605  0.2334  0.4093
 2495TIP3    H2 7492   3.640   1.771   2.937 -2.1043  0.0578 -0.2204
 2496TIP3   OH2 7493   2.810   4.506   1.626 -0.3076 -0.8696  0.4571
 2496TIP3    H1 7494   2.905   4.503   1.618 -0.3643 -0.7657 -0.2533
 2496TIP3    H2 7495   2.777   4.459   1.550 -0.8436  0.5064 -0.2006
 2497TIP3   OH2 7496   1.441   1.960   1.856 -0.4408  0.3178  0.1691
 2497TIP3    H1 7497   1.401   1.914   1.782 -1.5615  1.1162  0.2581
 2497TIP3    H2 7498   1.371   2.015   1.890  1.1090  2.8707 -0.5535
 2498TIP3   OH2 7499   0.898   5.374   4.944  0.0932  0.7872 -0.4491
 2498TIP3    H1 7500   0.918   5.325   4.863  0.2881  1.3361 -0.7379
 2498TIP3    H2 7501   0.942   5.458   4.932 -0.9244  1.3550 -0.3121
 2499TIP3   OH2 7502   2.720   1.735   2.529 -0.4013  0.0524  0.4195
 2499TIP3    H1 7503   2.772   1.685   2.592 -2.1816 -1.9036  0.4464
 2499TIP3    H2 7504   2.783   1.763   2.462  0.6446 -3.0518 -0.0742
 2500TIP3   OH2 7505   5.134   1.315   3.469 -0.5858 -0.2572 -0.3320
 2500TIP3    H1 7506   5.138   1.327   3.563 -0.2533  0.3133 -0.4162
 2500TIP3    H2 7507   5.162   1.399   3.432 -1.4098 -0.2355 -0.9377
 2501TIP3   OH2 7508   0.775   4.238   0.124 -0.0798  0.0063  0.1144
 2501TIP3    H1 7509   0.680   4.225   0.117 -0.0315 -1.2751  1.4444
 2501TIP3    H2 7510   0.812   4.152   0.104  0.9046  0.7541 -1.4998
 2502TIP3   OH2 7511   1.065   2.280   1.394  0.2748  0.4836 -0.3815
 2502TIP3    H1 7512   1.141   2.223   1.408  1.1614  1.6398 -0.2460
 2502TIP3    H2 7513   1.101   2.369   1.403 -1.0686  1.0591 -0.5112
 2503TIP3   OH2 7514   4.769   1.101   3.238 -0.0950 -0.0946  0.8134
 2503TIP3    H1 7515   4.741   1.011   3.256 -2.2188  0.1371 -0.8722
 2503TIP3    H2 7516   4.691   1.154   3.255  0.0245  0.9538 -1.5415
 2504TIP3   OH2 7517   2.451   4.202   0.535  0.1632  0.2130 -0.2075
 2504TIP3    H1 7518   2.380   4.150   0.496 -0.1954 -0.3651  1.1535
 2504TIP3    H2 7519   2.411   4.288   0.550 -0.5040 -0.3178  1.2068
 2505TIP3   OH2 7520   0.175   3.578   3.998  0.2122 -0.2838 -0.0025
 2505TIP3    H1 7521   0.169   3.541   4.086 -0.0685  1.3587  0.7168
 2505TIP3    H2 7522   0.109   3.531   3.947 -2.8586  1.6755  1.8312
 2506TIP3   OH2 7523   0.930   0.133   1.243 -0.0784  0.3046 -1.1481
 2506TIP3    H1 7524   0.926   0.226   1.265 -2.2022 -0.1790  1.0058
 2506TIP3    H2 7525   0.944   0.130   1.149  0.4043  2.7698 -1.2073
 2507TIP3   OH2 7526   0.658   1.106   1.243  0.0257  0.7680  0.1303
 2507TIP3    H1 7527   0.700   1.091   1.158 -0.8362 -0.3939 -0.1260
 2507TIP3    H2 7528   0.646   1.018   1.278  1.4102  1.2645  2.0108
 2508TIP3   OH2 7529   6.193   4.258   4.019 -0.2247 -0.2087 -0.5456
 2508TIP3    H1 7530   6.267   4.315   4.040  0.7172 -1.7427  0.5753
 2508TIP3    H2 7531   6.226   4.203   3.947 -0.4486 -0.5620 -0.3785
 2509TIP3   OH2 7532   3.327   2.653   3.008 -0.1069  0.2170 -0.4046
 2509TIP3    H1 7533   3.340   2.581   3.070 -0.6938  1.7152  1.5656
 2509TIP3    H2 7534   3.411   2.700   3.007 -0.3798  0.7220 -0.0221
 2510TIP3   OH2 7535   2.191   1.208   1.255 -0.2401 -0.1976  0.4624
 2510TIP3    H1 7536   2.185   1.218   1.160  0.9066 -1.7764  0.1747
 2510TIP3    H2 7537   2.264   1.264   1.280  0.1311 -0.5816  0.2498
 2511TIP3   OH2 7538   5.443   3.439   0.996 -0.3809 -0.1854 -0.2368
 2511TIP3    H1 7539   5.406   3.524   0.973  2.0070  1.1041  0.2927
 2511TIP3    H2 7540   5.535   3.446   0.971 -0.1671 -2.7238 -0.3613
 2512TIP3   OH2 7541   5.543   5.900   1.526 -0.2721  0.1924  0.2231
 2512TIP3    H1 7542   5.448   5.904   1.518 -0.3042 -0.4702  0.1729
 2512TIP3    H2 7543   5.576   5.913   1.438 -0.1933  2.9323  0.5874
 2513TIP3   OH2 7544   4.182   3.956   2.039 -0.2761  0.3235  0.1838
 2513TIP3    H1 7545   4.201   4.004   2.120  1.3859 -0.2798  0.2109
 2513TIP3    H2 7546   4.203   4.018   1.969 -0.4608  0.4297  0.2239
 2514TIP3   OH2 7547   0.251   5.174   2.033 -0.7207 -0.1397 -0.2352
 2514TIP3    H1 7548   0.194   5.213   2.100 -1.6189 -0.7428 -0.6331
 2514TIP3    H2 7549   0.272   5.247   1.974 -1.9102 -0.1196 -0.6503
 2515TIP3   OH2 7550   3.581   1.826   2.422 -0.0982 -0.4037  0.1910
 2515TIP3    H1 7551   3.572   1.914   2.385  1.0490  0.1698  1.2420
 2515TIP3    H2 7552   3.490   1.798   2.438 -0.4984  0.3564 -0.6500
 2516TIP3   OH2 7553   4.067   4.897   3.148 -0.6300 -0.2550 -0.6800
 2516TIP3    H1 7554   4.000   4.965   3.155 -0.9104 -0.6632  1.5544
 2516TIP3    H2 7555   4.145   4.943   3.117 -1.1217  0.8565 -0.3199
 2517TIP3   OH2 7556   4.502   2.543   1.375 -0.4409  0.3717 -0.0130
 2517TIP3    H1 7557   4.454   2.516   1.453  0.3430  0.2127  0.4179
 2517TIP3    H2 7558   4.565   2.474   1.360  2.4009  2.3670  1.7821
 2518TIP3   OH2 7559   1.225   0.041   4.256 -1.1529 -0.2586 -0.5964
 2518TIP3    H1 7560   1.244  -0.044   4.218 -0.4984 -1.0086  1.2663
 2518TIP3    H2 7561   1.164   0.022   4.327 -0.3518  0.6833  0.3768
 2519TIP3   OH2 7562   5.565   4.656   4.035 -0.2120 -0.0177  0.2763
 2519TIP3    H1 7563   5.580   4.623   4.123 -0.5030 -0.5984  0.1118
 2519TIP3    H2 7564   5.480   4.701   4.040 -0.5927 -0.7110  0.1140
 2520TIP3   OH2 7565   2.057   2.750   0.998  0.1581  0.1377  0.2728
 2520TIP3    H1 7566   2.152   2.738   0.993  0.0393 -1.5809  1.4637
 2520TIP3    H2 7567   2.035   2.729   1.088 -1.7408 -3.0138 -0.7542
 2521TIP3   OH2 7568   0.412   4.181   3.698 -0.0981  0.1534 -0.5325
 2521TIP3    H1 7569   0.404   4.096   3.655 -1.5722 -0.5355  0.9687
 2521TIP3    H2 7570   0.322   4.205   3.720  0.3010  2.0403 -0.7527
 2522TIP3   OH2 7571   3.461   3.851   4.384  0.5901  0.2587 -0.0559
 2522TIP3    H1 7572   3.411   3.797   4.444 -0.7451 -0.4347 -1.7147
 2522TIP3    H2 7573   3.491   3.925   4.437  1.4915 -1.4748  1.9834
 2523TIP3   OH2 7574   3.261   4.772   1.827  0.1369  0.2809 -0.3629
 2523TIP3    H1 7575   3.223   4.804   1.745  0.7235  0.6588 -0.4945
 2523TIP3    H2 7576   3.321   4.841   1.854  0.8105 -0.3458 -0.2185
 2524TIP3   OH2 7577   3.051   5.912   5.154  0.5868  0.0981 -0.1775
 2524TIP3    H1 7578   2.957   5.897   5.166  0.6976  1.0384  2.7462
 2524TIP3    H2 7579   3.062   6.006   5.165  1.7473  0.2168 -2.0003
 2525TIP3   OH2 7580   2.746   1.249   2.087  0.4134  0.5054 -0.0461
 2525TIP3    H1 7581   2.733   1.332   2.042 -0.5839 -0.1698 -1.0812
 2525TIP3    H2 7582   2.781   1.191   2.019  0.9925  0.0452  0.6340
 2526TIP3   OH2 7583   0.898   4.977   3.592  0.1276 -0.2555  0.2595
 2526TIP3    H1 7584   0.926   4.886   3.604  1.4142  0.2617  1.5453
 2526TIP3    H2 7585   0.980   5.027   3.592 -0.2263  0.6659 -3.7352
 2527TIP3   OH2 7586   3.267   2.018   2.583 -0.1229  0.2843 -0.1085
 2527TIP3    H1 7587   3.309   2.055   2.505 -0.4612  1.6963  0.3425
 2527TIP3    H2 7588   3.239   1.931   2.556  2.1801 -0.3406 -0.7311
 2528TIP3   OH2 7589   5.521   3.442   4.429  0.3153  0.0097  0.2621
 2528TIP3    H1 7590   5.607   3.463   4.466  0.6966 -1.6039  0.3627
 2528TIP3    H2 7591   5.459   3.482   4.489  0.9917  0.5541  0.6144
 2529TIP3   OH2 7592   1.421   3.953   4.941  0.6977 -0.2892 -0.2758
 2529TIP3    H1 7593   1.422   3.969   5.036 -1.7109  1.0887 -0.3809
 2529TIP3    H2 7594   1.505   3.986   4.910  0.5171  1.6531  1.1027
 2530TIP3   OH2 7595   1.589   1.088   1.283 -0.2830  0.4193 -0.0216
 2530TIP3    H1 7596   1.560   1.050   1.200 -0.7251 -1.2414  0.8570
 2530TIP3    H2 7597   1.625   1.014   1.332 -1.1463  1.1180  1.7557
 2531TIP3   OH2 7598   4.187   4.997   0.499 -0.2999  0.2588 -0.0737
 2531TIP3    H1 7599   4.173   4.910   0.460  0.3367  0.6259 -1.1532
 2531TIP3    H2 7600   4.141   4.993   0.582  2.4145 -2.2537  1.4991
 2532TIP3   OH2 7601   4.600   0.294   1.005  0.0423  0.1687 -0.4765
 2532TIP3    H1 7602   4.559   0.243   1.074  1.3813 -2.6940 -1.6296
 2532TIP3    H2 7603   4.667   0.346   1.050  0.5945 -1.2950  0.4394
 2533TIP3   OH2 7604   4.500   5.217   3.941  0.0905  0.5706 -0.0337
 2533TIP3    H1 7605   4.477   5.128   3.968  0.0995  0.0217 -1.7125
 2533TIP3    H2 7606   4.445   5.273   3.996 -0.2799 -0.4795  0.7119
 2534TIP3   OH2 7607   0.418   4.694   2.093  0.1211  0.2104  0.1912
 2534TIP3    H1 7608   0.427   4.659   2.181 -1.4863  1.5204  0.9239
 2534TIP3    H2 7609   0.369   4.776   2.104  0.1472  0.5616 -1.8759
 2535TIP3   OH2 7610   1.179   0.360   1.224  0.3916  0.4173  0.4263
 2535TIP3    H1 7611   1.250   0.353   1.160  1.0735 -1.0112  1.2679
 2535TIP3    H2 7612   1.162   0.453   1.231 -0.0467  0.6041 -2.1703
 2536TIP3   OH2 7613   1.410   3.408   0.577  0.2295 -0.0624 -0.1968
 2536TIP3    H1 7614   1.411   3.385   0.669  0.8924  1.8847  0.3288
 2536TIP3    H2 7615   1.502   3.426   0.556 -0.0914  0.8961 -0.8434
 2537TIP3   OH2 7616   4.803   0.907   2.424  0.1402 -0.0831  0.5198
 2537TIP3    H1 7617   4.883   0.939   2.467  0.1915 -0.6624  0.8638
 2537TIP3    H2 7618   4.783   0.973   2.358  0.4825  0.4448  0.9393
 2538TIP3   OH2 7619   4.483   4.225   4.231 -0.6110  0.1868  0.2790
 2538TIP3    H1 7620   4.545   4.154   4.217  0.0445  1.1328 -2.2623
 2538TIP3    H2 7621   4.492   4.248   4.323  1.9324 -0.5328  0.2779
 2539TIP3   OH2 7622   5.487   2.430   2.826 -0.0936 -0.1592 -0.0622
 2539TIP3    H1 7623   5.523   2.479   2.751  0.2582 -0.7556 -0.2887
 2539TIP3    H2 7624   5.401   2.468   2.840  0.1854  0.5494 -0.2201
 2540TIP3   OH2 7625   3.830   2.575   0.535  0.0581  0.4109 -0.4309
 2540TIP3    H1 7626   3.808   2.633   0.608  0.0002  1.6295 -1.3851
 2540TIP3    H2 7627   3.751   2.575   0.480 -0.4632 -1.6941  0.2200
 2541TIP3   OH2 7628   4.589   0.702   1.591 -0.1947 -0.1074  0.1119
 2541TIP3    H1 7629   4.656   0.737   1.532  0.1304 -2.3760 -0.9723
 2541TIP3    H2 7630   4.638   0.652   1.656 -0.7186  0.2783  0.8162
 2542TIP3   OH2 7631   4.947   3.191   4.999 -0.0273  0.0251 -0.5921
 2542TIP3    H1 7632   4.967   3.153   5.085 -0.7028  0.0157 -0.4383
 2542TIP3    H2 7633   4.983   3.127   4.937 -2.2801 -1.5939 -0.3618
 2543TIP3   OH2 7634   0.249   1.697   1.451 -0.2572  0.0081  0.1810
 2543TIP3    H1 7635   0.270   1.790   1.440  0.1495 -0.1084 -0.0547
 2543TIP3    H2 7636   0.153   1.695   1.453 -0.2983  0.3428 -0.7384
 2544TIP3   OH2 7637   4.095   5.603   4.804  0.2357 -0.0700 -0.3440
 2544TIP3    H1 7638   4.072   5.517   4.769  0.6711 -0.0200 -0.7640
 2544TIP3    H2 7639   4.187   5.616   4.780 -0.0144  0.8038 -0.8851
 2545TIP3   OH2 7640   0.513   5.119   2.741  0.2726  0.4843 -0.3873
 2545TIP3    H1 7641   0.499   5.163   2.825 -2.3660 -1.9651  0.6255
 2545TIP3    H2 7642   0.578   5.051   2.761  0.5352  0.6493 -0.6656
 2546TIP3   OH2 7643   2.464   4.346   3.579 -0.3967 -0.5463  0.0153
 2546TIP3    H1 7644   2.521   4.272   3.559  0.8379 -0.6504  3.2209
 2546TIP3    H2 7645   2.524   4.416   3.607 -1.6526  0.9447 -0.8527
 2547TIP3   OH2 7646   6.326   4.915   2.712  0.8423 -1.2299 -0.5639
 2547TIP3    H1 7647   6.371   4.987   2.757  0.1598 -1.0110 -0.2101
 2547TIP3    H2 7648   6.326   4.941   2.620 -0.8645  0.0575 -0.2394
 2548TIP3   OH2 7649   1.736   5.810   2.770 -0.5150 -0.3507 -0.1502
 2548TIP3    H1 7650   1.792   5.824   2.694  0.0462 -0.6042  0.2094
 2548TIP3    H2 7651   1.679   5.887   2.773 -0.2606 -0.1454 -0.5868
 2549TIP3   OH2 7652   5.539   5.695   2.026 -0.0220  0.1101  0.2594
 2549TIP3    H1 7653   5.626   5.660   2.006 -0.4782 -0.9377  0.0740
 2549TIP3    H2 7654   5.557   5.772   2.080  1.0181 -0.0965  0.2374
 2550TIP3   OH2 7655   5.928   4.853   3.236 -0.1008 -0.3770 -0.1870
 2550TIP3    H1 7656   5.864   4.829   3.170 -0.4148 -0.5131  0.1693
 2550TIP3    H2 7657   6.013   4.834   3.195 -0.1819  1.4378 -1.3515
 2551TIP3   OH2 7658   5.889   3.277   1.942  0.1177  0.4107  0.3561
 2551TIP3    H1 7659   5.805   3.291   1.985 -0.3220  0.2406 -0.4192
 2551TIP3    H2 7660   5.878   3.316   1.855  0.6034 -0.2216  0.0016
 2552TIP3   OH2 7661   1.232   2.702   2.642 -0.4261  0.2034  0.2587
 2552TIP3    H1 7662   1.148   2.746   2.631 -0.1520  0.8369  0.6886
 2552TIP3    H2 7663   1.245   2.698   2.736  1.1116  2.2120  0.1986
 2553TIP3   OH2 7664   6.160   1.886   0.886 -0.1892  0.2548  0.1457
 2553TIP3    H1 7665   6.102   1.818   0.852  0.3367 -0.2834  0.3145
 2553TIP3    H2 7666   6.217   1.908   0.813 -0.0000  0.1231  0.2534
 2554TIP3   OH2 7667   3.252   4.720   2.153  0.0113 -0.3554 -0.0551
 2554TIP3    H1 7668   3.215   4.779   2.219 -1.3430 -0.1663 -0.9388
 2554TIP3    H2 7669   3.218   4.753   2.070  2.2744 -0.1426 -0.9601
 2555TIP3   OH2 7670   5.520   2.077   3.509  0.3058  0.2706 -0.1340
 2555TIP3    H1 7671   5.597   2.021   3.497 -0.2579 -0.3433 -1.1250
 2555TIP3    H2 7672   5.554   2.166   3.514  1.1944 -0.1234  1.0430
 2556TIP3   OH2 7673   5.969   5.542   2.192  0.0468  0.1569 -0.2461
 2556TIP3    H1 7674   5.879   5.513   2.203 -0.8867  2.4248 -1.2996
 2556TIP3    H2 7675   6.009   5.475   2.137 -0.3753 -1.8464  1.7108
 2557TIP3   OH2 7676   3.140   1.752   4.788 -0.1676 -0.2072 -0.0622
 2557TIP3    H1 7677   3.231   1.746   4.762 -0.2975 -1.7124 -0.2603
 2557TIP3    H2 7678   3.091   1.750   4.706 -0.4280 -0.6692  0.1036
 2558TIP3   OH2 7679   4.428   0.349   4.483 -0.0648 -0.3611  0.4756
 2558TIP3    H1 7680   4.476   0.406   4.544 -0.9270 -0.5119  1.3264
 2558TIP3    H2 7681   4.453   0.260   4.510 -0.2891 -0.4250  0.4719
 2559TIP3   OH2 7682   0.142   1.039   4.194  0.0839  0.3712  0.1423
 2559TIP3    H1 7683   0.234   1.062   4.180  0.4847 -1.7281 -1.1260
 2559TIP3    H2 7684   0.112   1.007   4.109 -1.2425 -0.8468  1.0280
 2560TIP3   OH2 7685   3.256   1.137   4.292  0.4536 -0.0571  0.5787
 2560TIP3    H1 7686   3.300   1.208   4.338 -0.1688 -0.3284  1.6387
 2560TIP3    H2 7687   3.179   1.177   4.252  0.7964  0.1088  0.0822
 2561TIP3   OH2 7688   4.951   1.127   2.676  0.5953 -0.4567  0.0477
 2561TIP3    H1 7689   4.903   1.209   2.688 -0.3487 -0.9134 -0.4862
 2561TIP3    H2 7690   4.909   1.067   2.738  0.4759 -0.8591 -0.4252
 2562TIP3   OH2 7691   1.341   5.161   4.240  0.7057 -0.3492 -0.2023
 2562TIP3    H1 7692   1.293   5.134   4.162  1.9090  0.5505 -1.2782
 2562TIP3    H2 7693   1.272   5.184   4.303 -0.2760 -1.4628 -0.8348
 2563TIP3   OH2 7694   4.456   1.881   0.709  0.2247 -0.0392 -0.4325
 2563TIP3    H1 7695   4.490   1.970   0.710  0.3154 -0.0688 -0.9660
 2563TIP3    H2 7696   4.531   1.827   0.735 -0.0667  0.1087  0.8112
 2564TIP3   OH2 7697   4.509   0.567   0.252 -0.2854  0.4015 -0.0157
 2564TIP3    H1 7698   4.557   0.493   0.290 -0.0439  1.2241  1.3459
 2564TIP3    H2 7699   4.436   0.582   0.312 -0.2380  1.3745 -0.1862
 2565TIP3   OH2 7700   0.929   4.674   3.614 -0.0936 -0.1801 -0.2714
 2565TIP3    H1 7701   0.982   4.604   3.574  1.6300  1.2678 -0.6524
 2565TIP3    H2 7702   0.940   4.662   3.708 -0.9472 -1.2237 -0.2841
 2566TIP3   OH2 7703   2.946   5.698   0.384  0.3984 -1.0450 -0.5336
 2566TIP3    H1 7704   2.954   5.605   0.407 -0.5279 -1.4390 -1.7118
 2566TIP3    H2 7705   2.855   5.708   0.356  0.4636  0.2481 -0.3354
 2567TIP3   OH2 7706   4.679   5.207   4.363 -0.0436 -0.0952 -0.2613
 2567TIP3    H1 7707   4.765   5.240   4.338 -1.1243  2.1574 -1.3307
 2567TIP3    H2 7708   4.620   5.282   4.352 -2.4738 -1.9817 -1.3118
 2568TIP3   OH2 7709   2.510   5.194   4.080  0.0722  0.1534 -0.0771
 2568TIP3    H1 7710   2.494   5.148   4.162  0.4106  1.6067  0.8203
 2568TIP3    H2 7711   2.600   5.226   4.086  0.6038 -0.8973 -1.6221
 2569TIP3   OH2 7712   5.856   5.481   0.943  0.6936 -0.0056  0.2824
 2569TIP3    H1 7713   5.825   5.393   0.921  1.4628 -0.4181  0.8227
 2569TIP3    H2 7714   5.881   5.476   1.035  3.0557  0.0983 -0.2988
 2570TIP3   OH2 7715   4.048   0.626   2.168  0.0500 -0.1285  0.5329
 2570TIP3    H1 7716   4.118   0.570   2.201 -0.7677 -0.6224  1.5236
 2570TIP3    H2 7717   4.043   0.607   2.074  0.2520 -1.2160  0.7301
 2571TIP3   OH2 7718   1.772   2.125   3.455 -0.6797  0.4630 -0.0737
 2571TIP3    H1 7719   1.693   2.073   3.440  0.2062 -1.2705  0.8537
 2571TIP3    H2 7720   1.844   2.067   3.429  0.3079  1.7778 -0.3560
 2572TIP3   OH2 7721   3.068   5.788   3.438 -0.4097  0.1582 -0.0806
 2572TIP3    H1 7722   3.073   5.776   3.533  0.4449 -0.1867 -0.1582
 2572TIP3    H2 7723   3.158   5.777   3.408 -0.5859  0.7716 -0.8768
 2573TIP3   OH2 7724   2.884   3.917   1.267 -0.3024  0.0041  0.1834
 2573TIP3    H1 7725   2.832   3.866   1.205 -0.4276 -0.4688  0.6658
 2573TIP3    H2 7726   2.833   3.914   1.349  0.5874 -0.6774  0.7312
 2574TIP3   OH2 7727   0.525   1.639   2.409 -0.1526 -0.2657 -0.7524
 2574TIP3    H1 7728   0.560   1.555   2.380 -0.7435 -0.2140 -1.6514
 2574TIP3    H2 7729   0.574   1.704   2.359  1.6906  0.0847  1.3370
 2575TIP3   OH2 7730   0.345   0.990   4.724  0.2325  0.4827  0.3715
 2575TIP3    H1 7731   0.418   0.967   4.782 -0.0508 -0.3944  0.4078
 2575TIP3    H2 7732   0.267   0.957   4.769  0.0189 -0.3518 -0.5578
 2576TIP3   OH2 7733   3.540   0.523   0.807 -0.0511 -0.2216 -0.8155
 2576TIP3    H1 7734   3.498   0.437   0.810 -1.2817  0.3087 -1.8434
 2576TIP3    H2 7735   3.633   0.505   0.823 -0.4851 -1.5644  0.3876
 2577TIP3   OH2 7736   2.790   0.675   2.584 -0.3486 -0.1781 -0.0522
 2577TIP3    H1 7737   2.772   0.692   2.492  2.0495  0.0356 -0.5573
 2577TIP3    H2 7738   2.762   0.584   2.597 -3.9282  0.7767  0.0241
 2578TIP3   OH2 7739   4.336   3.570   2.763 -0.1207 -0.2878  0.2630
 2578TIP3    H1 7740   4.352   3.544   2.672 -3.1565  0.3286 -0.5582
 2578TIP3    H2 7741   4.341   3.488   2.813 -1.4275 -1.1527 -0.9703
 2579TIP3   OH2 7742   4.149   4.118   4.305 -0.5942  0.0444 -0.2864
 2579TIP3    H1 7743   4.067   4.084   4.341 -0.5324 -0.1003 -0.2816
 2579TIP3    H2 7744   4.179   4.181   4.370  0.6435 -1.7961  1.0232
 2580TIP3   OH2 7745   3.818   2.672   5.018 -0.1973  0.1443  0.0963
 2580TIP3    H1 7746   3.913   2.666   5.026 -0.0849 -0.6356 -1.4124
 2580TIP3    H2 7747   3.803   2.746   4.959 -0.4315 -0.7377 -0.9738
 2581TIP3   OH2 7748   5.272   1.151   1.932 -0.1303  0.3156  0.5360
 2581TIP3    H1 7749   5.259   1.056   1.925 -1.1247  0.0527  4.1641
 2581TIP3    H2 7750   5.366   1.161   1.945 -0.0066 -0.1286  0.0460
 2582TIP3   OH2 7751   3.651   2.953   3.928  0.4022 -0.5085  0.1024
 2582TIP3    H1 7752   3.592   2.991   3.992 -1.6599 -0.7203 -1.5666
 2582TIP3    H2 7753   3.673   2.867   3.963 -0.2643 -0.4190  0.7613
 2583TIP3   OH2 7754   1.479   3.848   3.616  0.3152  0.8536  0.4432
 2583TIP3    H1 7755   1.389   3.817   3.624  0.8562 -1.2149 -0.7656
 2583TIP3    H2 7756   1.530   3.770   3.595  2.4448  1.9373  1.2659
 2584TIP3   OH2 7757   0.203   5.530   4.684 -0.4431  0.5917  0.2116
 2584TIP3    H1 7758   0.277   5.523   4.745 -1.4277 -0.4380  1.3434
 2584TIP3    H2 7759   0.149   5.600   4.719 -2.5732 -1.9089  2.4208
 2585TIP3   OH2 7760   6.061   5.480   1.809  0.2262 -0.7383 -0.0005
 2585TIP3    H1 7761   6.095   5.392   1.794  1.3489 -0.2738 -0.2842
 2585TIP3    H2 7762   5.992   5.491   1.743  0.1248 -1.3800 -0.0012
 2586TIP3   OH2 7763   0.092   2.090   0.944  0.0564 -0.1489  0.2204
 2586TIP3    H1 7764   0.017   2.138   0.909  0.2578 -0.0904 -0.1275
 2586TIP3    H2 7765   0.053   2.011   0.983 -0.2666  0.2698  0.7532
 2587TIP3   OH2 7766   1.485   0.690   2.925  0.2887 -0.5272 -0.0020
 2587TIP3    H1 7767   1.556   0.626   2.934 -0.5296 -1.2956  1.2256
 2587TIP3    H2 7768   1.417   0.660   2.986 -0.4857  1.0227 -0.0508
 2588TIP3   OH2 7769   5.587   3.990   1.341  0.2992 -0.0220  0.0929
 2588TIP3    H1 7770   5.495   3.988   1.367 -0.1454  1.0419 -1.2643
 2588TIP3    H2 7771   5.602   3.905   1.298 -0.2492  0.0629 -0.2759
 2589TIP3   OH2 7772   4.454   4.823   0.509 -0.0826  0.0796 -0.4075
 2589TIP3    H1 7773   4.413   4.908   0.525 -0.8988 -0.1584 -1.1174
 2589TIP3    H2 7774   4.480   4.792   0.595  1.5799  1.6981 -0.2682
 2590TIP3   OH2 7775   2.157   2.848   2.768 -0.0694  0.1279 -0.2497
 2590TIP3    H1 7776   2.202   2.922   2.728  0.3246  1.3087  2.1532
 2590TIP3    H2 7777   2.176   2.856   2.862 -3.4364 -0.5922  0.6480
 2591TIP3   OH2 7778   5.572   5.063   3.661  0.4584 -0.2740 -0.1664
 2591TIP3    H1 7779   5.492   5.016   3.685  0.2014 -0.3567 -1.1430
 2591TIP3    H2 7780   5.543   5.153   3.647  0.9373  0.1921  1.6238
 2592TIP3   OH2 7781   5.867   3.759   0.691  0.0860  0.2964 -0.0149
 2592TIP3    H1 7782   5.908   3.812   0.759  0.1916 -0.8097  0.8116
 2592TIP3    H2 7783   5.915   3.781   0.612 -0.0226  1.5976  0.2500
 2593TIP3   OH2 7784   5.541   5.236   0.174  0.1406 -0.7386 -0.3072
 2593TIP3    H1 7785   5.608   5.305   0.177 -0.9082  0.2840  0.5134
 2593TIP3    H2 7786   5.589   5.157   0.149  1.3330  0.3330 -1.5589
 2594TIP3   OH2 7787   3.102   5.587   4.993 -0.1504  0.0784 -0.0939
 2594TIP3    H1 7788   3.137   5.616   5.078  1.4605 -0.1919 -0.6220
 2594TIP3    H2 7789   3.179   5.581   4.937 -0.8866 -1.8703 -0.9743
 2595TIP3   OH2 7790   5.775   5.198   2.838  0.1366  0.1356 -0.2596
 2595TIP3    H1 7791   5.820   5.238   2.764  0.3932 -1.1985 -0.8597
 2595TIP3    H2 7792   5.844   5.186   2.904  0.2648 -0.1443 -0.4393
 2596TIP3   OH2 7793   1.532   2.132   3.159 -0.2597 -0.2060 -0.1185
 2596TIP3    H1 7794   1.499   2.132   3.069 -1.3845  0.2647  0.2682
 2596TIP3    H2 7795   1.589   2.209   3.164 -0.8138  0.2229 -0.2342
 2597TIP3   OH2 7796   3.795   2.743   1.807 -0.3100 -0.3077  0.1942
 2597TIP3    H1 7797   3.750   2.736   1.723 -1.3035  0.8195  0.6027
 2597TIP3    H2 7798   3.747   2.810   1.855 -0.1483 -1.3642  1.9266
 2598TIP3   OH2 7799   3.317  -0.006   0.682  0.5860 -0.4151  0.3391
 2598TIP3    H1 7800   3.256   0.034   0.621  0.2968 -0.9705  0.2569
 2598TIP3    H2 7801   3.404   0.022   0.652  0.5913 -2.1559 -1.4643
 2599TIP3   OH2 7802   3.124   5.684   4.345  0.0845 -0.4838 -0.3302
 2599TIP3    H1 7803   3.102   5.702   4.436  0.5596  0.0417 -0.3142
 2599TIP3    H2 7804   3.136   5.771   4.305 -2.2313 -0.6059 -1.4383
 2600TIP3   OH2 7805   5.047   3.427   0.768  0.1396  0.1347 -0.2639
 2600TIP3    H1 7806   5.091   3.377   0.837 -1.0814 -2.3658 -1.1638
 2600TIP3    H2 7807   5.077   3.386   0.686 -1.6155  0.2411 -0.9974
 2601TIP3   OH2 7808   2.327   4.471   2.875 -0.3255 -0.5875  0.3798
 2601TIP3    H1 7809   2.266   4.436   2.811 -1.1827  0.0481  0.8386
 2601TIP3    H2 7810   2.364   4.549   2.834  0.3620 -1.0932  0.0141
 2602TIP3   OH2 7811   5.244   1.963   5.213 -0.7941 -0.2680  0.1709
 2602TIP3    H1 7812   5.242   1.884   5.158 -0.5499 -0.0821 -0.1136
 2602TIP3    H2 7813   5.297   2.025   5.162 -2.0849  0.5389 -0.2330
 2603TIP3   OH2 7814   3.347   2.314   3.389  0.5238 -0.3951  0.6389
 2603TIP3    H1 7815   3.338   2.222   3.412 -0.1243 -0.2330  1.0649
 2603TIP3    H2 7816   3.440   2.332   3.396  0.6214 -0.9519  0.8119
 2604TIP3   OH2 7817   0.870   3.428   1.347  0.3511  0.3609 -0.0689
 2604TIP3    H1 7818   0.943   3.471   1.303  0.7078  1.8953  1.8726
 2604TIP3    H2 7819   0.793   3.476   1.319  0.2823 -0.1720 -0.8081
 2605TIP3   OH2 7820   3.107   3.277   2.681  0.3676 -0.7643  0.0201
 2605TIP3    H1 7821   3.199   3.288   2.657  0.7196 -1.0028  1.1803
 2605TIP3    H2 7822   3.100   3.185   2.708  0.0973 -0.4406  1.1241
 2606TIP3   OH2 7823   3.431   3.793   2.182  0.1205  0.5158 -0.5857
 2606TIP3    H1 7824   3.508   3.813   2.129  1.2560  0.0033  0.7852
 2606TIP3    H2 7825   3.427   3.698   2.184 -0.4401  0.5401 -0.4903
 2607TIP3   OH2 7826   0.050   5.196   3.223  0.1573 -0.1934 -0.2624
 2607TIP3    H1 7827   0.033   5.277   3.270 -1.4879 -0.7424  0.1714
 2607TIP3    H2 7828   0.145   5.193   3.214  0.2230  2.2940 -1.2399
 2608TIP3   OH2 7829   6.270   3.072   2.912 -0.0446  0.2027 -0.1575
 2608TIP3    H1 7830   6.363   3.061   2.893  0.3460 -0.1011  1.7413
 2608TIP3    H2 7831   6.255   3.167   2.908  0.4610  0.2884 -0.0231
 2609TIP3   OH2 7832   6.230   3.915   2.155 -0.4980 -0.0452 -0.5653
 2609TIP3    H1 7833   6.275   3.848   2.206  0.9939  2.5825  1.9195
 2609TIP3    H2 7834   6.279   3.922   2.074 -0.4655 -1.6584 -0.7025
 2610TIP3   OH2 7835   0.973   5.581   4.306 -0.1864 -0.1567  0.1410
 2610TIP3    H1 7836   0.929   5.551   4.386 -1.0350  1.0544  0.1512
 2610TIP3    H2 7837   0.903   5.591   4.242  0.4369 -0.7045 -0.6554
 2611TIP3   OH2 7838   4.664   1.035   3.970 -0.0070  0.8352 -0.2311
 2611TIP3    H1 7839   4.624   1.063   4.053  1.0503  2.3423 -0.1947
 2611TIP3    H2 7840   4.720   1.108   3.944 -0.4346  0.4711 -2.3838
 2612TIP3   OH2 7841   1.909   0.394   1.276  0.1421 -0.1341 -0.2198
 2612TIP3    H1 7842   1.882   0.485   1.264  0.7188  0.3344  1.7947
 2612TIP3    H2 7843   1.986   0.399   1.332  1.8994 -1.7149 -2.3222
 2613TIP3   OH2 7844   2.691   5.085   0.866  0.1921  0.0170  0.2388
 2613TIP3    H1 7845   2.778   5.114   0.893  0.2244 -0.1067  0.2690
 2613TIP3    H2 7846   2.676   5.127   0.782 -0.5936  1.7441  1.1905
 2614TIP3   OH2 7847   2.672   4.334   3.834  0.7996  0.0867 -0.6224
 2614TIP3    H1 7848   2.665   4.417   3.788  1.2151 -0.3703 -1.5425
 2614TIP3    H2 7849   2.625   4.347   3.916  1.1301  1.3217 -0.6171
 2615TIP3   OH2 7850   4.310   5.928   0.220  0.1602  0.5808  0.6148
 2615TIP3    H1 7851   4.306   6.017   0.186 -0.1926  0.4640  0.3377
 2615TIP3    H2 7852   4.318   5.938   0.315  0.2372  0.9068  0.5743
 2616TIP3   OH2 7853   3.984   3.762   3.253 -0.8415  0.1253  0.0713
 2616TIP3    H1 7854   3.945   3.692   3.202  0.7862 -0.1709 -0.8283
 2616TIP3    H2 7855   3.973   3.840   3.199 -3.2180  0.7750  1.3414
 2617TIP3   OH2 7856   2.511   2.051   2.448 -0.4136 -0.0012 -0.2276
 2617TIP3    H1 7857   2.494   2.035   2.540 -0.4729 -0.4443 -0.3172
 2617TIP3    H2 7858   2.479   2.140   2.433 -0.4691  0.0456  0.1583
 2618TIP3   OH2 7859   4.289   2.689   2.025 -0.2390 -0.2851  0.4708
 2618TIP3    H1 7860   4.228   2.712   1.956 -1.1697 -0.5390  1.1902
 2618TIP3    H2 7861   4.374   2.722   1.994 -0.7554  0.2072 -0.4667
 2619TIP3   OH2 7862   1.406   3.316   1.340 -0.5667 -0.1773 -0.5414
 2619TIP3    H1 7863   1.430   3.408   1.331 -1.0323  0.0292  0.2849
 2619TIP3    H2 7864   1.374   3.291   1.253 -1.7988  0.8334 -0.3982
 2620TIP3   OH2 7865   0.446   1.494   1.418 -0.4536 -0.1817 -0.1279
 2620TIP3    H1 7866   0.477   1.526   1.333 -1.6908 -0.3012 -0.6436
 2620TIP3    H2 7867   0.401   1.569   1.456 -0.2217 -0.2407  0.2674
 2621TIP3   OH2 7868   3.613   0.766   3.786  0.1269  0.4980  0.2835
 2621TIP3    H1 7869   3.632   0.769   3.879  0.3447 -0.2912  0.2703
 2621TIP3    H2 7870   3.634   0.676   3.760 -1.6339  0.1644 -0.1469
 2622TIP3   OH2 7871   3.098   5.263   3.464  0.1001 -0.1795 -0.0102
 2622TIP3    H1 7872   3.079   5.332   3.400  1.3389  0.7160  0.5508
 2622TIP3    H2 7873   3.014   5.250   3.510 -0.3005  0.5485 -0.5096
 2623TIP3   OH2 7874   0.215   1.415   2.514 -0.2974  0.1820  0.1880
 2623TIP3    H1 7875   0.126   1.380   2.514 -0.2474 -0.1236 -2.3314
 2623TIP3    H2 7876   0.203   1.508   2.494 -0.0273 -0.1321 -1.5694
 2624TIP3   OH2 7877   4.544   2.369   2.586  0.7820 -0.3423 -0.1977
 2624TIP3    H1 7878   4.532   2.458   2.620  1.6115 -0.0216 -0.7044
 2624TIP3    H2 7879   4.495   2.368   2.504 -1.4905 -1.2150  1.0620
 2625TIP3   OH2 7880   4.875   2.446   1.521  0.4666 -0.1247 -0.4088
 2625TIP3    H1 7881   4.859   2.416   1.610  2.8121 -2.3397 -0.6342
 2625TIP3    H2 7882   4.810   2.399   1.468 -0.1220  0.2513 -0.0373
 2626TIP3   OH2 7883   2.438   4.609   1.329  0.0617  0.3517 -0.6040
 2626TIP3    H1 7884   2.371   4.645   1.387  0.1396  1.2526 -1.0592
 2626TIP3    H2 7885   2.520   4.620   1.376 -0.0954 -0.8946  0.0221
 2627TIP3   OH2 7886   0.440   2.747   2.405 -0.0506 -0.0680 -0.7702
 2627TIP3    H1 7887   0.386   2.819   2.372  0.4821  1.5615  1.6640
 2627TIP3    H2 7888   0.526   2.788   2.420  1.1161 -1.9350 -1.9475
 2628TIP3   OH2 7889   2.001   3.868   2.162 -0.0460  0.4802 -0.7668
 2628TIP3    H1 7890   1.930   3.837   2.217  1.3625  0.7868  1.3436
 2628TIP3    H2 7891   1.999   3.963   2.169  1.1158  0.4653  0.1011
 2629TIP3   OH2 7892   5.791   2.026   4.530  0.2574 -0.0381 -0.0067
 2629TIP3    H1 7893   5.812   2.112   4.493 -0.8200  0.1514 -0.2142
 2629TIP3    H2 7894   5.760   2.045   4.619 -0.6076 -0.1398 -0.2796
 2630TIP3   OH2 7895   4.714   3.999   4.698 -0.2682  0.4630  0.2768
 2630TIP3    H1 7896   4.668   3.976   4.618 -0.5718  1.1764  0.2340
 2630TIP3    H2 7897   4.806   3.982   4.679 -0.5376 -1.6617  0.6025
 2631TIP3   OH2 7898   4.328   1.680   3.867 -0.0631 -0.3205  0.4300
 2631TIP3    H1 7899   4.261   1.636   3.919  0.5238 -0.5536  1.0099
 2631TIP3    H2 7900   4.388   1.717   3.932  0.3120 -0.0182 -0.0773
 2632TIP3   OH2 7901   5.887   2.059   0.962  0.0630  0.4478 -0.2912
 2632TIP3    H1 7902   5.945   2.126   0.998  0.8404  0.1680 -0.9740
 2632TIP3    H2 7903   5.901   1.983   1.019  1.7182 -0.1755 -1.4457
 2633TIP3   OH2 7904   2.862   0.690   3.690  0.3093 -0.2288  0.2970
 2633TIP3    H1 7905   2.955   0.668   3.688  0.2642 -0.5715  1.2754
 2633TIP3    H2 7906   2.847   0.720   3.779 -0.2467  1.0892 -0.2178
 2634TIP3   OH2 7907   5.750   1.980   1.957  0.0636 -0.3965 -0.7439
 2634TIP3    H1 7908   5.667   2.027   1.954  0.5418  0.4832 -0.6187
 2634TIP3    H2 7909   5.816   2.047   1.938  0.8166 -0.8607  0.1427
 2635TIP3   OH2 7910   2.895   3.154   3.243  0.6527  0.2163  0.4190
 2635TIP3    H1 7911   2.817   3.190   3.200 -0.8227 -2.5408  0.5899
 2635TIP3    H2 7912   2.958   3.142   3.171  0.3114  0.8809 -0.0062
 2636TIP3   OH2 7913   0.644   0.235   3.836 -0.0692  0.6829 -0.0053
 2636TIP3    H1 7914   0.687   0.298   3.894 -0.3051  0.6130  0.2476
 2636TIP3    H2 7915   0.686   0.151   3.855 -0.1120  0.6691  0.0282
 2637TIP3   OH2 7916   1.835   3.328   4.978  0.2969 -0.6427  0.2120
 2637TIP3    H1 7917   1.831   3.408   5.030  0.9790 -0.7068  0.3713
 2637TIP3    H2 7918   1.745   3.313   4.950  0.4170  1.3110 -1.5353
 2638TIP3   OH2 7919   3.238   5.058   3.560  0.5861 -0.4084 -0.4800
 2638TIP3    H1 7920   3.193   5.138   3.537 -0.2122  0.0350  2.2886
 2638TIP3    H2 7921   3.329   5.073   3.535  0.3099  1.0751 -0.6412
 2639TIP3   OH2 7922   2.293   2.495   3.479 -0.7652  0.0921 -0.1626
 2639TIP3    H1 7923   2.205   2.477   3.445 -0.8616  0.1837  0.0369
 2639TIP3    H2 7924   2.344   2.417   3.457 -1.4178 -0.8827  1.5462
 2640TIP3   OH2 7925   5.446   3.464   3.659 -0.2467  0.0030 -0.0237
 2640TIP3    H1 7926   5.466   3.399   3.592 -0.0770  0.2378 -0.2010
 2640TIP3    H2 7927   5.350   3.470   3.659 -0.2396  0.2017 -0.4393
 2641TIP3   OH2 7928   3.458   1.461   2.412 -0.1954 -0.2355 -0.1331
 2641TIP3    H1 7929   3.494   1.373   2.400 -0.9903 -0.7067  0.8015
 2641TIP3    H2 7930   3.364   1.451   2.394 -0.0425  0.8003 -1.7164
 2642TIP3   OH2 7931   0.810   2.561   4.167 -0.6721 -0.1621  0.2030
 2642TIP3    H1 7932   0.800   2.585   4.075 -0.0472  2.1697  0.6644
 2642TIP3    H2 7933   0.793   2.643   4.215  2.3100 -0.4094  1.9271
 2643TIP3   OH2 7934   4.671   4.226   2.437  0.1328 -0.0411  0.2790
 2643TIP3    H1 7935   4.736   4.165   2.402 -1.3254 -1.7734  0.4613
 2643TIP3    H2 7936   4.594   4.214   2.381 -0.0506  2.0050  0.0391
 2644TIP3   OH2 7937   2.675   1.220   1.294  0.2931  0.1594 -0.6444
 2644TIP3    H1 7938   2.765   1.208   1.263  0.0948 -0.6608 -0.9458
 2644TIP3    H2 7939   2.629   1.142   1.263 -0.4793  0.4805 -0.3287
 2645TIP3   OH2 7940   5.595   3.600   1.784 -0.2267  0.2108 -0.1044
 2645TIP3    H1 7941   5.650   3.675   1.762  1.0432 -0.4228  0.7972
 2645TIP3    H2 7942   5.614   3.582   1.876 -0.1658 -1.4713 -0.4063
 2646TIP3   OH2 7943   0.694   0.643   1.037  0.5142  0.7953  0.1668
 2646TIP3    H1 7944   0.602   0.663   1.023 -0.1004 -1.5322  0.3918
 2646TIP3    H2 7945   0.698   0.614   1.128  0.6853 -2.5351 -0.7728
 2647TIP3   OH2 7946   0.699   1.790   2.254  0.4782 -0.2262 -0.7533
 2647TIP3    H1 7947   0.686   1.805   2.160  1.9211  0.5076 -0.8672
 2647TIP3    H2 7948   0.744   1.706   2.259 -1.6529 -1.4073 -0.5394
 2648TIP3   OH2 7949   3.485   5.760   1.980  0.1151  0.1099 -0.1738
 2648TIP3    H1 7950   3.548   5.760   1.907 -0.7081 -0.4875 -0.9003
 2648TIP3    H2 7951   3.520   5.697   2.042 -0.2718 -0.9865 -1.0412
 2649TIP3   OH2 7952   1.955   3.526   4.620 -0.3012  0.1106 -0.3523
 2649TIP3    H1 7953   1.913   3.538   4.705 -0.1087 -2.9417  0.2653
 2649TIP3    H2 7954   1.898   3.573   4.559 -0.2447  2.6953  1.4145
 2650TIP3   OH2 7955   5.936   0.250   4.209 -0.2707  0.3571  0.1157
 2650TIP3    H1 7956   6.013   0.305   4.197 -0.9349  0.7690 -3.1686
 2650TIP3    H2 7957   5.904   0.272   4.297  4.4024 -1.3926  2.6038
 2651TIP3   OH2 7958   4.079   3.715   3.506 -0.0534 -0.0743 -0.2821
 2651TIP3    H1 7959   4.044   3.755   3.426 -1.3507 -1.2375 -0.3457
 2651TIP3    H2 7960   4.104   3.626   3.479  2.8342  0.6129 -0.1783
 2652TIP3   OH2 7961   4.942   4.478   0.108 -0.2036 -0.3121  0.0951
 2652TIP3    H1 7962   5.022   4.432   0.132  1.0633  2.9320  2.9083
 2652TIP3    H2 7963   4.964   4.523   0.026 -0.4784 -2.2501 -1.0963
 2653TIP3   OH2 7964   6.305   4.702   1.658 -0.3990  0.2549  0.0972
 2653TIP3    H1 7965   6.363   4.628   1.637  0.9703  1.3381 -0.1238
 2653TIP3    H2 7966   6.223   4.682   1.614  0.6626 -0.0791 -1.8353
 2654TIP3   OH2 7967   3.299   2.965   0.352  0.0535 -0.4928  0.4058
 2654TIP3    H1 7968   3.344   3.050   0.357  1.2243 -0.9539 -1.5068
 2654TIP3    H2 7969   3.352   2.913   0.292 -1.7286 -1.9361  0.0075
 2655TIP3   OH2 7970   0.353   4.954   2.167 -0.5242 -0.1443  0.2228
 2655TIP3    H1 7971   0.304   5.029   2.135 -1.7527 -0.8423  0.4006
 2655TIP3    H2 7972   0.445   4.981   2.162 -0.9114  1.1557 -0.2174
 2656TIP3   OH2 7973   5.370   1.995   3.927 -0.1036  0.3028 -0.3202
 2656TIP3    H1 7974   5.380   1.906   3.960 -1.7476  0.6853  1.3594
 2656TIP3    H2 7975   5.361   1.984   3.832  2.6062 -1.0107 -0.5107
 2657TIP3   OH2 7976   1.912   4.517   4.814  0.1685  0.4784 -0.0742
 2657TIP3    H1 7977   1.833   4.464   4.818  1.6843 -1.8598  0.5416
 2657TIP3    H2 7978   1.934   4.536   4.905  0.8515  0.2746 -0.1900
 2658TIP3   OH2 7979   1.833   2.130   5.032 -0.6566 -0.3614  0.6390
 2658TIP3    H1 7980   1.765   2.063   5.036  0.3805 -1.4359  0.5314
 2658TIP3    H2 7981   1.809   2.193   5.100 -1.4076 -1.0476  1.0213
 2659TIP3   OH2 7982   6.218   5.684   4.055 -0.4163 -0.1991  0.0036
 2659TIP3    H1 7983   6.228   5.636   4.137 -0.6646  0.1063  0.2141
 2659TIP3    H2 7984   6.275   5.761   4.065 -0.5428 -0.0971 -0.0600
 2660TIP3   OH2 7985   0.584   1.719   0.690  0.2768  0.2498  0.5104
 2660TIP3    H1 7986   0.664   1.687   0.733  0.5215 -0.2466 -0.2838
 2660TIP3    H2 7987   0.596   1.814   0.687  1.5799  0.0819 -0.9552
 2661TIP3   OH2 7988   4.790   1.507   3.139 -0.1029 -0.3531  0.0346
 2661TIP3    H1 7989   4.833   1.424   3.116 -1.5120 -0.5613 -2.1728
 2661TIP3    H2 7990   4.784   1.505   3.234  3.1745 -1.0611  0.3538
 2662TIP3   OH2 7991   5.880   1.129   2.190 -0.3630 -0.0522 -0.0137
 2662TIP3    H1 7992   5.863   1.211   2.144  2.6608 -0.1385 -1.5485
 2662TIP3    H2 7993   5.913   1.070   2.122  3.2884 -0.5466  1.9421
 2663TIP3   OH2 7994   1.068   0.108   3.262  0.6963  0.3066 -0.2281
 2663TIP3    H1 7995   1.124   0.100   3.186  0.0870 -0.2217 -0.6337
 2663TIP3    H2 7996   0.982   0.129   3.227  0.6461  1.1816  0.3884
 2664TIP3   OH2 7997   1.660   0.898   1.490  0.5981 -0.8331 -0.6795
 2664TIP3    H1 7998   1.654   0.913   1.584  0.1958  2.1326 -1.0730
 2664TIP3    H2 7999   1.633   0.807   1.478 -3.1272 -0.2516  1.7245
 2665TIP3   OH2 8000   0.475   2.882   3.350  0.0775 -0.2430 -0.0128
 2665TIP3    H1 8001   0.505   2.835   3.272  0.6203  0.3554 -0.1739
 2665TIP3    H2 8002   0.404   2.938   3.319  0.1061 -0.2114 -0.0209
 2666TIP3   OH2 8003   5.300   2.765   1.873 -0.1183 -0.0679 -0.1517
 2666TIP3    H1 8004   5.260   2.828   1.933  0.1226 -0.1385  0.0854
 2666TIP3    H2 8005   5.311   2.685   1.925  3.0594  0.7996  0.7593
 2667TIP3   OH2 8006   6.152   2.143   1.302  0.6553 -0.6292  1.2384
 2667TIP3    H1 8007   6.133   2.236   1.292 -1.7837 -1.3139 -3.6922
 2667TIP3    H2 8008   6.067   2.103   1.320  0.6564 -2.1911 -1.6496
 2668TIP3   OH2 8009   2.177   2.489   1.882  0.0074  0.5281  0.1963
 2668TIP3    H1 8010   2.200   2.440   1.804 -2.6929  1.3171 -1.2511
 2668TIP3    H2 8011   2.159   2.422   1.948 -1.3701 -0.3980 -1.0460
 2669TIP3   OH2 8012   0.298   4.556   1.894 -0.3856 -0.2053 -0.1829
 2669TIP3    H1 8013   0.368   4.608   1.933  0.7106 -1.0053 -1.0070
 2669TIP3    H2 8014   0.223   4.615   1.891  1.0949  1.7812 -2.1570
 2670TIP3   OH2 8015   2.674   2.128   4.655  0.1113  0.1284  0.1704
 2670TIP3    H1 8016   2.661   2.176   4.737  0.8599 -0.7209  0.7942
 2670TIP3    H2 8017   2.674   2.036   4.680 -2.5725 -0.3335 -1.1842
 2671TIP3   OH2 8018   5.476   1.764   2.356 -0.3365  0.0732 -0.1725
 2671TIP3    H1 8019   5.522   1.844   2.380  0.2585 -0.1519 -0.5350
 2671TIP3    H2 8020   5.427   1.786   2.277  1.0329 -0.3165 -1.1612
 2672TIP3   OH2 8021   4.562   0.673   0.768 -0.2406 -0.7574  0.1302
 2672TIP3    H1 8022   4.569   0.657   0.674 -0.7938 -1.5571  0.2237
 2672TIP3    H2 8023   4.630   0.619   0.807  1.5322  1.2605  0.0546
 2673TIP3   OH2 8024   1.312   0.537   4.464  0.3015 -0.1163 -0.2241
 2673TIP3    H1 8025   1.296   0.579   4.380 -2.2705  0.7276  0.6310
 2673TIP3    H2 8026   1.291   0.603   4.530  2.8175 -0.5544  1.1841
 2674TIP3   OH2 8027   4.339   2.254   0.736 -0.3692 -0.1143  0.0571
 2674TIP3    H1 8028   4.347   2.349   0.741  0.5025 -0.2046  0.6466
 2674TIP3    H2 8029   4.282   2.231   0.809  1.6327 -0.2594  1.6549
 2675TIP3   OH2 8030   0.155   1.521   3.229 -0.0611  0.5112  0.4824
 2675TIP3    H1 8031   0.134   1.444   3.283  0.9508  0.6256  1.0554
 2675TIP3    H2 8032   0.079   1.579   3.240 -1.2520 -0.7464 -0.6549
 2676TIP3   OH2 8033   2.421   5.928   3.953 -0.2879  0.2172  0.9656
 2676TIP3    H1 8034   2.483   5.970   4.013 -1.7481  0.6856  2.1949
 2676TIP3    H2 8035   2.397   5.846   3.996 -1.3168  0.5336  0.9988
 2677TIP3   OH2 8036   3.905   2.336   2.751 -0.0198 -0.3464  0.2008
 2677TIP3    H1 8037   3.945   2.254   2.722  1.4195 -0.0165  1.1252
 2677TIP3    H2 8038   3.821   2.340   2.705  0.6260 -1.5036 -1.1624
 2678TIP3   OH2 8039   3.915   2.490   3.304  0.1702  0.0567  0.0667
 2678TIP3    H1 8040   3.825   2.493   3.271  0.2438 -0.6797 -0.2135
 2678TIP3    H2 8041   3.969   2.485   3.225  0.3559 -1.5887  0.2675
 2679TIP3   OH2 8042   4.437   1.440   3.233  0.3050  0.6135 -0.1420
 2679TIP3    H1 8043   4.454   1.419   3.325  1.3972  0.0554 -0.4450
 2679TIP3    H2 8044   4.342   1.432   3.223  0.1775  0.6558  0.9261
 2680TIP3   OH2 8045   1.539   5.813   1.209 -0.2176  0.0553 -0.1149
 2680TIP3    H1 8046   1.472   5.870   1.247  0.2822  0.1194  0.6947
 2680TIP3    H2 8047   1.500   5.726   1.213  1.1427 -0.5639  4.0017
 2681TIP3   OH2 8048   3.610   5.049   1.088  0.1150 -0.2770 -0.0009
 2681TIP3    H1 8049   3.623   4.962   1.127 -1.2250 -0.6894 -0.4419
 2681TIP3    H2 8050   3.613   5.035   0.994  0.7341  0.3031 -0.0774
 2682TIP3   OH2 8051   3.435   0.576   4.282 -0.2592  0.3927  0.4590
 2682TIP3    H1 8052   3.426   0.611   4.371 -1.9901  1.2395 -0.0013
 2682TIP3    H2 8053   3.434   0.653   4.226 -1.0848 -0.2247 -0.4061
 2683TIP3   OH2 8054   0.044   5.427   0.332 -0.1066  0.6700  0.2589
 2683TIP3    H1 8055  -0.046   5.394   0.331  0.7789 -2.1170 -2.3482
 2683TIP3    H2 8056   0.078   5.400   0.417 -0.5928 -2.1582 -0.3217
 2684TIP3   OH2 8057   0.777   4.081   1.790  0.1114  0.3887  0.0854
 2684TIP3    H1 8058   0.764   4.008   1.729  0.6769  0.3492  0.0026
 2684TIP3    H2 8059   0.853   4.129   1.754  1.7874 -0.8048  1.8381
 2685TIP3   OH2 8060   0.643   4.446   2.310 -0.7616 -0.2682  0.2586
 2685TIP3    H1 8061   0.711   4.509   2.332 -0.0974 -0.7078 -0.4515
 2685TIP3    H2 8062   0.676   4.362   2.344 -1.7570 -0.2124  1.4350
 2686TIP3   OH2 8063   2.896   5.850   4.114  0.2276  0.3899 -0.0918
 2686TIP3    H1 8064   2.977   5.848   4.063 -0.3403 -1.3667 -1.0039
 2686TIP3    H2 8065   2.829   5.819   4.053 -0.1575 -3.8231  2.1149
 2687TIP3   OH2 8066   0.636   0.512   2.606  0.1334 -0.1475  0.5321
 2687TIP3    H1 8067   0.583   0.533   2.530  0.8919 -1.0997 -0.2936
 2687TIP3    H2 8068   0.718   0.477   2.570 -0.0782 -2.0991  1.7432
 2688TIP3   OH2 8069   1.020   1.593   3.191  0.0142  0.7261 -0.7091
 2688TIP3    H1 8070   1.047   1.681   3.219 -0.0426  0.1256  1.4048
 2688TIP3    H2 8071   0.924   1.595   3.194  0.0162  0.5564 -0.5213
 2689TIP3   OH2 8072   3.883   2.033   1.717 -0.6698 -0.0996 -0.0147
 2689TIP3    H1 8073   3.845   2.113   1.754  0.0717  0.1197  0.3116
 2689TIP3    H2 8074   3.841   2.022   1.632 -2.7158 -0.8308  1.0356
 2690TIP3   OH2 8075   1.733   4.340   0.748 -0.1301 -0.2712 -0.5218
 2690TIP3    H1 8076   1.782   4.278   0.802 -0.2981 -0.3042 -0.4048
 2690TIP3    H2 8077   1.685   4.394   0.812 -0.3042 -0.2892 -0.6358
 2691TIP3   OH2 8078   2.825   2.251   0.208  0.5445 -0.0813 -0.4260
 2691TIP3    H1 8079   2.807   2.221   0.119  1.0336 -0.3229 -0.4471
 2691TIP3    H2 8080   2.747   2.225   0.258 -0.1731  0.9363 -0.9733
 2692TIP3   OH2 8081   1.702   5.630   3.838  0.2314 -0.2932  0.3046
 2692TIP3    H1 8082   1.656   5.547   3.825  0.4273 -0.0632 -2.3555
 2692TIP3    H2 8083   1.792   5.612   3.812  0.8251  0.2149  1.9058
 2693TIP3   OH2 8084   4.437   3.129   1.905  0.2187 -0.3924 -0.2043
 2693TIP3    H1 8085   4.375   3.201   1.892 -0.1494 -0.5649  0.5232
 2693TIP3    H2 8086   4.402   3.058   1.851  0.7322  0.0461 -1.1408
 2694TIP3   OH2 8087   4.713   3.567   2.307 -0.2766  0.8100 -0.1800
 2694TIP3    H1 8088   4.660   3.515   2.247 -0.4133 -0.2440  0.8070
 2694TIP3    H2 8089   4.671   3.554   2.392  0.6876  1.1815  0.3617
 2695TIP3   OH2 8090   1.505   2.184   0.708 -0.0510 -0.4224  0.3291
 2695TIP3    H1 8091   1.528   2.276   0.719  0.5955 -0.4207 -0.9630
 2695TIP3    H2 8092   1.495   2.152   0.798  2.9799  0.0900  0.9662
 2696TIP3   OH2 8093   6.153   2.393   3.887  0.4309  0.1422  0.6840
 2696TIP3    H1 8094   6.138   2.479   3.926  1.2304  0.7599 -0.3133
 2696TIP3    H2 8095   6.084   2.383   3.822  0.5587  0.1992  0.5385
 2697TIP3   OH2 8096   0.707   3.000   2.045 -0.6324 -0.0906 -0.1093
 2697TIP3    H1 8097   0.732   3.052   1.969  0.8477  0.2017  0.5498
 2697TIP3    H2 8098   0.657   2.927   2.008 -0.4086  0.3333 -1.3013
 2698TIP3   OH2 8099   1.682   0.889   2.373  0.1436 -0.3897  0.0565
 2698TIP3    H1 8100   1.648   0.815   2.323  1.4718 -0.2444 -1.1141
 2698TIP3    H2 8101   1.654   0.873   2.463 -4.1621  0.3866 -0.9307
 2699TIP3   OH2 8102   4.790   0.181   4.957  0.2467  0.0245  0.1876
 2699TIP3    H1 8103   4.859   0.135   4.909 -0.0900  0.2059 -0.4868
 2699TIP3    H2 8104   4.789   0.269   4.919 -3.2814 -1.1459 -3.0320
 2700TIP3   OH2 8105   5.068   4.054   0.697 -0.4235 -0.2272  0.8261
 2700TIP3    H1 8106   5.029   3.998   0.764  1.8459  0.0077  2.4792
 2700TIP3    H2 8107   5.152   4.011   0.677 -0.7773  0.0428 -1.4810
 2701TIP3   OH2 8108   2.501   1.157   2.421 -0.0025  0.1470 -0.1306
 2701TIP3    H1 8109   2.533   1.086   2.365 -0.4432 -0.7977  0.7702
 2701TIP3    H2 8110   2.406   1.153   2.413 -0.0390  0.4794  0.1182
 2702TIP3   OH2 8111   4.082   5.477   0.435  0.0056  0.0019  0.0472
 2702TIP3    H1 8112   3.993   5.511   0.425 -0.0093  0.4572  1.5375
 2702TIP3    H2 8113   4.088   5.406   0.371 -1.6140 -0.3852  0.2902
 2703TIP3   OH2 8114   2.569   0.048   1.620  0.4431 -0.3140 -0.3930
 2703TIP3    H1 8115   2.647   0.088   1.581  0.1270 -1.1281 -1.8900
 2703TIP3    H2 8116   2.567  -0.041   1.585 -0.3682 -0.7794  0.7746
 2704TIP3   OH2 8117   0.267   0.224   1.940  0.3271 -0.1624 -0.0353
 2704TIP3    H1 8118   0.327   0.253   2.009  0.2311  1.4089 -0.5642
 2704TIP3    H2 8119   0.321   0.219   1.862  0.2669 -1.1467 -0.0158
 2705TIP3   OH2 8120   1.673   3.340   1.143 -0.6653 -0.5294  0.3326
 2705TIP3    H1 8121   1.713   3.273   1.087 -1.6622 -1.6501  0.9242
 2705TIP3    H2 8122   1.588   3.357   1.102 -0.9893 -0.6468  0.9515
 2706TIP3   OH2 8123   0.352   5.553   2.513 -0.4498 -0.0800  0.3585
 2706TIP3    H1 8124   0.395   5.522   2.433 -2.5326  0.2444 -0.9755
 2706TIP3    H2 8125   0.418   5.606   2.557  0.4796  0.5506 -1.6732
 2707TIP3   OH2 8126   3.236   3.557   3.323  0.4450  0.5188 -0.1121
 2707TIP3    H1 8127   3.145   3.584   3.308 -0.3346 -1.9335 -0.2048
 2707TIP3    H2 8128   3.287   3.638   3.313 -1.7638  2.0910  0.6118
 2708TIP3   OH2 8129   5.384   2.920   1.652  0.4488 -0.3433  0.2698
 2708TIP3    H1 8130   5.320   2.921   1.580  2.0537 -0.2169 -1.2269
 2708TIP3    H2 8131   5.335   2.887   1.727 -1.9763  1.8387 -0.1884
 2709TIP3   OH2 8132   4.114   1.801   3.499 -0.2838 -0.5790  0.3777
 2709TIP3    H1 8133   4.161   1.884   3.511 -1.1050  0.1727 -1.3374
 2709TIP3    H2 8134   4.161   1.756   3.429  0.7352 -2.0550  1.9351
 2710TIP3   OH2 8135   0.235   5.112   1.660  0.2620 -0.0579  0.1092
 2710TIP3    H1 8136   0.188   5.090   1.579  1.3938  1.1659 -0.9262
 2710TIP3    H2 8137   0.179   5.176   1.704  0.7334  1.1328 -0.9482
 2711TIP3   OH2 8138   3.882   1.794   0.648 -0.0729  0.1021 -0.0053
 2711TIP3    H1 8139   3.874   1.700   0.664  1.6668 -0.3038 -1.2914
 2711TIP3    H2 8140   3.976   1.811   0.651 -0.3212  1.7104 -0.3879
 2712TIP3   OH2 8141   2.645   4.683   2.037 -0.3395 -0.2398 -0.2742
 2712TIP3    H1 8142   2.673   4.623   1.968 -0.8311 -0.7659 -0.0155
 2712TIP3    H2 8143   2.725   4.702   2.086 -0.2180 -0.8387 -0.2380
 2713TIP3   OH2 8144   5.270   1.395   2.443  0.0909  0.1293  0.0635
 2713TIP3    H1 8145   5.354   1.402   2.398  1.0440  0.0667  1.7427
 2713TIP3    H2 8146   5.233   1.313   2.412  0.2965  0.5025 -1.2349
 2714TIP3   OH2 8147   1.600   1.477   4.877 -0.2603  0.3009 -0.4622
 2714TIP3    H1 8148   1.690   1.471   4.845 -1.4474 -1.9645 -4.0713
 2714TIP3    H2 8149   1.608   1.503   4.968  3.9853  0.7895 -0.7891
 2715TIP3   OH2 8150   5.167   5.770   2.806 -0.3853 -0.1263 -0.0329
 2715TIP3    H1 8151   5.222   5.741   2.733  1.9116 -0.4336  1.7010
 2715TIP3    H2 8152   5.096   5.705   2.810 -0.8421  0.1742 -2.2206
 2716TIP3   OH2 8153   5.112   4.390   4.361 -0.4987 -0.2650  0.0170
 2716TIP3    H1 8154   5.158   4.442   4.295 -1.4010  0.7847  0.1852
 2716TIP3    H2 8155   5.077   4.316   4.312  1.1058 -0.9413 -0.1592
 2717TIP3   OH2 8156   1.547   5.092   1.258 -0.3665  0.1096 -0.4086
 2717TIP3    H1 8157   1.532   5.122   1.169 -1.2610 -1.8246 -0.9625
 2717TIP3    H2 8158   1.479   5.026   1.273  0.1030  0.0034  1.5158
 2718TIP3   OH2 8159   5.792   3.939   0.253  0.2171 -0.1109  0.1392
 2718TIP3    H1 8160   5.848   3.945   0.330 -1.1752  0.0086  1.1916
 2718TIP3    H2 8161   5.852   3.921   0.181  1.6124  0.2057  1.1700
 2719TIP3   OH2 8162   3.635   5.674   5.116 -0.1419 -0.2521  0.0660
 2719TIP3    H1 8163   3.721   5.690   5.078 -0.5759  0.4619 -0.6569
 2719TIP3    H2 8164   3.625   5.579   5.115  0.0774 -0.2818 -1.1479
 2720TIP3   OH2 8165   5.371   2.474   1.321  0.2074  0.5536  0.1521
 2720TIP3    H1 8166   5.443   2.529   1.352  1.1460  1.1713 -2.8285
 2720TIP3    H2 8167   5.323   2.529   1.260  0.5543 -1.5414 -2.1563
 2721TIP3   OH2 8168   6.083   5.423   0.617 -0.1081 -1.1207  0.3378
 2721TIP3    H1 8169   6.019   5.407   0.687 -0.6999  1.9924  0.6799
 2721TIP3    H2 8170   6.105   5.516   0.627  0.9751 -0.9721 -2.6560
 2722TIP3   OH2 8171   0.858   2.399   4.832  0.2765  0.2312 -0.1975
 2722TIP3    H1 8172   0.866   2.382   4.926 -0.8339  2.0547  0.2753
 2722TIP3    H2 8173   0.841   2.313   4.794 -0.6455 -0.3751  1.4521
 2723TIP3   OH2 8174   6.003   5.773   4.247 -0.5899 -0.4173 -0.4615
 2723TIP3    H1 8175   6.054   5.695   4.266  0.5953  0.5005  0.2063
 2723TIP3    H2 8176   6.068   5.841   4.226 -1.3968  1.1653  1.7861
 2724TIP3   OH2 8177   1.306   4.635   1.326 -0.0321  0.0746 -1.0547
 2724TIP3    H1 8178   1.250   4.559   1.342 -0.2088  0.2058 -1.0505
 2724TIP3    H2 8179   1.390   4.598   1.299 -0.7805 -0.1116 -3.3260
 2725TIP3   OH2 8180   0.666   4.717   1.916  0.0959 -0.4555 -0.2920
 2725TIP3    H1 8181   0.737   4.653   1.912 -0.8742 -1.5035 -1.9346
 2725TIP3    H2 8182   0.618   4.696   1.997  0.0118 -1.5824 -0.6250
 2726TIP3   OH2 8183   5.349   2.706   2.844  0.1332  0.2972 -0.4009
 2726TIP3    H1 8184   5.320   2.704   2.753 -2.0890  2.0080  0.1903
 2726TIP3    H2 8185   5.296   2.639   2.887 -1.3233  1.7930  0.2265
 2727TIP3   OH2 8186   4.041   4.331   0.245 -0.2319 -0.9262 -0.0037
 2727TIP3    H1 8187   3.970   4.353   0.304  1.0103  0.3141  1.0885
 2727TIP3    H2 8188   4.032   4.237   0.230 -0.3140 -1.3768  2.5383
 2728TIP3   OH2 8189   1.922   5.782   2.185  0.0218  0.1733  0.3039
 2728TIP3    H1 8190   1.842   5.805   2.232  0.5906 -1.7431  2.3969
 2728TIP3    H2 8191   1.967   5.866   2.172 -2.1320  1.2429 -0.6484
 2729TIP3   OH2 8192   4.177   0.450   0.978  0.5789  0.6894  0.3713
 2729TIP3    H1 8193   4.259   0.475   1.020  0.8691  1.7188 -0.7413
 2729TIP3    H2 8194   4.135   0.391   1.040  2.8268 -1.0753  0.3539
 2730TIP3   OH2 8195   4.395   0.379   4.030  0.2304  0.3727  0.1729
 2730TIP3    H1 8196   4.447   0.349   4.105 -1.1088  0.3470  1.1148
 2730TIP3    H2 8197   4.318   0.419   4.069 -0.4730  0.3992 -1.2061
 2731TIP3   OH2 8198   0.129   0.292   0.779 -0.5712  0.1801  0.0774
 2731TIP3    H1 8199   0.096   0.268   0.866 -0.5698  0.3134  0.1153
 2731TIP3    H2 8200   0.192   0.361   0.796  0.6278 -0.8965  0.1144
 2732TIP3   OH2 8201   1.544   5.723   4.513  0.6303  0.0771 -0.1510
 2732TIP3    H1 8202   1.593   5.681   4.442  1.0271 -0.7988  0.6133
 2732TIP3    H2 8203   1.562   5.668   4.590 -1.6003 -0.3225  0.1558
 2733TIP3   OH2 8204   1.710   0.660   4.637 -0.1261  0.1296 -0.5832
 2733TIP3    H1 8205   1.789   0.674   4.690 -1.1355 -0.2067  1.1169
 2733TIP3    H2 8206   1.724   0.574   4.596 -0.5321 -1.0491  1.5726
 2734TIP3   OH2 8207   0.140   3.740   0.663  0.1843 -0.1643  0.1299
 2734TIP3    H1 8208   0.135   3.799   0.738  0.2734 -1.1737  0.9455
 2734TIP3    H2 8209   0.234   3.730   0.646  0.1590  1.0049 -0.9109
 2735TIP3   OH2 8210   5.292   2.963   1.250  0.0478 -0.5701 -0.8051
 2735TIP3    H1 8211   5.256   3.004   1.171 -1.1741 -0.0929 -0.0366
 2735TIP3    H2 8212   5.288   2.869   1.232 -1.6982 -0.5385 -0.7368
 2736TIP3   OH2 8213   0.235   2.929   1.768 -0.0604 -0.1746  0.7132
 2736TIP3    H1 8214   0.269   2.846   1.733 -0.4021 -0.2690  0.5928
 2736TIP3    H2 8215   0.245   2.991   1.696  2.4235  0.5279  1.5630
 2737TIP3   OH2 8216   4.107   2.674   3.386 -0.0388 -0.1507  0.5262
 2737TIP3    H1 8217   4.174   2.662   3.319  0.4134 -1.5641  1.1910
 2737TIP3    H2 8218   4.049   2.599   3.376 -0.2436 -0.1154  1.3883
 2738TIP3   OH2 8219   0.376   2.102   4.894  0.6887  0.3304  0.1227
 2738TIP3    H1 8220   0.454   2.098   4.840  1.1940  2.0514  0.6870
 2738TIP3    H2 8221   0.303   2.102   4.831  1.1607 -0.1233 -0.4366
 2739TIP3   OH2 8222   2.610   3.957   2.534  0.5436 -0.1179  0.0374
 2739TIP3    H1 8223   2.564   3.982   2.614 -0.7122 -0.2169 -0.6252
 2739TIP3    H2 8224   2.672   4.028   2.518 -0.2123  0.6105  0.3162
 2740TIP3   OH2 8225   2.554   0.386   4.463 -0.1843  0.2123 -0.3432
 2740TIP3    H1 8226   2.575   0.385   4.369 -0.6691 -1.1267 -0.4646
 2740TIP3    H2 8227   2.638   0.370   4.506 -0.2175 -0.8762 -0.6424
 2741TIP3   OH2 8228   4.266   0.707   2.994  0.3827 -0.1798  0.2929
 2741TIP3    H1 8229   4.222   0.658   2.925  1.5828  0.3170 -0.8706
 2741TIP3    H2 8230   4.222   0.793   2.993  2.1694  0.8147 -1.8341
 2742TIP3   OH2 8231   5.754   5.980   1.980  0.0711  0.2526 -0.0274
 2742TIP3    H1 8232   5.761   6.028   1.897 -0.2388 -1.3240 -1.0048
 2742TIP3    H2 8233   5.828   5.920   1.980 -0.2134 -0.1163  0.5997
 2743TIP3   OH2 8234   0.681   4.999   3.117  0.1484  0.3917 -0.8934
 2743TIP3    H1 8235   0.591   4.989   3.087  0.3511  0.7233 -1.6318
 2743TIP3    H2 8236   0.673   5.024   3.209 -0.4909 -0.3567 -0.7293
 2744TIP3   OH2 8237   6.335   3.574   4.792 -0.4746  0.1161 -0.6107
 2744TIP3    H1 8238   6.255   3.525   4.811 -0.4168  0.1214 -0.3481
 2744TIP3    H2 8239   6.308   3.640   4.728 -0.8261  0.5512 -0.0145
 2745TIP3   OH2 8240   1.433   1.419   2.264  0.0292 -0.2503  0.0882
 2745TIP3    H1 8241   1.501   1.486   2.274  0.3880 -0.6571  0.3711
 2745TIP3    H2 8242   1.417   1.416   2.169 -1.8601  2.0759  0.2271
 2746TIP3   OH2 8243   4.285   5.040   4.309  0.0949  0.2601  0.2167
 2746TIP3    H1 8244   4.256   5.131   4.305  0.9052  0.4928 -1.1027
 2746TIP3    H2 8245   4.272   5.006   4.220  0.6529 -0.6339  0.4569
 2747TIP3   OH2 8246   1.226   5.072   2.802 -0.2571  0.5916 -0.0242
 2747TIP3    H1 8247   1.295   5.139   2.803  2.0828 -1.6628 -0.8537
 2747TIP3    H2 8248   1.210   5.056   2.709  0.7845 -1.4373  0.0962
 2748TIP3   OH2 8249   2.010   3.116   1.046 -0.2084  0.3375  0.6147
 2748TIP3    H1 8250   2.025   3.068   1.127  0.9769 -0.0822  0.1564
 2748TIP3    H2 8251   2.093   3.112   0.999 -0.4068  1.9096  0.0728
 2749TIP3   OH2 8252   2.626   3.082   1.986 -0.2883 -0.1042 -0.3171
 2749TIP3    H1 8253   2.657   3.107   1.899  0.0832  0.8091  0.0660
 2749TIP3    H2 8254   2.703   3.043   2.028 -0.1947  0.3739 -0.0459
 2750TIP3   OH2 8255   2.921   3.994   4.379  0.3414  0.2846  0.1072
 2750TIP3    H1 8256   2.874   3.914   4.405  1.0701 -0.4262 -0.6829
 2750TIP3    H2 8257   2.975   4.016   4.455  0.7778 -0.4812  0.0340
 2751TIP3   OH2 8258   1.956   5.537   3.709  0.2104 -0.1085 -0.1449
 2751TIP3    H1 8259   2.021   5.474   3.739 -0.0785 -1.0831 -1.4768
 2751TIP3    H2 8260   1.934   5.508   3.621 -0.1147  1.7317 -0.7033
 2752TIP3   OH2 8261   3.186   5.276   0.372 -0.2310 -0.1122 -0.5789
 2752TIP3    H1 8262   3.230   5.336   0.312  0.3715 -0.2316 -0.2625
 2752TIP3    H2 8263   3.192   5.318   0.457 -1.1250  0.0756 -0.5902
 2753TIP3   OH2 8264   3.427   2.640   1.324 -0.0912  0.2829  0.0308
 2753TIP3    H1 8265   3.386   2.583   1.389  2.0209 -1.0069  0.3498
 2753TIP3    H2 8266   3.396   2.728   1.346 -0.2731 -0.2398  2.1311
 2754TIP3   OH2 8267   4.704   1.287   4.665  0.0017 -0.0697 -0.4138
 2754TIP3    H1 8268   4.735   1.251   4.582  1.0907 -1.6504  0.6278
 2754TIP3    H2 8269   4.620   1.244   4.680 -0.3572  0.4699 -0.8418
 2755TIP3   OH2 8270   4.336   3.372   2.283 -0.4194  0.1006  0.3889
 2755TIP3    H1 8271   4.279   3.297   2.264 -1.3112  0.4192  1.7149
 2755TIP3    H2 8272   4.313   3.398   2.372  1.1093  0.8782  0.5874
 2756TIP3   OH2 8273   6.198   2.949   1.280  0.4356  0.2970  0.0298
 2756TIP3    H1 8274   6.145   3.013   1.328  0.3044  1.5167 -1.6656
 2756TIP3    H2 8275   6.285   2.956   1.318 -0.3503 -1.1850  2.3353
 2757TIP3   OH2 8276   5.872   3.238   3.065  0.2023 -0.0982  0.2661
 2757TIP3    H1 8277   5.801   3.276   3.013 -0.4174 -0.4931  0.8139
 2757TIP3    H2 8278   5.949   3.249   3.010 -0.1386  1.0188 -0.0281
 2758TIP3   OH2 8279   4.867   1.914   4.335 -0.0025  0.1216  0.1360
 2758TIP3    H1 8280   4.961   1.908   4.315 -0.4928  1.0283 -3.1425
 2758TIP3    H2 8281   4.857   2.000   4.375  0.3381  1.1136 -1.7770
 2759TIP3   OH2 8282   0.864   4.426   5.051  0.4534 -0.4248 -0.3318
 2759TIP3    H1 8283   0.820   4.508   5.074 -1.3275 -1.2384 -0.6721
 2759TIP3    H2 8284   0.938   4.422   5.111 -2.5572 -1.2441  3.8042
 2760TIP3   OH2 8285   1.666   4.864   4.527  0.2523 -0.1403 -0.5171
 2760TIP3    H1 8286   1.737   4.827   4.578  1.9659  0.9061 -2.0286
 2760TIP3    H2 8287   1.643   4.795   4.464  1.0766  0.1024 -1.0950
 2761TIP3   OH2 8288   3.369   3.046   3.478  0.0827  0.6280  0.2374
 2761TIP3    H1 8289   3.398   3.136   3.462  1.0227  0.5576  1.4303
 2761TIP3    H2 8290   3.292   3.036   3.422 -0.6507  2.5086  0.8308
 2762TIP3   OH2 8291   4.921   5.089   0.157  0.5417 -0.0998 -0.0056
 2762TIP3    H1 8292   4.965   5.007   0.136  2.3425  1.3472 -2.3967
 2762TIP3    H2 8293   4.992   5.150   0.176 -0.7135  1.0997  1.0008
 2763TIP3   OH2 8294   1.651   5.068   4.740 -0.2633  0.1992  0.5352
 2763TIP3    H1 8295   1.608   5.016   4.807  0.7281  0.1790  1.1724
 2763TIP3    H2 8296   1.659   5.009   4.665 -1.2032  0.1658  0.4435
 2764TIP3   OH2 8297   1.458   0.277   4.490 -0.1082 -0.4843  0.0355
 2764TIP3    H1 8298   1.432   0.263   4.581  1.4639 -0.2914  0.5415
 2764TIP3    H2 8299   1.388   0.332   4.454 -1.6502 -1.9895  0.6081
 2765TIP3   OH2 8300   2.641   4.846   1.319 -0.2711  0.0080 -0.1188
 2765TIP3    H1 8301   2.611   4.878   1.235  0.0794 -0.1823 -0.3185
 2765TIP3    H2 8302   2.608   4.910   1.383 -0.8750 -0.0640 -0.3553
 2766TIP3   OH2 8303   3.603   1.617   0.423 -0.1053  0.1775 -0.1831
 2766TIP3    H1 8304   3.559   1.588   0.503 -0.5732 -0.9947 -0.8335
 2766TIP3    H2 8305   3.635   1.536   0.383  3.4651  0.9997  0.6489
 2767TIP3   OH2 8306   0.754   0.764   2.484  0.2325  0.1939 -0.5040
 2767TIP3    H1 8307   0.704   0.777   2.403 -1.9772 -2.6308  0.2518
 2767TIP3    H2 8308   0.793   0.677   2.474 -1.4335 -0.9371  2.0404
 2768TIP3   OH2 8309   4.086   4.388   4.449 -0.0332 -0.1853 -0.3055
 2768TIP3    H1 8310   4.038   4.470   4.464  1.5986  0.8106 -0.2956
 2768TIP3    H2 8311   4.175   4.406   4.479  0.5221 -1.7629 -0.9000
 2769TIP3   OH2 8312   5.436   2.428   4.608 -0.7570  0.2083 -0.2584
 2769TIP3    H1 8313   5.350   2.467   4.625 -0.7026  0.3281 -0.2545
 2769TIP3    H2 8314   5.479   2.490   4.549 -0.7989 -0.0154 -0.5272
 2770TIP3   OH2 8315   0.298   2.281   2.166 -0.3962 -0.6221  0.4914
 2770TIP3    H1 8316   0.265   2.276   2.076 -1.0392  1.4619  0.5598
 2770TIP3    H2 8317   0.323   2.373   2.177 -0.3346 -0.8366  2.4453
 2771TIP3   OH2 8318   3.445   0.771   0.118 -0.0686 -0.5263  0.0072
 2771TIP3    H1 8319   3.491   0.687   0.125 -0.6231 -1.0971 -2.4795
 2771TIP3    H2 8320   3.356   0.752   0.146  0.0775 -0.4660  0.5360
 2772TIP3   OH2 8321   2.266   5.038   3.785  0.1335  0.0851 -0.3182
 2772TIP3    H1 8322   2.239   5.099   3.854 -0.3827  1.4247 -1.6442
 2772TIP3    H2 8323   2.206   4.964   3.793 -0.2463  0.4571  0.3446
 2773TIP3   OH2 8324   4.338   1.878   0.206  0.8643  0.4299  0.0309
 2773TIP3    H1 8325   4.292   1.848   0.284 -0.7784  2.8240  0.0895
 2773TIP3    H2 8326   4.290   1.839   0.133  0.0166  1.2031  0.1564
 2774TIP3   OH2 8327   4.412   1.172   4.378  0.6908 -0.4821  0.3685
 2774TIP3    H1 8328   4.327   1.128   4.376  0.5358 -0.1859 -1.6100
 2774TIP3    H2 8329   4.467   1.119   4.320  0.8215  1.2539 -1.1799
 2775TIP3   OH2 8330   1.126   5.097   3.631 -0.2570 -0.0160 -0.2998
 2775TIP3    H1 8331   1.151   5.010   3.600  1.4991  1.2228 -2.7071
 2775TIP3    H2 8332   1.208   5.147   3.632 -0.4191  0.6731  4.8990
 2776TIP3   OH2 8333   0.973   0.120   2.747 -0.8733  0.0549 -0.0076
 2776TIP3    H1 8334   0.965   0.025   2.747 -3.4022  0.0533  3.7724
 2776TIP3    H2 8335   0.891   0.151   2.786  0.5957  3.6526  0.6282
 2777TIP3   OH2 8336   2.391   0.605   1.136 -0.0996 -0.2102  0.1963
 2777TIP3    H1 8337   2.354   0.662   1.069 -0.2097 -0.6480 -0.1206
 2777TIP3    H2 8338   2.445   0.663   1.189 -0.2815  0.2059 -0.0665
 2778TIP3   OH2 8339   2.135   3.530   1.612  0.1406  0.3534 -0.2965
 2778TIP3    H1 8340   2.125   3.535   1.518  1.5156 -0.2744 -0.5102
 2778TIP3    H2 8341   2.086   3.452   1.638 -2.2109  1.7804 -0.1106
 2779TIP3   OH2 8342   4.905   4.002   1.256 -0.3779 -0.0465  0.5318
 2779TIP3    H1 8343   4.987   4.047   1.235 -1.1164  0.7768 -0.7261
 2779TIP3    H2 8344   4.929   3.939   1.323  1.7056 -1.2802 -1.2513
 2780TIP3   OH2 8345   0.898   1.286   0.972 -0.1075  0.5380  0.2483
 2780TIP3    H1 8346   0.986   1.317   0.952 -0.4077  2.0792  1.1081
 2780TIP3    H2 8347   0.873   1.334   1.051 -1.3490 -0.5950  0.5832
 2781TIP3   OH2 8348   5.574   4.384   2.322 -0.3967 -0.2230 -1.0242
 2781TIP3    H1 8349   5.582   4.465   2.270  0.5949  0.8298  0.6890
 2781TIP3    H2 8350   5.506   4.405   2.387 -1.2134 -1.3280 -1.4915
 2782TIP3   OH2 8351   5.867   1.764   5.080  0.7485 -0.5914  0.4095
 2782TIP3    H1 8352   5.788   1.710   5.087  1.1104 -1.2856 -0.5823
 2782TIP3    H2 8353   5.855   1.814   4.999  1.1298 -0.3858  0.4789
 2783TIP3   OH2 8354   5.552   2.270   2.469 -0.2393 -0.2529  0.1181
 2783TIP3    H1 8355   5.535   2.363   2.479  0.1682 -0.1072 -0.4648
 2783TIP3    H2 8356   5.472   2.234   2.431  0.1821  0.1663 -1.2322
 2784TIP3   OH2 8357   3.960   5.532   3.325 -0.2977 -0.6174  0.0435
 2784TIP3    H1 8358   4.039   5.577   3.294 -0.9688 -0.3471 -1.3819
 2784TIP3    H2 8359   3.993   5.451   3.363  0.6765 -0.5465 -0.5851
 2785TIP3   OH2 8360   5.027   4.282   2.879  0.2496  0.0551  0.6432
 2785TIP3    H1 8361   5.028   4.368   2.920  1.5255  0.2352  0.2749
 2785TIP3    H2 8362   4.978   4.294   2.798  2.2257  0.9896 -0.4872
 2786TIP3   OH2 8363   4.881   0.824   3.320  0.1845  0.1499 -0.7501
 2786TIP3    H1 8364   4.889   0.793   3.230  0.0877  0.4499 -0.8632
 2786TIP3    H2 8365   4.961   0.875   3.335 -0.0596  0.5712 -0.8564
 2787TIP3   OH2 8366   5.906   5.123   4.153 -0.0736  0.2107  0.3885
 2787TIP3    H1 8367   5.994   5.087   4.145  0.0527  0.3490  1.0363
 2787TIP3    H2 8368   5.882   5.151   4.065 -0.1710 -1.4308 -0.1240
 2788TIP3   OH2 8369   4.585   0.524   4.324 -0.1211 -0.0561  0.1565
 2788TIP3    H1 8370   4.517   0.470   4.364 -0.1525  1.1621  1.8997
 2788TIP3    H2 8371   4.544   0.563   4.248 -1.0403 -0.1930  0.5722
 2789TIP3   OH2 8372   5.859   1.812   0.168  0.6800  0.1179 -0.5451
 2789TIP3    H1 8373   5.887   1.722   0.182 -0.2635  0.1320  1.8499
 2789TIP3    H2 8374   5.764   1.806   0.157  0.6808  0.7746 -0.9685
 2790TIP3   OH2 8375   6.057   0.520   3.294  0.4477  0.0780 -0.2958
 2790TIP3    H1 8376   6.128   0.520   3.230 -0.4019 -2.3616 -1.3756
 2790TIP3    H2 8377   5.978   0.502   3.242 -0.7988  1.4559  1.0268
 2791TIP3   OH2 8378   0.630   3.120   1.705  0.1015  0.0065 -0.2461
 2791TIP3    H1 8379   0.725   3.121   1.716  0.1464  0.3645 -0.6632
 2791TIP3    H2 8380   0.602   3.209   1.728 -0.2403 -0.3441  0.7802
 2792TIP3   OH2 8381   1.898   3.605   5.041  0.1997  0.2032 -0.2726
 2792TIP3    H1 8382   1.909   3.690   5.083 -1.6473  0.2249  0.2614
 2792TIP3    H2 8383   1.850   3.624   4.961  1.3316 -0.1560 -1.0541
 2793TIP3   OH2 8384   1.822   1.485   2.992  1.1483  0.0412  0.1991
 2793TIP3    H1 8385   1.795   1.505   3.082  0.7962 -0.8621  0.3068
 2793TIP3    H2 8386   1.839   1.571   2.953 -0.0867  0.5511  0.6967
 2794TIP3   OH2 8387   4.567   5.868   4.036 -0.2190 -0.3317  0.0011
 2794TIP3    H1 8388   4.558   5.888   3.943  0.9369 -0.4976 -0.1545
 2794TIP3    H2 8389   4.649   5.820   4.043 -0.4297 -0.5629  1.0745
 2795TIP3   OH2 8390   3.986   5.543   3.976 -0.1954 -0.0278  0.6068
 2795TIP3    H1 8391   4.025   5.565   4.061  1.8124  0.1750 -0.3182
 2795TIP3    H2 8392   3.993   5.624   3.925  1.1745 -0.8771 -0.6316
 2796TIP3   OH2 8393   5.584   3.732   1.279  0.1000 -0.0730 -0.0925
 2796TIP3    H1 8394   5.516   3.718   1.215 -1.2182  1.0636  0.9877
 2796TIP3    H2 8395   5.593   3.648   1.325 -3.1689  0.6183  2.1184
 2797TIP3   OH2 8396   0.176   3.100   2.796 -0.1977  0.4197  0.2793
 2797TIP3    H1 8397   0.219   3.027   2.751  0.3219 -0.6630  2.3780
 2797TIP3    H2 8398   0.246   3.140   2.848 -0.8080  1.4713  0.3001
 2798TIP3   OH2 8399   0.273   5.090   0.741 -0.1098  0.1869  0.0046
 2798TIP3    H1 8400   0.197   5.089   0.799 -0.7504  3.9013 -0.5446
 2798TIP3    H2 8401   0.268   5.007   0.693 -1.1194 -1.7573  3.1381
 2799TIP3   OH2 8402   2.737   2.201   0.981  0.3781 -0.1764  0.3710
 2799TIP3    H1 8403   2.822   2.167   1.009  0.6534  0.0844 -0.1368
 2799TIP3    H2 8404   2.682   2.194   1.059  1.0435  0.2422  0.8904
 2800TIP3   OH2 8405   0.634   3.891   2.682  0.1577 -0.4432  0.2317
 2800TIP3    H1 8406   0.572   3.818   2.672 -1.7043  1.1581 -0.4670
 2800TIP3    H2 8407   0.686   3.890   2.602  0.9733 -1.6920  0.7455
 2801TIP3   OH2 8408   0.801   1.502   1.155 -0.1436 -0.2771  0.1918
 2801TIP3    H1 8409   0.770   1.563   1.089 -0.3040  1.6181  1.9342
 2801TIP3    H2 8410   0.744   1.516   1.231 -1.9387 -4.4481 -0.0852
 2802TIP3   OH2 8411   1.808   2.692   3.697 -0.2039  0.1301  0.1378
 2802TIP3    H1 8412   1.876   2.628   3.675 -0.4079 -0.0581  0.0542
 2802TIP3    H2 8413   1.726   2.646   3.682 -0.3554 -0.1294  1.6801
 2803TIP3   OH2 8414   5.349   2.581   3.243 -0.3855  0.2246  0.0446
 2803TIP3    H1 8415   5.434   2.613   3.212 -0.4206 -0.9404 -1.3766
 2803TIP3    H2 8416   5.287   2.649   3.216 -0.2083 -0.0629 -1.1252
 2804TIP3   OH2 8417   3.288   3.272   4.842  0.6726 -0.6033 -0.2609
 2804TIP3    H1 8418   3.257   3.201   4.897 -0.8320 -0.6814 -1.1766
 2804TIP3    H2 8419   3.315   3.230   4.761  0.1313 -0.1747 -0.6668
 2805TIP3   OH2 8420   0.624   0.818   0.326  0.0733  0.2242  0.1549
 2805TIP3    H1 8421   0.579   0.735   0.306 -0.0442  0.3434 -0.0825
 2805TIP3    H2 8422   0.562   0.885   0.298  0.4121  0.3899 -0.2106
 2806TIP3   OH2 8423   2.633   2.959   4.957 -0.1418  0.6689  0.4537
 2806TIP3    H1 8424   2.601   2.929   5.042 -0.4397  0.2232  0.1913
 2806TIP3    H2 8425   2.670   2.880   4.917 -0.9080  0.6460 -0.2398
 2807TIP3   OH2 8426   3.050   3.617   4.489  0.1818  0.0893 -0.2211
 2807TIP3    H1 8427   3.074   3.527   4.511  0.4422 -0.1369 -1.3510
 2807TIP3    H2 8428   2.999   3.610   4.409 -1.0304  0.8499  0.4436
 2808TIP3   OH2 8429   0.181   0.584   2.455 -0.5413 -0.5361  0.3399
 2808TIP3    H1 8430   0.155   0.573   2.547  1.9861 -0.4684  1.1157
 2808TIP3    H2 8431   0.197   0.678   2.446  0.0411 -0.6566  0.0726
 2809TIP3   OH2 8432   1.155   3.042   3.265  0.0518 -0.1962 -0.7263
 2809TIP3    H1 8433   1.107   2.961   3.250 -3.0138  1.2000  0.6045
 2809TIP3    H2 8434   1.115   3.106   3.206  1.0540  0.7992 -0.3760
 2810TIP3   OH2 8435   2.146   2.041   0.846 -0.0608  0.4834  0.0671
 2810TIP3    H1 8436   2.169   2.033   0.753 -0.8627 -2.0323 -0.0010
 2810TIP3    H2 8437   2.052   2.059   0.846 -0.2315 -0.3490  0.3590
 2811TIP3   OH2 8438   4.736   0.258   2.528 -0.2305 -0.2075  0.0144
 2811TIP3    H1 8439   4.671   0.272   2.597  0.1788  1.5233  0.0867
 2811TIP3    H2 8440   4.820   0.260   2.573 -0.0271 -0.4347 -0.3492
 2812TIP3   OH2 8441   3.577   2.920   4.347 -0.0356 -0.2656  0.1827
 2812TIP3    H1 8442   3.649   2.937   4.407 -1.8307 -0.1762  2.4499
 2812TIP3    H2 8443   3.553   2.829   4.365 -1.9509  0.3982  1.2138
 2813TIP3   OH2 8444   3.433   2.615   5.140  0.0362 -0.4389 -0.2011
 2813TIP3    H1 8445   3.435   2.596   5.233  2.4946 -0.5932 -0.2215
 2813TIP3    H2 8446   3.448   2.709   5.133  0.9624 -0.5878 -0.4320
 2814TIP3   OH2 8447   0.807   0.154   3.158  0.0265  0.2106  0.2212
 2814TIP3    H1 8448   0.744   0.222   3.134  0.4985  0.6643  0.2653
 2814TIP3    H2 8449   0.800   0.090   3.087 -0.2372  0.4255  0.0485
 2815TIP3   OH2 8450   0.726   5.678   2.130 -0.1340  0.1321  0.6963
 2815TIP3    H1 8451   0.715   5.708   2.221  2.4248 -2.4939  2.0365
 2815TIP3    H2 8452   0.782   5.744   2.090  0.4287  0.3045  1.7152
 2816TIP3   OH2 8453   0.206  -0.007   0.818 -0.6977 -0.0001 -0.2476
 2816TIP3    H1 8454   0.248   0.031   0.895 -2.1818 -1.2305  1.2593
 2816TIP3    H2 8455   0.160   0.067   0.777  1.8988  1.1331 -1.3139
 2817TIP3   OH2 8456   0.055   4.298   0.916 -0.0265 -0.0563  0.1970
 2817TIP3    H1 8457   0.136   4.346   0.929 -0.9497  2.3936 -2.0420
 2817TIP3    H2 8458   0.066   4.255   0.831 -0.9476  0.0297  0.0259
 2818TIP3   OH2 8459   3.261   0.646   0.264 -0.1122 -0.5511 -0.4379
 2818TIP3    H1 8460   3.202   0.574   0.245 -0.1939 -0.7924  0.7035
 2818TIP3    H2 8461   3.256   0.658   0.359  1.9596 -0.8476 -0.2415
 2819TIP3   OH2 8462   2.329   0.848   0.918 -0.2053  0.3889  0.2739
 2819TIP3    H1 8463   2.264   0.824   0.852 -1.0775  0.2241  1.1637
 2819TIP3    H2 8464   2.365   0.931   0.887 -0.3003  0.1001 -0.6190
 2820TIP3   OH2 8465   5.076   5.092   3.598  0.2057 -0.1429  0.3827
 2820TIP3    H1 8466   5.095   5.068   3.689 -0.7086  0.3624  0.7239
 2820TIP3    H2 8467   4.980   5.090   3.593  0.2142  0.8495 -0.2845
 2821TIP3   OH2 8468   0.690   0.974   0.745  0.1060 -0.2537  0.0442
 2821TIP3    H1 8469   0.742   0.902   0.780  1.5354  0.4560 -0.5153
 2821TIP3    H2 8470   0.698   1.043   0.810  1.0445  0.3353 -0.6613
 2822TIP3   OH2 8471   2.949   3.498   3.353 -0.5351 -0.9493  0.2383
 2822TIP3    H1 8472   2.962   3.486   3.259  0.5878 -1.8050  0.4892
 2822TIP3    H2 8473   2.994   3.424   3.394 -0.2940 -0.1442  1.4950
 2823TIP3   OH2 8474   4.372   5.928   4.275  0.0822 -0.1258 -0.2248
 2823TIP3    H1 8475   4.423   5.913   4.195 -1.1272 -1.7671 -0.7246
 2823TIP3    H2 8476   4.438   5.941   4.343  1.1410  1.1574 -1.4275
 2824TIP3   OH2 8477   4.094   5.520   2.707  0.1283 -0.2616  1.0326
 2824TIP3    H1 8478   4.009   5.532   2.664 -0.0689 -0.2960  1.4041
 2824TIP3    H2 8479   4.157   5.563   2.649 -0.0844 -0.5984  0.5422
 2825TIP3   OH2 8480   0.211   5.757   1.154 -0.1720 -0.2216  0.1275
 2825TIP3    H1 8481   0.251   5.778   1.069 -1.4813  0.2066 -0.4090
 2825TIP3    H2 8482   0.146   5.690   1.134 -0.2165 -0.4162  0.8763
 2826TIP3   OH2 8483   0.330   3.808   1.030  0.0609  0.1334  0.5730
 2826TIP3    H1 8484   0.420   3.821   1.057 -0.0398  0.4609  0.7542
 2826TIP3    H2 8485   0.310   3.718   1.055  1.0087 -0.6794 -1.3931
 2827TIP3   OH2 8486   3.716   3.849   4.842  0.2425 -0.0597 -0.0050
 2827TIP3    H1 8487   3.798   3.860   4.793  0.6804  0.3933  0.8135
 2827TIP3    H2 8488   3.677   3.769   4.807  1.4653 -0.7645  0.2111
 2828TIP3   OH2 8489   5.225   4.613   3.905  0.1377  0.0682 -0.1028
 2828TIP3    H1 8490   5.302   4.593   3.852 -0.2641  0.0364 -0.6808
 2828TIP3    H2 8491   5.154   4.624   3.842 -0.1241  1.1004  0.3553
 2829TIP3   OH2 8492   3.065   4.113   3.510 -0.5453 -0.7497 -0.3704
 2829TIP3    H1 8493   3.006   4.188   3.519 -0.7248 -0.9655  0.3347
 2829TIP3    H2 8494   3.007   4.040   3.487 -0.7336 -1.2014  1.3933
 2830TIP3   OH2 8495   6.168   1.367   4.450  0.2924 -0.3123 -0.4989
 2830TIP3    H1 8496   6.173   1.363   4.546  0.1128 -1.3673 -0.5129
 2830TIP3    H2 8497   6.078   1.391   4.431  0.1486 -0.7582 -0.3992
 2831TIP3   OH2 8498   1.344   0.666   4.219 -0.4924 -0.2034  0.5694
 2831TIP3    H1 8499   1.303   0.751   4.232 -2.2533 -0.7625 -0.8808
 2831TIP3    H2 8500   1.350   0.656   4.124  1.8567 -0.7350  0.7121
 2832TIP3   OH2 8501   5.247   0.196   5.178 -0.0497  0.3810  0.3772
 2832TIP3    H1 8502   5.292   0.242   5.250 -1.7495 -0.9510  2.4273
 2832TIP3    H2 8503   5.278   0.240   5.099  2.2635  1.6629  1.8647
 2833TIP3   OH2 8504   4.305   3.567   0.026  0.2791 -0.5289 -0.8180
 2833TIP3    H1 8505   4.355   3.518  -0.039  0.1023 -1.1626 -0.4900
 2833TIP3    H2 8506   4.237   3.506   0.055 -0.0408 -0.0350 -0.5062
 2834TIP3   OH2 8507   3.848   5.298   1.086  0.2150 -0.4193 -0.3978
 2834TIP3    H1 8508   3.863   5.308   0.992  0.6143 -0.4576 -0.3371
 2834TIP3    H2 8509   3.935   5.284   1.123  0.2214  0.9060  0.1357
 2835TIP3   OH2 8510   3.709   5.131   1.370  0.5606  0.0650  0.7017
 2835TIP3    H1 8511   3.782   5.181   1.334 -0.1843  0.3748 -0.4346
 2835TIP3    H2 8512   3.717   5.044   1.331 -0.6433  0.5985 -0.8534
 2836TIP3   OH2 8513   2.494   2.890   0.096  0.3149 -0.2231  0.0413
 2836TIP3    H1 8514   2.534   2.841   0.023  1.1309  0.9387 -0.3224
 2836TIP3    H2 8515   2.540   2.974   0.096  2.0979 -1.0361  3.4549
 2837TIP3   OH2 8516   5.246   4.809   0.711 -0.0837 -0.1749 -0.6623
 2837TIP3    H1 8517   5.166   4.794   0.763 -1.2200  1.1538 -1.9340
 2837TIP3    H2 8518   5.228   4.767   0.627  1.3582 -1.4805 -0.3726
 2838TIP3   OH2 8519   2.146   4.229   1.978  0.1009 -0.2019 -0.3083
 2838TIP3    H1 8520   2.174   4.144   2.012  1.3969  0.2921 -0.0553
 2838TIP3    H2 8521   2.151   4.287   2.054  1.7625  0.6383 -0.9980
 2839TIP3   OH2 8522   4.330   5.296   1.060 -0.5061 -0.4483 -0.3835
 2839TIP3    H1 8523   4.287   5.290   1.145  2.3390 -1.1768  1.1369
 2839TIP3    H2 8524   4.372   5.382   1.060  0.0718 -0.7238 -0.7538
 2840TIP3   OH2 8525   4.386   4.591   3.024  0.4114  0.5899 -0.6127
 2840TIP3    H1 8526   4.365   4.585   2.931 -0.4712 -0.2355 -0.3723
 2840TIP3    H2 8527   4.410   4.683   3.037  0.6092  0.6972 -1.6663
 2841TIP3   OH2 8528   0.006   4.076   3.891 -0.6267  0.0033 -0.2239
 2841TIP3    H1 8529   0.040   4.036   3.812  0.8194  0.7409 -0.0174
 2841TIP3    H2 8530   0.083   4.088   3.947 -1.4564  0.4411  0.8698
 2842TIP3   OH2 8531   1.970   3.354   0.875  0.3533  0.2343  0.4706
 2842TIP3    H1 8532   2.062   3.339   0.854 -0.1494 -1.1843 -0.8565
 2842TIP3    H2 8533   1.943   3.275   0.922 -0.9365 -0.7350 -1.7853
 2843TIP3   OH2 8534   2.432   5.325   2.677 -0.2797  0.3486 -0.0783
 2843TIP3    H1 8535   2.442   5.337   2.582 -0.0750 -2.1451 -0.4295
 2843TIP3    H2 8536   2.338   5.335   2.693 -0.3775  0.3119 -0.6116
 2844TIP3   OH2 8537   3.241   4.466   3.757 -0.0205  0.0441  0.1409
 2844TIP3    H1 8538   3.291   4.403   3.808  1.3566 -0.5938 -1.8867
 2844TIP3    H2 8539   3.306   4.531   3.729 -0.3952 -0.4259 -1.9745
 2845TIP3   OH2 8540   6.218   4.969   4.935 -0.0632  0.3043 -0.0320
 2845TIP3    H1 8541   6.239   4.897   4.875 -1.1262  0.0308 -0.1057
 2845TIP3    H2 8542   6.128   4.951   4.963 -0.3972  1.6821 -0.1459
 2846TIP3   OH2 8543   1.219   0.333   5.125 -0.0304 -0.2635 -0.0666
 2846TIP3    H1 8544   1.158   0.281   5.178 -1.1923  0.2720 -0.8399
 2846TIP3    H2 8545   1.180   0.334   5.038  1.8317 -1.1011 -0.9658
 2847TIP3   OH2 8546   3.755   5.406   2.308 -0.2454  0.2825  0.0734
 2847TIP3    H1 8547   3.753   5.345   2.234  1.4663  0.2219  0.0311
 2847TIP3    H2 8548   3.705   5.362   2.377 -0.6012 -0.3244 -0.5572
 2848TIP3   OH2 8549   2.612   5.105   0.447 -0.3468  0.2261  0.8439
 2848TIP3    H1 8550   2.675   5.161   0.492  1.0299 -1.2514  0.8543
 2848TIP3    H2 8551   2.569   5.056   0.517  2.0865 -2.3776  0.7271
 2849TIP3   OH2 8552   2.511   5.487   4.383 -0.1656 -0.5394  0.2758
 2849TIP3    H1 8553   2.473   5.454   4.464  0.7610 -0.6421  0.6904
 2849TIP3    H2 8554   2.604   5.496   4.403 -0.3501  2.3483  0.2131
 2850TIP3   OH2 8555   4.281   3.618   0.404  0.7375 -0.2335  0.3593
 2850TIP3    H1 8556   4.344   3.647   0.338  1.1846 -2.0217 -0.0602
 2850TIP3    H2 8557   4.333   3.598   0.481  0.7526 -1.9211 -0.0585
 2851TIP3   OH2 8558   6.025  -0.000   0.004 -0.1887 -0.1594 -0.0918
 2851TIP3    H1 8559   6.052   0.061   0.072  0.6037 -0.7983  0.1905
 2851TIP3    H2 8560   6.091   0.010  -0.065  0.1894 -0.9773  0.1384
 2852TIP3   OH2 8561   3.391   0.696   3.561  0.1491  0.1101 -0.3913
 2852TIP3    H1 8562   3.435   0.748   3.627  0.2236  1.1280 -1.2064
 2852TIP3    H2 8563   3.340   0.759   3.511 -1.8286 -0.9460  0.1788
 2853TIP3   OH2 8564   3.929   1.126   5.136  0.0089  0.0603 -0.2238
 2853TIP3    H1 8565   3.887   1.139   5.051  0.5064 -0.4822 -0.5608
 2853TIP3    H2 8566   3.997   1.060   5.119  0.6392  0.5349  0.4233
 2854TIP3   OH2 8567   3.835   5.411   4.638 -0.1896  0.2648  0.3138
 2854TIP3    H1 8568   3.886   5.335   4.610 -1.1881 -0.7961  1.2788
 2854TIP3    H2 8569   3.749   5.376   4.659 -1.4048  2.0376 -1.3902
 2855TIP3   OH2 8570   2.559   1.574   5.000  0.2457  0.6192 -0.2679
 2855TIP3    H1 8571   2.575   1.580   5.094  1.2551  0.7481 -0.4386
 2855TIP3    H2 8572   2.593   1.657   4.965 -2.2171  1.6228 -0.4916
 2856TIP3   OH2 8573   1.220   1.470   4.459 -0.3832  0.1373  0.6037
 2856TIP3    H1 8574   1.146   1.415   4.431  0.3927 -0.4541 -0.3603
 2856TIP3    H2 8575   1.277   1.411   4.507 -0.4919  0.5762  1.2795
 2857TIP3   OH2 8576   1.594   3.260   3.068  0.3872 -0.3513 -0.2263
 2857TIP3    H1 8577   1.594   3.272   2.973  0.9006 -0.8191 -0.2941
 2857TIP3    H2 8578   1.685   3.236   3.088 -0.3837 -3.6500 -0.0771
 2858TIP3   OH2 8579   1.978   0.664   0.793 -0.0175  0.1124  0.6620
 2858TIP3    H1 8580   1.995   0.751   0.827  0.1333  0.0652  0.7071
 2858TIP3    H2 8581   2.039   0.607   0.840 -0.9769 -0.2099  1.5632
 2859TIP3   OH2 8582   5.599   4.425   4.902  0.2986  0.4927 -0.0606
 2859TIP3    H1 8583   5.693   4.445   4.906  0.2706  0.4491  1.3898
 2859TIP3    H2 8584   5.568   4.440   4.991 -1.3163  1.6195 -0.7579
 2860TIP3   OH2 8585   5.362   0.114   3.350  0.0594 -0.1040  0.0877
 2860TIP3    H1 8586   5.448   0.079   3.326 -0.1390 -2.0194  1.9064
 2860TIP3    H2 8587   5.307   0.095   3.274  1.1986  1.1679 -1.1098
 2861TIP3   OH2 8588   4.820   1.250   5.070  0.4346  0.2908 -0.1328
 2861TIP3    H1 8589   4.879   1.215   5.004 -0.4584 -1.3439 -0.1100
 2861TIP3    H2 8590   4.739   1.201   5.059 -0.2627  1.0759  1.1541
 2862TIP3   OH2 8591   1.743   1.791   3.505  0.3801  0.3332 -0.3455
 2862TIP3    H1 8592   1.794   1.732   3.450 -0.2239 -0.7939  0.2596
 2862TIP3    H2 8593   1.686   1.837   3.444  0.1492 -0.4603 -0.7462
 2863TIP3   OH2 8594   4.918   4.620   4.937 -0.1531  0.0188 -0.2972
 2863TIP3    H1 8595   4.860   4.547   4.913  0.7303 -1.5372  1.9248
 2863TIP3    H2 8596   4.968   4.638   4.858 -1.2448 -0.9645 -1.2446
 2864TIP3   OH2 8597   2.240   4.947   0.083  0.0246 -0.1312  0.1543
 2864TIP3    H1 8598   2.216   4.927   0.173  0.4590 -0.2084  0.2554
 2864TIP3    H2 8599   2.289   5.029   0.088  0.8314 -0.5940  0.1081
 2865TIP3   OH2 8600   1.646   1.196   1.745  0.0705 -0.7927  0.3104
 2865TIP3    H1 8601   1.576   1.131   1.747 -0.8402  0.1509  2.3966
 2865TIP3    H2 8602   1.690   1.186   1.829  0.1129  1.0168  0.5412
 2866TIP3   OH2 8603   5.718   5.229   4.979  0.3113 -0.1736  0.0898
 2866TIP3    H1 8604   5.632   5.216   5.020  0.1908 -3.1863 -0.8873
 2866TIP3    H2 8605   5.779   5.180   5.034  1.0898  0.3103 -0.3220
 2867TIP3   OH2 8606   2.421   0.401   3.880 -0.3093  0.4240  0.2415
 2867TIP3    H1 8607   2.430   0.308   3.860 -0.4039  0.1254  1.5381
 2867TIP3    H2 8608   2.500   0.441   3.845 -0.5028 -0.0512 -0.7790
 2868TIP3   OH2 8609   5.591   3.913   0.630  0.0200 -0.5179 -0.1940
 2868TIP3    H1 8610   5.680   3.925   0.660 -0.1584  0.0823  0.1004
 2868TIP3    H2 8611   5.584   3.819   0.613 -0.4201 -1.3185  3.4923
 2869TIP3   OH2 8612   3.141   0.369   0.676 -0.3356  0.4811  0.1542
 2869TIP3    H1 8613   3.049   0.393   0.687 -0.5244  0.4064 -1.0991
 2869TIP3    H2 8614   3.144   0.325   0.591  1.0720  1.5353 -0.3700
 2870TIP3   OH2 8615   5.292   0.858   1.585  0.1387  0.2861 -0.1806
 2870TIP3    H1 8616   5.311   0.765   1.587 -0.0015  0.2603  1.3529
 2870TIP3    H2 8617   5.357   0.895   1.526  1.2725 -0.5723  0.4867
 2871TIP3   OH2 8618   5.655   1.394   1.922 -0.2814  0.1792  0.6028
 2871TIP3    H1 8619   5.745   1.405   1.952  0.4761 -1.1171 -1.0178
 2871TIP3    H2 8620   5.640   1.466   1.862  0.3831 -0.6605 -0.6059
 2872TIP3   OH2 8621   3.623   3.728   1.035 -0.1468  0.2744 -0.5212
 2872TIP3    H1 8622   3.667   3.660   0.985  1.3972  0.7948  0.0695
 2872TIP3    H2 8623   3.532   3.726   1.004  0.0486 -1.4812 -1.0926
 2873TIP3   OH2 8624   0.773   2.644   1.537  0.1374  0.0439  0.0789
 2873TIP3    H1 8625   0.858   2.689   1.538  0.4349 -0.4630  2.4032
 2873TIP3    H2 8626   0.737   2.657   1.625 -0.6458 -2.5994  0.2367
 2874TIP3   OH2 8627   5.707   4.596   1.344  0.2431 -0.2162 -0.6059
 2874TIP3    H1 8628   5.644   4.609   1.416  0.6073  0.4850 -0.4005
 2874TIP3    H2 8629   5.757   4.519   1.370 -0.1423 -0.4277 -0.4825
 2875TIP3   OH2 8630   3.451   1.516   1.842 -0.4318 -0.2075 -0.3181
 2875TIP3    H1 8631   3.506   1.440   1.862 -0.8158 -0.2755  0.4878
 2875TIP3    H2 8632   3.363   1.481   1.836 -0.7738  0.3268  1.1463
 2876TIP3   OH2 8633   3.143   4.665   4.984 -0.1675  0.1409  0.2658
 2876TIP3    H1 8634   3.108   4.733   5.042  0.8175  0.4987  0.4779
 2876TIP3    H2 8635   3.218   4.630   5.032  1.3153  1.1571 -1.1854
 2877TIP3   OH2 8636   1.464   1.482   0.272 -0.2319  0.1541  0.6108
 2877TIP3    H1 8637   1.445   1.408   0.215  0.3306  0.8788 -0.5542
 2877TIP3    H2 8638   1.472   1.557   0.212  1.2753  0.7795  1.5327
 2878TIP3   OH2 8639   2.576   5.188   3.507  0.3213 -0.2952 -0.4141
 2878TIP3    H1 8640   2.658   5.221   3.544  0.5550 -0.3981 -0.8269
 2878TIP3    H2 8641   2.543   5.261   3.454  0.0861 -0.2145 -0.1581
 2879TIP3   OH2 8642   4.018   3.054   4.996 -0.0359 -0.4511  0.1295
 2879TIP3    H1 8643   3.950   3.027   4.936 -0.4797  1.5985 -0.3806
 2879TIP3    H2 8644   3.973   3.109   5.060  1.0770  0.8005 -0.1127
 2880TIP3   OH2 8645   3.359   4.156   3.479 -0.3208  1.0184 -0.0758
 2880TIP3    H1 8646   3.294   4.090   3.503 -0.3125  1.8155  2.4460
 2880TIP3    H2 8647   3.436   4.105   3.454 -0.6252  0.0529  0.8600
 2881TIP3   OH2 8648   0.026   0.107   3.253  0.0972 -0.2470  0.7310
 2881TIP3    H1 8649   0.024   0.162   3.331  1.3804 -0.1758  0.7334
 2881TIP3    H2 8650   0.056   0.166   3.183 -0.1414 -0.5354  0.3835
 2882TIP3   OH2 8651   2.374   5.879   2.220 -0.3013  0.2238 -0.0545
 2882TIP3    H1 8652   2.299   5.935   2.238 -0.8904 -0.7593  0.6027
 2882TIP3    H2 8653   2.349   5.830   2.142 -1.0608 -1.3023  1.0994
 2883TIP3   OH2 8654   2.616   5.276   0.233 -0.0986  0.0828 -0.7486
 2883TIP3    H1 8655   2.712   5.278   0.237 -0.1515  0.5438  0.9214
 2883TIP3    H2 8656   2.590   5.212   0.298 -0.9603  0.6537 -0.5130
 2884TIP3   OH2 8657   2.205   5.732   4.333 -0.5525  0.2679  0.6631
 2884TIP3    H1 8658   2.159   5.686   4.263 -1.9470 -1.7357  2.7655
 2884TIP3    H2 8659   2.297   5.732   4.305 -1.2453  1.1682 -1.9460
 2885TIP3   OH2 8660   4.996   4.444   0.465  0.3383 -0.3351  0.6742
 2885TIP3    H1 8661   4.919   4.427   0.411  0.7318 -0.0143 -0.0076
 2885TIP3    H2 8662   4.991   4.381   0.536 -0.1321 -0.8461  0.1913
 2886TIP3   OH2 8663   5.160   0.464   0.471  0.0880 -0.0580  0.2911
 2886TIP3    H1 8664   5.121   0.539   0.428 -2.5584 -1.8943 -0.7388
 2886TIP3    H2 8665   5.244   0.452   0.427 -1.3103 -0.1985 -2.5040
 2887TIP3   OH2 8666   1.420   3.362   1.057  0.1946 -0.1188 -0.2367
 2887TIP3    H1 8667   1.380   3.301   0.995  0.9808 -0.7282 -0.1567
 2887TIP3    H2 8668   1.374   3.445   1.042  0.1494 -0.3338 -1.4051
 2888TIP3   OH2 8669   4.392   2.414   4.579  0.3645 -0.2273  0.4478
 2888TIP3    H1 8670   4.308   2.413   4.533 -0.5897  0.1555  2.0975
 2888TIP3    H2 8671   4.402   2.325   4.612  1.1188 -0.5413 -0.5835
 2889TIP3   OH2 8672   2.801   1.909   0.103 -0.0253 -0.3511 -0.1931
 2889TIP3    H1 8673   2.881   1.857   0.106  0.9461  1.1204  1.6199
 2889TIP3    H2 8674   2.777   1.921   0.195 -0.6620  1.6767 -0.5737
 2890TIP3   OH2 8675   5.621   0.225   4.032  0.4076 -0.5695 -0.1163
 2890TIP3    H1 8676   5.613   0.245   4.126 -1.2111 -0.7744 -0.1841
 2890TIP3    H2 8677   5.530   0.223   4.000  0.6305 -4.0191 -0.9568
 2891TIP3   OH2 8678   5.872   0.601   0.141 -0.4728 -0.2460 -0.1182
 2891TIP3    H1 8679   5.812   0.570   0.073  0.0061 -0.5401 -0.4070
 2891TIP3    H2 8680   5.936   0.654   0.095 -1.0148  0.8162  0.3169
 2892TIP3   OH2 8681   2.390   1.521   0.535  0.0487  0.0430  0.4326
 2892TIP3    H1 8682   2.419   1.581   0.604  1.2709 -2.5181  2.2830
 2892TIP3    H2 8683   2.463   1.519   0.473  0.5468 -0.4344  1.0176
 2893TIP3   OH2 8684   1.012   3.679   4.597  0.0241  0.0431 -0.9010
 2893TIP3    H1 8685   0.978   3.662   4.509  0.0627  0.2786 -0.9623
 2893TIP3    H2 8686   0.944   3.644   4.656  0.0436 -0.2032 -1.0217
 2894TIP3   OH2 8687   0.757   1.092   4.653  0.6329 -0.0665  0.2627
 2894TIP3    H1 8688   0.716   1.177   4.670 -0.0608 -0.1726 -0.7775
 2894TIP3    H2 8689   0.837   1.093   4.704 -0.8297 -0.0096  2.7219
 2895TIP3   OH2 8690   4.892   2.535   3.248  0.1711  0.1493  0.0974
 2895TIP3    H1 8691   4.834   2.540   3.324  1.4783 -0.9094  1.1860
 2895TIP3    H2 8692   4.980   2.544   3.283  0.9016 -1.8038 -1.0814
 2896TIP3   OH2 8693   5.976   2.079   4.223 -0.5837  0.5253 -0.0371
 2896TIP3    H1 8694   6.037   2.106   4.154  0.0436  0.3753  0.4417
 2896TIP3    H2 8695   5.903   2.039   4.177 -0.3708  0.8126 -0.6346
 2897TIP3   OH2 8696   4.934   3.429   2.908  0.3208 -0.3591 -0.9171
 2897TIP3    H1 8697   5.028   3.412   2.904  0.0367 -2.2898 -0.5558
 2897TIP3    H2 8698   4.916   3.442   3.001  0.2235  0.0173 -0.9872
 2898TIP3   OH2 8699   1.508   1.055   2.222 -0.0074 -0.6064  0.1625
 2898TIP3    H1 8700   1.570   1.003   2.273 -0.3266  0.5710  1.8596
 2898TIP3    H2 8701   1.561   1.126   2.185 -0.0647 -0.5061  0.2724
 2899TIP3   OH2 8702   2.611   5.664   1.503  0.1716  0.0117 -0.4622
 2899TIP3    H1 8703   2.550   5.601   1.541  1.2857 -0.6304  0.3100
 2899TIP3    H2 8704   2.580   5.749   1.533 -0.3346 -0.3024 -0.0780
 2900TIP3   OH2 8705   2.912   1.438   4.788  0.2026  0.2442 -0.5444
 2900TIP3    H1 8706   2.833   1.433   4.734  1.0312  0.8951 -1.9054
 2900TIP3    H2 8707   2.948   1.350   4.785 -0.7417 -0.1954  0.5456
 2901TIP3   OH2 8708   0.796   4.201   2.136  0.3735  0.1634  0.0080
 2901TIP3    H1 8709   0.726   4.136   2.141  0.0461  0.6175  2.1977
 2901TIP3    H2 8710   0.755   4.279   2.100  0.6501 -0.5984 -2.1402
 2902TIP3   OH2 8711   2.657   2.893   4.485  0.1171  0.1403  0.1377
 2902TIP3    H1 8712   2.734   2.869   4.433  0.8408  1.6606  0.4388
 2902TIP3    H2 8713   2.616   2.964   4.436 -0.1919  0.4073  0.7746
 2903TIP3   OH2 8714   4.143   4.843   0.030  0.1373 -0.3934  0.5382
 2903TIP3    H1 8715   4.132   4.928   0.071  0.6251  0.2945 -0.6949
 2903TIP3    H2 8716   4.228   4.848  -0.014  0.1628 -1.5117  0.4269
 2904TIP3   OH2 8717   5.613   1.274   2.717 -0.3410 -0.0790 -0.0246
 2904TIP3    H1 8718   5.578   1.360   2.693  0.9157  0.6541  0.5993
 2904TIP3    H2 8719   5.708   1.284   2.706 -0.1879 -1.4422 -0.0641
 2905TIP3   OH2 8720   5.639   0.533  -0.000  0.0217 -0.3026 -0.4260
 2905TIP3    H1 8721   5.640   0.451   0.049  0.0093 -0.3239 -0.4612
 2905TIP3    H2 8722   5.566   0.582   0.037 -0.8912 -0.9030 -1.3778
 2906TIP3   OH2 8723   1.494   2.105   4.299 -0.2505 -0.4127  0.1716
 2906TIP3    H1 8724   1.510   2.013   4.318 -1.6261 -0.7181 -0.0982
 2906TIP3    H2 8725   1.581   2.141   4.280  0.1685 -1.9112 -0.8611
 2907TIP3   OH2 8726   1.148   1.241   3.780  0.4927 -0.1050  0.2357
 2907TIP3    H1 8727   1.207   1.189   3.834 -0.8925  1.0620  3.0874
 2907TIP3    H2 8728   1.082   1.178   3.749 -0.1221 -0.4320  2.0880
 2908TIP3   OH2 8729   0.944   5.976   4.556  0.5237 -0.5957 -0.1134
 2908TIP3    H1 8730   0.986   5.915   4.496  2.1310  0.8639 -0.5326
 2908TIP3    H2 8731   1.014   6.034   4.585 -1.4106  3.4027 -2.5430
 2909TIP3   OH2 8732   3.812   2.904   0.205 -0.3917 -0.5752  0.2790
 2909TIP3    H1 8733   3.878   2.967   0.177 -0.0675 -1.0108  0.0467
 2909TIP3    H2 8734   3.811   2.837   0.136 -0.5771 -0.9356  0.6227
 2910TIP3   OH2 8735   6.215   2.235   0.802 -0.3275 -0.2699  0.3394
 2910TIP3    H1 8736   6.237   2.291   0.728 -0.5513 -1.0059 -0.2968
 2910TIP3    H2 8737   6.162   2.290   0.859 -1.4880 -0.1407 -0.8140
 2911TIP3   OH2 8738   1.699   4.648   3.765  0.2369  0.1458 -0.1609
 2911TIP3    H1 8739   1.726   4.612   3.849  0.6380 -0.2173 -0.4443
 2911TIP3    H2 8740   1.626   4.593   3.738  0.2187  0.1560 -0.1330
 2912TIP3   OH2 8741   6.104   3.561   2.843  0.2518 -0.5550  0.3320
 2912TIP3    H1 8742   6.077   3.632   2.784 -0.7147 -0.8751  0.3644
 2912TIP3    H2 8743   6.180   3.596   2.889 -0.0737  0.3853  0.1930
 2913TIP3   OH2 8744   0.938   0.824   2.679 -0.1269 -0.3428  0.0700
 2913TIP3    H1 8745   0.869   0.797   2.619 -0.7759  1.6680 -0.1606
 2913TIP3    H2 8746   0.979   0.899   2.636  3.1900 -2.2525 -0.4625
 2914TIP3   OH2 8747   5.101   2.138   3.810  0.3460 -0.4377 -0.1512
 2914TIP3    H1 8748   5.041   2.204   3.845 -0.6454 -0.6213 -1.4391
 2914TIP3    H2 8749   5.175   2.188   3.777  1.2390 -0.2459  1.9614
 2915TIP3   OH2 8750   5.424   2.666   4.901  0.1036  0.2871 -0.3915
 2915TIP3    H1 8751   5.345   2.637   4.947 -0.6745  1.3830 -0.9971
 2915TIP3    H2 8752   5.391   2.714   4.825  1.2667  3.5813  1.0143
 2916TIP3   OH2 8753   2.614   1.926   2.924 -0.6700  0.0379  0.2363
 2916TIP3    H1 8754   2.684   1.869   2.954 -1.0384 -0.0743  0.9078
 2916TIP3    H2 8755   2.557   1.937   3.000 -0.0530  2.1668  0.4601
 2917TIP3   OH2 8756   1.845   5.636   0.587 -0.5696  0.0691 -0.3085
 2917TIP3    H1 8757   1.868   5.591   0.506 -1.4118 -0.3818 -0.3094
 2917TIP3    H2 8758   1.902   5.597   0.653 -0.4146 -0.1029 -0.5416
 2918TIP3   OH2 8759   5.273   4.784   0.173  0.1339  0.3746 -0.8189
 2918TIP3    H1 8760   5.195   4.792   0.118 -0.7071  2.0072  0.5150
 2918TIP3    H2 8761   5.300   4.874   0.190  0.8174 -0.0918  0.7927
 2919TIP3   OH2 8762   4.878   3.720   1.759 -0.1295 -0.0429 -0.7627
 2919TIP3    H1 8763   4.802   3.671   1.725 -0.8228  0.4429  0.0537
 2919TIP3    H2 8764   4.933   3.652   1.800 -1.0708 -0.1712  0.3368
 2920TIP3   OH2 8765   1.902   2.122   2.909 -0.1406 -0.4481 -0.0171
 2920TIP3    H1 8766   1.904   2.063   2.834  0.4915 -0.9879  0.4026
 2920TIP3    H2 8767   1.813   2.157   2.911 -0.5618 -1.4860 -0.2077
 2921TIP3   OH2 8768   3.651   0.752   2.950 -0.2537  0.3317  0.4262
 2921TIP3    H1 8769   3.588   0.818   2.920 -0.4715 -0.4353 -0.8618
 2921TIP3    H2 8770   3.721   0.755   2.885 -0.3261 -0.7779  0.2760
 2922TIP3   OH2 8771   2.318   1.579   2.961  0.0440  0.0608 -0.7714
 2922TIP3    H1 8772   2.350   1.489   2.962  0.7093  0.2453 -2.3704
 2922TIP3    H2 8773   2.356   1.617   2.882 -1.0200  1.4600 -0.6461
 2923TIP3   OH2 8774   2.306   4.139   1.410  0.1396  0.1053  0.0541
 2923TIP3    H1 8775   2.251   4.086   1.468 -0.3773 -0.3065 -0.7775
 2923TIP3    H2 8776   2.393   4.136   1.449 -0.8400  2.8255  2.7949
 2924TIP3   OH2 8777   1.923   2.615   5.022  0.3969 -0.0221  0.0542
 2924TIP3    H1 8778   1.889   2.660   5.100  0.5571  1.7834 -0.8709
 2924TIP3    H2 8779   2.018   2.614   5.035  0.4997  1.0670 -0.4828
 2925TIP3   OH2 8780   1.964   0.914   2.831 -0.5083  0.6844  0.7980
 2925TIP3    H1 8781   2.004   0.876   2.753  0.5464 -2.1305  2.5240
 2925TIP3    H2 8782   1.870   0.901   2.819 -0.3232 -0.2222  0.2163
 2926TIP3   OH2 8783   3.027   5.269   2.936 -0.4347 -0.3897  0.0799
 2926TIP3    H1 8784   3.088   5.195   2.930 -0.1172 -0.1841  0.7020
 2926TIP3    H2 8785   2.942   5.231   2.913  0.0051 -0.5339 -1.4580
 2927TIP3   OH2 8786   3.104   4.186   2.059 -0.1030  0.1036  0.5874
 2927TIP3    H1 8787   3.097   4.281   2.057 -0.7880  0.0488 -0.2482
 2927TIP3    H2 8788   3.015   4.156   2.080  0.1498 -0.3481  1.0303
 2928TIP3   OH2 8789   3.688   3.073   1.298  0.5828 -0.2838 -0.4017
 2928TIP3    H1 8790   3.733   3.148   1.259  0.9686 -0.3448 -0.0830
 2928TIP3    H2 8791   3.603   3.107   1.325  0.5984 -0.0640 -0.6259
 2929TIP3   OH2 8792   1.563   4.596   1.222  0.1653  0.5559  0.4515
 2929TIP3    H1 8793   1.616   4.638   1.289 -0.1120  0.2970  0.8366
 2929TIP3    H2 8794   1.543   4.509   1.257  0.1926  0.3415 -0.0554
 2930TIP3   OH2 8795   0.316   1.728   4.691 -0.1641  0.1910 -0.3061
 2930TIP3    H1 8796   0.324   1.807   4.636  1.4534 -0.1107 -0.5525
 2930TIP3    H2 8797   0.336   1.656   4.632  1.4930 -0.1496  0.6045
 2931TIP3   OH2 8798   2.031   4.830   0.746  0.2932  0.0533 -0.7573
 2931TIP3    H1 8799   2.094   4.882   0.697  0.1709  1.2700  0.3462
 2931TIP3    H2 8800   1.976   4.894   0.791  0.3509 -1.0199  0.9226
 2932TIP3   OH2 8801   5.419   5.003   0.756  0.1033  0.5642 -0.3689
 2932TIP3    H1 8802   5.367   4.923   0.764  1.0579  0.0182  0.6969
 2932TIP3    H2 8803   5.505   4.979   0.791 -0.3628  2.7645  2.5959
 2933TIP3   OH2 8804   2.973   0.614   4.755 -0.0758  0.2213 -0.7154
 2933TIP3    H1 8805   3.066   0.598   4.735  0.0446  0.6297 -0.5064
 2933TIP3    H2 8806   2.955   0.558   4.830 -0.4424 -1.0761 -1.7357
 2934TIP3   OH2 8807   3.471   4.140   4.513 -0.1469  0.5997 -0.5231
 2934TIP3    H1 8808   3.475   4.221   4.464 -0.0251  0.9562  0.0622
 2934TIP3    H2 8809   3.382   4.136   4.547 -0.1545  0.4913 -0.5558
 2935TIP3   OH2 8810   6.077   0.608   1.711 -0.1747 -0.4607 -0.0229
 2935TIP3    H1 8811   6.131   0.639   1.638 -0.0670 -1.3024 -0.3161
 2935TIP3    H2 8812   6.132   0.544   1.756 -0.7437 -0.9657 -0.0334
 2936TIP3   OH2 8813   1.915   5.051   1.612 -1.4386 -0.0292  0.0578
 2936TIP3    H1 8814   1.863   5.059   1.531 -2.2265  0.4563  0.5973
 2936TIP3    H2 8815   2.001   5.023   1.582 -1.2923  1.5411 -1.0778
 2937TIP3   OH2 8816   3.581   0.987   3.564  0.1428  0.2262  0.5780
 2937TIP3    H1 8817   3.569   0.941   3.647 -0.1847  1.0384  0.9847
 2937TIP3    H2 8818   3.613   0.919   3.504 -0.6897 -0.6167  1.0631
 2938TIP3   OH2 8819   1.257   3.092   2.539  0.2331  0.2084  0.3421
 2938TIP3    H1 8820   1.299   3.160   2.592 -0.9165 -0.0684  1.6619
 2938TIP3    H2 8821   1.208   3.039   2.602 -1.0656 -0.2411 -0.9785
 2939TIP3   OH2 8822   5.283   4.164   0.506 -0.1270  0.4360  0.1911
 2939TIP3    H1 8823   5.314   4.091   0.560  0.6752  0.2142 -0.5436
 2939TIP3    H2 8824   5.192   4.144   0.488 -0.3767  0.4640  1.3799
 2940TIP3   OH2 8825   3.096   2.612   0.387 -0.4733 -0.0610  0.7074
 2940TIP3    H1 8826   3.125   2.683   0.329 -1.3655 -1.1458 -1.1778
 2940TIP3    H2 8827   3.056   2.549   0.328  0.6596 -2.3539  2.2500
 2941TIP3   OH2 8828   2.312   0.699   1.503  0.2076  0.0495 -0.1062
 2941TIP3    H1 8829   2.407   0.709   1.509  0.3986 -1.8698  0.8479
 2941TIP3    H2 8830   2.282   0.782   1.464  2.3257  0.3747 -1.2380
 2942TIP3   OH2 8831   4.593   3.361   4.837 -0.1336 -0.2563  0.2608
 2942TIP3    H1 8832   4.630   3.273   4.843 -0.6595 -0.6344 -1.4581
 2942TIP3    H2 8833   4.498   3.347   4.840 -0.2625  0.0993 -1.1455
 2943TIP3   OH2 8834   5.744   2.662   0.457  0.1206  0.2660  0.2510
 2943TIP3    H1 8835   5.696   2.710   0.389  1.0252  1.5971  0.5179
 2943TIP3    H2 8836   5.683   2.657   0.530 -0.7277 -0.8518 -0.5121
 2944TIP3   OH2 8837   4.036   3.711   1.281 -0.0140 -0.0632 -0.1533
 2944TIP3    H1 8838   4.073   3.797   1.263 -1.2592  0.1308 -2.2637
 2944TIP3    H2 8839   3.990   3.721   1.364  0.2342  1.1774 -0.1469
 2945TIP3   OH2 8840   0.794   0.605   3.944 -0.1920  0.0960 -0.4321
 2945TIP3    H1 8841   0.849   0.581   4.018 -1.2877  1.5610  0.9322
 2945TIP3    H2 8842   0.855   0.634   3.876  0.7799  1.4094  0.9331
 2946TIP3   OH2 8843   1.734   4.847   1.847  0.0053  0.2480 -0.6281
 2946TIP3    H1 8844   1.704   4.929   1.809  0.2334  0.8289  0.3884
 2946TIP3    H2 8845   1.659   4.789   1.842 -0.8719  1.2100  0.5389
 2947TIP3   OH2 8846   5.497   0.905   1.396 -0.3176  0.2811 -0.4178
 2947TIP3    H1 8847   5.577   0.956   1.382  0.5856 -1.0547 -0.2650
 2947TIP3    H2 8848   5.523   0.835   1.456 -1.4433 -0.5524 -0.8665
 2948TIP3   OH2 8849   2.054   0.427   2.484 -0.1417  0.2076  0.0424
 2948TIP3    H1 8850   1.995   0.381   2.424 -1.6840  1.1960  0.7160
 2948TIP3    H2 8851   2.142   0.403   2.455 -0.8454 -0.3366 -1.8164
 2949TIP3   OH2 8852   2.284   1.589   4.976 -0.2738 -0.0503 -0.1520
 2949TIP3    H1 8853   2.372   1.554   4.979  0.7195  2.2267 -0.5843
 2949TIP3    H2 8854   2.245   1.562   5.059  1.7341  1.0450  1.2265
 2950TIP3   OH2 8855   0.164   1.181   3.830  0.0392 -0.0574 -0.2768
 2950TIP3    H1 8856   0.248   1.226   3.840 -0.6071  1.3553 -0.8612
 2950TIP3    H2 8857   0.175   1.127   3.751 -0.2657  1.8655 -1.7173
 2951TIP3   OH2 8858   1.590   5.908   0.208  0.4969 -0.1535  0.0488
 2951TIP3    H1 8859   1.543   5.860   0.141 -0.4217 -0.7761  1.1178
 2951TIP3    H2 8860   1.659   5.848   0.238 -0.3043 -0.6365  0.9933
 2952TIP3   OH2 8861   5.869  -0.002   4.294 -0.0820 -0.2400  0.1615
 2952TIP3    H1 8862   5.879  -0.045   4.209 -0.3645  0.6294 -0.3256
 2952TIP3    H2 8863   5.896   0.089   4.279  0.4029 -0.2031  1.1415
 2953TIP3   OH2 8864   1.526   3.518   1.881  0.2696 -0.5182  0.4329
 2953TIP3    H1 8865   1.573   3.443   1.918 -1.9833 -2.8214 -1.0579
 2953TIP3    H2 8866   1.580   3.546   1.808  1.9072  0.4146  1.9226
 2954TIP3   OH2 8867   2.696  -0.027   2.503 -0.0692  0.2968  0.8450
 2954TIP3    H1 8868   2.762   0.037   2.475  0.6692 -0.8221 -0.0610
 2954TIP3    H2 8869   2.613   0.021   2.498  0.3478  0.9147 -0.7707
 2955TIP3   OH2 8870   5.234   3.174   5.199 -0.0447 -0.1040 -0.4189
 2955TIP3    H1 8871   5.228   3.269   5.188  0.2134  0.1517  1.3529
 2955TIP3    H2 8872   5.306   3.147   5.142  0.4633  0.8939 -0.2646
 2956TIP3   OH2 8873   4.084   5.231   1.253 -0.1249 -0.4804 -0.1464
 2956TIP3    H1 8874   4.152   5.177   1.294 -0.9754 -2.0924 -0.7568
 2956TIP3    H2 8875   4.111   5.321   1.270  1.4640 -1.0864  0.7481
 2957TIP3   OH2 8876   1.546   2.236   3.741 -0.7128 -0.6164 -0.4630
 2957TIP3    H1 8877   1.460   2.273   3.717 -0.8947  1.6855  2.9792
 2957TIP3    H2 8878   1.529   2.187   3.822  1.4305  2.0748  1.8241
 2958TIP3   OH2 8879   5.893   4.083   2.227  0.3622 -0.0752 -0.3452
 2958TIP3    H1 8880   5.909   3.999   2.269 -0.9040 -0.8662 -1.3546
 2958TIP3    H2 8881   5.799   4.083   2.208  0.0850  2.1100  0.7253
 2959TIP3   OH2 8882   4.667   5.351   0.499 -0.7605 -0.2083 -0.3786
 2959TIP3    H1 8883   4.637   5.278   0.445 -0.4610 -0.1555 -0.6218
 2959TIP3    H2 8884   4.762   5.353   0.485 -0.8545  0.7084 -0.9809
 2960TIP3   OH2 8885   5.365   2.388   2.259 -0.3044 -0.0664 -0.1545
 2960TIP3    H1 8886   5.276   2.365   2.288 -0.2953  1.4889  1.2760
 2960TIP3    H2 8887   5.366   2.484   2.262  1.2306 -0.0464 -0.7783
 2961TIP3   OH2 8888   5.839   4.390   2.024  0.2654 -0.2827  0.4727
 2961TIP3    H1 8889   5.851   4.480   2.056 -2.1141 -0.0844  0.9909
 2961TIP3    H2 8890   5.756   4.392   1.977  1.2708 -1.7354 -1.5430
 2962TIP3   OH2 8891   5.637   3.205   3.833 -0.7521  0.0382  0.2711
 2962TIP3    H1 8892   5.553   3.248   3.843 -0.7528  0.8171 -2.4224
 2962TIP3    H2 8893   5.615   3.113   3.814 -1.1029  0.4107 -1.3061
 2963TIP3   OH2 8894   0.535   5.868   2.908  0.1760 -0.3405 -0.3447
 2963TIP3    H1 8895   0.555   5.821   2.827 -1.9173 -1.9657  0.0034
 2963TIP3    H2 8896   0.611   5.926   2.921  1.0255 -0.7358 -2.9016
 2964TIP3   OH2 8897   1.837   4.777   4.751 -0.0720  0.0883 -0.7052
 2964TIP3    H1 8898   1.821   4.825   4.833  0.4397 -0.1259 -0.4771
 2964TIP3    H2 8899   1.859   4.689   4.780 -2.2433 -0.6678 -1.1498
 2965TIP3   OH2 8900   3.716   3.826   2.234  0.7001  0.2620  0.3317
 2965TIP3    H1 8901   3.751   3.799   2.319  0.8195  0.0938  0.2317
 2965TIP3    H2 8902   3.793   3.833   2.178  0.5430 -0.4792  0.0090
 2966TIP3   OH2 8903   3.608   0.888   2.440  0.1480  0.2763  0.4794
 2966TIP3    H1 8904   3.559   0.956   2.486 -0.2387  0.2302  0.1391
 2966TIP3    H2 8905   3.565   0.807   2.464  1.3744 -0.0098  1.9025
 2967TIP3   OH2 8906   4.226   2.039   1.946  0.2705 -0.0830  0.2258
 2967TIP3    H1 8907   4.164   2.101   1.906 -0.0980  0.3752  1.4707
 2967TIP3    H2 8908   4.244   1.976   1.876 -1.9462 -0.4985 -0.0653
 2968TIP3   OH2 8909   2.555   2.164   1.178 -0.8375 -0.6370  0.3489
 2968TIP3    H1 8910   2.519   2.076   1.179 -4.4000  0.5559 -2.1521
 2968TIP3    H2 8911   2.500   2.213   1.240 -2.1504  0.7223 -1.7496
 2969TIP3   OH2 8912   0.120   3.548   2.599  0.3174  0.1170  0.2715
 2969TIP3    H1 8913   0.067   3.625   2.581  1.6405  0.9208 -0.3425
 2969TIP3    H2 8914   0.059   3.475   2.593 -0.5697  0.9253 -1.2394
 2970TIP3   OH2 8915   4.241   4.198   4.685  0.2105 -0.1381  0.2762
 2970TIP3    H1 8916   4.273   4.265   4.625 -3.1860  2.1903  0.8079
 2970TIP3    H2 8917   4.274   4.224   4.771  1.4707 -1.0410  0.1108
 2971TIP3   OH2 8918   2.533   2.921   3.645  0.2989  0.1355 -0.2854
 2971TIP3    H1 8919   2.616   2.873   3.650 -0.7665 -2.0400 -1.6224
 2971TIP3    H2 8920   2.495   2.910   3.732  2.0549  2.6170  0.9140
 2972TIP3   OH2 8921   2.750   5.958   2.862  0.3484 -0.2798  0.2485
 2972TIP3    H1 8922   2.663   5.926   2.842  0.4065  0.2846 -0.9616
 2972TIP3    H2 8923   2.774   5.913   2.943 -1.0771 -0.3916  0.6364
 2973TIP3   OH2 8924   0.655   5.089   3.505  0.4993 -0.0983 -0.6220
 2973TIP3    H1 8925   0.646   5.032   3.429  1.1244 -0.2779 -0.5621
 2973TIP3    H2 8926   0.732   5.056   3.551 -1.2980 -1.6920  1.5377
 2974TIP3   OH2 8927   1.719   0.241   3.380  0.5921  0.3737 -0.1598
 2974TIP3    H1 8928   1.651   0.214   3.442  0.4070 -1.1257 -0.9601
 2974TIP3    H2 8929   1.672   0.288   3.312  0.8488  2.3939  0.9866
 2975TIP3   OH2 8930   0.993   1.155   4.032 -0.5121  0.0171 -0.2212
 2975TIP3    H1 8931   1.072   1.112   4.000  0.9527  0.9340  1.9267
 2975TIP3    H2 8932   0.929   1.084   4.039  0.6917 -1.1181 -0.2515
 2976TIP3   OH2 8933   3.059   1.946   4.033 -0.3313 -0.2474  0.1746
 2976TIP3    H1 8934   3.138   1.979   3.990 -0.3998 -0.7491 -0.3545
 2976TIP3    H2 8935   2.996   1.935   3.961 -0.7357 -0.2658  0.5310
 2977TIP3   OH2 8936   5.867   0.738   3.488 -0.0781 -0.6323 -0.3922
 2977TIP3    H1 8937   5.893   0.679   3.558 -1.2875  0.7073  1.3017
 2977TIP3    H2 8938   5.774   0.718   3.473  0.2470 -1.1324 -1.8898
 2978TIP3   OH2 8939   0.806   5.428   3.168 -0.1692 -0.4352 -0.1323
 2978TIP3    H1 8940   0.874   5.487   3.134  0.2289  0.4942  2.0599
 2978TIP3    H2 8941   0.766   5.478   3.240 -0.6857 -2.3629  0.9858
 2979TIP3   OH2 8942   2.824   3.276   2.190  0.3840  0.1775  0.1546
 2979TIP3    H1 8943   2.875   3.281   2.271 -1.0376 -0.9164  1.1631
 2979TIP3    H2 8944   2.756   3.211   2.208 -0.5277  0.5696 -1.6168
 2980TIP3   OH2 8945   3.336   5.510   4.367  0.1126  0.0571  0.4552
 2980TIP3    H1 8946   3.373   5.533   4.452 -0.1462 -2.7294  1.3973
 2980TIP3    H2 8947   3.262   5.570   4.356  1.1942  1.6346  1.3146
 2981TIP3   OH2 8948   3.044   0.171   1.501 -0.4880  0.0709 -0.0636
 2981TIP3    H1 8949   2.984   0.097   1.514  0.3555 -0.9035 -1.4830
 2981TIP3    H2 8950   3.082   0.187   1.587  0.0547 -1.8174  0.0781
 2982TIP3   OH2 8951   2.767   1.546   1.215  0.5000  0.3434  0.3035
 2982TIP3    H1 8952   2.714   1.468   1.228  0.8048  0.1656  0.5030
 2982TIP3    H2 8953   2.784   1.548   1.121  3.4723 -1.8535  0.6456
 2983TIP3   OH2 8954   2.584   5.534   2.828 -0.2103  0.3069 -0.2756
 2983TIP3    H1 8955   2.623   5.563   2.745  0.0928 -0.3935 -0.3884
 2983TIP3    H2 8956   2.508   5.481   2.801 -0.0582  0.0019 -0.1138
 2984TIP3   OH2 8957   6.050   3.277   5.086  0.4479  0.0135  0.6414
 2984TIP3    H1 8958   5.999   3.210   5.131 -0.7433  0.6133  0.2385
 2984TIP3    H2 8959   6.141   3.250   5.098  0.0145 -1.6020  0.6045
 2985TIP3   OH2 8960   0.448   4.358   4.359 -0.4548  0.4474 -0.1640
 2985TIP3    H1 8961   0.440   4.263   4.365  0.8479  0.4011  1.2881
 2985TIP3    H2 8962   0.523   4.373   4.302 -0.8402  0.6282 -0.6353
 2986TIP3   OH2 8963   1.645   3.211   0.417 -0.4883  0.1207  0.0175
 2986TIP3    H1 8964   1.740   3.200   0.416 -0.4952  0.0991 -0.6405
 2986TIP3    H2 8965   1.632   3.303   0.439 -0.3335 -0.0122  0.6988
 2987TIP3   OH2 8966   5.191   1.089   2.814 -0.2252 -0.6017  0.6924
 2987TIP3    H1 8967   5.125   1.059   2.752  0.3752 -2.4344  0.8626
 2987TIP3    H2 8968   5.190   1.184   2.807 -1.5116 -0.6858 -0.7059
 2988TIP3   OH2 8969   5.699   3.411   4.823 -0.7234 -0.6300 -0.2446
 2988TIP3    H1 8970   5.672   3.320   4.828 -2.0418 -0.3160 -0.9766
 2988TIP3    H2 8971   5.743   3.429   4.906  1.3064 -2.4283 -0.8430
 2989TIP3   OH2 8972   4.867   5.193   5.072  0.0137  0.2577 -0.1850
 2989TIP3    H1 8973   4.844   5.101   5.061  0.5916  0.0748  0.1116
 2989TIP3    H2 8974   4.784   5.239   5.064 -0.4953 -0.4042  0.9961
 2990TIP3   OH2 8975   1.258   3.112   2.245  0.2003 -0.2259 -0.1932
 2990TIP3    H1 8976   1.218   3.199   2.242 -0.6862 -0.6474 -1.0667
 2990TIP3    H2 8977   1.297   3.106   2.332 -0.9596  0.5034  0.3976
 2991TIP3   OH2 8978   2.807   5.525   4.764  0.8905  0.2151  0.1238
 2991TIP3    H1 8979   2.780   5.446   4.811  2.1503  0.3129  1.0940
 2991TIP3    H2 8980   2.806   5.594   4.831  1.9033  0.5439 -0.1783
 2992TIP3   OH2 8981   5.168   1.015   0.084 -0.3553  0.4353  0.3818
 2992TIP3    H1 8982   5.176   1.108   0.066  1.7130  0.3311  0.5381
 2992TIP3    H2 8983   5.189   1.007   0.177  0.1325 -0.2490  0.2202
 2993TIP3   OH2 8984   5.498   3.202   4.115  0.0325  0.2770 -0.0648
 2993TIP3    H1 8985   5.460   3.227   4.031  0.2854  0.3486 -0.1604
 2993TIP3    H2 8986   5.427   3.159   4.162 -0.5061  1.4244  0.2168
 2994TIP3   OH2 8987   5.987   5.690   5.161  0.3507 -0.2138  0.1267
 2994TIP3    H1 8988   6.079   5.669   5.146  0.3604 -0.1506  0.0967
 2994TIP3    H2 8989   5.953   5.615   5.210  0.3848 -0.3002  0.0197
 2995TIP3   OH2 8990   2.673   0.205   3.403  0.0871 -0.0443 -0.0436
 2995TIP3    H1 8991   2.630   0.261   3.467 -0.5227 -2.2730  1.6242
 2995TIP3    H2 8992   2.762   0.193   3.437 -0.4471 -1.7961  0.8601
 2996TIP3   OH2 8993   5.789   5.305   2.523 -0.0416  0.8821 -0.1243
 2996TIP3    H1 8994   5.732   5.229   2.510  0.4164  0.9233 -2.9156
 2996TIP3    H2 8995   5.874   5.278   2.488  1.2057  1.4630  2.2598
 2997TIP3   OH2 8996   0.205   2.545   3.850 -0.8040 -0.3287 -0.0340
 2997TIP3    H1 8997   0.121   2.550   3.896 -0.4432 -0.5545  0.6704
 2997TIP3    H2 8998   0.258   2.484   3.902  0.2025  0.7109  0.2025
 2998TIP3   OH2 8999   2.919   0.632   1.772  0.3757  0.3110  0.5791
 2998TIP3    H1 9000   2.848   0.692   1.747 -1.2120 -0.6855  2.3681
 2998TIP3    H2 9001   2.917   0.564   1.705  0.8886  1.2086 -0.3802
 2999TIP3   OH2 9002   2.274   0.338   2.369 -0.0043 -0.0728  0.4449
 2999TIP3    H1 9003   2.273   0.278   2.295 -0.9935 -0.1136  0.4812
 2999TIP3    H2 9004   2.367   0.354   2.386  0.2426  0.3495 -1.1425
 3000TIP3   OH2 9005   0.050   2.350   4.101 -0.0783 -0.0376 -0.3644
 3000TIP3    H1 9006   0.053   2.256   4.120 -0.2212 -0.2151 -1.1537
 3000TIP3    H2 9007  -0.042   2.366   4.079  0.2287 -0.0497 -1.7622
 3001TIP3   OH2 9008   2.951   5.628   3.629  0.2776 -0.1245  0.0250
 3001TIP3    H1 9009   2.938   5.576   3.708  1.1705 -1.3659 -0.6243
 3001TIP3    H2 9010   2.893   5.588   3.564 -0.0009  0.5147 -0.1372
 3002TIP3   OH2 9011   5.897   0.395   2.907 -0.5040 -0.1185  0.0867
 3002TIP3    H1 9012   5.834   0.337   2.863  1.4855 -2.4183  0.0688
 3002TIP3    H2 9013   5.869   0.396   2.998 -0.1478 -1.8223  0.2480
 3003TIP3   OH2 9014   2.004   2.545   3.361 -0.2271  0.0804 -0.1716
 3003TIP3    H1 9015   1.991   2.537   3.456  1.6984  1.4753  0.2744
 3003TIP3    H2 9016   1.920   2.577   3.328 -0.5130  0.9249  1.2754
 3004TIP3   OH2 9017   2.412   5.579   3.168 -0.6968 -0.4710  0.4159
 3004TIP3    H1 9018   2.329   5.596   3.212 -0.7349 -2.5340  1.2338
 3004TIP3    H2 9019   2.403   5.624   3.084 -2.1237  0.3942  0.9826
 3005TIP3   OH2 9020   0.953   2.191   3.548  0.2361 -0.0492 -0.3782
 3005TIP3    H1 9021   0.929   2.098   3.545 -1.5835  0.3160  0.9999
 3005TIP3    H2 9022   1.019   2.196   3.616  0.0706 -0.2985 -0.1947
 3006TIP3   OH2 9023   5.620   4.374   1.870 -0.3707 -0.4511  0.1110
 3006TIP3    H1 9024   5.546   4.335   1.917 -0.3644 -0.3720  0.1875
 3006TIP3    H2 9025   5.599   4.467   1.864 -0.0066 -0.3264  0.6551
 3007TIP3   OH2 9026   3.156   3.004   3.293  0.1060  0.0123 -0.0009
 3007TIP3    H1 9027   3.171   3.066   3.221 -0.0566 -0.2558 -0.2706
 3007TIP3    H2 9028   3.151   2.919   3.250 -0.3787 -0.1058  0.2862
 3008TIP3   OH2 9029   1.366   4.332   2.458 -0.1714  0.1635  0.3404
 3008TIP3    H1 9030   1.289   4.314   2.513 -0.8063 -0.5398 -0.7374
 3008TIP3    H2 9031   1.395   4.246   2.429  0.2171  0.5167 -0.3404
 3009TIP3   OH2 9032   0.942   5.841   0.346  0.2289  0.5623  0.0150
 3009TIP3    H1 9033   0.984   5.756   0.335 -1.1492 -0.2633  0.7242
 3009TIP3    H2 9034   0.903   5.860   0.261 -1.7492 -0.8790  0.5017
 3010TIP3   OH2 9035   2.335   2.660   3.871  0.8112  0.7272  0.2639
 3010TIP3    H1 9036   2.415   2.623   3.908 -0.1805  0.2139  1.9862
 3010TIP3    H2 9037   2.332   2.749   3.907 -0.1707  0.2174  1.4961
 3011TIP3   OH2 9038   0.371   1.989   3.515 -0.5758 -0.3927 -0.3079
 3011TIP3    H1 9039   0.360   2.063   3.574 -0.4561 -0.3734 -0.3102
 3011TIP3    H2 9040   0.361   1.912   3.571  1.5169 -0.3896  0.1186
 3012TIP3   OH2 9041   1.858   4.793   2.093  0.6804 -0.6749 -0.2052
 3012TIP3    H1 9042   1.841   4.699   2.107 -0.2583 -0.8115 -2.0346
 3012TIP3    H2 9043   1.835   4.808   2.001  2.4719  0.9942 -0.4382
 3013TIP3   OH2 9044   1.405   2.786   3.367  0.8472 -0.0370  0.4892
 3013TIP3    H1 9045   1.334   2.813   3.425 -0.2590 -1.9123  0.1018
 3013TIP3    H2 9046   1.384   2.828   3.283  0.7842  0.2596  0.6531
 3014TIP3   OH2 9047   1.693   1.104   3.870 -0.2951  0.6744  0.1946
 3014TIP3    H1 9048   1.727   1.159   3.940  1.1409  0.5599 -0.3934
 3014TIP3    H2 9049   1.749   1.122   3.795  0.1538 -1.4762 -0.0640
 3015TIP3   OH2 9050   4.106   4.597   3.165 -0.6975 -0.7232  0.4770
 3015TIP3    H1 9051   4.183   4.581   3.110  0.7788 -0.3230  2.3015
 3015TIP3    H2 9052   4.100   4.692   3.169 -0.4786 -0.7332  1.3477
 3016TIP3   OH2 9053   3.197   2.872   4.215 -0.0556 -0.3938 -0.3048
 3016TIP3    H1 9054   3.122   2.840   4.165 -0.7896 -1.6225  1.4728
 3016TIP3    H2 9055   3.248   2.793   4.235 -0.2891 -0.1126  1.6144
 3017TIP3   OH2 9056   0.377   0.353   2.663  0.2045  0.2104  0.2163
 3017TIP3    H1 9057   0.360   0.308   2.580  1.0957  0.1839  0.0266
 3017TIP3    H2 9058   0.469   0.379   2.656 -0.1263  1.5370  0.5701
 3018TIP3   OH2 9059   0.471   4.151   0.601  0.7605 -0.0761 -0.1175
 3018TIP3    H1 9060   0.418   4.217   0.558  0.8398 -0.1988 -0.4031
 3018TIP3    H2 9061   0.560   4.166   0.567  0.8338 -0.1343  0.0465
 3019TIP3   OH2 9062   3.025   4.633   0.039  0.8417 -0.1450  0.4459
 3019TIP3    H1 9063   2.970   4.584  -0.022  1.3643 -1.0338  0.6690
 3019TIP3    H2 9064   3.100   4.661  -0.014  0.0934  1.2487  0.0892
 3020TIP3   OH2 9065   4.468   4.600   0.775 -0.6202 -0.4400 -0.3349
 3020TIP3    H1 9066   4.404   4.579   0.842  0.0961 -0.5844  0.3229
 3020TIP3    H2 9067   4.507   4.683   0.804  0.3653 -0.9857 -0.0553
 3021TIP3   OH2 9068   5.254   5.914   3.565 -0.2897  0.2335 -0.1760
 3021TIP3    H1 9069   5.184   5.874   3.616 -0.1299  1.5005  1.0954
 3021TIP3    H2 9070   5.279   5.992   3.615  0.6746  0.8909 -1.6110
 3022TIP3   OH2 9071   4.104   2.947   2.768  0.2155 -1.1200  0.1696
 3022TIP3    H1 9072   4.136   2.904   2.690 -2.8498 -1.7989 -0.8609
 3022TIP3    H2 9073   4.078   2.876   2.826  1.1917 -0.6088  1.2854
 3023TIP3   OH2 9074   1.385   5.701   2.094  0.0798 -0.3930 -0.1835
 3023TIP3    H1 9075   1.320   5.758   2.135 -0.6078 -1.8229  0.8125
 3023TIP3    H2 9076   1.412   5.641   2.165  0.8812 -1.1953 -1.1413
 3024TIP3   OH2 9077   3.933   4.911   4.121  0.2428 -0.4425  0.2122
 3024TIP3    H1 9078   3.894   4.933   4.036 -0.0045  0.4006  0.5271
 3024TIP3    H2 9079   3.931   4.994   4.169  2.4114 -0.3777  0.2540
 3025TIP3   OH2 9080   1.116   5.080   2.313 -0.0775 -0.0273  0.0172
 3025TIP3    H1 9081   1.148   5.051   2.228 -2.7358 -0.3570 -0.9938
 3025TIP3    H2 9082   1.074   5.165   2.295 -1.3450 -0.4574  0.7833
 3026TIP3   OH2 9083   3.639   0.669   4.811 -0.3001  0.2229 -0.1953
 3026TIP3    H1 9084   3.557   0.687   4.858 -0.4327 -1.6149  0.3366
 3026TIP3    H2 9085   3.704   0.657   4.881 -0.4491 -2.3010 -0.4064
 3027TIP3   OH2 9086   4.649   5.383   3.025 -0.1008 -0.2555  0.2885
 3027TIP3    H1 9087   4.560   5.349   3.019  0.8047 -2.9020  0.7950
 3027TIP3    H2 9088   4.685   5.372   2.937  0.0629 -0.1615  0.3428
 3028TIP3   OH2 9089   0.609   3.724   3.565  0.0031 -0.5641  0.2169
 3028TIP3    H1 9090   0.634   3.782   3.637  1.7798 -2.5991  1.3568
 3028TIP3    H2 9091   0.660   3.756   3.491 -0.3944  0.3833  0.3279
 3029TIP3   OH2 9092   6.162   1.378   1.248  0.0736 -0.4091 -0.0059
 3029TIP3    H1 9093   6.158   1.467   1.213  0.0994 -0.4548 -0.1280
 3029TIP3    H2 9094   6.157   1.388   1.343 -2.2929 -0.3968 -0.0756
 3030TIP3   OH2 9095   5.527   0.625   4.906 -0.1503  0.1409 -0.0874
 3030TIP3    H1 9096   5.512   0.719   4.919  0.0252 -0.0407  1.6987
 3030TIP3    H2 9097   5.607   0.607   4.955 -0.8914 -1.1793  0.6673
 3031TIP3   OH2 9098   2.200   0.629   2.881 -0.3138  0.2955 -0.1331
 3031TIP3    H1 9099   2.242   0.544   2.877 -0.6106  0.2032 -1.8850
 3031TIP3    H2 9100   2.174   0.648   2.791  1.7202  3.2404 -0.2578
 3032TIP3   OH2 9101   1.249   3.830   0.809 -0.4598 -0.3546  0.1809
 3032TIP3    H1 9102   1.271   3.838   0.716 -0.9306 -0.9046  0.0134
 3032TIP3    H2 9103   1.156   3.854   0.813 -0.5456 -0.7276  0.4459
 3033TIP3   OH2 9104   0.371   2.585   0.317  0.0541  0.0945  0.2728
 3033TIP3    H1 9105   0.359   2.491   0.330 -0.6410  0.2398  0.7321
 3033TIP3    H2 9106   0.322   2.604   0.237  0.3427  0.0372  0.0813
 3034TIP3   OH2 9107   1.175   5.393   3.857 -0.7797  0.5191 -0.3268
 3034TIP3    H1 9108   1.201   5.467   3.912 -0.8214  0.2671  0.0275
 3034TIP3    H2 9109   1.144   5.327   3.918 -0.4155  0.0695 -0.6231
 3035TIP3   OH2 9110   2.271   5.858   1.411 -0.5745  0.2402 -0.0260
 3035TIP3    H1 9111   2.188   5.863   1.459 -1.3647  0.8301 -1.3898
 3035TIP3    H2 9112   2.335   5.899   1.469 -1.3940  0.5045  0.7112
 3036TIP3   OH2 9113   3.306   1.065   2.191 -0.3604  0.1934 -0.1983
 3036TIP3    H1 9114   3.268   0.981   2.165 -0.0441 -0.3466  1.0338
 3036TIP3    H2 9115   3.259   1.089   2.271  0.2797  0.6736  0.0415
 3037TIP3   OH2 9116   3.102   4.549   0.709 -0.7936 -0.2788  0.2596
 3037TIP3    H1 9117   3.084   4.459   0.734 -0.3558 -0.4000  0.1523
 3037TIP3    H2 9118   3.072   4.555   0.618 -1.2045 -0.2007  0.4027
 3038TIP3   OH2 9119   0.280   0.386   1.100  0.6478 -0.2244 -0.1083
 3038TIP3    H1 9120   0.192   0.413   1.123  0.2130 -2.0725  0.5491
 3038TIP3    H2 9121   0.334   0.412   1.174  0.9211  1.9127 -0.9771
 3039TIP3   OH2 9122   6.306   1.271   2.496 -0.0886  0.0662 -0.3004
 3039TIP3    H1 9123   6.271   1.288   2.583  3.1867 -0.3062  1.2654
 3039TIP3    H2 9124   6.247   1.205   2.459 -1.0016 -0.5895  2.1135
 3040TIP3   OH2 9125   1.790   0.259   3.992 -0.2501  0.1609  0.7081
 3040TIP3    H1 9126   1.750   0.185   3.946 -0.6048  0.1272  1.0661
 3040TIP3    H2 9127   1.882   0.235   4.001 -0.3471 -0.2025  0.7503
 3041TIP3   OH2 9128   1.136   1.153   0.440 -0.5388  0.2658 -0.5501
 3041TIP3    H1 9129   1.147   1.058   0.448 -0.8595  0.3329  1.1814
 3041TIP3    H2 9130   1.169   1.174   0.353  2.7258 -0.9929  0.2226
 3042TIP3   OH2 9131   4.892   5.723   3.175 -0.5744 -0.1332  0.6172
 3042TIP3    H1 9132   4.800   5.700   3.167 -1.0196  0.4543  3.0950
 3042TIP3    H2 9133   4.938   5.639   3.179 -0.5829 -0.4811 -3.2687
 3043TIP3   OH2 9134   4.654   3.659   1.974 -0.2216  0.0875  0.1146
 3043TIP3    H1 9135   4.592   3.731   1.985 -0.3786 -0.0904  0.4118
 3043TIP3    H2 9136   4.641   3.604   2.051 -1.4008 -1.2157 -0.9285
 3044TIP3   OH2 9137   5.293   2.514   1.972 -0.3475 -0.2177  0.2700
 3044TIP3    H1 9138   5.364   2.500   2.035 -2.2347 -1.0731  2.3609
 3044TIP3    H2 9139   5.322   2.469   1.893  1.9242  0.4890  0.6403
 3045TIP3   OH2 9140   5.424   4.327   2.047 -0.0326 -0.2483 -0.1253
 3045TIP3    H1 9141   5.470   4.381   2.112 -0.2789  0.6768 -0.7019
 3045TIP3    H2 9142   5.336   4.364   2.043 -0.2119 -0.7111 -0.5258
 3046TIP3   OH2 9143   5.322   3.901   4.747  0.2483 -0.1278 -0.0139
 3046TIP3    H1 9144   5.330   3.978   4.804  1.0159 -0.8307  0.8613
 3046TIP3    H2 9145   5.356   3.829   4.800 -0.3476 -1.0522 -0.8692
 3047TIP3   OH2 9146   3.427   3.660   0.499 -0.3846 -0.4229 -0.0336
 3047TIP3    H1 9147   3.472   3.719   0.438 -1.2581  0.0891 -0.2047
 3047TIP3    H2 9148   3.478   3.666   0.580  0.0854 -0.1685 -0.3450
 3048TIP3   OH2 9149   1.033   1.198   5.121  0.1717  1.1540 -0.2779
 3048TIP3    H1 9150   1.060   1.254   5.194  1.2489  0.3361 -0.0374
 3048TIP3    H2 9151   0.943   1.172   5.143  0.8455  0.0401  1.3251
 3049TIP3   OH2 9152  -0.007   1.356   3.963  0.5966  0.1617 -0.1491
 3049TIP3    H1 9153  -0.066   1.331   3.892  0.0701 -1.2345  0.7371
 3049TIP3    H2 9154   0.078   1.318   3.939  0.2473 -0.9166  0.2962
 3050TIP3   OH2 9155   2.111   5.766   1.797  0.5889 -0.0764  0.2795
 3050TIP3    H1 9156   2.098   5.675   1.771 -0.0370  0.9218 -3.5678
 3050TIP3    H2 9157   2.022   5.801   1.808  0.7508  0.5114 -0.2104
 3051TIP3   OH2 9158   5.776   1.567   2.419 -0.4089 -0.8566  0.0301
 3051TIP3    H1 9159   5.754   1.601   2.506  0.7855 -1.2196  0.4983
 3051TIP3    H2 9160   5.857   1.517   2.433  1.3046  1.2501 -1.7450
 3052TIP3   OH2 9161   2.987   0.294   4.426 -0.2232 -0.7645  0.3102
 3052TIP3    H1 9162   2.929   0.255   4.491 -1.2741 -1.6342 -1.1036
 3052TIP3    H2 9163   2.954   0.384   4.416 -1.4004 -1.2714 -0.5286
 3053TIP3   OH2 9164   2.130   3.655   3.587  0.5454  0.4643 -0.2572
 3053TIP3    H1 9165   2.055   3.710   3.607  0.1588  0.0161 -0.4654
 3053TIP3    H2 9166   2.118   3.631   3.495  0.6890  0.0009 -0.1565
 3054TIP3   OH2 9167   4.106   4.729   4.222  0.0490 -0.2170 -0.1139
 3054TIP3    H1 9168   4.179   4.774   4.178  0.3652  1.6650  2.1016
 3054TIP3    H2 9169   4.031   4.787   4.209 -0.0995 -0.1731  0.8157
 3055TIP3   OH2 9170   5.541   0.740   0.434  0.4317 -0.0805  0.5971
 3055TIP3    H1 9171   5.452   0.762   0.407  0.8250 -0.2659 -0.9382
 3055TIP3    H2 9172   5.561   0.804   0.502 -0.7145  0.2313  0.6678
 3056TIP3   OH2 9173   0.092   4.582   2.447  0.5277  0.6874  0.2121
 3056TIP3    H1 9174   0.027   4.604   2.514  1.4462  0.4179  1.2297
 3056TIP3    H2 9175   0.157   4.651   2.453  0.2237  1.0918 -0.9783
 3057TIP3   OH2 9176   0.604   1.016   2.577  0.3878 -0.2705 -0.1634
 3057TIP3    H1 9177   0.650   0.935   2.554  1.3265 -0.2477  1.4759
 3057TIP3    H2 9178   0.517   1.006   2.537  0.9890 -1.3807 -1.2965
 3058TIP3   OH2 9179   4.181   3.622   4.033  0.0988  0.0301 -0.0667
 3058TIP3    H1 9180   4.173   3.625   4.128  0.4237  0.3798 -0.0479
 3058TIP3    H2 9181   4.168   3.530   4.011 -2.6858  0.3245  0.0502
 3059TIP3   OH2 9182   2.692   1.428   1.895 -0.4761  0.2602 -0.2015
 3059TIP3    H1 9183   2.659   1.390   1.814 -0.7159  1.0055 -0.4607
 3059TIP3    H2 9184   2.620   1.482   1.928  0.4280  1.8532 -0.7371
 3060TIP3   OH2 9185   4.428   5.607   4.106 -0.2238 -0.3546  0.5481
 3060TIP3    H1 9186   4.464   5.695   4.115 -0.4538 -0.2197  0.1643
 3060TIP3    H2 9187   4.432   5.588   4.012 -1.1656 -0.3278  0.4899
 3061TIP3   OH2 9188   2.855   5.770   3.022 -0.0769 -0.2681  0.0855
 3061TIP3    H1 9189   2.849   5.685   2.977 -1.2183  0.2532 -0.8212
 3061TIP3    H2 9190   2.854   5.748   3.115 -0.2548 -1.2618 -0.1347
 3062TIP3   OH2 9191   3.087   2.764   3.738  0.3410  0.1820 -0.0462
 3062TIP3    H1 9192   3.011   2.716   3.706  0.8406  0.5526 -1.8907
 3062TIP3    H2 9193   3.091   2.842   3.684  1.2964  0.8190  0.8963
 3063TIP3   OH2 9194   1.250   0.604   0.673  0.0297  0.1574 -0.2955
 3063TIP3    H1 9195   1.200   0.525   0.655  0.3833 -0.2438  0.4301
 3063TIP3    H2 9196   1.306   0.615   0.597  0.9872 -1.0943  0.1981
 3064TIP3   OH2 9197   4.690   3.102   4.876 -0.5190 -0.5050 -0.1040
 3064TIP3    H1 9198   4.680   3.022   4.824  1.2913 -0.4746 -0.5579
 3064TIP3    H2 9199   4.746   3.077   4.950  0.0609  0.3262 -0.2408
 3065TIP3   OH2 9200   1.386   3.089   4.641 -0.1855 -0.5670 -0.6765
 3065TIP3    H1 9201   1.423   3.027   4.704  0.5748 -0.0638 -0.6047
 3065TIP3    H2 9202   1.421   3.174   4.668 -0.6318 -0.2091 -1.2000
 3066TIP3   OH2 9203   3.705   2.929   0.462  0.2302  0.5079  0.0587
 3066TIP3    H1 9204   3.736   2.923   0.372 -1.5006  0.5320 -0.5776
 3066TIP3    H2 9205   3.665   2.844   0.480 -1.4698  1.2274 -0.0404
 3067TIP3   OH2 9206   3.622   4.659   0.885 -0.3924  0.7777  0.7677
 3067TIP3    H1 9207   3.565   4.618   0.819 -0.7199  1.0841  0.8577
 3067TIP3    H2 9208   3.679   4.588   0.915 -3.0186 -0.4990  3.2046
 3068TIP3   OH2 9209   2.893   1.588   1.585 -0.0154 -0.0269  0.7115
 3068TIP3    H1 9210   2.800   1.612   1.576 -0.1088 -0.3695  0.7527
 3068TIP3    H2 9211   2.900   1.503   1.542  0.5149  0.5096 -0.2962
 3069TIP3   OH2 9212   5.046   1.567   4.745  0.2658  0.4375  0.8745
 3069TIP3    H1 9213   5.037   1.487   4.693  2.1898  0.1265  0.9557
 3069TIP3    H2 9214   4.991   1.631   4.699  1.2557 -0.0457 -1.0961
 3070TIP3   OH2 9215   5.826   4.694   5.027 -0.3301 -0.7239  0.0774
 3070TIP3    H1 9216   5.837   4.651   5.112  0.3080 -0.2580  0.2355
 3070TIP3    H2 9217   5.882   4.645   4.967  0.2832 -0.2265  0.2264
 3071TIP3   OH2 9218   4.337   3.653   2.441 -0.7915 -0.6172 -0.6290
 3071TIP3    H1 9219   4.271   3.602   2.487  0.3364 -1.0635  0.5806
 3071TIP3    H2 9220   4.420   3.618   2.473  0.0236  0.4999 -1.4524
 3072TIP3   OH2 9221   4.876   2.332   3.788  0.0593  0.5714 -0.1425
 3072TIP3    H1 9222   4.904   2.416   3.826 -2.4084  1.1094  0.6795
 3072TIP3    H2 9223   4.834   2.356   3.705 -1.2110  0.2705  0.3844
 3073TIP3   OH2 9224   3.744   4.588   0.556 -0.0053 -0.6468 -0.5778
 3073TIP3    H1 9225   3.807   4.641   0.605  0.5622 -0.8906 -1.0399
 3073TIP3    H2 9226   3.663   4.639   0.558  0.4675  0.1301 -0.8108
 3074TIP3   OH2 9227   2.293   0.116   1.611 -0.2048  0.2051 -0.0271
 3074TIP3    H1 9228   2.388   0.120   1.595 -0.4489  0.2682 -1.5868
 3074TIP3    H2 9229   2.267   0.028   1.585 -0.7750  0.6098 -0.8713
 3075TIP3   OH2 9230   1.618   4.125   1.833  0.3916 -0.0462 -0.0254
 3075TIP3    H1 9231   1.648   4.081   1.912 -1.2287  0.0479  0.6808
 3075TIP3    H2 9232   1.656   4.074   1.761  1.1414 -0.6703  0.7993
 3076TIP3   OH2 9233   0.379   0.309   3.419 -0.6850 -0.0897 -0.1551
 3076TIP3    H1 9234   0.465   0.349   3.430 -1.1334  0.5613  1.2673
 3076TIP3    H2 9235   0.326   0.378   3.379 -0.8174 -0.1277 -0.0446
 3077TIP3   OH2 9236   6.136   5.179   4.711 -0.0475  0.4308 -0.1619
 3077TIP3    H1 9237   6.225   5.175   4.745 -0.4654 -1.6056  0.8237
 3077TIP3    H2 9238   6.089   5.236   4.772 -0.0584 -0.7399  0.9516
 3078TIP3   OH2 9239   3.920   1.351   1.653 -0.4293 -0.3091  0.1784
 3078TIP3    H1 9240   3.863   1.424   1.678  2.0856  1.0235  2.5105
 3078TIP3    H2 9241   3.988   1.391   1.599 -0.3185 -1.4276 -0.5505
 3079TIP3   OH2 9242   3.084   1.323   0.325 -0.2438  0.0990 -0.3133
 3079TIP3    H1 9243   3.012   1.306   0.263 -0.1084 -0.0726 -0.4249
 3079TIP3    H2 9244   3.041   1.355   0.404 -0.3675  1.1982 -0.8017
 3080TIP3   OH2 9245   6.217   5.097   1.361  0.6545 -0.7391  0.2816
 3080TIP3    H1 9246   6.231   5.017   1.412 -1.1161 -1.8646 -0.8512
 3080TIP3    H2 9247   6.126   5.121   1.379  1.5773  2.0417  1.8665
 3081TIP3   OH2 9248   2.140   1.593   0.483 -0.0782 -0.6463 -0.7187
 3081TIP3    H1 9249   2.225   1.563   0.515 -1.1049 -1.0146  1.8847
 3081TIP3    H2 9250   2.124   1.541   0.404  1.3751 -1.7523 -0.3236
 3082TIP3   OH2 9251   0.656   0.050   2.593 -0.5542  0.0664  0.0110
 3082TIP3    H1 9252   0.692   0.105   2.663 -0.9448  0.2499  0.0699
 3082TIP3    H2 9253   0.729  -0.007   2.568 -0.4655 -0.1321  0.6924
 3083TIP3   OH2 9254   3.435   5.369   2.230  0.0731  0.0105  0.8865
 3083TIP3    H1 9255   3.390   5.305   2.285  0.4881  1.0850  2.5550
 3083TIP3    H2 9256   3.367   5.401   2.170 -0.4742 -0.9655  0.9724
 3084TIP3   OH2 9257   2.359   2.468   0.380  0.2067  0.0524  0.2932
 3084TIP3    H1 9258   2.374   2.448   0.473 -0.0769 -1.8762 -0.0462
 3084TIP3    H2 9259   2.295   2.540   0.382  0.0758 -0.0702  1.5904
 3085TIP3   OH2 9260   1.858   5.008   0.885  0.7325 -0.2036  0.8843
 3085TIP3    H1 9261   1.826   5.093   0.854  1.8824 -0.1773 -0.2719
 3085TIP3    H2 9262   1.783   4.949   0.875 -0.1893  0.6997  2.0030
 3086TIP3   OH2 9263   2.677   4.764   3.479 -0.4424 -0.0387 -0.4410
 3086TIP3    H1 9264   2.693   4.799   3.392 -5.0523  2.0829 -0.7061
 3086TIP3    H2 9265   2.694   4.838   3.538 -1.0160 -0.2700  0.0275
 3087TIP3   OH2 9266   1.938   4.809   2.469  0.1282 -0.3006 -0.1909
 3087TIP3    H1 9267   1.994   4.886   2.477 -0.5216  0.1561  0.0487
 3087TIP3    H2 9268   1.965   4.752   2.541 -0.3612  0.3425  0.5236
 3088TIP3   OH2 9269   5.571   0.052   3.151 -0.7687 -0.3807 -0.0250
 3088TIP3    H1 9270   5.514   0.060   3.074 -1.2327 -0.2681  0.3263
 3088TIP3    H2 9271   5.601   0.141   3.168 -0.0569 -0.5162 -0.5263
 3089TIP3   OH2 9272   3.318   2.255   2.883 -0.0893 -0.5065 -0.0368
 3089TIP3    H1 9273   3.228   2.273   2.909  0.1229  0.2721  0.1806
 3089TIP3    H2 9274   3.327   2.297   2.798  0.8282  1.7287  1.0957
 3090TIP3   OH2 9275   3.442   0.692   4.547  0.2011  0.5864  0.3664
 3090TIP3    H1 9276   3.383   0.687   4.623 -2.4508  2.2404 -1.4077
 3090TIP3    H2 9277   3.506   0.622   4.562 -1.3454 -0.4058  3.1660
 3091TIP3   OH2 9278   5.062   4.008   1.612  0.0856  0.5110 -0.3162
 3091TIP3    H1 9279   5.031   3.997   1.702 -1.5546 -0.3157 -0.9377
 3091TIP3    H2 9280   5.081   3.919   1.582  0.1490  0.7268 -0.9336
 3092TIP3   OH2 9281   2.678   3.375   3.737  0.1940  0.4460  0.3696
 3092TIP3    H1 9282   2.694   3.405   3.647 -3.1441  0.9377 -0.1975
 3092TIP3    H2 9283   2.760   3.333   3.763  1.6653  1.2685 -2.4695
 3093TIP3   OH2 9284   3.607   0.453   4.544 -0.2513 -0.0423 -0.0763
 3093TIP3    H1 9285   3.568   0.401   4.475  1.1765  1.4894 -2.1557
 3093TIP3    H2 9286   3.698   0.466   4.517 -0.0955  2.0952  1.1702
 3094TIP3   OH2 9287   2.175   0.585   3.793 -0.1094 -0.5200 -0.3550
 3094TIP3    H1 9288   2.240   0.594   3.863 -0.4421 -1.1881  0.0467
 3094TIP3    H2 9289   2.215   0.523   3.732 -0.7427 -1.6819  0.3650
 3095TIP3   OH2 9290   1.219   1.059   1.192  0.0251 -0.3885 -0.0525
 3095TIP3    H1 9291   1.240   1.144   1.229 -2.0828  0.5762 -0.9044
 3095TIP3    H2 9292   1.156   1.021   1.252 -0.6358 -0.4014 -0.7317
 3096TIP3   OH2 9293   1.810   2.501   1.487 -0.5720 -0.1585 -0.9635
 3096TIP3    H1 9294   1.844   2.414   1.510  1.0148  1.1057  1.9754
 3096TIP3    H2 9295   1.884   2.545   1.447 -1.8352 -0.5651 -4.0043
 3097TIP3   OH2 9296   5.580   0.271   2.563 -0.6779  0.1085  0.3381
 3097TIP3    H1 9297   5.501   0.263   2.510  1.1601  0.4491 -2.6934
 3097TIP3    H2 9298   5.589   0.185   2.605 -1.5609 -0.6509 -0.9487
 3098TIP3   OH2 9299   5.536   3.796   0.283 -0.8841  0.1898 -0.3934
 3098TIP3    H1 9300   5.539   3.767   0.375 -0.9881  2.1306  0.2759
 3098TIP3    H2 9301   5.629   3.804   0.258 -0.8547 -0.1950 -0.4113
 3099TIP3   OH2 9302   4.837   2.586   4.767 -0.4965  0.5992 -0.1391
 3099TIP3    H1 9303   4.864   2.601   4.858  0.5918 -0.3101 -0.2951
 3099TIP3    H2 9304   4.745   2.560   4.774 -0.5245  0.8718  0.6711
 3100TIP3   OH2 9305   4.485   0.431   3.528  0.2478  0.4436  0.5540
 3100TIP3    H1 9306   4.467   0.412   3.435 -0.4085 -0.3288  0.8238
 3100TIP3    H2 9307   4.428   0.505   3.548  0.4646  0.6778  0.3200
 3101TIP3   OH2 9308   2.875   0.182   0.879  0.1197 -0.6495  0.3837
 3101TIP3    H1 9309   2.781   0.190   0.893 -0.2554 -2.8373 -0.3702
 3101TIP3    H2 9310   2.900   0.262   0.834 -0.7407  1.3814  3.2668
 3102TIP3   OH2 9311   3.649   4.997   0.790 -0.1793  0.5687 -0.4175
 3102TIP3    H1 9312   3.655   5.038   0.704 -0.1351  0.1566 -0.6148
 3102TIP3    H2 9313   3.576   4.935   0.782  0.4869 -0.2279 -0.4841
 3103TIP3   OH2 9314   1.912   5.625   4.152 -0.4303  0.0776 -0.1572
 3103TIP3    H1 9315   1.941   5.537   4.129  0.7846 -0.1819  2.1102
 3103TIP3    H2 9316   1.942   5.680   4.079 -0.6978 -1.2591 -1.3306
 3104TIP3   OH2 9317   5.831   2.988   1.310 -0.5496 -0.2405 -0.1681
 3104TIP3    H1 9318   5.915   3.004   1.354 -0.8174 -0.2563  0.3634
 3104TIP3    H2 9319   5.780   2.937   1.373 -0.9826 -0.1783 -0.4591
 3105TIP3   OH2 9320   5.891   0.495   1.501  0.4579  0.1061 -0.5415
 3105TIP3    H1 9321   5.824   0.443   1.545  1.3357 -2.4904 -2.0966
 3105TIP3    H2 9322   5.948   0.525   1.572 -0.2460 -0.7747  0.4232
 3106TIP3   OH2 9323   3.265   0.270   5.137 -1.0081 -0.1597  0.2449
 3106TIP3    H1 9324   3.303   0.182   5.137  0.0805  0.2792 -0.6563
 3106TIP3    H2 9325   3.332   0.325   5.096 -1.5285  1.1548  1.0938
 3107TIP3   OH2 9326   1.462   0.694   3.656  0.0374 -0.1421 -0.3782
 3107TIP3    H1 9327   1.479   0.600   3.660 -0.2028 -0.2223 -1.0740
 3107TIP3    H2 9328   1.532   0.734   3.707  0.5483 -0.6511 -0.6758
 3108TIP3   OH2 9329   1.650   0.437   4.166 -0.4532  0.3665  0.2232
 3108TIP3    H1 9330   1.718   0.386   4.121  0.7192  1.3895  0.7687
 3108TIP3    H2 9331   1.695   0.517   4.194 -2.3856  2.0913 -1.2684
 3109TIP3   OH2 9332   4.745   0.754   3.570 -0.5804  0.4074  0.2068
 3109TIP3    H1 9333   4.774   0.663   3.561 -0.3266  0.5255 -0.2380
 3109TIP3    H2 9334   4.754   0.790   3.481 -0.1253  1.0249  0.4958
 3110TIP3   OH2 9335   6.336   1.866   0.207 -0.0800  0.4718  0.2138
 3110TIP3    H1 9336   6.261   1.821   0.169  1.0739 -1.0732 -0.3528
 3110TIP3    H2 9337   6.372   1.804   0.270  0.1246  1.6014  1.2548
 3111TIP3   OH2 9338   5.808   5.601   2.622 -0.0733 -0.3376 -0.5067
 3111TIP3    H1 9339   5.843   5.627   2.537 -1.7461  2.1590 -0.5210
 3111TIP3    H2 9340   5.797   5.506   2.615  2.9469 -0.7285 -1.7986
 3112TIP3   OH2 9341   5.538   1.197   0.178  0.6913 -0.4742 -0.2142
 3112TIP3    H1 9342   5.505   1.154   0.257  0.0296 -0.8015 -0.6647
 3112TIP3    H2 9343   5.465   1.252   0.148  1.1248  0.0603 -0.3039
 3113TIP3   OH2 9344   5.909   2.600   1.840  0.3327 -0.3568  0.7175
 3113TIP3    H1 9345   5.853   2.678   1.836 -0.9296 -1.1849  1.4968
 3113TIP3    H2 9346   5.935   2.593   1.931 -1.9332 -2.3699  1.3358
 3114TIP3   OH2 9347   1.471   5.556   2.715  0.0737 -0.2724  0.5210
 3114TIP3    H1 9348   1.411   5.501   2.665 -0.0663 -0.9018  1.3681
 3114TIP3    H2 9349   1.422   5.579   2.794  0.2576  0.7935  0.3470
 3115TIP3   OH2 9350   5.749   2.751   4.519 -0.3491 -0.5264  0.1150
 3115TIP3    H1 9351   5.793   2.679   4.564  0.6885 -0.1804 -0.3208
 3115TIP3    H2 9352   5.670   2.711   4.482  0.6618 -1.6993 -0.9221
 3116TIP3   OH2 9353   1.000   2.130   5.161  0.7954 -0.3731 -0.5823
 3116TIP3    H1 9354   1.043   2.106   5.243  1.8112  0.3855 -0.8740
 3116TIP3    H2 9355   1.056   2.198   5.124 -0.5687  0.5280 -1.0677
 3117TIP3   OH2 9356   6.080   3.635   2.320  0.5291 -0.3113 -0.5526
 3117TIP3    H1 9357   6.170   3.667   2.333  1.2860 -1.9816 -1.2726
 3117TIP3    H2 9358   6.089   3.568   2.252 -1.1717 -0.9811 -0.1589
 3118TIP3   OH2 9359   0.893   5.894   4.868 -0.3562 -0.4917 -0.4298
 3118TIP3    H1 9360   0.943   5.946   4.806  0.7210  0.7767  1.4135
 3118TIP3    H2 9361   0.926   5.805   4.857 -0.5282 -0.3925 -1.9558
 3119TIP3   OH2 9362   2.457   0.144   4.570 -0.0057 -0.3094 -0.0056
 3119TIP3    H1 9363   2.507   0.223   4.551  0.6140 -0.5408  0.6176
 3119TIP3    H2 9364   2.418   0.119   4.486 -0.0146  0.5221 -0.2508
 3120TIP3   OH2 9365   1.350   4.561   1.630 -0.0907 -0.1961  0.3039
 3120TIP3    H1 9366   1.280   4.516   1.582  0.2584 -0.4193  0.0024
 3120TIP3    H2 9367   1.405   4.490   1.663 -0.7496 -0.0993  1.7149
 3121TIP3   OH2 9368   2.390   3.358   1.207  0.0361  0.0002  0.0445
 3121TIP3    H1 9369   2.302   3.326   1.227 -0.2723  1.6455  1.6257
 3121TIP3    H2 9370   2.383   3.453   1.215  2.4679  0.0982  2.6584
 3122TIP3   OH2 9371   2.410   3.377   0.436 -0.2144  0.0952 -0.3304
 3122TIP3    H1 9372   2.393   3.422   0.354 -0.7119 -0.5325 -0.5821
 3122TIP3    H2 9373   2.449   3.293   0.410  0.1697  0.1347  0.1030
 3123TIP3   OH2 9374   4.870   4.911   5.017 -0.2958 -0.0662 -0.6878
 3123TIP3    H1 9375   4.902   4.825   4.991  0.1854 -0.0013 -0.3223
 3123TIP3    H2 9376   4.875   4.911   5.113  0.0066  0.4802 -0.7008
 3124TIP3   OH2 9377   3.553   5.355   3.767 -0.7039  0.3163 -0.3364
 3124TIP3    H1 9378   3.585   5.380   3.680  0.5746 -0.2728 -0.0562
 3124TIP3    H2 9379   3.627   5.311   3.808 -1.8521 -1.0132  0.3900
 3125TIP3   OH2 9380   3.529   5.641   0.826  0.0618  0.0082  0.0462
 3125TIP3    H1 9381   3.494   5.604   0.745  1.1135 -0.7952 -0.0694
 3125TIP3    H2 9382   3.460   5.628   0.891 -0.1450 -0.8607 -0.3369
 3126TIP3   OH2 9383   0.619   5.479   4.999 -0.2016  0.3148  0.2899
 3126TIP3    H1 9384   0.711   5.451   5.001 -1.1021 -3.1291  1.7174
 3126TIP3    H2 9385   0.620   5.566   5.037  2.5771  1.0041 -1.0328
 3127TIP3   OH2 9386   3.997   0.952   4.096  0.4424  0.5446 -0.1816
 3127TIP3    H1 9387   3.976   1.004   4.174 -0.5694  0.5767 -0.4704
 3127TIP3    H2 9388   4.086   0.919   4.113 -0.8001 -1.8860  2.3700
 3128TIP3   OH2 9389   2.207   5.013   0.646  0.3621  0.2301 -0.1035
 3128TIP3    H1 9390   2.275   5.029   0.711  0.4085 -0.7480  0.1087
 3128TIP3    H2 9391   2.255   5.000   0.564  0.4167 -0.1686 -0.0103
 3129TIP3   OH2 9392   1.843   3.643   1.553  0.1754  0.2594 -0.3993
 3129TIP3    H1 9393   1.920   3.600   1.515 -0.4227 -2.1791  0.9351
 3129TIP3    H2 9394   1.777   3.638   1.485 -0.7601 -3.6930  0.5239
 3130TIP3   OH2 9395   1.004   1.971   4.909 -0.3954  0.5437  0.3840
 3130TIP3    H1 9396   1.028   1.884   4.942  0.2878  0.3243 -0.6442
 3130TIP3    H2 9397   1.030   2.030   4.980  1.9800  0.1786 -0.0799
 3131TIP3   OH2 9398   0.390   4.533   2.320  0.3081  0.0437 -0.4254
 3131TIP3    H1 9399   0.387   4.583   2.401  0.5167 -0.6961  0.0540
 3131TIP3    H2 9400   0.482   4.505   2.314  0.2069 -0.2241 -0.7148
 3132TIP3   OH2 9401   6.173   4.076   3.684  0.3073 -0.6554  0.2768
 3132TIP3    H1 9402   6.101   4.013   3.696 -0.6076  0.6689  2.3975
 3132TIP3    H2 9403   6.226   4.068   3.763  0.9798  0.2410 -0.0602
 3133TIP3   OH2 9404   6.048   1.752   3.795  0.5220 -0.1014  0.3009
 3133TIP3    H1 9405   5.959   1.784   3.779 -0.3547 -2.3117  0.3739
 3133TIP3    H2 9406   6.104   1.807   3.740 -1.0807  0.2610 -1.0438
 3134TIP3   OH2 9407   4.392   5.936   1.257  0.4060 -0.3332  0.2378
 3134TIP3    H1 9408   4.452   5.871   1.292 -0.4623 -1.4472 -0.3000
 3134TIP3    H2 9409   4.424   6.019   1.293  0.8250 -1.1702  1.9107
 3135TIP3   OH2 9410   4.442   2.986   0.550  0.2766 -0.0001  0.0914
 3135TIP3    H1 9411   4.347   2.988   0.557  0.3088  0.0937  0.5101
 3135TIP3    H2 9412   4.459   2.988   0.456 -0.1164  0.6877  0.0307
 3136TIP3   OH2 9413   5.733   4.108   1.530 -0.0037 -0.2415  0.6696
 3136TIP3    H1 9414   5.658   4.131   1.586  0.5511 -0.9611  1.7494
 3136TIP3    H2 9415   5.694   4.059   1.457 -0.8137  1.2468  0.0514
 3137TIP3   OH2 9416   1.166   0.218   0.457 -0.3697  0.5097 -0.5581
 3137TIP3    H1 9417   1.139   0.309   0.448 -0.0490  0.6667  0.0046
 3137TIP3    H2 9418   1.151   0.179   0.371 -0.2252  1.1704 -0.8867
 3138TIP3   OH2 9419   5.345   1.414   0.018  0.3286 -0.2673 -0.0501
 3138TIP3    H1 9420   5.367   1.431  -0.074  0.3284 -0.6610 -0.1262
 3138TIP3    H2 9421   5.418   1.453   0.067 -0.9945  2.4096 -0.0417
 3139TIP3   OH2 9422   5.311   2.832   4.705  0.0853  0.1238 -0.7068
 3139TIP3    H1 9423   5.218   2.844   4.685 -0.5728 -0.5515  1.6316
 3139TIP3    H2 9424   5.355   2.841   4.620 -1.8396  2.8700 -1.5628
 3140TIP3   OH2 9425   5.562   5.690   2.701 -0.0149 -0.3848 -0.1029
 3140TIP3    H1 9426   5.578   5.785   2.702  0.0016 -0.3619 -1.2725
 3140TIP3    H2 9427   5.642   5.653   2.666  0.0960 -0.8722  0.6498
 3141TIP3   OH2 9428   4.408   2.551   0.718  0.1639  0.0714 -0.0488
 3141TIP3    H1 9429   4.344   2.607   0.674  0.6673  1.6966  1.1699
 3141TIP3    H2 9430   4.489   2.563   0.669  0.2599  0.3872  0.1842
 3142TIP3   OH2 9431   3.499   1.231   1.822  0.0586 -0.3196 -0.0172
 3142TIP3    H1 9432   3.511   1.149   1.774  1.3924  0.7128 -1.5764
 3142TIP3    H2 9433   3.405   1.243   1.827 -0.2265 -2.5960  1.4797
 3143TIP3   OH2 9434   2.569   0.855   5.144 -0.2598  0.4313 -0.0185
 3143TIP3    H1 9435   2.660   0.865   5.175 -0.0119  1.9177 -1.1141
 3143TIP3    H2 9436   2.522   0.927   5.185 -0.3543  1.2263 -1.4654
 3144TIP3   OH2 9437   0.543   5.243   1.072  0.1998 -0.3923  0.2599
 3144TIP3    H1 9438   0.452   5.222   1.050  0.4672 -0.0075 -1.3376
 3144TIP3    H2 9439   0.594   5.175   1.029  0.7255  0.0179  0.2267
 3145TIP3   OH2 9440   3.224   0.035   4.263 -0.1928 -0.3770 -0.0963
 3145TIP3    H1 9441   3.209   0.123   4.229  1.2870  0.2481  0.7340
 3145TIP3    H2 9442   3.260  -0.013   4.189  0.0462  0.0631 -0.2724
 3146TIP3   OH2 9443   3.149   0.915   1.216  0.4891 -0.2246  0.3176
 3146TIP3    H1 9444   3.182   0.834   1.178  0.1472 -0.8576  1.3546
 3146TIP3    H2 9445   3.219   0.946   1.273  0.7904  0.4484 -0.3994
 3147TIP3   OH2 9446   5.710   4.961   1.995 -0.2631  0.3176 -0.4187
 3147TIP3    H1 9447   5.767   4.893   2.032 -0.2955  0.5475  0.0725
 3147TIP3    H2 9448   5.621   4.927   2.009 -0.2602  0.0674 -0.9699
 3148TIP3   OH2 9449   2.015   4.584   2.654  0.4943  0.1433  0.4585
 3148TIP3    H1 9450   2.070   4.521   2.607  2.7714  1.5414  1.0876
 3148TIP3    H2 9451   1.998   4.543   2.739 -1.0243 -1.0524 -0.3589
 3149TIP3   OH2 9452   3.838   2.795   3.316 -0.7781 -0.0289  0.0304
 3149TIP3    H1 9453   3.875   2.881   3.336 -0.6112  0.5919 -2.5762
 3149TIP3    H2 9454   3.895   2.733   3.362 -0.1100  1.1777  0.8826
 3150TIP3   OH2 9455   3.584   5.198   4.175  0.2137 -0.0158 -0.2964
 3150TIP3    H1 9456   3.506   5.219   4.125 -0.1713  0.5353  0.4994
 3150TIP3    H2 9457   3.581   5.103   4.188  1.4868 -0.5455 -3.1607
 3151TIP3   OH2 9458   4.751   1.971   0.581 -0.8388  0.2223  0.2432
 3151TIP3    H1 9459   4.717   1.973   0.492  0.7799 -1.0218 -0.4402
 3151TIP3    H2 9460   4.709   2.046   0.624 -2.4750  0.2182 -1.2234
 3152TIP3   OH2 9461   0.248   4.945   1.868 -0.0099 -0.5262  0.0304
 3152TIP3    H1 9462   0.261   5.006   1.940 -1.2635  0.4393 -0.5316
 3152TIP3    H2 9463   0.241   5.000   1.790 -1.8699 -1.3002 -0.4145
 3153TIP3   OH2 9464   0.732   2.823   3.791  0.0580  0.2309 -0.0833
 3153TIP3    H1 9465   0.805   2.883   3.805 -0.5544  1.1982 -0.8704
 3153TIP3    H2 9466   0.682   2.862   3.719 -0.2346 -1.3608 -0.7856
 3154TIP3   OH2 9467   0.569   0.091   4.073  0.3344 -0.2231  0.4177
 3154TIP3    H1 9468   0.616   0.168   4.040 -2.1684  0.3794 -2.2137
 3154TIP3    H2 9469   0.578   0.027   4.002 -2.5495 -0.1072 -0.1467
 3155TIP3   OH2 9470   4.180   4.779   1.730 -0.0753 -0.0123  1.1036
 3155TIP3    H1 9471   4.084   4.776   1.724  0.0104  0.0269 -0.8155
 3155TIP3    H2 9472   4.208   4.688   1.727  0.0414  0.0387 -1.5488
 3156TIP3   OH2 9473   3.307   3.324   3.669  0.0778 -0.6901  0.1096
 3156TIP3    H1 9474   3.355   3.252   3.710 -1.6901 -0.5372  2.6843
 3156TIP3    H2 9475   3.371   3.394   3.658  1.0103 -1.3762  1.0075
 3157TIP3   OH2 9476   5.972   3.030   2.427  0.2566  0.3532 -0.1862
 3157TIP3    H1 9477   5.981   3.008   2.520 -0.3021 -0.3106 -0.2784
 3157TIP3    H2 9478   6.059   3.016   2.390  0.4108  0.3378  0.1804
 3158TIP3   OH2 9479   4.697   1.187   2.329  0.7976 -0.8772 -0.3813
 3158TIP3    H1 9480   4.772   1.242   2.306  0.3410  0.4113  1.0741
 3158TIP3    H2 9481   4.662   1.225   2.409 -1.5855 -1.2641 -1.1418
 3159TIP3   OH2 9482   4.504   5.153   0.647 -0.1979  0.1702  0.0896
 3159TIP3    H1 9483   4.548   5.237   0.659 -2.3671  1.3663  0.2184
 3159TIP3    H2 9484   4.543   5.117   0.567  0.3836  1.5632 -0.2819
 3160TIP3   OH2 9485   0.108   3.216   2.353 -0.3106 -0.0338  0.4939
 3160TIP3    H1 9486   0.149   3.225   2.267  0.1168  0.4254  0.7378
 3160TIP3    H2 9487   0.163   3.268   2.412 -0.1797 -0.9400  1.1938
 3161TIP3   OH2 9488   5.901   2.566   1.435 -0.0874  0.3313 -0.1576
 3161TIP3    H1 9489   5.958   2.530   1.503 -0.6887  1.0547  0.7607
 3161TIP3    H2 9490   5.955   2.630   1.389 -0.0283  0.7210  0.4454
 3162TIP3   OH2 9491   1.651   0.238   0.153 -0.5197  0.1231 -0.0652
 3162TIP3    H1 9492   1.711   0.297   0.107 -0.4897  0.2399  0.1202
 3162TIP3    H2 9493   1.582   0.296   0.186 -0.1187  0.1605  0.7243
 3163TIP3   OH2 9494   3.749   2.742   0.742  0.6259 -0.0006  0.5331
 3163TIP3    H1 9495   3.707   2.672   0.792 -0.0325 -0.4237 -0.5817
 3163TIP3    H2 9496   3.686   2.814   0.744  0.9371  0.2673  0.9558
 3164TIP3   OH2 9497   6.167   4.065   5.145 -0.4514 -0.2368 -0.3405
 3164TIP3    H1 9498   6.092   4.007   5.151 -0.7739  0.1852 -0.2734
 3164TIP3    H2 9499   6.212   4.055   5.229 -1.4437  0.8742  0.3519
 3165TIP3   OH2 9500   4.614   5.648   2.042  0.1886 -0.0409 -0.3096
 3165TIP3    H1 9501   4.604   5.698   2.124  0.8452  0.0370 -0.2672
 3165TIP3    H2 9502   4.551   5.576   2.050  0.7170 -0.4296  0.5754
 3166TIP3   OH2 9503   5.418   5.502   1.184  0.8650  0.1450  0.1456
 3166TIP3    H1 9504   5.439   5.546   1.102 -0.2611  0.2057 -0.1264
 3166TIP3    H2 9505   5.498   5.508   1.236  1.4463  0.4993 -0.7693
 3167TIP3   OH2 9506   1.796   5.228   2.432 -0.3047 -0.1876 -0.3168
 3167TIP3    H1 9507   1.725   5.164   2.429  0.3918 -1.0997  1.2745
 3167TIP3    H2 9508   1.822   5.231   2.524  2.9009 -1.2387 -1.0547
 3168TIP3   OH2 9509   4.451   3.147   0.774  0.3006 -0.4229 -0.3267
 3168TIP3    H1 9510   4.500   3.122   0.696  0.0396 -0.5950 -0.4347
 3168TIP3    H2 9511   4.360   3.149   0.746  0.3134  0.6661 -0.3324
 3169TIP3   OH2 9512   4.495   3.518   3.616 -0.0954 -0.0536 -0.1691
 3169TIP3    H1 9513   4.409   3.502   3.653  0.2411  1.7698  1.5805
 3169TIP3    H2 9514   4.477   3.545   3.525 -1.4287  0.8144  0.3191
 3170TIP3   OH2 9515   4.275   1.599   4.983  0.5247  0.1735  0.2655
 3170TIP3    H1 9516   4.223   1.520   4.972  3.2694 -1.6502 -0.8331
 3170TIP3    H2 9517   4.288   1.608   5.077  0.3751 -0.8420  0.3862
 3171TIP3   OH2 9518   0.933   0.596   1.488 -0.1754 -0.0581  0.3069
 3171TIP3    H1 9519   0.946   0.542   1.566 -0.3300 -0.0071  0.3679
 3171TIP3    H2 9520   0.997   0.666   1.496 -0.7233  0.3953  0.7861
 3172TIP3   OH2 9521   5.032   3.668   3.651  0.3400  0.1515 -0.0885
 3172TIP3    H1 9522   4.998   3.728   3.717  0.1417 -1.7481  1.6200
 3172TIP3    H2 9523   4.959   3.611   3.630  0.7328 -0.0036 -1.1165
 3173TIP3   OH2 9524   0.209   1.896   0.518 -0.4806 -0.5225 -0.5262
 3173TIP3    H1 9525   0.117   1.870   0.525  0.3420 -3.5291  1.0087
 3173TIP3    H2 9526   0.239   1.903   0.609  1.0912 -0.8980 -0.9764
 3174TIP3   OH2 9527   2.270   3.437   3.661  0.1813  0.4279  0.6135
 3174TIP3    H1 9528   2.225   3.521   3.646 -1.2051 -0.5150 -0.7679
 3174TIP3    H2 9529   2.318   3.421   3.580 -0.1609 -0.4564  0.5783
 3175TIP3   OH2 9530   1.329   1.273   3.559  0.0129  0.1210 -0.2311
 3175TIP3    H1 9531   1.289   1.258   3.645  0.6970  0.8681  0.2308
 3175TIP3    H2 9532   1.269   1.231   3.498 -0.6866 -0.0984  0.5762
 3176TIP3   OH2 9533   1.992   4.468   0.519 -0.2104  0.2889  0.5934
 3176TIP3    H1 9534   1.942   4.498   0.444 -1.1404 -1.3667  0.4929
 3176TIP3    H2 9535   2.080   4.452   0.484 -0.1617  1.2047  0.2782
 3177TIP3   OH2 9536   5.274   2.650   2.244  0.4410 -0.3584  0.5055
 3177TIP3    H1 9537   5.200   2.603   2.206  1.0883 -1.7775  0.9210
 3177TIP3    H2 9538   5.258   2.742   2.223 -1.5095 -0.6151  0.7374
 3178TIP3   OH2 9539   3.065   2.841   5.064  0.3814 -0.2083  0.1284
 3178TIP3    H1 9540   3.142   2.893   5.040 -0.4905 -0.5675 -4.2198
 3178TIP3    H2 9541   2.993   2.904   5.067  0.0636 -0.5171 -0.7390
 3179TIP3   OH2 9542   3.349   2.027   5.130 -0.5176 -0.3430 -0.4844
 3179TIP3    H1 9543   3.386   2.000   5.213 -0.2206 -0.5803 -0.6914
 3179TIP3    H2 9544   3.258   1.997   5.133  0.0130 -2.1869 -1.0496
 3180TIP3   OH2 9545   3.628   2.462   3.847 -0.2175 -0.1201 -0.3797
 3180TIP3    H1 9546   3.674   2.422   3.922  1.5545 -0.8023 -1.7413
 3180TIP3    H2 9547   3.597   2.546   3.880  0.0442 -0.6243  1.2647
 3181TIP3   OH2 9548   0.349   0.963   2.507 -0.0040  0.6228  0.4529
 3181TIP3    H1 9549   0.358   0.887   2.564 -2.8718  0.4744  0.8642
 3181TIP3    H2 9550   0.312   1.031   2.563 -0.4916  1.2826 -0.6306
 3182TIP3   OH2 9551   1.629   1.732   2.763  0.3196  0.3026 -0.5301
 3182TIP3    H1 9552   1.554   1.673   2.774 -0.5406  1.5008  0.3047
 3182TIP3    H2 9553   1.702   1.674   2.744 -0.3192 -1.1362  1.1009
 3183TIP3   OH2 9554   4.743   1.304   0.342  0.5899  0.4277 -0.9559
 3183TIP3    H1 9555   4.829   1.284   0.380  2.3044  2.1642 -3.5971
 3183TIP3    H2 9556   4.710   1.219   0.313  0.7568 -0.4541  1.2285
 3184TIP3   OH2 9557   1.841   5.429   4.538 -0.0222 -0.1290 -0.1635
 3184TIP3    H1 9558   1.799   5.484   4.472 -0.4386 -0.6602 -0.3526
 3184TIP3    H2 9559   1.868   5.351   4.490 -2.7382 -1.7683  0.7207
 3185TIP3   OH2 9560   4.490   0.208   1.235  0.1261 -0.1333 -0.0419
 3185TIP3    H1 9561   4.546   0.266   1.286 -0.1437  1.3851 -1.4023
 3185TIP3    H2 9562   4.404   0.250   1.235  0.0658 -0.1965 -1.5195
 3186TIP3   OH2 9563   4.091   3.357   1.604  0.2086  0.0549 -0.0599
 3186TIP3    H1 9564   4.134   3.442   1.607  1.0981 -0.3201 -1.1390
 3186TIP3    H2 9565   4.031   3.362   1.529  0.8118 -0.4751 -0.6036
 3187TIP3   OH2 9566   2.829   5.633   0.663 -0.1103 -0.2576 -0.4490
 3187TIP3    H1 9567   2.894   5.570   0.694  0.1471  0.5067  0.6132
 3187TIP3    H2 9568   2.749   5.580   0.650 -0.0311 -0.7530  0.8479
 3188TIP3   OH2 9569   4.554   0.117   3.446 -0.8864 -1.1396  0.6221
 3188TIP3    H1 9570   4.476   0.083   3.403 -1.3526 -2.3015  2.2792
 3188TIP3    H2 9571   4.627   0.078   3.398 -1.1806  1.0715 -1.8552
 3189TIP3   OH2 9572   0.736   0.631   4.504 -0.1237 -0.2789  0.1836
 3189TIP3    H1 9573   0.676   0.703   4.524 -1.4710 -0.0288 -3.7917
 3189TIP3    H2 9574   0.684   0.552   4.521 -0.4051 -0.1416 -0.0155
 3190TIP3   OH2 9575   4.053   1.441   2.882 -0.2859  0.0037 -0.5686
 3190TIP3    H1 9576   4.103   1.455   2.802  0.2440 -0.5127 -0.3437
 3190TIP3    H2 9577   3.962   1.454   2.857  0.0297  2.4406 -0.6708
 3191TIP3   OH2 9578   1.978   5.826   3.180  0.6408  0.2414 -0.4845
 3191TIP3    H1 9579   2.004   5.738   3.207 -0.4332  0.2877  0.8068
 3191TIP3    H2 9580   1.980   5.877   3.260  3.6489  2.0910 -1.5800
 3192TIP3   OH2 9581   1.208   2.739   0.368 -0.2966  0.3686 -0.2224
 3192TIP3    H1 9582   1.283   2.725   0.426 -0.1667 -1.4162 -0.7697
 3192TIP3    H2 9583   1.218   2.830   0.338  0.2139  0.9723  1.6837
 3193TIP3   OH2 9584   0.784   2.051   1.276 -0.0031 -0.2387  0.4016
 3193TIP3    H1 9585   0.801   2.016   1.189 -2.0492  0.1763 -0.2157
 3193TIP3    H2 9586   0.865   2.034   1.325  0.7974 -1.4376 -1.2426
 3194TIP3   OH2 9587   4.049   4.401   2.230  0.1137 -0.6595  0.1146
 3194TIP3    H1 9588   4.057   4.352   2.311  0.9980  0.8583  0.9744
 3194TIP3    H2 9589   3.975   4.460   2.244  0.1890 -0.4759 -0.2361
 3195TIP3   OH2 9590   1.211   0.166   3.038  0.0340  0.6467  0.4177
 3195TIP3    H1 9591   1.274   0.217   2.988 -1.9049 -0.4639 -3.5690
 3195TIP3    H2 9592   1.127   0.208   3.020 -1.0101 -1.0835  1.0079
 3196TIP3   OH2 9593   2.530   3.590   3.808  0.2416 -0.4484 -0.5795
 3196TIP3    H1 9594   2.514   3.624   3.720 -0.3110 -0.1183 -0.3511
 3196TIP3    H2 9595   2.570   3.504   3.794  2.3214  0.5538 -1.1809
 3197TIP3   OH2 9596   5.903   3.015   1.912  0.2169 -0.4960  0.2999
 3197TIP3    H1 9597   5.932   3.106   1.921  2.8299 -1.2139  0.0857
 3197TIP3    H2 9598   5.834   3.005   1.978  0.8557  1.2653  1.3134
 3198TIP3   OH2 9599   2.850   3.184   4.594 -0.1013  0.0806 -0.3711
 3198TIP3    H1 9600   2.887   3.098   4.617  0.0040  0.5013  1.1653
 3198TIP3    H2 9601   2.831   3.177   4.501  1.9091 -0.8779 -0.7836
 3199TIP3   OH2 9602   5.471   2.888   0.584  0.1796 -0.0968  0.2522
 3199TIP3    H1 9603   5.423   2.835   0.648  2.9897 -1.1490  1.6379
 3199TIP3    H2 9604   5.475   2.833   0.506 -0.1283 -0.3233  0.3925
 3200TIP3   OH2 9605   1.249   0.173   1.665  0.7922 -0.2794 -0.2094
 3200TIP3    H1 9606   1.249   0.143   1.574 -1.0326 -1.7797  0.2313
 3200TIP3    H2 9607   1.210   0.101   1.715  0.2792  1.1261  1.5386
 3201TIP3   OH2 9608   5.727   4.686   4.283 -0.3666  0.5865 -0.5851
 3201TIP3    H1 9609   5.778   4.748   4.231  1.4639 -0.5275 -0.2148
 3201TIP3    H2 9610   5.788   4.615   4.303 -1.9705 -0.6451  0.2385
 3202TIP3   OH2 9611   3.348   1.049   3.145  0.4709 -0.0516  0.4353
 3202TIP3    H1 9612   3.409   1.050   3.071 -0.6480 -0.4153 -0.5124
 3202TIP3    H2 9613   3.302   1.132   3.140 -1.8201 -1.3240 -1.2125
 3203TIP3   OH2 9614   2.888   5.069   3.312 -0.3316 -0.5797 -0.0135
 3203TIP3    H1 9615   2.879   4.994   3.371  1.0113 -0.6473  0.1176
 3203TIP3    H2 9616   2.881   5.031   3.224  0.1819 -0.8313  0.0548
 3204TIP3   OH2 9617   2.249   0.374   4.340  0.4679  0.5617  0.1179
 3204TIP3    H1 9618   2.236   0.398   4.249  0.9117 -0.5097 -0.2455
 3204TIP3    H2 9619   2.340   0.346   4.345  0.6356  1.2325  1.0379
 3205TIP3   OH2 9620   2.935   1.144   1.216  0.0572  0.1528  0.5039
 3205TIP3    H1 9621   2.986   1.199   1.275 -0.0597  0.9748 -0.1482
 3205TIP3    H2 9622   2.993   1.071   1.195  0.2821  0.1178  1.2307
 3206TIP3   OH2 9623   1.525   0.800   4.499 -0.1873  0.4153  0.1911
 3206TIP3    H1 9624   1.517   0.772   4.408  0.3834  1.4402 -0.1843
 3206TIP3    H2 9625   1.587   0.737   4.537  1.3078  1.2730 -0.7154
 3207TIP3   OH2 9626   0.405   4.910   4.255 -0.0793  0.1990 -0.2316
 3207TIP3    H1 9627   0.393   4.916   4.349 -0.1107  1.9372 -0.3130
 3207TIP3    H2 9628   0.410   5.001   4.225  0.0071 -0.3103 -1.8971
 3208TIP3   OH2 9629   0.574   1.284   0.157 -0.1729  0.2111 -0.7732
 3208TIP3    H1 9630   0.630   1.221   0.202 -1.2232 -1.0706 -1.2137
 3208TIP3    H2 9631   0.488   1.242   0.153 -1.1436  2.0593 -0.2721
 3209TIP3   OH2 9632   5.067   2.354   4.754 -0.3060 -0.5371  0.4162
 3209TIP3    H1 9633   5.112   2.421   4.806  0.5789 -1.3650  0.7591
 3209TIP3    H2 9634   5.058   2.393   4.667  2.1795 -0.7487 -0.0227
 3210TIP3   OH2 9635   2.274   1.263   0.606 -0.5535  0.2574  0.1072
 3210TIP3    H1 9636   2.238   1.278   0.693  2.5859 -0.2007  1.5942
 3210TIP3    H2 9637   2.311   1.347   0.580  1.8802 -0.4597  0.9756
 3211TIP3   OH2 9638   5.945   0.573   4.441  0.3671 -0.3625  0.3068
 3211TIP3    H1 9639   5.853   0.592   4.421  0.6498 -1.1223 -1.9832
 3211TIP3    H2 9640   5.987   0.659   4.447 -0.7460  0.0834  3.1098
 3212TIP3   OH2 9641   5.725   1.428   1.421 -0.6167  0.2183  0.5500
 3212TIP3    H1 9642   5.658   1.361   1.427  0.3558 -0.9111 -0.5543
 3212TIP3    H2 9643   5.750   1.430   1.329 -0.2667  1.7589  0.6434
 3213TIP3   OH2 9644   4.070   3.642   4.353  0.7732 -0.2372  0.1627
 3213TIP3    H1 9645   3.987   3.594   4.362  0.2253  0.5398 -0.5912
 3213TIP3    H2 9646   4.044   3.730   4.325  1.5469  1.3966  3.9901
 3214TIP3   OH2 9647   1.952   3.894   1.592  0.5696  0.2500 -0.5984
 3214TIP3    H1 9648   1.890   3.823   1.605  0.2894  0.3525 -1.3512
 3214TIP3    H2 9649   2.025   3.855   1.544  0.9976  0.1825  0.0857
 3215TIP3   OH2 9650   1.239   0.102   4.715  0.1307  0.8119 -0.4869
 3215TIP3    H1 9651   1.322   0.135   4.748 -0.8088  4.1006 -1.0632
 3215TIP3    H2 9652   1.190   0.077   4.793  0.4039  2.1542  0.1453
 3216TIP3   OH2 9653   4.535   5.459   1.555 -0.5384 -0.1804 -0.7747
 3216TIP3    H1 9654   4.447   5.451   1.518  0.0481  0.0329 -2.2717
 3216TIP3    H2 9655   4.593   5.468   1.479  0.9140 -1.5016  0.1183
 3217TIP3   OH2 9656   4.372   1.500   0.827  0.4428 -0.0286  0.2294
 3217TIP3    H1 9657   4.341   1.459   0.907  1.6544 -0.3915  0.5421
 3217TIP3    H2 9658   4.353   1.593   0.839  2.0815  0.1744  1.7036
 3218TIP3   OH2 9659   6.233   3.621   0.905  0.5057  0.1750 -0.7379
 3218TIP3    H1 9660   6.313   3.577   0.877  0.0704  0.2083 -2.0677
 3218TIP3    H2 9661   6.163   3.575   0.859 -0.0216  1.8090 -1.6070
 3219TIP3   OH2 9662   3.161   3.916   0.070 -0.5957  0.2573  0.2550
 3219TIP3    H1 9663   3.089   3.979   0.067 -1.0077 -0.2343 -1.0128
 3219TIP3    H2 9664   3.239   3.969   0.091 -0.5652  1.6111 -2.7832
 3220TIP3   OH2 9665   4.499   0.841   2.845 -1.0326 -0.5691 -0.1594
 3220TIP3    H1 9666   4.500   0.936   2.858  0.6512 -0.5079 -0.4629
 3220TIP3    H2 9667   4.464   0.805   2.926  0.9623  0.1960  1.1034
 3221TIP3   OH2 9668   4.838   1.314   2.862  0.1863  0.2639  0.4718
 3221TIP3    H1 9669   4.848   1.289   2.954 -0.0204 -0.1135  0.3901
 3221TIP3    H2 9670   4.770   1.382   2.863  1.8022  1.9679  0.8825
 3222TIP3   OH2 9671   4.810   4.159   4.072  0.0312  0.5221  0.1249
 3222TIP3    H1 9672   4.898   4.125   4.090  0.7535  0.7084 -2.5436
 3222TIP3    H2 9673   4.752   4.084   4.089  1.1382 -0.7769 -1.4607
 3223TIP3   OH2 9674   0.589   4.953   4.774 -0.0613 -0.3336 -0.0860
 3223TIP3    H1 9675   0.671   5.000   4.761 -1.0929  1.4004 -0.6438
 3223TIP3    H2 9676   0.543   5.003   4.842 -0.5993 -1.3713  0.3426
 3224TIP3   OH2 9677   3.024   0.271   3.076  0.3378  0.2893 -0.4887
 3224TIP3    H1 9678   2.932   0.251   3.093  0.4508  1.4191  1.7076
 3224TIP3    H2 9679   3.033   0.364   3.098  2.1741  0.0056  0.1210
 3225TIP3   OH2 9680   2.360   4.159   0.803 -0.1965  0.2512  0.2934
 3225TIP3    H1 9681   2.347   4.121   0.716 -0.1882  1.2982 -0.1774
 3225TIP3    H2 9682   2.370   4.083   0.861 -3.9771 -0.6162  0.0583
 3226TIP3   OH2 9683   0.660   5.693   4.693  0.4072  0.0499  0.2798
 3226TIP3    H1 9684   0.617   5.769   4.733  0.0902 -0.3331  0.6616
 3226TIP3    H2 9685   0.753   5.713   4.699  0.3905 -0.1935  1.5980
 3227TIP3   OH2 9686   5.842   3.318   1.449  0.4344 -0.6312 -0.1290
 3227TIP3    H1 9687   5.851   3.343   1.358  1.3941 -1.4565 -0.2828
 3227TIP3    H2 9688   5.748   3.304   1.461  0.2923 -0.4383 -0.9707
 3228TIP3   OH2 9689   0.039   2.059   2.893  0.3967  0.2784 -0.8079
 3228TIP3    H1 9690   0.003   2.147   2.898 -0.5478 -0.0664 -1.4232
 3228TIP3    H2 9691   0.021   2.021   2.978 -0.1106  0.3281 -0.8941
 3229TIP3   OH2 9692   4.564   4.055   1.346 -0.6153  0.1995  0.0106
 3229TIP3    H1 9693   4.551   4.146   1.320 -2.0499  0.0960  0.2891
 3229TIP3    H2 9694   4.535   4.004   1.270 -0.4707 -0.0472  0.1183
 3230TIP3   OH2 9695   2.601   2.449   3.208  0.2506  0.4809 -0.5821
 3230TIP3    H1 9696   2.517   2.458   3.163 -0.6117  0.7131  0.9772
 3230TIP3    H2 9697   2.601   2.521   3.272  0.9602 -0.4035  0.4463
 3231TIP3   OH2 9698   4.027   1.002   0.744  0.1640  0.0259  0.6330
 3231TIP3    H1 9699   3.957   1.041   0.797  0.5581 -1.1099  2.0593
 3231TIP3    H2 9700   3.987   0.990   0.657 -0.8442  0.9677  0.9415
 3232TIP3   OH2 9701   1.273   1.873   4.481  0.3305 -0.0742  0.5677
 3232TIP3    H1 9702   1.234   1.833   4.559  1.5256 -0.5396  0.9517
 3232TIP3    H2 9703   1.240   1.820   4.409 -0.6642  0.2608  0.7674
 3233TIP3   OH2 9704   5.285   2.900   2.117  0.0933 -0.2763 -0.4180
 3233TIP3    H1 9705   5.252   2.989   2.130 -0.1617 -0.5295  0.7953
 3233TIP3    H2 9706   5.378   2.907   2.138  0.1249 -0.2521 -0.5640
 3234TIP3   OH2 9707   4.291   5.522   4.435  0.3000  0.1680  0.3446
 3234TIP3    H1 9708   4.244   5.602   4.458 -1.4071 -0.7620  0.2746
 3234TIP3    H2 9709   4.382   5.539   4.460 -0.0034  2.1401  0.2521
 3235TIP3   OH2 9710   3.034   4.857   3.431  0.6068  0.1506 -0.1162
 3235TIP3    H1 9711   3.073   4.904   3.505  0.6198 -1.2576  0.8073
 3235TIP3    H2 9712   3.093   4.783   3.416 -1.6715 -2.1179  1.4070
 3236TIP3   OH2 9713   2.570   5.528   0.119 -0.6311 -0.4425 -0.1804
 3236TIP3    H1 9714   2.573   5.444   0.164 -2.6286 -0.0929  0.7047
 3236TIP3    H2 9715   2.528   5.508   0.035 -0.7704 -0.3881 -0.1234
 3237TIP3   OH2 9716   1.416   2.233   1.210 -0.3035  1.2802  0.3455
 3237TIP3    H1 9717   1.357   2.158   1.197  0.5469  0.5876  0.4022
 3237TIP3    H2 9718   1.406   2.255   1.303 -0.4069  1.1109  0.3753
 3238TIP3   OH2 9719   3.086   3.494   3.089 -0.1869  0.5760  1.1228
 3238TIP3    H1 9720   3.149   3.552   3.046 -0.8617  0.2671 -0.3611
 3238TIP3    H2 9721   3.040   3.452   3.017 -1.7324  0.4035  2.1686
 3239TIP3   OH2 9722   3.240   5.397   2.019  0.2337  0.4263  0.1162
 3239TIP3    H1 9723   3.152   5.361   2.014  0.6982 -0.8838  0.8266
 3239TIP3    H2 9724   3.264   5.415   1.929 -1.2028  1.9800 -0.0074
 3240TIP3   OH2 9725   2.901   2.715   4.597 -0.1964 -0.1675  0.3024
 3240TIP3    H1 9726   2.841   2.761   4.656  0.3657  1.9714 -0.7050
 3240TIP3    H2 9727   2.972   2.777   4.581  0.1514 -1.0204 -1.8476
 3241TIP3   OH2 9728   2.849   5.191   3.562 -0.0134 -0.1414 -0.5073
 3241TIP3    H1 9729   2.871   5.155   3.476 -0.9335 -0.6151 -0.5548
 3241TIP3    H2 9730   2.809   5.118   3.609 -0.3992  0.3763 -0.0152
 3242TIP3   OH2 9731   0.888   2.353   3.282 -0.2998  0.2957 -0.4454
 3242TIP3    H1 9732   0.860   2.310   3.363  0.8973 -0.5560 -0.4657
 3242TIP3    H2 9733   0.972   2.313   3.261 -0.4968  0.6389 -2.0137
 3243TIP3   OH2 9734   3.866   3.989   1.441  0.5194 -0.2593  0.1550
 3243TIP3    H1 9735   3.823   3.978   1.356 -0.8546 -0.1428  0.8192
 3243TIP3    H2 9736   3.839   3.912   1.491  0.3159  0.2883  0.8987
 3244TIP3   OH2 9737   4.830   2.465   2.498 -0.2147 -0.1589  0.3828
 3244TIP3    H1 9738   4.846   2.476   2.592 -1.1206  0.7502  0.4584
 3244TIP3    H2 9739   4.741   2.428   2.494  0.0486 -0.7497 -0.1067
 3245TIP3   OH2 9740   3.334   5.549   0.339 -0.3943 -0.0766  0.1014
 3245TIP3    H1 9741   3.354   5.501   0.258 -1.0405 -1.3469  0.6654
 3245TIP3    H2 9742   3.312   5.638   0.309 -0.9539 -0.6068 -1.1589
 3246TIP3   OH2 9743   1.513   5.155   0.526  0.2034  0.0605 -0.2396
 3246TIP3    H1 9744   1.605   5.163   0.550 -0.2234  3.2970  0.7838
 3246TIP3    H2 9745   1.498   5.229   0.467 -1.7008 -0.5338 -0.5497
 3247TIP3   OH2 9746   6.092   1.317   0.882  0.4341 -0.0991 -0.0853
 3247TIP3    H1 9747   6.091   1.366   0.799  1.4849  0.2423  0.0867
 3247TIP3    H2 9748   6.081   1.225   0.856  0.7686  0.0053 -0.6024
 3248TIP3   OH2 9749   3.658   5.475   1.470 -0.0932 -0.3908  0.1017
 3248TIP3    H1 9750   3.669   5.450   1.378 -1.8021 -0.1243 -0.2139
 3248TIP3    H2 9751   3.563   5.479   1.482  0.1038  1.0682  1.4683
 3249TIP3   OH2 9752   4.761   3.560   2.720  0.1397 -0.2336 -0.0723
 3249TIP3    H1 9753   4.695   3.585   2.785  0.7959 -1.0182  0.9464
 3249TIP3    H2 9754   4.836   3.530   2.773  0.1542 -2.3074 -1.1722
 3250TIP3   OH2 9755   3.604   2.085   2.293 -0.2714 -0.2019 -0.4952
 3250TIP3    H1 9756   3.652   2.095   2.374 -1.4788  1.4419  0.0758
 3250TIP3    H2 9757   3.669   2.056   2.229  1.1646  0.6514  0.5340
 3251TIP3   OH2 9758   2.401   2.371   0.659 -0.2896  0.0282  0.4123
 3251TIP3    H1 9759   2.402   2.280   0.630  0.2080  0.1249  0.1077
 3251TIP3    H2 9760   2.355   2.369   0.743 -4.0206  0.1050 -1.4552
 3252TIP3   OH2 9761   2.038   2.528   4.716 -0.5921 -0.2351 -0.3236
 3252TIP3    H1 9762   1.945   2.553   4.720 -1.1481 -1.8886 -1.5433
 3252TIP3    H2 9763   2.070   2.569   4.636 -0.4992 -0.3457 -0.3436
 3253TIP3   OH2 9764   1.566   5.070   2.410 -0.2022 -0.2968  1.0318
 3253TIP3    H1 9765   1.588   4.977   2.400  0.1666 -0.0600 -0.5241
 3253TIP3    H2 9766   1.546   5.100   2.322  3.6345  2.0539  0.7076
 3254TIP3   OH2 9767   5.658   3.565   0.861 -0.0928  0.2963 -0.4396
 3254TIP3    H1 9768   5.629   3.652   0.834  1.5815  1.3358  0.8971
 3254TIP3    H2 9769   5.735   3.581   0.915  0.7473 -2.0806 -0.8066
 3255TIP3   OH2 9770   2.390   0.551   0.521 -0.5190  0.0273 -0.2271
 3255TIP3    H1 9771   2.353   0.638   0.539  0.2222 -0.0519  2.0696
 3255TIP3    H2 9772   2.316   0.499   0.490 -1.7390  0.6421  1.4991
 3256TIP3   OH2 9773   1.788   3.211   3.358 -0.1099  0.3463  0.1663
 3256TIP3    H1 9774   1.715   3.179   3.411  0.4263  0.2777  0.8808
 3256TIP3    H2 9775   1.813   3.294   3.399  0.7217 -0.0204  0.4185
 3257TIP3   OH2 9776   1.812   0.054   1.299  0.2474  0.2570 -0.9695
 3257TIP3    H1 9777   1.902   0.074   1.325  0.6842  2.3750 -3.6791
 3257TIP3    H2 9778   1.820  -0.015   1.234 -0.3368 -1.0316  0.2692
 3258TIP3   OH2 9779   3.580   2.545   0.829  0.0650 -0.7475  0.3560
 3258TIP3    H1 9780   3.611   2.459   0.857  2.0118 -0.0600  0.4947
 3258TIP3    H2 9781   3.491   2.551   0.862 -0.2940 -2.9004 -0.1114
 3259TIP3   OH2 9782   2.059   4.525   2.254  0.4032 -0.2001  0.1970
 3259TIP3    H1 9783   2.085   4.436   2.276  0.3739  0.0377  1.2458
 3259TIP3    H2 9784   2.131   4.580   2.285  0.3881  0.1460 -0.3731
 3260TIP3   OH2 9785   2.085   2.744   0.019 -0.5583 -0.2581  0.1796
 3260TIP3    H1 9786   2.022   2.740   0.092 -0.0553  2.6453  0.8994
 3260TIP3    H2 9787   2.033   2.773  -0.056 -0.5458 -0.3974  0.1169
 3261TIP3   OH2 9788   1.227   5.123   1.701 -0.2296 -0.7523  0.5381
 3261TIP3    H1 9789   1.310   5.155   1.735  0.0623  0.4925 -1.1880
 3261TIP3    H2 9790   1.172   5.200   1.693 -0.4992 -1.0572 -1.0844
 3262TIP3   OH2 9791   5.945   5.092   1.079  0.4037 -0.4533  0.0141
 3262TIP3    H1 9792   5.870   5.034   1.088  0.5379 -0.5517  0.5443
 3262TIP3    H2 9793   5.968   5.087   0.986  0.8723 -1.8474  0.1731
 3263TIP3   OH2 9794   0.749   0.505   2.873 -0.4560  0.0194  0.5948
 3263TIP3    H1 9795   0.719   0.501   2.782  0.1465 -0.1310  0.3953
 3263TIP3    H2 9796   0.672   0.532   2.922 -0.8715 -0.1932  0.0784
 3264TIP3   OH2 9797   0.769   3.403   4.308 -0.0807 -0.7142  0.0008
 3264TIP3    H1 9798   0.846   3.460   4.314 -0.9345  0.5469 -0.6380
 3264TIP3    H2 9799   0.732   3.402   4.396 -0.6202  0.5510 -0.1980
 3265TIP3   OH2 9800   2.442   3.186   0.997  0.1311 -0.2010 -0.2449
 3265TIP3    H1 9801   2.481   3.248   0.935 -1.6748 -0.0519 -1.3157
 3265TIP3    H2 9802   2.427   3.238   1.076  1.7393 -0.1893  0.0907
 3266TIP3   OH2 9803   2.124   4.725   5.049  0.3486 -0.2303 -0.7112
 3266TIP3    H1 9804   2.128   4.660   5.120  1.8152  2.9439  2.4387
 3266TIP3    H2 9805   2.042   4.773   5.066  1.1277  1.1018 -0.5877
 3267TIP3   OH2 9806   1.856   1.235   4.068  0.1471  0.3153 -0.3324
 3267TIP3    H1 9807   1.829   1.261   4.156 -1.3093 -0.0657 -0.6454
 3267TIP3    H2 9808   1.932   1.179   4.082 -0.7105 -0.6096  0.7550
 3268TIP3   OH2 9809   3.891   2.560   1.367 -0.1014 -0.1874  0.4086
 3268TIP3    H1 9810   3.833   2.632   1.343 -2.5521 -1.3456  2.3142
 3268TIP3    H2 9811   3.839   2.481   1.350  1.0967 -1.3072  1.7029
 3269TIP3   OH2 9812   0.382   2.216   3.092  0.3485 -0.0774  0.2421
 3269TIP3    H1 9813   0.353   2.141   3.144  0.1008 -0.5134 -0.5151
 3269TIP3    H2 9814   0.435   2.267   3.153  1.3838 -1.3875  0.5027
 3270TIP3   OH2 9815   4.440   3.872   2.771 -0.6720  0.7921  0.7335
 3270TIP3    H1 9816   4.348   3.848   2.779 -0.4334 -1.2832 -1.5426
 3270TIP3    H2 9817   4.485   3.821   2.837 -0.7353 -1.7608 -1.0380
 3271TIP3   OH2 9818   1.498   0.367   5.122  0.4415 -0.1906 -0.0631
 3271TIP3    H1 9819   1.529   0.317   5.198  0.7903  0.0200 -0.0655
 3271TIP3    H2 9820   1.402   0.364   5.129  0.4207 -1.5036 -0.4720
 3272TIP3   OH2 9821   2.734   4.533   0.523 -0.6290  0.0631  0.1483
 3272TIP3    H1 9822   2.739   4.533   0.619  2.2240 -0.3590  0.0893
 3272TIP3    H2 9823   2.647   4.497   0.504 -2.0993  1.9913  2.5358
 3273TIP3   OH2 9824   2.341   0.978   1.173 -0.2090 -0.3613 -0.0403
 3273TIP3    H1 9825   2.301   1.065   1.175  0.3271 -0.0816 -0.8593
 3273TIP3    H2 9826   2.329   0.948   1.083  0.6809 -0.6109 -0.0833
 3274TIP3   OH2 9827   1.019   5.169   1.955 -0.8046 -0.2043 -0.2711
 3274TIP3    H1 9828   0.963   5.232   1.909 -1.1792  0.0629  0.5469
 3274TIP3    H2 9829   0.972   5.086   1.947 -0.4587 -0.3308 -1.0859
 3275TIP3   OH2 9830   4.036   3.910   2.693  0.3643 -0.5424 -0.0387
 3275TIP3    H1 9831   4.015   3.850   2.764 -0.2096 -0.6899 -0.3325
 3275TIP3    H2 9832   4.009   3.996   2.725 -0.1084 -0.6416 -0.1657
 3276TIP3   OH2 9833   4.650   5.005   1.568 -0.4725  0.1356  0.5411
 3276TIP3    H1 9834   4.727   4.999   1.625  0.6085 -0.0474 -0.8903
 3276TIP3    H2 9835   4.583   4.954   1.613  1.5212 -3.3708 -0.1681
 3277TIP3   OH2 9836   1.918   0.264   1.048 -0.0885 -0.2977 -0.4313
 3277TIP3    H1 9837   1.881   0.329   0.989 -2.8516 -0.9922  0.3670
 3277TIP3    H2 9838   1.913   0.305   1.135 -1.3243 -1.3141  0.0028
 3278TIP3   OH2 9839   3.005   1.692   0.929 -0.0701  0.3366  0.0117
 3278TIP3    H1 9840   2.925   1.681   0.878 -1.0048  0.2964  1.4219
 3278TIP3    H2 9841   3.037   1.602   0.943  0.1347  0.3424 -0.3947
 3279TIP3   OH2 9842   6.005   4.594   0.103 -0.0753  0.2330 -0.5976
 3279TIP3    H1 9843   6.076   4.530   0.094  0.2639  0.5180  0.0097
 3279TIP3    H2 9844   6.045   4.678   0.081 -0.1012  0.4618  0.2141
 3280TIP3   OH2 9845   4.773   5.889   3.517  0.0140  0.8708 -0.0502
 3280TIP3    H1 9846   4.792   5.912   3.426  0.5032  3.9580  0.7023
 3280TIP3    H2 9847   4.820   5.955   3.568 -1.2208 -0.0425  2.4260
 3281TIP3   OH2 9848   4.142   2.614   0.509  0.5087 -0.3510 -0.5283
 3281TIP3    H1 9849   4.139   2.673   0.584 -1.3457 -0.0259 -0.8174
 3281TIP3    H2 9850   4.154   2.527   0.548  0.3092 -0.1062  0.0964
 3282TIP3   OH2 9851   5.428   2.346   5.123  0.0573  0.0505  0.4545
 3282TIP3    H1 9852   5.387   2.327   5.207 -0.3315  0.1752  0.2926
 3282TIP3    H2 9853   5.487   2.271   5.109 -1.0026 -0.7525  0.1192
 3283TIP3   OH2 9854   5.125   2.945   0.205 -0.7369  0.2429  0.1239
 3283TIP3    H1 9855   5.062   2.929   0.275  1.2470  0.7584  2.1467
 3283TIP3    H2 9856   5.196   2.882   0.221 -0.6907 -0.3789 -2.1126
 3284TIP3   OH2 9857   2.168   5.740   3.681  0.1872 -0.0440 -0.4588
 3284TIP3    H1 9858   2.105   5.668   3.689  1.3995 -1.0460  0.4440
 3284TIP3    H2 9859   2.194   5.758   3.771  1.7572 -0.1743 -0.8674
 3285TIP3   OH2 9860   2.351   4.612   2.053  0.2781  0.8965  0.2309
 3285TIP3    H1 9861   2.312   4.644   2.134  1.4209  1.3773  0.6188
 3285TIP3    H2 9862   2.445   4.624   2.066  0.5832 -0.4170 -0.5814
 3286TIP3   OH2 9863   1.147   1.603   2.849 -0.5939 -0.4709  0.5327
 3286TIP3    H1 9864   1.057   1.573   2.864 -1.0283  1.1245  1.3909
 3286TIP3    H2 9865   1.155   1.681   2.904  0.6951  0.5343 -1.0037
 3287TIP3   OH2 9866   4.351   2.131   4.589 -0.0177  0.8060  0.2216
 3287TIP3    H1 9867   4.421   2.068   4.570  1.6829  1.9856  2.1541
 3287TIP3    H2 9868   4.278   2.077   4.620  0.8440 -0.3058  0.3861
 3288TIP3   OH2 9869   0.074   3.026   1.390 -0.0224 -0.3715  0.8061
 3288TIP3    H1 9870   0.130   3.063   1.458 -1.5202  1.0798  1.3332
 3288TIP3    H2 9871   0.096   3.075   1.311 -0.4847  0.1502  0.9968
 3289TIP3   OH2 9872   3.193   4.700   4.009 -0.5966  0.1432  0.1346
 3289TIP3    H1 9873   3.167   4.609   4.021 -0.7913  0.3496  1.4751
 3289TIP3    H2 9874   3.135   4.733   3.941 -2.1799 -0.0936  1.3105
 3290TIP3   OH2 9875   3.637   4.826   0.387  0.1125  0.0937 -0.1682
 3290TIP3    H1 9876   3.544   4.809   0.376 -0.1198 -1.4506  2.9915
 3290TIP3    H2 9877   3.641   4.907   0.437  0.1870 -1.4344  2.4821
 3291TIP3   OH2 9878   3.528   5.965   2.192 -0.3433  0.4991 -0.1425
 3291TIP3    H1 9879   3.469   6.039   2.184 -2.7972 -1.1329  1.5196
 3291TIP3    H2 9880   3.506   5.908   2.118  0.0978  0.4475 -0.2420
 3292TIP3   OH2 9881   2.992   5.299   1.686 -0.1245  0.4587  0.3144
 3292TIP3    H1 9882   2.926   5.368   1.684 -1.4568 -0.7608 -2.6735
 3292TIP3    H2 9883   3.010   5.280   1.594 -0.1494 -3.4565  0.9725
 3293TIP3   OH2 9884   1.072   1.575   1.139 -0.1170 -0.1664 -0.1119
 3293TIP3    H1 9885   1.112   1.489   1.150 -0.9779 -0.3435  2.1581
 3293TIP3    H2 9886   0.979   1.557   1.125 -0.0959  0.3729 -1.0364
 3294TIP3   OH2 9887   2.611   1.579   3.841 -0.2020 -0.3679  0.0162
 3294TIP3    H1 9888   2.609   1.612   3.930 -1.3950  0.7600 -0.3976
 3294TIP3    H2 9889   2.537   1.520   3.835 -0.5589  0.1155 -0.4183
 3295TIP3   OH2 9890   1.675   1.294   2.857  0.3106 -0.4064 -0.4822
 3295TIP3    H1 9891   1.678   1.334   2.770 -3.4120 -0.4175 -0.7961
 3295TIP3    H2 9892   1.717   1.357   2.915 -0.0061  1.1183 -1.8474
 3296TIP3   OH2 9893   5.147   0.917   4.048 -0.4061  0.3836 -0.1598
 3296TIP3    H1 9894   5.212   0.930   4.117  0.4095 -0.0403 -0.8435
 3296TIP3    H2 9895   5.076   0.870   4.092  0.8791 -1.5132 -0.0001
 3297TIP3   OH2 9896   3.834   1.104   4.881 -0.3170 -0.2213 -0.1735
 3297TIP3    H1 9897   3.753   1.077   4.924 -1.4622 -0.6150 -2.4417
 3297TIP3    H2 9898   3.806   1.158   4.808  1.4504 -0.5622 -1.1724
 3298TIP3   OH2 9899   0.878   2.567   0.701 -0.2732  0.4956  0.0774
 3298TIP3    H1 9900   0.837   2.554   0.786  0.0625  0.8698  0.3017
 3298TIP3    H2 9901   0.852   2.491   0.649  1.3663 -0.9357  1.2231
 3299TIP3   OH2 9902   0.973   0.816   3.483  0.8104 -0.4817  0.1473
 3299TIP3    H1 9903   1.050   0.872   3.469  0.4349  0.6466  2.1314
 3299TIP3    H2 9904   0.990   0.738   3.431  0.5852  2.0777 -4.2930
 3300TIP3   OH2 9905   5.311   4.743   3.540 -0.2617 -0.0926  0.1361
 3300TIP3    H1 9906   5.340   4.665   3.588  0.2352  0.8067  1.3604
 3300TIP3    H2 9907   5.331   4.816   3.599  0.4841  1.0856 -1.4936
 3301TIP3   OH2 9908   1.363   3.462   4.727 -0.1946 -0.0430 -0.0641
 3301TIP3    H1 9909   1.451   3.438   4.697 -0.4097 -1.4003  0.3104
 3301TIP3    H2 9910   1.377   3.529   4.793  0.7479 -1.7350  1.5585
 3302TIP3   OH2 9911   1.812   3.004   1.473  0.1470  0.1151 -0.2985
 3302TIP3    H1 9912   1.789   3.097   1.461 -1.6666 -0.1460  0.7409
 3302TIP3    H2 9913   1.800   2.988   1.566  0.1688 -1.2384 -0.5045
 3303TIP3   OH2 9914  -0.007   4.184   1.747  0.0355 -0.1692 -0.3010
 3303TIP3    H1 9915   0.081   4.212   1.722  0.2443 -0.6588 -0.1330
 3303TIP3    H2 9916  -0.019   4.220   1.835 -0.8384  1.8604 -1.1653
 3304TIP3   OH2 9917   4.150   2.502   2.657 -0.1988  0.5012 -0.1428
 3304TIP3    H1 9918   4.072   2.452   2.680 -1.2202  1.5322 -1.2215
 3304TIP3    H2 9919   4.216   2.473   2.720 -1.4730 -0.3078  0.8851
 3305TIP3   OH2 9920   5.398   1.857   0.550 -0.9815  0.3837 -0.8085
 3305TIP3    H1 9921   5.483   1.894   0.527 -0.8571  0.8578  0.3594
 3305TIP3    H2 9922   5.351   1.929   0.593 -1.3210 -0.3616  0.0985
 3306TIP3   OH2 9923   2.211   3.413   4.318 -0.6204  0.1054 -0.6136
 3306TIP3    H1 9924   2.127   3.366   4.320 -1.5404  1.6547 -1.2589
 3306TIP3    H2 9925   2.233   3.419   4.225 -0.1837  0.3915 -0.4927
 3307TIP3   OH2 9926   5.837   3.474   0.015 -0.2331 -0.3271 -0.3127
 3307TIP3    H1 9927   5.763   3.462   0.075 -0.8536  2.5838 -0.3466
 3307TIP3    H2 9928   5.912   3.434   0.061 -1.3355 -1.1631  0.8205
 3308TIP3   OH2 9929   1.063   0.317   3.451 -0.3373 -0.4881 -0.0022
 3308TIP3    H1 9930   0.980   0.296   3.494 -0.5778 -1.6151 -0.9622
 3308TIP3    H2 9931   1.085   0.237   3.403  0.0593  0.6238 -1.7387
 3309TIP3   OH2 9932   0.428   0.248   2.228 -0.1433 -0.3235  0.0376
 3309TIP3    H1 9933   0.503   0.261   2.287  1.1850 -1.9791 -1.1758
 3309TIP3    H2 9934   0.397   0.160   2.248 -2.7528  0.8211  1.4907
 3310TIP3   OH2 9935   6.130   3.461   3.579  0.0663 -0.2686  0.3038
 3310TIP3    H1 9936   6.085   3.502   3.653  0.1715 -1.2170  0.9084
 3310TIP3    H2 9937   6.061   3.448   3.514 -0.0761  0.3448  0.3229
 3311TIP3   OH2 9938   0.939   3.995   2.262  0.1656 -0.4249 -0.1149
 3311TIP3    H1 9939   0.892   4.074   2.235  0.5388 -0.5868 -1.2849
 3311TIP3    H2 9940   1.019   4.028   2.303 -0.6636 -0.1654  1.3862
 3312TIP3   OH2 9941   3.178   1.395   4.838  0.2485  0.4953 -0.0203
 3312TIP3    H1 9942   3.180   1.302   4.860  0.1308  0.5293  0.1394
 3312TIP3    H2 9943   3.085   1.414   4.825  0.2061  0.7309  0.5676
 3313TIP3   OH2 9944   3.495   2.916   3.037  0.2022  0.4639  0.2091
 3313TIP3    H1 9945   3.517   2.926   3.130  0.1085 -0.8665  0.3947
 3313TIP3    H2 9946   3.578   2.926   2.992  0.4240  0.1201  0.5297
 3314TIP3   OH2 9947   4.840   3.668   4.255 -0.0068 -0.0772 -0.2962
 3314TIP3    H1 9948   4.846   3.683   4.161 -0.1968 -1.4157 -0.5362
 3314TIP3    H2 9949   4.746   3.658   4.272 -0.1840  2.1941  0.3988
 3315TIP3   OH2 9950   3.243   5.855   1.939  0.2047 -0.1956 -0.5108
 3315TIP3    H1 9951   3.197   5.876   2.021 -0.8474  1.4069 -1.4595
 3315TIP3    H2 9952   3.319   5.804   1.967  0.4067  1.1139  1.5757
 3316TIP3   OH2 9953   2.657   4.506   2.748  0.4879  0.0957  0.3494
 3316TIP3    H1 9954   2.593   4.545   2.807  2.2584  1.6099  1.4078
 3316TIP3    H2 9955   2.638   4.544   2.662 -1.2750 -1.0864  0.1739
 3317TIP3   OH2 9956   3.041   1.564   1.326  0.2976  0.5983  0.5652
 3317TIP3    H1 9957   3.072   1.474   1.330 -0.1046  0.3323 -1.2086
 3317TIP3    H2 9958   2.955   1.557   1.285  1.0399  1.9067 -1.3662
 3318TIP3   OH2 9959   0.839   3.870   1.094 -0.3575  0.0451  0.3843
 3318TIP3    H1 9960   0.880   3.955   1.109 -1.0272  0.3032  0.8091
 3318TIP3    H2 9961   0.891   3.809   1.146  1.6101 -0.2511 -1.7546
 3319TIP3   OH2 9962   1.047   3.985   1.558 -0.4598  0.5308  0.7170
 3319TIP3    H1 9963   1.082   3.931   1.487  2.4403  2.3466  0.6126
 3319TIP3    H2 9964   0.971   4.029   1.520  0.0958  0.2648 -0.7623
 3320TIP3   OH2 9965   5.947   0.579   3.726 -0.2826  0.0599  0.1322
 3320TIP3    H1 9966   5.874   0.541   3.775 -0.3349  0.3476  0.2789
 3320TIP3    H2 9967   6.012   0.602   3.793  0.0106 -0.3346 -0.0106
 3321TIP3   OH2 9968   2.935   5.156   1.405  0.2297  0.0873 -0.7826
 3321TIP3    H1 9969   3.022   5.168   1.367 -0.2415  0.0141 -1.9460
 3321TIP3    H2 9970   2.882   5.123   1.332 -0.8409  0.4117 -0.1721
 3322TIP3   OH2 9971   1.555   4.326   2.843 -0.3656  0.2491  0.2456
 3322TIP3    H1 9972   1.643   4.297   2.867 -0.2184  1.6180  1.4789
 3322TIP3    H2 9973   1.565   4.419   2.823 -1.5120  0.3904  0.2854
 3323TIP3   OH2 9974   6.169   1.870   2.767 -0.4595 -0.3269 -0.0229
 3323TIP3    H1 9975   6.117   1.789   2.760 -1.1579 -0.3226  3.1788
 3323TIP3    H2 9976   6.256   1.840   2.793 -0.7827 -0.1055  1.4060
 3324TIP3   OH2 9977   3.621   3.651   4.685 -0.0945 -0.0018  0.3714
 3324TIP3    H1 9978   3.572   3.668   4.605  0.5112  0.8578  0.1680
 3324TIP3    H2 9979   3.638   3.557   4.683 -1.8193 -0.3638  0.5147
 3325TIP3   OH2 9980   4.937   5.860   1.219 -0.2526 -0.5647  0.0012
 3325TIP3    H1 9981   4.996   5.854   1.144 -0.7196 -1.3124 -0.3238
 3325TIP3    H2 9982   4.896   5.773   1.224 -1.0983 -0.1592  0.3977
 3326TIP3   OH2 9983   4.904   3.882   3.831  0.1880  0.1753 -1.2289
 3326TIP3    H1 9984   4.990   3.922   3.846  0.8920 -1.9426  1.0214
 3326TIP3    H2 9985   4.859   3.944   3.774  2.2615  2.6399 -0.3952
 3327TIP3   OH2 9986   2.254   4.759   1.774 -0.2763 -0.3598 -0.3505
 3327TIP3    H1 9987   2.256   4.712   1.858 -0.8240  0.6210  0.2376
 3327TIP3    H2 9988   2.185   4.824   1.786  0.3048  0.4282 -1.2310
 3328TIP3   OH2 9989   0.687   5.269   3.840 -0.5283  0.3881 -0.4673
 3328TIP3    H1 9990   0.649   5.327   3.905 -1.8190 -2.0464  1.0892
 3328TIP3    H2 9991   0.617   5.255   3.776 -0.3157  0.3256 -0.6910
 3329TIP3   OH2 9992   2.745   3.149   1.737 -0.3553  0.9201 -0.1885
 3329TIP3    H1 9993   2.668   3.114   1.693  0.9476 -2.9375  0.1923
 3329TIP3    H2 9994   2.819   3.114   1.688  1.1478  2.0081  1.1953
 3330TIP3   OH2 9995   3.722   3.306   0.865 -0.5544 -0.0363 -0.3381
 3330TIP3    H1 9996   3.780   3.249   0.916 -0.4337 -0.5368 -1.0127
 3330TIP3    H2 9997   3.711   3.259   0.782 -1.7891  0.1337 -0.2841
 3331TIP3   OH2 9998   2.478   2.530   4.067  0.0832  0.1140  0.1688
 3331TIP3    H1 9999   2.410   2.463   4.069  0.9374 -0.7703  0.7421
 3331TIP3    H210000   2.452   2.593   4.135  0.5349 -0.9697  1.3939
 3332TIP3   OH210001   1.207   0.878   0.468  0.0614 -0.7960 -0.1569
 3332TIP3    H110002   1.281   0.824   0.440  1.4380  0.9337 -0.0464
 3332TIP3    H210003   1.220   0.888   0.562 -2.6777 -3.8154  0.7265
 3333TIP3   OH210004   3.029   3.454   0.249  0.4476 -0.0871 -0.3291
 3333TIP3    H110005   3.101   3.443   0.312  1.5238 -0.7281 -1.6217
 3333TIP3    H210006   3.056   3.529   0.196  0.8074 -1.1039 -1.6287
 3334TIP3   OH210007   3.638   3.900   1.239  0.6209  0.6775  0.2549
 3334TIP3    H110008   3.650   3.977   1.184  0.2608  0.5012 -0.0773
 3334TIP3    H210009   3.640   3.826   1.178 -0.9769  0.5560  0.2926
 3335TIP3   OH210010   3.375   5.080   0.448  0.0114  0.0140  0.2122
 3335TIP3    H110011   3.319   5.005   0.428  0.4929 -0.3350  0.1560
 3335TIP3    H210012   3.337   5.152   0.398 -0.6892 -0.0917  0.5763
 3336TIP3   OH210013   0.742   3.711   0.397 -0.1381 -0.2849  0.3138
 3336TIP3    H110014   0.683   3.682   0.466 -1.6812 -0.8915 -1.1641
 3336TIP3    H210015   0.829   3.688   0.428 -0.8350 -1.0882  1.7795
 3337TIP3   OH210016   3.471   3.997   4.840  0.2261  0.1757 -0.3653
 3337TIP3    H110017   3.547   3.949   4.806 -0.3110 -0.4350 -0.7415
 3337TIP3    H210018   3.422   3.931   4.889 -0.3069  0.4482 -0.5350
 3338TIP3   OH210019   4.859   5.181   1.033  0.3046  0.3615 -0.5006
 3338TIP3    H110020   4.946   5.198   1.069  0.6043  0.5938 -1.3155
 3338TIP3    H210021   4.868   5.099   0.985 -0.1793 -0.1253  0.2270
 3339TIP3   OH210022   5.990   5.909   3.433 -0.7667  0.3296 -0.7635
 3339TIP3    H110023   6.004   5.930   3.525  3.2232 -1.6045 -0.7261
 3339TIP3    H210024   5.960   5.991   3.394 -2.7354  1.1747  2.1769
 3340TIP3   OH210025   3.591   4.534   2.879  0.0157  0.2389  0.3506
 3340TIP3    H110026   3.501   4.564   2.894 -0.1955 -0.5152  0.6643
 3340TIP3    H210027   3.639   4.613   2.856 -0.4955  0.8349  1.2386
 3341TIP3   OH210028   2.672   0.846   0.063  0.0921 -0.2340  0.2380
 3341TIP3    H110029   2.690   0.870   0.153  0.4474  0.2435  0.0383
 3341TIP3    H210030   2.578   0.824   0.063  0.0757 -0.1742  0.7039
 3342TIP3   OH210031   5.778   2.330   4.549 -0.3947 -0.1354 -0.2417
 3342TIP3    H110032   5.781   2.323   4.454  0.0137  1.7260 -0.3977
 3342TIP3    H210033   5.825   2.411   4.569 -0.3343 -0.5643  1.5662
 3343TIP3   OH210034   1.503   0.077   3.154 -0.1736 -0.3848  0.3156
 3343TIP3    H110035   1.469   0.046   3.070  0.0023  2.6601 -1.0060
 3343TIP3    H210036   1.598   0.062   3.149 -0.2199 -0.6068  0.1460
 3344TIP3   OH210037   0.555   2.123   2.700 -0.1618 -0.2145  0.2920
 3344TIP3    H110038   0.481   2.082   2.745 -1.2487  0.7490 -0.5712
 3344TIP3    H210039   0.551   2.090   2.611  2.5321 -2.8364  0.9775
 3345TIP3   OH210040   3.176   0.711   5.032  0.5019 -0.1586  0.1613
 3345TIP3    H110041   3.169   0.750   4.945  0.2715 -1.1149 -0.2616
 3345TIP3    H210042   3.101   0.652   5.038  0.1078  0.4202  1.2940
 3346TIP3   OH210043   4.516   1.686   4.355 -0.5995  0.6463 -0.1919
 3346TIP3    H110044   4.429   1.669   4.393 -1.5694  1.0209 -2.1501
 3346TIP3    H210045   4.541   1.603   4.315 -0.3638  0.7326 -0.2224
 3347TIP3   OH210046   5.322   1.000   2.394 -0.2559  0.5982 -0.3564
 3347TIP3    H110047   5.376   1.045   2.459  1.1237  0.9713 -1.6979
 3347TIP3    H210048   5.350   0.908   2.400 -2.8612 -0.1623  2.1748
 3348TIP3   OH210049   6.111   3.635   4.358  0.1689 -0.4102  0.5170
 3348TIP3    H110050   6.190   3.642   4.412  0.3180 -0.0583  0.2549
 3348TIP3    H210051   6.039   3.635   4.421  0.4367 -2.5026  0.8785
 3349TIP3   OH210052   5.877   2.362   4.290  0.3575 -0.8046  0.2055
 3349TIP3    H110053   5.926   2.442   4.270 -1.0234  0.1058  0.2904
 3349TIP3    H210054   5.944   2.298   4.314  1.5957 -0.0214 -0.9853
 3350TIP3   OH210055   5.004   2.623   1.324 -0.6750  0.3219 -0.4130
 3350TIP3    H110056   4.979   2.558   1.390 -0.0384 -0.3014 -0.7754
 3350TIP3    H210057   4.973   2.587   1.241  3.2859 -1.6891 -1.2685
 3351TIP3   OH210058   0.491   2.959   3.926 -0.2745  0.6504  0.3282
 3351TIP3    H110059   0.482   2.953   3.831  1.4390  1.0751  0.1049
 3351TIP3    H210060   0.540   2.879   3.949  0.0109  0.9425  0.7369
 3352TIP3   OH210061   4.803   0.334   3.510  0.2943  0.1751 -0.1302
 3352TIP3    H110062   4.854   0.267   3.463 -0.1893  0.2073 -0.7070
 3352TIP3    H210063   4.863   0.409   3.516  1.5011 -0.8631  2.0887
 3353TIP3   OH210064   4.829   5.465   4.429  0.4288  0.4121  0.2578
 3353TIP3    H110065   4.885   5.497   4.357 -0.9735  0.6669 -0.7739
 3353TIP3    H210066   4.868   5.502   4.508  1.6656  0.6435 -0.4331
 3354TIP3   OH210067   0.503   1.210   4.370 -0.4020 -0.0197 -0.0626
 3354TIP3    H110068   0.467   1.193   4.458 -0.4327 -0.5509 -0.1737
 3354TIP3    H210069   0.441   1.272   4.331 -1.1980 -0.8949 -0.2368
 3355TIP3   OH210070   3.513   3.843   5.114  0.5932 -0.1428 -0.2285
 3355TIP3    H110071   3.491   3.773   5.052 -0.3381 -1.0608  1.0907
 3355TIP3    H210072   3.595   3.880   5.080 -0.2080 -0.1551 -2.3607
 3356TIP3   OH210073   4.250   1.622   1.218  0.1567  0.3852 -0.3156
 3356TIP3    H110074   4.272   1.565   1.145  1.4770 -1.7697  1.6311
 3356TIP3    H210075   4.154   1.625   1.218  0.1149 -0.1375 -1.6772
 3357TIP3   OH210076   0.274   4.105   4.457  0.1742  0.0884  0.2729
 3357TIP3    H110077   0.230   4.163   4.395 -1.3713 -0.0164  1.2270
 3357TIP3    H210078   0.213   4.033   4.471  0.6466 -0.0836  1.6206
 3358TIP3   OH210079   5.416   2.158   2.937  0.6908 -0.1404  0.0685
 3358TIP3    H110080   5.322   2.170   2.949  0.5537 -1.1249  0.0099
 3358TIP3    H210081   5.443   2.235   2.886  0.3379  1.3040  1.9370
 3359TIP3   OH210082   6.101   1.628   2.007 -0.2718 -0.0826 -0.3430
 3359TIP3    H110083   6.160   1.701   2.025  0.7325 -0.7221 -0.9523
 3359TIP3    H210084   6.083   1.590   2.094 -1.2765  1.2142  0.0461
 3360TIP3   OH210085   4.456   0.943   3.824 -0.0124 -0.2015  0.3424
 3360TIP3    H110086   4.539   0.966   3.867 -0.2351  0.2640  0.5323
 3360TIP3    H210087   4.459   0.988   3.740  0.3448 -0.9681 -0.0621
 3361TIP3   OH210088   2.057   4.866   4.101 -0.1046  0.4214  0.5595
 3361TIP3    H110089   2.091   4.860   4.190 -1.2777  1.4878  1.1188
 3361TIP3    H210090   1.968   4.899   4.111 -0.7721 -0.7761 -0.9374
 3362TIP3   OH210091   0.509   3.608   2.744  0.0582 -0.7042  0.7228
 3362TIP3    H110092   0.416   3.592   2.762  0.0848 -0.2468  1.2982
 3362TIP3    H210093   0.519   3.587   2.651 -0.7425 -0.1986  0.5133
 3363TIP3   OH210094   5.057   3.398   2.347 -0.0556  0.1403 -0.1351
 3363TIP3    H110095   5.115   3.365   2.416  0.1115  0.2080 -0.2413
 3363TIP3    H210096   5.033   3.486   2.376 -0.8323 -0.2248  0.3491
 3364TIP3   OH210097   4.584   3.291   1.035  0.0295 -0.0750 -0.3352
 3364TIP3    H110098   4.666   3.330   1.004  0.1182 -0.0849 -0.1138
 3364TIP3    H210099   4.541   3.259   0.955 -0.0152  0.4149 -0.5113
 3365TIP3   OH210100   5.391   1.755   4.076 -0.4996 -0.1563 -0.7625
 3365TIP3    H110101   5.473   1.745   4.125 -1.2724 -0.2425  0.5709
 3365TIP3    H210102   5.377   1.669   4.035 -1.1043 -0.9175  0.9526
 3366TIP3   OH210103   5.804   0.035   4.862  0.0846  0.3381  0.1006
 3366TIP3    H110104   5.795  -0.003   4.950  0.5473 -0.4301 -0.1775
 3366TIP3    H210105   5.715   0.059   4.837  0.2131  3.4563  2.0099
 3367TIP3   OH210106   1.405   2.560   4.141  0.6093  0.8171  0.2670
 3367TIP3    H110107   1.396   2.480   4.192 -0.4792  1.0553  0.4707
 3367TIP3    H210108   1.336   2.618   4.174  0.1663  1.1440 -1.1404
 3368TIP3   OH210109   1.340   0.159   0.898  0.1938 -0.4932  0.1009
 3368TIP3    H110110   1.309   0.090   0.957  0.6686 -1.1598 -0.4184
 3368TIP3    H210111   1.380   0.224   0.956 -2.1504  0.4152  0.8050
 3369TIP3   OH210112   4.692   2.313   4.966  0.0434  0.8217 -0.4553
 3369TIP3    H110113   4.607   2.355   4.968 -1.1363 -1.3880 -0.8389
 3369TIP3    H210114   4.684   2.239   5.027  2.1951  1.4053  0.6335
 3370TIP3   OH210115   4.020   0.887   1.329  0.2922  0.5020 -0.0651
 3370TIP3    H110116   4.073   0.845   1.262  1.4374 -0.3205  1.3028
 3370TIP3    H210117   3.956   0.820   1.355  1.5709 -0.1886  1.5079
 3371TIP3   OH210118   0.529   0.559   4.109 -0.2143 -0.1894  0.0115
 3371TIP3    H110119   0.613   0.554   4.062  0.4637 -0.6697  1.2154
 3371TIP3    H210120   0.544   0.622   4.178 -1.1194  0.3138 -0.2329
 3372TIP3   OH210121   1.358   5.410   0.750  0.1229 -0.6519  0.0647
 3372TIP3    H110122   1.408   5.484   0.785  2.4852 -1.1104 -2.0756
 3372TIP3    H210123   1.297   5.450   0.688  1.7907 -0.4516 -1.5262
 3373TIP3   OH210124   6.239   5.384   2.874 -0.4152  0.0224 -0.2612
 3373TIP3    H110125   6.170   5.343   2.822 -0.3595 -0.0188 -0.3035
 3373TIP3    H210126   6.229   5.346   2.962 -0.1327 -0.3612 -0.3910
 3374TIP3   OH210127   2.448   2.152   4.495  0.1820  0.4346 -0.2582
 3374TIP3    H110128   2.466   2.101   4.416  0.8496 -0.7657  0.6551
 3374TIP3    H210129   2.520   2.132   4.555  0.1098  1.9414  0.3847
 3375TIP3   OH210130   1.344   2.326   4.388  0.5665  0.1256  0.3652
 3375TIP3    H110131   1.411   2.260   4.370  1.7678  0.6119  2.6473
 3375TIP3    H210132   1.265   2.275   4.405  0.1119 -0.4423 -2.8346
 3376TIP3   OH210133   5.650   4.879   2.739 -0.0590 -0.3342  0.2190
 3376TIP3    H110134   5.717   4.901   2.675  2.2827 -0.7792  2.3422
 3376TIP3    H210135   5.624   4.962   2.778 -1.3459 -0.0846 -1.1113
 3377TIP3   OH210136   5.055   0.284   4.698 -0.2027  0.0184 -0.1210
 3377TIP3    H110137   5.023   0.374   4.700  1.6246  0.7321 -0.9564
 3377TIP3    H210138   5.026   0.247   4.782 -2.2897  0.8611 -0.4029
 3378TIP3   OH210139   0.192   2.114   4.346 -0.3636  0.0250  0.3384
 3378TIP3    H110140   0.169   2.038   4.292  0.3335 -0.2223  0.3802
 3378TIP3    H210141   0.109   2.141   4.385 -0.9508  0.4638 -1.1591
 3379TIP3   OH210142   1.391   1.135   2.746 -0.4741  0.0188  0.5131
 3379TIP3    H110143   1.389   1.204   2.679 -1.3341 -0.3115  0.1836
 3379TIP3    H210144   1.478   1.096   2.738 -0.3682  0.3560 -0.0221
 3380TIP3   OH210145   6.100   2.847   3.637  0.8574 -0.3189 -0.4960
 3380TIP3    H110146   6.076   2.938   3.652  0.4364 -0.6182  0.8488
 3380TIP3    H210147   6.110   2.811   3.725 -2.4702 -2.4696 -0.8105
 3381TIP3   OH210148   2.330   3.119   2.322  0.4877 -0.3690  0.1819
 3381TIP3    H110149   2.284   3.036   2.309 -1.3704  0.7865 -1.1750
 3381TIP3    H210150   2.270   3.171   2.376  1.4716  0.2193  0.7333
 3382TIP3   OH210151   2.719   1.907   3.589 -1.0858 -0.2655 -0.2428
 3382TIP3    H110152   2.648   1.853   3.624 -0.1944 -1.9700 -0.9329
 3382TIP3    H210153   2.760   1.947   3.667 -1.0677 -1.5143  0.4175
 3383TIP3   OH210154   3.918   3.934   0.921  0.2219 -0.6298  0.3740
 3383TIP3    H110155   3.878   3.855   0.957 -0.6496  0.1688  1.2010
 3383TIP3    H210156   3.845   3.994   0.908  1.0820  0.7409  1.5969
 3384TIP3   OH210157   2.191   4.737   2.839  0.4037 -0.1639  0.3980
 3384TIP3    H110158   2.107   4.695   2.858  0.6906 -1.0780 -0.2990
 3384TIP3    H210159   2.167   4.825   2.808 -0.2759 -0.3096  0.4851
 3385TIP3   OH210160   4.596   3.628   1.305 -0.8575 -0.2880 -0.7401
 3385TIP3    H110161   4.673   3.595   1.259  1.1561  0.0729  2.1230
 3385TIP3    H210162   4.562   3.553   1.353 -1.4168 -0.1076 -0.8504
 3386TIP3   OH210163   6.330   2.066   4.137  0.3986 -0.1204  0.3851
 3386TIP3    H110164   6.257   2.107   4.092  1.3059  1.2211  0.0485
 3386TIP3    H210165   6.306   1.974   4.144 -1.0903  0.1997 -0.1355
 3387TIP3   OH210166   5.791   0.890   4.737  0.4658  0.2441  0.4015
 3387TIP3    H110167   5.776   0.797   4.722 -1.0360  0.3941  0.7323
 3387TIP3    H210168   5.725   0.934   4.682  1.9657  1.1764 -0.7187
 3388TIP3   OH210169   5.403   1.999   4.730 -0.3572  0.0075  0.3494
 3388TIP3    H110170   5.412   1.925   4.670 -1.3723 -0.1977  0.4266
 3388TIP3    H210171   5.453   2.070   4.689  1.6870 -1.0498  0.8970
 3389TIP3   OH210172   1.212   4.651   4.780  0.0650  0.4610 -0.1484
 3389TIP3    H110173   1.124   4.662   4.745 -0.5027 -0.6057  0.8698
 3389TIP3    H210174   1.208   4.690   4.867  0.7293  0.7924 -0.2602
 3390TIP3   OH210175   5.491   4.730   2.569 -0.3810 -0.7008 -0.0014
 3390TIP3    H110176   5.520   4.755   2.657 -0.0082 -1.4915  0.1141
 3390TIP3    H210177   5.470   4.813   2.526  0.3171 -0.2385  0.5246
 3391TIP3   OH210178   2.815   4.277   4.736 -0.0395  0.3952 -0.0390
 3391TIP3    H110179   2.826   4.207   4.800 -1.4036  0.3365  0.1588
 3391TIP3    H210180   2.846   4.356   4.780 -2.1849  0.5920  1.2131
 3392TIP3   OH210181   1.409   2.535   2.480  0.4526 -0.2277  0.4950
 3392TIP3    H110182   1.483   2.536   2.541  2.4173  4.0467 -1.4927
 3392TIP3    H210183   1.357   2.612   2.504 -0.7769 -0.5577 -0.9589
 3393TIP3   OH210184   1.717   3.274   2.556 -0.4677 -0.5747 -0.0694
 3393TIP3    H110185   1.775   3.338   2.514 -2.1937  1.3659  0.3278
 3393TIP3    H210186   1.684   3.220   2.484 -1.3330  0.9871 -0.8974
 3394TIP3   OH210187   3.040   2.868   2.253  0.2442 -0.4949  0.5532
 3394TIP3    H110188   3.073   2.952   2.287  0.7585 -0.7428  0.6746
 3394TIP3    H210189   3.081   2.802   2.309  0.6945 -0.8844 -0.2220
 3395TIP3   OH210190   2.057   4.122   4.972  0.5064  0.2971 -0.4606
 3395TIP3    H110191   1.963   4.141   4.980 -0.0282 -1.6400 -1.3769
 3395TIP3    H210192   2.101   4.203   4.998 -1.4209  1.2955 -0.1502
 3396TIP3   OH210193   3.111   0.664   3.752  0.0640 -0.2064  0.4225
 3396TIP3    H110194   3.153   0.580   3.730  0.1380 -0.1194  0.2340
 3396TIP3    H210195   3.184   0.721   3.776  0.0598 -0.0372  0.0381
 3397TIP3   OH210196   2.174   2.665   2.537 -0.4567 -0.0697  0.3607
 3397TIP3    H110197   2.185   2.677   2.443  0.1055  0.6317  0.5011
 3397TIP3    H210198   2.160   2.754   2.571  0.9457 -0.0986  1.1093
 3398TIP3   OH210199   2.818   1.306   1.508 -0.3599  0.3326 -0.4647
 3398TIP3    H110200   2.899   1.259   1.485 -1.0877 -1.6622  0.7945
 3398TIP3    H210201   2.759   1.288   1.435 -0.5687 -0.6041 -0.0799
 3399TIP3   OH210202   0.414   2.247   1.414 -0.6837  0.6690  0.0917
 3399TIP3    H110203   0.362   2.324   1.393 -0.6966  0.7298  0.3427
 3399TIP3    H210204   0.489   2.251   1.355 -0.8809  0.6686 -0.1602
 3400TIP3   OH210205   3.528   0.401   0.486  0.3278 -0.2546  0.1889
 3400TIP3    H110206   3.555   0.370   0.573  1.1145  0.1508  0.1008
 3400TIP3    H210207   3.586   0.476   0.469  0.6373 -0.7464 -0.9757
 3401TIP3   OH210208   3.843   4.171   1.813 -0.5693 -0.6773 -0.1627
 3401TIP3    H110209   3.758   4.129   1.798 -1.0200  0.6419 -1.5374
 3401TIP3    H210210   3.903   4.122   1.756 -0.8583 -0.2588 -0.8472
 3402TIP3   OH210211   3.564   0.028   1.811  0.3652  0.1698  0.2580
 3402TIP3    H110212   3.646   0.075   1.791 -0.5061  0.9077 -1.8925
 3402TIP3    H210213   3.586  -0.064   1.797  1.5312  0.0300  2.4860
 3403TIP3   OH210214   5.281   1.909   1.723 -0.2919 -0.4710  0.5446
 3403TIP3    H110215   5.257   1.821   1.751 -0.5572 -0.4850  0.2796
 3403TIP3    H210216   5.338   1.942   1.793  0.8193 -1.3114  0.0499
 3404TIP3   OH210217   2.156   3.935   1.091  0.0886 -0.0641 -0.0201
 3404TIP3    H110218   2.194   3.919   1.005 -2.5463 -0.3474 -1.2216
 3404TIP3    H210219   2.151   4.030   1.098 -1.5530 -0.0122 -1.1614
 3405TIP3   OH210220   0.286   2.005   2.095  0.0077 -0.1023  0.7553
 3405TIP3    H110221   0.269   2.080   2.153  0.1713 -0.2544  1.0012
 3405TIP3    H210222   0.381   2.007   2.081 -0.0909  0.2461  0.0628
 3406TIP3   OH210223   3.727   2.000   1.176  0.1687 -0.5135  0.2042
 3406TIP3    H110224   3.755   1.959   1.095 -1.4906  0.4662 -0.9159
 3406TIP3    H210225   3.638   2.029   1.159  0.5147  1.6277  1.6413
 3407TIP3   OH210226   5.476   4.649   0.561  0.4740 -0.1068 -0.5490
 3407TIP3    H110227   5.393   4.694   0.545  0.9376  1.5207  1.2711
 3407TIP3    H210228   5.451   4.566   0.601 -0.3026  0.6911  0.6924
 3408TIP3   OH210229   0.037   5.233   1.803 -0.0250  0.0163 -0.2445
 3408TIP3    H110230   0.083   5.314   1.827 -0.2926 -0.0558  0.5412
 3408TIP3    H210231  -0.052   5.261   1.781  0.5552  0.2688 -2.5850
 3409TIP3   OH210232   2.189   0.766   0.342  0.2599  0.1230 -0.7651
 3409TIP3    H110233   2.160   0.719   0.265  0.7398  0.9829 -1.4923
 3409TIP3    H210234   2.124   0.835   0.355  0.2484  0.0601 -0.4801
 3410TIP3   OH210235   0.740   5.874   1.747 -0.1436 -0.0856  0.2566
 3410TIP3    H110236   0.737   5.919   1.663  0.0111  2.0291  1.3093
 3410TIP3    H210237   0.832   5.874   1.771 -0.3450  0.7077  1.0915
 3411TIP3   OH210238   1.801   3.863   4.848  0.1748  0.3923  0.1541
 3411TIP3    H110239   1.831   3.863   4.757 -1.5343  1.3281 -0.4568
 3411TIP3    H210240   1.758   3.778   4.858  0.6977  0.1318  0.2112
 3412TIP3   OH210241   1.998   2.980   1.305  0.0017 -0.0715 -0.2505
 3412TIP3    H110242   1.919   2.980   1.358 -0.0194  1.2167 -0.2341
 3412TIP3    H210243   2.028   2.889   1.304  0.3209 -0.0610  2.4609
 3413TIP3   OH210244   3.130   3.887   4.884 -0.2004  0.1447 -0.2954
 3413TIP3    H110245   3.111   3.866   4.975 -2.3933  2.2513 -0.1503
 3413TIP3    H210246   3.069   3.832   4.834  0.7275 -0.7261 -0.4803
 3414TIP3   OH210247   2.700   0.932   2.938 -1.1063  0.5164  0.4759
 3414TIP3    H110248   2.651   0.857   2.906  2.4398 -2.3449  1.0935
 3414TIP3    H210249   2.726   0.907   3.027 -0.0027  2.5702  0.7903
 3415TIP3   OH210250   0.884   5.200   3.044 -0.1811  0.5019  0.4173
 3415TIP3    H110251   0.818   5.132   3.058 -0.8253  0.9964 -0.1265
 3415TIP3    H210252   0.850   5.277   3.090  0.1148  0.7045  0.3038
 3416TIP3   OH210253   5.218   2.113   2.426  0.1194  0.2724  0.0732
 3416TIP3    H110254   5.224   2.070   2.511 -0.9044 -0.0337 -0.0055
 3416TIP3    H210255   5.235   2.044   2.362 -0.5440  0.1972 -0.0213
 3417TIP3   OH210256   5.851   2.585   0.188 -0.0126 -0.4915 -0.2670
 3417TIP3    H110257   5.777   2.573   0.129 -1.2333  0.4889  0.9926
 3417TIP3    H210258   5.815   2.566   0.275  0.8043  1.3633  0.5336
 3418TIP3   OH210259   3.423   5.793   2.827 -0.1582 -0.5417  0.2923
 3418TIP3    H110260   3.389   5.718   2.779  1.2151  0.2633 -2.0775
 3418TIP3    H210261   3.390   5.869   2.779  1.0946  0.3148  0.7484
 3419TIP3   OH210262   4.943   5.849   4.785  0.8348 -0.1237  0.7468
 3419TIP3    H110263   5.010   5.910   4.756  0.3291  0.6188  1.0900
 3419TIP3    H210264   4.988   5.789   4.845  1.1100  0.6317  1.3107
 3420TIP3   OH210265   1.860   0.949   1.057 -0.4325  0.2194  0.5174
 3420TIP3    H110266   1.914   0.933   0.979 -0.1652  0.7902  0.5747
 3420TIP3    H210267   1.911   0.913   1.129 -0.3589  0.3096  0.5107
 3421TIP3   OH210268   4.629   2.317   2.870  0.2752  0.8861 -0.1511
 3421TIP3    H110269   4.614   2.312   2.775  2.9635 -1.1884 -0.5757
 3421TIP3    H210270   4.720   2.343   2.879  0.0422  1.1641  1.9022
 3422TIP3   OH210271   2.217   5.265   4.437  0.2239 -0.4187 -0.3590
 3422TIP3    H110272   2.266   5.217   4.370  0.5625 -0.1137 -0.3281
 3422TIP3    H210273   2.283   5.309   4.489 -0.0871  0.0734 -0.3749
 3423TIP3   OH210274   1.685   2.391   3.480 -0.6361  0.1781 -0.2650
 3423TIP3    H110275   1.738   2.312   3.475  1.6378  1.5768  0.3946
 3423TIP3    H210276   1.713   2.444   3.405 -1.1863  0.8881  0.0152
 3424TIP3   OH210277   0.386   3.069   4.249 -0.6772  0.7956 -0.0240
 3424TIP3    H110278   0.305   3.023   4.227  0.0612 -0.1345 -0.8889
 3424TIP3    H210279   0.369   3.109   4.334 -1.6653 -0.3165  0.3254
 3425TIP3   OH210280   5.741   1.014   1.439 -0.2027  0.0959 -0.1988
 3425TIP3    H110281   5.764   1.039   1.349 -0.2134 -0.2606 -0.3013
 3425TIP3    H210282   5.811   0.954   1.466 -0.6375 -0.4559 -0.2708
 3426TIP3   OH210283   3.371   3.675   3.974 -0.1860  0.0359  0.0176
 3426TIP3    H110284   3.451   3.716   3.938 -0.8367 -0.2947 -1.9276
 3426TIP3    H210285   3.300   3.724   3.934 -0.9756 -0.5786  0.6480
 3427TIP3   OH210286   3.639   2.461   1.817  0.1885  0.5093 -0.6875
 3427TIP3    H110287   3.636   2.513   1.737 -0.4036  1.3086 -0.1652
 3427TIP3    H210288   3.626   2.525   1.887  1.4664 -0.0509  0.1031
 3428TIP3   OH210289   3.251   4.089   4.708  0.5514 -0.2648  0.6908
 3428TIP3    H110290   3.209   4.004   4.725  1.8653 -1.0647  0.0806
 3428TIP3    H210291   3.329   4.088   4.763  0.9842  0.2152  0.0931
 3429TIP3   OH210292   5.641   0.454   3.662 -0.4786 -0.6807  0.2396
 3429TIP3    H110293   5.675   0.544   3.658  1.8791 -1.5155  0.1620
 3429TIP3    H210294   5.582   0.448   3.587  1.1343  0.1332 -1.1730
 3430TIP3   OH210295   2.894   5.822   1.364  0.5153 -0.4201 -0.1810
 3430TIP3    H110296   2.853   5.743   1.329  1.0602 -0.8172  0.0574
 3430TIP3    H210297   2.884   5.888   1.296  1.5135 -1.1574 -1.0667
 3431TIP3   OH210298   5.823   0.364   3.923 -0.1252  0.5357  0.2961
 3431TIP3    H110299   5.853   0.432   3.983 -1.1478  0.3551  1.0402
 3431TIP3    H210300   5.750   0.322   3.969 -0.5171 -0.0308 -0.8097
 3432TIP3   OH210301   3.562   3.712   0.726 -0.3919  0.0251 -0.2006
 3432TIP3    H110302   3.595   3.802   0.717  0.1679 -0.2994 -1.6834
 3432TIP3    H210303   3.639   3.662   0.753 -0.7273  0.0016  0.7215
 3433TIP3   OH210304   4.350   0.323   2.681 -0.2150 -0.0060 -0.4330
 3433TIP3    H110305   4.302   0.261   2.736  0.1078 -0.5861 -0.7943
 3433TIP3    H210306   4.434   0.336   2.726 -0.3658  0.3411 -0.2467
 3434TIP3   OH210307   1.742   1.927   0.638 -0.0042  0.4484 -0.4363
 3434TIP3    H110308   1.666   1.944   0.583 -1.2032 -2.5717  0.0900
 3434TIP3    H210309   1.749   2.005   0.693 -0.2033  2.5295 -3.1477
 3435TIP3   OH210310   0.201   0.281   0.471 -0.3846  0.0278 -0.0297
 3435TIP3    H110311   0.160   0.276   0.557 -3.0644  1.4406 -1.1143
 3435TIP3    H210312   0.250   0.364   0.473  2.4988 -1.5448  1.1798
 3436TIP3   OH210313   2.365   2.260   3.380  0.3854  0.1618 -0.1173
 3436TIP3    H110314   2.446   2.209   3.384 -0.2018 -0.8576 -0.8863
 3436TIP3    H210315   2.360   2.290   3.290 -1.2364 -1.7564 -0.7382
 3437TIP3   OH210316   1.832   5.106   3.830 -0.1998  0.3064 -0.7332
 3437TIP3    H110317   1.848   5.075   3.919  0.8854 -1.2082 -1.4221
 3437TIP3    H210318   1.746   5.068   3.807 -0.1591  0.1138 -0.5750
 3438TIP3   OH210319   0.826   4.343   4.782  0.1274 -0.3628  0.0189
 3438TIP3    H110320   0.834   4.382   4.869  0.6463 -1.1229  0.3229
 3438TIP3    H210321   0.757   4.278   4.792 -0.9367  0.6458 -0.5589
 3439TIP3   OH210322   3.361   1.783   1.751  0.0354  0.5092  0.1304
 3439TIP3    H110323   3.332   1.695   1.725 -1.0247  0.0379  2.6443
 3439TIP3    H210324   3.396   1.772   1.839  1.2376  2.3960 -0.0638
 3440TIP3   OH210325   0.640   4.731   4.190  0.0104 -0.2730 -0.3556
 3440TIP3    H110326   0.570   4.787   4.224  2.0749  1.4116  1.3592
 3440TIP3    H210327   0.665   4.772   4.107 -0.1253 -0.0828 -0.3036
 3441TIP3   OH210328   5.072   2.132   4.933  0.3145  0.3210  0.4801
 3441TIP3    H110329   5.026   2.159   5.012 -1.3203  0.3229 -0.4416
 3441TIP3    H210330   5.061   2.205   4.872  0.0079 -0.4147 -0.3648
 3442TIP3   OH210331   3.241   5.445   0.077 -0.3936 -0.1506 -0.2043
 3442TIP3    H110332   3.162   5.455   0.024 -1.0028 -0.0218  0.7167
 3442TIP3    H210333   3.307   5.414   0.015 -1.2718 -0.6941 -0.8963
 3443TIP3   OH210334   1.582   1.812   4.093  0.0706  0.3586 -0.5928
 3443TIP3    H110335   1.673   1.785   4.100  0.0904  0.4670 -0.4261
 3443TIP3    H210336   1.550   1.814   4.184  0.2916  1.6497 -0.5152
 3444TIP3   OH210337   1.942   0.868   4.343 -0.1822 -0.5794 -0.3417
 3444TIP3    H110338   1.875   0.926   4.381 -1.1557 -1.0649 -1.2631
 3444TIP3    H210339   2.022   0.920   4.346 -0.7600  0.3226  0.0588
 3445TIP3   OH210340   0.121   0.861   4.863 -0.7834 -0.4023 -0.6780
 3445TIP3    H110341   0.105   0.771   4.892 -1.7958 -0.0684 -0.1568
 3445TIP3    H210342   0.116   0.913   4.943  0.2059  0.0713 -0.9203
 3446TIP3   OH210343   1.383   4.191   3.073  0.5784 -0.3505 -0.2800
 3446TIP3    H110344   1.341   4.269   3.109  1.6523 -0.2632  0.8578
 3446TIP3    H210345   1.430   4.223   2.996  0.0460 -0.1075 -0.5073
 3447TIP3   OH210346   1.335   1.617   3.462 -0.0023 -0.0294 -0.3836
 3447TIP3    H110347   1.339   1.709   3.489 -1.9222 -0.6016  2.2164
 3447TIP3    H210348   1.390   1.571   3.525 -1.6144 -1.0096  0.3521
 3448TIP3   OH210349   3.001   3.650   2.313  0.2286  0.2261 -0.2947
 3448TIP3    H110350   3.077   3.598   2.285 -0.5226 -0.8187 -0.4596
 3448TIP3    H210351   3.006   3.650   2.408 -0.8528 -1.9184 -0.1748
 3449TIP3   OH210352   6.371   0.613   4.886 -0.2007  0.4058  0.3792
 3449TIP3    H110353   6.343   0.632   4.797  0.1120  0.1085  0.2139
 3449TIP3    H210354   6.296   0.572   4.928 -0.2172  0.1749  0.1264
 3450TIP3   OH210355   5.946   4.046   2.778 -0.4375  0.2440  0.3154
 3450TIP3    H110356   5.852   4.040   2.794 -0.6385 -0.5698 -1.0131
 3450TIP3    H210357   5.954   4.109   2.706 -0.0658 -0.4544 -0.2664
 3451TIP3   OH210358   5.850   0.662   1.232  0.3029 -0.1166 -0.0468
 3451TIP3    H110359   5.829   0.638   1.323 -0.9834  1.2661  0.0561
 3451TIP3    H210360   5.766   0.658   1.186  0.7050  0.5228 -0.8608
 3452TIP3   OH210361   2.417   3.578   0.865  0.6352 -0.1067  0.6879
 3452TIP3    H110362   2.475   3.502   0.862  0.9132  0.0552  1.7537
 3452TIP3    H210363   2.449   3.630   0.938  0.0443  0.7198  0.3714
 3453TIP3   OH210364   0.676   4.407   3.402  0.3425 -0.7248 -0.3716
 3453TIP3    H110365   0.580   4.401   3.405  0.1869  0.9167 -0.9356
 3453TIP3    H210366   0.704   4.387   3.491 -0.7956  1.8823  0.6602
 3454TIP3   OH210367   5.518   0.442   2.993  0.1268  0.2948 -0.0743
 3454TIP3    H110368   5.534   0.354   2.960 -0.9533  0.0750 -0.0406
 3454TIP3    H210369   5.424   0.455   2.983  0.1090  1.0368  0.9228
 3455TIP3   OH210370   1.406   4.071   2.007 -0.0364  0.5537 -0.0662
 3455TIP3    H110371   1.317   4.079   1.973 -0.1214  1.8066  0.4098
 3455TIP3    H210372   1.461   4.104   1.936  0.2468 -1.8584 -1.0856
 3456TIP3   OH210373   5.926   3.119   3.927 -0.1758  0.7317  0.2541
 3456TIP3    H110374   5.860   3.145   3.990  0.2432  0.2457  0.9023
 3456TIP3    H210375   5.945   3.199   3.877  2.2269  2.2078  3.2265
 3457TIP3   OH210376   3.463   3.301   0.944  0.1412 -0.0121  0.5558
 3457TIP3    H110377   3.557   3.315   0.950  0.2005 -0.5918  1.0822
 3457TIP3    H210378   3.449   3.270   0.854  0.6143 -1.0584  0.8320
 3458TIP3   OH210379   1.893   5.182   1.959  0.2623  0.3392  0.6411
 3458TIP3    H110380   1.980   5.191   1.919 -0.5172  0.6863 -1.0900
 3458TIP3    H210381   1.832   5.200   1.887 -1.2520 -0.2783  1.7187
 3459TIP3   OH210382   4.555   2.766   2.412  0.1066  0.1058  0.3365
 3459TIP3    H110383   4.648   2.777   2.392 -0.5145  2.2319 -1.8150
 3459TIP3    H210384   4.509   2.802   2.336 -2.5072 -0.2818  1.6045
 3460TIP3   OH210385   4.749   0.475   1.211 -0.1822 -0.0587 -0.2040
 3460TIP3    H110386   4.839   0.477   1.243 -0.4315  1.6108  0.5422
 3460TIP3    H210387   4.698   0.440   1.284 -0.0133 -2.3344 -1.1150
 3461TIP3   OH210388   4.280   0.983   4.699  0.2886  0.2602  0.4035
 3461TIP3    H110389   4.190   0.957   4.720  0.0953 -0.4752 -1.1932
 3461TIP3    H210390   4.274   1.016   4.609  1.8285 -0.9548 -0.1799
 3462TIP3   OH210391   5.324   3.933   0.665  0.1916  0.0008  0.0584
 3462TIP3    H110392   5.310   3.843   0.634  1.5449  0.1677 -1.1721
 3462TIP3    H210393   5.419   3.943   0.667  0.0748  1.7839 -1.0194
 3463TIP3   OH210394   0.451   2.277   0.453 -0.1661  0.2818  0.0738
 3463TIP3    H110395   0.499   2.199   0.424  1.6412  1.8023 -1.2361
 3463TIP3    H210396   0.493   2.302   0.535  1.4263  1.6271 -1.0853
 3464TIP3   OH210397   1.684   1.694   0.467  0.3505 -0.0469 -0.2965
 3464TIP3    H110398   1.679   1.722   0.558 -0.4087  0.0061 -0.3501
 3464TIP3    H210399   1.706   1.601   0.471 -0.9922 -0.3640 -0.0219
 3465TIP3   OH210400   0.318   0.763   4.088  0.0409 -0.2762  0.3335
 3465TIP3    H110401   0.361   0.774   4.173  0.2104  0.2255  0.1899
 3465TIP3    H210402   0.388   0.780   4.025 -0.4950  1.1337  0.0903
 3466TIP3   OH210403   4.083   0.752   0.298  0.0373 -0.2156  0.5444
 3466TIP3    H110404   4.103   0.766   0.205  0.1688  0.0454  0.6136
 3466TIP3    H210405   4.161   0.709   0.333 -0.0861 -0.4869  0.4942
 3467TIP3   OH210406   2.236   0.921   4.345 -0.1206 -0.1026  0.2720
 3467TIP3    H110407   2.310   0.931   4.405 -0.3270  1.7312  0.2719
 3467TIP3    H210408   2.276   0.896   4.262  0.2696 -1.4343  0.8336
 3468TIP3   OH210409   1.272   2.333   4.057  0.2466  0.2420 -0.1241
 3468TIP3    H110410   1.270   2.243   4.088  1.6966  0.2543  0.0797
 3468TIP3    H210411   1.180   2.356   4.043 -0.2658 -0.7124  1.4016
 3469TIP3   OH210412   3.632   0.506   3.068 -0.1231 -0.2482  0.1509
 3469TIP3    H110413   3.623   0.599   3.049  1.8405 -0.1959 -0.7676
 3469TIP3    H210414   3.683   0.471   2.995  2.9134 -1.1572  2.4935
 3470TIP3   OH210415   0.677   1.265   1.450  0.4133 -0.0621  0.6250
 3470TIP3    H110416   0.645   1.237   1.364  0.8709 -0.2346  0.5081
 3470TIP3    H210417   0.641   1.200   1.510  0.5400 -0.2579  0.4928
 3471TIP3   OH210418   0.115   1.527   1.829 -0.2325  0.3709 -0.2318
 3471TIP3    H110419   0.050   1.503   1.762 -1.5751  1.2245  0.7060
 3471TIP3    H210420   0.110   1.457   1.893 -0.4410  0.5663 -0.0297
 3472TIP3   OH210421   4.160   3.032   2.441  0.2609  0.7833 -0.1101
 3472TIP3    H110422   4.166   3.057   2.349 -0.8219  0.0135 -0.4179
 3472TIP3    H210423   4.184   2.940   2.443 -0.8790  0.4721  0.1747
 3473TIP3   OH210424   0.719   2.469   2.128  0.6899  0.3596 -0.0552
 3473TIP3    H110425   0.754   2.532   2.191 -0.1582 -1.1264  2.0162
 3473TIP3    H210426   0.775   2.392   2.137 -0.2287 -0.3409 -0.1358
 3474TIP3   OH210427   4.953   0.351   1.846  0.3060  0.1558 -0.0957
 3474TIP3    H110428   4.909   0.345   1.930 -1.6557 -0.9649 -1.1335
 3474TIP3    H210429   5.039   0.313   1.861 -0.0183 -0.0394  1.3862
 3475TIP3   OH210430   5.862   4.059   4.800  0.0670  0.3249  0.2628
 3475TIP3    H110431   5.861   4.136   4.857 -0.0521  3.0636 -3.0790
 3475TIP3    H210432   5.934   4.075   4.739  1.2842 -3.2593  0.5398
 3476TIP3   OH210433   2.444   3.579   1.431  0.5368 -0.0530  0.1487
 3476TIP3    H110434   2.458   3.648   1.495 -0.1745 -0.7584  1.0818
 3476TIP3    H210435   2.355   3.592   1.398  0.8600  0.2471 -0.6392
 3477TIP3   OH210436   4.787   3.799   3.354  0.2220 -0.0725 -0.1952
 3477TIP3    H110437   4.864   3.856   3.355 -0.9372  1.8134  3.8277
 3477TIP3    H210438   4.814   3.721   3.403  0.2085 -0.5339 -0.9026
 3478TIP3   OH210439   1.760   4.003   0.523  0.3310 -0.4552 -0.2223
 3478TIP3    H110440   1.767   4.095   0.497  1.9048 -0.5954 -0.3527
 3478TIP3    H210441   1.712   4.006   0.607  0.8661  0.5313  0.0666
 3479TIP3   OH210442   1.292   1.003   0.145  0.1950 -0.1350 -0.3248
 3479TIP3    H110443   1.331   0.935   0.090 -0.7326 -0.0577 -1.1193
 3479TIP3    H210444   1.200   0.977   0.154  0.0829  0.4395  0.2619
 3480TIP3   OH210445   4.621   0.189   0.754  0.2400  0.4170 -0.1474
 3480TIP3    H110446   4.583   0.242   0.824  0.5171  0.1371  0.2186
 3480TIP3    H210447   4.569   0.108   0.754  0.4997  0.2514  0.0004
 3481TIP3   OH210448   3.104   5.881   2.911 -0.4658  0.2470 -0.1847
 3481TIP3    H110449   3.089   5.937   2.835 -1.1091 -0.8704 -0.9174
 3481TIP3    H210450   3.020   5.838   2.925  0.1863 -1.0311 -0.0714
 3482TIP3   OH210451   1.188   2.904   3.529 -0.3082 -0.1340 -0.5640
 3482TIP3    H110452   1.117   2.852   3.567 -0.5632 -0.5520 -1.5817
 3482TIP3    H210453   1.150   2.941   3.449  0.0955  1.0408 -0.2309
 3483TIP3   OH210454   4.506   0.627   1.315 -0.6319 -0.3903 -0.4150
 3483TIP3    H110455   4.581   0.661   1.266 -0.2920 -1.0449 -0.3536
 3483TIP3    H210456   4.521   0.657   1.405 -0.0273 -1.1866 -0.2428
 3484TIP3   OH210457   3.818   1.358   1.360  0.4201 -0.2465 -0.5779
 3484TIP3    H110458   3.818   1.278   1.306 -0.0780 -0.4788 -0.2461
 3484TIP3    H210459   3.806   1.326   1.449  0.0195  0.2076 -0.4628
 3485TIP3   OH210460   5.749   1.591   0.425  0.5013  0.1332  0.4181
 3485TIP3    H110461   5.796   1.517   0.464  1.4328  0.4466 -0.0823
 3485TIP3    H210462   5.809   1.665   0.434  0.2260  0.4776 -0.5039
 3486TIP3   OH210463   4.526   4.482   3.228  0.1557  0.3455 -0.1272
 3486TIP3    H110464   4.453   4.481   3.290  0.7191  0.1595  0.5448
 3486TIP3    H210465   4.487   4.511   3.146 -1.2574 -2.2851 -0.5037
 3487TIP3   OH210466   5.510   0.252   1.181  0.0940 -0.0922  0.3392
 3487TIP3    H110467   5.561   0.173   1.201  0.4007  0.2199  0.7998
 3487TIP3    H210468   5.534   0.273   1.091  0.2782 -0.3217  0.3328
 3488TIP3   OH210469   2.114   4.184   1.132 -0.4124 -0.5213  0.3262
 3488TIP3    H110470   2.179   4.236   1.178  0.0195 -0.2997 -0.5099
 3488TIP3    H210471   2.063   4.247   1.081 -1.0426 -0.7320  0.6790
 3489TIP3   OH210472   6.059   3.203   0.199 -0.2472  0.0710 -0.1430
 3489TIP3    H110473   6.101   3.245   0.274 -0.4786 -2.8831  1.8028
 3489TIP3    H210474   6.131   3.186   0.138  1.3161 -3.0198  2.2300
 3490TIP3   OH210475   4.861   1.771   0.388  0.2829  0.0214  0.4583
 3490TIP3    H110476   4.935   1.711   0.399  0.6790 -0.0517 -2.0094
 3490TIP3    H210477   4.792   1.733   0.441  1.3724 -1.0659  1.1637
 3491TIP3   OH210478   0.621   3.462   4.532  0.2410  0.7791 -0.1267
 3491TIP3    H110479   0.622   3.558   4.534  2.5237  0.8305  1.9919
 3491TIP3    H210480   0.547   3.438   4.587 -1.0250  1.2660 -1.5581
 3492TIP3   OH210481   1.135   5.628   0.270 -0.1249 -0.4215  0.2618
 3492TIP3    H110482   1.093   5.554   0.316  0.7819 -1.1082  0.0075
 3492TIP3    H210483   1.228   5.608   0.273  0.2073  1.1096  0.8412
 3493TIP3   OH210484   5.787   4.337   3.801  0.6418 -0.7096 -0.1153
 3493TIP3    H110485   5.730   4.363   3.729  0.7107 -0.7111 -0.1715
 3493TIP3    H210486   5.794   4.415   3.856 -0.6586 -1.1571  0.7306
 3494TIP3   OH210487   1.301   3.219   0.829 -0.2880  0.3786 -0.0757
 3494TIP3    H110488   1.209   3.218   0.801 -0.5415  0.2515  0.7406
 3494TIP3    H210489   1.327   3.127   0.825 -0.6955  0.1809  1.2521
 3495TIP3   OH210490   1.157   3.968   1.818  0.4254 -0.2441  0.0850
 3495TIP3    H110491   1.099   3.892   1.821 -0.3170  0.3183  0.2351
 3495TIP3    H210492   1.130   4.015   1.739 -1.2775  1.5219  1.6107
 3496TIP3   OH210493   3.350   3.069   4.618  0.1278  0.2663  0.0745
 3496TIP3    H110494   3.298   3.080   4.538  0.3269  0.8313  0.0206
 3496TIP3    H210495   3.301   3.004   4.669 -0.7546  0.9633  0.1283
 3497TIP3   OH210496   2.989   4.803   0.237  0.1636 -0.3789  0.0518
 3497TIP3    H110497   2.907   4.851   0.252  1.8041  3.0585 -0.7818
 3497TIP3    H210498   2.974   4.754   0.156 -1.7348 -1.6466  1.1143
 3498TIP3   OH210499   5.734   1.922   3.503 -0.4292 -0.3789 -0.1328
 3498TIP3    H110500   5.801   1.939   3.569 -0.7307  1.1392 -0.1957
 3498TIP3    H210501   5.783   1.895   3.426 -0.0345 -1.4793  0.4751
 3499TIP3   OH210502   1.754   5.972   3.083  0.0581  0.2117 -0.0506
 3499TIP3    H110503   1.703   5.956   3.163  2.1163  1.9468  1.7247
 3499TIP3    H210504   1.815   5.898   3.078  0.3702  0.4342  0.3866
 3500TIP3   OH210505   0.760   2.797   1.089 -0.1784 -0.2322 -0.0374
 3500TIP3    H110506   0.799   2.832   1.009 -0.5026 -0.7274 -0.4102
 3500TIP3    H210507   0.753   2.703   1.074 -1.4270 -0.1619  0.0693
 3501TIP3   OH210508   1.632   0.178   3.680 -0.4354  0.1001 -0.0792
 3501TIP3    H110509   1.716   0.134   3.679 -0.2055  0.3765 -2.7809
 3501TIP3    H210510   1.582   0.135   3.749  1.2478 -1.3691  0.2918
 3502TIP3   OH210511   1.721   5.618   2.976 -0.1822 -0.2977  0.4085
 3502TIP3    H110512   1.701   5.532   2.939  0.4671 -0.5386  0.6181
 3502TIP3    H210513   1.681   5.680   2.915 -0.6235 -0.7410  0.2397
 3503TIP3   OH210514   2.464   4.948   1.548  0.3312 -0.1669  0.4700
 3503TIP3    H110515   2.504   4.939   1.634 -0.6848 -2.7422  0.7704
 3503TIP3    H210516   2.417   4.865   1.534 -2.0424  1.3252 -1.2750
 3504TIP3   OH210517   3.760   2.069   2.977  0.2712 -0.2445 -0.2187
 3504TIP3    H110518   3.840   2.051   3.026  0.8564  1.6660 -0.4058
 3504TIP3    H210519   3.780   2.044   2.887 -0.0770 -1.7053  0.0787
 3505TIP3   OH210520   5.176   3.444   3.762 -0.1598  0.1196 -0.2890
 3505TIP3    H110521   5.131   3.520   3.724  0.2270  0.1253 -0.7325
 3505TIP3    H210522   5.110   3.374   3.759 -1.0445  0.7923  1.4956
 3506TIP3   OH210523   5.280   2.771   4.169 -0.1327  0.6255 -0.7185
 3506TIP3    H110524   5.331   2.705   4.122 -1.0917  0.6695 -1.8752
 3506TIP3    H210525   5.212   2.722   4.214 -0.7846  0.7912 -1.4970
 3507TIP3   OH210526   3.040   3.674   0.076 -0.0303 -0.6705  0.6038
 3507TIP3    H110527   3.080   3.761   0.078 -0.6752 -0.3302 -0.4970
 3507TIP3    H210528   3.012   3.662  -0.015 -0.6668 -1.7048  0.9123
 3508TIP3   OH210529   1.490   5.231   1.012 -0.1897  0.2686  0.1019
 3508TIP3    H110530   1.408   5.181   1.016 -0.4986  0.8284  1.1436
 3508TIP3    H210531   1.509   5.237   0.919 -1.3388  0.1288 -0.1611
 3509TIP3   OH210532   4.098   4.180   0.906 -0.0635  0.0184 -0.5845
 3509TIP3    H110533   4.179   4.129   0.908  0.0590  0.2092  0.7092
 3509TIP3    H210534   4.035   4.125   0.952 -0.2301  0.5303 -0.1880
 3510TIP3   OH210535   4.970   3.029   2.667 -0.4437 -0.3472  0.2892
 3510TIP3    H110536   4.912   3.105   2.655 -1.0180 -0.6816  0.8641
 3510TIP3    H210537   5.004   3.039   2.756  2.7343  1.4142 -0.9559
 3511TIP3   OH210538   3.558   5.420   0.167 -0.1365  0.3920  0.0356
 3511TIP3    H110539   3.585   5.441   0.078  2.1146  0.6521  0.7200
 3511TIP3    H210540   3.527   5.330   0.162  0.1718  0.3314 -0.9603
 3512TIP3   OH210541   0.533   5.949   4.694  0.4771  0.2729 -0.5698
 3512TIP3    H110542   0.608   5.982   4.645  0.2144  2.8301  0.5768
 3512TIP3    H210543   0.457   5.993   4.653  0.0280  0.5983  0.5726
 3513TIP3   OH210544   1.083   4.618   2.106 -0.7095  0.5040 -0.5999
 3513TIP3    H110545   1.108   4.535   2.148 -1.4923 -0.0285 -1.1659
 3513TIP3    H210546   1.113   4.685   2.168  3.6033  0.0705 -1.8940
 3514TIP3   OH210547   5.965   0.275   1.689 -0.6382  0.1427 -0.0570
 3514TIP3    H110548   5.890   0.305   1.740 -0.9959 -1.7511  0.6130
 3514TIP3    H210549   6.037   0.331   1.718 -1.3553  0.6631  0.7724
 3515TIP3   OH210550   5.480   4.447   4.655  0.1913 -0.5972 -0.3727
 3515TIP3    H110551   5.508   4.364   4.617 -0.6170 -1.1711  0.2394
 3515TIP3    H210552   5.520   4.448   4.742 -0.6574 -0.8632  0.0364
 3516TIP3   OH210553   3.984   4.589   2.597  0.3450 -0.0700 -0.0569
 3516TIP3    H110554   3.994   4.676   2.636  1.7867 -0.3870  0.3182
 3516TIP3    H210555   4.003   4.528   2.669 -1.1588 -0.7310 -0.1752
 3517TIP3   OH210556   5.565   4.585   2.149 -0.5709 -0.6432  0.0777
 3517TIP3    H110557   5.509   4.662   2.160  1.0564  0.7434 -0.9155
 3517TIP3    H210558   5.652   4.620   2.133  0.8344 -2.7287  2.4439
 3518TIP3   OH210559   0.071   1.240   4.378  0.0872 -0.0154 -0.0777
 3518TIP3    H110560  -0.020   1.258   4.401  0.4067 -1.2235  2.5803
 3518TIP3    H210561   0.067   1.168   4.315 -0.8075  1.5680 -1.9097
 3519TIP3   OH210562   3.210   4.636   3.473 -0.0826  0.2081 -0.0318
 3519TIP3    H110563   3.211   4.659   3.566 -1.1719  0.1592  0.0048
 3519TIP3    H210564   3.225   4.541   3.472  0.6472  0.3169  0.0419
 3520TIP3   OH210565   3.407   3.208   1.705 -0.0542  0.4417 -0.3556
 3520TIP3    H110566   3.474   3.233   1.642  0.0973  0.2322 -0.2807
 3520TIP3    H210567   3.325   3.216   1.657 -0.0196  1.2033 -0.2898
 3521TIP3   OH210568   0.013   1.163   1.016 -0.3281 -0.6154  0.1136
 3521TIP3    H110569  -0.040   1.183   0.939  0.3728 -0.3053 -0.2942
 3521TIP3    H210570   0.064   1.242   1.032  1.7028 -1.6504 -0.8725
 3522TIP3   OH210571   5.039   0.118   3.819  0.3476  0.1506  0.1700
 3522TIP3    H110572   5.127   0.132   3.783  0.1526  1.0813  0.0404
 3522TIP3    H210573   5.029   0.185   3.886  0.4264 -1.1236  1.4914
 3523TIP3   OH210574   0.196   4.560   4.726  0.3801 -0.1105 -0.8175
 3523TIP3    H110575   0.219   4.630   4.665  1.1290 -0.7576 -1.3003
 3523TIP3    H210576   0.272   4.502   4.726  1.0565  0.6024  1.8441
 3524TIP3   OH210577   4.155   0.413   4.528  0.0601  0.1316 -0.4121
 3524TIP3    H110578   4.135   0.320   4.542  0.2257  0.2573  0.7296
 3524TIP3    H210579   4.246   0.413   4.500  0.1304 -0.0393 -0.1912
 3525TIP3   OH210580   3.370   5.212   3.950 -0.1006  0.2961 -0.0013
 3525TIP3    H110581   3.407   5.254   3.873 -1.7023  2.0904  0.0964
 3525TIP3    H210582   3.277   5.201   3.929 -0.1096 -1.4660  0.7686
 3526TIP3   OH210583   6.259   5.745   5.078 -0.5297  0.2172 -0.2462
 3526TIP3    H110584   6.340   5.771   5.033 -1.3052  0.2223 -1.7218
 3526TIP3    H210585   6.193   5.807   5.045 -1.8132 -1.7911 -1.6536
 3527TIP3   OH210586   4.380   3.514   5.082 -0.4570 -0.1637 -0.0908
 3527TIP3    H110587   4.320   3.440   5.083  1.4476 -1.8038 -1.0593
 3527TIP3    H210588   4.400   3.527   4.989  0.6997  0.3047  0.2076
 3528TIP3   OH210589   1.152   5.781   2.334 -0.2312 -0.4201 -0.4702
 3528TIP3    H110590   1.111   5.864   2.309 -0.6108 -1.0445 -2.0000
 3528TIP3    H210591   1.086   5.714   2.317  0.4707 -1.1638 -0.3359
 3529TIP3   OH210592   0.482   3.488   3.117 -0.1518 -0.2696  0.5131
 3529TIP3    H110593   0.497   3.569   3.069  0.3789 -0.5981  0.1034
 3529TIP3    H210594   0.485   3.513   3.209 -0.7607  0.3009  0.3872
 3530TIP3   OH210595   3.728   1.696   0.131 -0.0347 -0.0762 -0.1117
 3530TIP3    H110596   3.703   1.638   0.203 -0.8202 -0.3643 -0.5957
 3530TIP3    H210597   3.812   1.733   0.158 -1.0760  1.1145  1.7177
 3531TIP3   OH210598   3.916   4.878   1.749  0.3135  0.7156 -0.0379
 3531TIP3    H110599   3.910   4.965   1.708 -0.7350 -0.1631 -1.9270
 3531TIP3    H210600   3.863   4.822   1.692  2.4882 -1.5654  0.0380
 3532TIP3   OH210601   6.122   0.541   1.098  0.0517 -0.2764 -0.2556
 3532TIP3    H110602   6.083   0.539   1.010 -3.2349 -1.2462  1.0867
 3532TIP3    H210603   6.089   0.622   1.137  0.9540 -0.1839  0.3357
 3533TIP3   OH210604   2.397   5.649   1.289 -0.6584 -0.4009 -0.0532
 3533TIP3    H110605   2.363   5.717   1.347 -0.1189 -0.5944  0.5026
 3533TIP3    H210606   2.491   5.650   1.303 -0.0678  1.6363 -3.2008
 3534TIP3   OH210607   4.370   4.417   4.559  0.2095  0.0916 -0.0784
 3534TIP3    H110608   4.425   4.437   4.484 -0.8958 -0.4601 -1.0677
 3534TIP3    H210609   4.405   4.471   4.630  3.3012 -1.7215 -0.0535
 3535TIP3   OH210610   3.353   3.921   2.992 -0.5487  0.3057 -0.4266
 3535TIP3    H110611   3.301   3.956   3.065 -0.8426 -0.4224 -0.2806
 3535TIP3    H210612   3.313   3.836   2.972  0.5836 -0.2832 -0.3004
 3536TIP3   OH210613   3.078   2.056   0.861 -0.2290  0.2486  0.6912
 3536TIP3    H110614   3.029   2.074   0.941  0.1424 -0.8318  1.1809
 3536TIP3    H210615   3.131   1.979   0.882  0.5666  0.5045 -0.2979
 3537TIP3   OH210616   0.614   5.484   2.565 -0.1256  0.6030  0.1155
 3537TIP3    H110617   0.639   5.456   2.653  1.2784  1.5210  0.0381
 3537TIP3    H210618   0.550   5.418   2.536  0.4157 -0.4764  1.2867
 3538TIP3   OH210619   5.810   3.082   4.875  0.0974  0.4405  0.4963
 3538TIP3    H110620   5.748   3.025   4.830  0.0781  1.1300 -0.3786
 3538TIP3    H210621   5.895   3.038   4.865 -0.2776 -0.7577  2.1217
 3539TIP3   OH210622   4.334   4.090   0.757 -0.3901  0.1697  0.2806
 3539TIP3    H110623   4.258   4.057   0.708 -1.1242 -1.2225  2.2119
 3539TIP3    H210624   4.393   4.015   0.763  1.0018  1.1252 -0.8292
 3540TIP3   OH210625   5.323   3.598   2.586 -0.5938  0.4922  0.2767
 3540TIP3    H110626   5.292   3.656   2.517  1.3643  0.1027 -1.0467
 3540TIP3    H210627   5.358   3.656   2.654  1.0067  0.9467 -0.8652
 3541TIP3   OH210628   3.114   3.825   1.412  0.2856  0.0978 -0.0975
 3541TIP3    H110629   3.077   3.807   1.499 -1.4253  0.9042 -0.6089
 3541TIP3    H210630   3.041   3.863   1.363  1.9177  2.0973 -1.1044
 3542TIP3   OH210631   0.797   5.301   0.747 -0.5986  0.1810 -0.5497
 3542TIP3    H110632   0.829   5.336   0.664 -0.1778  1.1191 -0.0053
 3542TIP3    H210633   0.703   5.287   0.734 -0.7587  1.4438 -0.8139
 3543TIP3   OH210634   4.688   1.426   1.593  0.2418 -0.1579  0.2601
 3543TIP3    H110635   4.730   1.510   1.610 -0.2232 -0.1900  1.7011
 3543TIP3    H210636   4.594   1.444   1.602  0.1526 -0.8787  0.8412
 3544TIP3   OH210637   3.731   0.377   2.211  0.4251  0.3638 -0.5503
 3544TIP3    H110638   3.741   0.468   2.182  0.4200  1.3064  2.1543
 3544TIP3    H210639   3.637   0.369   2.230  0.1914 -0.6510 -1.9611
 3545TIP3   OH210640   5.152   3.030   1.536 -0.5127  0.6344 -0.0336
 3545TIP3    H110641   5.097   3.016   1.458 -1.0157 -0.9558  0.5691
 3545TIP3    H210642   5.090   3.033   1.609  0.0393  1.0511  0.4266
 3546TIP3   OH210643   2.203   5.725   0.752 -0.4926 -0.2258 -0.4970
 3546TIP3    H110644   2.281   5.671   0.766 -1.2171 -1.9155 -2.4459
 3546TIP3    H210645   2.172   5.744   0.840 -0.4059 -3.3944  0.3732
 3547TIP3   OH210646   6.040   2.917   4.799  0.2199 -0.5956  0.2619
 3547TIP3    H110647   6.000   2.910   4.712 -0.6527 -0.4627  0.6549
 3547TIP3    H210648   6.123   2.963   4.783  0.3376 -1.0681 -0.5766
 3548TIP3   OH210649   1.174   4.858   3.028 -0.2949 -0.1642  0.0263
 3548TIP3    H110650   1.122   4.936   3.050 -0.7872 -0.4444 -0.1310
 3548TIP3    H210651   1.256   4.893   2.993  0.6545  0.3078  2.5412
 3549TIP3   OH210652   2.308   2.892   3.472  0.3121 -0.4171  1.1089
 3549TIP3    H110653   2.321   2.926   3.384 -0.0778 -0.9582  0.8378
 3549TIP3    H210654   2.396   2.886   3.509  0.7947 -2.8643 -0.2553
 3550TIP3   OH210655   3.095   0.017   0.928 -0.0788 -0.2082  0.4164
 3550TIP3    H110656   3.023   0.048   0.983 -0.7291 -1.5422  0.3467
 3550TIP3    H210657   3.057   0.012   0.840  0.5007  0.3733  0.1184
 3551TIP3   OH210658   3.252   5.908   1.350 -0.3913 -0.2808 -0.3683
 3551TIP3    H110659   3.325   5.849   1.366 -0.1601  0.3040  0.8060
 3551TIP3    H210660   3.230   5.894   1.258  0.3307 -1.4256 -0.3809
 3552TIP3   OH210661   0.956   2.956   3.801 -0.4412 -0.8123 -0.2665
 3552TIP3    H110662   1.029   2.944   3.861 -2.2142 -0.1571  2.2010
 3552TIP3    H210663   0.976   3.037   3.754  0.5444 -0.7958  0.1628
 3553TIP3   OH210664   1.386   2.338   2.031 -0.0765 -0.3372  0.7824
 3553TIP3    H110665   1.362   2.246   2.020 -1.8231  0.2043 -0.5696
 3553TIP3    H210666   1.382   2.354   2.125 -2.1887 -1.1025  0.8850
 3554TIP3   OH210667   5.608   2.775   3.230 -0.2842 -0.4110 -0.6006
 3554TIP3    H110668   5.617   2.750   3.138  0.5669 -1.2323 -0.3014
 3554TIP3    H210669   5.695   2.762   3.268 -0.1179  1.7582 -0.1081
 3555TIP3   OH210670   2.690   4.745   0.022 -0.5105 -0.1055  0.7536
 3555TIP3    H110671   2.729   4.808   0.083 -1.7028  0.6886  0.7293
 3555TIP3    H210672   2.686   4.791  -0.062 -0.4369 -0.5871  0.4829
 3556TIP3   OH210673   2.750   4.445   1.888 -0.1605 -0.0230  0.5308
 3556TIP3    H110674   2.769   4.492   1.807  0.1412  0.3501  0.8132
 3556TIP3    H210675   2.665   4.403   1.872 -0.2322  0.2700  0.1222
 3557TIP3   OH210676   1.366   1.820   4.840 -0.9022  0.0018 -0.0691
 3557TIP3    H110677   1.364   1.728   4.866 -1.3820 -0.9802 -3.1726
 3557TIP3    H210678   1.286   1.833   4.790  0.8035  1.0586 -2.7313
 3558TIP3   OH210679   0.863   3.944   3.128 -0.2138 -0.6450 -0.1891
 3558TIP3    H110680   0.890   3.984   3.045 -1.2652  1.5351  0.4450
 3558TIP3    H210681   0.943   3.940   3.180 -0.1661  1.3607 -0.0279
 3559TIP3   OH210682   5.660   4.707   0.227 -0.2602  0.2367 -0.0324
 3559TIP3    H110683   5.696   4.688   0.313  2.5532  0.9879 -0.9307
 3559TIP3    H210684   5.658   4.623   0.182  2.4171  0.3678 -0.5879
 3560TIP3   OH210685   3.113   2.577   3.378 -0.4408 -0.0783  0.2219
 3560TIP3    H110686   3.074   2.631   3.309  1.1246 -0.5845 -1.1583
 3560TIP3    H210687   3.187   2.629   3.409  0.5871 -1.0274 -0.5445
 3561TIP3   OH210688   3.359   3.521   1.086  0.3867 -0.1412  0.0455
 3561TIP3    H110689   3.343   3.584   1.017  2.7251  1.2213  0.6459
 3561TIP3    H210690   3.389   3.442   1.040 -1.8164 -0.6584 -0.6494
 3562TIP3   OH210691   2.033   5.909   1.514 -0.6169  0.0415  0.2619
 3562TIP3    H110692   1.978   5.862   1.452  0.6592 -1.0181 -0.1170
 3562TIP3    H210693   1.980   5.915   1.594 -1.1523 -1.2375  0.0191
 3563TIP3   OH210694   4.135   2.194   0.898  0.4668  0.2783  0.3003
 3563TIP3    H110695   4.042   2.218   0.893  0.1721 -0.8192  0.3016
 3563TIP3    H210696   4.136   2.108   0.939  1.2348 -1.1170 -2.4101
 3564TIP3   OH210697   5.725   0.750   4.352  0.0737  0.6178 -0.1281
 3564TIP3    H110698   5.764   0.766   4.266 -2.4714  1.7480 -1.1908
 3564TIP3    H210699   5.774   0.806   4.411  0.4720  1.5473 -1.2885
 3565TIP3   OH210700   3.691   5.225   4.924  0.1676 -0.2140  0.0448
 3565TIP3    H110701   3.782   5.195   4.920  0.5243  0.4368  2.2361
 3565TIP3    H210702   3.644   5.166   4.864  2.0594 -0.2732 -1.4847
 3566TIP3   OH210703   1.563   5.294   4.042 -0.1984  0.4557  0.0550
 3566TIP3    H110704   1.507   5.226   4.080  1.4656 -1.6318 -1.0309
 3566TIP3    H210705   1.637   5.300   4.102 -1.5799  3.4669  1.6864
 3567TIP3   OH210706   3.452   3.077   3.759  0.3045  0.3543 -0.2060
 3567TIP3    H110707   3.521   3.030   3.806  0.2570 -0.6940 -1.1307
 3567TIP3    H210708   3.454   3.040   3.671 -2.0129 -0.3372 -0.0402
 3568TIP3   OH210709   0.709   3.177   0.138 -0.1955 -0.2271 -0.4779
 3568TIP3    H110710   0.626   3.218   0.159  0.1915 -0.4667  1.7327
 3568TIP3    H210711   0.686   3.090   0.106 -0.8201 -0.0817 -0.4311
 3569TIP3   OH210712   5.033   5.027   0.728  0.2788  0.2976  0.0938
 3569TIP3    H110713   4.955   4.981   0.758  0.2252  1.2627  1.4879
 3569TIP3    H210714   5.031   5.016   0.632 -1.9644  0.9510  0.0042
 3570TIP3   OH210715   4.022   1.392   3.839  0.3165  0.2206 -0.2902
 3570TIP3    H110716   4.071   1.418   3.918  2.0232  0.6486 -1.4393
 3570TIP3    H210717   4.024   1.469   3.783  2.0099 -1.0506 -2.1052
 3571TIP3   OH210718   0.617   3.607   0.157  0.8529  0.2447 -0.4153
 3571TIP3    H110719   0.613   3.527   0.211  2.0043 -0.3232 -1.1437
 3571TIP3    H210720   0.683   3.662   0.201 -0.8149  1.3943  0.8066
 3572TIP3   OH210721   2.783   4.891   2.655  0.5938  0.2417  0.1752
 3572TIP3    H110722   2.838   4.963   2.624  0.4944  0.1019 -0.3317
 3572TIP3    H210723   2.697   4.932   2.669  0.0960 -0.0856 -1.6625
 3573TIP3   OH210724   5.581   3.832   4.317  0.1240 -0.5636 -0.4922
 3573TIP3    H110725   5.594   3.906   4.257 -0.8829 -0.0612 -0.1018
 3573TIP3    H210726   5.534   3.767   4.264 -2.8558  0.7671  0.3057
 3574TIP3   OH210727   4.650   0.117   1.931  0.2375  0.4116  0.0346
 3574TIP3    H110728   4.671   0.027   1.904 -0.0049  0.2437  0.4072
 3574TIP3    H210729   4.600   0.152   1.857  0.1149  0.1581 -0.0049
 3575TIP3   OH210730   4.954   3.014   4.192  0.0988 -0.4527 -0.9622
 3575TIP3    H110731   4.938   3.079   4.259  0.0229 -0.8628 -0.5779
 3575TIP3    H210732   4.967   2.932   4.240  0.3494 -0.6923 -1.4269
 3576TIP3   OH210733   2.713   2.751   2.436 -0.0621  0.2559  0.0936
 3576TIP3    H110734   2.791   2.788   2.393 -1.1248  1.1521 -1.1533
 3576TIP3    H210735   2.651   2.736   2.364 -0.4394 -2.1017  0.8298
 3577TIP3   OH210736   1.564   0.167   2.515 -0.0774 -0.3281 -0.4410
 3577TIP3    H110737   1.644   0.204   2.477 -0.1138  0.2066 -0.0188
 3577TIP3    H210738   1.590   0.080   2.545  0.6631  0.2476  0.6821
 3578TIP3   OH210739   1.509   4.694   4.955 -0.1088 -0.0113 -0.1002
 3578TIP3    H110740   1.541   4.626   5.014 -0.5982 -1.3037 -1.2616
 3578TIP3    H210741   1.523   4.659   4.867  0.4800  1.8050 -0.7831
 3579TIP3   OH210742   0.310   0.773   0.024  0.6061  0.1660  0.8757
 3579TIP3    H110743   0.259   0.752  -0.054  1.4554 -0.1296  0.3775
 3579TIP3    H210744   0.302   0.695   0.079  0.2968  0.2320  0.9251
 3580TIP3   OH210745   5.235   0.369   1.448 -0.4982 -0.3787 -0.6711
 3580TIP3    H110746   5.210   0.370   1.541  0.1588 -0.9286 -0.4789
 3580TIP3    H210747   5.289   0.291   1.439  2.2449  1.3934 -0.7342
 3581TIP3   OH210748   5.148   5.888   4.370  0.0926 -0.6292 -0.2127
 3581TIP3    H110749   5.123   5.795   4.367  2.6064 -1.3892 -0.6363
 3581TIP3    H210750   5.234   5.887   4.413 -0.2512  1.6416  0.6242
 3582TIP3   OH210751   1.409   4.139   2.692  0.4481 -0.2513  0.3038
 3582TIP3    H110752   1.412   4.226   2.733 -1.7432  0.0013  0.0261
 3582TIP3    H210753   1.501   4.114   2.684  1.0820  1.2638  2.0251
 3583TIP3   OH210754   1.439   5.087   4.486  0.4131  0.1825  0.5153
 3583TIP3    H110755   1.392   5.103   4.405  0.7368 -0.2405  0.2374
 3583TIP3    H210756   1.471   4.997   4.478 -0.1395 -0.1128  1.4096
 3584TIP3   OH210757   4.635   3.939   1.704 -0.0557  0.1228  0.0340
 3584TIP3    H110758   4.692   3.862   1.699  1.8737  1.5610 -1.8163
 3584TIP3    H210759   4.547   3.903   1.697  0.8047 -1.9247 -1.4563
 3585TIP3   OH210760   2.213   1.920   4.021  0.2216 -0.2365 -0.1355
 3585TIP3    H110761   2.278   1.959   3.962  0.4350  1.2296  0.9936
 3585TIP3    H210762   2.134   1.972   4.007  0.6472  1.0235  1.7479
 3586TIP3   OH210763   0.860   3.519   4.789  0.5090  0.2987 -0.3631
 3586TIP3    H110764   0.782   3.565   4.756  0.5163 -0.3859 -1.3905
 3586TIP3    H210765   0.864   3.542   4.882 -1.1550  0.0191 -0.1881
 3587TIP3   OH210766   1.665   2.665   2.973  0.4728  0.7530  0.5239
 3587TIP3    H110767   1.580   2.707   2.990  0.9052  2.2932 -0.8594
 3587TIP3    H210768   1.724   2.738   2.953  1.6974 -0.4182 -0.2844
 3588TIP3   OH210769   4.744   1.442   3.414  0.1788 -0.1208 -0.2589
 3588TIP3    H110770   4.768   1.354   3.446  0.0500 -0.4356 -1.0028
 3588TIP3    H210771   4.702   1.484   3.489  0.3571 -0.6494  0.1461
 3589TIP3   OH210772   3.146   2.937   1.778 -0.1742 -0.1471  0.0958
 3589TIP3    H110773   3.084   2.945   1.705 -0.2527 -2.3663 -0.1221
 3589TIP3    H210774   3.108   2.993   1.846 -2.1037 -0.9102 -0.2702
 3590TIP3   OH210775   6.011   0.190   4.788 -0.0412  0.7913  0.2940
 3590TIP3    H110776   5.985   0.210   4.698 -1.4853  1.8773  0.9093
 3590TIP3    H210777   5.949   0.124   4.818 -0.8090  1.8240  1.0787
 3591TIP3   OH210778   5.149   4.379   1.982 -0.6128  0.6893 -0.5275
 3591TIP3    H110779   5.077   4.318   1.962 -0.4316 -0.1798  1.2377
 3591TIP3    H210780   5.127   4.413   2.069 -0.2500  2.5198 -1.1234
 3592TIP3   OH210781   3.847   0.711   0.116 -0.7251  0.3381 -0.3392
 3592TIP3    H110782   3.882   0.736   0.201 -0.8957  1.9686 -0.7213
 3592TIP3    H210783   3.771   0.655   0.136 -2.0835  2.4299  0.6732
 3593TIP3   OH210784   1.562   1.382   3.115  0.1506 -0.3121 -0.3065
 3593TIP3    H110785   1.568   1.371   3.020  0.1609  0.9680 -0.4650
 3593TIP3    H210786   1.512   1.462   3.127 -1.3246 -1.3440  0.8067
 3594TIP3   OH210787   3.072   0.529   3.112  0.3681 -0.6208 -0.0868
 3594TIP3    H110788   3.033   0.584   3.180  0.9479 -0.0298 -0.2149
 3594TIP3    H210789   3.161   0.512   3.144  0.9529  0.3950 -1.0730
 3595TIP3   OH210790   2.536   0.441   2.423 -0.2905 -0.4008  0.3239
 3595TIP3    H110791   2.546   0.410   2.333 -0.9988  1.0897 -0.2996
 3595TIP3    H210792   2.625   0.442   2.458 -0.0885 -1.6387 -0.1261
 3596TIP3   OH210793   0.501   0.794   3.619 -0.1993 -0.1979 -0.0133
 3596TIP3    H110794   0.482   0.714   3.571 -2.1477 -0.2318  0.7156
 3596TIP3    H210795   0.499   0.863   3.553 -0.9407 -0.4762 -0.2976
 3597TIP3   OH210796   6.087   1.258   1.505 -0.0070 -0.3269 -0.2995
 3597TIP3    H110797   6.060   1.252   1.596  0.5574  0.5636 -0.0500
 3597TIP3    H210798   6.008   1.242   1.455 -0.8718  1.4334  0.3917
 3598TIP3   OH210799   0.159   2.785   2.961 -0.2667 -0.7544  0.2354
 3598TIP3    H110800   0.224   2.739   2.909  0.6985  0.6524  0.1423
 3598TIP3    H210801   0.075   2.758   2.925  0.1889 -3.0314  0.7004
 3599TIP3   OH210802   1.260   1.657   2.041  0.3249  0.3731 -0.4384
 3599TIP3    H110803   1.235   1.617   1.957 -1.0437  0.3408 -0.0428
 3599TIP3    H210804   1.336   1.711   2.020  1.1680 -1.0868 -1.3233
 3600TIP3   OH210805   4.863   1.841   2.544 -0.0283 -1.0154 -0.1064
 3600TIP3    H110806   4.888   1.859   2.453 -1.5634  0.2477 -0.3361
 3600TIP3    H210807   4.898   1.915   2.594  0.2463 -1.3642  0.2170
 3601TIP3   OH210808   2.116   2.582   3.100  0.4193 -0.3003  0.2666
 3601TIP3    H110809   2.035   2.561   3.054  0.2511 -0.3456  0.5875
 3601TIP3    H210810   2.096   2.570   3.192  1.2863 -2.0335  0.2622
 3602TIP3   OH210811   3.254   4.785   4.774 -0.5184 -0.0888  0.1087
 3602TIP3    H110812   3.204   4.746   4.846 -1.2679 -0.1713 -0.4321
 3602TIP3    H210813   3.245   4.722   4.702  0.8331 -0.3563  0.1592
 3603TIP3   OH210814   3.888   3.191   1.800 -0.0520 -0.0141  0.4514
 3603TIP3    H110815   3.850   3.245   1.870 -0.2943 -0.6413  0.8171
 3603TIP3    H210816   3.816   3.133   1.774 -0.4745  1.2990 -1.4696
 3604TIP3   OH210817   5.861   2.056   3.887  0.5445 -0.1868 -0.1021
 3604TIP3    H110818   5.842   1.979   3.834 -1.9949  1.9787 -2.6235
 3604TIP3    H210819   5.777   2.085   3.921  1.5062  1.1604  1.3232
 3605TIP3   OH210820   6.292   4.365   0.615  0.3570 -0.4525  0.6508
 3605TIP3    H110821   6.366   4.423   0.635  0.2039  0.0025 -0.0666
 3605TIP3    H210822   6.308   4.287   0.668  0.9982 -0.0866  1.0132
 3606TIP3   OH210823   0.971   5.611   0.815 -0.4947  0.2449 -0.5114
 3606TIP3    H110824   1.031   5.674   0.776 -1.1837  0.8482 -0.6263
 3606TIP3    H210825   0.934   5.563   0.741 -1.0272  0.6841 -0.5402
 3607TIP3   OH210826   6.323   3.558   1.643 -0.1290  0.1729 -0.3970
 3607TIP3    H110827   6.272   3.590   1.718  0.2375  1.5415 -0.6990
 3607TIP3    H210828   6.293   3.468   1.630 -0.8562  0.2154  0.8171
 3608TIP3   OH210829   1.742   2.546   1.831 -0.0302  0.4203 -0.4256
 3608TIP3    H110830   1.713   2.584   1.914  1.2181  0.3879  0.0619
 3608TIP3    H210831   1.824   2.592   1.811  0.8442 -1.0690 -0.4784
 3609TIP3   OH210832   1.627   1.820   0.932  0.2273 -0.1265  0.2015
 3609TIP3    H110833   1.605   1.911   0.914  0.9054  0.0513  0.2411
 3609TIP3    H210834   1.553   1.786   0.982 -0.0616  0.3763  0.1159
 3610TIP3   OH210835   4.271   0.299   1.889 -0.1061 -0.0832 -0.1382
 3610TIP3    H110836   4.328   0.301   1.966  1.1591 -2.5022 -0.8959
 3610TIP3    H210837   4.206   0.231   1.909  0.7456 -1.3513 -1.4589
 3611TIP3   OH210838   3.810   5.760   1.517 -0.0664 -0.2828  0.8055
 3611TIP3    H110839   3.749   5.686   1.516 -0.2486 -0.1364  1.0568
 3611TIP3    H210840   3.895   5.722   1.537  0.0823 -0.6083 -0.3757
 3612TIP3   OH210841   1.540   1.840   4.362  0.1044  0.1013  0.6368
 3612TIP3    H110842   1.615   1.789   4.393 -0.0159  0.5307  1.6867
 3612TIP3    H210843   1.468   1.813   4.419 -0.6207 -0.4790 -0.5116
 3613TIP3   OH210844   1.949   1.943   2.172 -0.9194 -0.3212 -0.4823
 3613TIP3    H110845   1.893   1.985   2.107 -3.3518 -2.6246 -0.0508
 3613TIP3    H210846   1.889   1.902   2.234  0.9559 -5.0430 -1.2983
 3614TIP3   OH210847   1.339   3.537   2.998  0.2669 -0.0521  0.2319
 3614TIP3    H110848   1.302   3.468   3.052 -0.8477  0.6253  0.3757
 3614TIP3    H210849   1.343   3.613   3.056 -0.2245  0.4802 -0.4174
 3615TIP3   OH210850   6.265   4.022   4.884 -0.1075  0.2655 -0.0907
 3615TIP3    H110851   6.358   4.033   4.904 -0.0647 -1.1023  0.5238
 3615TIP3    H210852   6.223   4.011   4.969 -0.6967 -0.1123 -0.4247
 3616TIP3   OH210853   4.930   2.936   3.360 -0.8237  0.1547  0.0761
 3616TIP3    H110854   4.974   2.931   3.445  0.9614  1.3196 -0.7165
 3616TIP3    H210855   4.957   3.020   3.324  0.4860 -1.2787 -2.6770
 3617TIP3   OH210856   1.635   2.282   4.634 -0.2563 -0.2908  0.0666
 3617TIP3    H110857   1.600   2.371   4.627  0.0356 -0.1694  0.1297
 3617TIP3    H210858   1.565   2.226   4.602 -1.3558 -0.2163  2.1713
 3618TIP3   OH210859   4.771   1.962   3.497 -0.4152  0.4927  0.2024
 3618TIP3    H110860   4.748   1.889   3.439  0.6299 -0.4538  0.9371
 3618TIP3    H210861   4.693   1.978   3.549 -0.1776 -1.2032  1.1519
 3619TIP3   OH210862   6.258   2.869   2.557 -0.4022  0.2851  0.2825
 3619TIP3    H110863   6.259   2.899   2.467  1.4835  0.8902  0.4688
 3619TIP3    H210864   6.307   2.787   2.555  0.4598  0.7805  0.9034
 3620TIP3   OH210865   3.362   0.350   4.187 -0.2214  0.3414 -0.0784
 3620TIP3    H110866   3.403   0.428   4.226 -2.2002  0.7121  1.3789
 3620TIP3    H210867   3.340   0.378   4.098  3.0613 -0.0545 -1.1479
 3621TIP3   OH210868   4.585   5.624   0.514  0.0071 -0.1612  0.0325
 3621TIP3    H110869   4.652   5.648   0.579  0.5291 -0.8713 -0.2276
 3621TIP3    H210870   4.595   5.530   0.504  1.6770  0.2030 -2.9210
 3622TIP3   OH210871   5.882   2.671   1.020 -0.3030 -0.2299  0.4211
 3622TIP3    H110872   5.974   2.662   1.045 -0.5637 -2.0607  0.8748
 3622TIP3    H210873   5.837   2.601   1.067 -1.6864 -0.3554 -0.9913
 3623TIP3   OH210874   1.406   2.708   1.901  0.1370  0.1121 -0.0717
 3623TIP3    H110875   1.343   2.673   1.963  0.6971  0.9861  1.0203
 3623TIP3    H210876   1.441   2.631   1.856 -1.8836 -0.3727 -0.9179
 3624TIP3   OH210877   2.755   4.798   5.141 -0.0241  0.1367 -0.7563
 3624TIP3    H110878   2.662   4.822   5.149 -0.5275 -0.6227 -3.3448
 3624TIP3    H210879   2.755   4.702   5.141  1.0898  0.0719  1.5980
 3625TIP3   OH210880   4.430   5.571   0.056  0.3522 -0.4797 -0.1355
 3625TIP3    H110881   4.370   5.522   0.112 -0.0148  1.5405  1.3858
 3625TIP3    H210882   4.495   5.607   0.116  0.3905  1.1464 -1.0810
 3626TIP3   OH210883   0.079   0.865   3.976  0.4543 -0.0788 -1.0166
 3626TIP3    H110884   0.128   0.889   3.897  0.3412  0.4159 -0.9403
 3626TIP3    H210885   0.143   0.817   4.030  1.5158  2.2778 -0.0224
 3627TIP3   OH210886   2.142   1.516   1.064 -0.4415  1.0587  0.0767
 3627TIP3    H110887   2.100   1.600   1.043  1.6976  2.4749  1.1064
 3627TIP3    H210888   2.223   1.540   1.110 -0.4603 -1.6367  1.7133
 3628TIP3   OH210889   4.188   5.423   3.660  0.4226 -0.1936 -0.4166
 3628TIP3    H110890   4.165   5.372   3.738 -1.0500 -0.1987 -0.8343
 3628TIP3    H210891   4.134   5.386   3.591 -1.9162  2.9150 -0.4164
 3629TIP3   OH210892   2.620   0.183   3.825 -0.0915 -0.0254  0.6282
 3629TIP3    H110893   2.693   0.239   3.797 -0.6108 -0.1440 -1.0566
 3629TIP3    H210894   2.653   0.136   3.902  0.7791  1.6643  1.3395
 3630TIP3   OH210895   4.836   2.835   3.763  0.1454 -0.2494  0.6585
 3630TIP3    H110896   4.907   2.863   3.705 -0.2962  0.1679  0.3140
 3630TIP3    H210897   4.785   2.915   3.779 -2.3143 -1.1049 -1.9343
 3631TIP3   OH210898   5.239   2.210   2.021 -0.2199  0.2435 -0.0021
 3631TIP3    H110899   5.189   2.291   2.016 -1.3859 -0.3074  1.6212
 3631TIP3    H210900   5.185   2.146   1.974 -0.0849  0.0778  0.0660
 3632TIP3   OH210901   3.776   5.422   2.884 -0.5881 -0.2256 -0.3479
 3632TIP3    H110902   3.771   5.498   2.941  2.2533 -0.0490 -0.2159
 3632TIP3    H210903   3.777   5.347   2.943 -1.0495 -0.2498 -0.3652
 3633TIP3   OH210904   1.301   3.585   2.106  0.1501  0.5119 -0.1005
 3633TIP3    H110905   1.291   3.676   2.135 -0.5862  1.3074 -2.5790
 3633TIP3    H210906   1.348   3.592   2.022  0.6626 -1.4655 -0.0237
 3634TIP3   OH210907   5.308   1.774   1.341  0.3112 -0.7515  0.4066
 3634TIP3    H110908   5.216   1.793   1.360 -0.1290 -2.3806  0.0288
 3634TIP3    H210909   5.323   1.809   1.253 -0.2793 -1.4661  0.0119
 3635TIP3   OH210910   0.984   1.914   3.767  0.2799  0.7084 -0.0815
 3635TIP3    H110911   0.914   1.977   3.782  0.8261  1.2987  0.0551
 3635TIP3    H210912   0.941   1.838   3.730 -0.3636  1.2680 -0.5044
 3636TIP3   OH210913   3.738   1.852   0.405  0.0943  0.4260 -0.6934
 3636TIP3    H110914   3.755   1.849   0.499  2.3224  1.4829 -0.9912
 3636TIP3    H210915   3.693   1.770   0.386  0.9098 -0.4878  1.0651
 3637TIP3   OH210916   1.117   0.286   4.134 -0.0352  0.1850  0.5366
 3637TIP3    H110917   1.211   0.304   4.126 -0.3195  2.0972  0.9267
 3637TIP3    H210918   1.112   0.196   4.166  1.5772 -0.6927 -1.4819
 3638TIP3   OH210919   2.283   3.141   4.087  0.1011  0.1613  0.4779
 3638TIP3    H110920   2.303   3.200   4.014 -2.3525  1.7692  0.9769
 3638TIP3    H210921   2.187   3.138   4.089  0.1314 -1.1357  2.6456
 3639TIP3   OH210922   3.508   4.411   3.509  0.4868 -0.3712 -0.3527
 3639TIP3    H110923   3.438   4.352   3.536 -1.0207  1.4141 -0.2222
 3639TIP3    H210924   3.480   4.498   3.538  2.1698  0.5821 -1.3994
 3640TIP3   OH210925   1.161   5.723   2.681  0.3096  0.0124 -0.2607
 3640TIP3    H110926   1.243   5.718   2.633 -0.3713  0.6244 -1.5363
 3640TIP3    H210927   1.119   5.638   2.667  0.9086 -0.4778  0.7846
 3641TIP3   OH210928   2.049   1.218   4.602 -0.2983 -0.4340 -0.1684
 3641TIP3    H110929   1.955   1.236   4.611 -0.5166 -1.2493 -0.7819
 3641TIP3    H210930   2.079   1.279   4.534 -0.4440 -0.3930 -0.1963
 3642TIP3   OH210931   3.944   3.811   1.817 -0.1422 -0.0499  0.1076
 3642TIP3    H110932   3.931   3.719   1.842 -0.7680  0.2048  0.7143
 3642TIP3    H210933   3.919   3.861   1.894 -0.6469  0.6739 -0.5188
 3643TIP3   OH210934   1.589   5.153   5.128 -0.5011  0.7325  0.1234
 3643TIP3    H110935   1.576   5.082   5.065 -1.7743  1.8679 -0.9555
 3643TIP3    H210936   1.683   5.167   5.130 -0.4493  0.8662 -1.7749
 3644TIP3   OH210937   1.424   0.395   0.244  0.6917  0.0575 -0.0884
 3644TIP3    H110938   1.391   0.471   0.291 -1.7633  0.6723 -2.4990
 3644TIP3    H210939   1.363   0.325   0.267  0.0333  0.1269 -1.5030
 3645TIP3   OH210940   2.002   4.974   4.597  0.1533 -0.5390  0.4004
 3645TIP3    H110941   1.955   4.927   4.667 -0.0736 -2.2329 -0.8339
 3645TIP3    H210942   2.074   5.018   4.642 -0.1381 -1.3780  1.7435
 3646TIP3   OH210943   0.826   5.958   0.077 -0.2233 -0.2783  0.0206
 3646TIP3    H110944   0.880   5.882   0.056 -0.6328 -0.5757  0.0287
 3646TIP3    H210945   0.885   6.033   0.066  0.1383 -0.5821 -0.1485
 3647TIP3   OH210946   6.054   2.583   2.499 -0.0500 -0.2543 -0.2541
 3647TIP3    H110947   5.968   2.562   2.462 -0.8506 -0.8791  1.7949
 3647TIP3    H210948   6.099   2.632   2.430 -2.3393  0.7752 -1.1174
 3648TIP3   OH210949   0.648   4.936   1.480 -0.4337 -0.3261  0.2518
 3648TIP3    H110950   0.598   4.893   1.410  0.2682  1.0613 -1.1554
 3648TIP3    H210951   0.614   4.897   1.560 -2.8363 -0.3987 -0.7106
 3649TIP3   OH210952   3.907   3.957   2.405 -0.0218 -0.0058  0.0972
 3649TIP3    H110953   3.970   3.949   2.476  0.6720  0.4602 -0.4579
 3649TIP3    H210954   3.903   4.050   2.386 -0.5451 -0.0794 -0.1759
 3650TIP3   OH210955   1.032   5.535   1.886 -0.6089 -0.2164 -0.9344
 3650TIP3    H110956   0.941   5.510   1.871 -0.3766 -0.4971 -1.9599
 3650TIP3    H210957   1.067   5.554   1.799  0.1686  0.4188 -0.5066
 3651TIP3   OH210958   2.960   1.958   3.465  0.1954  0.2339 -0.0662
 3651TIP3    H110959   2.993   1.888   3.408 -0.9348 -1.0504  0.7979
 3651TIP3    H210960   2.873   1.928   3.492 -0.9108  2.6036 -0.7216
 3652TIP3   OH210961   1.973   1.766   3.709 -0.1813 -0.1927 -0.3626
 3652TIP3    H110962   1.958   1.832   3.777 -0.3314 -1.1766  0.6082
 3652TIP3    H210963   1.895   1.769   3.655  0.3888  1.3292 -1.1479
 3653TIP3   OH210964   1.096   1.843   3.010  0.2552  0.3823 -0.0621
 3653TIP3    H110965   1.053   1.897   2.943  0.9123  1.7665  0.6010
 3653TIP3    H210966   1.072   1.883   3.093  0.1371 -0.8213  0.5042
 3654TIP3   OH210967   0.750   1.705   0.965  0.6893 -1.1937 -0.4166
 3654TIP3    H110968   0.837   1.686   0.929  1.6811 -1.0214  1.6859
 3654TIP3    H210969   0.744   1.800   0.962  1.1081 -1.1200  0.4637
 3655TIP3   OH210970   1.955   0.232   2.338 -0.4396  0.0609 -0.0899
 3655TIP3    H110971   1.940   0.231   2.243 -0.2861 -1.2064 -0.1182
 3655TIP3    H210972   2.007   0.153   2.354  0.2594  0.7149  0.9432
 3656TIP3   OH210973   3.249   0.623   0.551  0.1258  0.0190  0.2020
 3656TIP3    H110974   3.239   0.550   0.611  1.2024 -1.0470 -0.8515
 3656TIP3    H210975   3.322   0.674   0.587 -0.5419  0.5101  0.8672
 3657TIP3   OH210976   0.248   4.087   4.051 -0.6821 -0.0975  0.1816
 3657TIP3    H110977   0.269   3.999   4.021 -0.4323 -0.0302  0.1511
 3657TIP3    H210978   0.325   4.139   4.027 -0.7849  0.1057  0.2903
 3658TIP3   OH210979   1.328   3.275   3.135 -0.0532 -0.4453 -0.2201
 3658TIP3    H110980   1.420   3.266   3.108  0.0274 -0.8208  0.1740
 3658TIP3    H210981   1.323   3.230   3.219 -0.7416 -0.9791 -0.5376
 3659TIP3   OH210982   6.155   4.447   4.508 -0.0848 -0.2572 -0.0743
 3659TIP3    H110983   6.122   4.405   4.429 -0.8894  0.9894 -0.4352
 3659TIP3    H210984   6.232   4.496   4.480  1.7497 -2.5377  0.6219
 3660TIP3   OH210985   3.878   0.171   0.370 -0.1865  0.0689  0.1282
 3660TIP3    H110986   3.877   0.229   0.294  1.0323 -1.0455 -0.7728
 3660TIP3    H210987   3.970   0.145   0.379 -0.5900 -1.1376  0.9569
 3661TIP3   OH210988   0.194   2.717   3.238 -0.2110  0.6670  0.3921
 3661TIP3    H110989   0.162   2.807   3.242 -1.0729  0.4071 -0.3118
 3661TIP3    H210990   0.194   2.695   3.145 -1.9657 -0.7149  0.6574
 3662TIP3   OH210991   3.429   5.548   3.117  0.0284 -0.7347 -0.4586
 3662TIP3    H110992   3.455   5.630   3.076  0.6453  0.0413  1.3877
 3662TIP3    H210993   3.351   5.521   3.070  0.1621  0.6008 -1.4909
 3663TIP3   OH210994   6.147   1.466   4.739  0.3152  0.3794  0.4166
 3663TIP3    H110995   6.239   1.452   4.715  0.1544  0.8295 -0.4936
 3663TIP3    H210996   6.134   1.561   4.732 -0.4386  0.2313 -0.2688
 3664TIP3   OH210997   5.196   4.403   2.669  0.4634 -0.1686  0.1098
 3664TIP3    H110998   5.209   4.479   2.725 -0.6464 -0.5086  0.8848
 3664TIP3    H210999   5.171   4.333   2.730 -2.7061 -0.0783 -0.9027
 3665TIP3   OH211000   6.032   2.538   3.288 -0.3133  0.1907  0.0606
 3665TIP3    H111001   5.940   2.557   3.268 -0.4813 -1.4301 -0.8141
 3665TIP3    H211002   6.074   2.625   3.292 -1.3602  0.8580 -2.0692
 3666TIP3   OH211003   2.630   2.920   3.079 -0.1998 -0.1946 -0.2185
 3666TIP3    H111004   2.618   2.879   2.994  1.2348 -0.1907 -0.4465
 3666TIP3    H211005   2.718   2.894   3.106  0.2677  1.6759  0.2087
 3667TIP3   OH211006   1.037   5.314   4.315 -0.2592  0.3957 -0.2104
 3667TIP3    H111007   1.060   5.406   4.310 -0.1798  0.3571 -0.5447
 3667TIP3    H211008   1.016   5.289   4.225 -0.3362  0.1031 -0.1134
 3668TIP3   OH211009   0.066   0.637   0.142 -0.2085 -0.5661  0.0826
 3668TIP3    H111010   0.107   0.623   0.228 -1.1571 -1.4851  0.3972
 3668TIP3    H211011   0.002   0.707   0.158  0.5575  0.2264 -0.2058
 3669TIP3   OH211012   5.048   1.479   2.591  0.2020 -0.2202  0.0372
 3669TIP3    H111013   4.979   1.466   2.526  0.5879 -0.5520 -0.3157
 3669TIP3    H211014   5.126   1.441   2.550  0.7069  0.5895  0.2202
 3670TIP3   OH211015   5.141   3.093   3.954  0.2238  0.0334  0.3498
 3670TIP3    H111016   5.082   3.127   3.887 -0.3667 -1.0184  0.3145
 3670TIP3    H211017   5.083   3.072   4.027  0.8055  0.7463  1.0332
 3671TIP3   OH211018   5.886   4.523   3.476  0.1120 -0.5144  0.0896
 3671TIP3    H111019   5.869   4.529   3.382 -0.6314 -0.5294  0.2100
 3671TIP3    H211020   5.973   4.484   3.483 -0.4415 -1.9662 -0.5959
 3672TIP3   OH211021   4.187   3.937   1.368  0.2521 -0.3576 -0.0702
 3672TIP3    H111022   4.159   4.029   1.373  1.8129  0.1375  0.0972
 3672TIP3    H211023   4.242   3.925   1.445  0.9317 -1.1329 -0.6647
 3673TIP3   OH211024   0.932   0.157   2.437 -0.6707  0.4598 -0.5513
 3673TIP3    H111025   0.925   0.062   2.446 -1.8303  0.4860 -0.9551
 3673TIP3    H211026   1.021   0.177   2.464 -0.8308 -0.5864  0.9024
 3674TIP3   OH211027   4.904   4.257   1.896 -0.4378  0.3620  0.1690
 3674TIP3    H111028   4.895   4.164   1.874 -0.1297  0.4612 -0.4117
 3674TIP3    H211029   4.827   4.278   1.948 -1.2864  0.1474 -0.9665
 3675TIP3   OH211030   2.736   2.601   3.968  0.4010  0.1255 -0.4344
 3675TIP3    H111031   2.662   2.562   4.014 -0.5928  2.2773 -0.1123
 3675TIP3    H211032   2.805   2.608   4.035 -0.3682  1.4137  0.2732
 3676TIP3   OH211033   2.831   4.643   4.378 -0.1761 -0.1787 -0.1492
 3676TIP3    H111034   2.853   4.561   4.335  0.5024 -0.4164  0.6135
 3676TIP3    H211035   2.833   4.709   4.308 -0.4635 -0.7628 -0.7135
 3677TIP3   OH211036   4.312   3.881   3.517 -0.1186  0.5726 -1.0310
 3677TIP3    H111037   4.290   3.969   3.548  2.3907  0.7944  0.3858
 3677TIP3    H211038   4.229   3.835   3.516 -1.1939  2.3406  0.3302
 3678TIP3   OH211039   4.272   2.997   1.088  0.3987 -0.0601 -0.5891
 3678TIP3    H111040   4.343   2.956   1.137  0.2788 -0.4076 -0.7081
 3678TIP3    H211041   4.269   2.950   1.004  0.4736  0.4008 -0.8545
 3679TIP3   OH211042   1.871   3.557   3.738  0.6561 -1.5222 -0.0727
 3679TIP3    H111043   1.802   3.491   3.739 -0.0018 -0.8534  0.1684
 3679TIP3    H211044   1.923   3.540   3.816  0.3520 -1.6134  0.1104
 3680TIP3   OH211045   2.299   4.779   1.156  0.3473 -0.1124  0.2411
 3680TIP3    H111046   2.297   4.847   1.224 -0.6882  1.2120 -1.0332
 3680TIP3    H211047   2.356   4.711   1.191 -0.1230  0.5342  2.4097
 3681TIP3   OH211048   5.950   0.542   2.330  0.6874  0.3218  0.1553
 3681TIP3    H111049   5.931   0.468   2.387  1.4942  0.6132  0.8172
 3681TIP3    H211050   5.942   0.506   2.241  0.0740 -0.2962  0.4549
 3682TIP3   OH211051   5.023   2.171   3.383 -0.3226 -0.1721  0.1670
 3682TIP3    H111052   5.073   2.111   3.437 -2.3206  0.2761  2.6946
 3682TIP3    H211053   4.932   2.147   3.398 -1.1015  2.3093 -0.1307
 3683TIP3   OH211054   3.993   2.541   1.843 -0.6265  0.5124  0.5993
 3683TIP3    H111055   3.920   2.599   1.820 -0.6879  0.7227  1.2814
 3683TIP3    H211056   3.988   2.469   1.780  0.2302  1.8574 -1.0868
 3684TIP3   OH211057   2.548   1.676   2.291 -0.4746  0.2026  0.0822
 3684TIP3    H111058   2.494   1.750   2.262 -0.1117  1.3770  2.1631
 3684TIP3    H211059   2.591   1.708   2.370  1.2599 -1.5938 -0.0602
 3685TIP3   OH211060   0.584   5.979  -0.013  0.0709  0.0672 -0.4834
 3685TIP3    H111061   0.614   5.891   0.012  0.1901  0.0978 -0.5169
 3685TIP3    H211062   0.642   6.038   0.035  1.4535  0.1360 -2.1350
 3686TIP3   OH211063   2.538   1.224   5.021 -0.2882  0.7288  0.5338
 3686TIP3    H111064   2.621   1.271   5.028 -1.0788  2.0185  1.7464
 3686TIP3    H211065   2.479   1.270   5.080 -1.3316 -1.3919  1.2493
 3687TIP3   OH211066   0.641   3.235   2.221 -0.1574  0.0050 -0.2856
 3687TIP3    H111067   0.591   3.307   2.182 -0.4459  0.1505  0.3242
 3687TIP3    H211068   0.610   3.157   2.176 -1.2886  0.0383  0.3897
 3688TIP3   OH211069   4.849   5.110   2.625  0.1164 -0.0518  0.8316
 3688TIP3    H111070   4.757   5.100   2.650 -0.2128  0.7175 -0.0002
 3688TIP3    H211071   4.854   5.075   2.536  0.5157  0.3701  0.6820
 3689TIP3   OH211072   5.789   5.487   5.022  0.2747  0.0517 -0.1133
 3689TIP3    H111073   5.829   5.510   5.106 -0.4700  0.5804  0.1024
 3689TIP3    H211074   5.801   5.392   5.016  0.7378  0.0734  0.3746
 3690TIP3   OH211075   4.203   5.827   2.331  0.3895 -0.2781  0.3434
 3690TIP3    H111076   4.174   5.767   2.263  1.5744  0.4399 -0.8682
 3690TIP3    H211077   4.204   5.775   2.412  0.0536 -1.4792 -0.4089
 3691TIP3   OH211078   2.806   2.688   3.181  0.6819  0.0612 -0.4247
 3691TIP3    H111079   2.747   2.612   3.186 -0.0043  0.5111 -1.4839
 3691TIP3    H211080   2.865   2.668   3.109  1.0781  0.1427 -0.1260
 3692TIP3   OH211081   4.559   2.738   3.097  0.0151 -0.1101  0.3902
 3692TIP3    H111082   4.579   2.645   3.100  0.3356 -0.0231  1.0071
 3692TIP3    H211083   4.601   2.775   3.175  0.4718  0.6598 -0.1954
 3693TIP3   OH211084   5.899   3.801   2.976  0.1778  0.1174  0.0203
 3693TIP3    H111085   5.963   3.782   2.907 -0.6448 -0.9884 -0.4834
 3693TIP3    H211086   5.833   3.856   2.933 -0.1363 -0.2575  0.0064
 3694TIP3   OH211087   4.590   0.404   2.798 -0.1256  0.2880  1.2721
 3694TIP3    H111088   4.642   0.351   2.859  0.0440  0.3588  1.1893
 3694TIP3    H211089   4.526   0.448   2.854 -0.9821 -0.8513  1.2172
 3695TIP3   OH211090   6.066   4.361   1.341  0.5163  0.1778 -0.3986
 3695TIP3    H111091   6.100   4.289   1.287  0.8523  1.1798 -1.5742
 3695TIP3    H211092   6.102   4.440   1.301 -3.1666  1.3432 -1.8202
 3696TIP3   OH211093   2.149   2.731   3.633 -0.2427  0.7205  0.0888
 3696TIP3    H111094   2.209   2.785   3.581 -0.9730  2.1223  0.6604
 3696TIP3    H211095   2.207   2.683   3.693  0.4545  0.4954 -0.7376
 3697TIP3   OH211096   2.903   1.101   0.840 -0.2861  0.1508  0.5773
 3697TIP3    H111097   2.958   1.090   0.917 -0.9697 -0.9175  0.9259
 3697TIP3    H211098   2.922   1.025   0.786 -0.2462  0.5975 -0.0536
 3698TIP3   OH211099   4.643   5.707   4.300 -0.3870  0.0497 -0.2074
 3698TIP3    H111100   4.672   5.798   4.306  0.6395 -0.2776  0.0026
 3698TIP3    H211101   4.712   5.663   4.249  0.0266 -0.9681  1.1683
 3699TIP3   OH211102   0.544   0.575   3.034  0.8507  0.8385  0.4795
 3699TIP3    H111103   0.534   0.668   3.053  1.4994  1.4805 -2.0137
 3699TIP3    H211104   0.461   0.550   2.993  1.0341  0.5472  0.2874
 3700TIP3   OH211105   0.250   5.088   1.332 -0.5845  0.0288 -0.2594
 3700TIP3    H111106   0.167   5.054   1.297 -0.7655  0.4694 -0.2794
 3700TIP3    H211107   0.295   5.124   1.256  0.2652 -1.4418 -0.4861
 3701TIP3   OH211108   0.995   3.212   0.834 -0.1667 -0.2256 -0.3931
 3701TIP3    H111109   0.957   3.145   0.890 -1.8812  0.7712 -0.2873
 3701TIP3    H211110   0.962   3.191   0.746  2.3521 -1.6727 -1.0774
 3702TIP3   OH211111   6.248   1.239   0.481  0.3977 -0.2920 -0.6960
 3702TIP3    H111112   6.332   1.230   0.527  0.9109  2.4752 -0.9338
 3702TIP3    H211113   6.187   1.269   0.549  0.1796 -0.0418 -1.0025
 3703TIP3   OH211114   0.311   4.172   1.156  0.5573 -0.0826  1.1692
 3703TIP3    H111115   0.249   4.100   1.157  1.0790 -0.5428  0.9287
 3703TIP3    H211116   0.258   4.250   1.175  0.0216 -0.5473  1.6200
 3704TIP3   OH211117   0.107   4.199   4.269 -0.3566  0.3101 -0.3657
 3704TIP3    H111118   0.171   4.156   4.212 -0.1032 -0.8869  0.7673
 3704TIP3    H211119   0.099   4.287   4.233  2.1157  0.6014 -0.4370
 3705TIP3   OH211120   1.890   1.363   2.330 -0.1661  0.4947  0.4123
 3705TIP3    H111121   1.822   1.381   2.395 -1.9205 -1.0696 -0.8724
 3705TIP3    H211122   1.970   1.353   2.382 -1.2271  0.6363  2.1856
 3706TIP3   OH211123   5.100   4.073   2.121 -0.2956 -0.6563  0.1646
 3706TIP3    H111124   5.127   4.165   2.119 -1.0910 -0.3631  1.8639
 3706TIP3    H211125   5.161   4.032   2.182 -1.0532 -0.8698  0.7850
 3707TIP3   OH211126   2.356   1.389   2.060  0.2539 -0.1719 -0.0275
 3707TIP3    H111127   2.268   1.397   2.025  0.9218  1.1517 -1.5160
 3707TIP3    H211128   2.344   1.382   2.155 -1.4165  0.3594 -0.1763
 3708TIP3   OH211129   2.779   5.774   4.901 -0.0421 -0.5840 -0.0659
 3708TIP3    H111130   2.799   5.803   4.990  0.7080 -0.5483 -0.2452
 3708TIP3    H211131   2.841   5.820   4.845 -1.6337  0.7435 -0.8199
 3709TIP3   OH211132   4.085   2.258   0.023  0.1727 -0.4069  0.6812
 3709TIP3    H111133   4.006   2.295   0.062 -0.2091  0.1107 -0.5402
 3709TIP3    H211134   4.116   2.194   0.088 -0.2987  0.5694  1.9112
 3710TIP3   OH211135   3.378   3.858   1.057 -0.2643 -0.2333 -0.3793
 3710TIP3    H111136   3.386   3.938   1.005  2.3129  0.2449  0.5998
 3710TIP3    H211137   3.335   3.885   1.138  1.0910  0.3403  0.1807
 3711TIP3   OH211138   4.580   2.071   3.717 -0.4779 -0.5922 -0.0337
 3711TIP3    H111139   4.562   1.977   3.714  0.7116 -0.8547  0.7048
 3711TIP3    H211140   4.625   2.085   3.800 -1.4371  0.7854  0.3046
 3712TIP3   OH211141   0.311   2.007   0.764  0.5748 -0.5010 -0.2499
 3712TIP3    H111142   0.313   1.914   0.788  0.6608 -0.0898  1.4031
 3712TIP3    H211143   0.250   2.047   0.826  1.2894  0.7251 -0.3175
 3713TIP3   OH211144   4.236   3.112   3.639  0.2928  0.0461  0.3700
 3713TIP3    H111145   4.153   3.124   3.684 -0.2490  1.4807 -0.9362
 3713TIP3    H211146   4.229   3.026   3.598 -1.1211  0.7143 -0.8614
 3714TIP3   OH211147   0.520   0.756   0.619  0.0893  0.0708 -0.0756
 3714TIP3    H111148   0.463   0.831   0.603 -1.9901 -0.8335  2.3822
 3714TIP3    H211149   0.593   0.791   0.669 -0.2314  0.6751 -0.0227
 3715TIP3   OH211150   5.387   0.461   3.426  0.1133  0.3333 -0.0461
 3715TIP3    H111151   5.320   0.395   3.446 -0.1685  0.8321  0.6745
 3715TIP3    H211152   5.339   0.543   3.419  0.4441  0.4591 -1.0881
 3716TIP3   OH211153   1.507   1.555   1.225 -0.0034  0.3004 -0.2926
 3716TIP3    H111154   1.575   1.615   1.195 -0.9509 -0.1359 -3.6777
 3716TIP3    H211155   1.550   1.469   1.229  0.1582  0.3808 -0.3079
 3717TIP3   OH211156   0.863   1.530   2.631  0.2331  0.0332  0.3973
 3717TIP3    H111157   0.796   1.594   2.654  1.0681  0.5892  1.3765
 3717TIP3    H211158   0.862   1.467   2.703 -2.0297 -2.3521 -1.5168
 3718TIP3   OH211159   4.300   3.946   4.613 -0.0825 -0.0514 -0.3138
 3718TIP3    H111160   4.264   4.034   4.604 -0.7934 -0.3278 -0.2666
 3718TIP3    H211161   4.302   3.930   4.708  0.7589  0.1954 -0.2844
 3719TIP3   OH211162   5.598   2.951   3.710  1.2560 -0.1242  0.7088
 3719TIP3    H111163   5.601   3.004   3.630 -0.5374  0.0601  0.7213
 3719TIP3    H211164   5.550   2.872   3.684  1.5332 -0.5089  1.3578
 3720TIP3   OH211165   0.810   2.682   4.792 -0.0536 -0.0797 -0.1555
 3720TIP3    H111166   0.816   2.699   4.886 -0.7697 -2.9958  0.5152
 3720TIP3    H211167   0.798   2.587   4.786 -0.1974  0.0537 -3.2024
 3721TIP3   OH211168   6.197   0.368   1.809 -0.0574 -0.0688 -0.8610
 3721TIP3    H111169   6.210   0.277   1.834 -0.9500  0.0784  0.2572
 3721TIP3    H211170   6.274   0.414   1.843 -0.1868 -0.2296 -0.3373
 3722TIP3   OH211171   3.163   3.183   4.417  0.3283  0.7051 -0.0988
 3722TIP3    H111172   3.172   3.277   4.404 -0.4424  0.8496  0.3277
 3722TIP3    H211173   3.079   3.162   4.376 -0.4681  0.5619  1.5468
 3723TIP3   OH211174   6.076   1.883   2.232 -0.1263  0.0361  0.6795
 3723TIP3    H111175   5.986   1.908   2.254  0.1362  1.0138  0.6818
 3723TIP3    H211176   6.123   1.886   2.316  0.1977  0.8368  0.4836
 3724TIP3   OH211177   2.979   0.956   2.858  0.1571  0.1323  0.0683
 3724TIP3    H111178   2.937   1.033   2.819 -1.8383 -0.7670  0.3216
 3724TIP3    H211179   2.930   0.939   2.938  1.0374 -0.9682  0.4072
 3725TIP3   OH211180   1.641   0.111   4.336  0.1579  0.1814  0.1426
 3725TIP3    H111181   1.578   0.158   4.390  0.9823  0.5389  0.8238
 3725TIP3    H211182   1.620   0.018   4.348  0.1129  0.2742  0.8182
 3726TIP3   OH211183   1.560   1.465   4.197 -0.2245  0.4469 -0.4415
 3726TIP3    H111184   1.614   1.528   4.149 -0.5881  0.7510 -0.4593
 3726TIP3    H211185   1.501   1.429   4.130  1.4375 -1.6021 -0.9513
 3727TIP3   OH211186   0.332   0.105   1.030  0.0895 -0.1613  0.0081
 3727TIP3    H111187   0.296   0.193   1.040  0.2156 -0.0339 -0.6555
 3727TIP3    H211188   0.370   0.085   1.116  0.1581  0.4713  0.1273
 3728TIP3   OH211189   2.078   1.368   4.905 -0.1414 -0.1042 -0.1861
 3728TIP3    H111190   2.134   1.409   4.840  0.6610  0.1608  0.6607
 3728TIP3    H211191   1.992   1.365   4.863  0.8224 -2.1982 -2.2523
 3729TIP3   OH211192   5.089   2.958   1.894 -0.0450  0.1757 -0.2122
 3729TIP3    H111193   5.088   3.035   1.951 -0.5088  0.4699 -0.6093
 3729TIP3    H211194   5.031   2.981   1.822  0.8726 -0.0263 -1.0313
 3730TIP3   OH211195   0.323   2.062   0.343  0.4714 -0.0807 -0.0837
 3730TIP3    H111196   0.268   2.004   0.396  1.3777 -1.6437 -0.7960
 3730TIP3    H211197   0.333   2.140   0.396  0.6338 -1.2489  1.6835
 3731TIP3   OH211198   5.405   4.384   1.039  0.5497 -0.0876  0.8427
 3731TIP3    H111199   5.343   4.372   0.968 -0.1104  1.4610  1.1161
 3731TIP3    H211200   5.377   4.323   1.107  0.0170 -0.2050  0.5154
 3732TIP3   OH211201   1.283   5.018   3.290 -0.7190 -0.1166  0.3045
 3732TIP3    H111202   1.324   5.102   3.311 -1.1428  0.0675  0.3988
 3732TIP3    H211203   1.227   5.037   3.215 -1.0772 -0.2433  0.5403
 3733TIP3   OH211204   2.103   1.795   1.873  0.4681 -0.0169 -0.4534
 3733TIP3    H111205   2.127   1.776   1.964  1.4888 -0.5152 -0.8152
 3733TIP3    H211206   2.117   1.889   1.864 -2.5361  0.6517  0.7295
 3734TIP3   OH211207   0.596   4.132   1.234 -0.6881 -0.0612  0.2062
 3734TIP3    H111208   0.518   4.181   1.207 -1.0513 -0.1395  1.0764
 3734TIP3    H211209   0.669   4.176   1.191 -1.2650 -0.3598 -1.1256
 3735TIP3   OH211210   4.465   0.104   0.246 -0.0890 -0.4652 -0.2873
 3735TIP3    H111211   4.513   0.050   0.182 -0.2460 -1.1655  0.1779
 3735TIP3    H211212   4.512   0.091   0.328  0.0130  0.3058 -0.2165
 3736TIP3   OH211213   2.631   4.768   0.541  0.6524  0.1060 -0.3254
 3736TIP3    H111214   2.698   4.702   0.525 -0.8810 -0.9961 -2.8627
 3736TIP3    H211215   2.548   4.720   0.538 -0.3414  1.4222  2.7109
 3737TIP3   OH211216   2.101   4.595   3.989  0.2535  0.1569 -0.1055
 3737TIP3    H111217   2.106   4.682   4.028 -1.9738  0.3056 -0.0382
 3737TIP3    H211218   2.096   4.611   3.895 -1.8009  0.2485 -0.0212
 3738TIP3   OH211219   5.605   2.143   4.033 -0.6455  0.3149 -0.1250
 3738TIP3    H111220   5.568   2.142   4.121 -0.1541 -1.1140  0.0935
 3738TIP3    H211221   5.548   2.086   3.982  0.2630 -0.5549 -0.1948
 3739TIP3   OH211222   0.063   0.752   2.136  0.7090 -0.3431  0.0070
 3739TIP3    H111223   0.078   0.794   2.051 -2.5902  1.7496  0.2652
 3739TIP3    H211224   0.120   0.801   2.196  0.4909  0.5569 -0.4888
 3740TIP3   OH211225   0.353   4.619   2.624 -0.3170  0.4844  0.0634
 3740TIP3    H111226   0.370   4.673   2.702  0.0270  1.2834 -0.5524
 3740TIP3    H211227   0.274   4.570   2.647 -0.1088  0.5571  0.9956
 3741TIP3   OH211228   5.978   4.047   1.575  0.1239 -0.8409  0.0310
 3741TIP3    H111229   5.999   4.133   1.611  0.8885 -1.3408  0.8025
 3741TIP3    H211230   5.883   4.050   1.560  0.2950  0.4829 -0.9185
 3742TIP3   OH211231   5.666   4.406   2.651  0.0864 -0.3359 -0.1111
 3742TIP3    H111232   5.601   4.352   2.698 -1.0274  0.5922 -0.5361
 3742TIP3    H211233   5.656   4.380   2.559 -0.7584  0.8382 -0.3820
 3743TIP3   OH211234   5.473   3.442   0.413  0.2877 -0.5901 -0.2045
 3743TIP3    H111235   5.493   3.402   0.497 -1.6827  0.6585  0.9349
 3743TIP3    H211236   5.397   3.394   0.380  0.5162 -0.5092 -0.8804
 3744TIP3   OH211237   2.929   4.780   3.800  0.3616  0.3326  0.5245
 3744TIP3    H111238   2.925   4.687   3.824 -2.4802 -0.0132 -0.8933
 3744TIP3    H211239   3.016   4.791   3.763  1.1096 -1.5134  1.5781
 3745TIP3   OH211240   2.030   2.994   5.032 -0.4723  0.2730  0.5689
 3745TIP3    H111241   2.088   2.928   5.070 -1.4008  1.0403  3.5703
 3745TIP3    H211242   2.032   2.976   4.938  2.0387 -1.7595  0.8996
 3746TIP3   OH211243   0.731   0.706   1.873  0.2958 -0.1241  0.6943
 3746TIP3    H111244   0.772   0.626   1.839 -0.0776  0.6960 -1.9163
 3746TIP3    H211245   0.641   0.701   1.840  1.1554  2.9592 -2.6491
 3747TIP3   OH211246   5.354   4.931   3.751  0.2882 -0.2073  0.7256
 3747TIP3    H111247   5.259   4.928   3.761  0.2000 -3.2879 -0.0317
 3747TIP3    H211248   5.388   4.923   3.840 -0.0469  2.7708  1.2102
 3748TIP3   OH211249   1.250   5.926   4.831  0.0971  0.0325  0.2842
 3748TIP3    H111250   1.281   5.965   4.912 -0.2399 -0.4754  0.6663
 3748TIP3    H211251   1.300   5.844   4.822  0.0820  0.0498  0.0182
 3749TIP3   OH211252   4.581   4.640   3.622  0.7151 -0.4146  0.1436
 3749TIP3    H111253   4.506   4.697   3.641  0.7303 -0.5973  0.7997
 3749TIP3    H211254   4.644   4.660   3.692  1.9629  0.8876 -1.2904
 3750TIP3   OH211255   5.865   0.985  -0.036  0.1575  0.0330 -0.2061
 3750TIP3    H111256   5.932   0.958   0.027  1.1550  2.0212 -0.3326
 3750TIP3    H211257   5.790   1.010   0.019  0.0459 -0.7864  0.0250
 3751TIP3   OH211258   3.043   3.390   4.643 -0.3630 -0.3624 -0.5957
 3751TIP3    H111259   2.949   3.398   4.657 -0.6697 -0.1161 -2.5005
 3751TIP3    H211260   3.055   3.300   4.612  0.4933 -1.4313  2.5046
 3752TIP3   OH211261   5.890   3.237   4.617  0.4491  0.0395 -0.4928
 3752TIP3    H111262   5.858   3.321   4.585  0.3548 -0.0954 -0.7531
 3752TIP3    H211263   5.845   3.224   4.700  0.5008  0.2706 -0.4302
 3753TIP3   OH211264   3.156   1.732   2.616  0.2457  0.1068 -0.0717
 3753TIP3    H111265   3.119   1.751   2.530  0.9871  2.3576  0.0360
 3753TIP3    H211266   3.084   1.691   2.664 -0.4131 -0.5129 -1.4978
 3754TIP3   OH211267   2.069   4.232   3.887 -0.5020 -0.5410 -0.0849
 3754TIP3    H111268   2.101   4.268   3.969  1.8347 -1.3760 -0.5570
 3754TIP3    H211269   1.998   4.172   3.912 -3.5143  3.0190  0.8333
 3755TIP3   OH211270   4.623   0.356   1.430  0.4591 -0.3548  0.2084
 3755TIP3    H111271   4.618   0.398   1.516  1.0867 -0.1496  0.1489
 3755TIP3    H211272   4.668   0.272   1.446  1.5016  0.1285 -0.0633
 3756TIP3   OH211273   4.638   1.029   0.502  0.2380 -0.1468 -0.3537
 3756TIP3    H111274   4.712   1.057   0.555 -0.3826  1.2739 -0.2051
 3756TIP3    H211275   4.579   1.104   0.500 -0.2042 -0.4824 -2.2762
 3757TIP3   OH211276   3.481   3.678   1.550  0.1051 -0.3437  0.2236
 3757TIP3    H111277   3.523   3.662   1.634  2.2188 -0.6480 -0.8238
 3757TIP3    H211278   3.474   3.774   1.545 -0.3648 -0.3354  0.8680
 3758TIP3   OH211279   4.428   5.479   3.771  0.4483 -0.4481  0.2254
 3758TIP3    H111280   4.421   5.393   3.812 -0.6647 -1.3974 -1.8270
 3758TIP3    H211281   4.346   5.490   3.723  1.1071  1.2129 -0.6206
 3759TIP3   OH211282   4.552   4.758   0.253  1.1337 -0.5766  0.5644
 3759TIP3    H111283   4.637   4.791   0.281  1.6751 -1.5783  0.1604
 3759TIP3    H211284   4.492   4.784   0.323  2.2781 -2.2331  2.2891
 3760TIP3   OH211285   1.793   3.700   2.032  0.3292  0.3543  0.0619
 3760TIP3    H111286   1.791   3.649   1.950  1.1607  0.1415  0.1658
 3760TIP3    H211287   1.765   3.638   2.099 -0.0387  0.4388 -0.0096
 3761TIP3   OH211288   5.515   5.686   3.262  0.0272 -0.0334 -0.1676
 3761TIP3    H111289   5.522   5.664   3.169 -0.0049 -0.2067 -0.1290
 3761TIP3    H211290   5.593   5.740   3.279 -0.3167  0.5582 -0.4485
 3762TIP3   OH211291   2.634   0.464   0.568  0.5865  0.7910  0.1806
 3762TIP3    H111292   2.549   0.510   0.572  1.2433  2.1246 -0.3649
 3762TIP3    H211293   2.620   0.393   0.505  0.1311  1.6331 -0.6991
 3763TIP3   OH211294   1.664   1.356   1.216  0.1719  0.1969 -0.3945
 3763TIP3    H111295   1.759   1.360   1.209  0.1648 -1.0963 -2.1928
 3763TIP3    H211296   1.647   1.271   1.258 -0.1806  0.1285 -0.6692
 3764TIP3   OH211297   2.192   2.487   4.944 -0.3261  0.1600  0.0803
 3764TIP3    H111298   2.139   2.535   4.881  1.2468  1.3788 -0.3826
 3764TIP3    H211299   2.270   2.461   4.895  0.5519  0.4095  1.3189
 3765TIP3   OH211300   0.467   0.377   4.297  0.0588  0.3630  0.0756
 3765TIP3    H111301   0.494   0.429   4.220 -0.9276 -0.4142 -0.8297
 3765TIP3    H211302   0.548   0.341   4.332  0.4910  0.4087 -0.8552
 3766TIP3   OH211303   6.249   4.363   3.018  0.0675 -0.3274 -0.1615
 3766TIP3    H111304   6.258   4.395   2.928  0.0953 -0.7533 -0.3101
 3766TIP3    H211305   6.269   4.440   3.072  0.0173 -0.0609 -0.5173
 3767TIP3   OH211306   6.301   3.769   3.654  0.1776  0.0722  0.2678
 3767TIP3    H111307   6.224   3.816   3.622 -0.2419 -0.1711  0.8840
 3767TIP3    H211308   6.266   3.708   3.720  0.8973 -0.0381  0.5590
 3768TIP3   OH211309   2.622   5.858   2.308  0.1211  0.3745  0.1264
 3768TIP3    H111310   2.535   5.879   2.275  0.3213  3.0574  1.0404
 3768TIP3    H211311   2.608   5.840   2.401  0.4135 -0.3840  0.0314
 3769TIP3   OH211312   4.296   3.537   1.579  0.4358 -0.3401  0.5110
 3769TIP3    H111313   4.265   3.620   1.616  0.8390  0.5409 -1.0477
 3769TIP3    H211314   4.384   3.556   1.548 -0.2085 -0.7136 -1.7457
 3770TIP3   OH211315   4.034   3.253   3.796  0.1959  0.0086  0.5524
 3770TIP3    H111316   4.083   3.290   3.869 -0.0656  1.1568  0.1730
 3770TIP3    H211317   4.042   3.319   3.726 -0.4467 -0.5736 -0.0834
 3771TIP3   OH211318   1.452   5.403   1.461  0.5080 -0.1663 -0.0348
 3771TIP3    H111319   1.390   5.343   1.420 -0.0600  0.9879 -0.9353
 3771TIP3    H211320   1.538   5.377   1.426  0.0512  0.7094 -1.9386
 3772TIP3   OH211321   1.306   1.073   2.413  0.2451 -0.2985 -0.3019
 3772TIP3    H111322   1.317   0.983   2.441  0.2624  0.2862  1.6931
 3772TIP3    H211323   1.360   1.080   2.334  0.2730 -1.9943 -0.4697
 3773TIP3   OH211324   4.683   2.812   3.354 -0.6922 -0.2114  0.1157
 3773TIP3    H111325   4.761   2.865   3.341 -1.5615  0.8324 -1.1499
 3773TIP3    H211326   4.710   2.742   3.414  1.0082  0.5102  0.2257
 3774TIP3   OH211327   4.960   5.585   2.891 -0.3696  0.3244  0.3316
 3774TIP3    H111328   4.930   5.494   2.882 -1.0372 -0.0858  4.7347
 3774TIP3    H211329   4.902   5.635   2.833  0.1457 -1.9512 -2.3799
 3775TIP3   OH211330   3.228   4.449   0.136 -0.1464  0.8489  0.1149
 3775TIP3    H111331   3.154   4.504   0.110 -0.7704 -0.1784 -0.3419
 3775TIP3    H211332   3.305   4.496   0.105 -0.7635  0.4966 -2.1254
 3776TIP3   OH211333   4.447   4.095   2.610 -0.6296  0.0711 -0.2422
 3776TIP3    H111334   4.538   4.108   2.584 -0.5085  1.8699  0.9168
 3776TIP3    H211335   4.450   4.030   2.680  0.1015  1.8088  1.4360
 3777TIP3   OH211336   0.749   0.573   2.160  0.3156  0.0752  0.0584
 3777TIP3    H111337   0.711   0.582   2.073  0.8748  0.0859 -0.1828
 3777TIP3    H211338   0.749   0.479   2.177 -1.2037  0.1505  0.6804
 3778TIP3   OH211339   0.033   1.649   5.157 -0.6066  0.2791  0.7392
 3778TIP3    H111340   0.124   1.672   5.139 -1.3272  1.5157 -1.7883
 3778TIP3    H211341   0.025   1.558   5.130  0.1303 -0.2563  2.2052
 3779TIP3   OH211342   1.009   1.020   4.752 -0.6361 -0.0610  0.4361
 3779TIP3    H111343   1.066   1.011   4.828  0.0988 -3.4185 -0.3458
 3779TIP3    H211344   0.965   0.935   4.745 -2.8253  1.1138 -1.2781
 3780TIP3   OH211345   3.307   1.787   3.666 -0.7198 -0.2338  0.2535
 3780TIP3    H111346   3.227   1.735   3.661 -0.3359 -0.9294  1.0976
 3780TIP3    H211347   3.348   1.760   3.748  0.4181  0.0686 -0.1971
 3781TIP3   OH211348   2.155   2.583   2.266 -0.2089 -0.4198  0.2430
 3781TIP3    H111349   2.086   2.634   2.224 -0.1117  0.1429  0.7482
 3781TIP3    H211350   2.116   2.498   2.283 -0.0840 -0.8579 -1.4783
 3782TIP3   OH211351   4.092   3.157   1.207  0.2351  0.1777 -0.3153
 3782TIP3    H111352   4.155   3.088   1.187 -0.6888 -0.8036  0.0487
 3782TIP3    H211353   4.139   3.238   1.190  1.4101 -0.5344 -0.5838
 3783TIP3   OH211354   3.720   1.778   3.296 -0.8581 -0.0542 -0.3299
 3783TIP3    H111355   3.714   1.796   3.202 -0.9637  1.0165 -0.1258
 3783TIP3    H211356   3.723   1.682   3.301 -2.7795 -0.2376 -1.3381
 3784TIP3   OH211357   5.538   0.866   5.018 -0.2536 -0.0029  0.4515
 3784TIP3    H111358   5.512   0.880   5.109  0.5893 -3.1126  1.3026
 3784TIP3    H211359   5.615   0.922   5.005 -1.3418  1.7085  1.0603
 3785TIP3   OH211360   4.740   5.764   5.068  0.0197 -0.0399  0.4210
 3785TIP3    H111361   4.762   5.672   5.058 -1.9640 -0.5892  0.7668
 3785TIP3    H211362   4.720   5.794   4.980 -3.5437 -1.1523  0.6878
 3786TIP3   OH211363   3.694   4.857   0.057 -0.1433  0.3300  0.5304
 3786TIP3    H111364   3.685   4.952   0.052  0.5975  0.4023  0.4623
 3786TIP3    H211365   3.739   4.841   0.140  1.1139  0.1531 -0.1589
 3787TIP3   OH211366   4.559   3.345   0.199  0.6132 -0.0541 -0.8894
 3787TIP3    H111367   4.493   3.368   0.133  0.0141 -0.4016 -0.4275
 3787TIP3    H211368   4.632   3.309   0.149 -0.3074 -1.4262 -1.3095
 3788TIP3   OH211369   3.732   4.117   0.869  0.2742 -0.1540  0.0274
 3788TIP3    H111370   3.700   4.054   0.805  0.5757  0.3104 -0.5878
 3788TIP3    H211371   3.669   4.114   0.940  0.5051 -1.4629  0.2017
 3789TIP3   OH211372   5.304   0.752   4.251  0.3781 -0.3833 -0.2374
 3789TIP3    H111373   5.380   0.694   4.246 -0.1800 -1.0893 -0.7099
 3789TIP3    H211374   5.236   0.707   4.201 -0.3549  0.2390  0.1777
 3790TIP3   OH211375   3.609   5.386   5.157 -0.4216  0.1530  0.2859
 3790TIP3    H111376   3.620   5.322   5.087  0.1598 -1.2169  1.5750
 3790TIP3    H211377   3.520   5.421   5.145 -0.1934  0.2510 -1.3344
 3791TIP3   OH211378   1.878   0.230   2.884 -0.3483 -0.0059  0.0484
 3791TIP3    H111379   1.932   0.174   2.828 -0.5758 -1.1771  0.9570
 3791TIP3    H211380   1.939   0.297   2.916 -0.4087  1.2187 -2.2269
 3792TIP3   OH211381   5.015   2.024   3.009  0.1384 -0.6326  0.4613
 3792TIP3    H111382   4.936   2.029   3.063 -0.7744  0.9723 -0.9221
 3792TIP3    H211383   5.018   1.933   2.979 -1.8378 -0.4618 -0.3605
 3793TIP3   OH211384   5.372   1.523   3.913  0.1249 -0.5151 -0.5107
 3793TIP3    H111385   5.316   1.496   3.841 -0.1008 -0.8488 -0.2122
 3793TIP3    H211386   5.367   1.451   3.976  1.1893 -0.7298 -0.6512
 3794TIP3   OH211387   6.018   2.881   5.109 -0.1685  0.2910 -0.2564
 3794TIP3    H111388   5.935   2.836   5.123  0.0803  0.1055  0.6850
 3794TIP3    H211389   6.007   2.925   5.025 -0.7894 -0.6773 -0.7027
 3795TIP3   OH211390   5.984   1.378   2.444 -0.4895  0.6745 -0.3750
 3795TIP3    H111391   5.992   1.338   2.530 -0.3909  3.5557  1.0560
 3795TIP3    H211392   5.955   1.306   2.387 -3.1478 -0.8026  2.5255
 3796TIP3   OH211393   1.939   3.188   3.735 -0.0341 -0.0325 -0.3666
 3796TIP3    H111394   1.979   3.237   3.664 -0.7023  2.9004  1.1191
 3796TIP3    H211395   1.848   3.216   3.736 -0.0431  0.0023  1.6158
 3797TIP3   OH211396   1.685   0.108   0.924  0.7253 -0.1167 -0.4050
 3797TIP3    H111397   1.658   0.177   0.863  0.4246 -1.5540 -1.9851
 3797TIP3    H211398   1.768   0.139   0.960  0.8874  0.8169 -1.5184
 3798TIP3   OH211399   3.646   4.156   1.166  0.2584 -0.5587  0.5999
 3798TIP3    H111400   3.552   4.168   1.180 -0.0089  0.1833 -1.5029
 3798TIP3    H211401   3.686   4.233   1.206  0.1003 -1.2425  2.1828
 3799TIP3   OH211402   1.292   2.679   2.962 -0.4629  0.3203  0.2595
 3799TIP3    H111403   1.209   2.658   3.005 -0.0729 -0.8975  0.4716
 3799TIP3    H211404   1.345   2.600   2.973 -0.0758  0.2232 -1.8358
 3800TIP3   OH211405   0.264   3.100   3.935 -0.2377 -0.5261  0.6778
 3800TIP3    H111406   0.350   3.063   3.954 -0.2406 -2.0220 -1.8321
 3800TIP3    H211407   0.281   3.193   3.917  0.7535 -0.6649  0.8845
 3801TIP3   OH211408   4.281   2.131   4.103 -0.0747  0.3742 -0.5891
 3801TIP3    H111409   4.277   2.038   4.125 -0.6991  0.2171 -1.3288
 3801TIP3    H211410   4.373   2.154   4.111  0.0597 -0.2724 -0.2450
 3802TIP3   OH211411   0.416   3.827   3.208 -0.4971  0.0966 -0.3625
 3802TIP3    H111412   0.484   3.828   3.141  1.0099  0.8469  1.1212
 3802TIP3    H211413   0.338   3.795   3.162  0.8912 -1.0528 -2.0446
 3803TIP3   OH211414   4.429   2.015   4.860 -0.0371  0.3151  0.4563
 3803TIP3    H111415   4.354   2.017   4.919 -0.5670  0.3033 -0.2072
 3803TIP3    H211416   4.504   2.030   4.917 -0.1211 -3.1974  1.7692
 3804TIP3   OH211417   5.396   5.898   4.514  0.3535 -0.2688 -0.2337
 3804TIP3    H111418   5.412   5.970   4.575  0.4266  0.3793 -1.0095
 3804TIP3    H211419   5.436   5.822   4.557  1.5489  0.4297 -0.0555
 3805TIP3   OH211420   6.187   3.431   0.293  0.2059  0.5324 -0.2950
 3805TIP3    H111421   6.234   3.388   0.365  1.0361  1.0616 -0.5158
 3805TIP3    H211422   6.166   3.518   0.327 -0.9493  0.1865 -0.0681
 3806TIP3   OH211423   6.189   0.677   5.082 -0.3743 -0.0480 -0.0037
 3806TIP3    H111424   6.215   0.769   5.079 -0.0582 -0.1510 -2.1157
 3806TIP3    H211425   6.102   0.675   5.044 -1.3704 -0.3817  2.1596
 3807TIP3   OH211426   4.711   4.010   0.638  0.5220  0.2559  0.4555
 3807TIP3    H111427   4.722   4.047   0.551 -0.7623  1.6346  0.8326
 3807TIP3    H211428   4.632   3.955   0.630  1.0045 -0.4664  0.5143
 3808TIP3   OH211429   3.055   2.240   2.407  0.0972 -0.5003 -0.1585
 3808TIP3    H111430   3.082   2.256   2.317  0.1801  0.4966  0.0272
 3808TIP3    H211431   3.036   2.147   2.411  2.2702 -1.0079 -0.6339
 3809TIP3   OH211432   5.440   2.351   3.409 -0.3044 -0.1303  0.2168
 3809TIP3    H111433   5.494   2.324   3.335  0.9661  0.4009  0.9105
 3809TIP3    H211434   5.377   2.413   3.373 -0.2704 -0.5345 -0.5570
 3810TIP3   OH211435   0.032   5.465   3.343 -0.0828  0.7828 -0.1715
 3810TIP3    H111436  -0.036   5.492   3.405  1.3061  2.7084  0.5933
 3810TIP3    H211437   0.046   5.541   3.287  0.9209  0.1670 -0.7931
 3811TIP3   OH211438   3.213   2.152   4.676 -0.0008  0.3908  0.0105
 3811TIP3    H111439   3.184   2.198   4.755  1.0046 -0.7038  1.0707
 3811TIP3    H211440   3.308   2.140   4.689  0.4049  1.2019 -1.9187
 3812TIP3   OH211441   0.130   1.410   1.020 -0.5924 -0.2341  0.5577
 3812TIP3    H111442   0.094   1.485   1.067 -0.4193 -0.3219  0.8368
 3812TIP3    H211443   0.132   1.437   0.928 -1.8129 -0.4109  0.4612
 3813TIP3   OH211444   0.130   3.978   3.662  0.3844  0.5161  0.0534
 3813TIP3    H111445   0.193   3.942   3.599 -1.6258  0.9225 -2.3280
 3813TIP3    H211446   0.066   3.908   3.675  0.7444  0.4510  1.6922
 3814TIP3   OH211447   3.337   0.571   1.827 -0.8841  0.0549  0.0515
 3814TIP3    H111448   3.275   0.549   1.757  1.6723 -0.5361 -2.2003
 3814TIP3    H211449   3.374   0.487   1.854 -0.0563  0.4927  0.3181
 3815TIP3   OH211450   2.873   4.287   3.587 -0.3069 -0.0853 -0.0314
 3815TIP3    H111451   2.823   4.295   3.669 -0.1920  1.5215 -0.0843
 3815TIP3    H211452   2.810   4.310   3.518  0.5884  2.7870 -0.0439
 3816TIP3   OH211453   2.579   0.402   4.182  0.0019 -0.3383 -0.8266
 3816TIP3    H111454   2.503   0.429   4.130  1.0834  1.3737 -1.6269
 3816TIP3    H211455   2.609   0.321   4.141 -0.4923 -0.2122 -1.4462
 3817TIP3   OH211456   3.049   0.508   2.033 -0.1666  0.3682  0.3845
 3817TIP3    H111457   3.015   0.590   1.997 -1.5446  0.1716  1.1625
 3817TIP3    H211458   3.022   0.441   1.970  0.8879  0.4770 -0.2087
 3818TIP3   OH211459   0.796   2.513   1.846 -0.5965 -0.1930 -0.3644
 3818TIP3    H111460   0.762   2.425   1.829  0.5015 -0.3918 -1.7142
 3818TIP3    H211461   0.815   2.514   1.940  0.6678 -1.8967 -0.5588
 3819TIP3   OH211462   0.406   1.505   3.152  0.2994 -0.4321  0.3824
 3819TIP3    H111463   0.313   1.503   3.174 -0.4450 -1.0180 -2.3943
 3819TIP3    H211464   0.419   1.592   3.114  0.1351 -1.3024 -1.8032
 3820TIP3   OH211465   1.451   1.888   0.643 -0.4534 -0.6754  0.0114
 3820TIP3    H111466   1.435   1.883   0.738 -3.7348 -1.4643 -0.4338
 3820TIP3    H211467   1.444   1.797   0.613 -2.4012 -0.1703 -1.2654
 3821TIP3   OH211468   6.208   5.007   3.158  0.6852 -0.1503 -0.3430
 3821TIP3    H111469   6.194   5.018   3.253 -0.5174 -0.2016 -0.4971
 3821TIP3    H211470   6.269   5.077   3.135  0.8641 -0.0333  0.4407
 3822TIP3   OH211471   3.262   0.998   1.883 -0.0991 -0.0523 -0.3323
 3822TIP3    H111472   3.222   1.084   1.896  0.5373  0.0075  1.5151
 3822TIP3    H211473   3.202   0.937   1.927  1.1906 -0.0916  1.4869
 3823TIP3   OH211474   5.536   1.340   2.408  0.0081  0.2807 -0.4940
 3823TIP3    H111475   5.603   1.277   2.436  0.2075  0.0020 -1.5724
 3823TIP3    H211476   5.584   1.421   2.393 -0.3330  0.9126  1.4817
 3824TIP3   OH211477   2.417   0.216   0.274  0.0038 -0.1028 -0.2028
 3824TIP3    H111478   2.446   0.182   0.190  2.2069 -0.4366  0.6193
 3824TIP3    H211479   2.354   0.285   0.253  1.9860  1.2184 -2.2193
 3825TIP3   OH211480   0.199   1.889   1.174 -0.2358 -0.6916 -0.1657
 3825TIP3    H111481   0.246   1.813   1.139  0.7850 -0.7998  1.3093
 3825TIP3    H211482   0.147   1.854   1.246 -1.8292 -0.3891 -1.1244
 3826TIP3   OH211483   3.469   0.408   5.054 -0.2770  0.2725 -0.5999
 3826TIP3    H111484   3.547   0.353   5.043 -0.1172  0.1198  1.0668
 3826TIP3    H211485   3.490   0.489   5.008 -0.4332 -0.9205 -2.9318
 3827TIP3   OH211486   2.402   4.839   2.476  0.4112  0.4307  0.3056
 3827TIP3    H111487   2.471   4.904   2.467  1.3756 -0.6519 -0.4644
 3827TIP3    H211488   2.321   4.889   2.469  1.1149  1.3730 -1.8889
 3828TIP3   OH211489   4.322   0.205   0.480  0.1279 -0.2289  0.8391
 3828TIP3    H111490   4.399   0.204   0.424  0.6815 -0.9424  1.5982
 3828TIP3    H211491   4.332   0.284   0.534 -1.2903  1.4911 -1.1970
 3829TIP3   OH211492   2.901   0.246   0.323 -0.4877 -0.5268 -0.3373
 3829TIP3    H111493   2.982   0.293   0.345 -0.6395 -0.8887  1.1262
 3829TIP3    H211494   2.859   0.299   0.256 -0.9006  1.7580  1.5896
 3830TIP3   OH211495   2.264   3.704   1.801  0.1436  0.4627 -0.6041
 3830TIP3    H111496   2.224   3.689   1.886  0.8869  0.5114 -0.2356
 3830TIP3    H211497   2.219   3.644   1.742  0.1075 -0.0861 -0.0296
 3831TIP3   OH211498   5.248   3.459   1.242  0.9288  0.0213 -0.0597
 3831TIP3    H111499   5.305   3.490   1.172  0.1037 -2.2313 -1.8816
 3831TIP3    H211500   5.304   3.404   1.296  0.8806 -0.9221 -0.9348
 3832TIP3   OH211501   1.938   1.337   1.209  0.3105  0.0631 -0.3198
 3832TIP3    H111502   1.989   1.391   1.149 -0.0487 -1.1377 -1.7538
 3832TIP3    H211503   1.998   1.268   1.237  0.4109  0.4875  0.5618
 3833TIP3   OH211504   3.496   0.121   0.477  0.3471 -0.0832 -0.7150
 3833TIP3    H111505   3.434   0.106   0.406 -0.6562 -0.8167  0.2895
 3833TIP3    H211506   3.503   0.216   0.484 -1.2067  0.0284 -0.4015
 3834TIP3   OH211507   4.547   0.744   5.157 -0.3476  0.0120 -0.4456
 3834TIP3    H111508   4.619   0.739   5.095 -0.6334 -3.8012 -0.6965
 3834TIP3    H211509   4.585   0.717   5.241 -1.1410 -0.7289 -0.2999
 3835TIP3   OH211510   1.953   5.193   4.397 -0.0425  0.7710  0.2603
 3835TIP3    H111511   1.939   5.121   4.459 -0.4763 -1.0430 -1.8086
 3835TIP3    H211512   2.046   5.215   4.406 -0.2156  0.9346  1.8929
 3836TIP3   OH211513   3.229   5.847   1.074 -0.3692 -0.5521  0.0829
 3836TIP3    H111514   3.178   5.838   0.994  0.1709 -0.7591 -0.2431
 3836TIP3    H211515   3.319   5.863   1.044 -0.4584  1.2702  0.6444
 3837TIP3   OH211516   5.332   0.209   2.452  0.4761  0.2922 -0.2818
 3837TIP3    H111517   5.289   0.141   2.504 -0.0862 -0.0314 -1.1390
 3837TIP3    H211518   5.260   0.253   2.406  0.8363  1.4399  0.2141
 3838TIP3   OH211519   6.060   0.832   0.074  0.0447  0.9075  0.7011
 3838TIP3    H111520   6.129   0.873   0.022 -0.7654  1.1633 -0.1961
 3838TIP3    H211521   6.095   0.831   0.163  2.0666 -0.8857 -0.0264
 3839TIP3   OH211522   0.444   4.786   1.362  0.4457  0.2343  0.6250
 3839TIP3    H111523   0.456   4.714   1.300  2.0377 -0.1291  1.3115
 3839TIP3    H211524   0.358   4.822   1.339  2.2917  2.4263 -4.1771
 3840TIP3   OH211525   2.565   3.339   1.440  0.0694 -0.0623 -0.2241
 3840TIP3    H111526   2.510   3.297   1.373  0.2507 -0.8739  0.1281
 3840TIP3    H211527   2.540   3.431   1.436 -0.3380 -0.1932 -1.0152
 3841TIP3   OH211528   4.977   4.956   1.340  0.2635 -0.0308 -0.5862
 3841TIP3    H111529   4.896   4.932   1.385  0.3544  1.9129  0.7550
 3841TIP3    H211530   4.958   5.039   1.298  0.9963 -0.5374 -1.9850
 3842TIP3   OH211531   0.308   2.785   1.012 -0.4723 -0.6721 -0.4793
 3842TIP3    H111532   0.240   2.848   1.033 -0.1449  0.2039 -1.9159
 3842TIP3    H211533   0.377   2.802   1.076 -1.5380 -1.5605  0.9824
 3843TIP3   OH211534   6.075   0.519   0.822 -0.2024  0.8607 -0.0336
 3843TIP3    H111535   5.996   0.547   0.777 -1.7538 -0.6821  1.6047
 3843TIP3    H211536   6.079   0.424   0.809  2.0980  1.0236 -1.1031
 3844TIP3   OH211537   2.310   3.461   0.195 -0.2888  0.2225  0.1600
 3844TIP3    H111538   2.287   3.373   0.165 -0.1588  0.5786 -1.0137
 3844TIP3    H211539   2.287   3.519   0.122 -3.1247  1.5570  1.9272
 3845TIP3   OH211540   2.248   3.738   4.970  0.2768 -0.1606  1.1920
 3845TIP3    H111541   2.201   3.735   4.887  1.6244 -0.7350  0.4155
 3845TIP3    H211542   2.309   3.664   4.966  3.2596  2.1188  0.8949
 3846TIP3   OH211543   5.106   1.364   2.833  0.2965 -0.3954 -0.1724
 3846TIP3    H111544   5.020   1.325   2.847 -0.6044  1.5655  0.0801
 3846TIP3    H211545   5.088   1.448   2.793  2.2254 -0.6359 -1.6866
 3847TIP3   OH211546   4.014   4.045   1.647 -0.5280 -0.2437 -0.1362
 3847TIP3    H111547   4.005   3.954   1.676 -0.6257 -0.5528 -1.1099
 3847TIP3    H211548   3.961   4.050   1.568 -0.5549  0.6805 -0.0698
 3848TIP3   OH211549   0.046   5.058   0.877  0.2481  0.1967 -0.2040
 3848TIP3    H111550   0.032   5.150   0.853  0.2136  0.0099 -0.9199
 3848TIP3    H211551  -0.039   5.016   0.864  0.2869  0.0467  0.0340
 3849TIP3   OH211552   3.880   1.105   3.894 -0.3678 -0.2144  0.0338
 3849TIP3    H111553   3.907   1.192   3.924  0.1520 -0.7837  1.2349
 3849TIP3    H211554   3.908   1.045   3.963 -1.9341 -1.1946 -0.1394
 3850TIP3   OH211555   6.205   0.225   4.454  0.8562  0.5117  0.3401
 3850TIP3    H111556   6.211   0.148   4.398  0.4923  0.1889  0.7398
 3850TIP3    H211557   6.112   0.245   4.458  0.9772  1.1955 -0.0528
 3851TIP3   OH211558   3.807   0.482   1.745  0.3344 -0.5042 -0.1303
 3851TIP3    H111559   3.890   0.513   1.707  0.0024 -0.0785 -0.5333
 3851TIP3    H211560   3.782   0.551   1.806 -0.3973  0.0479 -1.0112
 3852TIP3   OH211561   3.445   3.948   3.718 -0.5111 -0.1886 -0.1038
 3852TIP3    H111562   3.526   3.943   3.668 -1.4341 -1.7571 -1.5653
 3852TIP3    H211563   3.427   4.041   3.727  0.8031  0.1518 -0.8425
 3853TIP3   OH211564   2.366   2.908   3.953 -0.5443 -0.5778  0.2852
 3853TIP3    H111565   2.331   2.990   3.989 -1.7229 -1.6647  1.7462
 3853TIP3    H211566   2.435   2.882   4.013 -1.8662 -1.9051  1.3026
 3854TIP3   OH211567   2.185   0.370   0.429 -0.1303 -0.0159  0.6615
 3854TIP3    H111568   2.212   0.407   0.344  1.0087 -1.8844  0.1514
 3854TIP3    H211569   2.121   0.432   0.463  1.6356  2.4172 -0.1295
 3855TIP3   OH211570   2.856   3.231   4.302 -0.6065  0.3818 -0.4693
 3855TIP3    H111571   2.781   3.226   4.242 -0.5291 -1.2748 -0.4778
 3855TIP3    H211572   2.902   3.311   4.275 -2.5508  1.6704 -0.1946
 3856TIP3   OH211573   4.713   0.674   2.735  0.0993 -0.0175  0.1188
 3856TIP3    H111574   4.655   0.749   2.747  0.2111  0.0946 -0.0507
 3856TIP3    H211575   4.654   0.599   2.730 -0.0624  0.1496 -0.5460
 3857TIP3   OH211576   4.886   1.795   3.806 -0.3690 -0.4164 -0.4344
 3857TIP3    H111577   4.877   1.778   3.712 -0.7119 -0.0916 -0.4628
 3857TIP3    H211578   4.933   1.719   3.839 -0.2367 -0.5321 -0.8710
 3858TIP3   OH211579   4.574   1.732   5.032 -0.8442  0.1201  0.0398
 3858TIP3    H111580   4.645   1.757   4.973 -2.8141 -0.1859 -2.6653
 3858TIP3    H211581   4.611   1.661   5.084  1.0954  0.5732 -0.6222
 3859TIP3   OH211582   3.849   4.720   1.517 -0.4142 -0.1998 -0.1389
 3859TIP3    H111583   3.775   4.661   1.501 -1.1468 -0.0477  2.3307
 3859TIP3    H211584   3.918   4.663   1.551 -0.4373  0.0704  0.3694
 3860TIP3   OH211585   3.788   2.697   3.681  0.0129  0.1299  0.4916
 3860TIP3    H111586   3.827   2.613   3.657  0.0260  0.3816 -0.3735
 3860TIP3    H211587   3.693   2.681   3.677 -0.0170 -0.3924  2.2878
 3861TIP3   OH211588   0.190   0.582   5.109 -0.2730 -0.3191  0.0585
 3861TIP3    H111589   0.145   0.579   5.025  0.9284  1.1550 -0.6957
 3861TIP3    H211590   0.279   0.611   5.088  0.2643 -0.5764  1.7680
 3862TIP3   OH211591   0.932   3.705   0.049  0.0861 -0.4032  0.7892
 3862TIP3    H111592   0.998   3.641   0.075 -0.8966 -1.6759  0.2566
 3862TIP3    H211593   0.877   3.659  -0.015 -0.5960  1.0061  0.3117
 3863TIP3   OH211594   3.829   0.165   2.067 -0.8857  0.2924  0.1605
 3863TIP3    H111595   3.789   0.078   2.065 -0.4294  0.0956 -0.4753
 3863TIP3    H211596   3.772   0.216   2.125 -0.0375 -0.9713  2.1881
 3864TIP3   OH211597   2.887   2.123   3.259  0.1058 -0.5012  0.5281
 3864TIP3    H111598   2.956   2.180   3.226 -0.6367  0.7496  1.0572
 3864TIP3    H211599   2.932   2.058   3.314  0.9091 -0.0949  0.3569
 3865TIP3   OH211600   0.203   3.654   2.072  0.1605 -0.1098 -0.3939
 3865TIP3    H111601   0.233   3.724   2.129 -0.0856  0.2954 -0.7487
 3865TIP3    H211602   0.207   3.692   1.984 -0.1084 -0.4950 -0.5753
 3866TIP3   OH211603   2.370   2.710   4.859 -0.6288 -0.0152  0.0680
 3866TIP3    H111604   2.332   2.660   4.787  0.1311 -0.5191  0.0097
 3866TIP3    H211605   2.463   2.715   4.839 -0.6461  1.2487  0.1903
 3867TIP3   OH211606   1.227   4.137   4.866 -0.3521  0.2015  0.3707
 3867TIP3    H111607   1.285   4.062   4.880 -1.5923 -0.6188  1.4167
 3867TIP3    H211608   1.212   4.139   4.771 -0.6826 -1.2089  0.3639
 3868TIP3   OH211609   4.082   5.604   2.196 -0.0603  0.2610  0.6672
 3868TIP3    H111610   4.127   5.534   2.149 -0.6483  0.0589  0.3959
 3868TIP3    H211611   4.008   5.560   2.239  0.7520  0.3343  2.2361
 3869TIP3   OH211612   5.908   0.850   1.566 -0.1107 -0.4853  0.1744
 3869TIP3    H111613   5.981   0.798   1.601 -0.5698 -1.6483 -0.5230
 3869TIP3    H211614   5.853   0.868   1.643  1.0754  0.7382  0.7732
 3870TIP3   OH211615   1.951   3.343   4.352  0.7249 -0.4806 -0.3383
 3870TIP3    H111616   1.933   3.249   4.352  1.0673 -0.6074  1.8129
 3870TIP3    H211617   1.888   3.379   4.414  2.0034  0.3671  0.5172
 3871TIP3   OH211618   2.374   5.163   5.000  0.7086  0.0899  0.3005
 3871TIP3    H111619   2.419   5.185   5.082 -0.1378  0.5733  0.6482
 3871TIP3    H211620   2.282   5.163   5.023  0.3920  1.2053 -0.8823
 3872TIP3   OH211621   3.408   2.910   1.444 -0.1588  0.1409 -0.2871
 3872TIP3    H111622   3.415   2.893   1.538  1.3408  0.8976 -0.2291
 3872TIP3    H211623   3.414   3.005   1.436  0.1035  0.0640 -1.1691
 3873TIP3   OH211624   0.624   1.415   2.288  0.5313  0.2054 -0.4588
 3873TIP3    H111625   0.545   1.390   2.239 -1.2800  1.5084  1.6038
 3873TIP3    H211626   0.678   1.337   2.289 -1.3035 -1.1274 -0.9197
 3874TIP3   OH211627   0.373   2.169   0.064 -0.0321 -0.1171 -0.0384
 3874TIP3    H111628   0.460   2.155   0.026 -0.9026 -1.3811 -1.7440
 3874TIP3    H211629   0.375   2.122   0.147  1.3062  1.0411  0.6447
 3875TIP3   OH211630   3.884   0.486   4.440  0.0254  0.5501 -0.2824
 3875TIP3    H111631   3.977   0.467   4.430  0.1019  1.7237 -2.5189
 3875TIP3    H211632   3.855   0.508   4.351 -1.5206  3.9389  0.9130
 3876TIP3   OH211633   3.264   5.087   4.459 -0.0596  0.0596 -0.7933
 3876TIP3    H111634   3.223   5.108   4.543  1.1102  0.9513 -0.4258
 3876TIP3    H211635   3.329   5.156   4.446  0.7025 -0.8163 -1.7899
 3877TIP3   OH211636   5.804   1.363   1.176  0.9428  0.2510 -0.3463
 3877TIP3    H111637   5.717   1.327   1.164  0.0100  1.3146  2.3398
 3877TIP3    H211638   5.863   1.294   1.146 -0.8124 -1.3240 -0.3512
 3878TIP3   OH211639   3.464   1.590   3.518  0.3428 -0.0527  0.2854
 3878TIP3    H111640   3.393   1.620   3.461  0.8563  1.6150  0.4603
 3878TIP3    H211641   3.491   1.668   3.566  3.8408 -0.0085 -1.4246
 3879TIP3   OH211642   0.425   5.167   4.864 -0.1681 -0.4886  0.4724
 3879TIP3    H111643   0.475   5.246   4.886 -0.7907  0.1331 -0.2973
 3879TIP3    H211644   0.344   5.199   4.826 -2.3122 -1.3983  3.8123
 3880TIP3   OH211645   5.983   4.876   0.685 -0.0217  0.0648 -0.5829
 3880TIP3    H111646   5.918   4.825   0.733  1.3503 -1.4502 -0.2257
 3880TIP3    H211647   5.933   4.922   0.617 -1.3328 -1.8037 -0.9493
 3881TIP3   OH211648   2.548   4.880   1.798 -0.4406  0.1290 -0.1614
 3881TIP3    H111649   2.561   4.816   1.728  3.6969  0.6945 -0.1321
 3881TIP3    H211650   2.538   4.827   1.877 -1.6348 -0.4632 -0.6821
 3882TIP3   OH211651   4.817   3.301   1.312  0.0862  0.0049 -0.1330
 3882TIP3    H111652   4.730   3.341   1.307  0.2461  0.2762 -0.9296
 3882TIP3    H211653   4.852   3.308   1.223 -0.0681 -2.3971 -0.4285
 3883TIP3   OH211654   2.612   2.110   3.378 -0.2861  0.4823  0.1053
 3883TIP3    H111655   2.694   2.144   3.342  0.0161  1.1709  1.3884
 3883TIP3    H211656   2.639   2.047   3.445 -0.8178 -3.0815 -2.7563
 3884TIP3   OH211657   4.142   2.175   0.559  0.1808 -0.0505 -0.3281
 3884TIP3    H111658   4.216   2.189   0.618 -0.6615 -1.1219  1.0546
 3884TIP3    H211659   4.089   2.254   0.569  1.3495  0.9780 -1.7496
 3885TIP3   OH211660   6.057   2.069   4.725 -0.2524 -0.0812  0.7100
 3885TIP3    H111661   6.142   2.085   4.767 -0.0085 -0.1287  0.2372
 3885TIP3    H211662   6.078   2.058   4.632 -0.8864  0.9557  0.4322
 3886TIP3   OH211663   2.717   2.644   1.665  0.0133  0.0313  0.2114
 3886TIP3    H111664   2.704   2.725   1.615  2.1793 -0.4025 -1.1470
 3886TIP3    H211665   2.634   2.597   1.656 -0.1389  0.6058 -1.8362
 3887TIP3   OH211666   3.499   1.016   0.225 -0.3425  0.3157 -1.1652
 3887TIP3    H111667   3.415   1.056   0.249 -0.0552  0.2268  0.1083
 3887TIP3    H211668   3.475   0.940   0.171 -1.0440  0.6222 -1.2992
 3888TIP3   OH211669   2.368   3.708   2.842 -0.5527 -0.2394  0.4220
 3888TIP3    H111670   2.294   3.648   2.848  0.0126 -1.0287 -0.2334
 3888TIP3    H211671   2.401   3.696   2.753  0.1435  0.3625  0.5895
 3889TIP3   OH211672   0.012   1.564   2.299  0.1225  0.5339  0.6802
 3889TIP3    H111673   0.094   1.611   2.289 -0.0109  0.8492  1.0688
 3889TIP3    H211674  -0.024   1.593   2.382 -0.5960  0.7306  0.3145
 3890TIP3   OH211675   2.485   2.611   2.638 -0.0168 -0.2885 -0.4068
 3890TIP3    H111676   2.400   2.576   2.666  0.6551 -2.7884 -1.2087
 3890TIP3    H211677   2.463   2.672   2.567 -1.2285  0.7266  0.7698
 3891TIP3   OH211678   4.570   1.396   4.947  0.4439  0.0264  0.4390
 3891TIP3    H111679   4.528   1.333   5.006 -1.0097 -0.3019 -0.8959
 3891TIP3    H211680   4.603   1.343   4.875 -0.6191  0.7511 -0.6042
 3892TIP3   OH211681   4.044   3.173   4.201  0.1443 -0.1814  0.4184
 3892TIP3    H111682   4.020   3.220   4.281  0.1278  0.3320  0.1158
 3892TIP3    H211683   3.967   3.178   4.145 -0.4273 -1.9148  0.9733
 3893TIP3   OH211684   5.822   1.621   1.035 -0.1130  0.4897  0.3279
 3893TIP3    H111685   5.798   1.549   1.094 -0.4270  0.1881 -0.1596
 3893TIP3    H211686   5.762   1.692   1.056  0.6867  0.8891  1.3319
 3894TIP3   OH211687   2.569   5.071   2.474  0.1292 -0.3929  0.1519
 3894TIP3    H111688   2.642   5.023   2.435  0.1384 -0.4339  0.2197
 3894TIP3    H211689   2.572   5.157   2.433  0.8709 -0.0387  0.9330
 3895TIP3   OH211690   3.721   3.996   3.668 -0.2886  0.1872 -0.3615
 3895TIP3    H111691   3.774   4.005   3.588  0.1394  1.8633  0.0664
 3895TIP3    H211692   3.780   3.955   3.731 -0.6251 -1.1369 -0.8659
 3896TIP3   OH211693   0.611   5.904   4.282  0.0462 -0.0144 -0.7564
 3896TIP3    H111694   0.638   5.869   4.196 -1.5090  1.3440 -1.8574
 3896TIP3    H211695   0.553   5.837   4.317 -0.2091 -0.0854 -1.2974
 3897TIP3   OH211696   2.180   0.952   1.427 -0.7553  0.1675  0.4159
 3897TIP3    H111697   2.244   1.016   1.398 -1.4995  1.3273  1.2754
 3897TIP3    H211698   2.099   0.978   1.384 -0.7279 -1.2133 -0.5658
 3898TIP3   OH211699   3.797   5.128   2.759  0.4943 -0.2727  0.8676
 3898TIP3    H111700   3.741   5.078   2.819  1.5060 -0.4614  1.6738
 3898TIP3    H211701   3.846   5.188   2.815  0.9351  0.0601  0.1479
 3899TIP3   OH211702   2.606   0.841   3.634  0.3501  0.6017  0.3486
 3899TIP3    H111703   2.558   0.763   3.662 -2.1022  1.6081 -0.7405
 3899TIP3    H211704   2.693   0.809   3.611  0.1868 -1.3699  2.2035
 3900TIP3   OH211705   5.071   0.280   4.063  0.0196 -0.4784  0.4733
 3900TIP3    H111706   5.003   0.231   4.110 -0.2380 -0.7798 -0.1985
 3900TIP3    H211707   5.084   0.359   4.115 -2.7161  0.8880 -0.6716
 3901TIP3   OH211708   1.239   2.775   4.271 -0.4179  0.2237  0.0586
 3901TIP3    H111709   1.177   2.846   4.285 -0.4943  0.4018 -1.0539
 3901TIP3    H211710   1.322   2.808   4.305 -0.3399  1.0599 -0.8966
 3902TIP3   OH211711   3.631   4.041   2.469 -0.0420  0.2265 -0.4292
 3902TIP3    H111712   3.717   4.004   2.450  0.0566  1.0852 -1.7691
 3902TIP3    H211713   3.592   4.059   2.384 -1.5448 -0.0778  0.1403
 3903TIP3   OH211714   3.156   1.137   4.921 -0.3037 -0.2681  0.1674
 3903TIP3    H111715   3.110   1.095   4.994  1.0166 -0.2999  1.0330
 3903TIP3    H211716   3.216   1.070   4.889 -0.1206  0.0846 -0.2345
 3904TIP3   OH211717   4.413   0.528   1.063  0.1306 -0.4617 -0.5304
 3904TIP3    H111718   4.431   0.564   1.149 -0.2726  1.8978 -1.3555
 3904TIP3    H211719   4.500   0.510   1.026  0.4903  1.4365 -0.7353
 3905TIP3   OH211720   0.919   2.334   0.183 -0.3451 -0.1347 -0.0295
 3905TIP3    H111721   0.924   2.249   0.227 -3.2463  1.0905  3.0489
 3905TIP3    H211722   0.969   2.393   0.239 -1.4535  0.8746 -0.0686
 3906TIP3   OH211723   5.615   0.419   4.762 -0.1529 -0.3532 -0.3171
 3906TIP3    H111724   5.598   0.488   4.826  2.5957 -1.2836  1.5687
 3906TIP3    H211725   5.528   0.396   4.728 -1.3743  2.3628  0.6944
 3907TIP3   OH211726   6.262   3.746   5.178 -0.2234 -0.0239 -0.5431
 3907TIP3    H111727   6.196   3.701   5.126  1.6505 -1.9234 -1.4568
 3907TIP3    H211728   6.338   3.751   5.120  1.0858  0.2059  1.1215
 3908TIP3   OH211729   0.782   0.365   0.962  0.3301 -0.2754 -0.2002
 3908TIP3    H111730   0.693   0.342   0.936  0.1627  0.2891 -0.1481
 3908TIP3    H211731   0.779   0.460   0.975  0.8167 -0.3218  0.2813
 3909TIP3   OH211732   1.972   1.350   3.803 -0.7423 -0.3504  0.3452
 3909TIP3    H111733   1.955   1.344   3.897  0.5052 -0.3997  0.5850
 3909TIP3    H211734   2.032   1.424   3.794 -1.1520 -0.1102 -0.4611
 3910TIP3   OH211735   4.269   3.919   4.170 -0.2862 -0.2665 -0.0518
 3910TIP3    H111736   4.281   3.862   4.246 -3.0024 -1.3485 -0.2999
 3910TIP3    H211737   4.248   4.004   4.207  0.9944 -0.0959  0.3425
 3911TIP3   OH211738   4.637   4.595   1.047 -0.3513  1.0959 -0.0203
 3911TIP3    H111739   4.608   4.687   1.047 -1.3276  0.8599  2.1652
 3911TIP3    H211740   4.623   4.566   1.137  0.6361 -1.0075 -0.4870
 3912TIP3   OH211741   0.426   3.857   4.448 -0.5354  0.0068  0.3392
 3912TIP3    H111742   0.478   3.840   4.526 -0.6841 -0.5661  0.3173
 3912TIP3    H211743   0.374   3.934   4.471  1.1144  1.2824 -0.0447
 3913TIP3   OH211744   0.519   4.422   0.501 -0.1850 -1.0166 -0.1383
 3913TIP3    H111745   0.613   4.407   0.506  0.5514  2.0615 -1.7607
 3913TIP3    H211746   0.498   4.473   0.579 -0.3892 -1.1328 -0.1155
 3914TIP3   OH211747   0.193   3.765   4.823  0.7451  0.2347  0.2870
 3914TIP3    H111748   0.184   3.817   4.743 -0.3665  1.0389  0.8929
 3914TIP3    H211749   0.139   3.688   4.807  2.1885 -0.6480 -0.5132
 3915TIP3   OH211750   3.408   1.461   0.915  0.4550  0.3641  0.5973
 3915TIP3    H111751   3.372   1.380   0.878  2.1361 -0.3898  0.5175
 3915TIP3    H211752   3.375   1.462   1.005 -0.0861 -0.0915  0.4138
 3916TIP3   OH211753   3.357   2.282   0.978 -0.1884  0.1129  0.1836
 3916TIP3    H111754   3.265   2.261   0.993 -1.4881  2.1864 -3.6152
 3916TIP3    H211755   3.362   2.377   0.986  1.5684  0.0809  0.0328
 3917TIP3   OH211756   2.489   1.061   0.897  0.1299  0.5758  0.3605
 3917TIP3    H111757   2.562   1.012   0.934 -0.8309  0.5810  2.3677
 3917TIP3    H211758   2.528   1.146   0.873  1.1863 -0.1252 -0.4834
 3918TIP3   OH211759   0.038   0.270   2.793 -0.3319 -0.5946  0.0326
 3918TIP3    H111760  -0.043   0.321   2.796 -0.2810 -0.4666 -0.5449
 3918TIP3    H211761   0.037   0.230   2.706 -0.5190 -1.8350  0.5832
 3919TIP3   OH211762   1.924   1.103   3.706 -0.0877 -1.1516  0.1945
 3919TIP3    H111763   1.934   1.197   3.724 -0.1843 -0.8984 -1.0084
 3919TIP3    H211764   2.009   1.065   3.730  0.5599 -0.4791 -0.9342
 3920TIP3   OH211765   1.808   0.910   0.685  0.0045  0.6858  0.3278
 3920TIP3    H111766   1.784   0.991   0.731 -0.9590  0.5898  0.0177
 3920TIP3    H211767   1.726   0.880   0.645  0.5708  0.1079 -0.4293
 3921TIP3   OH211768   6.144   0.789   3.320  0.7431  0.8573 -0.4339
 3921TIP3    H111769   6.078   0.724   3.342 -0.1628  1.0269 -2.4086
 3921TIP3    H211770   6.113   0.870   3.362  0.4305  0.6242 -0.2151
 3922TIP3   OH211771   1.101   1.468   3.462 -0.0392 -0.1413 -0.5664
 3922TIP3    H111772   1.162   1.535   3.432 -1.1904  0.5680 -1.4349
 3922TIP3    H211773   1.141   1.385   3.437  1.6167  0.1750  0.9100
 3923TIP3   OH211774   1.430   1.309   4.001 -0.3868  0.2521  0.6805
 3923TIP3    H111775   1.489   1.320   3.926 -2.0124  0.9359 -0.5782
 3923TIP3    H211776   1.449   1.221   4.034  0.5306  0.0195 -0.4007
 3924TIP3   OH211777   3.125   0.787   1.893  0.3455 -0.1842 -0.4458
 3924TIP3    H111778   3.190   0.742   1.840  0.7631 -1.6207  1.1819
 3924TIP3    H211779   3.042   0.750   1.867  0.5479 -0.8718 -0.1291
 3925TIP3   OH211780   4.584   3.396   1.473 -0.2793 -0.7327  0.2815
 3925TIP3    H111781   4.589   3.450   1.552 -3.4058 -0.5306  0.4458
 3925TIP3    H211782   4.521   3.327   1.494  0.7899 -2.2741 -1.2083
 3926TIP3   OH211783   5.931   5.714   0.095 -0.1323 -0.0866  0.4223
 3926TIP3    H111784   5.871   5.691   0.166  0.1297 -0.9763  0.3675
 3926TIP3    H211785   5.886   5.684   0.016 -0.2942  0.6432  0.2327
 3927TIP3   OH211786   5.569   5.373   3.026  0.3768  0.1529  0.3993
 3927TIP3    H111787   5.607   5.461   3.030 -0.5568  0.6822 -1.3318
 3927TIP3    H211788   5.558   5.356   2.933 -1.8711 -0.7166  0.7548
 3928TIP3   OH211789   1.565   0.514   0.640 -0.1967 -0.1780  0.0182
 3928TIP3    H111790   1.549   0.567   0.562 -0.5712 -0.8791 -0.3917
 3928TIP3    H211791   1.601   0.576   0.704  0.7449  0.2804 -0.9197
 3929TIP3   OH211792   4.129   4.770   0.872  0.3881  0.6029  0.4593
 3929TIP3    H111793   4.123   4.763   0.968 -0.7740  0.5495  0.3952
 3929TIP3    H211794   4.155   4.682   0.844 -2.3146 -0.3302  0.5375
 3930TIP3   OH211795   3.694   4.822   4.695 -0.1997  0.2483  0.0896
 3930TIP3    H111796   3.645   4.759   4.748 -1.9146  0.4722 -1.1123
 3930TIP3    H211797   3.628   4.858   4.635  1.4686  0.5713 -1.6524
 3931TIP3   OH211798   1.845   1.824   2.915 -0.4469 -0.3689  0.1797
 3931TIP3    H111799   1.835   1.888   2.985  0.1338  0.5658 -0.5535
 3931TIP3    H211800   1.756   1.807   2.884 -0.6091  0.0443  0.4213
 3932TIP3   OH211801   6.029   2.137   3.448 -0.4019  0.0038  0.1236
 3932TIP3    H111802   5.946   2.147   3.402 -0.4337 -0.2668  0.1194
 3932TIP3    H211803   6.084   2.208   3.415 -1.3963  1.6721  1.8667
 3933TIP3   OH211804   6.246   1.938   1.137 -0.1987 -0.1111  0.6706
 3933TIP3    H111805   6.181   1.931   1.068 -0.3166 -0.3721  0.8088
 3933TIP3    H211806   6.224   2.020   1.183 -0.2503 -0.0498  0.5364
 3934TIP3   OH211807  -0.003   3.706   2.297  0.0260  0.2992 -0.4215
 3934TIP3    H111808   0.051   3.634   2.265 -1.4254 -0.3561 -1.5007
 3934TIP3    H211809   0.007   3.703   2.393  2.4976  0.7319 -0.6074
 3935TIP3   OH211810   3.955   1.407   3.492  0.5055 -0.1553  0.0523
 3935TIP3    H111811   3.902   1.345   3.542  1.6692 -1.2990 -0.0897
 3935TIP3    H211812   3.980   1.473   3.557 -2.1797  1.2172 -0.1662
 3936TIP3   OH211813   5.026   1.567   1.534 -0.7566  0.4575 -0.0640
 3936TIP3    H111814   5.026   1.474   1.511  0.1447  0.4384 -0.0437
 3936TIP3    H211815   4.988   1.611   1.458  1.1758  0.2918 -1.2154
 3937TIP3   OH211816   1.846   0.184   4.820 -0.0948 -0.2545  0.3401
 3937TIP3    H111817   1.776   0.241   4.850  0.1773 -0.0717  0.6234
 3937TIP3    H211818   1.903   0.241   4.769 -0.2650 -0.4489 -0.0737
 3938TIP3   OH211819   3.623   4.911   1.634  0.0859 -0.3807  0.4049
 3938TIP3    H111820   3.540   4.952   1.611 -0.4287 -0.4735  1.9460
 3938TIP3    H211821   3.686   4.984   1.635  0.4244 -0.5480 -2.3229
 3939TIP3   OH211822   1.904   3.862   0.877 -0.2818 -0.5191  0.5735
 3939TIP3    H111823   1.916   3.864   0.782 -0.4290 -2.2352  0.4891
 3939TIP3    H211824   1.916   3.953   0.905  2.2831 -0.3560 -0.7862
 3940TIP3   OH211825   4.937   0.861   4.227  0.8739 -0.1251 -0.0828
 3940TIP3    H111826   4.971   0.818   4.306 -0.3742  0.0657  0.5817
 3940TIP3    H211827   4.899   0.790   4.176  1.7085 -0.2530 -0.5460
 3941TIP3   OH211828   3.134   1.610   3.877  0.1694  0.2635  0.5132
 3941TIP3    H111829   3.128   1.593   3.783 -0.9891  0.4445  0.5442
 3941TIP3    H211830   3.224   1.642   3.890  0.1480  0.8091 -0.6193
 3942TIP3   OH211831   6.126   5.333   0.364 -0.7190  0.4458 -0.2730
 3942TIP3    H111832   6.083   5.366   0.444 -0.7909 -0.0295 -0.1092
 3942TIP3    H211833   6.055   5.293   0.314 -0.3747 -1.0568  0.3628
 3943TIP3   OH211834   3.145   1.090   0.989  0.1280 -0.0275 -0.6442
 3943TIP3    H111835   3.181   1.096   0.901  0.5578  2.6710 -0.3689
 3943TIP3    H211836   3.202   1.029   1.034  1.1233  0.1020 -1.6934
 3944TIP3   OH211837   1.675   4.396   4.798 -0.0339 -1.0993 -0.4312
 3944TIP3    H111838   1.587   4.434   4.793  0.4920  0.0948 -1.1344
 3944TIP3    H211839   1.668   4.315   4.748 -0.2241  0.0937 -2.4482
 3945TIP3   OH211840   3.710   1.667   4.294  0.0953 -0.4341 -0.3471
 3945TIP3    H111841   3.707   1.762   4.291  1.5067 -0.3730 -2.3165
 3945TIP3    H211842   3.694   1.640   4.203 -2.0237 -2.1935  0.4679
 3946TIP3   OH211843   2.007   0.792   3.356 -0.0264 -0.3956  0.4589
 3946TIP3    H111844   2.025   0.787   3.450  1.0929  1.4387  0.3945
 3946TIP3    H211845   2.057   0.720   3.318 -1.1158 -1.6589  1.2973
 3947TIP3   OH211846   1.828   3.629   4.365 -0.1834 -0.1608 -0.3101
 3947TIP3    H111847   1.921   3.649   4.355 -0.1429 -0.7358 -1.2294
 3947TIP3    H211848   1.806   3.577   4.287 -1.2417 -0.1438 -0.0423
 3948TIP3   OH211849   5.280   4.164   1.669  0.8025  0.1847  0.1288
 3948TIP3    H111850   5.194   4.165   1.628 -0.3792  1.0097  2.4708
 3948TIP3    H211851   5.277   4.089   1.729  1.4456  0.6234  0.7279
 3949TIP3   OH211852   4.152   5.193   1.656 -0.0628 -0.3020  0.0948
 3949TIP3    H111853   4.063   5.161   1.643 -0.0109 -1.1129  1.5807
 3949TIP3    H211854   4.150   5.281   1.619 -0.7146 -1.2494 -2.3869
 3950TIP3   OH211855   3.195   0.168   3.250  0.0729  0.3966 -0.6733
 3950TIP3    H111856   3.138   0.106   3.294  0.1108  0.6527 -0.2576
 3950TIP3    H211857   3.135   0.221   3.196 -0.2634  1.4577  0.6799
 3951TIP3   OH211858   2.819   4.850   0.758 -0.4353  0.1424 -0.0905
 3951TIP3    H111859   2.777   4.829   0.674 -0.8857  1.3810 -0.1900
 3951TIP3    H211860   2.756   4.906   0.803  1.1728  2.3310 -0.3703
 3952TIP3   OH211861   5.508   4.618   3.759 -0.0775  0.2724 -0.5684
 3952TIP3    H111862   5.542   4.636   3.847 -0.9346 -0.8587  0.0154
 3952TIP3    H211863   5.577   4.568   3.716  0.8242  1.7895 -0.9668
 3953TIP3   OH211864   0.345   2.756   5.019  0.1909  0.2379 -0.1681
 3953TIP3    H111865   0.360   2.801   4.936 -2.0615  0.2976 -0.6019
 3953TIP3    H211866   0.377   2.667   5.004  0.3072  0.4006 -0.9019
 3954TIP3   OH211867   5.480   3.756   2.783 -0.2375 -0.0198 -0.2103
 3954TIP3    H111868   5.464   3.844   2.818 -0.7429 -0.2107  0.0508
 3954TIP3    H211869   5.537   3.770   2.707 -2.2392  0.7724 -1.6421
 3955TIP3   OH211870   2.613   5.777   3.794  0.0189  1.4920  0.5915
 3955TIP3    H111871   2.550   5.805   3.861 -0.2816  0.1670  0.8839
 3955TIP3    H211872   2.681   5.731   3.843 -0.1061  0.6762  0.0092
 3956TIP3   OH211873   3.659   4.505   4.627 -0.1589 -0.0155  0.0988
 3956TIP3    H111874   3.670   4.422   4.673  1.6784  0.0270 -0.1911
 3956TIP3    H211875   3.573   4.537   4.655 -0.7189 -1.7937  0.5382
 3957TIP3   OH211876   3.838   1.021   2.574 -0.1886  0.4363  0.4608
 3957TIP3    H111877   3.858   1.088   2.509  0.2470  0.3964  0.5525
 3957TIP3    H211878   3.764   0.972   2.537  0.4308  0.0454 -0.2701
 3958TIP3   OH211879   4.092   1.198   1.194  0.2259  0.3086  0.3511
 3958TIP3    H111880   4.046   1.120   1.226 -0.1483  0.5671  0.4495
 3958TIP3    H211881   4.036   1.230   1.123  0.8558 -0.0478 -0.3204
 3959TIP3   OH211882   2.781   4.235   4.350 -0.3916  0.2373  0.0996
 3959TIP3    H111883   2.847   4.167   4.345  0.9061  1.5074 -0.9528
 3959TIP3    H211884   2.708   4.202   4.297  0.2887 -0.2415 -0.5470
 3960TIP3   OH211885   5.691   5.994   2.837  0.5998  0.6926  0.4856
 3960TIP3    H111886   5.613   5.977   2.785  1.6810  1.9088 -1.6665
 3960TIP3    H211887   5.707   5.913   2.884  0.4603 -1.1182 -2.3695
 3961TIP3   OH211888   3.525   4.495   0.049 -0.7881 -0.0196  0.4611
 3961TIP3    H111889   3.505   4.410   0.010 -2.2586  0.3100  0.4348
 3961TIP3    H211890   3.610   4.483   0.091 -0.4405 -1.1627 -0.5221
 3962TIP3   OH211891   5.509   4.373   4.202  0.0331  0.7074  0.1000
 3962TIP3    H111892   5.547   4.308   4.261 -1.0489  0.4874  0.5851
 3962TIP3    H211893   5.494   4.449   4.257 -0.3215  0.7487 -0.0495
 3963TIP3   OH211894   5.525   2.537   4.110 -0.6003  0.1216  0.2465
 3963TIP3    H111895   5.598   2.476   4.097 -1.7939 -1.2478 -0.2998
 3963TIP3    H211896   5.523   2.588   4.029 -1.7132 -1.4991 -0.8123
 3964TIP3   OH211897   4.267   2.020   5.088 -0.1140 -0.2931 -0.2072
 3964TIP3    H111898   4.227   1.934   5.077  0.2571 -0.3113 -1.6801
 3964TIP3    H211899   4.217   2.077   5.030  0.7033  0.1090 -0.5267
 3965TIP3   OH211900   5.494   2.305   0.268  0.4121  0.2822 -0.1322
 3965TIP3    H111901   5.530   2.260   0.345  0.4434 -0.1994 -0.4219
 3965TIP3    H211902   5.402   2.319   0.289  0.1829 -0.7384 -0.4016
 3966TIP3   OH211903   4.082   5.230   5.125 -0.2080  0.4971  0.2872
 3966TIP3    H111904   4.079   5.168   5.198  0.8484  0.0745 -0.0097
 3966TIP3    H211905   4.136   5.302   5.158 -2.3145  1.8357  1.0281
 3967TIP3   OH211906   4.526   1.192   1.812 -0.3079  0.0520  0.2100
 3967TIP3    H111907   4.590   1.121   1.808 -0.3635  0.0224 -0.1672
 3967TIP3    H211908   4.451   1.160   1.763 -0.7538 -0.0566  0.9602
 3968TIP3   OH211909   2.365   4.724   3.064  0.5542  0.0505  0.4002
 3968TIP3    H111910   2.450   4.759   3.039  1.9000 -1.8202  2.0460
 3968TIP3    H211911   2.316   4.719   2.982  3.0426 -1.4609 -1.1069
 3969TIP3   OH211912   1.626   5.912   4.720 -0.0132  0.2096 -0.0921
 3969TIP3    H111913   1.595   5.860   4.645  0.1396  1.3703 -0.9785
 3969TIP3    H211914   1.547   5.927   4.772 -0.1949 -0.2497 -0.2241
 3970TIP3   OH211915   5.215   3.956   1.210 -0.0548 -0.1651 -0.2133
 3970TIP3    H111916   5.241   3.943   1.301 -2.1315  1.3290  0.6774
 3970TIP3    H211917   5.285   4.009   1.172  1.7363 -2.3030 -0.0882
 3971TIP3   OH211918   4.929   3.841   0.115  0.2401 -0.5881 -0.1826
 3971TIP3    H111919   4.986   3.769   0.141 -0.4110 -0.8915  0.4359
 3971TIP3    H211920   4.935   3.904   0.187 -0.7473 -0.9484  0.2356
 3972TIP3   OH211921   1.197   2.103   3.388  0.1816  0.3825 -0.2757
 3972TIP3    H111922   1.273   2.162   3.397  0.1192  0.2730  1.1288
 3972TIP3    H211923   1.159   2.127   3.303  2.2753 -0.1464 -1.4372
 3973TIP3   OH211924   4.612   5.784   1.325 -0.3478  0.1301 -0.6815
 3973TIP3    H111925   4.691   5.837   1.322 -1.0631  1.2307 -0.6148
 3973TIP3    H211926   4.643   5.693   1.316  0.9110  0.5340 -0.5413
 3974TIP3   OH211927   1.039   1.677   1.406 -0.5309 -0.0960  0.4693
 3974TIP3    H111928   0.946   1.657   1.416 -0.2807 -1.6248  0.0734
 3974TIP3    H211929   1.065   1.630   1.327  0.5635  0.3714  0.5315
 3975TIP3   OH211930   4.172   5.014   1.884 -0.1099  0.2956  0.3943
 3975TIP3    H111931   4.172   4.930   1.838  0.2131 -0.3678  1.5638
 3975TIP3    H211932   4.202   5.077   1.818  1.1072 -0.7466 -0.0947
 3976TIP3   OH211933   5.092   5.328   2.504 -0.1698  0.2723 -0.1810
 3976TIP3    H111934   5.088   5.352   2.412 -3.6540  1.0040  0.0413
 3976TIP3    H211935   5.009   5.286   2.523 -0.3784  1.7520  3.0144
 3977TIP3   OH211936   2.012   0.633   4.564  0.1968  0.4806 -0.0621
 3977TIP3    H111937   1.958   0.711   4.549 -0.1397  0.1016 -0.9130
 3977TIP3    H211938   2.089   0.666   4.611 -0.3462  1.1768  0.3675
 3978TIP3   OH211939   2.208   2.485   0.856  0.4263  0.2298 -0.5854
 3978TIP3    H111940   2.244   2.427   0.924  1.0934  0.0549 -1.0858
 3978TIP3    H211941   2.263   2.563   0.859 -0.4521  0.8453  0.0659
 3979TIP3   OH211942   0.768   4.597   1.167  0.5815 -0.4390  0.6488
 3979TIP3    H111943   0.737   4.552   1.089 -0.0707  0.1139  0.5832
 3979TIP3    H211944   0.718   4.678   1.170  0.1451 -0.7263  1.9755
 3980TIP3   OH211945   2.574   5.415   3.900  0.1318 -0.2309  0.3807
 3980TIP3    H111946   2.560   5.342   3.961 -0.6673 -0.8710 -0.5441
 3980TIP3    H211947   2.491   5.423   3.853  0.3614  0.9960  0.1502
 3981TIP3   OH211948   0.079   5.448   1.606  0.1780 -0.2687  0.0360
 3981TIP3    H111949   0.009   5.423   1.547  0.2129 -0.3376  0.0239
 3981TIP3    H211950   0.159   5.416   1.564  0.1504 -0.8064  0.3921
 3982TIP3   OH211951   2.584   1.548   3.112  0.4518 -0.3822  0.0282
 3982TIP3    H111952   2.546   1.604   3.045 -0.1648 -0.6388  0.1596
 3982TIP3    H211953   2.512   1.491   3.141  0.8331 -0.6170  0.5475
 3983TIP3   OH211954   3.806   2.252   1.885  0.2344  0.0607  0.0037
 3983TIP3    H111955   3.754   2.328   1.859  0.8490  0.6749  0.5233
 3983TIP3    H211956   3.745   2.194   1.931 -0.4656 -0.2329 -1.2513
 3984TIP3   OH211957   1.198   5.308   1.369  0.1814 -0.5828  0.0791
 3984TIP3    H111958   1.175   5.217   1.388  1.4175 -1.0597 -0.5750
 3984TIP3    H211959   1.130   5.339   1.310 -0.7055 -0.8063  0.9634
 3985TIP3   OH211960   4.826   5.866   2.143  0.0686  0.1080  0.1206
 3985TIP3    H111961   4.892   5.935   2.150 -1.9755  2.2335 -0.2735
 3985TIP3    H211962   4.857   5.809   2.073  0.0266  2.8342 -2.2839
 3986TIP3   OH211963   1.506   1.633   0.022 -0.1105 -0.6233 -0.3194
 3986TIP3    H111964   1.514   1.721  -0.015  0.6339 -0.3631  0.4411
 3986TIP3    H211965   1.590   1.592   0.004 -0.5495 -1.2843 -0.9073
 3987TIP3   OH211966   1.629   1.963   2.593 -0.0958  0.2749 -0.3693
 3987TIP3    H111967   1.547   2.012   2.602 -0.0953 -0.0406  2.1455
 3987TIP3    H211968   1.618   1.888   2.652  1.7571 -0.0902 -0.4339
 3988TIP3   OH211969   0.212   4.924   0.515 -0.3223 -0.5041 -0.4776
 3988TIP3    H111970   0.202   4.957   0.426 -0.3464 -0.8610 -0.6051
 3988TIP3    H211971   0.161   4.844   0.518 -2.6341  0.8849  0.6327
 3989TIP3   OH211972   0.099   1.327   2.839  0.4523  0.3751  0.9015
 3989TIP3    H111973   0.013   1.315   2.879  0.1154  0.5221  0.2297
 3989TIP3    H211974   0.089   1.404   2.783  1.3113  1.0229  1.6129
 3990TIP3   OH211975   1.532   5.343   4.895  0.0565  0.0485  0.1877
 3990TIP3    H111976   1.608   5.287   4.908 -0.1851 -0.7426 -1.6155
 3990TIP3    H211977   1.556   5.425   4.938  1.1582 -0.7922  1.2544
 3991TIP3   OH211978   2.179   4.912   2.213 -0.7760  0.1799 -0.3675
 3991TIP3    H111979   2.205   4.820   2.212 -2.2707 -0.2633 -0.7733
 3991TIP3    H211980   2.112   4.919   2.145 -1.4431  1.3269  0.3760
 3992TIP3   OH211981   5.331   5.264   4.285  0.4760  0.0566  0.3767
 3992TIP3    H111982   5.253   5.288   4.335 -0.6325 -0.0285 -1.2501
 3992TIP3    H211983   5.306   5.277   4.193  1.8255 -1.5860 -0.2723
 3993TIP3   OH211984   5.934   0.753   4.975 -0.1050 -0.2513  0.3159
 3993TIP3    H111985   5.874   0.702   5.028 -0.4562 -0.2772 -0.1024
 3993TIP3    H211986   5.924   0.718   4.886 -0.5026  0.6706 -0.0129
 3994TIP3   OH211987   2.920   2.290   5.066 -0.6310 -0.1596  0.0445
 3994TIP3    H111988   2.959   2.294   5.153  0.2869 -0.6484 -0.3247
 3994TIP3    H211989   2.928   2.379   5.032 -0.0310 -0.2013  0.0656
 3995TIP3   OH211990   1.158   1.945   0.084  0.3894  0.0756  0.1799
 3995TIP3    H111991   1.078   1.920   0.037  0.1139  1.5581 -0.1885
 3995TIP3    H211992   1.167   1.879   0.153 -1.9618  0.6325  1.1296
 3996TIP3   OH211993   4.009   4.425   2.813 -0.5374  0.8167  0.0608
 3996TIP3    H111994   3.998   4.441   2.906 -0.3543  1.7348 -0.0679
 3996TIP3    H211995   4.097   4.388   2.805 -1.5050 -1.7999  0.5266
 3997TIP3   OH211996   0.609   3.710   1.890  0.1960  0.3214  0.0908
 3997TIP3    H111997   0.583   3.797   1.919 -0.7671 -0.2671  1.0643
 3997TIP3    H211998   0.698   3.700   1.922  0.7399  1.3689 -1.0208
 3998TIP3   OH211999   2.900   2.483   1.536  0.6678  0.1386  0.5584
 3998TIP3    H112000   2.983   2.486   1.583  1.4243  3.4339 -0.6846
 3998TIP3    H212001   2.853   2.560   1.567 -0.2837  0.4357 -1.4564
 3999TIP3   OH212002   4.788   2.269   4.701 -0.2517  0.3320 -0.2071
 3999TIP3    H112003   4.868   2.322   4.708 -0.3617  0.3733  0.8708
 3999TIP3    H212004   4.739   2.288   4.781 -0.4466 -1.1694  0.0609
 4000TIP3   OH212005   2.139   2.943   2.454  0.3571 -0.1684 -0.6768
 4000TIP3    H112006   2.050   2.966   2.480  0.8150  0.9752  0.0020
 4000TIP3    H212007   2.133   2.924   2.360 -0.5195  0.3791 -0.7407
 4001TIP3   OH212008   0.591   0.099   1.899  0.0777  0.2137  0.0309
 4001TIP3    H112009   0.525   0.044   1.942  0.7483  1.5627  3.0892
 4001TIP3    H212010   0.541   0.170   1.860 -0.4842 -0.3755 -0.3412
 4002TIP3   OH212011   4.427   0.899   0.305 -0.3183  0.3140  0.1488
 4002TIP3    H112012   4.450   0.964   0.239 -0.4124 -1.6545 -1.9626
 4002TIP3    H212013   4.486   0.825   0.287 -1.2566 -0.7949  1.4100
 4003TIP3   OH212014   5.626   2.495   3.812 -0.1304  0.0340 -0.4310
 4003TIP3    H112015   5.549   2.443   3.831  0.4068 -0.4809  0.4205
 4003TIP3    H212016   5.696   2.455   3.864  1.0703 -0.4228 -2.2819
 4004TIP3   OH212017   1.425   2.558   0.236 -0.2373 -0.1837  0.3892
 4004TIP3    H112018   1.508   2.557   0.190 -1.5168  0.9531 -2.1289
 4004TIP3    H212019   1.407   2.650   0.253 -2.2598 -0.0799 -1.7596
 4005TIP3   OH212020   3.067   1.426   0.996  0.5860 -0.0956  0.6130
 4005TIP3    H112021   3.087   1.366   0.924  1.5726  0.3840  0.4630
 4005TIP3    H212022   3.112   1.388   1.071  0.9736  0.2873  0.5819
 4006TIP3   OH212023   3.434   5.835   0.002  0.1423  0.4042 -0.5788
 4006TIP3    H112024   3.521   5.852   0.040  0.0042 -0.1717  0.0184
 4006TIP3    H212025   3.379   5.814   0.077 -0.1560 -0.7169 -1.0816
 4007TIP3   OH212026   1.688   0.487   2.950 -0.5543  1.2638  0.3860
 4007TIP3    H112027   1.671   0.394   2.934 -1.9847  1.2432  1.7628
 4007TIP3    H212028   1.783   0.495   2.950 -0.4188 -0.0606 -0.4152
 4008TIP3   OH212029   6.038   3.233   4.265  1.2087  0.2101 -0.0888
 4008TIP3    H112030   5.960   3.252   4.214  2.0456  1.2724 -1.0173
 4008TIP3    H212031   6.040   3.137   4.272  0.4002  0.1194 -0.9479
 4009TIP3   OH212032   4.504   1.056   2.183 -0.3504  0.3121 -0.3799
 4009TIP3    H112033   4.573   1.078   2.245  0.3878  0.1385 -1.1247
 4009TIP3    H212034   4.465   1.140   2.158 -0.2050  0.4342 -0.1936
 4010TIP3   OH212035   1.688   3.600   4.819  0.2302  0.1822  0.0662
 4010TIP3    H112036   1.662   3.514   4.853 -0.0153  0.2731  0.1106
 4010TIP3    H212037   1.614   3.627   4.765 -0.9281  1.5939  2.2285
 4011TIP3   OH212038   0.523   4.072   0.156 -0.8177  0.3093  0.2801
 4011TIP3    H112039   0.443   4.113   0.189 -1.9633 -0.9401 -0.8208
 4011TIP3    H212040   0.511   4.066   0.062  0.2188 -0.6293  0.1789
 4012TIP3   OH212041   4.035   2.417   0.658  0.4819 -0.6051 -0.0386
 4012TIP3    H112042   3.975   2.384   0.725 -0.1392 -2.8143 -1.5478
 4012TIP3    H212043   3.979   2.464   0.596  0.5755 -1.0331 -0.4591
 4013TIP3   OH212044   2.418   1.040   4.504  0.0309 -0.2209 -0.1628
 4013TIP3    H112045   2.368   1.114   4.539 -0.5948  0.1102 -1.6707
 4013TIP3    H212046   2.436   0.985   4.580 -0.5107  0.8936  0.8026
 4014TIP3   OH212047   3.286   5.931   4.291  0.0825 -0.1404  0.2137
 4014TIP3    H112048   3.304   5.891   4.206  2.3759 -2.0723  1.4853
 4014TIP3    H212049   3.372   5.947   4.328 -0.8594  0.7263  2.1678
 4015TIP3   OH212050   4.363   1.771   4.740  0.5777  0.3441 -0.1853
 4015TIP3    H112051   4.327   1.790   4.653 -3.3046  2.0110  1.5131
 4015TIP3    H212052   4.404   1.853   4.767  1.8997 -0.2131 -0.4681
 4016TIP3   OH212053   0.638   1.987   0.211  0.1533  0.0840 -0.1785
 4016TIP3    H112054   0.646   2.031   0.126 -1.6078  1.2809  0.2322
 4016TIP3    H212055   0.579   1.914   0.195 -1.7620  1.4311  0.3410
 4017TIP3   OH212056   5.932   0.375   1.246  0.5531 -0.8247  0.2034
 4017TIP3    H112057   6.001   0.425   1.203  1.0621 -1.9773 -0.3367
 4017TIP3    H212058   5.933   0.406   1.336 -0.0851  1.1505 -0.4070
 4018TIP3   OH212059   1.153   1.363   0.923 -0.1622  0.2640 -0.0453
 4018TIP3    H112060   1.207   1.352   1.002 -1.7400  0.0429  1.0394
 4018TIP3    H212061   1.182   1.447   0.887 -1.4770  1.9279  2.5028
 4019TIP3   OH212062   3.727   4.960   1.921  0.2409 -0.4789 -0.4683
 4019TIP3    H112063   3.766   4.944   1.835 -1.0817  2.1941 -1.6481
 4019TIP3    H212064   3.799   4.998   1.973 -0.2564  3.3397 -2.2759
 4020TIP3   OH212065   0.292   5.656   3.367  0.0275  0.0654 -0.4612
 4020TIP3    H112066   0.331   5.741   3.347 -1.6745  0.6921 -1.3019
 4020TIP3    H212067   0.208   5.656   3.321 -1.0254 -1.1811  1.3228
 4021TIP3   OH212068   5.263   2.649   3.860  0.0025 -0.2459 -0.2001
 4021TIP3    H112069   5.270   2.633   3.766  3.8347  0.7388 -0.2561
 4021TIP3    H212070   5.282   2.743   3.869 -1.2778 -0.1130  1.5248
 4022TIP3   OH212071   6.220   0.389   4.837  0.0445 -0.2246 -0.0609
 4022TIP3    H112072   6.302   0.349   4.806 -0.4306  0.6899 -2.8320
 4022TIP3    H212073   6.157   0.317   4.839  0.3172 -0.4759 -0.4181
 4023TIP3   OH212074   0.290   2.593   1.499  0.0652 -0.4286  0.1671
 4023TIP3    H112075   0.341   2.593   1.418  1.3217  2.3096  0.8366
 4023TIP3    H212076   0.213   2.646   1.479  1.5680  2.4228  1.2647
 4024TIP3   OH212077   2.014   5.108   3.563  1.0371 -0.2109  0.0399
 4024TIP3    H112078   2.068   5.154   3.499  2.6475 -0.4603  1.1563
 4024TIP3    H212079   1.992   5.025   3.521 -1.1883  1.1164 -1.6569
 4025TIP3   OH212080   5.780   3.722   3.776 -0.4258  0.2533 -0.0958
 4025TIP3    H112081   5.721   3.693   3.707 -1.2924  1.3225  0.1658
 4025TIP3    H212082   5.829   3.794   3.737  0.3322 -0.2837 -0.1427
 4026TIP3   OH212083   5.097   1.940   3.983  0.2900  0.3767  0.0760
 4026TIP3    H112084   5.066   1.866   3.930 -0.4988  1.2292 -0.7051
 4026TIP3    H212085   5.123   2.006   3.919  2.6250  0.1779  0.7309
 4027TIP3   OH212086   3.049   4.278   1.299 -0.4904  0.5832 -0.5566
 4027TIP3    H112087   3.031   4.230   1.380 -0.5740 -0.8276 -1.3644
 4027TIP3    H212088   3.123   4.334   1.320 -0.5528  0.2916  0.5145
 4028TIP3   OH212089   1.695   3.335   3.759  0.0428 -0.2681  0.0605
 4028TIP3    H112090   1.612   3.377   3.782 -0.8409 -1.3686 -0.9511
 4028TIP3    H212091   1.677   3.292   3.676  2.0327  0.5480 -0.8508
 4029TIP3   OH212092   4.924   0.973   1.779 -0.6605 -0.2601 -1.1441
 4029TIP3    H112093   4.832   1.000   1.783 -0.4397  0.7634 -2.2700
 4029TIP3    H212094   4.970   1.050   1.747  0.6601 -0.6525 -0.2728
 4030TIP3   OH212095   3.870   5.253   0.380 -0.1708 -0.2371  0.2371
 4030TIP3    H112096   3.960   5.241   0.347 -0.0352  0.0669  0.5000
 4030TIP3    H212097   3.880   5.262   0.474 -0.3863  0.7331  0.1775
 4031TIP3   OH212098   5.046   5.064   1.956  0.2445 -0.1923  0.6655
 4031TIP3    H112099   5.072   5.013   1.879 -0.7756 -0.0900  0.2353
 4031TIP3    H212100   5.078   5.152   1.937 -0.6064 -0.0084  0.0217
 4032TIP3   OH212101   4.778   0.763   4.986  0.8001  0.6278 -0.3682
 4032TIP3    H112102   4.770   0.766   4.890  2.7209 -0.4216 -0.6084
 4032TIP3    H212103   4.801   0.673   5.005 -1.3712  0.3473  1.3204
 4033TIP3   OH212104   5.261   2.530   4.257 -0.1331 -0.2309  0.1176
 4033TIP3    H112105   5.210   2.452   4.233 -1.2320  0.5932 -0.3238
 4033TIP3    H212106   5.351   2.507   4.236 -0.1626 -2.0394  1.6796
 4034TIP3   OH212107   3.715   5.472   4.116  0.1329 -0.1728 -0.1506
 4034TIP3    H112108   3.806   5.454   4.136 -0.1353 -0.9300  0.4550
 4034TIP3    H212109   3.678   5.387   4.091 -0.4641  0.0757 -0.1484
 4035TIP3   OH212110   3.207   1.358   0.726 -0.4448  0.5187  0.1086
 4035TIP3    H112111   3.280   1.365   0.665  0.4442  0.6814  1.1538
 4035TIP3    H212112   3.141   1.308   0.678  0.0908  0.9110 -1.0860
 4036TIP3   OH212113   5.260   1.111   3.364  0.3689 -0.0474  0.6153
 4036TIP3    H112114   5.222   1.188   3.406 -1.5800 -1.0403  0.7531
 4036TIP3    H212115   5.236   1.119   3.272  2.8710  1.0606 -0.0339
 4037TIP3   OH212116   0.054   5.707   3.207 -0.2723 -0.2202 -0.0937
 4037TIP3    H112117   0.086   5.737   3.122  1.8308 -1.0459  0.3380
 4037TIP3    H212118  -0.034   5.742   3.213  0.5284  2.2419 -1.3983
 4038TIP3   OH212119   1.501   4.259   0.213 -0.3723 -0.0353 -0.2897
 4038TIP3    H112120   1.545   4.260   0.127  2.9985 -1.6674  1.2301
 4038TIP3    H212121   1.445   4.337   0.211  0.5841  0.7470 -3.4479
 4039TIP3   OH212122   3.770   1.580   1.023  0.0324  0.0640  0.0797
 4039TIP3    H112123   3.847   1.535   1.058 -0.1863 -0.6701 -0.3658
 4039TIP3    H212124   3.703   1.566   1.090  0.3028  0.8127  0.5290
 4040TIP3   OH212125   2.959   2.574   2.983  0.8100  0.1181 -0.0165
 4040TIP3    H112126   2.894   2.565   2.914  1.0562  1.2917 -0.4237
 4040TIP3    H212127   3.008   2.491   2.981 -0.8006 -0.8898  0.4801
 4041TIP3   OH212128   6.006   5.128   0.795  0.2227  0.2841  0.5047
 4041TIP3    H112129   6.059   5.049   0.790  1.5033  1.1280  0.1275
 4041TIP3    H212130   6.070   5.200   0.795 -0.8909  1.3149  0.9934
 4042TIP3   OH212131   2.829   4.644   4.646 -0.2027 -0.1062 -0.0401
 4042TIP3    H112132   2.826   4.648   4.550 -1.9392 -1.1323 -0.0762
 4042TIP3    H212133   2.776   4.719   4.674  0.3772  0.2438  0.1270
 4043TIP3   OH212134   2.759   0.198   3.141  0.6040  0.6596  0.1515
 4043TIP3    H112135   2.683   0.209   3.085  0.1817 -0.2285  0.5348
 4043TIP3    H212136   2.726   0.210   3.230  0.5284 -1.3303  0.4533
 4044TIP3   OH212137   0.326   0.564   2.876  0.2229  0.1651 -0.1812
 4044TIP3    H112138   0.331   0.504   2.802  1.3229  0.7492 -0.5980
 4044TIP3    H212139   0.313   0.650   2.836 -0.5811  0.3122  0.3749
 4045TIP3   OH212140   0.806   3.580   0.967  0.0998 -0.4935 -0.0988
 4045TIP3    H112141   0.761   3.597   1.050  0.7813  2.5059 -0.2470
 4045TIP3    H212142   0.883   3.529   0.992 -0.4083 -0.8123  0.8978
 4046TIP3   OH212143   2.812   0.597   0.356  0.4647 -0.2963  0.3698
 4046TIP3    H112144   2.856   0.515   0.379  2.3214  0.7871  0.9524
 4046TIP3    H212145   2.804   0.644   0.439 -1.3478 -0.2193  0.1716
 4047TIP3   OH212146   0.865   0.614   4.984  0.7753 -0.2742 -0.2026
 4047TIP3    H112147   0.891   0.686   4.926  0.7982 -0.7578 -0.7945
 4047TIP3    H212148   0.823   0.551   4.927 -0.3805 -0.1791  0.5107
 4048TIP3   OH212149   3.431   2.185   1.858 -0.1060  0.1713  1.0887
 4048TIP3    H112150   3.494   2.113   1.854 -0.5971 -0.3089  1.7861
 4048TIP3    H212151   3.447   2.226   1.943  0.7500  1.4444  0.3496
 4049TIP3   OH212152   0.779   3.364   3.949  0.2049 -0.8366  0.0078
 4049TIP3    H112153   0.869   3.389   3.928 -0.2613  1.1200  0.0962
 4049TIP3    H212154   0.727   3.439   3.921 -1.4238 -1.9646 -0.1087
 4050TIP3   OH212155   4.715   4.504   2.887 -0.5868 -0.0698 -0.0378
 4050TIP3    H112156   4.749   4.463   2.808  0.0700  1.3347 -0.5108
 4050TIP3    H212157   4.719   4.435   2.953  1.0774 -0.6177 -0.6567
 4051TIP3   OH212158   3.730   0.122   4.200  0.2962  0.3020 -0.3265
 4051TIP3    H112159   3.765   0.033   4.196 -0.9098 -0.1924 -0.2008
 4051TIP3    H212160   3.750   0.150   4.290  2.4898  0.9599 -0.9493
 4052TIP3   OH212161   0.099   2.750   5.150  0.1988  0.4374 -0.1018
 4052TIP3    H112162   0.166   2.746   5.081  0.1570 -1.9221 -0.0773
 4052TIP3    H212163   0.149   2.747   5.232  0.1344 -1.0471 -0.0840
 4053TIP3   OH212164   3.519   3.409   3.864 -0.4135  0.1386 -0.1601
 4053TIP3    H112165   3.447   3.435   3.921  0.5329  1.1837  0.5976
 4053TIP3    H212166   3.542   3.489   3.816  1.7881  0.5099  1.3622
 4054TIP3   OH212167   1.889   4.055   3.948  0.4247 -0.2513  0.1484
 4054TIP3    H112168   1.837   4.088   3.874  1.4340 -0.4531 -0.6795
 4054TIP3    H212169   1.880   3.960   3.943  0.2610 -0.2530  0.4672
 4055TIP3   OH212170   4.361   2.497   0.105  0.6901 -0.9286 -0.5898
 4055TIP3    H112171   4.295   2.539   0.160  1.0447  0.2616 -1.0472
 4055TIP3    H212172   4.375   2.411   0.145 -2.1110 -1.7877 -1.2278
 4056TIP3   OH212173   3.394   0.270   0.795  0.0368  0.2684 -0.6390
 4056TIP3    H112174   3.322   0.333   0.787 -0.0399 -0.0278 -2.5894
 4056TIP3    H212175   3.351   0.185   0.800  0.2081  0.2226  0.5286
 4057TIP3   OH212176   4.259   3.089   2.176  0.8422 -0.0884  0.2628
 4057TIP3    H112177   4.327   3.129   2.122  1.0666 -0.3466  0.3530
 4057TIP3    H212178   4.193   3.061   2.113  0.9751 -0.1425  0.1470
 4058TIP3   OH212179   2.876   5.711   2.456  0.3076  0.1266  0.0685
 4058TIP3    H112180   2.883   5.722   2.361  0.7540  0.2228  0.1110
 4058TIP3    H212181   2.959   5.670   2.482  0.6419  1.0806  0.5581
 4059TIP3   OH212182   2.316   0.857   3.196  0.0445 -0.4647  0.2296
 4059TIP3    H112183   2.366   0.798   3.140  1.3657 -0.2961  1.1891
 4059TIP3    H212184   2.225   0.841   3.173  0.4715 -1.6624 -0.7008
 4060TIP3   OH212185   3.020   3.588   5.008 -0.0467  0.3656  0.6872
 4060TIP3    H112186   3.091   3.564   5.067  0.4660 -0.1901 -0.1288
 4060TIP3    H212187   3.064   3.632   4.935 -0.8495  2.7768  1.5817
 4061TIP3   OH212188   1.360   2.634   4.652  0.5099  0.2574  0.3243
 4061TIP3    H112189   1.347   2.711   4.708 -0.4352 -0.3210  0.9426
 4061TIP3    H212190   1.283   2.633   4.595  0.9527  0.2511 -0.2777
 4062TIP3   OH212191   0.246   4.909   3.267  0.4256 -0.4012  0.4424
 4062TIP3    H112192   0.227   4.815   3.268 -0.7910 -0.1633  0.6989
 4062TIP3    H212193   0.182   4.947   3.327  1.3671  0.5147  0.8936
 4063TIP3   OH212194   0.158   5.274   3.546 -0.8684 -0.4513  0.0148
 4063TIP3    H112195   0.114   5.357   3.526 -3.0841 -1.2643  1.1713
 4063TIP3    H212196   0.173   5.277   3.640  1.9731 -0.1002 -0.3549
 4064TIP3   OH212197   2.248   4.275   3.333 -0.0057  0.6619 -0.6564
 4064TIP3    H112198   2.289   4.361   3.349  0.6871  0.5505 -1.7678
 4064TIP3    H212199   2.254   4.263   3.239 -0.1888 -0.5730 -0.5217
 4065TIP3   OH212200   2.793   4.921   3.980  0.3486  0.4668  0.1040
 4065TIP3    H112201   2.723   4.965   3.931  1.8636  0.9694 -1.7389
 4065TIP3    H212202   2.826   4.854   3.920  0.4219 -0.8627  1.5527
 4066TIP3   OH212203   0.651   4.416   2.709  0.7602  0.7174 -0.5135
 4066TIP3    H112204   0.603   4.430   2.791 -2.6879 -1.0618 -1.9928
 4066TIP3    H212205   0.691   4.330   2.719 -0.5426  0.0255 -0.9861
 4067TIP3   OH212206   1.554   3.292   2.801  0.5339  1.0224  0.2604
 4067TIP3    H112207   1.586   3.353   2.734 -1.0006 -0.4837 -1.9848
 4067TIP3    H212208   1.461   3.312   2.809 -0.1840 -1.3125 -1.0519
 4068TIP3   OH212209   1.344   4.491   4.486 -0.0466 -0.5760  0.3385
 4068TIP3    H112210   1.258   4.452   4.478 -0.3892 -0.2584  2.0199
 4068TIP3    H212211   1.359   4.536   4.402 -1.0185 -1.5539 -0.3770
 4069TIP3   OH212212   0.860   0.855   1.239 -0.3258 -0.4246 -0.5432
 4069TIP3    H112213   0.913   0.785   1.200 -1.4484 -1.2154 -0.7062
 4069TIP3    H212214   0.859   0.836   1.333  1.9123  1.1643 -0.1025
 4070TIP3   OH212215   2.105   3.681   4.387  0.0849 -0.0194 -0.1139
 4070TIP3    H112216   2.112   3.585   4.386 -1.2929 -0.1780  1.2770
 4070TIP3    H212217   2.194   3.711   4.369  0.5632 -1.5586 -0.5244
 4071TIP3   OH212218   3.385   4.093   0.907  0.1821 -0.3322 -0.1851
 4071TIP3    H112219   3.428   4.176   0.887  1.0935 -1.1385 -1.7715
 4071TIP3    H212220   3.308   4.091   0.850 -1.0366  0.3045  1.3568
 4072TIP3   OH212221   5.778   5.795   3.249 -0.1605  0.1107  0.1872
 4072TIP3    H112222   5.799   5.759   3.163 -1.4956  1.5835 -0.8283
 4072TIP3    H212223   5.761   5.888   3.232 -1.9268  0.1398  1.7587
 4073TIP3   OH212224   4.169   1.474   1.540  0.3202  0.1216  0.5373
 4073TIP3    H112225   4.221   1.553   1.529  0.9573  0.0977  2.9190
 4073TIP3    H212226   4.206   1.412   1.477  0.2957  1.4213 -0.8269
 4074TIP3   OH212227   1.656   5.536   0.869  0.1574  0.4147  0.3634
 4074TIP3    H112228   1.589   5.588   0.824  0.9743 -0.4141 -1.9842
 4074TIP3    H212229   1.714   5.601   0.909 -0.5263  1.2044  0.1175
 4075TIP3   OH212230   0.856   3.901   0.669 -0.0979  0.1713 -0.1327
 4075TIP3    H112231   0.928   3.856   0.625 -0.1202  1.0325 -1.0743
 4075TIP3    H212232   0.833   3.974   0.611 -1.4695  0.1471  0.3334
 4076TIP3   OH212233   2.633   2.477   0.508  0.2514 -0.5325  0.1004
 4076TIP3    H112234   2.713   2.450   0.553  0.5944  1.1330  0.5645
 4076TIP3    H212235   2.567   2.481   0.578  0.2868  0.1382  0.0936
 4077TIP3   OH212236   2.336   0.837   0.588  0.5595 -0.0609  0.2633
 4077TIP3    H112237   2.304   0.795   0.508  0.6548  1.5606 -0.6715
 4077TIP3    H212238   2.264   0.892   0.618  1.0351  0.4773  0.4522
 4078TIP3   OH212239   0.505   5.237   0.705  0.0274  0.6202  0.2971
 4078TIP3    H112240   0.534   5.199   0.622  0.4995  0.4951  0.5176
 4078TIP3    H212241   0.429   5.184   0.731  0.9925 -0.5241  0.8685
 4079TIP3   OH212242   1.086   1.511   3.752 -0.3601  0.1573 -0.2473
 4079TIP3    H112243   1.083   1.534   3.659  0.3613  0.5398 -0.1797
 4079TIP3    H212244   1.117   1.421   3.753 -0.0086  0.2763 -0.3610
 4080TIP3   OH212245   3.110   3.987   1.778  0.4777  0.5283 -0.3520
 4080TIP3    H112246   3.090   4.072   1.816 -0.5803 -0.1824  0.7584
 4080TIP3    H212247   3.191   3.959   1.821  0.4059  0.6280 -0.1555
 4081TIP3   OH212248   5.774   3.530   4.226 -0.2576  0.1514 -0.1362
 4081TIP3    H112249   5.710   3.461   4.242 -0.2654 -0.0910 -1.1089
 4081TIP3    H212250   5.777   3.581   4.307 -1.4229 -0.0413  0.0346
 4082TIP3   OH212251   2.017   5.600   2.869  0.0991  0.5285  0.1848
 4082TIP3    H112252   1.946   5.607   2.933 -0.7290 -2.2864 -0.2902
 4082TIP3    H212253   2.024   5.688   2.831 -3.8581  0.7012 -0.5102
 4083TIP3   OH212254   4.979   0.957   5.046 -0.1488  0.0990  0.3737
 4083TIP3    H112255   5.065   0.938   5.008 -0.3940  2.0242 -1.3304
 4083TIP3    H212256   4.930   0.875   5.035  0.9210 -0.4880 -0.2307
 4084TIP3   OH212257   2.589   3.739   4.036 -0.0319  0.0850 -0.0028
 4084TIP3    H112258   2.575   3.689   3.955  1.1628  0.2154 -0.3083
 4084TIP3    H212259   2.569   3.830   4.011  0.1803  0.1023 -0.1153
 4085TIP3   OH212260   4.348   2.180   2.690  0.2388  0.0048 -0.0639
 4085TIP3    H112261   4.393   2.102   2.723 -0.1735  0.1331  0.8145
 4085TIP3    H212262   4.417   2.231   2.647  0.7982 -0.1572  0.6247
 4086TIP3   OH212263   0.567   5.742   2.671  0.1618  0.2729 -0.0609
 4086TIP3    H112264   0.604   5.661   2.637 -0.1315  0.1400 -0.0650
 4086TIP3    H212265   0.589   5.808   2.605  0.5996  0.2446  0.0529
 4087TIP3   OH212266   0.745   2.823   0.306 -0.3544 -0.1475  0.1064
 4087TIP3    H112267   0.727   2.776   0.388 -0.2741  0.9920  0.7968
 4087TIP3    H212268   0.759   2.754   0.242  1.5550 -1.1126  1.4679
 4088TIP3   OH212269   2.228   3.144   0.810 -0.2144  0.2085 -0.1624
 4088TIP3    H112270   2.310   3.137   0.859 -0.5251  1.0995  0.4973
 4088TIP3    H212271   2.233   3.229   0.767 -0.0430 -0.4640 -1.5351
 4089TIP3   OH212272   5.640   3.646   0.529 -0.1396  0.3517 -0.0094
 4089TIP3    H112273   5.714   3.602   0.570 -1.5361 -0.9343  1.2600
 4089TIP3    H212274   5.589   3.575   0.489 -0.7264  1.1965 -0.8034
 4090TIP3   OH212275   3.704   0.360   2.828  0.3004 -0.0259  0.1106
 4090TIP3    H112276   3.616   0.397   2.827 -0.0394 -0.8056  0.5393
 4090TIP3    H212277   3.742   0.386   2.744 -1.1479 -1.5902 -1.1069
 4091TIP3   OH212278   4.646   2.889   4.734 -0.0482  0.2182  0.6308
 4091TIP3    H112279   4.555   2.886   4.763 -0.8172 -0.0706 -1.6375
 4091TIP3    H212280   4.658   2.808   4.685  1.9180 -0.4619  2.0901
 4092TIP3   OH212281   3.651   3.710   0.261 -0.1971 -0.4170 -0.4726
 4092TIP3    H112282   3.573   3.738   0.213  0.7888  3.7488  0.0389
 4092TIP3    H212283   3.713   3.685   0.192  0.2060  2.7106 -1.4142
 4093TIP3   OH212284   5.275   5.620   1.393 -0.3147  0.3287 -0.5428
 4093TIP3    H112285   5.311   5.584   1.312  1.3514  2.1996 -0.7201
 4093TIP3    H212286   5.317   5.570   1.463 -0.3921 -0.1165 -0.8145
 4094TIP3   OH212287   4.918   0.291   2.734  0.2552 -0.3088  0.3961
 4094TIP3    H112288   4.853   0.286   2.804 -0.2407 -0.0387 -0.0328
 4094TIP3    H212289   4.913   0.382   2.703  0.5378 -0.3996  0.0784
 4095TIP3   OH212290   1.447   3.451   3.830 -0.1853 -0.1096  0.3312
 4095TIP3    H112291   1.439   3.535   3.875 -0.8965  0.7049 -1.2227
 4095TIP3    H212292   1.363   3.439   3.787  0.5632 -0.6393 -1.0609
 4096TIP3   OH212293   5.772   1.429   3.633  0.3309 -0.2132  0.2416
 4096TIP3    H112294   5.779   1.505   3.575 -0.0254  0.0225  0.5041
 4096TIP3    H212295   5.680   1.403   3.626 -0.1731  0.9433  2.1181
 4097TIP3   OH212296   3.367   2.965   2.015 -0.5516 -0.2088  0.3328
 4097TIP3    H112297   3.293   3.017   2.046 -0.5657 -0.2663  0.3947
 4097TIP3    H212298   3.333   2.920   1.937 -0.2510  0.6404 -0.3081
 4098TIP3   OH212299   3.702   5.735   4.104 -0.1371 -0.9701 -0.3240
 4098TIP3    H112300   3.714   5.641   4.114  0.4243 -0.9208 -0.5058
 4098TIP3    H212301   3.722   5.752   4.012  0.7522 -0.5316 -0.0628
 4099TIP3   OH212302   3.235   3.849   0.408 -0.5716 -0.1980 -0.1485
 4099TIP3    H112303   3.306   3.789   0.434 -0.4976  0.3672  1.0504
 4099TIP3    H212304   3.186   3.801   0.342 -0.0053 -1.2467  0.1631
 4100TIP3   OH212305   3.310   1.119   3.463 -0.0232 -0.3261 -0.2273
 4100TIP3    H112306   3.345   1.127   3.374 -0.1184  0.8872 -0.1808
 4100TIP3    H212307   3.380   1.151   3.519 -0.1393 -0.6351  0.0953
 4101TIP3   OH212308   0.628   3.250   3.679  0.0660  0.3245 -0.3599
 4101TIP3    H112309   0.538   3.258   3.711 -0.4417  0.5478 -1.7829
 4101TIP3    H212310   0.681   3.297   3.743 -1.0056  1.4585 -0.2747
 4102TIP3   OH212311   3.946   3.579   2.520 -0.8456  0.0969  0.4462
 4102TIP3    H112312   3.900   3.639   2.579 -2.1972 -0.6250  0.1440
 4102TIP3    H212313   3.920   3.608   2.432 -0.1331  0.1335  0.2396
 4103TIP3   OH212314   3.138   0.087   0.495  0.5202 -0.0330  0.0048
 4103TIP3    H112315   3.171   0.159   0.440  2.7950 -0.7099  0.3745
 4103TIP3    H212316   3.138   0.011   0.436  2.6134 -0.6808  0.7523
 4104TIP3   OH212317   4.129   4.936   4.633 -0.0839  0.3829 -0.4510
 4104TIP3    H112318   4.132   4.851   4.676  0.1766 -0.2788 -1.7328
 4104TIP3    H212319   4.213   4.943   4.587  0.1448  1.5969  0.0836
 4105TIP3   OH212320   4.765   4.699   0.077 -0.4808  0.1760  0.2496
 4105TIP3    H112321   4.676   4.682   0.108 -0.0366 -2.2721  0.4058
 4105TIP3    H212322   4.817   4.626   0.112  1.2234  0.5584 -1.3193
 4106TIP3   OH212323   5.253   3.357   0.598 -0.0344 -0.0082  0.0532
 4106TIP3    H112324   5.239   3.306   0.517  0.5792 -0.3868  0.1829
 4106TIP3    H212325   5.285   3.293   0.661 -0.6217  0.2650  0.6407
 4107TIP3   OH212326   2.027   2.907   4.774  0.4661  0.2570  0.2256
 4107TIP3    H112327   2.051   2.988   4.728  2.2813 -1.5060 -2.2777
 4107TIP3    H212328   1.985   2.854   4.707 -0.5560 -0.9550  1.7669
 4108TIP3   OH212329   4.562   5.174   2.389 -0.0441  0.1243 -0.1655
 4108TIP3    H112330   4.626   5.235   2.427 -0.3314 -0.4124  1.2395
 4108TIP3    H212331   4.614   5.099   2.361 -0.0291 -0.2565  0.8584
 4109TIP3   OH212332   0.239   0.433   4.453 -0.0971  0.0227  0.7116
 4109TIP3    H112333   0.303   0.403   4.389  0.5618  1.4116  0.6891
 4109TIP3    H212334   0.291   0.478   4.520 -0.7787 -1.3075  2.1956
 4110TIP3   OH212335   4.305   0.879   2.294  0.1140 -0.0586 -0.0100
 4110TIP3    H112336   4.376   0.842   2.348 -0.4752  1.8832  2.2800
 4110TIP3    H212337   4.349   0.941   2.236  0.4670 -0.1901  0.1128
 4111TIP3   OH212338   0.148   5.879   5.001 -0.2768 -0.0123  0.1038
 4111TIP3    H112339   0.155   5.892   5.095  1.4914  1.0562 -0.1373
 4111TIP3    H212340   0.209   5.942   4.963 -1.3968 -0.0043 -1.7968
 4112TIP3   OH212341   2.376   1.702   0.151 -0.0385 -0.1655  0.5691
 4112TIP3    H112342   2.298   1.649   0.168 -1.1169  1.0204 -0.4489
 4112TIP3    H212343   2.399   1.681   0.060  1.3845 -1.1529  1.1219
 4113TIP3   OH212344   4.691   4.951   2.313 -0.0791 -0.0664 -0.3235
 4113TIP3    H112345   4.778   4.916   2.334  0.3944  1.4328  0.3447
 4113TIP3    H212346   4.631   4.877   2.326  0.9072 -0.7029  0.7626
 4114TIP3   OH212347   0.949   2.403   2.773 -0.5185 -0.2924 -0.6158
 4114TIP3    H112348   0.914   2.314   2.769 -0.2477 -0.5873  1.9469
 4114TIP3    H212349   0.871   2.459   2.769 -0.9234 -0.7653  0.3150
 4115TIP3   OH212350   2.500   0.729   4.425 -0.0373  0.1970  0.4828
 4115TIP3    H112351   2.434   0.686   4.479  0.6475  0.1884  1.3328
 4115TIP3    H212352   2.575   0.742   4.483  1.3021 -1.1507 -0.8094
 4116TIP3   OH212353   6.146   3.790   4.117 -0.1782  0.0739 -0.3449
 4116TIP3    H112354   6.058   3.801   4.152 -0.4201 -1.0252 -0.5886
 4116TIP3    H212355   6.188   3.727   4.176  0.9390  1.5939  0.5944
 4117TIP3   OH212356   2.617   1.895   4.028  0.4109 -0.2794  0.1983
 4117TIP3    H112357   2.661   1.904   4.113  1.1136 -1.3479 -0.0335
 4117TIP3    H212358   2.561   1.819   4.037 -0.0259  0.0045 -0.0886
 4118TIP3   OH212359   5.794   2.391   3.061  0.3689 -0.2233  0.1374
 4118TIP3    H112360   5.803   2.485   3.078 -3.9313  0.2543  0.9380
 4118TIP3    H212361   5.837   2.349   3.136  1.3474  1.1251  0.3684
 4119TIP3   OH212362   0.941   4.056   2.875 -0.5059  0.5209  0.3307
 4119TIP3    H112363   0.996   3.997   2.825  0.5697  1.8619 -0.1494
 4119TIP3    H212364   0.998   4.130   2.897 -1.5211  0.9424  1.7420
 4120TIP3   OH212365   3.715   4.185   4.664 -0.1337  0.2211  0.0510
 4120TIP3    H112366   3.764   4.157   4.587  0.1543  0.2039  0.2383
 4120TIP3    H212367   3.630   4.142   4.656  0.4460 -1.0496  0.5465
 4121TIP3   OH212368   3.068   3.334   3.538 -0.4060  0.3192  0.5005
 4121TIP3    H112369   3.067   3.239   3.528 -0.1633  0.5298 -2.2910
 4121TIP3    H212370   3.148   3.352   3.588  1.5883 -0.7960 -2.0746
 4122TIP3   OH212371   0.968   0.981   2.297  0.3393  0.2313 -0.1316
 4122TIP3    H112372   1.036   0.998   2.362 -0.3643  1.4993  0.2982
 4122TIP3    H212373   0.972   0.886   2.282  0.5314 -0.0854  1.7322
 4123TIP3   OH212374   6.303   2.120   0.299 -0.2345 -0.0656 -0.0375
 4123TIP3    H112375   6.274   2.030   0.282 -0.4647 -0.2766  1.3468
 4123TIP3    H212376   6.399   2.113   0.304 -0.3346 -0.7504  2.4661
 4124TIP3   OH212377   1.856   5.583   4.935 -0.3323  0.7381 -0.0440
 4124TIP3    H112378   1.916   5.582   5.009  0.8807  0.2340 -1.0022
 4124TIP3    H212379   1.775   5.619   4.970  0.5169  1.4069  1.2869
 4125TIP3   OH212380   5.193   1.789   3.407  0.9243  0.2625 -0.7924
 4125TIP3    H112381   5.121   1.841   3.443 -1.8449 -3.2518 -0.7166
 4125TIP3    H212382   5.160   1.756   3.324  3.3638  0.2220 -1.8158
 4126TIP3   OH212383   1.253   3.839   2.188 -0.2066 -0.0321  0.0338
 4126TIP3    H112384   1.162   3.839   2.159  0.1292 -1.1443 -1.1165
 4126TIP3    H212385   1.297   3.901   2.130 -0.0865 -0.0699  0.0827
 4127TIP3   OH212386   4.954   1.260   3.119  0.8262 -0.0316  0.3024
 4127TIP3    H112387   5.038   1.242   3.162  1.0722 -0.4181 -0.3205
 4127TIP3    H212388   4.893   1.198   3.159  0.9019  0.0570  0.5579
 4128TIP3   OH212389   5.274   2.263   3.635  0.2032 -0.3597 -0.5790
 4128TIP3    H112390   5.294   2.351   3.666 -0.8964  0.4406 -2.0019
 4128TIP3    H212391   5.313   2.260   3.547  0.4349 -1.3846 -0.4509
 4129TIP3   OH212392   3.931   4.820   0.447  0.1118 -0.3261 -0.2585
 4129TIP3    H112393   3.839   4.832   0.423  0.5966  3.5419 -0.8668
 4129TIP3    H212394   3.932   4.828   0.543 -0.2454 -1.0267 -0.1945
 4130TIP3   OH212395   4.874   0.643   2.357 -0.0244 -0.0919 -0.2606
 4130TIP3    H112396   4.940   0.642   2.289  1.6321  2.8970  1.1294
 4130TIP3    H212397   4.857   0.736   2.374 -3.4967 -0.7269  0.5235
 4131TIP3   OH212398   3.150   2.269   1.600  0.0277  0.5033  0.1035
 4131TIP3    H112399   3.202   2.199   1.561 -0.3204  0.1053  0.3394
 4131TIP3    H212400   3.122   2.234   1.685 -0.0326  0.9816  0.2837
 4132TIP3   OH212401   2.363   4.412   0.938  0.0998  0.1803 -0.2704
 4132TIP3    H112402   2.367   4.344   0.870  1.7818 -0.1070  0.0534
 4132TIP3    H212403   2.406   4.371   1.013 -0.4871  0.9890  0.5098
 4133TIP3   OH212404   5.900   2.049   3.042  0.0825  0.1996  0.0926
 4133TIP3    H112405   5.959   2.082   2.974  0.3720  0.2908  0.3878
 4133TIP3    H212406   5.853   1.977   3.000  0.4082  0.1217 -0.1394
 4134TIP3   OH212407   0.549   3.541   4.180 -0.3070 -0.6490 -0.0218
 4134TIP3    H112408   0.579   3.616   4.129  1.4107 -1.8718 -0.8896
 4134TIP3    H212409   0.626   3.515   4.232 -0.9928 -1.5799  0.5597
 4135TIP3   OH212410   2.230   5.666   1.034 -0.2370  0.5924 -0.3477
 4135TIP3    H112411   2.287   5.682   1.109  0.1710  1.7152 -0.8848
 4135TIP3    H212412   2.182   5.586   1.058 -0.8838  1.4909  1.5772
 4136TIP3   OH212413   1.118   3.876   5.088  0.1814 -0.7878  0.0654
 4136TIP3    H112414   1.054   3.906   5.153  0.1157  0.0329 -0.3615
 4136TIP3    H212415   1.202   3.905   5.121  0.0981  0.0589 -0.4432
 4137TIP3   OH212416   3.491   2.015   2.737 -0.1280  0.4170  0.4187
 4137TIP3    H112417   3.489   1.978   2.825  1.4479 -0.4952  0.1164
 4137TIP3    H212418   3.401   2.039   2.718 -0.8743 -1.4253  1.4323
 4138TIP3   OH212419   1.521   5.413   3.125 -0.4547 -0.0561 -0.0789
 4138TIP3    H112420   1.539   5.399   3.032 -0.9244  0.7150 -0.3033
 4138TIP3    H212421   1.563   5.340   3.169  0.4799  0.0125 -0.8276
 4139TIP3   OH212422   0.943   3.152   4.321 -0.1834  0.5568  0.3325
 4139TIP3    H112423   0.935   3.203   4.402 -0.3310 -0.4366  0.9634
 4139TIP3    H212424   0.997   3.077   4.346  0.0649  0.4175 -0.5890
 4140TIP3   OH212425   4.819   4.909   0.854  0.1495 -0.0760  0.5631
 4140TIP3    H112426   4.734   4.949   0.872 -0.2160 -0.4793 -0.2025
 4140TIP3    H212427   4.798   4.822   0.820  0.7449  0.5926 -1.7328
 4141TIP3   OH212428   5.774   1.805   3.830  0.3287 -0.4962 -0.2685
 4141TIP3    H112429   5.684   1.778   3.810  0.2389  0.6030 -1.4624
 4141TIP3    H212430   5.785   1.783   3.922 -0.0798 -3.5713 -0.8474
 4142TIP3   OH212431   1.959   4.340   3.645 -0.5395 -0.1013  0.0389
 4142TIP3    H112432   2.039   4.306   3.604 -0.5250 -1.1089  0.8589
 4142TIP3    H212433   1.980   4.344   3.739 -1.4187 -0.3079  0.2529
 4143TIP3   OH212434   5.343   4.359   3.969 -0.2645 -0.4476 -0.7268
 4143TIP3    H112435   5.288   4.435   3.951 -0.6039 -0.3719  0.5891
 4143TIP3    H212436   5.392   4.382   4.048 -0.0096 -1.4114 -0.5857
 4144TIP3   OH212437   5.794   5.476   4.309  0.7816  0.1974  0.1021
 4144TIP3    H112438   5.794   5.553   4.252  1.3575  0.1696  0.0594
 4144TIP3    H212439   5.811   5.511   4.396 -1.2902  0.3838  0.4860
 4145TIP3   OH212440   4.203   1.201   0.848 -0.3829  0.3236  0.6604
 4145TIP3    H112441   4.250   1.176   0.927 -0.4431 -0.3632  0.4928
 4145TIP3    H212442   4.170   1.118   0.813 -0.9397  0.6936  0.2861
 4146TIP3   OH212443   5.544   1.061   1.005 -0.3031 -0.4923 -0.2772
 4146TIP3    H112444   5.562   1.154   1.000 -2.2165 -0.0725 -0.0643
 4146TIP3    H212445   5.631   1.020   1.007  0.5767  1.1964 -1.4046
 4147TIP3   OH212446   3.235   4.103   2.266 -0.3494 -0.5223 -0.6268
 4147TIP3    H112447   3.212   4.126   2.176 -0.5929 -0.8125 -0.6404
 4147TIP3    H212448   3.172   4.150   2.320 -1.0956 -1.4384 -0.6704
 4148TIP3   OH212449   3.201   1.862   0.035  0.0650 -0.3047 -0.0396
 4148TIP3    H112450   3.278   1.916   0.016  1.1311 -1.3683  1.1542
 4148TIP3    H212451   3.181   1.879   0.127 -1.7181  0.6378 -0.5478
 4149TIP3   OH212452   5.636   0.948   3.706  0.3081  0.0338  0.7340
 4149TIP3    H112453   5.605   1.036   3.727 -0.0667  0.9041 -2.7903
 4149TIP3    H212454   5.561   0.891   3.725  0.1307  0.6132  1.8643
 4150TIP3   OH212455   1.837   4.593   0.068  0.0534  0.0294  0.5784
 4150TIP3    H112456   1.796   4.665   0.020 -0.9364 -0.8832 -0.0007
 4150TIP3    H212457   1.841   4.521   0.004 -2.0377 -1.4807  2.0226
 4151TIP3   OH212458   1.412   2.630   0.539  0.2239 -0.3350  0.3700
 4151TIP3    H112459   1.457   2.580   0.608  0.0415 -1.8670 -0.5720
 4151TIP3    H212460   1.458   2.607   0.459  0.5349  1.5517 -0.0510
 4152TIP3   OH212461   1.947   3.244   0.210  0.1034 -0.1072 -0.3612
 4152TIP3    H112462   1.961   3.318   0.270  0.2514 -0.8363  0.5305
 4152TIP3    H212463   2.034   3.224   0.175  0.1246 -0.0812 -0.3235
 4153TIP3   OH212464   6.038   5.344   4.955  0.0963 -0.2572  0.4082
 4153TIP3    H112465   6.102   5.344   5.025  0.2370  0.7971  0.2851
 4153TIP3    H212466   5.973   5.278   4.982  1.0639 -1.1303  0.6615
 4154TIP3   OH212467   5.483   0.766   2.377 -0.3102  0.5453 -0.1802
 4154TIP3    H112468   5.423   0.705   2.420  0.0764 -0.4595 -1.0403
 4154TIP3    H212469   5.562   0.764   2.430 -0.4659  0.6730  0.0595
 4155TIP3   OH212470   3.563   1.304   2.919  0.4062 -0.1915  0.4418
 4155TIP3    H112471   3.495   1.363   2.888  0.6599 -0.4726 -0.6885
 4155TIP3    H212472   3.576   1.329   3.011 -0.7932  0.2496  0.5129
 4156TIP3   OH212473   2.108   0.935   4.631 -0.1988 -0.5446 -0.5453
 4156TIP3    H112474   2.059   1.016   4.646 -1.0894 -0.9620 -1.0627
 4156TIP3    H212475   2.165   0.955   4.557  0.8022  0.1010  0.3831
 4157TIP3   OH212476   5.866   2.157   2.266 -0.1832  0.1439  0.1448
 4157TIP3    H112477   5.813   2.086   2.303 -0.2368  0.0395 -0.1301
 4157TIP3    H212478   5.870   2.223   2.336  0.4986 -0.4540  0.6923
 4158TIP3   OH212479   3.144   4.684   4.323  0.0533 -0.0958 -0.2196
 4158TIP3    H112480   3.093   4.661   4.401 -1.1840 -0.5449 -1.1401
 4158TIP3    H212481   3.083   4.729   4.266  1.5059  2.2678 -0.0493
 4159TIP3   OH212482   0.402   4.471   3.948 -0.3991 -0.4069  0.3306
 4159TIP3    H112483   0.464   4.540   3.922  0.5270 -1.0348  0.8410
 4159TIP3    H212484   0.330   4.479   3.886 -0.0271  0.6409  0.0157
 4160TIP3   OH212485   4.547   2.338   2.205 -0.2670  0.1176 -0.0788
 4160TIP3    H112486   4.462   2.297   2.191 -0.2701  0.5068 -1.2508
 4160TIP3    H212487   4.527   2.427   2.232 -0.2992  1.2319 -3.3580
 4161TIP3   OH212488   1.466   0.475   2.376  0.3758 -0.5282 -0.5848
 4161TIP3    H112489   1.531   0.410   2.350 -0.6449 -1.4148 -1.0384
 4161TIP3    H212490   1.463   0.470   2.471  1.8449  0.4143 -0.4746
 4162TIP3   OH212491   5.947   3.846   3.248  0.0527 -0.3237 -0.5478
 4162TIP3    H112492   5.869   3.897   3.272  0.4786 -0.4080  1.1100
 4162TIP3    H212493   5.934   3.826   3.155 -0.1093  2.8615 -1.3524
 4163TIP3   OH212494   5.281   5.901   2.070 -0.0214  0.6561  0.3461
 4163TIP3    H112495   5.367   5.941   2.082  0.7174 -0.9542  0.6938
 4163TIP3    H212496   5.293   5.841   1.996 -0.5333 -0.3565  1.0585
 4164TIP3   OH212497   3.498   0.907   2.001 -1.0573 -0.3354 -0.0080
 4164TIP3    H112498   3.414   0.935   1.965 -0.5335  0.1172 -0.8973
 4164TIP3    H212499   3.514   0.970   2.072 -1.4254 -0.3691  0.1099
 4165TIP3   OH212500   4.573   2.055   5.081  0.1553  0.4795  0.8123
 4165TIP3    H112501   4.575   2.119   5.151 -1.0375 -0.6283  1.9201
 4165TIP3    H212502   4.498   1.999   5.101  0.4727 -0.5822 -0.7174
 4166TIP3   OH212503   0.462   4.961   2.506 -0.3694  0.3261  0.0939
 4166TIP3    H112504   0.477   4.968   2.601 -0.4925  0.5382  0.0982
 4166TIP3    H212505   0.549   4.975   2.468 -0.1558 -0.6057  0.2064
 4167TIP3   OH212506   1.983   3.862   0.595  0.2273 -0.3534  0.3778
 4167TIP3    H112507   1.926   3.934   0.566 -2.0586 -2.1566  0.1512
 4167TIP3    H212508   2.034   3.839   0.517 -0.5390 -0.3329 -0.1351
 4168TIP3   OH212509   5.305   3.898   2.535  0.7021  0.3120  0.1182
 4168TIP3    H112510   5.218   3.935   2.542  0.2817 -0.4270 -0.9060
 4168TIP3    H212511   5.364   3.968   2.564 -0.1923  0.9735  0.3748
 4169TIP3   OH212512   4.658   0.946   1.793  0.0022  0.5880 -0.3300
 4169TIP3    H112513   4.616   0.893   1.725  1.6381 -1.1659 -0.0618
 4169TIP3    H212514   4.658   0.889   1.871  4.5540 -0.4595 -0.8196
 4170TIP3   OH212515   2.866   2.956   0.604  0.4031  0.1948  0.9126
 4170TIP3    H112516   2.951   2.986   0.572  0.4588  1.0128  1.7830
 4170TIP3    H212517   2.812   2.950   0.525  1.3338 -0.6067  0.3133
 4171TIP3   OH212518   1.725   0.613   0.353  0.0185  0.4060  0.5930
 4171TIP3    H112519   1.632   0.626   0.370 -0.3234 -2.1957  1.0247
 4171TIP3    H212520   1.767   0.687   0.398 -1.6762  0.2969  2.5187
 4172TIP3   OH212521   5.241   5.614   3.460 -0.0172 -0.4601 -0.3245
 4172TIP3    H112522   5.230   5.521   3.438 -0.7130 -0.6776  0.8466
 4172TIP3    H212523   5.151   5.645   3.474  0.3305 -0.2737  1.8195
 4173TIP3   OH212524   5.564   2.182   4.623 -0.0555 -0.0541 -0.4133
 4173TIP3    H112525   5.647   2.221   4.596  0.2048  0.6458  1.2466
 4173TIP3    H212526   5.498   2.248   4.601  0.1776  0.5992  0.7093
 4174TIP3   OH212527   2.057   3.456   0.351 -0.1202 -0.5528  0.1319
 4174TIP3    H112528   2.132   3.426   0.299  1.0722  0.5981  1.1157
 4174TIP3    H212529   2.022   3.529   0.300 -1.3782 -1.8562 -0.9410
 4175TIP3   OH212530   1.772   4.546   2.190  0.1407 -0.5248  0.0870
 4175TIP3    H112531   1.768   4.488   2.114 -1.8656 -1.9378  1.2015
 4175TIP3    H212532   1.845   4.512   2.242 -0.3853 -1.4224  0.2425
 4176TIP3   OH212533   3.079   1.829   3.254  0.0816 -0.0693 -0.0615
 4176TIP3    H112534   3.001   1.782   3.225  1.4551 -1.4149 -1.7553
 4176TIP3    H212535   3.109   1.876   3.177  1.7434 -0.7256  0.1422
 4177TIP3   OH212536   3.377   0.412   3.900 -0.6943  0.7931 -0.0634
 4177TIP3    H112537   3.463   0.440   3.869  0.2858 -1.5676  0.3295
 4177TIP3    H212538   3.326   0.397   3.820  0.2423 -0.5551 -0.4488
 4178TIP3   OH212539   1.194   3.624   2.724  0.0135 -0.0789  0.2793
 4178TIP3    H112540   1.116   3.624   2.668  0.4407  0.1678 -0.3088
 4178TIP3    H212541   1.234   3.709   2.710  0.7294 -0.4399  0.1161
 4179TIP3   OH212542   1.477   2.881   4.378  0.2228  0.9120 -0.0070
 4179TIP3    H112543   1.471   2.976   4.366  0.6799  1.3727  2.8218
 4179TIP3    H212544   1.534   2.870   4.454  0.4388 -1.6696 -0.4520
 4180TIP3   OH212545   3.661  -0.006   0.684 -0.3003  0.4899  0.2135
 4180TIP3    H112546   3.663   0.089   0.676 -3.6688  0.7746  1.3768
 4180TIP3    H212547   3.722  -0.025   0.755  2.2508  1.4282 -1.5743
 4181TIP3   OH212548   6.101   2.133   3.989  0.0628  0.5654  0.0573
 4181TIP3    H112549   6.111   2.217   3.943  0.4845 -0.1797 -1.2453
 4181TIP3    H212550   6.022   2.094   3.951 -0.0808  0.3312  0.5948
 4182TIP3   OH212551   5.369   1.034   0.430  0.1610 -0.4013 -0.2313
 4182TIP3    H112552   5.276   1.010   0.433  0.0150  0.1756  0.0716
 4182TIP3    H212553   5.376   1.109   0.490  0.9106 -0.7407  0.1102
 4183TIP3   OH212554   2.189   1.637   4.112 -0.0859  0.7170  0.0275
 4183TIP3    H112555   2.189   1.595   4.025  1.1493  1.3823 -0.3089
 4183TIP3    H212556   2.154   1.724   4.096  0.0388  0.8006  0.2147
 4184TIP3   OH212557   2.443   4.178   2.232 -0.3012  0.2275 -0.3702
 4184TIP3    H112558   2.458   4.130   2.151 -0.8169  2.4773 -1.8956
 4184TIP3    H212559   2.516   4.239   2.238 -0.6050  0.5185  0.5064
 4185TIP3   OH212560   4.634   3.202   4.165  0.6731  0.5457  0.0244
 4185TIP3    H112561   4.554   3.222   4.215  0.0127  0.1933 -0.8662
 4185TIP3    H212562   4.699   3.263   4.199 -0.2679  1.5764  0.0217
 4186TIP3   OH212563   0.235   1.745   2.842  0.1276 -0.5461  0.7717
 4186TIP3    H112564   0.302   1.705   2.787  0.0330  0.9722 -0.5172
 4186TIP3    H212565   0.157   1.692   2.827  0.1867 -0.3408 -0.3438
 4187TIP3   OH212566   3.668   1.711   1.859  0.3143 -0.2922 -0.1200
 4187TIP3    H112567   3.585   1.665   1.871 -0.3298  0.5460 -1.1100
 4187TIP3    H212568   3.664   1.743   1.769  0.7704  1.5723  0.4711
 4188TIP3   OH212569   3.562   4.432   1.728  0.3088  0.8153 -0.8069
 4188TIP3    H112570   3.610   4.391   1.800  1.1823  1.0144 -1.2647
 4188TIP3    H212571   3.557   4.524   1.752  1.5936  1.0957 -1.5032
 4189TIP3   OH212572   1.378   3.718   2.421 -0.6423  0.0279  0.0992
 4189TIP3    H112573   1.434   3.644   2.395 -0.0230  0.6546 -0.4016
 4189TIP3    H212574   1.330   3.741   2.341  1.0687  1.7901 -0.5265
 4190TIP3   OH212575   6.231   2.470   2.712 -1.0263 -0.2645 -0.0198
 4190TIP3    H112576   6.154   2.439   2.759 -0.5607 -3.2840 -1.0432
 4190TIP3    H212577   6.204   2.475   2.621 -0.8578  1.8190  0.0007
 4191TIP3   OH212578   4.202   4.110   5.042 -0.3929 -0.1040  0.7528
 4191TIP3    H112579   4.127   4.166   5.018  0.2786  0.6123  0.2841
 4191TIP3    H212580   4.191   4.095   5.136  0.0086  1.7696  1.1454
 4192TIP3   OH212581   0.899   3.042   4.044 -0.4339 -0.0497  0.0737
 4192TIP3    H112582   0.902   3.016   3.951  1.3322 -0.4634  0.2105
 4192TIP3    H212583   0.955   2.978   4.088 -1.2387  0.1531  1.4519
 4193TIP3   OH212584   4.384   4.595   2.701  0.2063  0.5717  0.1907
 4193TIP3    H112585   4.431   4.669   2.739  1.4038  0.6168 -1.2777
 4193TIP3    H212586   4.448   4.524   2.701 -0.4540 -0.0358  0.1854
 4194TIP3   OH212587   0.020   0.494   3.952  0.5272  0.4343  0.4305
 4194TIP3    H112588  -0.030   0.414   3.937 -0.4118  1.4330 -2.4404
 4194TIP3    H212589   0.011   0.511   4.046  1.3685 -3.1273  1.3042
 4195TIP3   OH212590   4.403   3.952   0.329  0.1083 -0.6295 -0.3278
 4195TIP3    H112591   4.448   3.880   0.285  0.6620 -1.3325  1.2919
 4195TIP3    H212592   4.391   4.018   0.262  0.3254 -1.9006 -1.6670
 4196TIP3   OH212593   4.794   5.229   3.952 -0.2629  0.1234  0.0009
 4196TIP3    H112594   4.826   5.314   3.924  0.1427  0.1589  0.5477
 4196TIP3    H212595   4.701   5.243   3.972 -0.6144  0.0398 -1.5177
 4197TIP3   OH212596   3.669   4.740   2.596  0.2142  0.2623  0.5377
 4197TIP3    H112597   3.764   4.738   2.610  1.0957  0.0702 -3.9926
 4197TIP3    H212598   3.644   4.648   2.590  0.4296  0.2977 -1.4157
 4198TIP3   OH212599   3.135   1.894   0.315 -0.3673  0.2376 -0.0709
 4198TIP3    H112600   3.224   1.865   0.333 -0.5187  0.0447  0.3696
 4198TIP3    H212601   3.079   1.827   0.353 -0.7187  1.1162  1.0040
 4199TIP3   OH212602   4.352   1.084   1.639  0.0181 -0.1762  0.0883
 4199TIP3    H112603   4.341   1.139   1.561 -0.4281  0.7559  0.7908
 4199TIP3    H212604   4.276   1.026   1.637 -1.6119  1.7573  1.3076
 4200TIP3   OH212605   0.207   5.293   0.523  0.2319 -0.2385 -0.4102
 4200TIP3    H112606   0.286   5.284   0.470  1.8445  2.9973  1.1372
 4200TIP3    H212607   0.223   5.238   0.599  0.8306  0.0841 -0.2975
 4201TIP3   OH212608   1.594   4.419   0.973  0.0171  0.0084 -0.0558
 4201TIP3    H112609   1.551   4.360   1.035  1.5139  0.2790  1.3084
 4201TIP3    H212610   1.578   4.507   1.008  1.1624  0.1425  0.1509
 4202TIP3   OH212611   3.650   4.055   5.042  0.2485 -0.1682 -0.4409
 4202TIP3    H112612   3.681   4.036   4.954  2.0202  1.7235 -0.3027
 4202TIP3    H212613   3.723   4.032   5.100 -0.2000  0.3155  0.3468
 4203TIP3   OH212614   5.888   1.473   0.186 -0.0286  0.6460  0.3964
 4203TIP3    H112615   5.914   1.447   0.098 -3.5513  3.0227 -1.6178
 4203TIP3    H212616   5.970   1.484   0.233  2.0444 -0.5788 -2.5988
 4204TIP3   OH212617   4.011   5.192   4.627 -0.7248  0.2052  0.1231
 4204TIP3    H112618   4.045   5.105   4.604 -0.2113  0.7895 -1.4824
 4204TIP3    H212619   4.089   5.244   4.644 -1.0735 -0.0742  2.9680
 4205TIP3   OH212620   1.784   1.888   2.372  0.1827  0.1469 -0.1870
 4205TIP3    H112621   1.707   1.914   2.322  1.5256  1.8013 -1.5213
 4205TIP3    H212622   1.771   1.928   2.458 -0.4952  0.3112 -0.3590
 4206TIP3   OH212623   0.032   1.387   4.988 -0.4232  0.1827  0.2821
 4206TIP3    H112624  -0.023   1.321   4.945 -0.0113 -0.1835  0.3035
 4206TIP3    H212625   0.105   1.400   4.928 -0.1741  0.1472  0.5747
 4207TIP3   OH212626   2.230   4.220   3.648  0.2681  0.2567 -0.1902
 4207TIP3    H112627   2.221   4.210   3.743 -2.7983  1.8571 -0.1680
 4207TIP3    H212628   2.298   4.287   3.637  2.0759 -1.3572  0.7178
 4208TIP3   OH212629   4.105   5.863   3.251  0.5179 -0.1211  0.4557
 4208TIP3    H112630   4.147   5.816   3.323  0.8693  1.1675  1.1002
 4208TIP3    H212631   4.150   5.947   3.246 -0.9370  0.6813  0.1435
 4209TIP3   OH212632   0.301   4.702   1.591  0.0416  0.2172  0.1600
 4209TIP3    H112633   0.312   4.751   1.509  2.6748 -0.1057  0.2476
 4209TIP3    H212634   0.365   4.741   1.651 -1.9573  0.5635  2.1845
 4210TIP3   OH212635   2.631   0.372   2.175 -0.2521 -0.2672  0.1512
 4210TIP3    H112636   2.684   0.292   2.164  0.8628 -0.0243  2.8366
 4210TIP3    H212637   2.629   0.412   2.088  1.5111 -1.8206 -0.6766
 4211TIP3   OH212638   2.502   4.341   4.044 -0.1766  0.5716  0.0138
 4211TIP3    H112639   2.407   4.348   4.038 -0.0443  2.2507 -0.4062
 4211TIP3    H212640   2.519   4.323   4.137 -0.9130 -0.2028  0.0106
 4212TIP3   OH212641   5.374   5.179   2.207 -0.8431 -0.0478 -0.2168
 4212TIP3    H112642   5.398   5.252   2.150  0.1869 -0.5892 -0.4921
 4212TIP3    H212643   5.400   5.101   2.158  1.7341 -0.5094  1.6782
 4213TIP3   OH212644   2.536   1.671   2.776 -0.0402  0.4283  0.6834
 4213TIP3    H112645   2.615   1.634   2.739 -0.4732  0.3863 -0.2235
 4213TIP3    H212646   2.557   1.763   2.792  0.5844  0.1369  1.6357
 4214TIP3   OH212647   3.743   4.354   4.893 -0.0889 -0.1405  0.4960
 4214TIP3    H112648   3.726   4.297   4.819 -0.0945  1.3391 -0.6830
 4214TIP3    H212649   3.665   4.410   4.899  1.1327  1.7407 -0.2901
 4215TIP3   OH212650   3.681   0.255   4.956 -0.6542  0.1578  0.2082
 4215TIP3    H112651   3.756   0.275   4.901 -1.0116 -2.9276 -1.6848
 4215TIP3    H212652   3.719   0.228   5.040  0.4443 -1.3221 -0.7055
 4216TIP3   OH212653   1.376   3.864   0.543  0.1448  0.0416 -0.3358
 4216TIP3    H112654   1.433   3.940   0.535  0.5907 -0.0631  1.4784
 4216TIP3    H212655   1.436   3.790   0.549 -0.1831 -0.1300  1.0041
 4217TIP3   OH212656   4.936   5.263   1.526  0.4589 -0.5432 -0.0937
 4217TIP3    H112657   4.865   5.298   1.581  0.9794  0.7834 -0.2347
 4217TIP3    H212658   4.894   5.195   1.474 -0.2243 -1.3138  1.3863
 4218TIP3   OH212659   5.357   5.367  -0.026  0.4387  0.2778  0.4258
 4218TIP3    H112660   5.323   5.450   0.006  0.7031  0.8438 -0.6797
 4218TIP3    H212661   5.413   5.335   0.044 -0.9227  0.2215  1.5172
 4219TIP3   OH212662   2.207   1.324   3.463 -0.2461  0.1483  0.3787
 4219TIP3    H112663   2.125   1.361   3.495 -0.1812  0.1470  0.5519
 4219TIP3    H212664   2.182   1.245   3.416 -0.6121  1.5872 -1.9940
 4220TIP3   OH212665   3.053   3.581   1.899  0.1816  0.2361  0.0462
 4220TIP3    H112666   3.122   3.524   1.931 -0.0365  0.4157  0.8641
 4220TIP3    H212667   2.973   3.529   1.907 -0.0018  0.6028  0.6901
 4221TIP3   OH212668   5.263   2.112   1.273  0.5004  0.4593 -0.0001
 4221TIP3    H112669   5.330   2.068   1.326  0.4295 -0.8580 -0.9509
 4221TIP3    H212670   5.209   2.159   1.337  0.5926 -0.8439  1.0816
 4222TIP3   OH212671   1.810   5.015   4.093 -0.5531 -0.4009 -0.4416
 4222TIP3    H112672   1.719   4.985   4.089 -0.6949  0.1725 -2.0478
 4222TIP3    H212673   1.809   5.086   4.157 -0.6843 -2.0610  1.5322
 4223TIP3   OH212674   3.530   2.904   0.849 -0.7867  0.3057 -0.7039
 4223TIP3    H112675   3.512   2.996   0.864 -1.6943  0.2231 -1.1947
 4223TIP3    H212676   3.447   2.859   0.869 -0.1867 -0.4797  0.1321
 4224TIP3   OH212677   2.012   3.421   3.965  0.3261  0.4529 -0.7321
 4224TIP3    H112678   2.108   3.416   3.959  0.3801  1.6658 -1.1995
 4224TIP3    H212679   1.982   3.335   3.938  1.2423  0.6152 -2.4364
 4225TIP3   OH212680   5.974   2.346   3.668  0.0003 -0.0061 -0.0164
 4225TIP3    H112681   5.938   2.423   3.624 -0.1798 -0.2407 -0.2770
 4225TIP3    H212682   5.919   2.273   3.639  0.2315 -0.2498  0.1533
 4226TIP3   OH212683   6.030   5.777   2.863  0.9337  0.1795  0.4844
 4226TIP3    H112684   6.048   5.861   2.821  0.8434 -0.0943 -0.1230
 4226TIP3    H212685   6.083   5.714   2.814  0.9153 -0.1345  0.8618
 4227TIP3   OH212686   0.491   4.638   1.134 -0.0217  0.0974 -0.1523
 4227TIP3    H112687   0.470   4.698   1.063  1.4186  0.8318  0.0008
 4227TIP3    H212688   0.495   4.552   1.093 -2.2573  0.0104 -0.3516
 4228TIP3   OH212689   0.783   3.821   4.836 -0.1215  0.0481  0.0262
 4228TIP3    H112690   0.789   3.746   4.896 -2.0233 -0.9479 -0.9394
 4228TIP3    H212691   0.752   3.892   4.892  0.9153 -0.0806  0.7960
 4229TIP3   OH212692   2.633   0.915   1.225 -0.0544 -0.4122  0.3514
 4229TIP3    H112693   2.544   0.916   1.261  0.2477 -1.7661  1.2059
 4229TIP3    H212694   2.620   0.908   1.131 -0.8608 -0.7436  0.4755
 4230TIP3   OH212695   2.211   1.501   1.513  0.7044  0.2142  0.4140
 4230TIP3    H112696   2.243   1.591   1.513  0.1298  0.4234  0.8521
 4230TIP3    H212697   2.284   1.449   1.478  0.7408  0.9473 -0.6551
 4231TIP3   OH212698   2.168   1.568   4.723 -0.5514  0.0322 -0.1858
 4231TIP3    H112699   2.162   1.567   4.818 -1.8515  1.8713 -0.1751
 4231TIP3    H212700   2.227   1.641   4.704  0.2831 -0.7800 -0.8080
 4232TIP3   OH212701   3.292   2.002   2.165  0.8334 -0.0199 -1.0558
 4232TIP3    H112702   3.363   2.055   2.199  1.7420 -1.9742  0.2879
 4232TIP3    H212703   3.214   2.034   2.211  1.3948  0.0337 -0.1085
 4233TIP3   OH212704   1.240   1.403   3.111  0.0815 -0.6151  0.5125
 4233TIP3    H112705   1.316   1.456   3.135 -0.6448  0.4017  0.6333
 4233TIP3    H212706   1.168   1.465   3.104 -0.5447 -1.4122 -0.5953
 4234TIP3   OH212707   2.074   5.176  -0.017  0.2062 -0.2692 -0.4199
 4234TIP3    H112708   2.013   5.107   0.011 -0.5903  1.2511  1.9386
 4234TIP3    H212709   2.113   5.207   0.065  0.5521  2.0513 -1.3905
 4235TIP3   OH212710   2.716   3.257   3.078  0.6789  0.5080  0.2572
 4235TIP3    H112711   2.698   3.350   3.090  0.8939  0.7071 -0.8771
 4235TIP3    H212712   2.686   3.238   2.989  2.3181 -0.0752 -0.1990
 4236TIP3   OH212713   0.614   3.130   4.096 -0.8061 -1.0167  0.2915
 4236TIP3    H112714   0.544   3.129   4.161 -2.0957  0.5893 -0.9658
 4236TIP3    H212715   0.581   3.077   4.023 -0.6063 -0.5319 -0.1681
 4237TIP3   OH212716   1.106   3.788   0.513  0.6734  0.0760  0.0249
 4237TIP3    H112717   1.110   3.722   0.443 -1.4053  1.4920 -1.5446
 4237TIP3    H212718   1.197   3.813   0.527  1.2869 -1.4078 -1.0442
 4238TIP3   OH212719   4.168   3.351   3.067  0.6224  0.2023  0.3173
 4238TIP3    H112720   4.228   3.318   2.999  1.1793 -1.1535  1.4064
 4238TIP3    H212721   4.215   3.425   3.106  0.7751  0.3170 -0.0846
 4239TIP3   OH212722   6.308   2.009   0.650  0.0901 -0.0621  0.3384
 4239TIP3    H112723   6.390   2.040   0.613 -0.7227  1.0733 -0.6044
 4239TIP3    H212724   6.279   2.080   0.708 -0.2210 -0.4524  0.6692
 4240TIP3   OH212725   4.491   5.479   2.632 -0.4624  0.7630  0.4079
 4240TIP3    H112726   4.560   5.469   2.566 -1.4039  1.5533 -0.7608
 4240TIP3    H212727   4.531   5.529   2.702  0.2006  1.0976 -0.2002
 4241TIP3   OH212728   5.378   5.206   4.960 -0.6190  0.1308  0.1810
 4241TIP3    H112729   5.406   5.122   4.924 -0.9745  0.4936 -0.9877
 4241TIP3    H212730   5.420   5.210   5.047  1.6034 -0.0825 -0.8076
 4242TIP3   OH212731   5.365   5.693   3.734 -0.3205 -0.4659  0.0033
 4242TIP3    H112732   5.311   5.760   3.691  0.0965  1.4648  2.2639
 4242TIP3    H212733   5.455   5.718   3.714 -0.0776  1.0207  2.5565
 4243TIP3   OH212734   2.530   1.588   0.930  0.1419 -0.3232  0.2964
 4243TIP3    H112735   2.471   1.565   1.002  0.5243 -0.7201  0.4908
 4243TIP3    H212736   2.617   1.583   0.969  0.2470  1.7809  0.4417
 4244TIP3   OH212737   0.004   3.687   2.938 -0.1654  0.3072  0.1318
 4244TIP3    H112738   0.091   3.648   2.930 -0.8324 -0.8301 -3.5948
 4244TIP3    H212739   0.018   3.781   2.924  0.5429  0.2478  0.4074
 4245TIP3   OH212740   5.539   5.258   4.722  0.5788 -0.5698  0.1550
 4245TIP3    H112741   5.506   5.188   4.779  1.5374 -0.5548  0.7578
 4245TIP3    H212742   5.460   5.295   4.681 -0.2228 -0.2548  1.8618
 4246TIP3   OH212743   3.232   5.326   4.737 -0.4510  0.3778 -0.3358
 4246TIP3    H112744   3.266   5.413   4.755  1.6379 -0.0848 -1.7566
 4246TIP3    H212745   3.253   5.275   4.815 -1.0636  0.9348  0.2121
 4247TIP3   OH212746   4.559   0.306   0.063 -0.2168  0.4783  0.2891
 4247TIP3    H112747   4.466   0.319   0.079 -0.3252  0.7868 -0.5654
 4247TIP3    H212748   4.602   0.349   0.137 -0.7284  0.9294  0.3300
 4248TIP3   OH212749   0.601   4.240   4.622 -0.2622  0.2714 -0.5887
 4248TIP3    H112750   0.577   4.188   4.545  0.6046 -0.1542 -0.5866
 4248TIP3    H212751   0.672   4.296   4.591 -0.5104  0.7398 -0.3229
 4249TIP3   OH212752   3.950   0.239   4.827  0.0628 -0.2318 -0.0325
 4249TIP3    H112753   3.997   0.321   4.812  0.0758 -0.2153  0.0994
 4249TIP3    H212754   3.926   0.209   4.739  1.1801 -0.7477 -0.1741
 4250TIP3   OH212755   6.279   3.045   4.855 -0.0860  0.1012  0.1366
 4250TIP3    H112756   6.286   3.096   4.935  1.5984 -2.4141  1.7514
 4250TIP3    H212757   6.316   3.101   4.787  0.0835  1.6463  1.4448
 4251TIP3   OH212758   2.400   3.693   1.119  0.1094  0.0457 -0.5533
 4251TIP3    H112759   2.334   3.658   1.179  1.3941 -1.0308  0.2861
 4251TIP3    H212760   2.378   3.785   1.110  0.4219  0.5022  2.3552
 4252TIP3   OH212761   5.656   3.729   3.516  0.2079  0.5488 -0.3189
 4252TIP3    H112762   5.682   3.821   3.530 -0.8832  1.3188 -2.7750
 4252TIP3    H212763   5.566   3.724   3.548  0.4446  0.1763  0.2990
 4253TIP3   OH212764   4.713   3.179   1.919  0.2800 -0.1044  0.2350
 4253TIP3    H112765   4.619   3.162   1.914  0.1399  0.8918 -0.9604
 4253TIP3    H212766   4.733   3.226   1.838  1.5864  0.7104  0.9951
 4254TIP3   OH212767   0.900   0.007   0.212  0.2108 -0.2157  0.2125
 4254TIP3    H112768   0.829   0.019   0.275  0.5179 -1.3466  0.8142
 4254TIP3    H212769   0.936   0.094   0.199  0.1651  0.0466  1.6441
 4255TIP3   OH212770   1.748   5.470   2.300  0.4294 -0.1922 -0.7013
 4255TIP3    H112771   1.733   5.379   2.326 -1.2327  0.2206 -0.0668
 4255TIP3    H212772   1.784   5.511   2.378 -0.7493  0.1261 -0.2966
 4256TIP3   OH212773   0.707   3.988   0.325 -0.3187 -0.2148  0.1183
 4256TIP3    H112774   0.635   4.010   0.266 -0.0809 -0.8834 -0.4298
 4256TIP3    H212775   0.683   3.903   0.362 -0.4761  0.2059  1.0125
 4257TIP3   OH212776   6.146   1.648   1.603  0.3153  0.2938 -0.0208
 4257TIP3    H112777   6.111   1.727   1.645 -0.0161  0.8468 -1.3038
 4257TIP3    H212778   6.076   1.618   1.545  0.5267 -0.8215  0.2733
 4258TIP3   OH212779   1.530   0.972   0.311  0.0188 -0.4811 -0.3132
 4258TIP3    H112780   1.504   0.889   0.350  0.0119 -0.8227 -1.0241
 4258TIP3    H212781   1.459   0.994   0.250  0.7187 -0.7211 -1.2380
 4259TIP3   OH212782   5.179   1.883   1.085  0.0856 -0.6424  0.1576
 4259TIP3    H112783   5.146   1.938   1.014 -0.1588 -1.1246 -0.1114
 4259TIP3    H212784   5.100   1.852   1.129  0.2216 -0.8003  0.2888
 4260TIP3   OH212785   6.111   3.382   2.155 -0.3324  0.0323 -0.3475
 4260TIP3    H112786   6.080   3.386   2.065  0.6446  0.5221 -0.6755
 4260TIP3    H212787   6.207   3.383   2.148 -0.2332  1.1426  0.7246
 4261TIP3   OH212788   5.688   4.995   0.775 -0.4261 -0.2304 -0.6025
 4261TIP3    H112789   5.716   4.920   0.827 -0.8127  0.6053  0.8672
 4261TIP3    H212790   5.739   4.989   0.694  0.1197 -1.6219 -0.1770
 4262TIP3   OH212791   1.026   2.808   3.276  0.9032 -0.0029  0.6860
 4262TIP3    H112792   0.937   2.825   3.307 -0.1961 -0.4629 -1.9340
 4262TIP3    H212793   1.057   2.736   3.331 -0.5149 -0.1435  1.3519
 4263TIP3   OH212794   4.228   3.308   5.086 -0.5523  0.2140  0.0975
 4263TIP3    H112795   4.258   3.221   5.114 -0.3239  0.5426  0.8925
 4263TIP3    H212796   4.160   3.290   5.021 -0.8296 -0.5660  0.5861
 4264TIP3   OH212797   5.156   0.196   2.830 -0.6445 -0.5032 -0.0827
 4264TIP3    H112798   5.065   0.220   2.809 -0.6210 -0.6530 -0.3573
 4264TIP3    H212799   5.209   0.263   2.785 -0.6593  0.6110  1.4555
 4265TIP3   OH212800   2.151   1.527   0.142 -0.2271 -0.3329  0.4841
 4265TIP3    H112801   2.130   1.551   0.052  0.7247  0.7229  0.5101
 4265TIP3    H212802   2.067   1.524   0.187 -0.8074 -1.8363 -0.6423
 4266TIP3   OH212803   1.714   4.214   3.641 -0.5128  0.2726 -0.0824
 4266TIP3    H112804   1.786   4.275   3.660 -1.0396  1.1169 -0.6830
 4266TIP3    H212805   1.685   4.239   3.553 -2.0703  0.5109  0.4738
 4267TIP3   OH212806   2.558   2.256   0.290 -0.0391 -0.1219 -1.1555
 4267TIP3    H112807   2.541   2.339   0.335  0.6742  0.4489 -1.8996
 4267TIP3    H212808   2.531   2.189   0.352 -0.0083  0.6569 -0.2755
 4268TIP3   OH212809   4.586   1.453   0.170  0.2254  0.3694  0.3452
 4268TIP3    H112810   4.637   1.432   0.249 -1.2019 -0.4003  1.0909
 4268TIP3    H212811   4.646   1.433   0.098  0.7603 -1.2455  1.1809
 4269TIP3   OH212812   1.091   5.849   4.007 -0.2140  0.6852 -0.6115
 4269TIP3    H112813   1.062   5.823   3.920 -3.7966  0.9572  0.3374
 4269TIP3    H212814   1.150   5.923   3.992 -0.6026  0.6162 -2.7800
 4270TIP3   OH212815   3.953   0.234   3.793  0.5642  0.3613  0.0468
 4270TIP3    H112816   3.971   0.144   3.767  1.0184  0.6350 -0.6086
 4270TIP3    H212817   3.864   0.231   3.829 -0.1329 -0.0414 -1.5945
 4271TIP3   OH212818   2.537   4.216   2.908  0.2203  0.0962  0.2047
 4271TIP3    H112819   2.595   4.239   2.981 -0.9253 -0.2804  1.2669
 4271TIP3    H212820   2.488   4.296   2.890  1.2462  0.5131 -0.9141
 4272TIP3   OH212821   3.686   4.647   4.105 -0.3259  0.1316 -0.0677
 4272TIP3    H112822   3.714   4.594   4.179  0.7953  0.3712 -0.3130
 4272TIP3    H212823   3.689   4.737   4.137  0.7274  0.2867 -0.5620
 4273TIP3   OH212824   5.478   3.547   2.950  0.0802  0.0114  0.0221
 4273TIP3    H112825   5.503   3.482   2.885  0.5831 -0.1368  0.3615
 4273TIP3    H212826   5.493   3.631   2.906  1.8332 -0.0456  0.4248
 4274TIP3   OH212827   0.971   5.586   2.329 -0.2518 -0.9061 -0.2088
 4274TIP3    H112828   0.975   5.498   2.290 -0.9965 -0.8631 -0.3862
 4274TIP3    H212829   0.878   5.607   2.332 -0.0849 -0.1751 -0.0304
 4275TIP3   OH212830   3.607   4.047   3.028 -0.3220 -0.4288 -0.0375
 4275TIP3    H112831   3.630   4.127   2.981  0.6544  0.4422  1.7994
 4275TIP3    H212832   3.512   4.048   3.032 -0.3372  1.9546  1.9183
 4276TIP3   OH212833   0.187   0.406   1.601 -0.8415 -0.2372 -0.2892
 4276TIP3    H112834   0.138   0.414   1.683 -2.6021 -1.1391 -1.1882
 4276TIP3    H212835   0.120   0.411   1.533 -0.1413 -4.1976 -1.5173
 4277TIP3   OH212836   2.297   1.873   5.178  0.1563 -0.0060 -0.2082
 4277TIP3    H112837   2.375   1.881   5.123  0.1402  2.1278 -0.0142
 4277TIP3    H212838   2.314   1.797   5.233  1.5520 -0.3148 -1.0108
 4278TIP3   OH212839   0.590   0.970   4.232 -0.8936  0.6820  0.5226
 4278TIP3    H112840   0.682   0.947   4.246 -1.3653 -2.0229 -0.1788
 4278TIP3    H212841   0.571   1.037   4.297  1.0907 -0.0579  1.9341
 4279TIP3   OH212842   5.407   4.836   4.224  0.0786 -0.0949 -0.2557
 4279TIP3    H112843   5.461   4.832   4.303 -0.1005 -1.8209 -0.1699
 4279TIP3    H212844   5.463   4.877   4.158  0.5338  0.5726  0.5394
 4280TIP3   OH212845   0.389   0.798   2.726 -0.3843  0.4121 -0.2456
 4280TIP3    H112846   0.405   0.882   2.768  1.1114  1.8019 -3.3105
 4280TIP3    H212847   0.474   0.755   2.725 -0.8722 -0.5965  0.1445
 4281TIP3   OH212848   1.524   5.079   1.541  0.6127 -0.2780 -0.2739
 4281TIP3    H112849   1.521   5.080   1.445 -0.2357 -1.2475 -0.2785
 4281TIP3    H212850   1.507   4.987   1.564  0.1558  0.0733  0.8212
 4282TIP3   OH212851   6.046   1.601   2.263  0.8482 -0.4834 -0.0430
 4282TIP3    H112852   6.075   1.692   2.256  1.4483 -0.7849 -2.5276
 4282TIP3    H212853   6.050   1.581   2.357  2.5111  1.4622  0.3574
 4283TIP3   OH212854   4.746   2.651   1.896 -0.4064 -0.4038 -0.0964
 4283TIP3    H112855   4.751   2.588   1.823  1.1154  1.2290 -1.4907
 4283TIP3    H212856   4.837   2.673   1.914 -0.8758  0.7698  0.9475
 4284TIP3   OH212857   5.285   4.197   2.989 -0.1355 -0.1016  0.5838
 4284TIP3    H112858   5.282   4.238   3.075  1.3819 -1.0612  1.1503
 4284TIP3    H212859   5.199   4.213   2.950 -1.4548 -1.0493  2.9435
 4285TIP3   OH212860  -0.009   2.955   1.851 -0.2095  0.1949  0.2371
 4285TIP3    H112861   0.017   3.047   1.851  0.9283 -0.1050  0.1374
 4285TIP3    H212862   0.065   2.909   1.811 -2.0627 -0.4528 -2.6969
 4286TIP3   OH212863   3.906   2.466   3.609 -0.5619 -0.6744 -0.4301
 4286TIP3    H112864   3.902   2.436   3.519  1.6856  0.4804 -0.9869
 4286TIP3    H212865   3.915   2.386   3.661 -0.8322 -1.2901 -1.3064
 4287TIP3   OH212866   2.583   1.732   3.379  0.2701 -0.0745  0.0061
 4287TIP3    H112867   2.504   1.758   3.332  1.4038  2.6517 -0.5886
 4287TIP3    H212868   2.565   1.752   3.471  0.4469  1.0941 -0.2038
 4288TIP3   OH212869   1.922   2.624   2.432  0.6286 -0.2517  0.2889
 4288TIP3    H112870   1.886   2.682   2.499  0.1827 -0.0209 -0.1431
 4288TIP3    H212871   1.999   2.586   2.473  1.3688  1.2064  0.3361
 4289TIP3   OH212872   5.366   3.599   3.379 -0.6487  0.5680  0.2698
 4289TIP3    H112873   5.322   3.574   3.298 -0.3611 -1.0563  0.5735
 4289TIP3    H212874   5.457   3.572   3.365 -0.2700  1.6242  0.5946
 4290TIP3   OH212875   0.459   1.492   0.804 -0.4742 -0.4427  0.0421
 4290TIP3    H112876   0.463   1.585   0.779 -0.8121 -0.2299  0.7678
 4290TIP3    H212877   0.540   1.455   0.768 -0.0655  0.2521  0.2110
 4291TIP3   OH212878   3.600   1.444   3.329  0.1209  0.1414  0.4658
 4291TIP3    H112879   3.546   1.470   3.405  0.2155  0.5963  0.3834
 4291TIP3    H212880   3.545   1.464   3.253  0.6525  1.2723  0.3489
 4292TIP3   OH212881   3.215   3.154   0.117  0.4040 -0.0121  0.3235
 4292TIP3    H112882   3.309   3.144   0.104  0.4202 -0.2962  0.6531
 4292TIP3    H212883   3.200   3.127   0.207 -0.0048 -0.0370  0.2499
 4293TIP3   OH212884   5.514   5.642   2.998 -0.0668  0.0213 -0.4956
 4293TIP3    H112885   5.461   5.589   2.939 -0.5808  1.5786 -1.5072
 4293TIP3    H212886   5.481   5.731   2.986  0.2037  0.4776  1.7449
 4294TIP3   OH212887   6.075   4.178   1.972 -0.0663 -0.0736 -0.3035
 4294TIP3    H112888   6.078   4.083   1.982  1.2857 -0.1306 -1.0321
 4294TIP3    H212889   6.008   4.193   1.906  0.2308 -0.5872 -0.7333
 4295TIP3   OH212890   5.818   3.022   2.852 -0.2389 -0.7232 -0.3659
 4295TIP3    H112891   5.864   3.031   2.936 -0.3697 -0.4174 -0.3294
 4295TIP3    H212892   5.741   3.078   2.860  0.9271  1.1473 -1.5321
 4296TIP3   OH212893   3.961   0.248   0.971 -0.4521 -0.4178  0.2676
 4296TIP3    H112894   3.975   0.199   1.052 -1.7884 -2.1363 -0.4751
 4296TIP3    H212895   4.010   0.199   0.905 -0.1051  0.4598 -0.1516
 4297TIP3   OH212896   0.373   1.018   1.953 -0.0479  0.5919 -0.2516
 4297TIP3    H112897   0.409   1.017   2.042 -0.7901  1.4438  0.0687
 4297TIP3    H212898   0.420   1.089   1.909  0.0076  0.4549 -0.4153
 4298TIP3   OH212899   3.893   0.472   0.530 -0.0200  0.3903  0.0494
 4298TIP3    H112900   3.932   0.449   0.446 -1.2521 -0.0854 -0.3979
 4298TIP3    H212901   3.955   0.535   0.568  1.2322 -0.4025 -0.5935
 4299TIP3   OH212902   5.462   0.160   2.930 -0.1557  0.4896 -0.1822
 4299TIP3    H112903   5.369   0.165   2.953 -0.4350 -2.4554 -0.2629
 4299TIP3    H212904   5.465   0.098   2.858  1.7780  1.6647 -1.1811
 4300TIP3   OH212905   5.106   2.230   2.836  0.0615  0.4232  0.4174
 4300TIP3    H112906   5.069   2.181   2.763 -0.4755  1.0233  0.2756
 4300TIP3    H212907   5.077   2.182   2.914  0.0572  0.1717  0.2624
 4301TIP3   OH212908   1.978   0.486   3.005  0.0796 -0.1945  0.1458
 4301TIP3    H112909   2.046   0.535   2.959 -0.5944  0.9005  0.2958
 4301TIP3    H212910   2.024   0.445   3.079  0.9011 -0.8913 -0.7341
 4302TIP3   OH212911   4.317   2.151   1.680  0.0881 -0.9210  0.1052
 4302TIP3    H112912   4.389   2.188   1.731 -0.5307 -0.4320  0.6382
 4302TIP3    H212913   4.239   2.195   1.713 -0.2749 -0.2042 -1.6094
 4303TIP3   OH212914   3.512   2.131   0.546 -0.1578  0.5391 -0.4247
 4303TIP3    H112915   3.425   2.097   0.566  0.2648  0.3547  1.2372
 4303TIP3    H212916   3.572   2.071   0.589  0.7049  1.8229  0.2388
 4304TIP3   OH212917   6.128   1.267   2.713 -1.0592  0.0381 -0.1013
 4304TIP3    H112918   6.142   1.278   2.807 -0.3944  1.1821 -0.3009
 4304TIP3    H212919   6.144   1.174   2.697 -0.8870 -0.1156  0.8661
 4305TIP3   OH212920   2.802   4.100   2.125  0.0928 -0.4613 -0.3030
 4305TIP3    H112921   2.709   4.092   2.102  0.1981  1.7028 -1.7754
 4305TIP3    H212922   2.838   4.013   2.108 -1.2703 -0.7766 -1.8017
 4306TIP3   OH212923   5.056   0.089   0.545  0.0499 -0.3792 -0.0843
 4306TIP3    H112924   4.993   0.151   0.508  0.4621 -0.2837 -0.6364
 4306TIP3    H212925   5.002   0.029   0.597 -0.4453 -0.0382 -0.1920
 4307TIP3   OH212926   4.186   1.756   0.409 -0.1205 -0.3565  0.0080
 4307TIP3    H112927   4.189   1.770   0.503 -0.2902  0.3554 -0.0874
 4307TIP3    H212928   4.249   1.686   0.392  0.8901  0.4265  0.4802
 4308TIP3   OH212929   3.471   2.490   4.887 -0.0825  0.2617  0.2668
 4308TIP3    H112930   3.513   2.405   4.899 -0.5016 -0.0722 -0.6070
 4308TIP3    H212931   3.482   2.534   4.972  0.4493 -0.5132  0.6101
 4309TIP3   OH212932   0.235   2.108   3.891  0.0732  0.2492 -0.4034
 4309TIP3    H112933   0.214   2.018   3.915  1.8658  0.3025  1.7331
 4309TIP3    H212934   0.254   2.151   3.974  1.5898  1.9455 -1.5390
 4310TIP3   OH212935   2.292   4.989   0.936  0.0426 -0.6397 -0.0776
 4310TIP3    H112936   2.289   4.899   0.966  0.3911 -0.5067  0.3624
 4310TIP3    H212937   2.233   5.036   0.994 -1.1700 -0.8085 -1.1302
 4311TIP3   OH212938   1.656   4.024   0.784 -0.0672  0.0939  0.0493
 4311TIP3    H112939   1.620   3.985   0.864 -1.4222  0.9164 -0.1290
 4311TIP3    H212940   1.692   4.108   0.812  0.7934 -0.2555  0.0315
 4312TIP3   OH212941   4.988   0.407   4.307 -0.5751  0.2041 -0.5716
 4312TIP3    H112942   4.927   0.334   4.319 -0.1729 -0.1241 -0.5157
 4312TIP3    H212943   4.941   0.467   4.250 -1.3253  0.3906  0.2119
 4313TIP3   OH212944   4.253   3.669   3.248  0.2728 -0.0853 -0.0334
 4313TIP3    H112945   4.298   3.675   3.164 -1.7386 -2.3026 -1.4314
 4313TIP3    H212946   4.163   3.696   3.229 -0.4115 -1.3199  1.1981
 4314TIP3   OH212947   6.275   2.402  -0.014  0.0297 -0.5099  0.5157
 4314TIP3    H112948   6.238   2.419   0.072 -0.9165 -2.1966  0.4996
 4314TIP3    H212949   6.291   2.488  -0.052 -1.0447  0.2542  1.7395
 4315TIP3   OH212950   6.164   1.782   4.741  0.4285  0.0238  0.5732
 4315TIP3    H112951   6.121   1.832   4.810 -0.5130  1.1159 -0.7561
 4315TIP3    H212952   6.256   1.781   4.766 -0.0637 -0.7599  2.5199
 4316TIP3   OH212953   0.905   1.185   1.768 -0.0280 -0.3036  0.0586
 4316TIP3    H112954   0.889   1.215   1.857  1.5418 -0.0840  0.2967
 4316TIP3    H212955   0.821   1.149   1.739 -1.5171  2.6831  0.3816
 4317TIP3   OH212956   4.055   4.808   1.151 -0.0995  0.2795 -0.8124
 4317TIP3    H112957   4.003   4.883   1.180 -0.3208  0.5444 -1.8483
 4317TIP3    H212958   4.145   4.832   1.172 -0.4133 -0.5917  1.8936
 4318TIP3   OH212959   1.221   1.562   1.572  0.6217 -0.3260 -0.2840
 4318TIP3    H112960   1.181   1.579   1.486 -0.1361 -0.7333 -0.0156
 4318TIP3    H212961   1.161   1.501   1.615  0.7265  0.2735  0.7432
 4319TIP3   OH212962   5.045   3.027   4.812  0.0397  0.1287 -0.2513
 4319TIP3    H112963   5.072   3.063   4.728 -1.3078  0.1803 -0.6764
 4319TIP3    H212964   4.995   2.948   4.790 -2.1829  1.2857  0.3394
 4320TIP3   OH212965   5.406   0.031   3.722  0.3035 -0.6154 -0.1418
 4320TIP3    H112966   5.410  -0.064   3.716 -0.8221 -0.6450 -0.7470
 4320TIP3    H212967   5.375   0.059   3.635 -0.0709  0.2409  0.2575
 4321TIP3   OH212968  -0.002   5.242   4.410  0.0637 -0.1424  0.6317
 4321TIP3    H112969   0.073   5.292   4.379 -1.0919  1.9353  0.9763
 4321TIP3    H212970   0.030   5.193   4.485  0.8712  1.5003  1.4074
 4322TIP3   OH212971   4.485   4.046   3.825  0.0457  0.5598  0.0704
 4322TIP3    H112972   4.569   4.029   3.784  0.8180 -0.6109  1.9943
 4322TIP3    H212973   4.437   3.963   3.817  0.7467 -0.1832  2.5804
 4323TIP3   OH212974   2.012   4.803   1.415 -0.0643 -0.2811 -0.0837
 4323TIP3    H112975   1.953   4.747   1.465 -0.6895  0.4939  0.0729
 4323TIP3    H212976   1.977   4.802   1.326 -0.6757  0.6131  0.1224
 4324TIP3   OH212977   0.155   5.737   1.957  0.2273 -0.3692 -0.1013
 4324TIP3    H112978   0.231   5.728   1.899  0.8615 -1.7179  0.8709
 4324TIP3    H212979   0.095   5.668   1.928 -0.4819  0.4451 -0.6185
 4325TIP3   OH212980   2.664   0.863   0.947 -0.1176 -0.4210  0.1245
 4325TIP3    H112981   2.611   0.816   0.883 -0.5512 -0.5977  0.6118
 4325TIP3    H212982   2.738   0.805   0.964  1.7285  0.9320 -2.5622
 4326TIP3   OH212983   3.401   4.364   0.465 -0.5556 -0.1406 -0.1451
 4326TIP3    H112984   3.480   4.340   0.513 -0.8159  0.7430  0.7713
 4326TIP3    H212985   3.401   4.460   0.466 -2.1186 -0.1203  0.7195
 4327TIP3   OH212986   4.105   3.428   3.428  0.3878  0.0507  0.4258
 4327TIP3    H112987   4.038   3.419   3.496 -0.4415  3.0098  0.1637
 4327TIP3    H212988   4.076   3.370   3.357 -1.1861  0.2569  0.8677
 4328TIP3   OH212989   6.037   3.705   1.681  0.1670  0.1995  0.3287
 4328TIP3    H112990   6.006   3.714   1.591 -0.3856 -0.8752  0.3998
 4328TIP3    H212991   6.131   3.723   1.676  0.1431  0.1252 -0.4635
 4329TIP3   OH212992   1.354   5.650   4.810 -0.3116  0.3952 -0.3428
 4329TIP3    H112993   1.354   5.578   4.874  2.2098  0.2740 -0.3630
 4329TIP3    H212994   1.342   5.607   4.726  2.4454 -0.2982 -0.4964
 4330TIP3   OH212995   0.255   1.384   4.848 -0.0078 -0.0788 -0.3783
 4330TIP3    H112996   0.281   1.475   4.865 -0.9429  0.5637 -2.1899
 4330TIP3    H212997   0.330   1.333   4.877  1.1637  1.3720 -0.6890
 4331TIP3   OH212998   0.187   5.121   2.801  0.7288  0.0820 -0.0691
 4331TIP3    H112999   0.210   5.194   2.858 -0.3889  0.6210 -0.2974
 4331TIP3    H213000   0.261   5.060   2.810  0.2860 -0.2052  2.5015
 4332TIP3   OH213001   5.717   5.672   0.257 -0.0145  0.5680 -0.1117
 4332TIP3    H113002   5.714   5.764   0.231  0.2723  0.2956 -1.1549
 4332TIP3    H213003   5.626   5.649   0.274 -0.0880  1.0422  0.1774
 4333TIP3   OH213004   0.647   5.918   3.192  0.1202  0.4136 -0.1863
 4333TIP3    H113005   0.730   5.883   3.224 -0.5735 -2.1001 -0.9034
 4333TIP3    H213006   0.660   6.012   3.189  2.6447  0.1542  0.5323
 4334TIP3   OH213007   4.068   0.808   4.480 -0.0859 -0.3784 -0.3124
 4334TIP3    H113008   4.077   0.903   4.489  2.8224 -0.5780  0.0682
 4334TIP3    H213009   3.985   0.787   4.522  0.2033  1.8126  1.5327
 4335TIP3   OH213010   1.581   0.565   1.231 -0.1245 -0.0541 -0.9588
 4335TIP3    H113011   1.551   0.585   1.319 -1.0602 -0.7124 -1.1170
 4335TIP3    H213012   1.530   0.623   1.174  1.0172  0.9154 -1.0293
 4336TIP3   OH213013   2.895   2.939   2.042  0.0362  0.4312  0.3289
 4336TIP3    H113014   2.939   2.910   2.123 -0.5585 -0.8504  0.2234
 4336TIP3    H213015   2.904   2.864   1.983 -0.0342  1.1451 -0.5967
 4337TIP3   OH213016   5.119   3.729   4.632  0.5957  0.5289 -0.5618
 4337TIP3    H113017   5.195   3.787   4.631  1.4560 -0.4877  0.9077
 4337TIP3    H213018   5.094   3.724   4.725  0.5850 -1.4283 -0.6176
 4338TIP3   OH213019   3.759   5.566   0.375  0.4220 -0.4105 -0.2499
 4338TIP3    H113020   3.670   5.540   0.351 -0.8205  2.0970  1.2879
 4338TIP3    H213021   3.764   5.555   0.469  1.4208  0.3875 -0.1863
 4339TIP3   OH213022   2.545   3.331   2.009  0.2402  0.2513  0.2623
 4339TIP3    H113023   2.545   3.331   1.913 -1.8211  1.7771  0.1875
 4339TIP3    H213024   2.580   3.246   2.032 -0.2895 -0.6387 -1.8945
 4340TIP3   OH213025   6.340   3.296   2.677  0.2782  0.4082  0.4040
 4340TIP3    H113026   6.250   3.271   2.695 -0.1382  2.0272  0.7038
 4340TIP3    H213027   6.392   3.220   2.705 -0.8731  0.0156  1.5749
 4341TIP3   OH213028   3.691   3.218   3.764 -0.2008  0.2863 -0.0150
 4341TIP3    H113029   3.664   3.212   3.673 -2.4449  0.2196  0.6034
 4341TIP3    H213030   3.637   3.287   3.801  0.8107  0.4485  1.2454
 4342TIP3   OH213031   2.931   5.510   4.246 -0.2386 -0.3497  0.3683
 4342TIP3    H113032   2.987   5.583   4.273 -0.0023  0.0245 -1.0639
 4342TIP3    H213033   2.872   5.496   4.320  0.9297  0.0707  1.3992
 4343TIP3   OH213034   2.734   2.548   2.781  0.3723 -0.3862  0.1988
 4343TIP3    H113035   2.726   2.454   2.769  0.6476 -0.6026  1.5349
 4343TIP3    H213036   2.666   2.586   2.726 -0.6443 -1.4427  0.6960
 4344TIP3   OH213037   3.985   2.876   4.349  0.8476  0.4040  0.0913
 4344TIP3    H113038   3.932   2.800   4.327  1.0823  0.2267  0.1275
 4344TIP3    H213039   3.938   2.918   4.422 -0.0888  1.1711 -0.9307
 4345TIP3   OH213040   0.987   2.120   1.805  0.0347 -0.0428  0.3958
 4345TIP3    H113041   0.977   2.063   1.881 -0.4777 -0.8588 -0.2699
 4345TIP3    H213042   0.970   2.063   1.730 -1.0716  1.1156 -0.2652
 4346TIP3   OH213043   2.901   3.221   3.795 -0.3099  0.1216  0.1875
 4346TIP3    H113044   2.970   3.263   3.845  0.5852 -1.5437  0.4058
 4346TIP3    H213045   2.940   3.205   3.709 -0.8948  0.4255 -0.1411
 4347TIP3   OH213046   2.511   1.438   1.671 -0.6890  0.2160 -0.1280
 4347TIP3    H113047   2.453   1.498   1.719 -0.1636  1.0709 -0.5594
 4347TIP3    H213048   2.557   1.493   1.608 -0.8372 -0.7828 -1.1377
 4348TIP3   OH213049   3.689   2.904   1.538 -0.1416  0.2337  0.3837
 4348TIP3    H113050   3.654   2.815   1.530  1.7856 -0.6402  1.1758
 4348TIP3    H213051   3.674   2.942   1.451 -0.5674 -1.0253 -0.1319
 4349TIP3   OH213052   1.112   1.738   5.048  0.6795 -0.1306 -0.2324
 4349TIP3    H113053   1.145   1.667   4.993 -0.1619 -0.1451 -0.7377
 4349TIP3    H213054   1.173   1.742   5.122  0.1849 -2.0632  0.3370
 4350TIP3   OH213055   1.594   4.220   3.391 -0.0600  0.3581  0.3678
 4350TIP3    H113056   1.613   4.272   3.314  1.5630  0.0364  0.4983
 4350TIP3    H213057   1.578   4.132   3.358 -1.4974  0.6517  0.2486
 4351TIP3   OH213058   2.445   1.704   4.096 -0.1157 -0.8886  0.4254
 4351TIP3    H113059   2.350   1.698   4.095 -0.1412 -0.7618 -1.7414
 4351TIP3    H213060   2.473   1.630   4.150 -1.3980 -2.1675 -0.5858
 4352TIP3   OH213061   0.281   0.556   0.526 -0.0912 -0.1027  0.0408
 4352TIP3    H113062   0.366   0.582   0.490  0.0207  0.9837  1.0148
 4352TIP3    H213063   0.294   0.560   0.621 -1.2775  0.2572  0.2015
 4353TIP3   OH213064   0.966   1.305   2.491 -0.3993 -0.1525  0.1510
 4353TIP3    H113065   0.920   1.369   2.544 -1.5562  0.4984 -1.5427
 4353TIP3    H213066   0.977   1.348   2.406 -1.5475 -2.2582 -1.1624
 4354TIP3   OH213067   3.692   2.060   2.557 -0.3116 -0.4913 -0.0173
 4354TIP3    H113068   3.767   2.041   2.614 -1.8561 -0.8890  1.9852
 4354TIP3    H213069   3.616   2.035   2.609 -1.9554  1.6505 -1.2453
 4355TIP3   OH213070   1.942   2.160   1.565 -0.0960  0.8877 -0.3743
 4355TIP3    H113071   1.876   2.112   1.514 -1.4476  1.3755  0.8628
 4355TIP3    H213072   2.018   2.163   1.507 -1.1085  0.2196 -1.8202
 4356TIP3   OH213073   0.019   0.937   1.479 -0.1492  0.4648  0.4148
 4356TIP3    H113074   0.067   0.971   1.555 -0.3132  1.1704  0.2172
 4356TIP3    H213075   0.011   1.013   1.421 -0.6362  0.1071  0.0075
 4357TIP3   OH213076   6.178   4.402   1.636 -0.2190 -0.0744  0.2710
 4357TIP3    H113077   6.161   4.385   1.543 -1.7051  2.2045  0.0353
 4357TIP3    H213078   6.228   4.326   1.666  2.1827  0.0700 -2.8835
 4358TIP3   OH213079   2.816   1.708   3.211 -0.1377 -0.1025  0.6377
 4358TIP3    H113080   2.785   1.628   3.168 -0.6689  0.0469  0.7290
 4358TIP3    H213081   2.744   1.733   3.269  0.1642  0.2558  0.8635
 4359TIP3   OH213082   1.541   2.639   0.978 -0.4598 -0.0788  0.0413
 4359TIP3    H113083   1.548   2.730   0.949 -1.6852  0.0066 -0.0209
 4359TIP3    H213084   1.626   2.601   0.957 -0.4491  0.6446 -1.3448
 4360TIP3   OH213085   4.985   1.248   2.207  0.4836 -0.3178 -0.1052
 4360TIP3    H113086   4.990   1.279   2.116 -0.3225  0.6543  0.1756
 4360TIP3    H213087   5.077   1.240   2.234  0.7214  0.4475 -0.6461
 4361TIP3   OH213088   5.572   5.587   0.968  0.0754 -0.1677 -0.2227
 4361TIP3    H113089   5.645   5.535   1.003 -0.0695 -0.4191 -0.2897
 4361TIP3    H213090   5.613   5.641   0.900  0.1716 -0.4341 -0.3806
 4362TIP3   OH213091   2.891   0.561   4.466 -0.4993  0.3623  0.1760
 4362TIP3    H113092   2.930   0.629   4.521  0.8579 -0.2889  0.0521
 4362TIP3    H213093   2.937   0.568   4.383 -2.0385  0.8606 -0.6729
 4363TIP3   OH213094   5.043   5.951   1.787 -0.0509 -0.3596  0.4064
 4363TIP3    H113095   4.991   5.949   1.706 -0.9820  0.2722  0.9535
 4363TIP3    H213096   4.988   6.001   1.848  1.1701  0.2369  1.0531
 4364TIP3   OH213097   3.046   5.120   1.901 -0.2762 -0.3035 -0.4073
 4364TIP3    H113098   3.047   5.197   1.844 -1.9679  1.0377  1.2205
 4364TIP3    H213099   3.019   5.048   1.844  1.7498  0.1523 -2.0622
 4365TIP3   OH213100   2.680   5.756   4.553  0.6360  0.6170  0.3072
 4365TIP3    H113101   2.761   5.787   4.595  0.4431  0.4794  0.7869
 4365TIP3    H213102   2.650   5.684   4.609  0.6468  0.0954 -0.3530
 4366TIP3   OH213103   3.121   3.875   4.069 -0.2522  0.2436 -0.1629
 4366TIP3    H113104   3.127   3.861   3.975 -0.3732 -0.8506 -0.0178
 4366TIP3    H213105   3.029   3.859   4.090  0.2417 -1.9897  0.5003
 4367TIP3   OH213106   5.973   4.500   0.356  0.0318  0.3099 -0.4152
 4367TIP3    H113107   5.973   4.517   0.262 -0.2893 -1.4780 -0.7814
 4367TIP3    H213108   5.884   4.522   0.384  0.5061  2.1468 -0.2254
 4368TIP3   OH213109   3.409   1.565   2.658  0.1572 -0.8591  0.2607
 4368TIP3    H113110   3.330   1.605   2.622 -0.3014 -2.0273 -0.0819
 4368TIP3    H213111   3.427   1.490   2.601  0.8462 -1.2885  1.0080
 4369TIP3   OH213112   2.479   2.003   3.143  0.2937 -1.0562  0.1810
 4369TIP3    H113113   2.395   1.966   3.172 -0.5611  0.1466 -0.6485
 4369TIP3    H213114   2.526   2.023   3.224 -0.7010 -0.7192  0.7004
 4370TIP3   OH213115   5.609   2.645   1.358  0.3836 -0.7224 -0.7591
 4370TIP3    H113116   5.613   2.706   1.432 -3.6427 -0.0718 -0.8318
 4370TIP3    H213117   5.632   2.698   1.282 -0.0709 -0.0562 -0.4537
 4371TIP3   OH213118   1.305   0.561   0.973  0.2485  0.6673  0.2192
 4371TIP3    H113119   1.286   0.583   0.882  1.3761  1.9058  0.2515
 4371TIP3    H213120   1.325   0.645   1.015  0.7382  0.0071  1.3671
 4372TIP3   OH213121   3.840   1.083   1.273 -0.1205  0.0895  0.3834
 4372TIP3    H113122   3.901   1.024   1.317 -0.6506 -0.5149  0.3277
 4372TIP3    H213123   3.765   1.028   1.252  0.1139  0.3433 -1.2851
 4373TIP3   OH213124   4.160   0.737   0.633  0.5546 -0.0627  0.0712
 4373TIP3    H113125   4.214   0.812   0.610 -0.5486  1.2577  1.5911
 4373TIP3    H213126   4.082   0.775   0.672  0.5912 -1.9980  2.2505
 4374TIP3   OH213127   6.136   5.222   1.720  0.0804  0.1069  0.2621
 4374TIP3    H113128   6.177   5.137   1.702  1.4403  0.7388  0.2774
 4374TIP3    H213129   6.104   5.252   1.636  0.1141 -0.1654  0.1506
 4375TIP3   OH213130   4.623   0.377   3.832 -0.2526 -0.6272  0.1746
 4375TIP3    H113131   4.604   0.465   3.802 -0.5216 -0.6144  0.3770
 4375TIP3    H213132   4.550   0.355   3.891  0.6823 -0.3296  1.4775
 4376TIP3   OH213133   5.403   5.391   2.393 -0.1745  0.6974 -0.2219
 4376TIP3    H113134   5.465   5.446   2.347 -0.0369 -0.2942 -1.2900
 4376TIP3    H213135   5.371   5.330   2.326  1.4666 -2.1012  1.3378
 4377TIP3   OH213136   4.576   2.898   0.272  0.0886 -0.1904 -0.9031
 4377TIP3    H113137   4.640   2.901   0.201 -1.4137  1.4986 -2.2651
 4377TIP3    H213138   4.596   2.976   0.324 -1.2803  0.7743 -1.7708
 4378TIP3   OH213139   6.058   3.700   0.511  0.0681 -0.0526  0.2305
 4378TIP3    H113140   6.141   3.651   0.509  0.1047 -0.1655  2.3047
 4378TIP3    H213141   6.085   3.791   0.512  0.1827 -0.0882  0.8306
 4379TIP3   OH213142   4.787   5.808   1.668 -0.6665 -0.0630 -0.4127
 4379TIP3    H113143   4.718   5.833   1.606 -0.2784  2.4685  0.0499
 4379TIP3    H213144   4.864   5.794   1.614 -1.1654 -1.5534 -0.7968
 4380TIP3   OH213145   2.131   4.194   2.879  0.1536 -0.1061 -0.2967
 4380TIP3    H113146   2.043   4.231   2.881 -0.8225 -2.2735 -0.6009
 4380TIP3    H213147   2.148   4.176   2.787  1.8006  2.1025 -0.5203
 4381TIP3   OH213148   1.802   0.849   4.031 -0.3690 -0.1893 -0.0032
 4381TIP3    H113149   1.718   0.890   4.010 -0.0868  1.5053  1.9147
 4381TIP3    H213150   1.783   0.789   4.103  0.1916  1.1021  1.2844
 4382TIP3   OH213151   6.239   5.277   0.804  0.3034  0.0018  0.0001
 4382TIP3    H113152   6.221   5.321   0.720 -0.4698  1.1259  0.7337
 4382TIP3    H213153   6.229   5.345   0.870 -1.9235 -1.4776  1.3013
 4383TIP3   OH213154   0.993   1.273   2.161  0.2751  0.3171 -0.1821
 4383TIP3    H113155   1.012   1.187   2.198  1.0926  0.7959  0.5495
 4383TIP3    H213156   0.912   1.260   2.111 -0.9679 -0.3394  1.8656
 4384TIP3   OH213157   0.169   5.337   2.990 -0.6366  0.0257  0.4525
 4384TIP3    H113158   0.093   5.396   2.996  0.5822  1.8670 -0.8955
 4384TIP3    H213159   0.233   5.375   3.051  0.4401  0.6303 -0.9782
 4385TIP3   OH213160   1.161   1.746   0.285  0.2472 -0.0410 -0.2524
 4385TIP3    H113161   1.176   1.655   0.260  0.3305 -0.5785  1.5974
 4385TIP3    H213162   1.066   1.754   0.289  0.2372  0.0003 -0.5198
 4386TIP3   OH213163   5.895   4.425   4.905  0.1435  0.4758 -0.3316
 4386TIP3    H113164   5.965   4.464   4.957 -0.4074  1.9873 -0.6628
 4386TIP3    H213165   5.887   4.336   4.939  0.1732  1.2185  1.8124
 4387TIP3   OH213166   2.611   3.493   0.592  0.2436  0.0745  0.6217
 4387TIP3    H113167   2.562   3.438   0.530  0.6419 -0.3549  0.6885
 4387TIP3    H213168   2.689   3.521   0.544  1.3692 -1.5603  1.4278
 4388TIP3   OH213169   5.812   3.936   4.133 -0.0464 -0.0608  0.3690
 4388TIP3    H113170   5.740   3.886   4.095  1.6668 -1.3684 -1.3739
 4388TIP3    H213171   5.850   3.983   4.059  0.4114  1.2759  1.4088
 4389TIP3   OH213172   5.625   5.605   1.339  0.2466 -0.4512 -0.6467
 4389TIP3    H113173   5.699   5.619   1.398 -0.8217 -0.3063  0.7040
 4389TIP3    H213174   5.611   5.690   1.297  0.2072 -0.2030 -0.1394
 4390TIP3   OH213175   5.698   1.628   3.431  0.1901 -0.1972 -0.3834
 4390TIP3    H113176   5.711   1.711   3.477 -0.5644 -0.3236  0.0760
 4390TIP3    H213177   5.607   1.631   3.401 -0.0699 -1.1599  0.2582
 4391TIP3   OH213178   5.795   4.394  -0.010 -0.1771  0.0630  0.3789
 4391TIP3    H113179   5.767   4.361   0.075 -1.5543  2.9555  1.1997
 4391TIP3    H213180   5.864   4.457   0.010 -0.3919  0.6460 -0.6332
 4392TIP3   OH213181   5.726   4.948   4.798  0.4517 -0.6076  0.0722
 4392TIP3    H113182   5.690   5.035   4.814  0.4430 -0.6199  0.1201
 4392TIP3    H213183   5.811   4.965   4.756 -0.6169 -0.5899 -2.2335
 4393TIP3   OH213184   5.092   4.966   3.852  0.4118 -0.1208  0.4286
 4393TIP3    H113185   5.137   4.973   3.936  1.0136  1.8971 -0.0006
 4393TIP3    H213186   5.002   4.945   3.875  1.1397 -2.6220  1.3844
 4394TIP3   OH213187   2.449   0.035   1.892  0.1089  0.3155  0.1232
 4394TIP3    H113188   2.534  -0.001   1.916 -0.0408 -1.9548 -2.3482
 4394TIP3    H213189   2.459   0.064   1.802 -1.4210  1.0666  0.1660
 4395TIP3   OH213190   1.110   2.618   4.495  0.3371 -0.7000 -0.7145
 4395TIP3    H113191   1.084   2.527   4.482 -1.0986 -0.1712 -1.9781
 4395TIP3    H213192   1.107   2.656   4.407  1.3068  0.4718 -0.2670
 4396TIP3   OH213193   4.869   3.844   0.797 -0.8085  0.5491  0.1643
 4396TIP3    H113194   4.845   3.862   0.888 -2.4428  2.2568 -0.5413
 4396TIP3    H213195   4.821   3.909   0.746 -0.1762 -0.5546 -1.9651
 4397TIP3   OH213196   3.650   4.489   3.157 -0.4680 -0.5086 -0.1562
 4397TIP3    H113197   3.655   4.503   3.062 -1.6620  1.6112  0.0254
 4397TIP3    H213198   3.682   4.571   3.195 -0.6542 -1.0682  1.2643
 4398TIP3   OH213199   5.578   4.877   5.070  0.2313  0.2798  0.4169
 4398TIP3    H113200   5.670   4.853   5.069 -0.4189 -2.5593  0.3745
 4398TIP3    H213201   5.561   4.910   4.981  0.9550 -0.3081  0.0478
 4399TIP3   OH213202   1.293   4.970   2.476  0.1479  0.2585 -0.6389
 4399TIP3    H113203   1.381   5.003   2.462  0.3444  0.9883  1.8622
 4399TIP3    H213204   1.239   5.017   2.412  1.3623  0.8591 -1.2477
 4400TIP3   OH213205   0.974   2.753   2.635  0.1190  0.5625  0.1182
 4400TIP3    H113206   0.971   2.844   2.607 -0.7010  0.1193 -1.3323
 4400TIP3    H213207   0.903   2.744   2.698  0.1516  0.9157  0.2036
 4401TIP3   OH213208   3.395   4.410   3.210  0.3892 -0.1016 -0.5557
 4401TIP3    H113209   3.402   4.366   3.295  0.8899  1.8703  0.4869
 4401TIP3    H213210   3.483   4.444   3.193  0.0864  0.2712 -1.4360
 4402TIP3   OH213211   1.360   2.226   1.726 -0.4981  0.0431 -0.2450
 4402TIP3    H113212   1.324   2.171   1.656 -1.8009  0.2451  0.2222
 4402TIP3    H213213   1.451   2.199   1.734 -0.6950 -0.9422 -1.0860
 4403TIP3   OH213214   1.584   2.562   3.655  0.1147  0.0523 -0.0158
 4403TIP3    H113215   1.616   2.492   3.598  2.4746 -0.3994  1.7193
 4403TIP3    H213216   1.507   2.526   3.697  0.3232 -0.8682 -0.4039
 4404TIP3   OH213217   4.125   0.907   5.018 -0.5110 -0.0576  0.7134
 4404TIP3    H113218   4.174   0.828   4.996 -1.2437 -0.9087  2.0232
 4404TIP3    H213219   4.083   0.933   4.936  0.7630 -0.2569 -0.0404
 4405TIP3   OH213220   2.636   3.829   1.175 -0.0296  1.3012 -0.2202
 4405TIP3    H113221   2.588   3.746   1.180  2.7844 -0.4907 -0.3665
 4405TIP3    H213222   2.569   3.895   1.157 -2.5665 -0.7342  1.0423
 4406TIP3   OH213223   5.563   3.094   0.258  0.3124  0.4529  0.1987
 4406TIP3    H113224   5.634   3.145   0.296 -0.8841  2.5578 -0.2741
 4406TIP3    H213225   5.486   3.115   0.311 -0.2457 -0.8109 -0.0566
 4407TIP3   OH213226   3.614   2.557   2.130 -0.2393  0.1814 -0.8092
 4407TIP3    H113227   3.707   2.579   2.121  0.2600 -1.3727  0.0885
 4407TIP3    H213228   3.589   2.597   2.214 -0.0679 -0.2964 -0.5219
 4408TIP3   OH213229   5.127   0.640   2.533 -0.8561 -0.4183  0.2774
 4408TIP3    H113230   5.042   0.681   2.517 -0.3292  0.5493 -0.1695
 4408TIP3    H213231   5.174   0.702   2.589 -0.2025 -0.6039 -0.0462
 4409TIP3   OH213232   0.608   1.879   4.945  1.0911  0.1587 -0.4832
 4409TIP3    H113233   0.575   1.795   4.912  0.2406 -0.1249  0.9809
 4409TIP3    H213234   0.581   1.943   4.879  1.8420 -0.7129 -1.6788
 4410TIP3   OH213235   4.149   4.803   1.459  0.2944  0.6145  0.2336
 4410TIP3    H113236   4.116   4.717   1.433  0.4416  0.9214 -1.0506
 4410TIP3    H213237   4.157   4.798   1.554  2.9825 -1.7705  0.0136
 4411TIP3   OH213238   3.156   5.086   4.130  0.3103  0.8238 -0.2029
 4411TIP3    H113239   3.196   5.171   4.113  0.7493  0.6051 -0.2639
 4411TIP3    H213240   3.223   5.037   4.177  0.9736 -0.3312 -2.2330
 4412TIP3   OH213241   2.619   2.470   4.648 -0.1495 -0.1578  0.3650
 4412TIP3    H113242   2.655   2.441   4.732 -1.5493 -0.0519  1.0354
 4412TIP3    H213243   2.527   2.443   4.651 -0.4473  0.6533 -0.7578
 4413TIP3   OH213244   0.733   2.016   4.253 -0.2847  0.1528  0.9232
 4413TIP3    H113245   0.805   2.038   4.194 -0.3952  2.6305  1.6368
 4413TIP3    H213246   0.660   1.996   4.195 -0.0593  1.3595  0.1942
 4414TIP3   OH213247   0.593   2.819   2.735 -0.3397 -0.3960  0.5058
 4414TIP3    H113248   0.595   2.790   2.644  1.4360  0.8355  0.0848
 4414TIP3    H213249   0.525   2.886   2.737 -0.3002 -0.3376  0.0506
 4415TIP3   OH213250   2.107   1.333   4.367 -0.1648 -0.3424  0.0451
 4415TIP3    H113251   2.053   1.407   4.340 -0.5403 -0.5983  0.0878
 4415TIP3    H213252   2.100   1.270   4.295 -0.0826 -0.4585  0.1375
 4416TIP3   OH213253   1.928   3.841   4.565  0.2498  0.6835  0.0231
 4416TIP3    H113254   1.987   3.785   4.515 -0.3015  1.5789 -1.6787
 4416TIP3    H213255   1.861   3.868   4.503 -1.4078  0.5321  1.6450
 4417TIP3   OH213256   5.359   3.220   3.866 -0.3563 -0.0244 -0.2982
 4417TIP3    H113257   5.339   3.305   3.828  0.0219  0.6538  0.9772
 4417TIP3    H213258   5.273   3.179   3.880 -0.6097  0.6896  0.2827
 4418TIP3   OH213259   5.206   3.308   3.349  0.2358 -0.4957  0.7643
 4418TIP3    H113260   5.262   3.359   3.291  1.0631 -0.9824  1.1159
 4418TIP3    H213261   5.264   3.283   3.421 -0.5600 -0.6147  1.3692
 4419TIP3   OH213262   1.421   3.477   4.136 -0.1679  0.2599 -0.4230
 4419TIP3    H113263   1.348   3.449   4.191  0.2383 -0.9220 -0.4368
 4419TIP3    H213264   1.385   3.544   4.079 -0.8386  0.8186  0.6316
 4420TIP3   OH213265   0.978   2.884   4.651 -0.5040  0.3318 -0.6608
 4420TIP3    H113266   0.922   2.822   4.698 -1.7746  0.4152 -1.9667
 4420TIP3    H213267   0.989   2.957   4.710  2.6770 -1.8429  1.7625
 4421TIP3   OH213268   3.636   3.965   0.675 -0.1451  0.3614 -0.6280
 4421TIP3    H113269   3.699   3.945   0.605 -0.1145 -0.6268 -0.3362
 4421TIP3    H213270   3.558   3.995   0.629  0.6486  1.9960 -0.9881
 4422TIP3   OH213271   1.078   0.277   1.998 -0.7688  0.3108 -0.5575
 4422TIP3    H113272   1.150   0.225   2.035 -1.4915 -0.1605  0.2180
 4422TIP3    H213273   1.112   0.367   1.997  0.0587  0.0055 -0.7949
 4423TIP3   OH213274   6.338   2.761   4.868 -0.5656 -0.2003  0.3606
 4423TIP3    H113275   6.369   2.759   4.958  1.3641  1.8055 -0.1830
 4423TIP3    H213276   6.299   2.848   4.858  0.3382  0.0731 -1.0465
 4424TIP3   OH213277   0.086   0.618   4.243  0.2531 -0.1248  0.1448
 4424TIP3    H113278   0.153   0.673   4.204 -0.0237 -1.1155 -1.8588
 4424TIP3    H213279   0.133   0.563   4.305  0.9790  0.4342  0.1070
 4425TIP3   OH213280   5.870   1.081   2.722  0.1641 -0.4859 -0.7453
 4425TIP3    H113281   5.836   1.082   2.812  0.2237 -0.1840 -0.7281
 4425TIP3    H213282   5.924   1.002   2.719 -0.1904 -0.7373 -0.6457
 4426TIP3   OH213283   3.098   4.605   2.921 -0.1050 -0.5405 -0.5736
 4426TIP3    H113284   3.021   4.661   2.912  1.0589  1.5061  1.0923
 4426TIP3    H213285   3.085   4.560   3.005  1.3015  1.3375  0.7444
 4427TIP3   OH213286   5.033   1.643   3.980 -0.0039  0.0450  0.2805
 4427TIP3    H113287   5.072   1.575   3.924 -0.6916 -1.1517  1.2123
 4427TIP3    H213288   5.060   1.620   4.068 -1.3742  0.1777  0.7572
 4428TIP3   OH213289   6.144   5.909   0.102 -0.1871  0.3191  0.2456
 4428TIP3    H113290   6.139   5.900   0.007  0.8442 -0.7344  0.2623
 4428TIP3    H213291   6.067   5.862   0.135  0.1468 -0.4600 -0.0459
 4429TIP3   OH213292   4.065   0.930   2.041  0.5955  0.0020 -0.5655
 4429TIP3    H113293   4.094   0.860   1.983  1.8749  0.2030 -0.1936
 4429TIP3    H213294   4.076   1.010   1.990  1.6453  0.1714 -0.0972
 4430TIP3   OH213295   2.305   3.820   0.104  0.7510 -0.3575  0.0190
 4430TIP3    H113296   2.258   3.873   0.039  0.4041  0.3371  0.8163
 4430TIP3    H213297   2.332   3.742   0.056 -0.2033 -0.2329 -0.7511
 4431TIP3   OH213298   2.563   1.871   5.035 -0.6552 -0.1960 -0.2593
 4431TIP3    H113299   2.607   1.829   5.109 -1.5695 -0.2786  0.2523
 4431TIP3    H213300   2.624   1.938   5.006  0.0099 -0.6225  0.1251
 4432TIP3   OH213301   1.759   1.335   2.095 -0.4887  0.4570 -0.0758
 4432TIP3    H113302   1.816   1.345   2.171  1.1420 -0.7063 -1.0735
 4432TIP3    H213303   1.814   1.357   2.020 -1.6529  0.2646 -1.0269
 4433TIP3   OH213304   3.020   5.246   4.374 -0.3099  0.3396  0.6512
 4433TIP3    H113305   3.003   5.308   4.303 -0.3302 -0.5147 -0.1131
 4433TIP3    H213306   3.116   5.238   4.377 -0.2282  1.4871  1.7207
 4434TIP3   OH213307   3.422   4.925   3.176 -0.5352  0.3706  0.2532
 4434TIP3    H113308   3.416   4.833   3.203  0.6038  0.5146  1.0620
 4434TIP3    H213309   3.357   4.970   3.229 -1.9863 -0.1160 -1.0212
 4435TIP3   OH213310   0.948   5.154   3.841 -0.0101 -0.1260  0.2693
 4435TIP3    H113311   0.856   5.174   3.825  0.5394  1.0588 -1.7083
 4435TIP3    H213312   0.977   5.108   3.763  1.2849  0.3110  0.4624
 4436TIP3   OH213313   5.515   5.121   2.849 -0.5170 -0.4307  0.5098
 4436TIP3    H113314   5.476   5.162   2.772  0.4597  0.1321  0.3009
 4436TIP3    H213315   5.604   5.156   2.853  0.2072 -2.2106  0.5911
 4437TIP3   OH213316   1.187   4.379   2.180  0.2129  0.0168  1.1091
 4437TIP3    H113317   1.174   4.302   2.126 -1.1334 -0.0712  1.5099
 4437TIP3    H213318   1.201   4.345   2.268  0.2770  0.2147  1.1774
 4438TIP3   OH213319   6.263   1.806   4.106  0.0118 -0.2815 -0.0021
 4438TIP3    H113320   6.263   1.719   4.145  0.5074 -0.7808 -1.0925
 4438TIP3    H213321   6.171   1.824   4.087 -0.1157 -0.4681  0.4110
 4439TIP3   OH213322   1.651   0.295   1.287 -0.4055 -0.2779 -0.6104
 4439TIP3    H113323   1.735   0.326   1.320 -0.4607  1.3745 -1.8928
 4439TIP3    H213324   1.669   0.205   1.257  0.9469  0.1049 -1.0090
 4440TIP3   OH213325   5.687   5.460   1.913 -0.2234 -0.1566 -0.2460
 4440TIP3    H113326   5.704   5.514   1.836  4.5658 -1.9263 -0.7495
 4440TIP3    H213327   5.619   5.399   1.885 -2.4244  2.5000 -1.1427
 4441TIP3   OH213328   4.970   4.005   4.706  0.0087 -0.2657 -0.1456
 4441TIP3    H113329   5.003   3.923   4.744 -0.6355 -1.6793 -2.4292
 4441TIP3    H213330   5.033   4.025   4.636 -1.0601 -0.0986 -1.0906
 4442TIP3   OH213331   5.096   4.109   4.060  0.1736  0.8779 -0.0221
 4442TIP3    H113332   5.107   4.019   4.030 -0.9781  0.6046  0.3119
 4442TIP3    H213333   5.175   4.127   4.110  0.8266  0.3667 -0.8416
 4443TIP3   OH213334   5.348   1.058   4.871 -0.8360  0.1935 -0.0258
 4443TIP3    H113335   5.436   1.039   4.905 -1.2843  0.6497  1.4840
 4443TIP3    H213336   5.363   1.117   4.797  0.1274  0.2773  0.2183
 4444TIP3   OH213337   0.678   3.804   0.857  0.4681 -0.5315  0.3365
 4444TIP3    H113338   0.737   3.745   0.906  0.3102 -0.2599  0.8659
 4444TIP3    H213339   0.737   3.861   0.808  0.6941  0.2648  1.4779
 4445TIP3   OH213340   3.197   0.520   1.596 -0.1593 -0.1405 -0.8474
 4445TIP3    H113341   3.251   0.478   1.529 -2.8533 -1.7510 -2.1860
 4445TIP3    H213342   3.112   0.533   1.553 -1.2801  0.9858  1.5341
 4446TIP3   OH213343   3.347   0.187   3.676  0.1399  0.0521 -0.3679
 4446TIP3    H113344   3.399   0.242   3.617  1.1974 -0.9872 -0.4556
 4446TIP3    H213345   3.404   0.113   3.696 -1.3080 -1.1435 -0.4425
 4447TIP3   OH213346   4.927   4.093   3.051  0.2435 -0.8372 -0.2079
 4447TIP3    H113347   4.933   4.157   2.980  0.5148 -0.6812 -0.0457
 4447TIP3    H213348   5.001   4.034   3.035 -1.3054 -2.4895 -1.7013
 4448TIP3   OH213349   1.298   2.983   4.959  0.3137 -0.3339 -0.1015
 4448TIP3    H113350   1.221   2.948   4.915  0.0845  0.1821 -0.1236
 4448TIP3    H213351   1.319   2.920   5.027 -0.3350 -0.3084  0.1253
 4449TIP3   OH213352   6.099   4.563   3.210 -0.0129  0.3820 -0.2412
 4449TIP3    H113353   6.132   4.501   3.275 -0.0312 -0.1556 -0.7376
 4449TIP3    H213354   6.012   4.530   3.188  0.7712 -0.6103 -2.0125
 4450TIP3   OH213355   3.381   0.592   2.868 -0.6520 -0.1768 -0.0597
 4450TIP3    H113356   3.365   0.568   2.959  0.0394 -2.8854 -0.5659
 4450TIP3    H213357   3.335   0.675   2.857 -2.3957 -0.7364  2.2215
 4451TIP3   OH213358   3.255   2.713   2.732  0.7566 -0.2745 -0.6501
 4451TIP3    H113359   3.165   2.742   2.743  0.7731  0.2365 -1.7456
 4451TIP3    H213360   3.280   2.679   2.818 -0.3932 -0.2019 -0.2708
 4452TIP3   OH213361   1.335   1.981   0.304 -0.5225 -0.1829 -0.3283
 4452TIP3    H113362   1.276   1.906   0.300 -0.7138  0.0156 -1.8096
 4452TIP3    H213363   1.388   1.974   0.224 -0.6050  1.2914 -0.5388
 4453TIP3   OH213364   4.834   0.959   2.846  0.0174  0.1157 -0.3276
 4453TIP3    H113365   4.894   0.889   2.870  0.8747 -0.0094 -2.5868
 4453TIP3    H213366   4.751   0.935   2.887  0.6682 -1.4552  0.1360
 4454TIP3   OH213367   3.680   2.559   2.853 -0.7522  0.5640 -0.0602
 4454TIP3    H113368   3.683   2.529   2.944  0.7825 -0.9678 -0.5538
 4454TIP3    H213369   3.636   2.488   2.806  0.0040  0.5552 -0.7742
 4455TIP3   OH213370   0.366   3.532   2.260  0.6335 -0.0938  0.2150
 4455TIP3    H113371   0.409   3.614   2.283  0.9248 -0.1089 -0.2548
 4455TIP3    H213372   0.321   3.550   2.178  0.3358 -0.2823  0.3354
 4456TIP3   OH213373   0.296   0.208   4.158  0.5055  0.0889 -1.1559
 4456TIP3    H113374   0.340   0.256   4.228  0.3319 -2.7593  1.0930
 4456TIP3    H213375   0.351   0.131   4.142 -1.1249 -1.0112 -1.8123
 4457TIP3   OH213376   5.674   0.669   1.993 -0.2962 -0.3516 -0.3853
 4457TIP3    H113377   5.695   0.595   2.050 -0.4590 -0.3377 -0.3079
 4457TIP3    H213378   5.641   0.736   2.053  0.6628  0.0938 -0.3470
 4458TIP3   OH213379   4.510   2.595   4.163 -0.4118  0.2962 -0.0748
 4458TIP3    H113380   4.485   2.540   4.237 -0.7265  0.6823  0.1122
 4458TIP3    H213381   4.605   2.594   4.162 -0.3978  0.6101  0.5810
 4459TIP3   OH213382   3.905   3.612   1.997 -0.4300 -0.1078 -0.3408
 4459TIP3    H113383   3.974   3.641   2.055  0.1613 -1.2564 -0.4416
 4459TIP3    H213384   3.839   3.572   2.055 -1.2096  1.3157 -0.2083
 4460TIP3   OH213385   5.692   4.733   4.599  0.1857 -0.1399  0.0970
 4460TIP3    H113386   5.768   4.680   4.623  1.6741  1.0579 -1.6064
 4460TIP3    H213387   5.662   4.771   4.681  2.5092  0.6586  0.6628
 4461TIP3   OH213388   2.377   3.832   4.655 -0.6072  0.0319 -0.4203
 4461TIP3    H113389   2.292   3.847   4.696  0.0552 -2.8559  2.4606
 4461TIP3    H213390   2.400   3.743   4.681  2.4063 -0.0785 -2.8731
 4462TIP3   OH213391   6.215   4.891   0.270  0.2849  0.1459  0.0908
 4462TIP3    H113392   6.231   4.952   0.341 -0.4633  0.5813 -0.1003
 4462TIP3    H213393   6.236   4.805   0.306 -0.1578  0.3559  0.8650
 4463TIP3   OH213394   2.916   4.090   4.925  0.0579 -0.8618 -0.4506
 4463TIP3    H113395   3.001   4.047   4.925  0.9807  0.8942 -0.3382
 4463TIP3    H213396   2.896   4.103   5.018 -0.1990 -1.0083 -0.4843
 4464TIP3   OH213397   0.463   2.298   4.626 -0.2250  0.2575 -0.1713
 4464TIP3    H113398   0.481   2.213   4.665  0.6551  1.1417  1.4436
 4464TIP3    H213399   0.453   2.280   4.532  1.4788 -1.4035 -0.0809
 4465TIP3   OH213400   5.114   5.739   4.036  0.2933  0.0164  0.6316
 4465TIP3    H113401   5.068   5.690   3.967 -1.4603  1.5528  0.6375
 4465TIP3    H213402   5.192   5.686   4.055 -0.8868 -2.1357 -0.1806
 4466TIP3   OH213403   5.753   5.427   0.141 -0.0305  0.4810  0.3924
 4466TIP3    H113404   5.747   5.517   0.171  0.2906 -0.3344  3.1692
 4466TIP3    H213405   5.838   5.421   0.097  0.5639  1.2146  1.4117
 4467TIP3   OH213406   3.928   3.132   0.944  0.5230  0.1336 -0.3386
 4467TIP3    H113407   4.010   3.139   0.993 -0.6530  2.2283  1.5107
 4467TIP3    H213408   3.947   3.069   0.874  3.7137  0.6437 -0.0685
 4468TIP3   OH213409   3.722   2.923   4.841  0.2859 -0.0541  0.7086
 4468TIP3    H113410   3.719   2.997   4.902  1.5399  0.3434  0.3246
 4468TIP3    H213411   3.635   2.920   4.802  0.5801  2.0612 -0.2395
 4469TIP3   OH213412   5.851   3.943   3.627 -0.0713 -0.4086  0.1126
 4469TIP3    H113413   5.902   3.879   3.578 -0.7989 -1.0742  0.2086
 4469TIP3    H213414   5.829   4.011   3.564  0.5555 -0.3404 -0.0337
 4470TIP3   OH213415   3.244   0.163   4.686 -0.6988 -0.6882  0.2819
 4470TIP3    H113416   3.271   0.075   4.712  0.8355 -0.6921 -1.1503
 4470TIP3    H213417   3.321   0.217   4.701 -1.1003  0.0819 -0.3456
 4471TIP3   OH213418   2.757   3.875  -0.010  0.3512  0.0415  0.2613
 4471TIP3    H113419   2.761   3.790  -0.054  0.7136 -0.1328  0.6266
 4471TIP3    H213420   2.713   3.856   0.073 -0.7994  0.4616 -0.2317
 4472TIP3   OH213421   0.614   3.467   5.059  0.0857 -0.5585 -0.0241
 4472TIP3    H113422   0.576   3.380   5.069 -2.5356  0.2814 -1.7513
 4472TIP3    H213423   0.582   3.516   5.135 -1.5610 -0.1546 -0.9269
 4473TIP3   OH213424   2.518   1.301   3.802  0.6853  0.0071 -0.1562
 4473TIP3    H113425   2.609   1.305   3.833  0.9210 -1.2757 -0.5901
 4473TIP3    H213426   2.493   1.209   3.815 -0.1523  0.0875 -1.0992
 4474TIP3   OH213427   1.546   2.826   4.112  0.1324  0.5221 -0.7913
 4474TIP3    H113428   1.539   2.735   4.081  1.6033  0.4513 -0.9650
 4474TIP3    H213429   1.488   2.829   4.188 -0.7363 -0.2714 -1.3883
 4475TIP3   OH213430   4.841   4.701   0.397  0.0825 -0.0040 -0.8392
 4475TIP3    H113431   4.797   4.638   0.454 -1.1230  0.8069 -0.8414
 4475TIP3    H213432   4.932   4.671   0.395 -0.1098 -0.7758  0.4912
 4476TIP3   OH213433   5.957   1.346   4.876  0.2924 -0.4104 -0.0232
 4476TIP3    H113434   6.037   1.390   4.847  0.4428  2.2911  3.7424
 4476TIP3    H213435   5.886   1.393   4.833  0.6268 -0.0416 -0.1719
 4477TIP3   OH213436   1.556   2.916   3.111  0.1283 -0.6982 -0.0781
 4477TIP3    H113437   1.650   2.927   3.127  0.1387  2.0592 -1.3597
 4477TIP3    H213438   1.517   2.997   3.143 -1.7237 -1.4523 -0.3093
 4478TIP3   OH213439   3.810   4.172   2.215 -0.5326  0.4549 -0.4084
 4478TIP3    H113440   3.725   4.159   2.173  0.0934 -0.1435 -1.5305
 4478TIP3    H213441   3.844   4.254   2.178 -0.6711  0.7712  0.1485
 4479TIP3   OH213442   4.575   2.523   4.759  0.4266  0.4811 -0.0503
 4479TIP3    H113443   4.531   2.527   4.844  0.6996  0.7713  0.0779
 4479TIP3    H213444   4.509   2.486   4.700  0.0661  0.7522  0.1772
 4480TIP3   OH213445   4.099   2.255   1.883  0.5515  0.9479 -0.7439
 4480TIP3    H113446   4.113   2.312   1.958 -0.7146  0.9720 -0.5018
 4480TIP3    H213447   4.005   2.261   1.866  0.3821 -1.0908 -0.6949
 4481TIP3   OH213448   3.208   3.841   3.790 -0.2012  0.4491  0.5285
 4481TIP3    H113449   3.273   3.895   3.746 -0.4809  1.4539  1.3342
 4481TIP3    H213450   3.124   3.880   3.766 -0.6836 -1.7447 -1.7854
 4482TIP3   OH213451   4.387   2.696   3.702  0.8404 -0.0316  0.3611
 4482TIP3    H113452   4.342   2.612   3.712  0.8780 -0.0296  0.5519
 4482TIP3    H213453   4.318   2.757   3.676  0.2824  0.4380  2.7027
 4483TIP3   OH213454   4.974   1.878   1.554 -0.4496  0.6712  0.6629
 4483TIP3    H113455   4.981   1.824   1.475 -0.6123 -0.2466  1.2619
 4483TIP3    H213456   5.062   1.913   1.567 -0.1974  0.0771  0.5827
 4484TIP3   OH213457   0.059   4.669   0.394  0.2249 -0.2991 -0.1094
 4484TIP3    H113458   0.107   4.590   0.420 -1.5854 -1.8432 -1.2065
 4484TIP3    H213459  -0.030   4.654   0.426 -0.2263  1.1664 -0.6409
 4485TIP3   OH213460   0.462   5.229   4.545  0.4184 -0.2404 -0.4089
 4485TIP3    H113461   0.482   5.262   4.633 -0.6847 -0.3560 -0.0987
 4485TIP3    H213462   0.548   5.222   4.502  0.9556  0.0183  0.5814
 4486TIP3   OH213463   0.976   4.048   3.735 -0.3724  0.2778  0.2563
 4486TIP3    H113464   0.956   4.066   3.643 -1.6746 -0.2465  0.4016
 4486TIP3    H213465   1.030   3.969   3.733  0.1352  0.6292 -0.0828
 4487TIP3   OH213466   4.388   3.239   1.604 -0.2494 -0.3884 -0.3551
 4487TIP3    H113467   4.327   3.299   1.648 -0.8963  0.6738 -2.5349
 4487TIP3    H213468   4.376   3.155   1.648  0.2539  0.8964  2.4302
 4488TIP3   OH213469   3.168   3.295   1.612  0.0687  0.0852 -0.1807
 4488TIP3    H113470   3.122   3.344   1.543 -0.6983  0.7847  0.7979
 4488TIP3    H213471   3.118   3.214   1.620 -0.7784  0.6585  0.5786
 4489TIP3   OH213472   3.137   5.555   2.999  0.1592 -0.0368 -0.0579
 4489TIP3    H113473   3.169   5.595   2.918  0.4937 -1.3492 -0.6057
 4489TIP3    H213474   3.043   5.547   2.987  0.0655  0.7699  0.1412
 4490TIP3   OH213475   0.380   0.578   0.213  0.5580 -0.4531  0.1866
 4490TIP3    H113476   0.403   0.534   0.131  1.0533  1.4261 -0.7382
 4490TIP3    H213477   0.441   0.541   0.278  0.7277 -1.3459 -0.4611
 4491TIP3   OH213478   5.063   4.612   3.658 -0.2637  0.5087 -0.4054
 4491TIP3    H113479   4.977   4.623   3.698 -0.1981 -0.0972 -0.0892
 4491TIP3    H213480   5.063   4.672   3.584  0.2485  3.0480  1.4961
 4492TIP3   OH213481   1.350  -0.029   3.361 -0.0411  0.1160 -0.2172
 4492TIP3    H113482   1.378   0.008   3.277  1.1174 -0.7904 -0.2584
 4492TIP3    H213483   1.346   0.046   3.420 -0.3227  0.6830 -0.9390
 4493TIP3   OH213484   5.531   2.671   3.628 -0.0258 -0.3528 -0.1439
 4493TIP3    H113485   5.566   2.622   3.703  0.5892  0.6999  0.2689
 4493TIP3    H213486   5.442   2.637   3.617 -0.5704  0.3083  1.8312
 4494TIP3   OH213487   5.060   1.338   1.961  0.0919 -0.4747 -0.2844
 4494TIP3    H113488   5.153   1.317   1.965  0.5603  0.6003 -3.3789
 4494TIP3    H213489   5.028   1.294   1.882 -1.6583  0.4468 -0.1413
 4495TIP3   OH213490   5.359   3.655   3.885 -0.5407 -0.0275  0.4231
 4495TIP3    H113491   5.404   3.599   3.821  0.7984  1.7836 -0.3121
 4495TIP3    H213492   5.404   3.638   3.967 -0.1645 -0.0430  0.2162
 4496TIP3   OH213493   0.077   4.453   3.342 -0.0338 -0.1761  0.0978
 4496TIP3    H113494   0.061   4.492   3.256 -1.1906 -0.8379 -0.0019
 4496TIP3    H213495   0.120   4.523   3.392 -1.2377  0.9371 -0.3647
 4497TIP3   OH213496   6.208   1.312   2.201 -0.3938 -0.1979 -0.3834
 4497TIP3    H113497   6.283   1.361   2.166  0.1658 -1.3904 -0.9074
 4497TIP3    H213498   6.210   1.328   2.295  0.3351  0.0404 -0.4324
 4498TIP3   OH213499   5.768   1.869   1.455  0.3896 -0.9725  0.3064
 4498TIP3    H113500   5.688   1.824   1.483 -0.0009  0.1539  1.0834
 4498TIP3    H213501   5.825   1.868   1.532  0.2397  0.1178  0.4521
 4499TIP3   OH213502   3.537   4.921   4.251 -0.8352  0.0278  0.4864
 4499TIP3    H113503   3.546   4.889   4.341 -0.1929 -1.3741 -0.0498
 4499TIP3    H213504   3.445   4.904   4.229 -1.4980  1.9915  1.4202
 4500TIP3   OH213505   6.346   3.220   3.612 -0.4697  0.0959 -0.2520
 4500TIP3    H113506   6.335   3.309   3.644  2.2274  0.4804 -0.2055
 4500TIP3    H213507   6.262   3.199   3.571 -1.0633  2.7716 -0.5882
 4501TIP3   OH213508   1.769   2.347   1.161 -0.1869  0.1818  0.3818
 4501TIP3    H113509   1.703   2.357   1.092 -1.6619  0.1009  1.7268
 4501TIP3    H213510   1.849   2.383   1.122 -1.0322  0.4024 -1.2623
 4502TIP3   OH213511   5.444   4.492   2.993 -0.1367  0.0851 -0.0405
 4502TIP3    H113512   5.423   4.445   3.073 -1.3067  0.3177 -0.1833
 4502TIP3    H213513   5.373   4.556   2.984 -0.6375 -0.6549 -1.8239
 4503TIP3   OH213514   4.310   2.965   1.705  0.0365 -0.8065 -0.5047
 4503TIP3    H113515   4.229   3.008   1.675 -0.1196 -0.3530  0.5244
 4503TIP3    H213516   4.280   2.885   1.747  0.1277 -0.6559 -0.1533
 4504TIP3   OH213517   3.297   5.169   4.934 -0.2066  0.2082  0.1917
 4504TIP3    H113518   3.269   5.209   5.017 -0.1312 -0.9005  0.7719
 4504TIP3    H213519   3.362   5.104   4.960  1.1326  1.0340 -0.9133
 4505TIP3   OH213520   0.441   2.500   4.992  0.2984  0.1299 -0.2285
 4505TIP3    H113521   0.466   2.411   5.018 -0.4352  0.1419  0.5850
 4505TIP3    H213522   0.477   2.510   4.904  1.6552 -0.4344  0.2307
 4506TIP3   OH213523   0.641   0.216   4.954  0.4438  0.0002  0.3864
 4506TIP3    H113524   0.704   0.220   5.026  0.6579 -1.4154  0.3230
 4506TIP3    H213525   0.689   0.175   4.883 -0.4827 -0.9468  0.2767
 4507TIP3   OH213526   2.174   4.891   3.199 -0.0261  0.2022 -0.2161
 4507TIP3    H113527   2.179   4.968   3.256 -1.9195 -0.3950  0.8579
 4507TIP3    H213528   2.263   4.857   3.198  0.0044 -0.1412  3.0317
 4508TIP3   OH213529   1.078   4.310   2.885 -0.3566 -0.1584  0.3614
 4508TIP3    H113530   0.996   4.341   2.922  0.0126  1.2438  0.0896
 4508TIP3    H213531   1.146   4.353   2.936  0.2558 -1.8648  1.0574
 4509TIP3   OH213532   3.403   1.705   3.893  0.1938  0.3955  0.4020
 4509TIP3    H113533   3.491   1.708   3.855 -0.0247  3.9846 -0.1972
 4509TIP3    H213534   3.410   1.756   3.974 -1.2936  0.5906  0.4303
 4510TIP3   OH213535   3.225   0.077   2.703 -0.0347 -0.1026 -0.1027
 4510TIP3    H113536   3.228   0.151   2.764  1.7124 -1.0539  1.0628
 4510TIP3    H213537   3.279   0.010   2.745 -0.1210 -1.4012 -1.9700
 4511TIP3   OH213538   5.875   5.444   1.605  0.1807 -0.1445  0.4095
 4511TIP3    H113539   5.792   5.396   1.607  0.0755  0.0574  1.2214
 4511TIP3    H213540   5.855   5.524   1.557  0.4714 -1.0899 -1.3594
 4512TIP3   OH213541   1.905   5.935   4.188 -0.1484 -0.1787  0.1891
 4512TIP3    H113542   1.893   5.936   4.283  1.3448 -1.9080  0.4439
 4512TIP3    H213543   1.984   5.988   4.174 -1.5763  1.9472 -0.3761
 4513TIP3   OH213544   4.026   5.301   3.447  0.3286  0.1898 -0.3396
 4513TIP3    H113545   3.946   5.248   3.440 -0.1026  0.9040 -1.1944
 4513TIP3    H213546   4.098   5.239   3.435 -0.1845 -0.1166 -2.2598
 4514TIP3   OH213547   2.530   3.983   1.502  0.1781  0.0040 -0.1245
 4514TIP3    H113548   2.542   3.962   1.409 -0.2590  0.8736 -0.3892
 4514TIP3    H213549   2.489   3.905   1.539  0.9558 -0.6043 -0.5145
 4515TIP3   OH213550   2.110   2.094   2.380 -0.5065  0.1248  0.2172
 4515TIP3    H113551   2.067   2.036   2.317 -1.7810  1.4998 -0.2377
 4515TIP3    H213552   2.162   2.035   2.435 -1.1667 -1.3565 -0.6784
 4516TIP3   OH213553   4.436   1.660   3.030  0.3312 -0.0008  0.0188
 4516TIP3    H113554   4.394   1.667   3.116 -0.2991  2.5846 -0.4450
 4516TIP3    H213555   4.515   1.609   3.047 -1.3639 -2.3684  1.4826
 4517TIP3   OH213556   4.250   5.626   3.328  0.0419  0.3253 -0.0855
 4517TIP3    H113557   4.315   5.557   3.343  0.7986  0.3613 -2.6863
 4517TIP3    H213558   4.298   5.695   3.282 -1.2587  1.5346  0.2951
 4518TIP3   OH213559   3.268   0.526   3.299  0.6631  0.2170 -0.7150
 4518TIP3    H113560   3.263   0.622   3.293 -3.6545  0.1371 -1.9100
 4518TIP3    H213561   3.227   0.506   3.383 -0.0930 -0.6157 -1.2770
 4519TIP3   OH213562   1.128   4.973   5.080 -0.1396 -0.7840 -0.1912
 4519TIP3    H113563   1.087   5.021   5.152 -0.3317  0.3002 -0.9920
 4519TIP3    H213564   1.192   5.034   5.044  2.3934 -2.5034  1.1353
 4520TIP3   OH213565   5.186   0.091   3.108 -0.8903  0.5024 -0.4784
 4520TIP3    H113566   5.212   0.002   3.087 -2.2672 -0.2371  0.7942
 4520TIP3    H213567   5.170   0.132   3.024  0.5356 -0.1768 -1.1199
 4521TIP3   OH213568   4.490   2.072   3.271 -0.0341 -0.4919 -0.5828
 4521TIP3    H113569   4.569   2.057   3.219  0.2626 -0.1894 -0.2236
 4521TIP3    H213570   4.464   1.984   3.301 -0.5054 -0.7340 -1.6576
 4522TIP3   OH213571   0.255   2.218   1.878 -0.8955 -0.0275  0.1241
 4522TIP3    H113572   0.246   2.125   1.859 -0.8345 -0.0328  0.1191
 4522TIP3    H213573   0.222   2.262   1.800 -0.5691 -0.0504 -0.0297
 4523TIP3   OH213574   0.585   1.885   1.394  0.2010 -0.7787  0.6382
 4523TIP3    H113575   0.648   1.954   1.371  1.2350 -0.9811  2.6599
 4523TIP3    H213576   0.601   1.816   1.330  0.5676  0.0254 -0.1596
 4524TIP3   OH213577   0.954   1.071   3.679 -0.0202  0.0475  0.1099
 4524TIP3    H113578   0.865   1.100   3.699  0.3113  0.1432  1.5414
 4524TIP3    H213579   0.955   0.979   3.706  0.8028  0.5223  1.8774
 4525TIP3   OH213580   5.561   0.082   4.775 -0.0428  0.0669  0.7144
 4525TIP3    H113581   5.499   0.058   4.706 -0.7700  0.5993  1.1782
 4525TIP3    H213582   5.514   0.066   4.857  0.4503  0.4226  1.0713
 4526TIP3   OH213583   0.817   0.053   2.117 -0.9973 -0.1685  0.1383
 4526TIP3    H113584   0.818   0.061   2.022  1.1612 -1.2557  0.0195
 4526TIP3    H213585   0.897   0.006   2.138 -2.3048 -1.5667  2.3680
 4527TIP3   OH213586   2.048   4.182   0.504 -0.2180 -0.3801  0.1821
 4527TIP3    H113587   2.055   4.194   0.598  1.0262  0.6074 -0.0076
 4527TIP3    H213588   2.003   4.260   0.472  0.5066 -0.0983 -0.1722
 4528TIP3   OH213589   0.813   5.617   3.415  0.0265 -0.4936  0.2764
 4528TIP3    H113590   0.724   5.582   3.415  0.2168 -1.0935 -1.6998
 4528TIP3    H213591   0.853   5.581   3.494 -1.3849 -0.4543  1.0302
 4529TIP3   OH213592   5.434   0.678   0.111 -0.1098 -0.6506 -0.1396
 4529TIP3    H113593   5.376   0.683   0.187  1.2704 -0.1305  0.9197
 4529TIP3    H213594   5.452   0.769   0.089  0.9614 -0.8077  0.0681
 4530TIP3   OH213595   4.987   5.605   0.213 -0.3641 -0.1540 -0.4453
 4530TIP3    H113596   4.961   5.570   0.129 -0.2573 -0.2054 -0.4573
 4530TIP3    H213597   4.921   5.671   0.234 -0.5280 -0.3172 -0.4515
 4531TIP3   OH213598   0.914   4.033   4.569 -0.0632  0.1257  0.3443
 4531TIP3    H113599   0.863   3.968   4.618 -1.7608  0.0019 -1.4442
 4531TIP3    H213600   0.874   4.033   4.482  0.8649  2.4923 -0.1432
 4532TIP3   OH213601   5.337   3.927   1.449  0.2660  0.0026  0.1139
 4532TIP3    H113602   5.288   3.963   1.523 -0.4901  0.4896 -0.6089
 4532TIP3    H213603   5.350   3.835   1.471  0.1227  0.1620  0.8859
 4533TIP3   OH213604   4.093   5.301   0.910 -0.4669  0.2692  0.3323
 4533TIP3    H113605   4.078   5.379   0.858  0.0383 -0.8077 -1.5195
 4533TIP3    H213606   4.183   5.308   0.940 -0.5364  0.5478  0.4800
 4534TIP3   OH213607   4.979   2.467   2.273 -0.2249  0.1943  0.0859
 4534TIP3    H113608   4.933   2.472   2.357  0.8711  1.3745  0.6509
 4534TIP3    H213609   4.973   2.556   2.237  1.1452  0.2430 -0.0655
 4535TIP3   OH213610   0.227   4.248   1.560  0.3351 -0.3025 -0.1295
 4535TIP3    H113611   0.318   4.263   1.535  0.2265  1.4919  0.3677
 4535TIP3    H213612   0.185   4.334   1.548 -0.8679 -0.6472  1.3102
 4536TIP3   OH213613   1.085   2.414   3.013 -0.0558  0.4337  0.2329
 4536TIP3    H113614   1.037   2.495   3.027  0.2964  0.4348  1.5749
 4536TIP3    H213615   1.058   2.384   2.926  0.0312  2.1241 -0.4121
 4537TIP3   OH213616   4.054   1.355   1.994  0.4614 -0.7110 -0.3095
 4537TIP3    H113617   4.030   1.439   1.954  1.6732  0.9780  2.2154
 4537TIP3    H213618   4.149   1.350   1.983  0.7101 -0.5955  1.4652
 4538TIP3   OH213619   5.256   4.884   1.117  0.2865 -0.4826  0.5635
 4538TIP3    H113620   5.181   4.867   1.060 -0.3610 -0.8055  1.4896
 4538TIP3    H213621   5.272   4.978   1.108  0.8481 -0.7073 -0.9232
 4539TIP3   OH213622   4.589   5.661   2.828  0.3944 -0.3333  0.1064
 4539TIP3    H113623   4.660   5.629   2.884  0.3415 -2.4945 -0.9531
 4539TIP3    H213624   4.521   5.688   2.889  1.7168  0.8804  1.1240
 4540TIP3   OH213625   3.733   4.757   2.925 -0.0525  0.1599  0.3656
 4540TIP3    H113626   3.706   4.843   2.958  2.1493  1.0501 -0.0372
 4540TIP3    H213627   3.799   4.775   2.859 -0.0043 -1.8490 -0.2117
 4541TIP3   OH213628   5.205   5.590   2.487 -0.2320  0.1243 -0.2498
 4541TIP3    H113629   5.191   5.591   2.393  1.6728 -0.2564 -0.5649
 4541TIP3    H213630   5.198   5.498   2.512  1.3223 -0.0578 -0.3896
 4542TIP3   OH213631   0.916   2.416   4.387 -0.3979  0.4576 -0.0894
 4542TIP3    H113632   0.916   2.464   4.304 -0.5729  3.2566  1.4257
 4542TIP3    H213633   0.823   2.403   4.407 -0.3524 -0.4699 -0.4347
 4543TIP3   OH213634   0.865   4.450   2.966  0.3733  0.4773 -0.1807
 4543TIP3    H113635   0.787   4.441   3.020  1.1347  0.5040  0.9615
 4543TIP3    H213636   0.872   4.544   2.950 -0.1792  0.4132 -0.8405
 4544TIP3   OH213637   5.672   4.176   0.941  0.1416 -0.2782 -0.6976
 4544TIP3    H113638   5.710   4.230   0.871  1.0227 -0.8027 -0.6354
 4544TIP3    H213639   5.740   4.173   1.009 -0.4666 -0.2808 -0.0744
 4545TIP3   OH213640   4.315   4.462   2.415 -0.0185  0.2775 -0.8216
 4545TIP3    H113641   4.359   4.472   2.499 -0.0791 -1.5371 -0.5482
 4545TIP3    H213642   4.350   4.382   2.378 -2.8175 -1.1165 -0.7303
 4546TIP3   OH213643   3.118   0.777   4.515 -0.1608  0.1565 -0.2381
 4546TIP3    H113644   3.067   0.842   4.466  0.2919  0.0378 -0.8784
 4546TIP3    H213645   3.147   0.714   4.449  1.9323  0.9360 -0.1309
 4547TIP3   OH213646   1.266   2.284   0.896  0.2179  0.3668 -0.0971
 4547TIP3    H113647   1.185   2.326   0.928  0.4678 -0.2378  1.4069
 4547TIP3    H213648   1.271   2.202   0.945  0.7019 -0.5671 -1.6637
 4548TIP3   OH213649   4.461   2.268   0.249  0.9515 -0.1858 -0.4841
 4548TIP3    H113650   4.475   2.181   0.211 -1.3042  0.0321 -1.9728
 4548TIP3    H213651   4.409   2.251   0.328  1.1267 -0.2155 -0.3725
 4549TIP3   OH213652   4.711   4.505   0.552  0.3096  0.3003  0.2742
 4549TIP3    H113653   4.718   4.456   0.470 -0.9653  0.1113  0.2596
 4549TIP3    H213654   4.621   4.491   0.580  0.6745  0.5252  1.6114
 4550TIP3   OH213655   2.257   4.116   0.350 -0.6350 -0.5961 -0.3877
 4550TIP3    H113656   2.280   4.036   0.398  0.8465  1.2335  2.1878
 4550TIP3    H213657   2.167   4.136   0.377 -0.8584 -1.1203 -0.7168
 4551TIP3   OH213658   6.278   4.003   4.412 -0.0137  0.0671  0.3497
 4551TIP3    H113659   6.355   4.043   4.369  0.6273 -0.9493  0.5324
 4551TIP3    H213660   6.267   3.919   4.368 -2.1754  0.9486 -0.9597
 4552TIP3   OH213661   6.198   3.821   4.686  0.4888 -0.1160  0.0572
 4552TIP3    H113662   6.143   3.771   4.746  0.3095  0.3752  0.3065
 4552TIP3    H213663   6.223   3.899   4.735  0.6110  0.1326 -0.3904
 4553TIP3   OH213664   0.921   4.116   4.940 -0.4119  0.4005 -0.0526
 4553TIP3    H113665   0.999   4.061   4.930 -2.2780 -2.0613 -2.8496
 4553TIP3    H213666   0.933   4.186   4.876 -0.7142 -0.3522 -0.9613
 4554TIP3   OH213667   5.215   4.368   4.602  0.8291  0.1850  0.7082
 4554TIP3    H113668   5.284   4.424   4.636  0.9687  0.3091  0.2345
 4554TIP3    H213669   5.178   4.417   4.529 -0.5547  0.6264  1.6893
 4555TIP3   OH213670   0.626   2.902   4.757 -0.3530  0.3141 -0.1244
 4555TIP3    H113671   0.690   2.833   4.773  0.2744  1.2810  1.9384
 4555TIP3    H213672   0.542   2.858   4.756  0.1096 -0.5954  0.0943
 4556TIP3   OH213673   0.642   0.224   2.377 -0.3889 -0.3523 -0.2379
 4556TIP3    H113674   0.690   0.176   2.445 -1.9777 -0.0400  1.1689
 4556TIP3    H213675   0.701   0.224   2.301  1.5932 -0.4367  1.2209
 4557TIP3   OH213676   1.729   1.627   2.447 -0.3475 -0.1245 -0.0823
 4557TIP3    H113677   1.718   1.604   2.354 -1.8276  0.9715 -0.2157
 4557TIP3    H213678   1.747   1.721   2.446  2.0782 -0.5107  0.6406
 4558TIP3   OH213679   2.426   0.367   1.272  0.1543 -0.0472 -0.5911
 4558TIP3    H113680   2.422   0.302   1.201  0.4001  0.1886 -0.8227
 4558TIP3    H213681   2.402   0.450   1.230 -0.6622 -0.0667 -0.1909
 4559TIP3   OH213682   4.641   1.393   0.775  0.2140  0.2315 -0.6870
 4559TIP3    H113683   4.563   1.425   0.821  0.3058 -0.7862  0.2349
 4559TIP3    H213684   4.711   1.454   0.800  1.1544 -2.1871  3.6528
 4560TIP3   OH213685   2.574   1.483   4.223 -0.2583 -0.2660 -0.2817
 4560TIP3    H113686   2.585   1.389   4.214 -1.8652 -0.5164 -0.0053
 4560TIP3    H213687   2.653   1.513   4.268  0.0769 -1.5403  0.0084
 4561TIP3   OH213688   3.965   1.566   1.258 -0.3997 -0.6185 -0.1907
 4561TIP3    H113689   3.883   1.615   1.263 -0.0402 -0.0946  0.6943
 4561TIP3    H213690   3.946   1.482   1.300 -0.2056 -0.0935  0.9881
 4562TIP3   OH213691   5.524   1.165   5.164  0.0439 -0.5375  0.2244
 4562TIP3    H113692   5.556   1.082   5.200  0.6452 -0.9340 -1.1133
 4562TIP3    H213693   5.529   1.152   5.069 -1.4993  0.4179 -0.0236
 4563TIP3   OH213694   4.500   4.814   0.977  0.1869 -0.2716 -0.2976
 4563TIP3    H113695   4.479   4.897   0.933  2.8893  0.7118  0.0604
 4563TIP3    H213696   4.433   4.804   1.044 -1.5074  0.4249 -1.8045
 4564TIP3   OH213697   2.911   3.007   4.139  0.0745  0.4729  0.1070
 4564TIP3    H113698   2.872   3.093   4.127  0.5981  0.6854 -0.1217
 4564TIP3    H213699   2.986   3.006   4.079  0.2450 -0.0331  0.3201
 4565TIP3   OH213700   5.205   2.427   0.781  0.1643  0.1295 -0.0201
 4565TIP3    H113701   5.200   2.355   0.844 -0.1352  0.8727  0.8284
 4565TIP3    H213702   5.298   2.432   0.759  0.6315  1.1795  1.9686
 4566TIP3   OH213703   0.438   5.716   4.453 -0.4295 -0.2813 -0.9976
 4566TIP3    H113704   0.483   5.718   4.537  0.0146  0.1531 -1.2472
 4566TIP3    H213705   0.345   5.724   4.476 -0.2945  0.0682 -0.5663
 4567TIP3   OH213706   4.986   5.562   4.628 -0.2048 -0.4203 -0.0721
 4567TIP3    H113707   5.012   5.654   4.638 -0.0678 -0.4011 -0.5982
 4567TIP3    H213708   4.948   5.539   4.713  1.0780 -0.3015  0.5630
 4568TIP3   OH213709   3.920   4.842   4.853 -0.7624  0.4390 -0.7317
 4568TIP3    H113710   3.862   4.825   4.778 -0.6336  1.1093 -0.9923
 4568TIP3    H213711   3.945   4.934   4.843 -0.3932  0.4106 -0.1031
 4569TIP3   OH213712   0.551   1.677   1.203  0.0627 -0.0736  0.4924
 4569TIP3    H113713   0.608   1.690   1.127  0.3327 -1.6005  0.4064
 4569TIP3    H213714   0.469   1.645   1.167 -0.3353  0.6111  0.7512
 4570TIP3   OH213715   1.392   0.345   1.440  0.7386  0.6543 -0.0341
 4570TIP3    H113716   1.482   0.362   1.412  1.5451 -1.1551  1.2505
 4570TIP3    H213717   1.358   0.283   1.376  0.7273  0.6399 -0.0142
 4571TIP3   OH213718   5.513   0.549   2.615 -0.0235 -0.0578 -0.1595
 4571TIP3    H113719   5.599   0.556   2.575 -0.2299 -1.4068 -0.8768
 4571TIP3    H213720   5.489   0.457   2.607 -0.9909  0.0372  1.1906
 4572TIP3   OH213721   4.833   1.526   4.983 -0.1330 -0.3607  0.1834
 4572TIP3    H113722   4.760   1.503   4.926  0.7476 -1.1570 -0.6717
 4572TIP3    H213723   4.849   1.446   5.034  0.1368 -0.1875  0.3746
 4573TIP3   OH213724   5.525   1.767   1.558  0.3511  0.1224 -0.3946
 4573TIP3    H113725   5.463   1.838   1.548  2.5636  1.8513 -4.0356
 4573TIP3    H213726   5.481   1.691   1.519 -0.6982  0.3596  0.2827
 4574TIP3   OH213727   3.658   3.563   2.395 -0.0307  0.5120 -0.4678
 4574TIP3    H113728   3.583   3.613   2.428 -0.9081 -0.7539 -0.4986
 4574TIP3    H213729   3.634   3.538   2.306  0.0705 -0.6075 -0.1906
 4575TIP3   OH213730   4.000   0.723   0.878 -0.9464  0.3156 -0.4301
 4575TIP3    H113731   3.997   0.732   0.973 -0.7599  1.0204 -0.4855
 4575TIP3    H213732   4.033   0.807   0.847  0.0860 -0.2952 -1.0452
 4576TIP3   OH213733   0.287   5.760   3.859 -0.4014  0.1392 -0.0928
 4576TIP3    H113734   0.333   5.689   3.815  2.0402  0.3431  1.9004
 4576TIP3    H213735   0.247   5.811   3.788  1.1759 -0.9357 -1.8457
 4577TIP3   OH213736   5.141   3.208   0.338 -0.2348 -0.8291  0.0479
 4577TIP3    H113737   5.103   3.129   0.298 -0.6180 -1.7221  2.0153
 4577TIP3    H213738   5.188   3.251   0.267 -2.8711 -0.9731 -1.9466
 4578TIP3   OH213739   5.101   2.797   3.121 -0.2397  0.7913 -0.5266
 4578TIP3    H113740   5.141   2.879   3.091 -0.7347  1.6239  0.9278
 4578TIP3    H213741   5.026   2.826   3.174 -1.0973 -0.6478 -0.9117
 4579TIP3   OH213742   4.219   1.854   1.439  0.6874 -0.4458  0.2985
 4579TIP3    H113743   4.234   1.808   1.356 -1.4086 -1.7987  0.5905
 4579TIP3    H213744   4.128   1.835   1.461  0.4790  1.8436  1.7521
 4580TIP3   OH213745   2.922   1.788   3.817 -0.7247  0.0441 -0.1580
 4580TIP3    H113746   2.872   1.733   3.758 -0.2102  0.2551 -0.7970
 4580TIP3    H213747   2.994   1.732   3.846  0.4091  0.6892 -1.6398
 4581TIP3   OH213748   4.552   2.909   1.228 -0.3122  0.3072  0.4524
 4581TIP3    H113749   4.601   2.827   1.218 -1.8651 -0.5369 -0.6473
 4581TIP3    H213750   4.522   2.908   1.319  1.8218  0.9684  1.2393
 4582TIP3   OH213751   3.047   1.196   3.909 -0.7816  0.3562 -0.5127
 4582TIP3    H113752   3.116   1.132   3.926 -1.4394  0.1999  1.9916
 4582TIP3    H213753   3.052   1.212   3.815  1.8658 -0.5277 -0.6092
 4583TIP3   OH213754   5.622   5.188   4.267 -0.0075 -0.0799  0.7333
 4583TIP3    H113755   5.539   5.184   4.314 -0.4748  0.5158 -0.0097
 4583TIP3    H213756   5.619   5.113   4.207  0.2823 -0.4349  1.1579
 4584TIP3   OH213757   2.265   4.024   1.736 -0.5681  0.3180 -0.3064
 4584TIP3    H113758   2.225   4.101   1.775  1.7265  0.6872  1.4702
 4584TIP3    H213759   2.230   3.951   1.787  0.7336  0.6118  1.0423
 4585TIP3   OH213760   1.282   4.421   3.202  0.3122  0.1777  0.2554
 4585TIP3    H113761   1.283   4.400   3.295  0.7226 -0.4279  0.1249
 4585TIP3    H213762   1.223   4.496   3.194  0.2198  0.1870  0.9891
 4586TIP3   OH213763   0.672   4.880   1.099 -0.1241  0.0744 -0.5751
 4586TIP3    H113764   0.718   4.917   1.174 -1.5843  1.7111 -0.4367
 4586TIP3    H213765   0.686   4.943   1.028 -1.7769  0.4112 -0.6351
 4587TIP3   OH213766   4.649   3.463   0.651  0.0487  0.4131 -0.4558
 4587TIP3    H113767   4.589   3.417   0.593  0.4873 -2.7742  1.3586
 4587TIP3    H213768   4.730   3.470   0.601 -0.0892 -0.6965 -0.8673
 4588TIP3   OH213769   0.069   3.124   0.770 -0.0254 -0.4361 -0.0285
 4588TIP3    H113770   0.154   3.088   0.747  0.7336  0.4149  1.2890
 4588TIP3    H213771   0.089   3.211   0.806 -1.2956 -0.7376  1.5367
 4589TIP3   OH213772   1.642   1.577   2.184  0.4527 -0.1943 -0.0650
 4589TIP3    H113773   1.669   1.508   2.123 -1.2143 -1.5570  0.6478
 4589TIP3    H213774   1.633   1.655   2.130 -0.8888 -1.3458 -1.6016
 4590TIP3   OH213775   3.453   1.292   3.619 -0.6461  0.6922  0.1954
 4590TIP3    H113776   3.421   1.371   3.575 -1.4826  0.2461 -0.0326
 4590TIP3    H213777   3.548   1.298   3.614 -0.7092  1.3989 -0.3404
 4591TIP3   OH213778   1.365   5.109   0.746  0.1545  0.2572  0.4226
 4591TIP3    H113779   1.342   5.201   0.758 -0.2581  0.2833 -0.4497
 4591TIP3    H213780   1.411   5.107   0.662 -0.4604 -0.4264  0.0879
 4592TIP3   OH213781   1.574   5.021   3.600 -0.3336 -0.4213  0.0524
 4592TIP3    H113782   1.568   4.949   3.536 -1.4189 -0.1278 -0.1906
 4592TIP3    H213783   1.565   4.978   3.685 -3.1251 -0.4091 -0.1474
 4593TIP3   OH213784   0.415   4.143   4.815 -0.1011  0.0438 -0.0351
 4593TIP3    H113785   0.484   4.156   4.750  0.2202  1.1150  0.5021
 4593TIP3    H213786   0.335   4.175   4.772 -0.2215 -0.8592 -0.5206
 4594TIP3   OH213787   2.017   2.252   1.976 -0.8419  0.0507  0.4931
 4594TIP3    H113788   1.956   2.259   1.902 -1.1794  1.2634  0.8502
 4594TIP3    H213789   1.970   2.294   2.049 -0.1141 -0.2211  1.1237
 4595TIP3   OH213790   2.880   3.227   0.417  0.3041 -0.2274 -0.0974
 4595TIP3    H113791   2.935   3.158   0.379  0.3575 -0.7609  0.9140
 4595TIP3    H213792   2.903   3.305   0.367  0.5626 -0.8440 -0.9742
 4596TIP3   OH213793   0.132   2.536   4.465 -0.0647 -0.2918 -0.0376
 4596TIP3    H113794   0.149   2.516   4.557  2.3182  1.7572  0.0620
 4596TIP3    H213795   0.105   2.452   4.427  0.1682 -1.4771  2.2225
 4597TIP3   OH213796   4.498   1.801   3.693  0.3661  0.2202  0.2575
 4597TIP3    H113797   4.435   1.775   3.760 -1.1045  2.4856 -0.1552
 4597TIP3    H213798   4.556   1.725   3.684 -1.7924 -1.6496  1.2426
 4598TIP3   OH213799   0.410   0.710   0.949  0.2977  0.2835 -0.9957
 4598TIP3    H113800   0.347   0.695   1.019 -0.6615  0.1224 -1.8645
 4598TIP3    H213801   0.423   0.805   0.948 -0.7839  0.4390 -1.5050
 4599TIP3   OH213802   4.297   2.737   4.380 -0.5688  0.1249 -0.5716
 4599TIP3    H113803   4.306   2.795   4.456 -1.4260 -0.1854 -0.2136
 4599TIP3    H213804   4.215   2.690   4.396  0.2782 -1.4393 -0.6862
 4600TIP3   OH213805   1.062   3.481   1.974 -0.5572  0.2494 -0.1973
 4600TIP3    H113806   1.113   3.551   2.016 -1.5045  0.2875  0.9376
 4600TIP3    H213807   1.099   3.474   1.886  0.7643  0.9286  0.2768
 4601TIP3   OH213808   0.364   3.720   5.045  0.0445 -0.2060  0.1964
 4601TIP3    H113809   0.311   3.749   5.119  0.4665  0.4757  0.2424
 4601TIP3    H213810   0.323   3.761   4.968  1.6454  2.0327  0.4369
 4602TIP3   OH213811   2.451   2.430   4.413  0.2531 -0.1749  0.7338
 4602TIP3    H113812   2.543   2.446   4.432  1.1393 -0.5388 -2.6256
 4602TIP3    H213813   2.443   2.335   4.409  0.0825 -0.1388 -0.1786
 4603TIP3   OH213814   4.580   2.989   0.943 -0.2957 -0.1020 -0.2497
 4603TIP3    H113815   4.567   3.007   1.036 -1.5969 -2.2289  0.0427
 4603TIP3    H213816   4.531   3.057   0.898  0.7259  1.2258  0.5744
 4604TIP3   OH213817   2.265   4.721   1.511  0.1964  0.3179 -0.2071
 4604TIP3    H113818   2.174   4.738   1.486  0.1269  0.8471  0.3675
 4604TIP3    H213819   2.260   4.702   1.605  0.5652 -0.6197 -0.3681
 4605TIP3   OH213820   0.045   0.643   0.426 -0.4457 -0.7851 -0.3425
 4605TIP3    H113821   0.127   0.604   0.456  0.2498  0.0581 -1.0817
 4605TIP3    H213822  -0.020   0.574   0.438  0.0118 -0.9187  1.9021
 4606TIP3   OH213823   0.834   0.686   0.164 -0.3804 -0.5634 -1.1665
 4606TIP3    H113824   0.813   0.725   0.249  3.1963 -0.5373 -0.1505
 4606TIP3    H213825   0.802   0.597   0.170 -0.3842 -0.4953  0.1575
 4607TIP3   OH213826   0.958   2.869   0.902  0.6142 -0.1656 -0.9631
 4607TIP3    H113827   0.950   2.901   0.812  0.9722  0.0269 -0.9316
 4607TIP3    H213828   1.025   2.801   0.897 -0.1467 -0.9241 -1.0290
 4608TIP3   OH213829   0.088   0.230   4.610  0.3762  0.6297 -0.0581
 4608TIP3    H113830   0.157   0.260   4.550  0.7214 -1.3819 -0.7588
 4608TIP3    H213831   0.014   0.211   4.553  0.9502 -2.0176 -0.0450
 4609TIP3   OH213832   3.878   5.984   1.339 -0.0144 -0.4506 -0.5436
 4609TIP3    H113833   3.957   6.025   1.375 -0.2614 -0.9647  0.6227
 4609TIP3    H213834   3.882   5.893   1.370 -0.0633 -1.0245 -2.1243
 4610TIP3   OH213835   2.222   4.625   3.705  0.3076 -0.7179 -0.4247
 4610TIP3    H113836   2.273   4.624   3.624  2.2642  1.5107  0.6883
 4610TIP3    H213837   2.169   4.704   3.699  1.5388  0.2645  1.0350
 4611TIP3   OH213838   0.716   1.106   2.817  0.1894 -0.0200 -0.6642
 4611TIP3    H113839   0.687   1.093   2.727  0.1089  1.1428 -0.8103
 4611TIP3    H213840   0.783   1.173   2.812 -0.9423  1.2370  0.3223
 4612TIP3   OH213841   3.135   1.918   1.846  0.3497  0.2773  0.6883
 4612TIP3    H113842   3.208   1.875   1.802 -0.5782 -0.1262 -0.5099
 4612TIP3    H213843   3.058   1.867   1.821 -0.4887  1.3560  0.9831
 4613TIP3   OH213844   1.523   4.694   2.144  0.0706 -0.3626 -0.1318
 4613TIP3    H113845   1.468   4.635   2.093 -0.2844  0.5727 -0.8620
 4613TIP3    H213846   1.598   4.641   2.170 -0.7117 -1.3915  0.0728
 4614TIP3   OH213847   5.420   4.478   2.514 -0.0276  0.0687 -0.3402
 4614TIP3    H113848   5.448   4.565   2.544 -1.1928  0.7927 -1.2582
 4614TIP3    H213849   5.357   4.449   2.579 -0.8812  0.6535 -0.8937
 4615TIP3   OH213850   1.231   3.116   1.418 -0.4598  0.4856 -0.1646
 4615TIP3    H113851   1.262   3.116   1.508  0.5025  1.4995 -0.4676
 4615TIP3    H213852   1.301   3.159   1.369 -1.6286  1.3214 -1.1544
 4616TIP3   OH213853   2.150   5.386   0.243  0.7581 -0.1222  0.6551
 4616TIP3    H113854   2.102   5.463   0.213  0.3998  0.4562  2.5795
 4616TIP3    H213855   2.090   5.343   0.305  2.1264 -0.1809  1.9951
 4617TIP3   OH213856   4.687   1.709   0.790 -0.4594 -0.5733 -0.0339
 4617TIP3    H113857   4.768   1.663   0.768 -0.3410 -1.3175  1.7860
 4617TIP3    H213858   4.700   1.739   0.880 -1.5062  0.9175 -0.3365
 4618TIP3   OH213859   2.083   0.832   3.058  0.2054 -0.2434 -0.2241
 4618TIP3    H113860   2.009   0.875   3.014 -0.5308 -1.2634 -0.0360
 4618TIP3    H213861   2.127   0.783   2.989  1.0274  0.7605 -0.4333
 4619TIP3   OH213862   6.203   3.348   2.416  0.4234  0.3376 -0.2360
 4619TIP3    H113863   6.155   3.328   2.336 -1.1512  0.7704  0.5679
 4619TIP3    H213864   6.282   3.294   2.410  0.4089  0.4466 -2.1134
 4620TIP3   OH213865   0.251   4.059   0.215  0.0283 -0.4459  0.5080
 4620TIP3    H113866   0.173   4.106   0.246 -0.8300 -0.4282 -1.5037
 4620TIP3    H213867   0.222   4.014   0.136  2.5134  1.3068 -1.6125
 4621TIP3   OH213868   0.953   3.781   2.103  0.6837 -0.2730 -0.1482
 4621TIP3    H113869   0.904   3.723   2.162  1.2555 -0.2249  0.3859
 4621TIP3    H213870   0.950   3.866   2.146  1.8610 -0.4303  0.2700
 4622TIP3   OH213871   6.130   4.456   2.487  0.0151 -0.0905  0.5769
 4622TIP3    H113872   6.116   4.427   2.397 -0.7953 -0.1562  0.7115
 4622TIP3    H213873   6.072   4.532   2.496  1.0388  0.7059  0.6656
 4623TIP3   OH213874   3.399   2.510   3.213  0.0683 -0.1438  0.1307
 4623TIP3    H113875   3.486   2.534   3.244 -0.7162  2.0640  0.8659
 4623TIP3    H213876   3.364   2.452   3.281  0.5839 -0.2149  0.3396
 4624TIP3   OH213877   2.576   5.795   0.988 -0.4410  0.0571 -0.0519
 4624TIP3    H113878   2.493   5.831   1.020 -0.1613  1.1405 -0.4846
 4624TIP3    H213879   2.631   5.872   0.975 -0.2705 -0.3815 -2.3866
 4625TIP3   OH213880   4.443   0.264   2.101 -0.4933  0.4470 -0.2104
 4625TIP3    H113881   4.515   0.205   2.077  1.3268  2.3684  0.2374
 4625TIP3    H213882   4.421   0.239   2.191 -0.0084  0.1728 -0.1628
 4626TIP3   OH213883   2.618   3.527   3.168 -0.1716 -0.2055 -0.6830
 4626TIP3    H113884   2.675   3.575   3.228 -1.4743 -0.6943  1.0059
 4626TIP3    H213885   2.557   3.593   3.134 -1.3574 -0.4114  0.9131
 4627TIP3   OH213886   0.488   5.154   1.466  0.2130  0.7247 -0.1248
 4627TIP3    H113887   0.547   5.080   1.473  0.1981  0.6246 -0.8835
 4627TIP3    H213888   0.404   5.115   1.441  0.3029  1.0141 -0.9330
 4628TIP3   OH213889   3.007   4.415   5.121 -0.5394  0.2458 -0.2683
 4628TIP3    H113890   2.923   4.454   5.146 -0.5518  0.1940 -0.2306
 4628TIP3    H213891   2.998   4.397   5.028 -0.1507  1.3339 -0.5344
 4629TIP3   OH213892   5.548   1.093   4.256 -0.7314 -0.2372  0.4787
 4629TIP3    H113893   5.465   1.078   4.301 -0.1313 -0.3055  1.6029
 4629TIP3    H213894   5.547   1.032   4.183 -1.1178 -1.1934  1.2507
 4630TIP3   OH213895   5.244   3.686   0.547  0.0138  0.0380 -0.1906
 4630TIP3    H113896   5.272   3.594   0.542 -0.4737 -0.0907 -0.6869
 4630TIP3    H213897   5.163   3.683   0.598 -0.5253  0.0570 -1.0182
 4631TIP3   OH213898   2.668   3.975   3.706 -1.4378 -0.0638  0.1245
 4631TIP3    H113899   2.573   3.970   3.694 -1.4336  1.1422 -0.6270
 4631TIP3    H213900   2.680   4.032   3.781 -1.3073  0.2883 -0.1593
 4632TIP3   OH213901   2.850   5.512   0.132 -0.7519 -0.2986 -0.3711
 4632TIP3    H113902   2.757   5.535   0.123 -0.9442 -0.8058  0.2217
 4632TIP3    H213903   2.863   5.502   0.227  0.1040  0.5248 -0.3800
 4633TIP3   OH213904   4.424   2.475   5.017 -0.3060 -0.3936  0.3761
 4633TIP3    H113905   4.387   2.563   5.024  3.1096  1.2284 -0.1077
 4633TIP3    H213906   4.366   2.420   5.069 -1.7998  2.3800  1.8488
 4634TIP3   OH213907   3.053   3.385   4.010 -0.0653 -0.1586  0.1364
 4634TIP3    H113908   3.115   3.314   4.028  1.2668  1.5990  3.4081
 4634TIP3    H213909   3.089   3.429   3.932  0.5716 -1.4537 -0.3338
 4635TIP3   OH213910   0.051   5.040   1.168 -0.1863 -0.3268 -0.6197
 4635TIP3    H113911  -0.025   5.058   1.223 -0.3766 -0.5827 -0.7953
 4635TIP3    H213912   0.015   5.029   1.080 -0.0514 -1.2859 -0.5644
 4636TIP3   OH213913   3.121   0.514   0.912  0.0215 -0.0926  0.4445
 4636TIP3    H113914   3.150   0.440   0.966  1.4177  0.4592  0.4724
 4636TIP3    H213915   3.129   0.482   0.822  0.0293 -0.1766  0.4748
 4637TIP3   OH213916   4.360   2.326   1.187  0.4240  0.0213 -0.4649
 4637TIP3    H113917   4.270   2.357   1.195  0.6996  0.6010  0.5145
 4637TIP3    H213918   4.388   2.309   1.277  1.1732 -0.5021 -0.7861
 4638TIP3   OH213919   1.865   5.462   3.457 -0.0282  0.3333  0.0978
 4638TIP3    H113920   1.827   5.374   3.444  0.1049  0.1501  0.8993
 4638TIP3    H213921   1.812   5.519   3.401  0.0229 -0.2863 -0.6105
 4639TIP3   OH213922   4.968   4.867   2.755 -0.2912 -0.1329  0.1786
 4639TIP3    H113923   4.988   4.911   2.837  3.5304 -1.6328  0.2768
 4639TIP3    H213924   4.980   4.934   2.687  0.7326  0.1368  0.6134
 4640TIP3   OH213925   5.634   2.857   1.518 -0.3911 -0.3812 -0.1243
 4640TIP3    H113926   5.557   2.912   1.534  0.9816  1.4384  0.6340
 4640TIP3    H213927   5.653   2.818   1.603  0.0774 -0.0445 -0.0712
 4641TIP3   OH213928   1.223   0.447   4.808  0.6133  0.0145 -0.1558
 4641TIP3    H113929   1.293   0.381   4.811  1.9303  1.1995 -2.0661
 4641TIP3    H213930   1.258   0.521   4.857  0.3808  0.3388 -0.4743
 4642TIP3   OH213931   5.502   1.733   4.872 -0.9249 -0.8013 -0.1114
 4642TIP3    H113932   5.507   1.826   4.851 -2.6437 -0.4137  0.9901
 4642TIP3    H213933   5.477   1.691   4.789  0.0338 -0.3303 -0.6544
 4643TIP3   OH213934   0.853   0.044   0.766 -0.2499 -0.0639  0.0724
 4643TIP3    H113935   0.939   0.081   0.783 -0.8367  1.6557 -0.4846
 4643TIP3    H213936   0.809   0.110   0.713 -1.4770 -1.4601 -0.7087
 4644TIP3   OH213937   2.771   2.059   2.379  0.0164  0.1706 -0.0937
 4644TIP3    H113938   2.684   2.031   2.408 -0.7665 -1.4385 -3.4132
 4644TIP3    H213939   2.820   2.074   2.459 -2.7348 -0.7413  1.9207
 4645TIP3   OH213940   2.014   3.102   4.592  0.0823 -0.0241  0.0170
 4645TIP3    H113941   2.063   3.182   4.569  0.9942 -0.8485 -1.0669
 4645TIP3    H213942   2.025   3.045   4.516 -2.8619 -0.1660 -0.4081
 4646TIP3   OH213943   2.333   3.456   3.095 -0.0664 -0.0815  0.2131
 4646TIP3    H113944   2.358   3.394   3.027 -0.3991  0.8560 -0.7826
 4646TIP3    H213945   2.377   3.423   3.174 -1.7943 -2.6909  0.2053
 4647TIP3   OH213946   3.534   1.584   0.703  0.4598 -0.4655 -0.5142
 4647TIP3    H113947   3.506   1.542   0.785  0.4304 -1.9367 -1.2369
 4647TIP3    H213948   3.452   1.606   0.659  0.4761 -0.0297 -0.3338
 4648TIP3   OH213949   2.609   3.172   0.133 -0.2256 -0.1905 -0.1753
 4648TIP3    H113950   2.594   3.159   0.226 -1.7678  3.1445  0.1530
 4648TIP3    H213951   2.695   3.214   0.128 -0.3233 -0.0015 -0.2434
 4649TIP3   OH213952   5.716   5.235   2.126  0.1910  0.1296  0.3206
 4649TIP3    H113953   5.772   5.270   2.056  1.6677 -0.6443  1.0682
 4649TIP3    H213954   5.719   5.140   2.114 -1.6073  0.0844 -0.0645
 4650TIP3   OH213955   3.081   0.677   2.561  0.6040  0.2765 -0.2098
 4650TIP3    H113956   3.104   0.764   2.592  3.1209  0.0865 -1.3090
 4650TIP3    H213957   2.986   0.680   2.549  0.2033  1.8875  2.5355
 4651TIP3   OH213958   0.830   4.944   4.455  1.1968 -0.1141  0.1217
 4651TIP3    H113959   0.863   5.029   4.486 -1.4519  0.2907  2.2754
 4651TIP3    H213960   0.766   4.918   4.522 -0.4512 -2.2610 -2.1119
 4652TIP3   OH213961   0.564   3.205   0.649 -0.3752  0.1250 -0.0568
 4652TIP3    H113962   0.585   3.126   0.699  1.4182 -0.3280 -1.4017
 4652TIP3    H213963   0.531   3.171   0.565 -0.0212  0.8084 -0.4774
 4653TIP3   OH213964   2.805   4.008   3.440 -0.2191 -0.1916 -0.0938
 4653TIP3    H113965   2.786   4.010   3.534  0.7643 -1.9882  0.1862
 4653TIP3    H213966   2.773   4.092   3.407  2.2453  1.8786  2.3798
 4654TIP3   OH213967   0.135   2.989   3.546 -0.2749 -0.3558  0.2805
 4654TIP3    H113968   0.094   3.070   3.576  1.5523  0.3309  1.0568
 4654TIP3    H213969   0.112   2.983   3.453  2.3768  3.0058 -0.8175
 4655TIP3   OH213970   3.044   3.006   0.390 -0.5311 -0.6614 -0.2740
 4655TIP3    H113971   3.138   3.006   0.371 -0.0152 -0.1396  1.9562
 4655TIP3    H213972   3.019   2.914   0.386  0.6782 -1.1267  1.4873
 4656TIP3   OH213973   5.701   5.334   3.268  0.3914  0.3716 -0.3092
 4656TIP3    H113974   5.699   5.251   3.316  1.9668 -0.4118 -1.4962
 4656TIP3    H213975   5.667   5.313   3.181  1.6988  0.7117 -0.9335
 4657TIP3   OH213976   0.535   3.666   1.623 -0.2157  0.1000 -0.0925
 4657TIP3    H113977   0.598   3.694   1.688 -1.7570  0.9431  1.1182
 4657TIP3    H213978   0.527   3.740   1.563  0.2712 -0.1866 -0.5181
 4658TIP3   OH213979   0.309   1.964   1.442 -0.3930  0.2813  0.4143
 4658TIP3    H113980   0.316   2.058   1.428 -2.2454  0.5023  0.7452
 4658TIP3    H213981   0.398   1.931   1.426  0.3671  2.1019  0.6278
 4659TIP3   OH213982   2.606   3.182   0.409  0.4868 -0.0750 -0.4872
 4659TIP3    H113983   2.609   3.086   0.418 -1.0963 -0.0874  0.1486
 4659TIP3    H213984   2.688   3.212   0.450  0.4611 -1.0929  0.3588
 4660TIP3   OH213985   3.442   1.508   4.839  0.2129 -0.7276 -0.6202
 4660TIP3    H113986   3.444   1.589   4.788 -0.6750 -0.0648  0.3373
 4660TIP3    H213987   3.356   1.469   4.819 -1.0781  0.5923  1.8214
 4661TIP3   OH213988   3.819   4.929   3.856 -0.3691  0.0947 -0.5741
 4661TIP3    H113989   3.796   5.022   3.856 -1.4783 -0.1636 -0.4061
 4661TIP3    H213990   3.738   4.885   3.833  0.0265 -0.8627 -0.1751
 4662TIP3   OH213991   1.699   0.688   0.831  0.4946  0.2634  0.2025
 4662TIP3    H113992   1.791   0.670   0.811  0.0152 -1.0768 -0.9558
 4662TIP3    H213993   1.701   0.764   0.888  2.2997  0.5336 -0.1812
 4663TIP3   OH213994   3.640   4.274   2.791 -0.5138  0.1949  0.3317
 4663TIP3    H113995   3.614   4.346   2.849 -0.2986  1.1198 -0.6865
 4663TIP3    H213996   3.592   4.290   2.710  1.7195  0.8656 -0.9397
 4664TIP3   OH213997   5.761   2.800   5.150  0.1169 -0.2159 -0.0653
 4664TIP3    H113998   5.690   2.839   5.098  0.0690 -0.1560  0.0459
 4664TIP3    H213999   5.760   2.707   5.125 -0.3331 -0.3189  0.3075
 4665TIP3   OH214000   6.011   4.063   1.232  0.0051  0.1556  0.1008
 4665TIP3    H114001   5.967   4.130   1.181  0.8912  0.0181 -0.8788
 4665TIP3    H214002   5.941   4.006   1.263 -0.7939  1.6772  1.2205
 4666TIP3   OH214003   4.268   4.335   1.649 -0.0732 -0.1833  0.0169
 4666TIP3    H114004   4.355   4.301   1.625  0.3824  1.8157 -1.4599
 4666TIP3    H214005   4.286   4.396   1.721 -0.5578 -1.2319  1.0523
 4667TIP3   OH214006   2.543   4.559   0.196  0.5307  0.5697 -0.1306
 4667TIP3    H114007   2.588   4.617   0.134  3.4478 -1.5995 -0.2522
 4667TIP3    H214008   2.523   4.615   0.271 -0.3884  2.5672 -1.7546
 4668TIP3   OH214009   1.401   4.532   4.225 -0.1261 -0.1725  0.4800
 4668TIP3    H114010   1.327   4.541   4.165 -0.4748 -1.5089  0.6625
 4668TIP3    H214011   1.465   4.478   4.177  0.9197  1.2720  0.1796
 4669TIP3   OH214012   0.279   4.468   1.003 -0.4808  0.3574 -0.1102
 4669TIP3    H114013   0.313   4.553   0.976  1.3515  0.3151  1.8263
 4669TIP3    H214014   0.342   4.404   0.969 -0.2862  0.0164  0.8511
 4670TIP3   OH214015   4.745   3.577   0.314  0.0077  0.6191  0.6683
 4670TIP3    H114016   4.810   3.598   0.247 -0.2979  1.9255  0.7615
 4670TIP3    H214017   4.769   3.488   0.343 -0.5475 -0.4837 -1.9621
 4671TIP3   OH214018   4.382   4.398   3.727  0.4462 -0.5196 -0.3645
 4671TIP3    H114019   4.444   4.413   3.656 -0.2021  0.9449 -0.6669
 4671TIP3    H214020   4.326   4.326   3.696  0.8506 -0.6223 -0.8613
 4672TIP3   OH214021   2.549   0.861   1.481 -0.3567  0.3607 -0.3206
 4672TIP3    H114022   2.610   0.864   1.555 -2.1403  2.5673  1.1790
 4672TIP3    H214023   2.605   0.873   1.404  1.2294  1.3781  0.9126
 4673TIP3   OH214024   5.483   0.030   2.674  0.2508 -0.2988 -0.5551
 4673TIP3    H114025   5.390   0.015   2.656 -0.1449  1.8861 -0.5638
 4673TIP3    H214026   5.529  -0.009   2.600 -0.6296 -1.5630 -0.4607
 4674TIP3   OH214027   1.862   4.252   0.104 -0.2250 -0.1662  0.1947
 4674TIP3    H114028   1.795   4.252   0.036  0.8463  0.3694 -0.9055
 4674TIP3    H214029   1.817   4.281   0.183 -0.7266  3.2016 -1.1644
 4675TIP3   OH214030   1.971   5.858   2.907 -0.6605  0.2137 -0.0011
 4675TIP3    H114031   1.976   5.846   3.002 -1.9321  0.9732  0.1792
 4675TIP3    H214032   1.879   5.875   2.889 -0.6512 -1.0215 -1.5230
 4676TIP3   OH214033   3.664   0.205   3.511 -0.0072  0.4370 -0.0158
 4676TIP3    H114034   3.714   0.243   3.439 -1.5682  0.7942 -0.9781
 4676TIP3    H214035   3.577   0.189   3.474 -0.5006 -0.5575  1.4494
 4677TIP3   OH214036   5.026   1.819   4.960 -0.1567 -0.3489 -0.1621
 4677TIP3    H114037   5.068   1.904   4.945 -1.0856  0.4449  1.4735
 4677TIP3    H214038   4.933   1.838   4.958 -0.4415 -0.4703  4.0870
 4678TIP3   OH214039   1.492   5.587   2.316  0.5970 -0.3298 -0.2638
 4678TIP3    H114040   1.443   5.505   2.325 -0.2979  0.1238 -0.9183
 4678TIP3    H214041   1.583   5.558   2.305  0.2821 -1.2547 -0.6034
 4679TIP3   OH214042   1.467   3.943   1.475 -0.0240  0.1605  0.6138
 4679TIP3    H114043   1.418   3.862   1.483  2.2584 -1.3566  0.1465
 4679TIP3    H214044   1.534   3.938   1.543  0.7870  1.1812 -0.0715
 4680TIP3   OH214045   0.728   2.508   0.934  0.0176 -0.1350 -0.0351
 4680TIP3    H114046   0.722   2.468   1.020  0.3037 -0.3472 -0.1095
 4680TIP3    H214047   0.756   2.437   0.876  0.0674  0.0613 -0.2574
 4681TIP3   OH214048   2.112   0.126   4.425  0.2590 -0.0122  0.8151
 4681TIP3    H114049   2.168   0.051   4.448 -0.7702 -0.8000  0.8080
 4681TIP3    H214050   2.174   0.198   4.410  1.2944 -0.9202  0.5792
 4682TIP3   OH214051   5.295   1.679   5.053 -0.0562  0.4934  0.1395
 4682TIP3    H114052   5.352   1.617   5.098  0.6052  1.2027  0.3100
 4682TIP3    H214053   5.347   1.711   4.980 -0.1121  1.3634  0.4630
 4683TIP3   OH214054   0.638   3.131   4.581  0.0385  0.1894 -0.0309
 4683TIP3    H114055   0.731   3.135   4.558 -0.1109 -0.2526 -0.7667
 4683TIP3    H214056   0.631   3.057   4.641 -0.1071 -1.0536 -1.5009
 4684TIP3   OH214057   1.184   0.989   4.993  0.1097  1.0246  0.6457
 4684TIP3    H114058   1.158   1.053   5.059 -1.9946 -0.4933  1.3986
 4684TIP3    H214059   1.158   0.904   5.030  0.0004  0.0068 -1.5921
 4685TIP3   OH214060   0.117   4.985   4.119 -0.2004  0.3830  0.1049
 4685TIP3    H114061   0.085   4.949   4.202  1.9250 -0.6581  0.5195
 4685TIP3    H214062   0.186   4.926   4.091  1.7085  2.7315 -0.5003
 4686TIP3   OH214063   4.651   0.037   4.173 -0.5417  0.6061  0.0283
 4686TIP3    H114064   4.585   0.097   4.205  0.4917  0.9191  1.6692
 4686TIP3    H214065   4.659  -0.030   4.241 -0.5775 -0.5615 -1.0662
 4687TIP3   OH214066   3.615   5.400   1.162  0.4176  0.7464 -0.5142
 4687TIP3    H114067   3.707   5.372   1.160  0.1298 -0.2336 -0.5947
 4687TIP3    H214068   3.566   5.323   1.134 -0.3713  1.5849 -1.5013
 4688TIP3   OH214069   4.611   3.377   3.188  0.0682 -0.1458  0.0989
 4688TIP3    H114070   4.531   3.384   3.240  0.2919  0.8665  0.3358
 4688TIP3    H214071   4.612   3.287   3.157 -1.8147  0.1448 -0.9635
 4689TIP3   OH214072   5.372   3.675   1.566 -0.4413 -0.6041 -0.4864
 4689TIP3    H114073   5.313   3.599   1.563 -2.7402  1.0741 -0.3365
 4689TIP3    H214074   5.417   3.667   1.650 -0.0633 -2.1886 -0.8139
 4690TIP3   OH214075   1.482   4.040   4.294 -0.7579  0.1932  0.0709
 4690TIP3    H114076   1.393   4.006   4.301  0.1169 -2.0406  1.3130
 4690TIP3    H214077   1.480   4.123   4.342 -2.3273  0.5733 -0.6010
 4691TIP3   OH214078   6.030   0.773   2.578  0.1007  0.5406 -0.3517
 4691TIP3    H114079   6.083   0.703   2.540 -0.0454  0.7469 -0.9449
 4691TIP3    H214080   5.977   0.806   2.505 -1.9778 -0.6786  0.5127
 4692TIP3   OH214081   3.284   5.172   2.339  0.3840  0.5277 -0.0442
 4692TIP3    H114082   3.264   5.095   2.286  0.9111  0.2112  0.2064
 4692TIP3    H214083   3.290   5.138   2.428  0.3027  0.9151  0.1087
 4693TIP3   OH214084   3.349   5.559   4.837 -0.0166 -0.1648  0.1063
 4693TIP3    H114085   3.392   5.603   4.764 -0.8495  0.9101  0.2322
 4693TIP3    H214086   3.418   5.510   4.881  0.9303  0.9450 -0.1055
 4694TIP3   OH214087   5.582   4.961   0.178  0.5486 -0.1882  0.2737
 4694TIP3    H114088   5.559   4.972   0.270  0.6646 -0.3103  0.3175
 4694TIP3    H214089   5.618   4.872   0.173 -1.0709 -0.8564 -0.1993
 4695TIP3   OH214090   5.749   1.193   2.470  0.1623  0.4471  0.5266
 4695TIP3    H114091   5.790   1.147   2.397  0.9531 -0.1331  1.3089
 4695TIP3    H214092   5.782   1.148   2.548 -0.4482  1.2204  1.2511
 4696TIP3   OH214093   0.868   2.152   4.745 -0.3133 -0.6510  0.1620
 4696TIP3    H114094   0.918   2.108   4.814 -1.7638 -1.1709  0.9304
 4696TIP3    H214095   0.886   2.100   4.667  1.5757  0.1094  0.0405
 4697TIP3   OH214096   5.230   0.736   0.291 -0.0064  0.6447 -0.2552
 4697TIP3    H114097   5.196   0.819   0.324  1.9386  0.1718  3.3955
 4697TIP3    H214098   5.156   0.698   0.243 -1.8245  3.2188  0.2853
 4698TIP3   OH214099   0.980   4.026   0.417  0.3167  0.5718 -0.2426
 4698TIP3    H114100   0.949   4.001   0.330  0.8251 -0.3561 -0.1726
 4698TIP3    H214101   1.021   3.947   0.452  0.0941  0.9152  0.8623
 4699TIP3   OH214102   5.341   0.960   1.184  0.2850 -0.6423  0.0940
 4699TIP3    H114103   5.394   0.930   1.259 -0.1786  1.1920  1.2208
 4699TIP3    H214104   5.405   0.972   1.114  0.9656 -1.0283  0.6274
 4700TIP3   OH214105   4.420   5.369   4.244 -0.0130  0.3915  0.0795
 4700TIP3    H114106   4.352   5.387   4.309  0.3423  0.5549  0.4107
 4700TIP3    H214107   4.454   5.455   4.220  1.7515  0.2437  1.7323
 4701TIP3   OH214108   3.113   1.588   3.609  0.1120 -0.1345 -0.1048
 4701TIP3    H114109   3.139   1.624   3.524  2.5760 -0.5655  0.3923
 4701TIP3    H214110   3.055   1.515   3.587 -0.6876  0.8215 -1.3172
 4702TIP3   OH214111   6.023   5.865   1.065 -0.3542  0.0832 -0.1981
 4702TIP3    H114112   5.953   5.807   1.034 -0.4276  1.2550 -2.4084
 4702TIP3    H214113   5.984   5.952   1.063  0.0303  0.3711  2.2588
 4703TIP3   OH214114   3.655   0.927   5.005  0.2802  0.0158  0.2728
 4703TIP3    H114115   3.700   0.851   4.968 -0.0427  0.2287 -0.5682
 4703TIP3    H214116   3.567   0.896   5.026  0.1152  0.1894 -0.1697
 4704TIP3   OH214117   1.710   5.012   2.128  0.5175  0.4649 -0.4919
 4704TIP3    H114118   1.762   5.047   2.056 -0.3640 -0.8329 -1.7972
 4704TIP3    H214119   1.751   4.928   2.149  0.4383  0.5828  0.1573
 4705TIP3   OH214120   0.862   3.287   4.558 -0.6962 -0.0511 -0.1306
 4705TIP3    H114121   0.789   3.348   4.555 -0.9186 -0.3448 -0.8747
 4705TIP3    H214122   0.925   3.328   4.617 -0.4195  1.3819 -1.3760
 4706TIP3   OH214123   5.310   3.276   1.601 -0.0080 -0.6895  0.3790
 4706TIP3    H114124   5.260   3.341   1.650 -0.4728 -0.6055 -0.2010
 4706TIP3    H214125   5.258   3.195   1.609 -1.2312 -0.1845 -1.7435
 4707TIP3   OH214126   4.980   1.598   1.865 -0.2533  0.1232 -0.3548
 4707TIP3    H114127   5.012   1.514   1.899 -1.6172 -0.3439 -0.1527
 4707TIP3    H214128   4.903   1.617   1.918 -0.2252  1.2821 -0.7096
 4708TIP3   OH214129   3.234   2.842   4.804  0.6599 -0.0296  0.2425
 4708TIP3    H114130   3.248   2.806   4.716 -0.6411 -0.1565  0.0692
 4708TIP3    H214131   3.203   2.767   4.855 -2.5099  0.8387 -0.2254
 4709TIP3   OH214132   0.047   2.519   2.250 -0.2144 -0.2381 -0.4679
 4709TIP3    H114133   0.099   2.548   2.175 -0.7607  1.9938 -0.0631
 4709TIP3    H214134   0.058   2.424   2.252  1.0183 -0.1905 -2.4561
 4710TIP3   OH214135   1.491   2.909   0.885  0.2219 -0.1875 -0.5780
 4710TIP3    H114136   1.462   2.937   0.972  1.3691  0.0621 -0.2631
 4710TIP3    H214137   1.415   2.926   0.828 -0.2013  0.5715  0.1849
 4711TIP3   OH214138   0.069   3.117   0.293  0.8144  0.1066 -0.4285
 4711TIP3    H114139   0.163   3.124   0.278  0.5466  1.3603 -1.8477
 4711TIP3    H214140   0.030   3.138   0.208 -0.7674  1.0459  0.4713
 4712TIP3   OH214141   4.208   1.552   0.093  0.4967 -0.2985 -0.4751
 4712TIP3    H114142   4.198   1.483   0.027 -0.4933  0.4316 -1.1185
 4712TIP3    H214143   4.202   1.633   0.043 -0.5239  0.2772  0.5340
 4713TIP3   OH214144   1.222   0.874   3.209 -0.7792 -0.1549 -0.0325
 4713TIP3    H114145   1.216   0.957   3.162  1.5864  0.0309 -0.1172
 4713TIP3    H214146   1.230   0.808   3.141 -0.2015 -0.1832  0.0589
 4714TIP3   OH214147   2.932   3.855   3.728  0.5965  0.9783 -0.3495
 4714TIP3    H114148   2.854   3.910   3.735  0.1337  0.1956  0.8517
 4714TIP3    H214149   2.905   3.782   3.673  0.6587  0.9861 -0.3915
 4715TIP3   OH214150   5.100   3.504   1.843 -0.2544 -0.0866  0.8441
 4715TIP3    H114151   5.184   3.462   1.860  0.2721  0.4206 -0.3803
 4715TIP3    H214152   5.063   3.518   1.930  1.3288  0.4909  1.4684
 4716TIP3   OH214153   3.025   4.850   5.140 -0.4215 -0.1646 -0.1177
 4716TIP3    H114154   2.934   4.856   5.110 -0.0360  1.9323 -1.1263
 4716TIP3    H214155   3.018   4.834   5.234 -1.8254 -0.2783 -0.2081
 4717TIP3   OH214156   1.274   1.041   2.061  0.3447  0.3496 -0.0924
 4717TIP3    H114157   1.297   1.133   2.043 -0.5078  0.9315  1.5664
 4717TIP3    H214158   1.343   1.011   2.121  0.6377 -0.1324 -0.6541
 4718TIP3   OH214159   5.022   3.787   2.278 -0.4287  0.6516 -0.6162
 4718TIP3    H114160   5.023   3.774   2.373  0.2029 -0.2263 -0.7283
 4718TIP3    H214161   4.962   3.860   2.264 -1.6774 -0.1289  0.3612
 4719TIP3   OH214162   0.300   3.825   3.963 -0.3282  0.5902 -0.1564
 4719TIP3    H114163   0.252   3.743   3.963  0.5987 -0.0509 -2.8040
 4719TIP3    H214164   0.389   3.801   3.989 -0.4076  1.0363  0.5572
 4720TIP3   OH214165   6.164   0.977   2.753 -0.7067  0.1295 -0.0745
 4720TIP3    H114166   6.220   0.946   2.824  0.6445  2.0505 -0.2134
 4720TIP3    H214167   6.144   0.899   2.702  1.8747 -0.6570 -0.0263
 4721TIP3   OH214168   2.974   4.503   3.791  0.8070 -0.4685 -0.4236
 4721TIP3    H114169   3.056   4.484   3.837 -0.4790 -2.4645  1.2314
 4721TIP3    H214170   2.975   4.445   3.715 -0.2346 -2.6720  1.1356
 4722TIP3   OH214171   1.319   2.731   1.431 -0.3904  0.2651  0.2225
 4722TIP3    H114172   1.371   2.717   1.352  1.4420  3.0331  0.8200
 4722TIP3    H214173   1.384   2.747   1.500 -1.9704 -0.6660  2.0260
 4723TIP3   OH214174   3.776   5.718   0.704  0.3887 -0.5833 -0.1013
 4723TIP3    H114175   3.734   5.662   0.769  0.1716  0.2163  0.4505
 4723TIP3    H214176   3.740   5.805   0.720  0.8339 -0.2509 -0.8607
 4724TIP3   OH214177   0.652   3.590   1.210 -0.0452  0.3296  1.0140
 4724TIP3    H114178   0.641   3.682   1.235  0.2141  1.1777 -1.6693
 4724TIP3    H214179   0.563   3.558   1.196 -0.0758  0.6570  0.4371
 4725TIP3   OH214180   1.240   5.340   2.884  0.3883 -0.8194  0.1425
 4725TIP3    H114181   1.276   5.335   2.795 -0.9833  0.5593 -0.5225
 4725TIP3    H214182   1.267   5.425   2.916 -0.6691 -0.5513  0.3460
 4726TIP3   OH214183   5.257   2.435   0.403 -0.7301 -0.2979 -0.0304
 4726TIP3    H114184   5.195   2.382   0.454  0.2554 -1.2792  0.2011
 4726TIP3    H214185   5.203   2.502   0.362 -1.8582 -0.7620  0.6289
 4727TIP3   OH214186   3.143   0.031   2.269 -0.3089  0.3551 -0.2744
 4727TIP3    H114187   3.169   0.119   2.241 -2.6922  1.0590 -0.5274
 4727TIP3    H214188   3.121   0.041   2.362  0.5224 -0.2688  0.0015
 4728TIP3   OH214189   2.488   2.218   2.052 -0.6776 -0.0995 -0.1101
 4728TIP3    H114190   2.555   2.151   2.060  0.9407  1.3478 -0.9880
 4728TIP3    H214191   2.445   2.219   2.138  1.7996  0.3320  1.2011
 4729TIP3   OH214192   1.401   5.597   0.309 -0.3887  0.0660  0.6126
 4729TIP3    H114193   1.382   5.544   0.386 -0.2228  1.2825  1.5342
 4729TIP3    H214194   1.471   5.550   0.264  0.9990  0.3433  2.3517
 4730TIP3   OH214195   3.113   4.969   1.039  0.0492  0.2014  0.3717
 4730TIP3    H114196   3.101   4.906   0.968  1.4271  0.5725 -0.2147
 4730TIP3    H214197   3.198   5.009   1.022  0.2405  0.5692  2.0315
 4731TIP3   OH214198   3.585   1.804   1.584  0.0906 -0.0015  0.7430
 4731TIP3    H114199   3.501   1.787   1.626 -0.5466 -0.1129 -0.5118
 4731TIP3    H214200   3.567   1.876   1.523  1.5118  1.6732  2.2017
 4732TIP3   OH214201   1.020   0.426   0.790  0.1998  0.3722  0.1804
 4732TIP3    H114202   1.027   0.518   0.813  1.1047 -0.2808  2.8506
 4732TIP3    H214203   0.935   0.399   0.824  1.0275 -0.3311  1.7848
 4733TIP3   OH214204   2.661   3.749   0.893  0.1038 -0.2766  0.0271
 4733TIP3    H114205   2.676   3.835   0.933 -1.3086 -0.0290  0.0728
 4733TIP3    H214206   2.697   3.686   0.955 -0.0091  0.2126  0.5916
 4734TIP3   OH214207   0.840   1.489   1.472 -0.0408 -0.0948 -0.1230
 4734TIP3    H114208   0.778   1.416   1.475 -1.6544  1.2063 -0.3464
 4734TIP3    H214209   0.899   1.474   1.545  0.6476 -2.4245 -1.0782
 4735TIP3   OH214210   2.861   2.513   2.096  0.1777 -0.0421 -0.1960
 4735TIP3    H114211   2.768   2.517   2.073  0.0070 -1.0836  0.2746
 4735TIP3    H214212   2.881   2.420   2.101  0.7844  0.1467  1.5060
 4736TIP3   OH214213   1.559   2.286   2.577 -0.3807  0.2162  0.8944
 4736TIP3    H114214   1.643   2.253   2.544  0.0515  0.6272  1.5563
 4736TIP3    H214215   1.495   2.220   2.551  0.2314 -0.3632  0.8348
 4737TIP3   OH214216   5.590   2.250   0.540  0.0810 -0.3962  0.4228
 4737TIP3    H114217   5.529   2.205   0.598 -0.8245  0.1151 -0.1235
 4737TIP3    H214218   5.675   2.208   0.558 -0.4520 -1.2392  1.0461
 4738TIP3   OH214219  -0.009   3.205   5.065  0.4095  0.0501  0.1687
 4738TIP3    H114220  -0.005   3.171   5.154 -1.5736 -1.4316 -0.2284
 4738TIP3    H214221   0.038   3.288   5.069 -2.0678  1.5556  3.3367
 4739TIP3   OH214222   2.258   5.627   4.618 -0.0438  0.0933  0.2647
 4739TIP3    H114223   2.225   5.650   4.531 -0.9835  2.8385  1.2305
 4739TIP3    H214224   2.180   5.609   4.669  0.2682  1.3714  1.2337
 4740TIP3   OH214225   1.946   3.648   0.181 -0.0746  0.3737  0.0779
 4740TIP3    H114226   1.854   3.625   0.191  0.0280 -0.8963 -1.4268
 4740TIP3    H214227   1.960   3.650   0.086  1.1605  1.8078  0.2592
 4741TIP3   OH214228   1.887   0.561   5.026  0.3135  0.5658 -0.2172
 4741TIP3    H114229   1.948   0.488   5.032  0.1226  0.5258  1.5614
 4741TIP3    H214230   1.925   0.619   4.959  1.2511 -0.4101 -0.5459
 4742TIP3   OH214231   0.911   1.739   4.182 -0.0090  0.3560  0.3001
 4742TIP3    H114232   0.931   1.829   4.208  2.6600  0.1988 -0.8481
 4742TIP3    H214233   0.977   1.718   4.116 -1.5803 -1.9118 -0.6839
 4743TIP3   OH214234   3.414   0.628   2.099 -0.1990 -0.6861 -0.3912
 4743TIP3    H114235   3.351   0.630   2.027  0.2851 -2.6834 -0.9211
 4743TIP3    H214236   3.471   0.704   2.083 -0.1121 -1.0691 -2.1071
 4744TIP3   OH214237   0.544   1.428   0.422 -0.1902 -0.9745  0.2914
 4744TIP3    H114238   0.543   1.370   0.498 -1.1972 -0.9175  0.3384
 4744TIP3    H214239   0.507   1.376   0.351  1.1832 -1.1785 -0.2858
 4745TIP3   OH214240   6.284   0.468   3.144  0.2686  0.4875 -0.2637
 4745TIP3    H114241   6.340   0.532   3.099  0.1356  0.2951 -0.7066
 4745TIP3    H214242   6.334   0.386   3.142 -0.2882  0.1608 -1.2148
 4746TIP3   OH214243   2.929   3.617   3.599  0.0024  0.8458 -0.6050
 4746TIP3    H114244   2.987   3.563   3.654 -1.0042  0.2792 -0.0820
 4746TIP3    H214245   2.939   3.580   3.511  0.6862  0.9643 -0.5838
 4747TIP3   OH214246   4.082   5.176   2.564  0.0823  0.2649 -0.0128
 4747TIP3    H114247   4.024   5.122   2.512 -0.9147  1.3507 -0.0719
 4747TIP3    H214248   4.046   5.265   2.557  1.4466  0.8845  0.3720
 4748TIP3   OH214249   0.847   0.447   2.444 -0.3684  0.0251  0.2496
 4748TIP3    H114250   0.772   0.431   2.386 -0.5727 -0.1512  0.5564
 4748TIP3    H214251   0.901   0.368   2.434  1.1238  1.2122 -1.9467
 4749TIP3   OH214252   1.941   2.860   3.504  0.3794  0.3060 -0.2397
 4749TIP3    H114253   1.885   2.818   3.569  0.5981 -1.6798 -1.2555
 4749TIP3    H214254   2.030   2.838   3.531  0.4672 -0.6227 -1.2403
 4750TIP3   OH214255   2.356   5.442   4.152 -0.0192 -0.0097 -0.4825
 4750TIP3    H114256   2.403   5.451   4.235 -0.5648  0.6704 -0.2417
 4750TIP3    H214257   2.406   5.376   4.104  0.9911  0.4547 -0.0990
 4751TIP3   OH214258   0.325   3.380   2.481 -0.1246 -0.1866  0.2325
 4751TIP3    H114259   0.339   3.446   2.412  1.5626 -0.8559 -0.1155
 4751TIP3    H214260   0.249   3.412   2.529 -0.5628  0.9756 -1.1524
 4752TIP3   OH214261   1.126   2.340   1.793  0.0256 -0.3127 -0.3877
 4752TIP3    H114262   1.064   2.267   1.791  0.1074 -0.3952 -2.0471
 4752TIP3    H214263   1.212   2.299   1.781  0.0821  0.0241 -1.2009
 4753TIP3   OH214264   2.894   5.606   2.056  0.0606  0.0938  0.3191
 4753TIP3    H114265   2.886   5.701   2.064  1.8427  0.3460 -0.3506
 4753TIP3    H214266   2.917   5.592   1.964 -0.1836 -1.0019  0.4053
 4754TIP3   OH214267   3.935   0.868   3.716  0.5451 -0.6536 -0.6798
 4754TIP3    H114268   3.878   0.906   3.783  1.8698  0.0890  0.0848
 4754TIP3    H214269   4.023   0.895   3.742  1.0899 -0.1518 -2.8580
 4755TIP3   OH214270   1.437   1.548   2.774 -0.0880 -0.2788 -0.1912
 4755TIP3    H114271   1.415   1.480   2.711 -1.0460 -1.2617  1.1617
 4755TIP3    H214272   1.355   1.566   2.820  0.9224 -0.8068  1.9168
 4756TIP3   OH214273   2.318   4.729   4.458  0.4587  0.7024 -0.2454
 4756TIP3    H114274   2.234   4.761   4.425  0.8173 -0.0582 -2.0612
 4756TIP3    H214275   2.349   4.798   4.517 -1.7661  0.6415  1.0706
 4757TIP3   OH214276   5.378   5.117   1.157  0.0540  0.5279  0.5304
 4757TIP3    H114277   5.403   5.180   1.089 -1.0046 -0.8061 -1.1875
 4757TIP3    H214278   5.448   5.124   1.222 -0.6265  4.2819  1.0732
 4758TIP3   OH214279   5.731   4.779   3.420  0.0730  0.2825 -0.5423
 4758TIP3    H114280   5.675   4.723   3.367 -1.3154  1.5862 -0.5084
 4758TIP3    H214281   5.814   4.781   3.372 -0.5557 -0.0550 -1.6870
 4759TIP3   OH214282   1.145   3.545   0.079 -0.1148  0.4360 -0.1186
 4759TIP3    H114283   1.127   3.470   0.135 -3.0419  0.5578 -0.7498
 4759TIP3    H214284   1.228   3.580   0.112 -0.2906 -1.1410  2.2514
 4760TIP3   OH214285   0.663   5.583   1.492  0.1064 -0.6444  0.2323
 4760TIP3    H114286   0.746   5.604   1.449  0.5267  0.5619  1.5366
 4760TIP3    H214287   0.610   5.541   1.425  1.2353 -0.0855 -1.0454
 4761TIP3   OH214288   1.801   4.678   0.935 -0.5793 -0.1677 -0.1725
 4761TIP3    H114289   1.840   4.591   0.928 -1.1383 -0.3829 -0.8348
 4761TIP3    H214290   1.708   4.660   0.952 -1.5012  0.1402 -3.9776
 4762TIP3   OH214291   2.662   5.757   4.268  0.3963 -0.0039 -0.4111
 4762TIP3    H114292   2.664   5.748   4.363  1.4920  0.7892 -0.3488
 4762TIP3    H214293   2.754   5.763   4.242  0.2776 -2.8596 -1.8074
 4763TIP3   OH214294   1.291   2.387   2.289 -0.1504  0.3947  0.1747
 4763TIP3    H114295   1.343   2.415   2.364  1.1430 -0.6281 -0.3053
 4763TIP3    H214296   1.215   2.343   2.327 -0.5733  1.6789  0.8839
 4764TIP3   OH214297   5.169   3.709   0.245 -0.7409  0.0869  0.0149
 4764TIP3    H114298   5.181   3.736   0.336  0.0134  1.1496 -0.3865
 4764TIP3    H214299   5.257   3.693   0.212 -0.9996 -0.1506 -0.5782
 4765TIP3   OH214300   3.110   2.642   2.355  0.0736 -0.2048 -0.1886
 4765TIP3    H114301   3.032   2.606   2.397 -0.1458 -1.2670 -1.4621
 4765TIP3    H214302   3.181   2.623   2.416 -0.6502  0.9721  1.0907
 4766TIP3   OH214303   6.207   6.001   0.806 -0.3496 -0.5387  0.3036
 4766TIP3    H114304   6.128   5.964   0.766  0.6082 -2.5827  0.1580
 4766TIP3    H214305   6.217   5.952   0.888 -1.0734  2.0790  2.0654
 4767TIP3   OH214306   2.790   4.591   4.045 -0.1001 -0.4849 -0.4236
 4767TIP3    H114307   2.840   4.550   3.975  2.4515 -1.4019  1.8059
 4767TIP3    H214308   2.798   4.532   4.119 -3.2453  0.1309  0.5645
 4768TIP3   OH214309   5.402   5.923   0.990  0.5257  0.4246 -0.2415
 4768TIP3    H114310   5.344   5.992   0.957  0.7182  0.8312  0.2585
 4768TIP3    H214311   5.353   5.842   0.975  0.5499  0.6063 -1.3822
 4769TIP3   OH214312   2.194   3.241   0.094 -0.1704  0.2941  0.1312
 4769TIP3    H114313   2.175   3.147   0.088 -0.7522  0.3794  0.6121
 4769TIP3    H214314   2.155   3.278   0.015 -0.4561  0.2201  0.2392
 4770TIP3   OH214315   3.689   1.523   4.049  0.3553  0.5244 -0.0594
 4770TIP3    H114316   3.668   1.586   3.981 -0.0550  0.1667 -0.2641
 4770TIP3    H214317   3.608   1.475   4.064  0.6482  0.0826  0.1332
 4771TIP3   OH214318   0.400   3.001   2.614  0.2914  0.7621 -0.3392
 4771TIP3    H114319   0.334   2.966   2.553  0.2112 -0.3178  0.3380
 4771TIP3    H214320   0.441   3.073   2.566 -0.0479  0.1951 -1.5164
 4772TIP3   OH214321   1.729   1.100   0.862 -0.3825  0.1439  0.7791
 4772TIP3    H114322   1.754   1.040   0.932 -2.1765  1.6903  2.8697
 4772TIP3    H214323   1.653   1.148   0.896 -0.1601  2.3375 -1.4699
 4773TIP3   OH214324   0.316   2.651   1.777  0.3183 -0.3943 -0.3178
 4773TIP3    H114325   0.407   2.651   1.804 -0.2147 -1.3343  1.5941
 4773TIP3    H214326   0.319   2.628   1.684  2.1279  1.7982 -0.8908
 4774TIP3   OH214327   1.532   0.959   5.051  0.4138  0.2351  0.3568
 4774TIP3    H114328   1.574   0.945   4.966  0.4755 -0.0604  0.4367
 4774TIP3    H214329   1.514   1.054   5.053  0.6211  0.2807  0.1139
 4775TIP3   OH214330   3.843   1.804   4.562  0.4080 -0.0975  0.9211
 4775TIP3    H114331   3.773   1.738   4.565  0.7202 -0.4339  0.9090
 4775TIP3    H214332   3.919   1.756   4.531  0.0912  0.7623 -1.3478
 4776TIP3   OH214333   4.163   2.770   2.525  0.1421 -0.3316 -0.4646
 4776TIP3    H114334   4.150   2.705   2.594  1.5252 -2.2236 -1.8792
 4776TIP3    H214335   4.149   2.722   2.443  1.5667  1.0360 -1.5756
 4777TIP3   OH214336   2.636   2.643   0.272 -0.1141 -0.5238  0.0757
 4777TIP3    H114337   2.624   2.590   0.351  1.5089  1.0641  1.4866
 4777TIP3    H214338   2.564   2.617   0.215 -2.8115 -0.0858  2.9853
 4778TIP3   OH214339   3.313   0.167   0.229  0.7187  0.3232  0.0862
 4778TIP3    H114340   3.323   0.074   0.245 -0.1324  0.1632 -0.2972
 4778TIP3    H214341   3.259   0.173   0.150  0.1086  1.1354  0.5462
 4779TIP3   OH214342   5.893   1.880   3.265 -0.5523  0.2892  0.0090
 4779TIP3    H114343   5.988   1.889   3.263 -0.4605 -0.6394 -2.0741
 4779TIP3    H214344   5.862   1.945   3.202 -1.1094 -1.0266 -1.1188
 4780TIP3   OH214345   1.574   0.839   4.809  0.3362 -0.3201  0.1827
 4780TIP3    H114346   1.655   0.795   4.784  1.2981  1.6200 -0.3498
 4780TIP3    H214347   1.528   0.853   4.726 -0.3263 -0.9499  0.4287
 4781TIP3   OH214348   4.163   3.879   3.914  0.6839 -0.4740 -0.0548
 4781TIP3    H114349   4.184   3.921   3.998 -0.5402  0.7676 -0.3360
 4781TIP3    H214350   4.193   3.789   3.925  0.2376 -0.4520  1.8640
 4782TIP3   OH214351   1.271   4.147   1.565 -0.5082 -0.0461  0.1051
 4782TIP3    H114352   1.349   4.097   1.543  0.1244  0.5163  1.0085
 4782TIP3    H214353   1.199   4.086   1.549 -0.1038  0.1313 -2.8565
 4783TIP3   OH214354   0.236   3.700   1.809 -0.7698 -0.5061 -0.0575
 4783TIP3    H114355   0.157   3.724   1.762 -0.3073 -2.1503 -1.7634
 4783TIP3    H214356   0.300   3.768   1.785 -1.6131  0.9223  1.4560
 4784TIP3   OH214357   5.158   0.235   0.901 -0.1678  0.0035  0.9551
 4784TIP3    H114358   5.164   0.227   0.997 -0.6011 -0.5099  0.9416
 4784TIP3    H214359   5.241   0.200   0.869  0.0930  0.4251  1.1489
 4785TIP3   OH214360   1.193   5.642   1.263  0.0653  0.0846 -0.1944
 4785TIP3    H114361   1.257   5.611   1.200 -0.3442  0.0661 -0.6053
 4785TIP3    H214362   1.117   5.667   1.210 -0.5917 -0.7098  0.3518
 4786TIP3   OH214363   5.150   3.548   1.481 -0.2328  0.3348  0.5759
 4786TIP3    H114364   5.182   3.532   1.392  1.8291 -1.2311  1.4994
 4786TIP3    H214365   5.083   3.614   1.471 -0.8684 -0.5968 -2.2908
 4787TIP3   OH214366   1.467   3.406   2.365  0.4984 -0.0266 -0.3007
 4787TIP3    H114367   1.526   3.364   2.303 -0.6365 -0.6162 -1.0284
 4787TIP3    H214368   1.501   3.381   2.451  1.9904  0.6556 -0.6583
 4788TIP3   OH214369   5.217   1.169   3.109 -0.2000 -0.3213 -0.3896
 4788TIP3    H114370   5.179   1.111   3.042  1.6153 -3.7885  1.2974
 4788TIP3    H214371   5.297   1.203   3.069 -0.0797 -0.8650 -0.6182
 4789TIP3   OH214372   1.733   4.681   3.290 -0.4871 -0.0955 -0.4559
 4789TIP3    H114373   1.750   4.624   3.366 -0.7556 -0.7234 -0.8524
 4789TIP3    H214374   1.659   4.735   3.317 -0.2512  0.0490 -0.0842
 4790TIP3   OH214375   5.377   5.831   2.412  0.2909  0.0467 -0.2934
 4790TIP3    H114376   5.375   5.833   2.317  4.2867  0.1995 -0.5012
 4790TIP3    H214377   5.352   5.741   2.434  0.0365 -0.1936 -1.5117
 4791TIP3   OH214378   3.131   5.955   2.579 -0.2019  0.1684  0.0047
 4791TIP3    H114379   3.122   5.879   2.522  1.3067 -0.6177  0.7515
 4791TIP3    H214380   3.042   5.983   2.596 -0.7235  0.2123 -2.4100
 4792TIP3   OH214381   0.397   1.129   3.562 -0.5256  0.0790 -0.3816
 4792TIP3    H114382   0.477   1.140   3.511 -0.3557 -1.9005 -0.6134
 4792TIP3    H214383   0.339   1.079   3.506 -1.1691 -0.2535  0.5445
 4793TIP3   OH214384   1.226   4.708   2.356 -0.5184  0.2940 -0.2508
 4793TIP3    H114385   1.252   4.800   2.363 -2.4233  0.7808  1.0528
 4793TIP3    H214386   1.307   4.659   2.370  0.6282  1.7473 -1.4786
 4794TIP3   OH214387   2.405   2.871   1.221  0.6200 -0.5163  0.4738
 4794TIP3    H114388   2.438   2.872   1.131 -2.3305 -1.2297 -0.7258
 4794TIP3    H214389   2.483   2.856   1.274  2.4980 -0.0184 -1.9248
 4795TIP3   OH214390   4.143   2.680   2.264 -0.1339  0.4385  0.4455
 4795TIP3    H114391   4.075   2.635   2.213 -1.9433  3.4649 -0.0646
 4795TIP3    H214392   4.206   2.709   2.198  1.2967 -1.6420  0.8274
 4796TIP3   OH214393   5.802   1.027   2.983  0.3025  0.4347 -0.7612
 4796TIP3    H114394   5.723   1.043   3.035 -0.1358 -1.6086 -0.7070
 4796TIP3    H214395   5.859   1.102   3.002 -0.4908  0.5588  1.4269
 4797TIP3   OH214396   0.011   4.966   2.459 -0.5016 -0.2246  0.4479
 4797TIP3    H114397   0.090   4.915   2.439  0.6869  0.7748  2.2183
 4797TIP3    H214398  -0.004   5.018   2.380  0.4173 -0.6776 -0.0526
 4798TIP3   OH214399   3.611   3.572   1.771 -0.1053 -0.1073  0.4175
 4798TIP3    H114400   3.678   3.512   1.742 -1.3902 -1.1426 -0.5315
 4798TIP3    H214401   3.554   3.519   1.828 -1.4280  0.0906 -0.6744
 4799TIP3   OH214402   6.251   1.558   0.634  0.4446  0.0639 -0.8143
 4799TIP3    H114403   6.274   1.567   0.542  1.7353  0.6446 -0.4525
 4799TIP3    H214404   6.156   1.565   0.636  0.2643 -1.3978 -2.2622
 4800TIP3   OH214405   0.299   0.788   4.537 -0.2469  0.0558 -0.0519
 4800TIP3    H114406   0.285   0.855   4.604 -0.9283 -2.1799  2.1777
 4800TIP3    H214407   0.212   0.754   4.518  0.2551 -1.9322  0.8516
 4801TIP3   OH214408   0.240   3.975   2.454 -0.0614  0.4382  0.1478
 4801TIP3    H114409   0.319   4.026   2.472 -1.3589  2.1407  1.3990
 4801TIP3    H214410   0.201   3.959   2.540 -0.7585 -0.9463 -0.3883
 4802TIP3   OH214411   5.508   0.584   4.334 -0.8622  0.5720 -0.2203
 4802TIP3    H114412   5.519   0.555   4.425  2.0099  0.1677 -0.6376
 4802TIP3    H214413   5.583   0.641   4.318 -0.4111 -0.6433 -2.8394
 4803TIP3   OH214414   3.725   3.205   3.088  0.5960  0.5168  0.0264
 4803TIP3    H114415   3.637   3.220   3.055  0.4184  0.7940  0.6218
 4803TIP3    H214416   3.776   3.181   3.010  0.3682  1.9582 -0.5933
 4804TIP3   OH214417   0.796   5.669   2.920  0.1598  0.1673 -0.1263
 4804TIP3    H114418   0.771   5.591   2.869 -1.5864  1.7202 -1.7832
 4804TIP3    H214419   0.727   5.678   2.985  0.3849  0.3011  0.0934
 4805TIP3   OH214420   1.744   5.579   2.637 -0.2488 -0.2233  0.3133
 4805TIP3    H114421   1.775   5.637   2.706 -0.4351 -0.6476  0.7622
 4805TIP3    H214422   1.650   5.594   2.632 -0.2645 -0.3259  0.2801
 4806TIP3   OH214423   1.712   1.382   0.356 -0.1297 -0.6284 -0.2260
 4806TIP3    H114424   1.700   1.295   0.393 -2.3825  0.2072  1.2366
 4806TIP3    H214425   1.624   1.406   0.325  1.0924 -0.1921 -3.7982
 4807TIP3   OH214426   0.266   5.175   1.067 -0.5450  0.0862  0.3927
 4807TIP3    H114427   0.175   5.157   1.090 -0.6274 -0.1424 -0.1059
 4807TIP3    H214428   0.303   5.090   1.043  0.3695 -0.1746  2.4763
 4808TIP3   OH214429   3.489   3.432   1.386  0.0893 -0.5339 -0.2244
 4808TIP3    H114430   3.549   3.499   1.353  0.5194 -1.0914 -0.5824
 4808TIP3    H214431   3.412   3.481   1.414  1.4253  0.4321  2.0145
 4809TIP3   OH214432   5.842   3.464   5.048 -0.4927  0.0572 -0.3010
 4809TIP3    H114433   5.904   3.391   5.055 -2.0952 -1.7459 -2.8865
 4809TIP3    H214434   5.807   3.474   5.137  0.8369 -1.3271  0.4281
 4810TIP3   OH214435   1.811   1.953   1.783  0.4448  0.0564  0.2427
 4810TIP3    H114436   1.790   1.977   1.873 -0.9948  1.5312 -0.4354
 4810TIP3    H214437   1.728   1.957   1.736  1.2562 -0.0519 -1.2811
 4811TIP3   OH214438   4.325   3.312   4.752  0.1142  0.4468 -0.2649
 4811TIP3    H114439   4.250   3.299   4.695  0.6250 -2.1471 -0.4606
 4811TIP3    H214440   4.325   3.236   4.810  1.8052  1.0797  0.6529
 4812TIP3   OH214441   1.294   4.932   0.135  0.2562 -0.4898 -0.4933
 4812TIP3    H114442   1.297   4.985   0.215  0.2821 -2.1206  0.6178
 4812TIP3    H214443   1.202   4.934   0.108  0.1469 -0.3928 -0.1210
 4813TIP3   OH214444   4.420   1.143   1.022  0.5229 -0.3289  0.7229
 4813TIP3    H114445   4.487   1.112   0.960 -1.4587 -0.7545 -1.3561
 4813TIP3    H214446   4.371   1.065   1.046 -0.2176  0.1975  0.9540
 4814TIP3   OH214447   0.255   4.731   4.528  0.0691 -0.2174 -0.0833
 4814TIP3    H114448   0.323   4.799   4.526  0.6770 -0.8372 -1.5607
 4814TIP3    H214449   0.258   4.692   4.441 -0.2426 -2.1858  0.7545
 4815TIP3   OH214450   5.423   5.869   0.154  0.0409 -0.1712  0.0497
 4815TIP3    H114451   5.330   5.886   0.171 -0.0532 -1.2080  0.6637
 4815TIP3    H214452   5.461   5.956   0.143 -1.0703  0.2618 -0.6326
 4816TIP3   OH214453   2.566   4.908   4.132  0.1557  0.0319 -0.5392
 4816TIP3    H114454   2.537   4.819   4.109 -0.0763  0.0002 -0.1436
 4816TIP3    H214455   2.655   4.915   4.097  0.2908 -0.4662 -0.2976
 4817TIP3   OH214456   2.011   0.028   2.743 -0.0387 -0.1964 -0.1888
 4817TIP3    H114457   2.038   0.112   2.707  0.8346 -0.6141 -0.5306
 4817TIP3    H214458   2.041  -0.037   2.680  0.6680 -0.8691  0.7979
 4818TIP3   OH214459   3.507   3.076   0.138  0.0299 -0.2931 -0.0550
 4818TIP3    H114460   3.586   3.129   0.149 -0.9446  0.9818  1.1798
 4818TIP3    H214461   3.534   2.987   0.160  1.2205  0.0509 -0.0928
 4819TIP3   OH214462   4.013   4.143   3.720  0.4802 -0.1004  0.5563
 4819TIP3    H114463   4.013   4.050   3.700 -0.3263 -0.1207  0.6154
 4819TIP3    H214464   4.023   4.148   3.815  1.5188 -0.0909  0.4535
 4820TIP3   OH214465   3.378   3.286   3.340  0.0487  0.2210 -0.6230
 4820TIP3    H114466   3.348   3.264   3.252 -0.3922 -1.1525 -0.1438
 4820TIP3    H214467   3.319   3.356   3.368 -1.0756 -0.6900 -0.6749
 4821TIP3   OH214468   5.805   3.165   2.261 -0.2027  0.4857 -0.3510
 4821TIP3    H114469   5.759   3.100   2.207 -1.8910  1.3519 -0.0458
 4821TIP3    H214470   5.873   3.116   2.306 -0.2720 -0.7127 -1.4824
 4822TIP3   OH214471   4.426   4.354   0.585 -0.0271  0.5109  0.8632
 4822TIP3    H114472   4.409   4.428   0.644 -0.6744  1.0084  0.0690
 4822TIP3    H214473   4.365   4.287   0.612 -0.0081  0.5698  1.0542
 4823TIP3   OH214474   2.953   2.502   1.203 -0.1326 -0.1255  0.3251
 4823TIP3    H114475   2.997   2.583   1.179 -0.9275  0.3762  0.5096
 4823TIP3    H214476   2.912   2.521   1.288 -2.5039  0.1790 -0.7997
 4824TIP3   OH214477   0.976   0.671   0.878  0.4525 -0.4970  0.5804
 4824TIP3    H114478   1.019   0.747   0.917 -0.4077  0.0188  0.5448
 4824TIP3    H214479   0.890   0.667   0.921  0.0341 -0.7390 -0.2565
 4825TIP3   OH214480   0.284   2.976   0.716  0.8521  0.0610  0.5954
 4825TIP3    H114481   0.265   2.905   0.654 -0.3226 -0.7572  1.8336
 4825TIP3    H214482   0.370   2.954   0.752  0.8618 -0.2968  0.3644
 4826TIP3   OH214483   5.253   4.400   0.388  0.1449  0.4806 -0.1069
 4826TIP3    H114484   5.267   4.306   0.385  0.2109  0.4622  0.6030
 4826TIP3    H214485   5.170   4.411   0.434  0.1741  0.7764 -0.1197
 4827TIP3   OH214486   4.800   2.042   1.362  0.0796  0.6655  0.0066
 4827TIP3    H114487   4.750   1.960   1.359  0.0082  0.7091  0.0215
 4827TIP3    H214488   4.838   2.043   1.450  1.8599 -0.4250 -0.6927
 4828TIP3   OH214489   6.178   3.893   0.194 -1.0330  0.0155  0.7552
 4828TIP3    H114490   6.097   3.852   0.163  0.0412 -1.6531 -0.0109
 4828TIP3    H214491   6.187   3.861   0.284 -1.2900  0.3248  0.8936
 4829TIP3   OH214492   2.032   5.289   0.793  0.0077 -0.6902 -0.1297
 4829TIP3    H114493   2.056   5.210   0.841 -1.0164 -0.7604  0.2949
 4829TIP3    H214494   2.010   5.257   0.705 -0.4013 -0.8914  0.0398
 4830TIP3   OH214495   2.580   1.250   0.186  0.0756  0.0429 -0.1496
 4830TIP3    H114496   2.517   1.221   0.253  1.0482  1.0447  1.2701
 4830TIP3    H214497   2.557   1.200   0.108 -0.9395 -1.4009  1.0069
 4831TIP3   OH214498   0.360   2.183   4.143 -0.1053  0.0638  0.9183
 4831TIP3    H114499   0.306   2.153   4.216 -0.0946  0.7350  1.2110
 4831TIP3    H214500   0.422   2.112   4.128 -0.5795 -0.3918  1.0786
 4832TIP3   OH214501   2.464   0.951   2.763  0.4471 -0.4998  0.3004
 4832TIP3    H114502   2.542   0.983   2.718 -0.0678 -0.2110 -0.4077
 4832TIP3    H214503   2.491   0.868   2.802  0.2438 -2.0986 -2.7215
 4833TIP3   OH214504   1.566   0.826   2.635  0.4174 -0.0921  0.3371
 4833TIP3    H114505   1.607   0.879   2.703  1.0121 -1.4765  1.1116
 4833TIP3    H214506   1.517   0.759   2.682  0.2036 -0.6156 -0.5901
 4834TIP3   OH214507   3.835   4.465   5.161  0.0512 -0.3507  0.1795
 4834TIP3    H114508   3.839   4.391   5.100  1.5998  0.1203 -0.3314
 4834TIP3    H214509   3.869   4.539   5.111 -2.3432  0.9872  0.3656
 4835TIP3   OH214510   2.994   3.786   3.160  0.0797 -0.5767 -0.8884
 4835TIP3    H114511   3.035   3.724   3.100 -0.5846 -1.5967 -0.3264
 4835TIP3    H214512   2.916   3.741   3.191  0.3890 -0.0720  0.7177
 4836TIP3   OH214513   4.203   4.791   2.680  0.7610  0.0035 -0.0598
 4836TIP3    H114514   4.255   4.711   2.680  0.3504 -0.2830 -1.1221
 4836TIP3    H214515   4.192   4.812   2.587 -1.0101  0.0559  0.1304
 4837TIP3   OH214516   4.105   1.626   4.397  0.8731 -0.1463  0.4299
 4837TIP3    H114517   4.167   1.694   4.422  0.7841 -0.3039  1.0993
 4837TIP3    H214518   4.139   1.547   4.439  0.2623 -0.2508  0.7312
 4838TIP3   OH214519   4.493   5.223   1.720 -0.3738  0.3812  0.2145
 4838TIP3    H114520   4.571   5.170   1.704 -0.1677 -0.2677  2.8728
 4838TIP3    H214521   4.517   5.310   1.688  1.0037 -0.0677 -0.0619
 4839TIP3   OH214522   4.219   5.339   4.061 -0.4144 -0.5768 -0.0556
 4839TIP3    H114523   4.150   5.383   4.112  0.2808  1.6628 -0.9270
 4839TIP3    H214524   4.286   5.318   4.126 -0.9616 -0.8054  0.4565
 4840TIP3   OH214525   1.732   0.980   3.564 -0.1265 -0.0729 -0.2381
 4840TIP3    H114526   1.796   1.034   3.610  0.4319  0.5419 -1.6567
 4840TIP3    H214527   1.710   0.910   3.626  2.1107 -0.4394  0.2396
 4841TIP3   OH214528   4.514   5.423   2.247 -0.5017  0.3875  0.2985
 4841TIP3    H114529   4.478   5.375   2.173 -0.0057 -0.0040  0.2974
 4841TIP3    H214530   4.498   5.366   2.322  1.1793 -0.4007  0.1259
 4842TIP3   OH214531   0.566   3.428   0.358 -0.1878 -0.2494  0.0980
 4842TIP3    H114532   0.538   3.477   0.435 -0.8088 -1.9758  1.0167
 4842TIP3    H214533   0.637   3.372   0.389  1.7233  1.2333 -1.3286
 4843TIP3   OH214534   6.186   2.895   4.410 -0.6304 -0.0319  0.0852
 4843TIP3    H114535   6.227   2.848   4.483 -0.8931 -0.7004 -0.1830
 4843TIP3    H214536   6.096   2.910   4.439 -0.1421  1.7147  0.8013
 4844TIP3   OH214537   4.665   3.115   4.573  0.5843 -0.3751  0.3081
 4844TIP3    H114538   4.708   3.198   4.595  0.6842 -0.4094  0.2397
 4844TIP3    H214539   4.691   3.055   4.642 -0.3861 -0.0446  0.9748
 4845TIP3   OH214540   5.711   1.631   4.470 -0.2968 -0.2142  0.2532
 4845TIP3    H114541   5.672   1.698   4.526  1.7783 -1.6151  3.7342
 4845TIP3    H214542   5.804   1.655   4.467  0.1080 -1.7699 -0.2275
 4846TIP3   OH214543   1.452   4.357   3.803 -0.4047 -0.0605 -0.2588
 4846TIP3    H114544   1.468   4.304   3.725 -1.4572 -1.8606  0.6782
 4846TIP3    H214545   1.500   4.312   3.872 -0.6369  0.7119  0.4184
 4847TIP3   OH214546   0.327   3.260   2.993 -0.1884 -0.2136 -0.2185
 4847TIP3    H114547   0.376   3.341   3.005 -1.7644  0.8705 -0.9048
 4847TIP3    H214548   0.263   3.260   3.064  0.3333 -1.3091  0.2906
 4848TIP3   OH214549   1.776   3.976   4.396  0.1523  0.2484  0.0597
 4848TIP3    H114550   1.808   4.032   4.325 -1.7365 -3.3156 -4.0022
 4848TIP3    H214551   1.682   3.992   4.399  0.1665  0.1872  1.7627
 4849TIP3   OH214552   0.492   2.853   3.638  0.4595  0.1647 -0.3640
 4849TIP3    H114553   0.454   2.873   3.553  0.3176 -0.6731 -0.5098
 4849TIP3    H214554   0.491   2.757   3.643 -0.0753  0.2073  0.8152
 4850TIP3   OH214555   4.508   4.578   4.382  0.2490 -0.1126 -0.6084
 4850TIP3    H114556   4.598   4.597   4.409  1.4088 -1.2639 -3.2555
 4850TIP3    H214557   4.473   4.663   4.356  0.4880  0.3744  0.6149
 4851TIP3   OH214558   5.670   0.822   0.223 -0.2682  0.5287  0.1975
 4851TIP3    H114559   5.739   0.758   0.206 -2.7007 -1.9118 -1.1038
 4851TIP3    H214560   5.618   0.783   0.293 -0.7165  2.0355  0.7365
 4852TIP3   OH214561   5.463   5.617   0.296  0.2059 -0.3148  0.4445
 4852TIP3    H114562   5.416   5.684   0.246  0.6407  0.2088  0.7272
 4852TIP3    H214563   5.395   5.573   0.347 -0.1106 -0.2195  0.1048
 4853TIP3   OH214564   3.776   3.578   0.838  0.3202 -0.3232 -0.5823
 4853TIP3    H114565   3.773   3.483   0.838  2.1779 -0.4100 -0.0349
 4853TIP3    H214566   3.867   3.600   0.822 -0.1386  1.3876 -1.1152
 4854TIP3   OH214567   5.099   3.706   0.823  0.7811 -0.7396  0.2395
 4854TIP3    H114568   5.066   3.618   0.806 -0.8793 -0.1881  0.3980
 4854TIP3    H214569   5.025   3.763   0.805  2.0164  0.7096 -0.5363
 4855TIP3   OH214570   1.375   2.471   3.835  0.1346  0.4110 -0.0384
 4855TIP3    H114571   1.347   2.552   3.878 -0.3545 -0.5037  1.4733
 4855TIP3    H214572   1.345   2.401   3.895  2.0704 -0.8035 -0.4135
 4856TIP3   OH214573   3.838   1.388   3.198 -0.3846 -0.0834  0.4070
 4856TIP3    H114574   3.833   1.300   3.235 -1.8791 -0.2506 -0.1355
 4856TIP3    H214575   3.754   1.428   3.219 -0.9155  0.1610 -1.8832
 4857TIP3   OH214576   0.914   4.914   4.907  0.1936 -0.7846 -0.0537
 4857TIP3    H114577   0.994   4.895   4.956 -0.9235  0.3616  2.3722
 4857TIP3    H214578   0.843   4.906   4.972 -1.1556  3.2604 -0.7254
 4858TIP3   OH214579   3.220   3.904   2.473 -0.7852  0.0302  0.4451
 4858TIP3    H114580   3.265   3.968   2.528 -0.2278 -1.3134  1.5860
 4858TIP3    H214581   3.227   3.940   2.384 -1.7199  2.2401  1.2004
 4859TIP3   OH214582   0.545   3.057   1.061 -0.6517 -0.4106  0.2458
 4859TIP3    H114583   0.509   2.992   1.121 -0.5236 -0.9727 -0.2728
 4859TIP3    H214584   0.619   3.096   1.108 -0.7965 -0.5671  0.6018
 4860TIP3   OH214585   3.825   0.914   2.287  0.5237  0.3532 -0.8643
 4860TIP3    H114586   3.757   0.909   2.354  2.2235  1.6750  1.0909
 4860TIP3    H214587   3.795   0.982   2.227  0.2793  1.1908  0.1835
 4861TIP3   OH214588   0.065   0.168   1.046 -0.2904 -0.1532 -0.2447
 4861TIP3    H114589   0.011   0.114   0.988  0.2049 -1.4125  0.4303
 4861TIP3    H214590   0.139   0.111   1.069 -0.0857  0.5988  1.0047
 4862TIP3   OH214591   3.854   1.462   4.444 -0.2610  0.3143 -0.1457
 4862TIP3    H114592   3.800   1.533   4.409 -0.5565 -0.0332 -0.4063
 4862TIP3    H214593   3.901   1.501   4.518 -0.6075  0.7126 -0.1339
 4863TIP3   OH214594   2.141   1.729   2.136 -0.3014 -0.0927  0.4436
 4863TIP3    H114595   2.209   1.767   2.192  2.0253 -1.5169 -1.2425
 4863TIP3    H214596   2.063   1.781   2.155  1.4424  2.2335  1.8163
 4864TIP3   OH214597   5.840   0.023   3.296 -0.2045  0.0750 -0.0749
 4864TIP3    H114598   5.886  -0.021   3.225  0.6013  1.7030 -0.6055
 4864TIP3    H214599   5.890  -0.001   3.375  0.4451  0.2923 -0.4064
 4865TIP3   OH214600   5.449   1.546   3.317  0.1553  0.0508 -0.6831
 4865TIP3    H114601   5.369   1.522   3.269  0.3157  1.5426 -1.7644
 4865TIP3    H214602   5.417   1.576   3.402 -0.4815  0.7424 -1.1477
 4866TIP3   OH214603   4.375   3.792   0.924  0.1875 -0.0032  0.3037
 4866TIP3    H114604   4.379   3.776   0.830 -0.1956 -1.2484  0.4879
 4866TIP3    H214605   4.351   3.708   0.962  2.1736 -0.0100  1.6832
 4867TIP3   OH214606   1.068   1.008   1.398  0.2206 -0.4376  0.2637
 4867TIP3    H114607   0.975   1.016   1.416  0.5899  1.8444  1.6557
 4867TIP3    H214608   1.100   0.948   1.465 -0.3160 -1.7543 -0.6312
 4868TIP3   OH214609   0.787   2.718   3.355 -0.2747  0.0523 -0.2477
 4868TIP3    H114610   0.758   2.656   3.288  0.3938 -0.6834  0.1274
 4868TIP3    H214611   0.744   2.688   3.436  0.1742 -0.0220 -0.0335
 4869TIP3   OH214612   4.153   3.436   0.225 -0.2112 -0.0981  0.6468
 4869TIP3    H114613   4.194   3.349   0.223  1.6063  0.7110 -0.0481
 4869TIP3    H214614   4.221   3.493   0.262 -1.1338  1.1418  0.4878
 4870TIP3   OH214615   4.753   0.612   0.972 -0.0898  0.0680 -0.0137
 4870TIP3    H114616   4.715   0.699   0.962 -0.1275  0.2327  1.3099
 4870TIP3    H214617   4.741   0.592   1.065  1.6957 -0.5191  0.1192
 4871TIP3   OH214618   0.364   5.421   3.187 -0.3773  0.4426  0.0522
 4871TIP3    H114619   0.440   5.375   3.224 -0.7782  0.6761  1.1840
 4871TIP3    H214620   0.315   5.452   3.263 -1.0621  1.1973 -0.6838
 4872TIP3   OH214621   0.406   5.491   3.808 -0.7152 -0.4150 -0.4287
 4872TIP3    H114622   0.464   5.474   3.882 -0.1038 -0.8479 -1.0034
 4872TIP3    H214623   0.449   5.449   3.733  0.0575  2.2535 -1.5901
 4873TIP3   OH214624   0.328   5.215   0.115 -0.1041 -0.0106 -0.8114
 4873TIP3    H114625   0.393   5.276   0.150  0.6109 -1.2581  0.1126
 4873TIP3    H214626   0.247   5.267   0.108  0.1815  0.7567  1.0515
 4874TIP3   OH214627   4.122   4.871   2.432  0.5171 -0.4418 -0.0685
 4874TIP3    H114628   4.054   4.939   2.436 -1.4397 -2.3053  0.0183
 4874TIP3    H214629   4.157   4.878   2.343 -0.1873  0.1795 -0.3116
 4875TIP3   OH214630   3.493   5.796   1.425  0.4713 -0.1466  0.2083
 4875TIP3    H114631   3.565   5.851   1.395 -0.4282  0.7184 -0.3940
 4875TIP3    H214632   3.487   5.813   1.519 -1.9290  3.4749 -0.4048
 4876TIP3   OH214633   2.884   2.236   1.998  0.5908  0.1215 -0.2771
 4876TIP3    H114634   2.839   2.259   1.917  0.0861 -1.6742 -0.5415
 4876TIP3    H214635   2.973   2.215   1.971  0.2666 -1.0427 -0.4627
 4877TIP3   OH214636   1.523   0.053   1.708 -0.2716 -0.0420 -0.6767
 4877TIP3    H114637   1.585   0.026   1.641 -0.1669 -1.6323  0.0004
 4877TIP3    H214638   1.441   0.067   1.661  0.5094  1.9569 -1.5590
 4878TIP3   OH214639   5.122   3.437   4.036 -0.3577  0.5745  0.2389
 4878TIP3    H114640   5.149   3.520   4.074  2.6975 -0.7812  1.3656
 4878TIP3    H214641   5.161   3.437   3.948 -2.3187  1.2235 -0.6753
 4879TIP3   OH214642   5.562   5.484   3.473 -0.7481  0.3948 -0.0865
 4879TIP3    H114643   5.507   5.560   3.453 -0.3001  0.6919 -0.1971
 4879TIP3    H214644   5.592   5.453   3.388 -3.1450 -1.6206 -0.3226
 4880TIP3   OH214645   3.516   0.516   1.145  0.4289 -0.0882 -0.1125
 4880TIP3    H114646   3.587   0.452   1.137  1.2821  0.6658  1.0143
 4880TIP3    H214647   3.499   0.544   1.055  2.1050  0.2647 -0.3579
 4881TIP3   OH214648   0.041   0.601   0.914  0.2563  0.2433  0.4287
 4881TIP3    H114649  -0.049   0.570   0.918  0.5322 -0.7488 -0.5300
 4881TIP3    H214650   0.036   0.693   0.940 -0.8332 -0.1366  1.6422
 4882TIP3   OH214651   5.808   1.390   3.047 -0.2449 -0.3738  0.1752
 4882TIP3    H114652   5.845   1.441   3.119 -0.0332 -1.3730  0.8002
 4882TIP3    H214653   5.719   1.424   3.037  0.0938  0.5341  0.1492
 4883TIP3   OH214654   0.459   4.462   4.666  0.7750  0.2793 -0.3025
 4883TIP3    H114655   0.519   4.392   4.691  1.8036  0.4560 -2.0965
 4883TIP3    H214656   0.435   4.442   4.576 -1.0542  0.8100  0.0273
 4884TIP3   OH214657   4.497   0.527   2.142  0.3604 -0.2693  0.1343
 4884TIP3    H114658   4.474   0.434   2.137  1.0788 -0.4086 -0.6907
 4884TIP3    H214659   4.574   0.529   2.199  1.0881 -0.3281 -0.8277
 4885TIP3   OH214660   3.271   1.622   0.621 -0.5592 -0.1707 -0.0115
 4885TIP3    H114661   3.209   1.560   0.661  0.2558 -1.0212 -0.0174
 4885TIP3    H214662   3.260   1.610   0.527  0.6533 -1.4466 -0.0258
 4886TIP3   OH214663   5.842   4.210   0.697 -0.0981 -0.2054 -0.2765
 4886TIP3    H114664   5.874   4.288   0.742  0.9829 -1.0727  0.5131
 4886TIP3    H214665   5.760   4.238   0.656 -0.8265  0.7884  1.7391
 4887TIP3   OH214666   5.399   1.698   4.607  0.3398 -0.2644 -0.2905
 4887TIP3    H114667   5.341   1.627   4.579  1.8876 -1.4809 -0.5761
 4887TIP3    H214668   5.430   1.736   4.525  0.2207  0.1502 -0.1436
 4888TIP3   OH214669   0.919   3.640   2.562 -0.3410 -0.2398  0.1256
 4888TIP3    H114670   0.979   3.701   2.518  0.5111 -0.0934  1.4457
 4888TIP3    H214671   0.842   3.637   2.504  0.1217  1.0988 -0.6140
 4889TIP3   OH214672   0.229   3.103   1.131 -0.1581  0.3894  0.3288
 4889TIP3    H114673   0.165   3.038   1.103 -1.0688  2.1207 -1.9026
 4889TIP3    H214674   0.219   3.175   1.069  0.2662  3.0199  3.0804
 4890TIP3   OH214675   3.714   4.264   3.327  0.6842  0.0755  0.2910
 4890TIP3    H114676   3.641   4.270   3.389 -0.3888 -0.7862 -0.8436
 4890TIP3    H214677   3.708   4.345   3.276 -0.7120 -0.8022 -1.0492
 4891TIP3   OH214678   6.006   1.173   3.913  0.0713 -0.1335  0.2232
 4891TIP3    H114679   6.015   1.078   3.908  0.7976 -0.0119 -1.8055
 4891TIP3    H214680   5.983   1.199   3.823 -1.0789  1.5272  0.9471
 4892TIP3   OH214681   1.783   4.389   1.324  0.0535 -0.0428  0.2764
 4892TIP3    H114682   1.806   4.349   1.408  0.5970  2.0693  1.2005
 4892TIP3    H214683   1.687   4.386   1.321  0.0896 -1.9330 -0.0004
 4893TIP3   OH214684   3.857   1.836   0.978  0.4795 -0.7563 -0.3160
 4893TIP3    H114685   3.859   1.821   0.884 -2.0391  0.6883 -0.6729
 4893TIP3    H214686   3.800   1.768   1.013  0.4599 -0.5699  0.0211
 4894TIP3   OH214687   5.609   1.685   4.209  0.1290 -0.0189  0.6082
 4894TIP3    H114688   5.667   1.611   4.194 -0.1528 -1.2362  4.3909
 4894TIP3    H214689   5.632   1.715   4.297 -1.4740  2.8305  0.1718
 4895TIP3   OH214690   3.550   0.208   4.422  0.6630  0.0147  0.3497
 4895TIP3    H114691   3.519   0.121   4.447 -1.0761  0.8847  1.4594
 4895TIP3    H214692   3.517   0.221   4.333  1.1142 -0.5356  0.1000
 4896TIP3   OH214693   2.169   0.804   5.049  0.7186 -0.3908 -0.6467
 4896TIP3    H114694   2.163   0.726   5.104 -0.1688 -1.1384 -1.7570
 4896TIP3    H214695   2.247   0.791   4.995 -0.9980 -2.0101 -2.9443
 4897TIP3   OH214696   3.750   1.384   3.732 -0.2359  0.5137  0.4695
 4897TIP3    H114697   3.743   1.323   3.659  0.2678  1.3709 -0.3235
 4897TIP3    H214698   3.834   1.363   3.774  0.1778  0.9772 -0.1114
 4898TIP3   OH214699   5.352   5.511   2.763 -0.1855 -0.2728 -0.0435
 4898TIP3    H114700   5.371   5.440   2.702 -1.4586 -0.4465 -0.2717
 4898TIP3    H214701   5.403   5.585   2.731 -0.6896 -0.4129 -1.2205
 4899TIP3   OH214702   3.071   3.458   1.033 -0.2365 -0.2331 -0.3511
 4899TIP3    H114703   3.151   3.462   1.085 -0.0791 -0.5776 -0.5633
 4899TIP3    H214704   3.002   3.489   1.091  0.1501  0.7073 -0.3674
 4900TIP3   OH214705   6.143   1.566   2.546  0.3162  0.7612 -0.2501
 4900TIP3    H114706   6.082   1.615   2.600 -1.5321 -0.8363 -0.7818
 4900TIP3    H214707   6.102   1.481   2.534  3.0635 -0.7206  0.0486
 4901TIP3   OH214708   2.984   4.437   2.068 -0.1137  0.8152  0.0575
 4901TIP3    H114709   3.061   4.471   2.021 -0.0364  0.7227  0.1157
 4901TIP3    H214710   2.912   4.447   2.006  0.3168 -1.0721 -0.8443
 4902TIP3   OH214711   2.460   3.572   4.707  0.1747 -0.8244  0.0786
 4902TIP3    H114712   2.443   3.505   4.642 -2.5104 -0.3213  0.1369
 4902TIP3    H214713   2.428   3.534   4.789 -1.6706  0.5441  0.0598
 4903TIP3   OH214714   5.303   5.230   0.645 -0.1433 -0.4383 -0.3963
 4903TIP3    H114715   5.349   5.299   0.694 -2.8114  0.8022  0.5382
 4903TIP3    H214716   5.332   5.149   0.686  1.1942  0.2729  0.1362
 4904TIP3   OH214717   5.945   5.963   1.550  0.1888 -0.1283  0.0159
 4904TIP3    H114718   5.959   5.990   1.459  1.0800 -0.3061  0.0909
 4904TIP3    H214719   6.032   5.968   1.590 -0.4646  1.8865  1.3936
 4905TIP3   OH214720   1.351   3.116   3.625  0.1227  0.3991 -0.1436
 4905TIP3    H114721   1.382   3.109   3.715 -0.2041  1.4298  0.0625
 4905TIP3    H214722   1.328   3.027   3.600  0.2930  0.0962  0.7652
 4906TIP3   OH214723   1.991   3.096   4.102 -0.3766  0.0400 -0.1522
 4906TIP3    H114724   1.983   3.021   4.159  0.7728  2.1639  3.0651
 4906TIP3    H214725   1.945   3.070   4.022 -2.7416 -2.8809  1.9265
 4907TIP3   OH214726   3.725   2.158   5.150 -0.6658  0.0590 -0.2645
 4907TIP3    H114727   3.777   2.230   5.114 -0.7606 -0.8027 -2.2744
 4907TIP3    H214728   3.639   2.168   5.111 -0.9846 -0.5593  0.2540
 4908TIP3   OH214729   5.044   0.175   2.341 -0.6891 -0.2427 -0.1386
 4908TIP3    H114730   4.964   0.182   2.290 -1.2837  0.8400  0.8723
 4908TIP3    H214731   5.018   0.128   2.420 -0.7334  1.3805  0.8709
 4909TIP3   OH214732   4.243   5.336   4.641 -0.4610  0.4929 -0.0139
 4909TIP3    H114733   4.232   5.343   4.546 -0.4945  1.8830  0.0585
 4909TIP3    H214734   4.274   5.423   4.667  0.5186 -0.1748  1.1240
 4910TIP3   OH214735   1.980   4.176   4.536 -0.1234 -0.0784 -0.2894
 4910TIP3    H114736   2.027   4.139   4.611 -1.6142 -2.2451 -0.3135
 4910TIP3    H214737   1.952   4.099   4.485 -1.0654  1.2380 -1.8680
 4911TIP3   OH214738   2.611   2.842   2.801  0.3999  0.2790  0.7347
 4911TIP3    H114739   2.562   2.820   2.722 -0.1415  0.8008  0.9170
 4911TIP3    H214740   2.662   2.919   2.776  0.2769  0.4057  0.8740
 4912TIP3   OH214741   1.589   2.865   2.126  0.0246 -0.1057 -0.4363
 4912TIP3    H114742   1.511   2.908   2.089  0.0519  0.2229 -0.1254
 4912TIP3    H214743   1.663   2.907   2.083  0.0750  0.6546  0.3588
 4913TIP3   OH214744   0.393   4.363   3.517 -0.3883  0.0277  0.4611
 4913TIP3    H114745   0.312   4.335   3.560 -0.0728 -1.7191 -0.0114
 4913TIP3    H214746   0.463   4.319   3.566  0.1022 -0.4653 -0.6529
 4914TIP3   OH214747   0.801   0.475   0.524 -0.0728 -0.3159  0.3061
 4914TIP3    H114748   0.841   0.559   0.548 -0.6953  0.0047  0.2389
 4914TIP3    H214749   0.871   0.426   0.481  0.6953 -0.3707  1.5655
 4915TIP3   OH214750   1.572   3.280   0.738  0.3614  0.2414 -0.5830
 4915TIP3    H114751   1.487   3.244   0.763  0.1770  1.7364  1.1412
 4915TIP3    H214752   1.634   3.240   0.799  0.1401  2.7208  1.4391
 4916TIP3   OH214753   5.608   2.195   1.576 -0.1948  0.0909 -0.2689
 4916TIP3    H114754   5.695   2.231   1.558 -0.9435  1.6566 -0.9518
 4916TIP3    H214755   5.569   2.258   1.637 -1.4713  0.3597 -1.3221
 4917TIP3   OH214756   3.647   5.806   4.689 -0.0525  0.3393 -0.4136
 4917TIP3    H114757   3.666   5.892   4.727  2.4686 -0.2409 -0.1745
 4917TIP3    H214758   3.733   5.766   4.676 -1.0929 -1.6714 -1.6891
 4918TIP3   OH214759   0.399   3.305   4.452  0.1356  0.7226 -0.1574
 4918TIP3    H114760   0.494   3.305   4.442  0.3597  0.4970  1.6312
 4918TIP3    H214761   0.372   3.395   4.432  0.7926  0.9327 -0.1015
 4919TIP3   OH214762   6.039   2.303   1.017 -0.1728  0.0489  0.3942
 4919TIP3    H114763   6.041   2.398   1.028  0.3963 -0.1249  2.3105
 4919TIP3    H214764   6.097   2.270   1.086 -1.9806 -1.7729  1.1668
 4920TIP3   OH214765   5.624   4.213   4.404  0.3077  0.2118  0.0532
 4920TIP3    H114766   5.607   4.209   4.499 -2.6121 -0.9031 -0.3975
 4920TIP3    H214767   5.686   4.142   4.388 -1.0745 -1.2625  0.8830
 4921TIP3   OH214768   0.160   4.781   3.762 -0.1449  0.4988 -0.5499
 4921TIP3    H114769   0.246   4.758   3.728  0.2103  0.9811 -0.0113
 4921TIP3    H214770   0.167   4.874   3.783 -0.0017  0.0373  1.7522
 4922TIP3   OH214771   3.373   2.804   1.727 -0.2587  0.9292  0.0790
 4922TIP3    H114772   3.376   2.753   1.808  1.6705 -0.3161 -0.6998
 4922TIP3    H214773   3.280   2.822   1.713 -0.8535 -1.0041  1.2323
 4923TIP3   OH214774   1.066   2.640   3.494 -0.6812  0.3014  0.1254
 4923TIP3    H114775   1.038   2.604   3.578  0.8259  2.0181  1.4514
 4923TIP3    H214776   1.151   2.598   3.477 -0.9262  0.0437 -0.5162
 4924TIP3   OH214777   5.993   4.579   0.994  0.2594  0.0868  0.1068
 4924TIP3    H114778   5.973   4.646   1.060  2.2866  0.5459  0.3125
 4924TIP3    H214779   6.081   4.599   0.965  0.3585 -1.6383 -0.9247
 4925TIP3   OH214780   4.177   3.134   0.722  0.2174 -0.7454 -0.0084
 4925TIP3    H114781   4.125   3.184   0.660 -0.6952 -0.3460  1.0388
 4925TIP3    H214782   4.148   3.044   0.712  0.4497 -0.7675 -0.5126
 4926TIP3   OH214783   3.966   5.323   1.996  0.4956 -0.1621 -0.1240
 4926TIP3    H114784   3.915   5.267   2.055  0.6607  2.1284  2.4264
 4926TIP3    H214785   4.055   5.320   2.031  0.4091  1.9617  0.4202
 4927TIP3   OH214786   2.361   1.699   0.744 -0.0666 -0.1171 -0.2478
 4927TIP3    H114787   2.421   1.672   0.813  0.6120 -1.4519 -1.3134
 4927TIP3    H214788   2.276   1.667   0.773  0.2656 -0.9491 -0.1684
 4928TIP3   OH214789   2.425   1.238   1.861  0.0901  0.8623 -0.1020
 4928TIP3    H114790   2.451   1.299   1.792 -0.7144 -0.6386 -1.8365
 4928TIP3    H214791   2.392   1.293   1.932  1.8763  2.5039 -0.4782
 4929TIP3   OH214792   3.968   5.906   1.839  0.5325 -0.3395  0.3967
 4929TIP3    H114793   4.010   5.837   1.890 -0.0974 -1.4146 -0.4738
 4929TIP3    H214794   4.030   5.926   1.769  0.7505  0.0382  0.6974
 4930TIP3   OH214795   3.020   2.980   4.743  0.0010  0.4470  0.7148
 4930TIP3    H114796   3.091   2.918   4.755 -0.0748  0.4634  1.2746
 4930TIP3    H214797   2.987   2.996   4.831 -0.7002  0.4331  0.4628
 4931TIP3   OH214798   4.943   5.007   4.654 -0.0885 -0.7335 -0.2973
 4931TIP3    H114799   4.864   5.062   4.652  1.4664  1.8578  2.0317
 4931TIP3    H214800   4.960   4.994   4.747  1.3245 -2.6997 -0.7791
 4932TIP3   OH214801   1.608   5.353   3.769 -0.4329 -0.3536  0.5663
 4932TIP3    H114802   1.694   5.331   3.733 -0.5583  1.4838 -1.0606
 4932TIP3    H214803   1.612   5.325   3.860  1.5832 -1.0934  0.2999
 4933TIP3   OH214804   2.970  -0.028   0.688  0.3322  1.0254  0.0649
 4933TIP3    H114805   2.893   0.021   0.717 -0.4647  0.4892 -1.0511
 4933TIP3    H214806   3.012   0.028   0.623 -0.7658  0.1885 -1.4621
 4934TIP3   OH214807   3.837   4.700   3.163  0.2720 -0.5730  0.1992
 4934TIP3    H114808   3.932   4.711   3.160  0.3734 -1.5791 -1.6715
 4934TIP3    H214809   3.807   4.732   3.078 -0.7720 -2.5537 -0.2312
 4935TIP3   OH214810   4.790   2.041   3.997 -0.0965 -0.1841 -0.2672
 4935TIP3    H114811   4.783   1.952   3.962 -0.7943 -0.0103 -0.5845
 4935TIP3    H214812   4.881   2.066   3.982  0.2977 -1.1059  0.4756
 4936TIP3   OH214813   6.157   1.945   3.612 -0.2855 -0.4161  0.3692
 4936TIP3    H114814   6.215   1.998   3.666 -0.6501  0.6079 -0.2148
 4936TIP3    H214815   6.107   2.008   3.561 -0.5646 -1.3328 -0.5335
 4937TIP3   OH214816   0.301   0.502   0.805 -0.6131  0.4225 -0.4638
 4937TIP3    H114817   0.360   0.564   0.848 -1.2936 -0.8018  2.4878
 4937TIP3    H214818   0.213   0.528   0.833 -1.2988  0.5863 -2.5898
 4938TIP3   OH214819   0.502   4.277   1.550  0.2600  0.1003  0.0125
 4938TIP3    H114820   0.551   4.198   1.527 -0.1559  0.1004 -0.9491
 4938TIP3    H214821   0.504   4.280   1.645 -1.0416 -1.9414  0.1727
 4939TIP3   OH214822   2.440   0.083   2.536  0.0136 -0.2171 -0.4278
 4939TIP3    H114823   2.350   0.114   2.522  0.2683  2.8063  3.1691
 4939TIP3    H214824   2.434   0.024   2.611  1.0348  0.2777  0.0632
 4940TIP3   OH214825   4.919   4.059   3.320 -0.7182 -0.6026  1.1419
 4940TIP3    H114826   5.011   4.085   3.317 -1.3296  1.8209  1.0169
 4940TIP3    H214827   4.894   4.052   3.227 -0.4553 -2.1970  1.1707
 4941TIP3   OH214828   4.530   0.852   3.176  0.3574 -0.3226  0.2060
 4941TIP3    H114829   4.514   0.933   3.128  1.5928 -1.3865 -2.1517
 4941TIP3    H214830   4.481   0.862   3.257  0.5025  2.7811  0.0163
 4942TIP3   OH214831   5.005   2.712   2.153  0.2158  0.2067  0.1689
 4942TIP3    H114832   5.038   2.792   2.194  2.0181 -0.5325  0.2667
 4942TIP3    H214833   4.960   2.742   2.074  1.0713  1.3147  0.0809
 4943TIP3   OH214834   3.929   1.151   4.289  0.0211 -0.3314 -0.2096
 4943TIP3    H114835   3.843   1.153   4.330  0.1144 -0.1125 -0.0186
 4943TIP3    H214836   3.937   1.236   4.245  1.1376  0.7570  1.8895
 4944TIP3   OH214837   5.074   1.019   2.073 -0.7651 -0.0407  0.3216
 4944TIP3    H114838   5.140   1.085   2.049  0.0063 -1.0409 -0.4026
 4944TIP3    H214839   5.016   1.065   2.134  0.3587  0.9949  0.6631
 4945TIP3   OH214840   5.129   0.094   1.681 -0.6323 -0.0953 -0.4230
 4945TIP3    H114841   5.153   0.141   1.760  0.2103  0.6082 -1.0763
 4945TIP3    H214842   5.192   0.124   1.615 -0.2659 -1.8790 -0.9497
 4946TIP3   OH214843   3.129   2.575   2.093  0.2953 -0.8792  0.6914
 4946TIP3    H114844   3.035   2.561   2.087  0.1404  0.0867  0.7802
 4946TIP3    H214845   3.142   2.618   2.177  0.6584  0.1947  0.1057
 4947TIP3   OH214846   3.600   3.968   3.316  0.2370 -0.3939 -0.0528
 4947TIP3    H114847   3.669   3.967   3.381 -0.6095  1.8363  0.9625
 4947TIP3    H214848   3.637   4.016   3.242  0.3127 -0.5999 -0.1483
 4948TIP3   OH214849   1.585   1.228   3.355 -0.2455 -0.0818  0.3540
 4948TIP3    H114850   1.509   1.246   3.412 -1.8002 -0.5378 -1.4865
 4948TIP3    H214851   1.602   1.312   3.312  0.8613  0.2342  1.3627
 4949TIP3   OH214852   2.330   0.839   2.214 -0.3642  0.8398 -0.2435
 4949TIP3    H114853   2.301   0.749   2.221  0.4382  0.4502 -1.4804
 4949TIP3    H214854   2.301   0.867   2.127 -1.5329  2.1368  0.5312
 4950TIP3   OH214855   4.997   1.259   0.441 -0.2352  0.5098  0.1343
 4950TIP3    H114856   5.061   1.310   0.491  1.7719 -1.1894 -0.5679
 4950TIP3    H214857   5.003   1.170   0.477 -3.0213  0.4873  0.7585
 4951TIP3   OH214858   0.442   0.757   1.817 -0.1358 -0.3657  0.1323
 4951TIP3    H114859   0.401   0.697   1.879 -3.5273  1.2815 -0.2484
 4951TIP3    H214860   0.446   0.841   1.864  0.7841  0.0438 -0.6433
 4952TIP3   OH214861   2.980   4.831   4.166  0.3924  0.3502 -0.2073
 4952TIP3    H114862   3.039   4.906   4.159 -0.7291  1.3523  0.7153
 4952TIP3    H214863   2.918   4.841   4.094  0.8158 -0.2458 -0.6708
 4953TIP3   OH214864   5.981   5.385   3.604 -0.0721 -0.1498 -0.2893
 4953TIP3    H114865   6.056   5.326   3.590  0.9464  1.0527 -0.1214
 4953TIP3    H214866   5.950   5.405   3.516 -0.5307 -1.0544 -0.3418
 4954TIP3   OH214867   4.479   3.698   0.236  0.1818 -0.0656  0.5299
 4954TIP3    H114868   4.440   3.653   0.161 -0.6630  0.9149  0.3555
 4954TIP3    H214869   4.573   3.682   0.228  0.2273  0.9451 -1.3791
 4955TIP3   OH214870   3.562   4.024   0.256  0.5135 -0.3056 -0.1715
 4955TIP3    H114871   3.590   4.032   0.347  1.4038 -0.6619 -0.4008
 4955TIP3    H214872   3.494   4.090   0.246  0.1497 -0.5183  0.8466
 4956TIP3   OH214873   5.071   3.230   1.774 -0.1771 -0.6395  0.3369
 4956TIP3    H114874   5.035   3.319   1.773 -1.5360 -1.1495  0.6383
 4956TIP3    H214875   5.012   3.180   1.716  1.3251 -1.0925 -0.8777
 4957TIP3   OH214876   5.655   2.220   1.207 -0.1430  0.6247 -0.0054
 4957TIP3    H114877   5.638   2.274   1.284  0.5730  0.4798  0.2644
 4957TIP3    H214878   5.571   2.180   1.186 -0.2116  0.1279  1.1325
 4958TIP3   OH214879   2.673   0.779   1.760  0.4446 -0.3335  0.0854
 4958TIP3    H114880   2.580   0.763   1.779  0.6347 -0.3412  1.0333
 4958TIP3    H214881   2.688   0.869   1.787  1.0581 -0.7887  1.2938
 4959TIP3   OH214882   3.877   0.465   1.222  0.0564  0.2905  0.0904
 4959TIP3    H114883   3.832   0.427   1.146  0.6555  0.8726 -0.5666
 4959TIP3    H214884   3.862   0.402   1.293  1.9776 -1.8200 -1.2251
 4960TIP3   OH214885   2.027   0.226   3.798 -0.0951  0.7584 -0.2354
 4960TIP3    H114886   1.959   0.293   3.797 -0.7316  0.1112 -0.3672
 4960TIP3    H214887   1.985   0.148   3.764  0.6660  0.3053 -0.1531
 4961TIP3   OH214888   1.132   3.498   1.709 -0.1178  0.2071 -0.5766
 4961TIP3    H114889   1.082   3.436   1.655  1.6103 -1.4807 -0.3304
 4961TIP3    H214890   1.159   3.567   1.648 -0.4814 -0.2556 -1.2682
 4962TIP3   OH214891   1.782   2.655   3.290  0.4187  0.6492 -1.0754
 4962TIP3    H114892   1.694   2.652   3.328  1.2301 -0.2260  0.8229
 4962TIP3    H214893   1.787   2.742   3.249 -0.0517  2.3156  2.0691
 4963TIP3   OH214894   0.592   1.442   2.811  0.1444  0.3550  0.4180
 4963TIP3    H114895   0.534   1.386   2.862 -0.8131 -0.3603 -1.3492
 4963TIP3    H214896   0.600   1.396   2.727  1.9946  1.2574  0.0650
 4964TIP3   OH214897   4.030   2.228   3.694 -0.2101 -0.0737  0.6248
 4964TIP3    H114898   4.059   2.153   3.642 -0.4628 -0.1672  0.6191
 4964TIP3    H214899   4.018   2.193   3.782 -3.4243 -0.8156  0.0092
 4965TIP3   OH214900   5.499   1.361   3.565  0.2366  0.1731  0.5349
 4965TIP3    H114901   5.472   1.289   3.508  0.6054  0.3114  0.1796
 4965TIP3    H214902   5.433   1.429   3.552  1.3074  0.9668 -1.1952
 4966TIP3   OH214903   2.061   3.327   2.099  0.2550 -0.0592  0.0590
 4966TIP3    H114904   2.139   3.317   2.046  1.2809 -0.6130  1.5996
 4966TIP3    H214905   1.988   3.305   2.040  1.3964 -1.4928 -0.8714
 4967TIP3   OH214906   5.421   2.373   1.764 -0.1132 -0.3608  0.1032
 4967TIP3    H114907   5.507   2.414   1.756 -0.2644  0.1527  1.0561
 4967TIP3    H214908   5.390   2.367   1.673  0.4121  0.5558 -0.1558
 4968TIP3   OH214909   5.707   4.942   1.112  0.2378 -0.3259  0.2045
 4968TIP3    H114910   5.631   4.885   1.123 -0.3345  0.1488 -1.1605
 4968TIP3    H214911   5.682   5.024   1.155 -1.1026  0.7398 -2.4229
 4969TIP3   OH214912   5.691   5.816   4.746  0.5709 -0.2790 -0.2080
 4969TIP3    H114913   5.708   5.756   4.674  1.0093  0.8257 -1.0595
 4969TIP3    H214914   5.728   5.900   4.716  1.6669 -0.0182  1.6957
 4970TIP3   OH214915   5.228   2.813   4.443 -0.1592  0.2000 -0.3453
 4970TIP3    H114916   5.154   2.755   4.428  0.7297 -1.0982  0.1909
 4970TIP3    H214917   5.275   2.814   4.359  0.4385 -0.7615 -0.0339
 4971TIP3   OH214918   5.960   5.124   3.029  0.0563  0.1006  0.0711
 4971TIP3    H114919   5.868   5.097   3.035  0.0846 -0.6749 -2.1676
 4971TIP3    H214920   6.009   5.043   3.024  0.9116  0.5114  1.3288
 4972TIP3   OH214921   3.945   5.305   0.654 -0.8637  0.1891 -0.1505
 4972TIP3    H114922   4.017   5.368   0.646 -0.7759  0.1783  0.4693
 4972TIP3    H214923   3.974   5.245   0.724 -1.3172 -0.0296 -0.1503
 4973TIP3   OH214924   2.511   5.794   2.566  0.1842  0.3296  0.6889
 4973TIP3    H114925   2.511   5.838   2.651  0.3587  0.8694  0.4155
 4973TIP3    H214926   2.477   5.706   2.584 -0.2952  0.6184  1.2216
 4974TIP3   OH214927   6.194   4.389   0.147  0.2379 -0.1344  0.0589
 4974TIP3    H114928   6.286   4.402   0.169  0.2010 -0.9004  0.7321
 4974TIP3    H214929   6.184   4.294   0.141 -0.2830 -0.0210 -1.0264
 4975TIP3   OH214930   0.710   0.025   1.518  0.0764  0.3464 -0.0142
 4975TIP3    H114931   0.629   0.039   1.469  0.9273  1.7113 -1.0918
 4975TIP3    H214932   0.768  -0.021   1.457  0.3936  0.0727  0.4840
 4976TIP3   OH214933   5.067   4.892   2.165  0.1035 -0.0617 -0.3022
 4976TIP3    H114934   5.023   4.937   2.092 -0.5791 -1.3391 -0.7235
 4976TIP3    H214935   5.160   4.895   2.143 -0.1138 -0.6672 -1.4045
 4977TIP3   OH214936   0.907   3.045   0.295 -0.0404 -0.0814  0.6924
 4977TIP3    H114937   0.856   2.964   0.296  0.7823 -0.6096  0.9421
 4977TIP3    H214938   0.855   3.105   0.242  0.7570 -1.7265 -2.1561
 4978TIP3   OH214939   0.576   3.865   1.187 -0.1615  0.0967 -0.5897
 4978TIP3    H114940   0.546   3.955   1.184 -0.1152  0.3296  2.7719
 4978TIP3    H214941   0.663   3.867   1.146 -0.0824  1.6182 -0.3940
 4979TIP3   OH214942   4.471   2.900   2.175  0.2767  0.5332  0.2252
 4979TIP3    H114943   4.380   2.921   2.154 -0.0784 -0.9426  0.2141
 4979TIP3    H214944   4.503   2.851   2.099  0.9539  0.6385  0.4296
 4980TIP3   OH214945   1.237   3.105   4.188 -1.0581  0.0177 -0.1974
 4980TIP3    H114946   1.306   3.080   4.249 -0.2606 -0.5268 -1.2884
 4980TIP3    H214947   1.204   3.188   4.221  1.6610  1.4604 -0.8714
 4981TIP3   OH214948   4.319   0.153   3.246 -0.7501 -0.0625 -0.8925
 4981TIP3    H114949   4.371   0.096   3.189 -2.0487 -0.6203 -1.5654
 4981TIP3    H214950   4.259   0.094   3.291 -0.5210  0.5165  0.2138
 4982TIP3   OH214951   6.347   3.459   4.242  0.1434  0.1217 -0.3849
 4982TIP3    H114952   6.262   3.427   4.214  0.0539  0.8107 -0.9216
 4982TIP3    H214953   6.403   3.381   4.243 -0.3531 -0.2370 -0.5760
 4983TIP3   OH214954   3.317   3.858   1.940  0.7074  0.0352  0.0488
 4983TIP3    H114955   3.280   3.858   2.028  0.2601 -2.3236 -0.0747
 4983TIP3    H214956   3.395   3.804   1.946  0.4111 -0.5515 -1.0815
 4984TIP3   OH214957   3.646   5.337   0.778 -0.1664 -0.4471 -0.0523
 4984TIP3    H114958   3.677   5.247   0.783 -0.1516 -0.4141  0.6169
 4984TIP3    H214959   3.718   5.385   0.736 -0.0918 -0.7106 -0.2269
 4985TIP3   OH214960   5.559   2.833   2.374  0.6009  0.2612  0.4859
 4985TIP3    H114961   5.632   2.771   2.384  0.6125 -0.0030 -1.0189
 4985TIP3    H214962   5.562   2.859   2.282  0.6737  2.6223  1.1024
 4986TIP3   OH214963   3.914   5.423   2.528  0.3412  0.4279 -0.4704
 4986TIP3    H114964   3.868   5.434   2.445  1.3983  1.5935 -0.9247
 4986TIP3    H214965   3.849   5.446   2.595 -0.1021  0.8576 -1.0363
 4987TIP3   OH214966   0.995   2.694   3.022 -0.0388  0.1978  0.4722
 4987TIP3    H114967   0.982   2.728   3.111 -0.7487 -1.0431  0.8724
 4987TIP3    H214968   0.957   2.761   2.965  0.1270  0.8598  1.1221
 4988TIP3   OH214969   3.403   2.417   1.707 -0.2271 -0.2863  0.2218
 4988TIP3    H114970   3.463   2.447   1.775  0.6931 -0.7582 -0.3578
 4988TIP3    H214971   3.386   2.325   1.728 -0.8370 -0.1282  0.4411
 4989TIP3   OH214972   3.170   0.729   2.250  0.2015  0.0417 -0.1121
 4989TIP3    H114973   3.200   0.644   2.218  0.2775 -0.2544  0.7376
 4989TIP3    H214974   3.160   0.718   2.344 -0.4905  0.7667 -0.0873
 4990TIP3   OH214975   4.354   1.415   1.083 -0.2270 -0.5209 -0.6921
 4990TIP3    H114976   4.443   1.449   1.098 -0.6765  0.3389  0.1624
 4990TIP3    H214977   4.365   1.320   1.086  0.4426 -0.4374  1.0556
 4991TIP3   OH214978   6.172   4.269   4.295  0.7544  0.1112  0.1008
 4991TIP3    H114979   6.264   4.294   4.298  0.1664  2.5182 -0.0172
 4991TIP3    H214980   6.155   4.251   4.202  0.2130  3.7429 -0.6385
 4992TIP3   OH214981   3.161   0.407   3.689  0.0140 -0.6208 -0.3713
 4992TIP3    H114982   3.107   0.425   3.612  1.4154 -0.4286 -1.3343
 4992TIP3    H214983   3.208   0.326   3.668  2.3766  0.7816 -0.8635
 4993TIP3   OH214984   6.168   5.410   2.505 -0.2536 -0.4408  0.2914
 4993TIP3    H114985   6.121   5.332   2.475 -1.2872 -0.1166  0.9950
 4993TIP3    H214986   6.258   5.381   2.519 -0.1911 -1.0419 -1.2496
 4994TIP3   OH214987   3.554   0.125   2.933  0.2600  0.4690 -0.4616
 4994TIP3    H114988   3.560   0.214   2.901  0.5771  0.3442 -0.7479
 4994TIP3    H214989   3.470   0.122   2.979  1.2390  1.5693  1.5638
 4995TIP3   OH214990   5.220   1.937   2.717  0.0833 -0.3380  0.5820
 4995TIP3    H114991   5.190   1.940   2.807 -0.6982 -1.3822  0.3756
 4995TIP3    H214992   5.199   1.848   2.687  0.5499 -0.0940 -0.5504
 4996TIP3   OH214993   0.233   0.986   1.677  0.0203  0.3651 -0.3709
 4996TIP3    H114994   0.229   1.079   1.654  0.6712  1.0207  1.8696
 4996TIP3    H214995   0.321   0.974   1.712 -1.1001 -0.2426  2.4885
 4997TIP3   OH214996   4.696   0.352   3.191  0.0076  0.0328 -0.0306
 4997TIP3    H114997   4.602   0.371   3.184  0.2223  0.7074 -1.3050
 4997TIP3    H214998   4.721   0.389   3.275 -0.6425  0.8640 -0.1847
 4998TIP3   OH214999   4.827   0.035   0.906  0.5674  0.3682 -0.2792
 4998TIP3    H115000   4.781   0.111   0.870  1.4068 -0.0352 -2.3162
 4998TIP3    H215001   4.870  -0.005   0.831  0.8894 -1.6234  0.8937
 4999TIP3   OH215002   2.203   1.907   2.596 -0.5090  0.3204 -0.1982
 4999TIP3    H115003   2.214   1.812   2.591 -1.3778  0.0808  1.7362
 4999TIP3    H215004   2.285   1.939   2.634 -0.2078  0.3569 -0.8703
 5000TIP3   OH215005   5.116   5.274   2.230 -0.2032 -0.0620  0.2894
 5000TIP3    H115006   5.095   5.293   2.139  1.4622  1.5589  0.1933
 5000TIP3    H215007   5.199   5.226   2.226 -0.5797 -0.8144  0.9433
 5001TIP3   OH215008   5.762   1.503   4.033  0.1012 -0.0872 -0.2502
 5001TIP3    H115009   5.674   1.491   3.996  0.1090  0.4253 -0.4463
 5001TIP3    H215010   5.820   1.507   3.957  0.1884  0.4181 -0.1609
 5002TIP3   OH215011   5.376   1.444   1.794  0.0627  0.0246  0.3984
 5002TIP3    H115012   5.457   1.448   1.743 -0.4479 -0.9897 -0.5261
 5002TIP3    H215013   5.317   1.506   1.750  0.4121  1.0032  1.2613
 5003TIP3   OH215014   5.303   4.134   4.281  0.4467  0.2196  0.3799
 5003TIP3    H115015   5.363   4.073   4.237  2.1860  1.2966  1.1620
 5003TIP3    H215016   5.355   4.212   4.296 -1.2889  1.3479  0.8016
 5004TIP3   OH215017   5.992   0.083   2.757  0.5856  0.3661  0.0179
 5004TIP3    H115018   6.052   0.157   2.768 -2.4372  3.1721 -0.7994
 5004TIP3    H215019   5.978   0.077   2.663 -1.1185  0.4491  0.2351
 5005TIP3   OH215020   2.267   1.572   1.843  0.1393  0.0112  0.2507
 5005TIP3    H115021   2.228   1.518   1.774 -1.4802 -1.7857  2.4112
 5005TIP3    H215022   2.225   1.658   1.832  2.1365  0.7632 -2.7255
 5006TIP3   OH215023   3.143   4.026   3.198 -0.0233  0.0170 -0.2927
 5006TIP3    H115024   3.124   3.934   3.179 -0.3471 -0.1915  0.9840
 5006TIP3    H215025   3.121   4.037   3.290 -0.9997  1.6504 -0.6812
 5007TIP3   OH215026   4.911   4.667   1.842 -0.7623 -0.1446 -0.2369
 5007TIP3    H115027   4.859   4.587   1.828  1.4956 -1.5744 -1.0501
 5007TIP3    H215028   4.968   4.646   1.916  0.6061  0.2729 -1.1317
 5008TIP3   OH215029   2.933   4.926   3.056  0.0310  0.7379 -0.1048
 5008TIP3    H115030   2.893   4.842   3.033  0.1890  0.8989 -1.0218
 5008TIP3    H215031   2.894   4.989   2.995 -1.4713  1.7170  1.7484
 5009TIP3   OH215032   5.692   2.485   1.704 -0.3652 -0.8692 -0.2089
 5009TIP3    H115033   5.741   2.508   1.784 -0.3661  0.5226 -0.5737
 5009TIP3    H215034   5.745   2.521   1.633 -2.0601  1.0803 -0.5972
 5010TIP3   OH215035   2.581   3.644   4.306  0.3617  0.4817  0.2742
 5010TIP3    H115036   2.645   3.701   4.348 -0.7986  0.2092  2.5983
 5010TIP3    H215037   2.591   3.659   4.212  0.5310  3.9998  0.7564
 5011TIP3   OH215038   3.932   4.959   1.367  0.6401 -0.1243  0.7309
 5011TIP3    H115039   3.865   4.891   1.364  1.0602 -0.5306 -1.9519
 5011TIP3    H215040   4.014   4.911   1.382  0.6679  0.0698  1.2196
 5012TIP3   OH215041   4.355   0.944   5.198 -0.3956  0.3240 -0.4220
 5012TIP3    H115042   4.404   0.866   5.170 -1.7934 -1.0446  0.7416
 5012TIP3    H215043   4.268   0.932   5.161 -1.1980  0.3111  1.3701
 5013TIP3   OH215044   4.809   4.154   1.466  0.3072 -0.5303  0.2983
 5013TIP3    H115045   4.858   4.095   1.522  2.0032  1.6326  1.2414
 5013TIP3    H215046   4.731   4.104   1.440  0.9174 -2.6030  2.2001
 5014TIP3   OH215047   0.167   1.268   1.659  0.2966 -0.3388 -0.0849
 5014TIP3    H115048   0.104   1.220   1.714 -0.7440 -1.6938 -2.3446
 5014TIP3    H215049   0.122   1.350   1.639  0.5807  0.0567  0.8187
 5015TIP3   OH215050   5.543   3.403   2.732  0.2825 -0.3927  0.2775
 5015TIP3    H115051   5.505   3.326   2.690  0.5821 -0.0752 -0.6031
 5015TIP3    H215052   5.552   3.467   2.661 -0.1503  0.5251  1.0319
 5016TIP3   OH215053   2.117   0.105   1.067  0.0799 -0.2062 -0.4937
 5016TIP3    H115054   2.110   0.087   1.161  0.7564  1.6480 -0.0329
 5016TIP3    H215055   2.041   0.160   1.047  0.9648  1.0441 -0.5527
 5017TIP3   OH215056   1.195   4.845   4.515 -0.1225 -0.2974 -0.0840
 5017TIP3    H115057   1.122   4.792   4.547  0.8409 -0.0374  2.8361
 5017TIP3    H215058   1.158   4.933   4.504 -0.8051 -0.6968 -1.1052
 5018TIP3   OH215059   5.263   0.643   4.686 -0.4798 -0.3303 -0.1645
 5018TIP3    H115060   5.324   0.581   4.726  0.0204 -1.5858 -2.6539
 5018TIP3    H215061   5.233   0.598   4.607 -3.5334  0.8498  0.2004
 5019TIP3   OH215062   4.536   4.819   2.689  0.4794 -0.3201  0.1758
 5019TIP3    H115063   4.542   4.915   2.687 -0.7008 -0.2150  0.8682
 5019TIP3    H215064   4.623   4.789   2.661  0.6266  0.9434 -0.8358
 5020TIP3   OH215065   3.390   4.590   0.730  0.1685 -0.1411 -0.2510
 5020TIP3    H115066   3.314   4.533   0.719  0.2803 -0.2132 -0.7080
 5020TIP3    H215067   3.364   4.672   0.687  0.1175  0.0469  0.1416
 5021TIP3   OH215068   5.158   0.701   3.671 -0.1345 -0.4219 -0.0519
 5021TIP3    H115069   5.171   0.632   3.736 -1.6655 -0.5266  0.1637
 5021TIP3    H215070   5.147   0.781   3.722  0.0789 -0.2698 -0.2404
 5022TIP3   OH215071   6.061   2.061   0.489 -0.5624  0.0565  0.3568
 5022TIP3    H115072   6.040   2.151   0.515 -0.4093 -0.0021  0.6777
 5022TIP3    H215073   6.153   2.050   0.511 -0.8443 -0.5292  1.3122
 5023TIP3   OH215074   2.138   1.806   1.587 -0.3685  0.0816  0.0738
 5023TIP3    H115075   2.084   1.855   1.649  0.0993  0.7049  0.0058
 5023TIP3    H215076   2.212   1.864   1.569 -0.6749  0.0721 -1.3511
 5024TIP3   OH215077   6.129   5.242   2.033 -0.4583  0.1536  0.0524
 5024TIP3    H115078   6.169   5.180   1.971  0.7203  1.2476 -0.3154
 5024TIP3    H215079   6.037   5.246   2.006 -0.4015 -0.8815 -0.3610
 5025TIP3   OH215080   4.357   1.895   2.449 -0.1112  0.1683 -0.3066
 5025TIP3    H115081   4.383   1.912   2.358  0.9996 -1.0903 -0.2610
 5025TIP3    H215082   4.277   1.844   2.441 -0.4384  0.7125 -0.5563
 5026TIP3   OH215083   1.709   3.169   0.079  0.5544  0.1241 -0.3594
 5026TIP3    H115084   1.707   3.075   0.098  0.0534  0.4446  1.4259
 5026TIP3    H215085   1.782   3.202   0.132 -1.6208  1.2553  2.1987
 5027TIP3   OH215086   5.944   4.102   3.915 -0.1915  0.5878  0.7611
 5027TIP3    H115087   5.999   4.180   3.922 -0.2923  0.6060  1.3971
 5027TIP3    H215088   5.871   4.129   3.859  0.9323  0.2781 -0.9022
 5028TIP3   OH215089   4.172   1.331   3.316  0.1389 -0.0994  0.0072
 5028TIP3    H115090   4.116   1.274   3.264  3.1866 -1.7891 -1.6933
 5028TIP3    H215091   4.120   1.351   3.394 -2.4160 -2.2683 -0.9788
 5029TIP3   OH215092   1.394   5.527   1.884 -0.5098 -0.6883 -0.0320
 5029TIP3    H115093   1.304   5.496   1.869 -0.5643 -1.6380  2.0092
 5029TIP3    H215094   1.389   5.575   1.967  0.7651 -0.2080 -0.2206
 5030TIP3   OH215095   5.877   5.013   4.425 -0.2631  0.8296 -0.6725
 5030TIP3    H115096   5.887   4.982   4.515 -1.1520 -0.2516 -0.9332
 5030TIP3    H215097   5.925   4.949   4.372  0.6016  1.6825 -0.9526
 5031TIP3   OH215098   1.936   3.356   2.787  0.0804 -0.3451 -0.1596
 5031TIP3    H115099   2.014   3.359   2.732  0.2600 -1.1813  0.0461
 5031TIP3    H215100   1.908   3.448   2.793  0.8594 -0.0775 -0.4928
 5032TIP3   OH215101   3.677   2.640   3.160 -0.4372 -0.1863 -0.5848
 5032TIP3    H115102   3.742   2.681   3.217  0.3829 -1.4447 -0.5507
 5032TIP3    H215103   3.613   2.708   3.142  0.4414  0.8462  0.0938
 5033TIP3   OH215104   3.133   0.958   2.621 -0.1220  0.6434 -0.5485
 5033TIP3    H115105   3.074   0.995   2.687  0.4424  1.9633 -0.7636
 5033TIP3    H215106   3.124   1.015   2.545  2.4650  1.7754 -0.1160
 5034TIP3   OH215107   4.565   0.499   4.660 -0.3404 -0.9336  0.1197
 5034TIP3    H115108   4.526   0.586   4.670 -1.3327 -1.3007 -0.3823
 5034TIP3    H215109   4.650   0.506   4.702 -0.4394  0.2570  0.1607
 5035TIP3   OH215110   1.977   4.516   2.919 -0.0056  0.9246 -0.0934
 5035TIP3    H115111   1.923   4.446   2.955  1.8972 -1.3260 -1.3925
 5035TIP3    H215112   2.017   4.557   2.996 -0.7297  0.2420  0.6656
 5036TIP3   OH215113   3.416   1.424   1.448  0.4169  0.1980  0.7863
 5036TIP3    H115114   3.481   1.364   1.483 -1.7680 -1.6409  2.0257
 5036TIP3    H215115   3.338   1.369   1.436 -0.8882  2.2434 -0.7124
 5037TIP3   OH215116   3.585   0.149   1.437 -0.1492 -0.4917  0.2107
 5037TIP3    H115117   3.623   0.067   1.468 -1.9065 -0.4843  2.6333
 5037TIP3    H215118   3.491   0.132   1.433 -0.3811  0.8925 -1.0014
 5038TIP3   OH215119   4.133   0.409   0.363  0.0004  0.1716 -0.0120
 5038TIP3    H115120   4.214   0.420   0.314  0.4529  2.8977  1.1778
 5038TIP3    H215121   4.156   0.345   0.431  0.4669 -0.7431 -0.9976
 5039TIP3   OH215122   0.157   2.963   4.146  0.6819  0.8172  0.6782
 5039TIP3    H115123   0.192   3.013   4.072 -0.2724  0.2190 -0.2064
 5039TIP3    H215124   0.112   2.889   4.106  1.2457 -0.2333  1.9315
 5040TIP3   OH215125   4.057   1.620   1.877  0.2658 -0.1616 -0.4152
 5040TIP3    H115126   3.999   1.694   1.895  0.1401 -0.2251 -0.5627
 5040TIP3    H215127   4.108   1.648   1.801  0.4523 -0.0916 -0.2642
 5041TIP3   OH215128   0.043   0.101   2.228 -0.1255 -0.2306  0.0499
 5041TIP3    H115129   0.106   0.080   2.159  0.6860 -0.1739  0.7609
 5041TIP3    H215130   0.001   0.017   2.249  0.4206 -0.4571  0.2530
 5042TIP3   OH215131   3.401   1.874   4.104 -0.0108 -0.1027 -0.2219
 5042TIP3    H115132   3.445   1.919   4.176  0.8974  0.0041 -0.8262
 5042TIP3    H215133   3.360   1.944   4.054 -0.0401 -0.1111 -0.2098
 5043TIP3   OH215134   3.107   5.517   4.036  0.3586  0.2026 -0.5046
 5043TIP3    H115135   3.052   5.522   4.115 -0.2383 -1.9216 -0.7173
 5043TIP3    H215136   3.125   5.609   4.013  0.3833  0.8833  1.9595
 5044TIP3   OH215137   5.657   2.451   2.236 -0.1337  0.2926 -0.0179
 5044TIP3    H115138   5.597   2.378   2.253  0.6508 -0.0950  1.1975
 5044TIP3    H215139   5.621   2.494   2.159 -1.2742 -0.6778 -0.0518
 5045TIP3   OH215140   4.123   4.228   1.440  0.5511  0.2577  0.4122
 5045TIP3    H115141   4.173   4.274   1.507 -0.0354  1.6660 -0.0601
 5045TIP3    H215142   4.055   4.181   1.488 -1.4401  3.2317  0.7888
 5046TIP3   OH215143   0.570   4.100   4.366  0.4526 -0.0404  0.5902
 5046TIP3    H115144   0.608   4.097   4.279  0.3694  0.7523  0.5206
 5046TIP3    H215145   0.507   4.028   4.368  0.4185 -0.0291 -0.0175
 5047TIP3   OH215146   4.152   4.326   0.681 -0.3835  0.2054 -0.1563
 5047TIP3    H115147   4.129   4.269   0.755 -1.5920  1.0450  0.1395
 5047TIP3    H215148   4.147   4.415   0.717  1.1958  0.5413 -0.6861
 5048TIP3   OH215149   0.268   5.403   1.877 -0.3915  0.3983  0.5113
 5048TIP3    H115150   0.330   5.470   1.904 -0.1446  0.2082  0.4196
 5048TIP3    H215151   0.247   5.425   1.786 -1.8816  1.5427  1.0842
 5049TIP3   OH215152   0.921   1.713   4.480  0.1187  0.5041  0.4837
 5049TIP3    H115153   0.932   1.627   4.519 -0.7712  0.7087  1.2200
 5049TIP3    H215154   0.945   1.702   4.388 -0.2141 -0.5771  0.5207
 5050TIP3   OH215155   0.218   3.282   4.236 -0.4269 -0.3299 -0.7338
 5050TIP3    H115156   0.278   3.307   4.165  0.4926 -1.5582 -0.4232
 5050TIP3    H215157   0.275   3.260   4.309 -1.3825  1.2892  0.5556
 5051TIP3   OH215158   6.220   5.085   0.495  0.1296 -0.2276  0.3426
 5051TIP3    H115159   6.300   5.062   0.541  1.5356  1.8821 -0.8955
 5051TIP3    H215160   6.216   5.180   0.499 -1.5440 -0.1911 -0.9155
 5052TIP3   OH215161   3.339   5.584   0.613 -0.1499 -0.1823 -0.4233
 5052TIP3    H115162   3.311   5.495   0.636 -1.8496 -0.0043 -1.6806
 5052TIP3    H215163   3.327   5.590   0.519 -0.9296  1.6806 -0.2431
 5053TIP3   OH215164   0.984   4.229   0.781  0.2021  0.4802 -0.0043
 5053TIP3    H115165   1.034   4.303   0.815  2.3114 -0.3029 -1.2311
 5053TIP3    H215166   0.985   4.241   0.686 -1.9071  0.3515 -0.0909
 5054TIP3   OH215167   2.029   3.773   3.909 -0.6095 -0.2398  0.2228
 5054TIP3    H115168   1.981   3.765   3.992  1.5711 -0.9057  1.4888
 5054TIP3    H215169   1.962   3.758   3.842 -2.4646  0.3655  1.8261
 5055TIP3   OH215170   3.707   4.836   5.027 -0.3519  0.2322  0.1734
 5055TIP3    H115171   3.784   4.835   4.970 -0.7567 -1.8065 -0.4366
 5055TIP3    H215172   3.635   4.860   4.969 -0.7973 -2.0439 -0.3320
 5056TIP3   OH215173   3.329   2.321   3.943  0.3531  0.9054 -0.4292
 5056TIP3    H115174   3.235   2.332   3.955  0.4220 -0.8886  2.9032
 5056TIP3    H215175   3.352   2.386   3.876 -2.9765  2.4294 -0.3137
 5057TIP3   OH215176   5.625   2.433   4.806  0.0783 -0.2627  0.3112
 5057TIP3    H115177   5.565   2.393   4.743  0.1562 -1.7912  1.1620
 5057TIP3    H215178   5.579   2.510   4.838 -1.2401 -1.1363  0.5852
 5058TIP3   OH215179   3.733   2.356   1.312 -0.3398 -0.7434 -0.3355
 5058TIP3    H115180   3.732   2.387   1.222 -0.1151 -0.1679 -0.1405
 5058TIP3    H215181   3.642   2.362   1.341 -0.0091  1.7634  0.3821
 5059TIP3   OH215182   3.615   2.334   2.675  0.1925 -0.3001  0.4012
 5059TIP3    H115183   3.643   2.254   2.632 -0.5802  0.2881 -1.2694
 5059TIP3    H215184   3.520   2.329   2.677  0.1715  0.1301  1.2043
 5060TIP3   OH215185   1.337   0.369   2.134  0.5644  0.2901  0.2468
 5060TIP3    H115186   1.334   0.452   2.181 -0.8271 -0.5939  1.8496
 5060TIP3    H215187   1.350   0.303   2.202 -0.2399 -0.9619 -0.7607
 5061TIP3   OH215188  -0.037   3.623   0.451  0.0658  0.0841  0.1806
 5061TIP3    H115189   0.030   3.607   0.518 -1.0015  0.8628  1.4967
 5061TIP3    H215190   0.009   3.670   0.382  1.0499 -0.1229  0.6699
 5062TIP3   OH215191   1.389   1.981   2.840 -0.8990 -0.6408 -0.0252
 5062TIP3    H115192   1.348   2.067   2.843 -0.6919 -0.5038 -1.0213
 5062TIP3    H215193   1.365   1.945   2.755  1.5312 -0.3018 -0.9324
 5063TIP3   OH215194   2.156   2.924   2.189  0.1541  0.3553 -0.2183
 5063TIP3    H115195   2.095   2.896   2.121  2.2597 -2.0996 -1.2859
 5063TIP3    H215196   2.230   2.963   2.141  0.4972  1.1175  0.8706
 5064TIP3   OH215197   0.289   3.382   1.561  0.1642  0.1036  0.0265
 5064TIP3    H115198   0.318   3.434   1.486  1.0675  1.2735  1.1473
 5064TIP3    H215199   0.194   3.379   1.553  0.3218 -1.3592 -2.1435
 5065TIP3   OH215200   3.444   4.570   2.253 -0.2232  0.3613  0.2749
 5065TIP3    H115201   3.469   4.498   2.195 -0.1218 -1.0550  2.0043
 5065TIP3    H215202   3.354   4.591   2.227 -1.0528 -1.8688  1.0825
 5066TIP3   OH215203   2.426   5.361   1.071 -0.2848  0.5700 -0.7332
 5066TIP3    H115204   2.408   5.451   1.097  0.4630  0.5781 -0.2305
 5066TIP3    H215205   2.493   5.331   1.132  0.2051  0.0069 -1.5386
 5067TIP3   OH215206   0.728   0.106   3.541 -0.1706 -0.5024 -1.0547
 5067TIP3    H115207   0.732   0.201   3.530 -1.2830  0.0751  2.5136
 5067TIP3    H215208   0.766   0.072   3.460  2.1238  2.9669 -1.6627
 5068TIP3   OH215209   3.402   4.032   2.624  0.4676 -0.3042 -0.2368
 5068TIP3    H115210   3.406   4.115   2.672  0.7110 -0.2217 -0.4013
 5068TIP3    H215211   3.468   4.040   2.556 -0.1624 -0.2589 -0.8540
 5069TIP3   OH215212   5.440   2.475   0.630  0.2441  0.0360  0.4025
 5069TIP3    H115213   5.504   2.404   0.625 -0.1996 -0.4551  1.3123
 5069TIP3    H215214   5.389   2.467   0.550  1.1177  0.2382 -0.1843
 5070TIP3   OH215215   3.859   2.439   5.117  0.6036  0.1813 -0.8840
 5070TIP3    H115216   3.950   2.465   5.130  0.4804  0.4823 -0.6080
 5070TIP3    H215217   3.814   2.519   5.090  0.0637  0.4694  0.7489
 5071TIP3   OH215218   3.411   2.039   3.033  0.4157 -0.9341 -0.5164
 5071TIP3    H115219   3.401   2.129   3.004 -2.1256 -1.2131 -0.7567
 5071TIP3    H215220   3.459   2.045   3.115 -0.8711  0.7920  0.1718
 5072TIP3   OH215221   0.299   1.408   4.343 -0.8015  0.2992  0.5165
 5072TIP3    H115222   0.208   1.378   4.344 -0.5128 -0.7367 -0.9130
 5072TIP3    H215223   0.313   1.437   4.252 -0.0728  1.6857  1.0488
 5073TIP3   OH215224   0.134   2.464   0.802  0.9873 -0.3909 -0.3349
 5073TIP3    H115225   0.153   2.457   0.895  1.8959  0.3992 -0.4467
 5073TIP3    H215226   0.056   2.520   0.797  0.8307 -0.5814 -0.0529
 5074TIP3   OH215227   3.397   4.897   0.714 -0.6156  0.3523 -0.5155
 5074TIP3    H115228   3.376   4.936   0.629  1.8352  0.7355 -1.0349
 5074TIP3    H215229   3.393   4.971   0.776 -0.2352  0.5327 -0.7059
 5075TIP3   OH215230   3.759   4.810   3.404  0.4486  0.3545  0.3667
 5075TIP3    H115231   3.801   4.737   3.450  1.4406  0.3405 -0.5305
 5075TIP3    H215232   3.754   4.782   3.313 -0.2630  0.9291  0.2189
 5076TIP3   OH215233   2.489   0.732   2.910  0.1441  0.1998 -0.4564
 5076TIP3    H115234   2.549   0.670   2.951  1.4254  2.2817  1.0742
 5076TIP3    H215235   2.403   0.690   2.915  0.3647 -0.1738  3.6544
 5077TIP3   OH215236   0.375  -0.011   1.540 -0.0715 -0.0873  0.0795
 5077TIP3    H115237   0.394   0.066   1.593 -1.7705  0.4216  0.0060
 5077TIP3    H215238   0.425   0.002   1.459 -1.9017  2.0216 -0.8144
 5078TIP3   OH215239   1.221   3.277   0.163  0.2192  0.5615 -0.5757
 5078TIP3    H115240   1.242   3.263   0.256  0.4315  0.2082 -0.6740
 5078TIP3    H215241   1.306   3.294   0.122  0.2469 -0.2196 -0.8655
 5079TIP3   OH215242   4.819   5.687   2.361  0.4798 -0.4104 -0.0893
 5079TIP3    H115243   4.794   5.764   2.310 -0.9741  0.4347  1.8018
 5079TIP3    H215244   4.846   5.623   2.295  1.1632  1.4825 -1.7488
 5080TIP3   OH215245   0.454   2.312   3.881 -0.1357 -0.4869  0.6826
 5080TIP3    H115246   0.467   2.317   3.786  0.1525 -0.8624  0.7031
 5080TIP3    H215247   0.421   2.224   3.897  2.1306 -1.3060  1.1889
 5081TIP3   OH215248   3.351   0.009   3.083 -0.5862  0.6764  0.1271
 5081TIP3    H115249   3.308  -0.077   3.078 -0.4200  0.5590  0.6706
 5081TIP3    H215250   3.280   0.070   3.105 -0.5950  0.5830  0.3610
 5082TIP3   OH215251   0.861   2.878   2.231  0.5180  0.5905  0.6114
 5082TIP3    H115252   0.941   2.836   2.199 -0.3357 -0.8693  0.2863
 5082TIP3    H215253   0.818   2.909   2.151  0.5876  1.0743  0.7593
 5083TIP3   OH215254   2.145   4.521   4.632  0.3087 -0.5915  0.4485
 5083TIP3    H115255   2.051   4.504   4.633  0.2961 -0.5879 -0.2833
 5083TIP3    H215256   2.156   4.602   4.681 -0.3029  0.5018 -1.1282
 5084TIP3   OH215257   1.124   3.035   0.479 -0.4973  0.2200 -0.3296
 5084TIP3    H115258   1.057   3.045   0.411  0.3256  2.4395 -0.8879
 5084TIP3    H215259   1.203   3.072   0.441  0.8593 -1.4718  0.6787
 5085TIP3   OH215260   5.009   5.666   1.527  0.2143  0.0992 -0.6458
 5085TIP3    H115261   5.088   5.688   1.576  0.9050 -0.6356 -1.4002
 5085TIP3    H215262   5.038   5.604   1.460 -0.7182  0.9594 -1.9089
 5086TIP3   OH215263   3.570   1.225   0.952 -0.2133 -0.4706  0.4328
 5086TIP3    H115264   3.602   1.315   0.950 -0.1268 -0.5110 -0.0783
 5086TIP3    H215265   3.529   1.216   1.038  0.1168 -0.0608  0.6361
 5087TIP3   OH215266   0.770   1.323   4.455  0.4230 -0.2632  0.0697
 5087TIP3    H115267   0.802   1.375   4.381  0.8533  2.9903  2.3354
 5087TIP3    H215268   0.695   1.275   4.419 -1.0137  3.1253 -2.0219
 5088TIP3   OH215269   2.253   3.295   1.907  0.7121 -0.1086  0.1847
 5088TIP3    H115270   2.180   3.283   1.847 -0.8091  1.7869  1.5178
 5088TIP3    H215271   2.311   3.356   1.861  0.1397  0.4041  0.1167
 5089TIP3   OH215272   5.816   0.331   3.182  0.3297 -0.7776 -0.1401
 5089TIP3    H115273   5.731   0.350   3.221  0.7480 -0.6494  0.7499
 5089TIP3    H215274   5.834   0.240   3.207  0.3069 -0.9101 -0.6016
 5090TIP3   OH215275   5.278   2.991   3.538  0.6897  0.0988  0.0079
 5090TIP3    H115276   5.292   3.074   3.494 -0.1458 -0.2389 -0.9404
 5090TIP3    H215277   5.340   2.931   3.497 -0.4427 -0.3436 -1.1309
 5091TIP3   OH215278   4.286   4.693   3.593  0.6601 -0.3084 -0.1576
 5091TIP3    H115279   4.281   4.692   3.688  2.5660  0.3151 -0.0068
 5091TIP3    H215280   4.274   4.601   3.567 -0.2983 -0.4257  0.6158
 5092TIP3   OH215281   4.990   1.951  -0.016  0.1372 -0.2362  0.0475
 5092TIP3    H115282   4.968   1.929   0.075 -0.1842 -1.4267 -0.3021
 5092TIP3    H215283   4.911   1.994  -0.049 -0.5396 -1.6467 -0.2553
 5093TIP3   OH215284   2.220   2.283   0.225  0.5055 -0.0294  0.2990
 5093TIP3    H115285   2.249   2.192   0.213 -0.6813 -0.4972  0.7943
 5093TIP3    H215286   2.283   2.320   0.288  0.2268 -0.9239  1.1324
 5094TIP3   OH215287   5.515   4.710   1.168  0.5898 -0.3403  0.8952
 5094TIP3    H115288   5.540   4.651   1.239  1.0729  2.9419  3.7084
 5094TIP3    H215289   5.421   4.699   1.158  0.8190 -2.2586  0.5756
 5095TIP3   OH215290   4.743   5.811   0.992  0.1293 -0.1701  0.0075
 5095TIP3    H115291   4.837   5.829   0.991  0.0812  0.1440  0.9455
 5095TIP3    H215292   4.705   5.879   1.047 -0.8784  0.6839 -1.6414
 5096TIP3   OH215293   5.225   4.792   3.296 -0.3516 -0.1566  0.2839
 5096TIP3    H115294   5.131   4.788   3.316 -0.6877 -0.0909 -1.1990
 5096TIP3    H215295   5.268   4.771   3.379 -1.6981 -2.2352  0.5239
 5097TIP3   OH215296   1.313   4.927   1.284 -0.3060 -0.2494 -0.0992
 5097TIP3    H115297   1.284   4.952   1.372  0.7335  0.4628  0.0576
 5097TIP3    H215298   1.315   4.831   1.286 -1.5064 -0.2833  0.2391
 5098TIP3   OH215299   0.135   2.349   3.059  0.4508 -0.2232 -0.5876
 5098TIP3    H115300   0.169   2.377   2.974  2.2017  0.2161  0.2200
 5098TIP3    H215301   0.211   2.346   3.116 -0.7740  0.0450  1.1363
 5099TIP3   OH215302   1.359   2.850   2.445  0.4859  0.0470  0.2926
 5099TIP3    H115303   1.320   2.805   2.519 -0.7542  0.6239  0.0198
 5099TIP3    H215304   1.342   2.943   2.462  0.5690  0.2119 -0.4856
 5100TIP3   OH215305   5.968   5.751   1.995 -0.4458  0.0378 -0.0513
 5100TIP3    H115306   5.961   5.719   1.905  2.3120 -0.5445 -0.1529
 5100TIP3    H215307   5.982   5.673   2.048 -0.1653  0.5361  0.6206
 5101TIP3   OH215308   2.356   0.516   2.635 -0.5042 -0.2008  0.0884
 5101TIP3    H115309   2.403   0.497   2.554 -0.5940 -0.8279  0.1766
 5101TIP3    H215310   2.310   0.598   2.618  0.3854  0.2715 -0.0966
 5102TIP3   OH215311   1.699   1.414   2.605  0.1053 -0.1702  0.2633
 5102TIP3    H115312   1.621   1.387   2.557 -0.0663 -1.1197  1.0465
 5102TIP3    H215313   1.725   1.497   2.564 -3.3256  2.0823  2.2045
 5103TIP3   OH215314   0.736   2.549   3.143 -0.0291  0.1257 -0.3548
 5103TIP3    H115315   0.780   2.567   3.060 -0.8048 -1.7836 -1.2382
 5103TIP3    H215316   0.792   2.485   3.187  0.6003  1.4403  0.8470
 5104TIP3   OH215317   6.284   5.130   2.258  0.2120  0.2217 -0.4219
 5104TIP3    H115318   6.351   5.197   2.275 -1.6094  1.9298  0.4068
 5104TIP3    H215319   6.238   5.163   2.180  0.6748 -1.2553 -1.3640
 5105TIP3   OH215320   3.455   0.352   2.747  0.1752  0.0829 -0.5927
 5105TIP3    H115321   3.393   0.308   2.804 -1.2185  0.2446 -1.8947
 5105TIP3    H215322   3.437   0.446   2.760  0.9735  0.1771 -0.1189
 5106TIP3   OH215323   1.172   1.544   2.284 -0.0295 -0.0875  0.2326
 5106TIP3    H115324   1.238   1.477   2.304  0.0294 -0.1493 -0.1734
 5106TIP3    H215325   1.195   1.575   2.197  0.5395  1.1805  0.8133
 5107TIP3   OH215326   0.034   5.597   0.688 -0.4183 -0.0519 -0.3187
 5107TIP3    H115327   0.102   5.591   0.621  1.0651 -0.6556  1.1919
 5107TIP3    H215328   0.043   5.685   0.723  0.1007 -0.3693  0.3752
 5108TIP3   OH215329   5.345   5.246   2.634 -0.7341 -1.0274  0.6880
 5108TIP3    H115330   5.369   5.282   2.549 -1.8550  1.4986  1.3445
 5108TIP3    H215331   5.252   5.224   2.626 -1.0853  0.0934  1.4991
 5109TIP3   OH215332   4.806   1.152   1.573 -0.0914  0.0562 -0.0911
 5109TIP3    H115333   4.744   1.081   1.582  0.2513 -0.3158 -0.5978
 5109TIP3    H215334   4.757   1.231   1.595 -0.4186 -0.3557  0.6720
 5110TIP3   OH215335   6.177   1.923   2.503  0.0362 -0.2555 -0.1244
 5110TIP3    H115336   6.147   2.008   2.535  2.4506  0.2046  1.1862
 5110TIP3    H215337   6.199   1.874   2.582 -0.4012 -1.7642 -0.8993
 5111TIP3   OH215338   1.177   3.434   4.332  0.3902 -0.0433  0.0765
 5111TIP3    H115339   1.179   3.374   4.406  0.6087  0.1727  0.2454
 5111TIP3    H215340   1.180   3.521   4.371  2.1925  0.0661 -0.2183
 5112TIP3   OH215341   4.326   4.524   1.842 -0.2483  0.1554  0.8335
 5112TIP3    H115342   4.416   4.552   1.825  0.1230 -1.1565  0.4729
 5112TIP3    H215343   4.316   4.529   1.937  0.2315  0.2364  0.8811
 5113TIP3   OH215344   5.182   3.005   0.654  0.1661  0.4267  0.8514
 5113TIP3    H115345   5.253   2.956   0.696  0.6945 -1.4033 -1.9221
 5113TIP3    H215346   5.109   2.942   0.651  0.0344  0.6225 -0.5542
 5114TIP3   OH215347   2.703   3.012   2.568  0.3546  0.1831  0.0393
 5114TIP3    H115348   2.608   3.017   2.583  0.0838  0.8077 -1.6870
 5114TIP3    H215349   2.716   2.928   2.524  0.4606  0.5238 -0.5906
 5115TIP3   OH215350   2.745   1.407   2.690  0.2522  0.6311  0.0595
 5115TIP3    H115351   2.675   1.414   2.625  2.3236 -0.5917 -2.5090
 5115TIP3    H215352   2.741   1.317   2.720  0.9347  0.4233 -0.4361
 5116TIP3   OH215353   0.596   2.474   4.771 -1.1603  0.9439 -0.0486
 5116TIP3    H115354   0.684   2.440   4.759 -0.8721  1.8947 -0.7871
 5116TIP3    H215355   0.541   2.417   4.716 -0.7123  1.5079 -1.1240
 5117TIP3   OH215356   5.000   0.033   1.155 -0.0681  0.2982  0.0157
 5117TIP3    H115357   4.965   0.034   1.066 -0.6779 -0.0377  0.2440
 5117TIP3    H215358   5.076   0.091   1.152 -0.7020  1.1174 -0.4779
 5118TIP3   OH215359   0.659   5.340   2.181  0.2900 -0.2744 -0.4553
 5118TIP3    H115360   0.705   5.380   2.254  1.6455 -1.1832 -0.7793
 5118TIP3    H215361   0.571   5.377   2.185  0.1601 -0.7112  1.9592
 5119TIP3   OH215362   1.148   4.663   3.236 -0.1755 -0.3629  0.3885
 5119TIP3    H115363   1.084   4.714   3.287  0.7922  0.3372  0.9196
 5119TIP3    H215364   1.176   4.723   3.168 -0.8335 -1.0205 -0.4852
 5120TIP3   OH215365   0.684   2.286   4.028 -0.0024  0.6047  0.3085
 5120TIP3    H115366   0.707   2.377   4.010 -0.8158  0.6764 -0.4155
 5120TIP3    H215367   0.591   2.279   4.007  0.4304 -0.8176 -1.3744
 5121TIP3   OH215368   4.856   5.190   2.333  0.2997  0.7842 -0.1797
 5121TIP3    H115369   4.942   5.167   2.297 -0.6352 -0.3046 -1.8564
 5121TIP3    H215370   4.807   5.108   2.332 -0.0933  0.8735  2.9057
 5122TIP3   OH215371   2.502   4.271   3.208  0.1387 -0.4599  0.2596
 5122TIP3    H115372   2.481   4.360   3.236  1.2366 -0.1449  0.1612
 5122TIP3    H215373   2.424   4.241   3.161  0.2990  1.0311 -1.0526
 5123TIP3   OH215374   2.408   1.765   1.450 -0.3074 -0.3677  0.0127
 5123TIP3    H115375   2.408   1.824   1.525  1.6531  0.8529 -0.8551
 5123TIP3    H215376   2.326   1.784   1.405 -1.0382 -0.3963  1.2844
 5124TIP3   OH215377   0.571   4.434   5.206  0.4142  0.0779  0.3010
 5124TIP3    H115378   0.611   4.467   5.125  1.7786  1.1158  1.3481
 5124TIP3    H215379   0.581   4.339   5.199 -1.7549 -0.0910 -1.8403
 5125TIP3   OH215380   0.751   5.134   1.761 -0.3279  0.4820  0.3151
 5125TIP3    H115381   0.837   5.153   1.724 -0.5794  1.8502  0.3883
 5125TIP3    H215382   0.689   5.170   1.697 -0.8600 -0.7351  0.1245
 5126TIP3   OH215383   4.436   0.433   4.886 -0.0239  0.0847  0.3710
 5126TIP3    H115384   4.500   0.370   4.920  0.1673 -0.6246 -1.2124
 5126TIP3    H215385   4.476   0.467   4.806 -0.9834  0.7723  0.1669
 5127TIP3   OH215386   0.632   2.350   0.189 -0.2480  0.0189  0.3452
 5127TIP3    H115387   0.593   2.379   0.106  0.3924  0.9619  0.3601
 5127TIP3    H215388   0.722   2.326   0.166 -0.3506 -0.6268  0.6010
 5128TIP3   OH215389   0.047   2.855   0.361 -0.0956  0.0202 -0.1565
 5128TIP3    H115390  -0.044   2.849   0.389 -0.1765 -1.0975 -0.6100
 5128TIP3    H215391   0.065   2.949   0.358 -1.3455  0.2677 -0.4284
 5129TIP3   OH215392   2.919   1.984   1.659  0.7781 -0.4076 -0.1300
 5129TIP3    H115393   2.917   2.078   1.642 -0.3389 -0.2693  0.6390
 5129TIP3    H215394   2.946   1.945   1.576 -1.1289  0.4567 -1.2385
 5130TIP3   OH215395   2.553   2.146   1.628  0.0579 -0.7149 -0.4358
 5130TIP3    H115396   2.620   2.193   1.579  0.5642 -0.2263  0.6802
 5130TIP3    H215397   2.581   2.054   1.626 -0.3188 -0.8218 -1.6473
 5131TIP3   OH215398   2.167   1.004   3.787  0.5145 -0.3994  0.4153
 5131TIP3    H115399   2.247   1.055   3.802  0.1183 -0.2592  2.2067
 5131TIP3    H215400   2.149   0.961   3.870 -2.6706  1.5659  0.9045
 5132TIP3   OH215401   2.010   2.048   3.274 -0.1770 -0.1538 -0.0614
 5132TIP3    H115402   2.045   2.134   3.252 -0.3212 -0.0012  0.3074
 5132TIP3    H215403   2.070   2.014   3.340 -0.9369  0.2724  0.8639
 5133TIP3   OH215404   3.768   0.955   4.590 -0.3720 -0.7398 -0.1359
 5133TIP3    H115405   3.716   0.952   4.509 -0.8186 -1.0605  0.1541
 5133TIP3    H215406   3.707   0.924   4.657 -0.0496 -0.3280  0.3452
 5134TIP3   OH215407   1.779   2.329   3.231  0.0592 -0.4157  0.3816
 5134TIP3    H115408   1.778   2.414   3.188  1.2327 -0.2598  0.6418
 5134TIP3    H215409   1.866   2.294   3.213  1.0888  0.1859  3.5719
 5135TIP3   OH215410   4.205   1.615   3.308 -0.5546  0.9181  0.3550
 5135TIP3    H115411   4.190   1.528   3.344 -1.7122  1.5738  1.5871
 5135TIP3    H215412   4.165   1.614   3.222  0.2192 -0.0047 -0.0137
 5136TIP3   OH215413   1.813   5.871   3.775  0.2400 -0.3100 -0.5213
 5136TIP3    H115414   1.808   5.865   3.680 -1.9022  0.8587 -0.5665
 5136TIP3    H215415   1.772   5.791   3.807 -0.9921  0.2448 -0.6509
 5137TIP3   OH215416   0.465   0.900   3.059  0.5864 -0.1526  0.4138
 5137TIP3    H115417   0.378   0.868   3.085 -0.6403  1.4870 -1.3365
 5137TIP3    H215418   0.450   0.943   2.975  2.9236  1.0730  0.5441
 5138TIP3   OH215419   4.219   5.037   2.781 -0.0884 -0.4710 -0.0333
 5138TIP3    H115420   4.202   5.090   2.703  2.0668 -1.0205 -0.9508
 5138TIP3    H215421   4.207   4.947   2.752 -3.0845 -0.6495  1.3564
 5139TIP3   OH215422   2.208   1.800   4.431  0.1918  0.4594 -0.6251
 5139TIP3    H115423   2.150   1.732   4.466  0.6524 -0.0749 -0.8971
 5139TIP3    H215424   2.149   1.872   4.410 -0.5564 -0.4995 -1.9700
 5140TIP3   OH215425   5.027   3.170   3.184  0.2573 -0.7164 -0.3245
 5140TIP3    H115426   5.110   3.186   3.230  0.3595 -1.6678 -0.1707
 5140TIP3    H215427   4.994   3.258   3.164  1.1432 -0.3201 -0.1031
 5141TIP3   OH215428   5.683   3.663   2.223  0.1873  0.3149 -0.4564
 5141TIP3    H115429   5.744   3.704   2.162 -0.4264  0.7877 -0.7565
 5141TIP3    H215430   5.732   3.588   2.257  0.0573 -0.8569 -2.6380
 5142TIP3   OH215431   5.614   1.557   2.214 -0.1847  0.1484 -0.2913
 5142TIP3    H115432   5.682   1.544   2.280  0.3991  3.5395 -0.0008
 5142TIP3    H215433   5.572   1.640   2.240 -2.8814 -0.6313 -1.7790
 5143TIP3   OH215434   5.687   5.442   2.288  0.2211 -0.0626  0.3767
 5143TIP3    H115435   5.716   5.398   2.368  1.1633 -1.9181 -0.9152
 5143TIP3    H215436   5.682   5.373   2.223 -1.1576  1.2837 -1.0505
 5144TIP3   OH215437   5.768   4.971   3.911 -0.0883  0.0998 -0.2721
 5144TIP3    H115438   5.785   4.923   3.830 -1.1203  1.5125 -1.3682
 5144TIP3    H215439   5.778   5.063   3.887  0.7212  0.5165  1.4970
 5145TIP3   OH215440   6.069   5.215   2.746 -0.3071 -0.1594  0.3120
 5145TIP3    H115441   6.055   5.124   2.772 -1.4071  0.0902  0.6411
 5145TIP3    H215442   6.069   5.213   2.650 -2.7073 -0.2159  0.2427
 5146TIP3   OH215443   3.538   2.032   3.730  0.1350 -0.2639  0.5365
 5146TIP3    H115444   3.444   2.020   3.743 -0.3172  2.0499 -0.0924
 5146TIP3    H215445   3.563   1.965   3.667 -1.2285 -0.5422  0.2736
 5147TIP3   OH215446   0.629   2.646   0.512  0.1958 -0.2031 -0.3012
 5147TIP3    H115447   0.550   2.596   0.494 -0.4885  0.1932  1.4844
 5147TIP3    H215448   0.623   2.669   0.604  0.4680  3.1982 -1.0122
 5148TIP3   OH215449   2.572   1.029   1.776  0.0165  0.3724 -0.0185
 5148TIP3    H115450   2.648   1.087   1.766  0.2730 -0.2087 -1.8130
 5148TIP3    H215451   2.500   1.088   1.798  0.8179  1.0186  0.9888
 5149TIP3   OH215452   3.627   2.009   1.962  0.3978 -0.1641 -0.2578
 5149TIP3    H115453   3.703   1.955   1.940  1.5789  0.0985  2.6266
 5149TIP3    H215454   3.565   1.948   2.002 -0.1143 -0.0651 -0.8902
 5150TIP3   OH215455   6.299   5.920   3.481 -0.1162  0.1128  0.2059
 5150TIP3    H115456   6.271   6.010   3.461  1.6022  0.5551 -0.3723
 5150TIP3    H215457   6.269   5.869   3.406  0.2380  0.5010 -0.2104
 5151TIP3   OH215458   4.583   0.652   3.755  0.7057  0.7004 -0.2562
 5151TIP3    H115459   4.492   0.657   3.725  1.2013 -0.5831 -2.1632
 5151TIP3    H215460   4.631   0.706   3.692  1.2865  1.4965  0.8283
 5152TIP3   OH215461   5.592   1.639   1.778  0.8683  0.0594 -0.0425
 5152TIP3    H115462   5.561   1.691   1.704  0.4920  0.8069  0.6276
 5152TIP3    H215463   5.664   1.690   1.816  1.1780 -0.4026  0.0002
 5153TIP3   OH215464   0.180   1.690   2.486 -0.5602  0.0337 -0.4128
 5153TIP3    H115465   0.274   1.703   2.497 -0.9398  2.5426  0.7110
 5153TIP3    H215466   0.159   1.736   2.404 -0.6843 -1.5797 -1.3348
 5154TIP3   OH215467   4.390   2.810   0.886  0.8237 -0.8029 -0.2803
 5154TIP3    H115468   4.464   2.871   0.881  0.3452 -0.3075 -2.9417
 5154TIP3    H215469   4.422   2.738   0.941  2.6506  0.2108  0.0686
 5155TIP3   OH215470   2.918   1.170   2.656 -0.3195  0.2597  0.1219
 5155TIP3    H115471   2.956   1.208   2.577 -0.5424 -1.2425 -0.7421
 5155TIP3    H215472   2.851   1.110   2.624  0.1326 -0.9971  1.4115
 5156TIP3   OH215473   4.340   4.520   4.167  0.1990 -0.1141 -0.1465
 5156TIP3    H115474   4.401   4.534   4.239 -1.2213 -0.2783  1.1314
 5156TIP3    H215475   4.354   4.429   4.142  0.9714  0.0541 -0.3616
 5157TIP3   OH215476   5.987   4.197   2.567  0.0546  0.1346 -0.0623
 5157TIP3    H115477   6.041   4.274   2.583 -0.1558  0.4324 -0.7767
 5157TIP3    H215478   5.955   4.208   2.478  0.3723 -0.9899 -0.3302
 5158TIP3   OH215479   4.217   3.417   0.895  0.2319 -0.0081  0.1224
 5158TIP3    H115480   4.236   3.324   0.884  0.1662  0.0319 -0.3584
 5158TIP3    H215481   4.262   3.442   0.976  0.4112 -0.4089  0.1471
 5159TIP3   OH215482   5.739   5.949   3.810 -0.4488  0.6195 -0.2195
 5159TIP3    H115483   5.716   5.882   3.875 -0.0651  0.7253  0.0306
 5159TIP3    H215484   5.672   5.942   3.743  0.0302 -0.5785 -0.6037
 5160TIP3   OH215485   4.554   4.088   5.148 -0.1257  0.3080 -0.5754
 5160TIP3    H115486   4.563   4.049   5.062  0.2293 -1.2170  0.1327
 5160TIP3    H215487   4.545   4.014   5.208  1.8690  1.2118  0.9780
 5161TIP3   OH215488   3.781   0.425   2.521 -0.4600 -0.5618  0.1572
 5161TIP3    H115489   3.707   0.369   2.495  0.2980 -2.1465  1.2424
 5161TIP3    H215490   3.852   0.399   2.462 -0.6299  0.6735 -0.6202
 5162TIP3   OH215491  -0.016   1.968   1.599  1.1180  0.1222  0.0881
 5162TIP3    H115492  -0.011   1.902   1.530  0.7817 -0.0334  0.2089
 5162TIP3    H215493   0.067   1.960   1.646  0.9339 -0.4718  0.3273
 5163TIP3   OH215494   1.778   5.760   1.571 -0.7653 -0.1698  0.2908
 5163TIP3    H115495   1.776   5.741   1.665 -2.0711 -0.8094  0.1564
 5163TIP3    H215496   1.808   5.678   1.531  0.2380  0.2472  0.1710
 5164TIP3   OH215497   2.802   4.188   1.751  0.8259 -0.7855  0.6184
 5164TIP3    H115498   2.710   4.165   1.757  0.3288  0.1450 -2.2188
 5164TIP3    H215499   2.816   4.250   1.822  0.0466 -2.9931  2.8541
 5165TIP3   OH215500   3.059   5.962   2.142  0.3209 -0.0190  0.0834
 5165TIP3    H115501   2.969   5.930   2.133  0.4349  0.2151 -2.4152
 5165TIP3    H215502   3.054   6.025   2.214 -1.3462 -0.5195  0.4573
 5166TIP3   OH215503   0.302   3.637   4.301  0.3667  0.2289 -0.2841
 5166TIP3    H115504   0.372   3.588   4.257 -0.3157  0.4852 -1.7316
 5166TIP3    H215505   0.348   3.704   4.351  1.2203 -0.6167  0.1106
 5167TIP3   OH215506   1.797   5.292   4.788 -1.0960  0.0082  0.3877
 5167TIP3    H115507   1.778   5.339   4.707 -0.5589 -1.0909 -0.3868
 5167TIP3    H215508   1.761   5.204   4.774  0.9430 -0.8796  0.4555
 5168TIP3   OH215509   4.254   4.281   2.726 -0.9964 -0.6196 -0.1953
 5168TIP3    H115510   4.291   4.217   2.666 -0.4485  0.3864 -0.9779
 5168TIP3    H215511   4.316   4.283   2.799  0.6813  1.1229 -1.5380
 5169TIP3   OH215512   6.286   2.712   1.986  0.3809 -0.0696 -0.1506
 5169TIP3    H115513   6.299   2.801   1.952 -1.5894 -0.2521 -1.5776
 5169TIP3    H215514   6.335   2.656   1.925  0.6283 -0.0680  0.0434
 5170TIP3   OH215515   0.690   0.239   0.666 -0.0802 -0.2316 -0.1240
 5170TIP3    H115516   0.712   0.324   0.628 -0.4487 -0.1070 -0.0663
 5170TIP3    H215517   0.600   0.250   0.698 -0.6162 -1.0210 -1.2558
 5171TIP3   OH215518   3.934   4.346   1.989  0.5418 -0.0928 -0.2068
 5171TIP3    H115519   3.916   4.268   1.937 -0.0950 -0.5494  0.6745
 5171TIP3    H215520   4.000   4.317   2.053  2.3014  0.7982 -1.5284
 5172TIP3   OH215521   2.975   1.559   4.150  0.0042 -0.0899 -0.2341
 5172TIP3    H115522   3.044   1.623   4.169 -0.3541  0.3638 -0.4418
 5172TIP3    H215523   2.959   1.569   4.056  0.3013 -0.8488 -0.3748
 5173TIP3   OH215524   2.195   5.177   3.345 -0.1954  0.5274 -0.1476
 5173TIP3    H115525   2.232   5.227   3.418 -1.0466  1.4196 -0.3032
 5173TIP3    H215526   2.222   5.226   3.267  1.5379 -0.9421 -0.5480
 5174TIP3   OH215527   5.892   5.227   0.530  0.1133  0.5562  0.2618
 5174TIP3    H115528   5.944   5.234   0.611 -0.5562 -1.1807  0.8786
 5174TIP3    H215529   5.880   5.133   0.517 -2.1062  0.8854 -0.3713
 5175TIP3   OH215530   4.461   3.642   4.025  0.8886  0.5408 -0.4240
 5175TIP3    H115531   4.366   3.639   4.021  0.7750  0.5118  1.4896
 5175TIP3    H215532   4.488   3.670   3.938 -0.9694  2.7502 -0.3842
 5176TIP3   OH215533   6.146   5.401   1.477  0.3809  0.4505 -0.8097
 5176TIP3    H115534   6.133   5.377   1.385 -0.4417  0.1938 -0.6360
 5176TIP3    H215535   6.058   5.419   1.509  0.6015  0.0033  0.0708
 5177TIP3   OH215536   4.698   2.212   0.457  0.6083 -0.4191 -0.6142
 5177TIP3    H115537   4.742   2.197   0.373  0.6232 -0.1078 -0.6632
 5177TIP3    H215538   4.606   2.227   0.433  0.6799  0.0327 -0.6055
 5178TIP3   OH215539   3.899   2.955   3.661  0.2143  0.2408 -0.0161
 5178TIP3    H115540   3.860   2.868   3.664  0.3030 -0.0221 -3.4439
 5178TIP3    H215541   3.931   2.965   3.572 -1.9684  4.6983 -0.6208
 5179TIP3   OH215542   0.157   5.745   2.505  0.5821  0.5821  0.0193
 5179TIP3    H115543   0.207   5.778   2.580  0.9901  0.1417 -0.0559
 5179TIP3    H215544   0.212   5.676   2.468  0.8313  1.4438 -1.2800
 5180TIP3   OH215545   4.806   2.958   2.034  0.1664  0.2112 -0.3078
 5180TIP3    H115546   4.760   3.037   2.007 -2.8143 -0.4935  2.1762
 5180TIP3    H215547   4.803   2.901   1.957  0.6779  1.7595 -1.5161
 5181TIP3   OH215548   4.998   0.693   1.707  0.0571 -0.3206 -0.3599
 5181TIP3    H115549   4.990   0.767   1.647 -0.0173 -1.1043 -1.3479
 5181TIP3    H215550   4.937   0.628   1.673 -0.4121 -0.5657  0.9212
 5182TIP3   OH215551   1.025   5.754   1.068  0.2878  0.0193 -0.2781
 5182TIP3    H115552   0.988   5.841   1.051  1.6902  0.6106 -0.5244
 5182TIP3    H215553   0.996   5.701   0.994 -0.5083  0.2985 -0.1756
 5183TIP3   OH215554   2.221   3.113   2.998 -0.3289  0.2537  0.2525
 5183TIP3    H115555   2.167   3.165   3.058  0.0063  1.3300 -0.3452
 5183TIP3    H215556   2.194   3.023   3.014  0.7192  0.3511  2.9982
 5184TIP3   OH215557   0.182   4.092   4.995 -0.2931 -0.5809 -0.4076
 5184TIP3    H115558   0.250   4.056   4.939 -0.4040 -0.7842 -0.4132
 5184TIP3    H215559   0.177   4.184   4.971 -0.6099 -0.7515 -1.0059
 5185TIP3   OH215560   0.460   5.861   5.212  1.1293  0.4436 -0.0179
 5185TIP3    H115561   0.522   5.890   5.145  0.0040 -0.2189 -1.4058
 5185TIP3    H215562   0.422   5.781   5.177 -0.0745  0.4987  1.0537
 5186TIP3   OH215563   5.297   4.744   1.813 -0.1793 -0.3455  0.3695
 5186TIP3    H115564   5.318   4.749   1.906 -1.5957  0.7148  0.6609
 5186TIP3    H215565   5.292   4.835   1.784  0.3409 -0.6671 -0.7798
 5187TIP3   OH215566   4.211   0.058   2.503 -0.0598 -0.0712 -0.0502
 5187TIP3    H115567   4.117   0.077   2.500 -0.2456 -0.9294 -0.0832
 5187TIP3    H215568   4.228   0.033   2.594 -0.1072 -1.0109 -0.2837
 5188TIP3   OH215569   2.644   5.458   0.580 -0.1954 -0.4349  0.3654
 5188TIP3    H115570   2.581   5.440   0.510 -0.7722 -1.8709  1.1932
 5188TIP3    H215571   2.596   5.438   0.660  0.9782 -0.4650  1.0840
 5189TIP3   OH215572   3.021   1.729   4.522  0.1759  0.6501  0.4159
 5189TIP3    H115573   2.938   1.696   4.486  0.0334  1.0517  0.3758
 5189TIP3    H215574   3.033   1.814   4.481  1.9663 -0.5088 -1.6642
 5190TIP3   OH215575   3.697   1.949   4.265  0.7098 -0.0521 -0.2294
 5190TIP3    H115576   3.738   2.032   4.240  0.4036  0.0220 -0.5009
 5190TIP3    H215577   3.648   1.970   4.344  2.9638 -0.6561  1.4134
 5191TIP3   OH215578   1.269   0.146   3.560 -0.2762 -0.4678  0.2191
 5191TIP3    H115579   1.216   0.220   3.530 -0.5723 -1.0289 -0.6466
 5191TIP3    H215580   1.282   0.163   3.654 -0.5832  0.5273  0.0939
 5192TIP3   OH215581   1.912   0.866   0.446  0.1438 -0.3563 -0.2636
 5192TIP3    H115582   1.868   0.934   0.395 -0.0525 -1.6431 -1.8894
 5192TIP3    H215583   1.874   0.874   0.534 -1.1024  0.5364 -0.8439
 5193TIP3   OH215584   5.776   3.139   4.147  0.2798 -0.4539 -0.0656
 5193TIP3    H115585   5.695   3.187   4.161  0.5340  0.2270 -0.8620
 5193TIP3    H215586   5.764   3.057   4.195 -1.0236 -0.5276 -0.4825
 5194TIP3   OH215587   4.233   0.540   1.375 -0.0060 -0.7122  0.2109
 5194TIP3    H115588   4.227   0.503   1.462  1.8912 -0.2319  0.6060
 5194TIP3    H215589   4.319   0.582   1.373  0.0180 -0.7412 -1.9000
 5195TIP3   OH215590   2.054   0.936   0.853  0.5259  0.2696 -0.0467
 5195TIP3    H115591   2.048   0.947   0.759 -0.9137  1.5328  0.1501
 5195TIP3    H215592   2.102   1.012   0.884  0.4093  0.2107  0.2921
 5196TIP3   OH215593   1.943   2.384   2.754 -0.1031  1.0857 -0.3710
 5196TIP3    H115594   1.916   2.292   2.748 -1.0526  1.3419 -0.0703
 5196TIP3    H215595   2.036   2.382   2.731  0.0846 -0.0670  0.3734
 5197TIP3   OH215596   4.038   4.631   3.859  0.0424 -0.3511 -0.4086
 5197TIP3    H115597   4.058   4.590   3.944  1.5375  0.7805 -0.1936
 5197TIP3    H215598   4.069   4.721   3.867 -0.7982  0.0948 -1.7935
 5198TIP3   OH215599   3.243   3.446   0.430 -0.8005 -0.2336  0.2389
 5198TIP3    H115600   3.307   3.401   0.375 -1.3746  0.3996 -0.9677
 5198TIP3    H215601   3.286   3.527   0.456 -1.0269  0.1007 -0.4104
 5199TIP3   OH215602   5.236   0.328   2.167  0.5752 -0.5439 -0.1158
 5199TIP3    H115603   5.173   0.270   2.210 -0.2824 -0.5810 -1.3572
 5199TIP3    H215604   5.208   0.416   2.190  0.0604 -0.5614 -0.6481
 5200TIP3   OH215605   0.482   2.359   2.841 -0.3740  0.2521 -0.1551
 5200TIP3    H115606   0.485   2.302   2.764 -0.3637 -0.6507  0.5057
 5200TIP3    H215607   0.435   2.309   2.907  1.6398  0.0456  1.2131
 5201TIP3   OH215608   1.889   3.039   0.382  0.0366  0.3049 -0.6516
 5201TIP3    H115609   1.951   3.044   0.454  0.7713 -1.1774 -1.1420
 5201TIP3    H215610   1.919   3.106   0.320  0.6427  0.1715 -0.5083
 5202TIP3   OH215611   0.098   4.621   2.796 -0.7559 -0.2506  0.4036
 5202TIP3    H115612   0.014   4.575   2.797 -0.1599 -1.4599 -1.2031
 5202TIP3    H215613   0.076   4.710   2.771 -1.6259 -0.3612  0.7336
 5203TIP3   OH215614   2.628   4.992   4.398  0.3624 -0.0534  0.5751
 5203TIP3    H115615   2.629   4.970   4.305  0.6836  2.2680 -0.0246
 5203TIP3    H215616   2.714   4.964   4.430  0.5673 -0.1177 -0.0198
 5204TIP3   OH215617   5.573   3.393   1.596  0.2962 -0.5033 -0.0906
 5204TIP3    H115618   5.590   3.452   1.670 -0.4951  1.7328 -1.5754
 5204TIP3    H215619   5.482   3.367   1.607 -0.3755  1.2175 -1.0906
 5205TIP3   OH215620   0.268   3.975   0.830  0.1098  0.2547 -0.6973
 5205TIP3    H115621   0.356   3.972   0.793  0.6295  0.8413  0.4542
 5205TIP3    H215622   0.273   3.923   0.910 -1.0131 -1.0428 -1.4174
 5206TIP3   OH215623   1.851   1.121   2.586 -0.0523  0.2422 -0.4604
 5206TIP3    H115624   1.841   1.181   2.661  0.0924  0.0381 -0.2769
 5206TIP3    H215625   1.799   1.162   2.516  1.9422  1.8240 -1.0956
 5207TIP3   OH215626   4.268   5.245   0.525  0.3515 -0.8146  0.0620
 5207TIP3    H115627   4.232   5.157   0.529  1.1516 -1.1315  0.6279
 5207TIP3    H215628   4.345   5.242   0.582  1.5516 -0.3119 -1.4535
 5208TIP3   OH215629   5.636   1.230   1.601  0.3605 -0.0177  0.6009
 5208TIP3    H115630   5.700   1.275   1.656  0.0741  2.3235 -0.8367
 5208TIP3    H215631   5.686   1.162   1.556  1.2255  0.0080  1.4975
 5209TIP3   OH215632   0.420   4.254   0.906 -0.2853 -0.1706 -0.3109
 5209TIP3    H115633   0.403   4.227   0.816 -1.8776  2.2979 -0.8180
 5209TIP3    H215634   0.377   4.187   0.959  1.2406 -2.0290 -1.2856
 5210TIP3   OH215635   4.867   2.455   1.105 -0.4946  0.0287  0.0461
 5210TIP3    H115636   4.785   2.475   1.151 -1.2899 -1.5070 -0.6303
 5210TIP3    H215637   4.869   2.359   1.099  0.0762  0.1141 -2.1989
 5211TIP3   OH215638   1.261   1.812   1.670 -0.0271 -0.6177  0.2601
 5211TIP3    H115639   1.284   1.881   1.608  1.5556 -0.1002  1.3695
 5211TIP3    H215640   1.266   1.731   1.619  1.7207 -0.2538 -0.2027
 5212TIP3   OH215641   4.823   1.129   0.690  0.0849  0.1851  0.7094
 5212TIP3    H115642   4.871   1.085   0.760  1.7432  0.3620 -0.2712
 5212TIP3    H215643   4.782   1.204   0.733  0.9805  0.2284  1.5208
 5213TIP3   OH215644   2.988   5.972   4.330  0.3646  0.0874 -0.5907
 5213TIP3    H115645   3.084   5.970   4.325  0.3243 -2.1500 -1.7480
 5213TIP3    H215646   2.959   5.964   4.240 -0.9770  2.0882 -0.3829
 5214TIP3   OH215647   4.477   0.813   2.487 -0.0740  0.0979 -0.0632
 5214TIP3    H115648   4.564   0.830   2.523  0.7377  0.3432 -2.0367
 5214TIP3    H215649   4.436   0.754   2.551  1.7310 -0.4650  0.6397
 5215TIP3   OH215650   5.582   5.861   1.191  0.0903  0.2091 -0.2398
 5215TIP3    H115651   5.531   5.888   1.115 -0.1235  1.2157  0.2417
 5215TIP3    H215652   5.671   5.852   1.158 -0.2196 -0.6297 -0.8791
 5216TIP3   OH215653   3.309   4.225   1.164  0.1163  0.0839 -0.4726
 5216TIP3    H115654   3.331   4.197   1.076 -0.7870  0.1875 -0.7390
 5216TIP3    H215655   3.275   4.146   1.207 -2.6569  0.7395 -1.2977
 5217TIP3   OH215656   4.411   0.405   3.270 -0.0062 -0.1321  0.2671
 5217TIP3    H115657   4.391   0.312   3.281 -1.0192  0.2866  2.4002
 5217TIP3    H215658   4.326   0.449   3.279  0.5172  1.0473 -0.2913
 5218TIP3   OH215659   3.594   2.260   0.827 -0.8137  0.3586 -0.1571
 5218TIP3    H115660   3.620   2.168   0.819  0.9454  0.6760  1.3040
 5218TIP3    H215661   3.525   2.260   0.893  0.1496  0.2084  0.8771
 5219TIP3   OH215662   4.152   1.632   2.577  0.0949  0.6210  0.6681
 5219TIP3    H115663   4.193   1.565   2.631  0.9837  1.2226  0.7610
 5219TIP3    H215664   4.136   1.705   2.637 -0.5880  0.6096  0.5069
 5220TIP3   OH215665   0.778   5.541   3.793 -0.9549  0.6144  0.0029
 5220TIP3    H115666   0.733   5.461   3.768 -1.5848  1.3730 -1.3617
 5220TIP3    H215667   0.842   5.556   3.723 -1.9871  2.1768 -0.6517
 5221TIP3   OH215668   1.420   0.102   0.499  0.3256 -0.0096 -0.9656
 5221TIP3    H115669   1.338   0.150   0.488  1.0855  1.6213  0.1679
 5221TIP3    H215670   1.488   0.166   0.478  1.3844 -0.4746  0.9102
 5222TIP3   OH215671   6.353   2.857   1.060  0.6851  0.2084 -0.3343
 5222TIP3    H115672   6.291   2.887   1.127  1.1583  1.1286 -0.2983
 5222TIP3    H215673   6.305   2.864   0.978  0.3318 -0.2669 -0.1732
 5223TIP3   OH215674   3.286   3.078   2.542  0.0773  0.6370  0.2973
 5223TIP3    H115675   3.275   3.062   2.449 -1.1707 -0.5435  0.6178
 5223TIP3    H215676   3.324   3.166   2.547  0.0363  0.7679 -1.3043
 5224TIP3   OH215677   3.655   3.202   4.251  0.5482  0.8554 -0.1279
 5224TIP3    H115678   3.583   3.248   4.209 -0.5648  1.0390  1.8778
 5224TIP3    H215679   3.616   3.120   4.282  1.4422  0.5209  0.1488
 5225TIP3   OH215680   5.888   3.785   2.109 -0.5071  0.1350 -1.1059
 5225TIP3    H115681   5.974   3.769   2.150 -1.2826 -0.3120  0.4121
 5225TIP3    H215682   5.908   3.841   2.034  0.9556  1.3672  0.1296
 5226TIP3   OH215683   5.954   4.946   1.720 -0.3249  0.1804  0.2478
 5226TIP3    H115684   6.040   4.979   1.695 -0.5828  0.3671 -0.4379
 5226TIP3    H215685   5.970   4.889   1.795  0.2677  0.9908  0.7451
 5227TIP3   OH215686   3.658   1.636   3.816  0.5584  0.6084 -0.2541
 5227TIP3    H115687   3.675   1.548   3.781  1.2484  0.7244 -0.2181
 5227TIP3    H215688   3.726   1.691   3.777  1.1184  0.8163  0.9593
 5228TIP3   OH215689   0.378   0.420   1.374  0.0824  0.4019  0.3645
 5228TIP3    H115690   0.455   0.367   1.394  0.4882 -0.4090 -2.8756
 5228TIP3    H215691   0.321   0.408   1.450  0.7899 -3.5212  0.4793
 5229TIP3   OH215692   1.041   3.407   4.088  0.0167 -0.3423  0.8397
 5229TIP3    H115693   1.099   3.352   4.034  0.4011 -0.0036  0.9027
 5229TIP3    H215694   1.083   3.408   4.174  0.5636  0.8833  0.5727
 5230TIP3   OH215695   6.170   4.176   2.281 -0.1064  0.0340  0.5068
 5230TIP3    H115696   6.192   4.084   2.290  0.1184  0.1435  1.1365
 5230TIP3    H215697   6.242   4.223   2.322  0.2815  0.5398 -0.6990
 5231TIP3   OH215698   5.130   4.101   4.488  0.1610  0.1517  0.1982
 5231TIP3    H115699   5.162   4.090   4.398  0.5365 -0.1205  0.3625
 5231TIP3    H215700   5.187   4.169   4.525 -0.5609  0.9099 -0.0393
 5232TIP3   OH215701   3.851   4.048   3.449 -0.2177 -0.0373 -0.5646
 5232TIP3    H115702   3.941   4.030   3.421 -0.2965 -0.2947 -0.6558
 5232TIP3    H215703   3.833   4.136   3.417  1.3975  1.7771  2.8549
 5233TIP3   OH215704   1.092   5.104   4.480 -0.3519 -0.1889  0.0264
 5233TIP3    H115705   1.066   5.175   4.421 -0.4558 -0.1338  0.1364
 5233TIP3    H215706   1.114   5.149   4.562 -0.4027 -0.2824  0.0907
 5234TIP3   OH215707   1.195   1.081   1.806 -0.0210  0.8628 -0.4307
 5234TIP3    H115708   1.221   1.050   1.893  0.3338  0.5241 -0.6555
 5234TIP3    H215709   1.101   1.099   1.814 -0.1710  0.0248 -0.2072
 5235TIP3   OH215710   4.886   0.978   0.915 -0.4943  0.4221 -0.3821
 5235TIP3    H115711   4.954   1.038   0.945 -1.4177  1.3448 -0.0804
 5235TIP3    H215712   4.892   0.903   0.975  0.1440  0.5622 -0.2641
 5236TIP3   OH215713   6.292   5.855   3.830  0.0152  0.0300 -0.2776
 5236TIP3    H115714   6.356   5.822   3.768  0.3973  0.4058 -0.0918
 5236TIP3    H215715   6.274   5.781   3.888 -0.6829 -0.4599 -1.0959
 5237TIP3   OH215716   3.119   3.115   1.327  0.0696 -0.2224  0.2400
 5237TIP3    H115717   3.050   3.087   1.268 -0.2014 -1.3900  1.0709
 5237TIP3    H215718   3.080   3.111   1.414  1.5037 -2.2066  0.8788
 5238TIP3   OH215719   1.903   3.093   2.846 -0.1788 -0.6273  0.0375
 5238TIP3    H115720   1.822   3.079   2.797  0.1808 -0.0996 -0.7178
 5238TIP3    H215721   1.921   3.186   2.837  0.2736 -0.6604  0.5794
 5239TIP3   OH215722   6.305   3.466   3.383  0.5577 -0.5764  0.4671
 5239TIP3    H115723   6.294   3.541   3.325  0.4797 -1.1858 -0.3120
 5239TIP3    H215724   6.244   3.483   3.455  1.8489  1.0008  1.2476
 5240TIP3   OH215725   3.205   2.478   4.553  0.2791  0.2748 -0.5199
 5240TIP3    H115726   3.154   2.434   4.621  0.3859 -1.0234 -1.2448
 5240TIP3    H215727   3.151   2.471   4.474  1.3325 -0.6690 -1.1815
 5241TIP3   OH215728   3.982   3.798   2.938 -0.0160  0.1338  0.5256
 5241TIP3    H115729   3.965   3.889   2.963 -0.0740 -0.3239  2.2724
 5241TIP3    H215730   3.903   3.751   2.967  0.5011 -0.6490  0.6770
 5242TIP3   OH215731   6.184   1.258   1.955  0.7328  0.2724  0.6834
 5242TIP3    H115732   6.132   1.328   1.915  0.5264  0.0734  0.6026
 5242TIP3    H215733   6.170   1.269   2.049 -0.7171 -0.7388  0.6073
 5243TIP3   OH215734   5.861   1.402   2.125  0.4341 -0.2798  0.4071
 5243TIP3    H115735   5.778   1.446   2.145 -0.0225 -0.2541 -1.3832
 5243TIP3    H215736   5.924   1.440   2.185 -0.5467  0.7679  0.8000
 5244TIP3   OH215737   6.110   0.925   1.021  0.0336  0.3587  0.2775
 5244TIP3    H115738   6.204   0.908   1.019 -0.1148 -0.5449 -0.2793
 5244TIP3    H215739   6.095   0.984   0.947  0.1342  0.2654  0.1803
 5245TIP3   OH215740   1.095   3.389   4.703 -0.1165 -0.4209  0.1036
 5245TIP3    H115741   1.057   3.459   4.755 -1.4911 -2.5472  2.1888
 5245TIP3    H215742   1.184   3.418   4.685 -0.4556  1.6010  1.3670
 5246TIP3   OH215743   1.758   5.204   3.461  0.3256  0.1927  0.7165
 5246TIP3    H115744   1.793   5.179   3.546 -0.9492  1.2073  1.5733
 5246TIP3    H215745   1.682   5.146   3.448  1.3959 -1.0222 -0.4755
 5247TIP3   OH215746   6.098   2.997   1.723 -0.0104  0.3964  0.0354
 5247TIP3    H115747   6.014   3.004   1.768 -0.3684  0.4106 -0.6233
 5247TIP3    H215748   6.163   3.001   1.793 -0.5791 -0.4220  0.6400
 5248TIP3   OH215749   1.551   1.077   3.119  0.6683 -0.1882  0.1434
 5248TIP3    H115750   1.456   1.076   3.107  0.6002  0.4466  0.5801
 5248TIP3    H215751   1.571   1.169   3.139  1.5096 -0.1007 -1.0021
 5249TIP3   OH215752   2.402   0.692   3.973 -0.8253  0.0459  0.1626
 5249TIP3    H115753   2.443   0.737   3.900  0.2405 -0.9136  0.1539
 5249TIP3    H215754   2.425   0.744   4.050 -0.5365  0.1201  0.0235
 5250TIP3   OH215755   2.594   3.952   4.891 -0.2233  0.0383  0.5613
 5250TIP3    H115756   2.554   4.033   4.923  0.7632  0.6184  0.3698
 5250TIP3    H215757   2.649   3.923   4.964  0.9913  0.6432 -0.0894
 5251TIP3   OH215758   0.327   1.634   1.073  0.3504  0.1376 -0.2839
 5251TIP3    H115759   0.340   1.549   1.032 -2.1415  0.0478 -1.0854
 5251TIP3    H215760   0.234   1.635   1.095  0.7611  1.8558  1.6170
 5252TIP3   OH215761   4.199   0.186   0.182 -0.0866  0.6259  0.0360
 5252TIP3    H115762   4.173   0.094   0.177 -0.4732  0.7459 -0.1956
 5252TIP3    H215763   4.292   0.183   0.205 -0.0682  0.1775 -0.0776
 5253TIP3   OH215764   3.817   3.555   4.310  0.0543  0.7604  0.0138
 5253TIP3    H115765   3.803   3.496   4.236  0.9876 -0.0268  0.4454
 5253TIP3    H215766   3.738   3.546   4.363  1.5668 -2.9455  1.9617
 5254TIP3   OH215767   5.241   2.203   0.971  0.2115  0.9933 -0.5169
 5254TIP3    H115768   5.156   2.164   0.948  0.5385  0.5814 -1.0586
 5254TIP3    H215769   5.252   2.182   1.064  0.4349 -0.3454 -0.8207
 5255TIP3   OH215770   1.436   2.328   0.447  0.2276  0.0982  0.3623
 5255TIP3    H115771   1.496   2.359   0.515 -0.3859  1.7574  0.1994
 5255TIP3    H215772   1.461   2.378   0.369  0.4545 -1.2615 -0.4618
 5256TIP3   OH215773   2.036   5.284   3.802  0.1275 -0.0684  0.2643
 5256TIP3    H115774   1.963   5.226   3.826  1.5726 -1.5184  1.4005
 5256TIP3    H215775   2.072   5.244   3.723  0.2120  0.1410  0.1992
 5257TIP3   OH215776   5.274   3.334   2.508 -0.3331 -0.2390 -0.5442
 5257TIP3    H115777   5.306   3.418   2.542  0.4368  0.5392 -2.9593
 5257TIP3    H215778   5.349   3.299   2.459 -1.4223 -1.1125 -1.6405
 5258TIP3   OH215779   3.338   2.651   3.823  0.2390 -0.5402  0.0718
 5258TIP3    H115780   3.277   2.724   3.834  0.4098 -0.6294  1.7978
 5258TIP3    H215781   3.289   2.586   3.772 -0.8455 -0.3010  0.7869
 5259TIP3   OH215782   1.452   3.287   0.004  0.2253 -0.5811 -0.1634
 5259TIP3    H115783   1.539   3.259   0.031 -0.2877 -1.6414  0.4668
 5259TIP3    H215784   1.412   3.209  -0.034 -1.7347 -1.2699  2.8872
 5260TIP3   OH215785   1.284   4.899   0.951  0.1352 -0.7658  0.2539
 5260TIP3    H115786   1.280   4.954   0.873  0.6057 -0.1009  0.6887
 5260TIP3    H215787   1.285   4.961   1.024 -1.4367 -1.4087  0.8432
 5261TIP3   OH215788   1.277   2.948   0.702  0.4375 -0.1225 -0.1594
 5261TIP3    H115789   1.204   2.908   0.653 -0.7983  2.5948 -0.7206
 5261TIP3    H215790   1.343   2.967   0.635  1.1296 -1.3365  0.1436
 5262TIP3   OH215791   4.486   1.958   2.961 -0.6930  0.7489 -0.3579
 5262TIP3    H115792   4.500   1.943   2.867 -0.7557 -0.2035 -0.2234
 5262TIP3    H215793   4.449   1.876   2.993  0.9542  0.4164  0.8311
 5263TIP3   OH215794   6.293   4.799   5.167  0.1223  0.3994  0.4625
 5263TIP3    H115795   6.212   4.826   5.211 -0.0109 -0.1099  0.5438
 5263TIP3    H215796   6.312   4.869   5.105 -1.2890 -0.2086 -0.7368
 5264TIP3   OH215797   4.689   2.113   3.047 -0.3334 -0.2698  0.3659
 5264TIP3    H115798   4.624   2.046   3.025 -0.4669 -0.0859  0.1988
 5264TIP3    H215799   4.659   2.191   3.001 -0.7976  0.2070  1.4323
 5265TIP3   OH215800   3.327   0.060   1.348  0.0578  0.5011  0.1114
 5265TIP3    H115801   3.249   0.101   1.311  1.0985  2.4965  0.0047
 5265TIP3    H215802   3.313   0.063   1.443 -0.6321 -0.5298  0.0583
 5266TIP3   OH215803   4.133   2.995   1.959  0.5209 -0.1139 -0.2842
 5266TIP3    H115804   4.098   3.064   1.902 -0.9916 -0.5970  0.0178
 5266TIP3    H215805   4.122   2.915   1.908  0.8678 -0.3282 -0.0266
 5267TIP3   OH215806   1.262   5.860   0.982  0.0034 -0.6461  0.4454
 5267TIP3    H115807   1.179   5.820   1.007 -0.0384 -0.6214  0.3491
 5267TIP3    H215808   1.250   5.882   0.889 -0.4106  0.6494  0.7730
 5268TIP3   OH215809   3.520   1.537   3.085  0.0103  0.2885 -0.1180
 5268TIP3    H115810   3.528   1.633   3.090 -1.7965  0.4378  0.4067
 5268TIP3    H215811   3.452   1.522   3.019  1.9513 -0.7515 -1.9949
 5269TIP3   OH215812   5.982   1.116   0.512  0.1390  0.1356  0.0102
 5269TIP3    H115813   5.960   1.127   0.420 -1.6408 -1.4834  0.1676
 5269TIP3    H215814   5.966   1.202   0.551  1.8500  1.1042 -1.3114
 5270TIP3   OH215815   5.471   4.274   0.138 -0.3536  0.3840 -0.0633
 5270TIP3    H115816   5.496   4.365   0.157  1.6921 -0.2000  0.2335
 5270TIP3    H215817   5.552   4.232   0.111 -1.4919 -1.0915 -1.3566
 5271TIP3   OH215818   1.063   5.624   4.949  0.2352 -0.4642  0.2760
 5271TIP3    H115819   1.144   5.573   4.956  0.8794  0.6092  0.8347
 5271TIP3    H215820   1.061   5.677   5.029  0.2802  1.3749 -0.8867
 5272TIP3   OH215821   3.039   4.574   0.446  0.2369 -0.3896 -0.4158
 5272TIP3    H115822   2.956   4.528   0.449 -0.5940  0.8893 -2.0466
 5272TIP3    H215823   3.016   4.664   0.424  2.0358  0.0644 -0.6008
 5273TIP3   OH215824   4.952   2.815   4.641  0.4595 -0.3826 -0.1116
 5273TIP3    H115825   4.950   2.724   4.670  0.3780 -0.5337 -0.5833
 5273TIP3    H215826   4.887   2.819   4.571  0.8348 -0.0858 -0.4466
 5274TIP3   OH215827   3.618   5.126   0.553 -0.7706 -0.4693  0.0139
 5274TIP3    H115828   3.637   5.219   0.545 -2.0706 -0.3433 -3.2282
 5274TIP3    H215829   3.544   5.112   0.495  0.1943 -3.7692 -0.6217
 5275TIP3   OH215830   3.732   3.591   3.730  0.3469  0.4627 -0.6238
 5275TIP3    H115831   3.797   3.591   3.800 -0.8919 -0.8844  0.5852
 5275TIP3    H215832   3.679   3.670   3.745 -1.1876 -0.8521  1.2559
 5276TIP3   OH215833   5.787   3.787   1.062 -0.0527  0.2878 -0.2014
 5276TIP3    H115834   5.844   3.827   0.997  1.2473 -0.4558  0.4307
 5276TIP3    H215835   5.822   3.816   1.146  0.2825 -1.2636  0.2422
 5277TIP3   OH215836   4.685   2.418   0.164  0.5816  0.5508 -0.1478
 5277TIP3    H115837   4.598   2.385   0.183  0.6313  0.5246  0.0310
 5277TIP3    H215838   4.743   2.344   0.179  0.5452  0.2949 -1.1545
 5278TIP3   OH215839   2.434   1.034   4.810 -0.0348 -0.4388 -0.0737
 5278TIP3    H115840   2.494   1.077   4.870  1.7649 -0.5036 -1.7277
 5278TIP3    H215841   2.365   1.099   4.794 -1.5938 -1.0171  3.2823
 5279TIP3   OH215842   0.875   5.908   2.025 -0.4412  1.0727 -0.1294
 5279TIP3    H115843   0.936   5.918   1.952 -0.5093 -1.6238 -0.6826
 5279TIP3    H215844   0.930   5.898   2.102 -0.2987  1.7695 -0.1390
 5280TIP3   OH215845   6.121   0.967   5.069 -0.6003 -0.0548 -0.0404
 5280TIP3    H115846   6.029   0.941   5.063 -0.2437 -1.8251  1.1255
 5280TIP3    H215847   6.141   1.007   4.985 -2.0586 -0.9742 -0.8676
 5281TIP3   OH215848   3.496   3.563   3.595  0.1151 -0.3076  0.3387
 5281TIP3    H115849   3.584   3.569   3.631  0.4580  2.1993 -0.6804
 5281TIP3    H215850   3.509   3.553   3.501 -0.6856 -0.3956  0.2328
 5282TIP3   OH215851   5.896   4.541   3.959  0.3627  0.0176  0.1058
 5282TIP3    H115852   5.875   4.614   4.016  1.7112 -0.3021  1.0613
 5282TIP3    H215853   5.945   4.581   3.886 -2.0723  0.5464 -1.3570
 5283TIP3   OH215854   2.192   1.752   1.298  0.1373  0.3840  0.4952
 5283TIP3    H115855   2.138   1.824   1.265  2.5231  1.5964 -1.0810
 5283TIP3    H215856   2.130   1.695   1.344 -2.6319  1.1706 -1.9086
 5284TIP3   OH215857   3.807   2.400   4.044  0.1736  0.4506 -0.5155
 5284TIP3    H115858   3.821   2.306   4.057  2.1445  0.9338  1.3331
 5284TIP3    H215859   3.821   2.439   4.131 -1.3822  2.4009 -1.0636
 5285TIP3   OH215860   0.452   2.859   1.230  0.1357  0.2008  0.2782
 5285TIP3    H115861   0.487   2.778   1.266 -1.1023 -0.7690 -0.6445
 5285TIP3    H215862   0.458   2.922   1.303  0.1443 -0.9834  1.3274
 5286TIP3   OH215863   1.603   5.963   2.584 -0.5703 -0.3302 -0.1365
 5286TIP3    H115864   1.536   5.896   2.598 -0.2357 -0.6405  0.0047
 5286TIP3    H215865   1.554   6.042   2.560 -1.0793 -0.2242  1.1412
 5287TIP3   OH215866   0.747   1.207   1.996  0.5102  0.0467 -0.2095
 5287TIP3    H115867   0.657   1.218   1.967  0.6173  0.5273 -0.3785
 5287TIP3    H215868   0.754   1.115   2.022 -0.0036 -0.0089 -0.2700
 5288TIP3   OH215869   2.445   2.015   2.716  0.5148  0.0273 -1.1440
 5288TIP3    H115870   2.385   2.082   2.748 -2.1088 -1.5106 -2.4641
 5288TIP3    H215871   2.486   1.980   2.794 -1.8288 -0.1508  0.0965
 5289TIP3   OH215872   3.783   4.521   4.360  0.0150  0.3191  0.1894
 5289TIP3    H115873   3.705   4.520   4.416 -1.6161  3.9994 -1.6655
 5289TIP3    H215874   3.850   4.564   4.413 -1.0215  2.2918 -0.0035
 5290TIP3   OH215875   5.558   2.259   3.182  0.2519  0.0511 -0.3821
 5290TIP3    H115876   5.491   2.231   3.120  0.5647 -0.1887 -0.6112
 5290TIP3    H215877   5.601   2.333   3.140  0.3349  0.0104 -0.3698
 5291TIP3   OH215878   5.497   1.743   3.801 -0.3361  0.1582 -0.2931
 5291TIP3    H115879   5.425   1.775   3.746 -1.8118  0.5280  1.7325
 5291TIP3    H215880   5.457   1.674   3.854  1.4446 -1.2944 -0.7316
 5292TIP3   OH215881   5.060   0.776   1.388  0.5618 -0.6207  0.2831
 5292TIP3    H115882   5.040   0.817   1.304  0.1957 -0.3489  0.5023
 5292TIP3    H215883   5.139   0.821   1.419 -0.5982  0.9026  1.1716
 5293TIP3   OH215884   2.792   1.816   1.264  0.1574 -0.2319  0.0606
 5293TIP3    H115885   2.705   1.855   1.256  0.6068  0.7986  0.0052
 5293TIP3    H215886   2.787   1.736   1.213 -1.0303 -0.6776  0.8311
 5294TIP3   OH215887   3.187   3.098   5.053 -0.0035  0.0646  0.6677
 5294TIP3    H115888   3.100   3.107   5.015 -0.0201 -1.3038  0.3284
 5294TIP3    H215889   3.191   3.165   5.121 -0.7893  1.0917 -0.2523
 5295TIP3   OH215890   5.153   3.211   1.007  0.2657 -0.6593 -0.1648
 5295TIP3    H115891   5.176   3.265   1.082 -0.7698 -1.4415  0.7633
 5295TIP3    H215892   5.237   3.182   0.972  0.7802 -0.0051  0.4897
 5296TIP3   OH215893   5.054   5.357   0.732  0.4236  0.5920 -0.1384
 5296TIP3    H115894   5.139   5.383   0.695  0.2944 -1.1895 -1.8451
 5296TIP3    H215895   5.052   5.262   0.721 -0.8334  0.3003  2.0560
 5297TIP3   OH215896   4.652   5.664   3.780 -0.1002  0.3236  0.2789
 5297TIP3    H115897   4.577   5.607   3.765 -1.3275  1.4787  1.6016
 5297TIP3    H215898   4.727   5.606   3.783 -1.1025 -1.0224  0.0549
 5298TIP3   OH215899   1.259   2.526   0.011 -0.3275 -0.3031  0.0644
 5298TIP3    H115900   1.209   2.608   0.016  1.7976  1.1063 -0.4553
 5298TIP3    H215901   1.310   2.524   0.091  2.1572  0.7026 -1.3709
 5299TIP3   OH215902   3.242   5.342   4.191  1.0344  0.3164 -0.5611
 5299TIP3    H115903   3.272   5.401   4.260  1.0647  0.8676 -1.0402
 5299TIP3    H215904   3.211   5.400   4.122 -1.5740 -0.1960  0.0591
 5300TIP3   OH215905   2.696   3.841   4.459  0.5954  0.0520 -0.7134
 5300TIP3    H115906   2.712   3.838   4.553  1.3990  0.3686 -0.8291
 5300TIP3    H215907   2.629   3.909   4.448  1.7541  1.2596 -0.5140
 5301TIP3   OH215908   3.778   3.102   0.673  0.3467  0.2330  0.0059
 5301TIP3    H115909   3.728   3.030   0.636 -0.7066 -0.2025  2.0858
 5301TIP3    H215910   3.853   3.060   0.716 -0.9781  0.1109  2.3920
 5302TIP3   OH215911   4.715   0.434   2.303  0.0909 -0.4551  0.0906
 5302TIP3    H115912   4.715   0.378   2.381  0.4556  0.1257  0.5243
 5302TIP3    H215913   4.753   0.517   2.334 -0.7343  0.1447 -0.4521
 5303TIP3   OH215914   4.788   1.550   2.141 -0.0422  0.5915 -0.4041
 5303TIP3    H115915   4.708   1.603   2.131 -0.3618  0.3634  0.8499
 5303TIP3    H215916   4.780   1.483   2.073  0.0456  1.7183 -1.5798
 5304TIP3   OH215917   6.220   4.985   1.960  0.0515  0.3641  0.6023
 5304TIP3    H115918   6.254   4.963   2.047 -1.7764 -0.8708  1.0443
 5304TIP3    H215919   6.176   4.906   1.930  0.8539  0.6621 -1.6082
 5305TIP3   OH215920   0.985   0.202   0.993  0.2520 -0.1617  0.6321
 5305TIP3    H115921   0.904   0.252   0.995 -0.4113 -1.2278  1.4808
 5305TIP3    H215922   1.048   0.260   0.949  0.0553  2.2136  3.1720
 5306TIP3   OH215923   2.099   1.099   4.196 -0.6387 -0.0889 -0.7044
 5306TIP3    H115924   2.088   1.025   4.136 -1.4954 -1.3951  0.9943
 5306TIP3    H215925   2.152   1.064   4.267 -1.1420  0.9037  0.1767
 5307TIP3   OH215926   1.483   5.941   5.006  0.4437 -0.6699 -0.5763
 5307TIP3    H115927   1.550   5.872   5.005  0.6469 -0.5262  0.7012
 5307TIP3    H215928   1.517   6.006   5.069 -0.0824  0.2544 -1.2165
 5308TIP3   OH215929   5.523   1.863   4.442 -0.3229  0.4686 -0.0904
 5308TIP3    H115930   5.461   1.935   4.431 -1.3713 -0.2524  0.8963
 5308TIP3    H215931   5.608   1.901   4.420 -1.0258  1.6335 -0.9142
 5309TIP3   OH215932   3.742   5.134   0.167 -0.0031  0.7052 -0.0912
 5309TIP3    H115933   3.769   5.144   0.259  0.7275 -1.9982  0.0610
 5309TIP3    H215934   3.777   5.213   0.124  1.4905  1.0236  1.5674
 5310TIP3   OH215935   5.144   5.353   5.039 -0.3554  0.4181  0.1894
 5310TIP3    H115936   5.194   5.289   4.987  0.4817  0.6486  0.6938
 5310TIP3    H215937   5.059   5.310   5.054 -0.0387 -0.3034 -0.0281
 5311TIP3   OH215938   6.290   4.566   4.878  0.7665  0.2240  0.2916
 5311TIP3    H115939   6.379   4.577   4.843  0.1575  1.4445 -0.9968
 5311TIP3    H215940   6.267   4.476   4.858  0.7006  0.6896 -1.9400
 5312TIP3   OH215941   4.281   1.880   4.173  0.2013 -0.9904 -0.6595
 5312TIP3    H115942   4.194   1.847   4.152 -2.1984  2.9311  1.8094
 5312TIP3    H215943   4.292   1.861   4.266  0.4590  1.3410 -0.1454
 5313TIP3   OH215944   5.518   1.024   2.656 -0.4425 -0.8182  0.0795
 5313TIP3    H115945   5.594   0.980   2.618 -1.4075 -1.6277 -1.0033
 5313TIP3    H215946   5.555   1.087   2.718  1.1787 -0.1750 -1.4403
 5314TIP3   OH215947   5.514   1.201   2.099  0.1615  0.0243 -0.2033
 5314TIP3    H115948   5.567   1.222   2.022 -0.9591 -0.2438 -1.0849
 5314TIP3    H215949   5.540   1.265   2.165  1.0562  0.3485 -0.8530
 5315TIP3   OH215950   3.503   3.446   0.283 -0.0747  0.4384 -0.8910
 5315TIP3    H115951   3.491   3.501   0.205 -0.1883  0.4922 -0.8373
 5315TIP3    H215952   3.577   3.486   0.329 -0.5728  0.9592 -0.5096
 5316TIP3   OH215953   6.296   1.507   4.211 -0.4634  0.5070  0.2621
 5316TIP3    H115954   6.211   1.483   4.250 -0.0437 -0.0761  0.8376
 5316TIP3    H215955   6.313   1.438   4.147  0.0135  0.0920  0.8199
 5317TIP3   OH215956   5.975   0.598   0.384 -0.4801  0.5509 -0.2044
 5317TIP3    H115957   5.892   0.591   0.432 -0.5908 -2.0568 -0.6487
 5317TIP3    H215958   5.949   0.595   0.292  0.1000 -0.5278 -0.3449
 5318TIP3   OH215959   2.335   5.542   4.864 -0.6112 -0.2820 -0.5954
 5318TIP3    H115960   2.304   5.593   4.789 -0.7219  0.1900 -0.2378
 5318TIP3    H215961   2.399   5.599   4.907  1.3491 -1.5135 -1.7289
 5319TIP3   OH215962   4.102   2.792   0.159  0.6409 -1.2477 -0.2348
 5319TIP3    H115963   4.059   2.723   0.210  1.3830 -1.3694  0.2360
 5319TIP3    H215964   4.121   2.752   0.074 -1.4608 -0.7608 -0.9992
 5320TIP3   OH215965   2.997   1.697   0.445  0.0394 -0.2775  0.8912
 5320TIP3    H115966   2.935   1.624   0.450 -0.5202  0.1918  0.9360
 5320TIP3    H215967   2.970   1.756   0.515  1.5235 -0.8093  1.9600
 5321TIP3   OH215968   1.437   3.091   3.308  0.4915  0.1665 -0.0690
 5321TIP3    H115969   1.352   3.071   3.347  1.0928  0.1529  1.2758
 5321TIP3    H215970   1.500   3.077   3.378  1.4870  1.4208 -0.6642
 5322TIP3   OH215971   2.770   1.096   3.248  0.6535 -0.3930 -0.2680
 5322TIP3    H115972   2.834   1.027   3.264  1.1853 -0.0115 -0.7121
 5322TIP3    H215973   2.686   1.050   3.244  0.8965 -0.9012  0.2899
 5323TIP3   OH215974   6.116   2.551   0.932 -0.0896  0.0146  0.1177
 5323TIP3    H115975   6.180   2.599   0.880  0.7012  0.6198  1.5848
 5323TIP3    H215976   6.035   2.555   0.880  0.8371 -0.0603 -1.3769
 5324TIP3   OH215977   4.178   2.404   4.244 -0.5995  0.0227 -0.0459
 5324TIP3    H115978   4.149   2.383   4.333  0.0145  0.2515  0.2159
 5324TIP3    H215979   4.210   2.321   4.209 -0.1541  0.0771  0.2208
 5325TIP3   OH215980   5.531   0.720   1.107  0.0160  0.2372 -0.0672
 5325TIP3    H115981   5.545   0.645   1.164  1.5617 -1.1842 -2.1898
 5325TIP3    H215982   5.438   0.714   1.083 -0.2085 -0.1715  0.8461
 5326TIP3   OH215983   0.477   0.979   0.125  0.7446  0.0444  0.0418
 5326TIP3    H115984   0.446   0.906   0.070  1.5033 -0.2180 -0.0469
 5326TIP3    H215985   0.565   0.998   0.092  0.5460  1.0243  0.0521
 5327TIP3   OH215986   5.120   1.044   1.022  0.3222 -0.6892 -0.2147
 5327TIP3    H115987   5.199   0.996   1.046  1.1701 -0.5404 -2.4390
 5327TIP3    H215988   5.149   1.135   1.013 -0.4617 -0.3645  0.4201
 5328TIP3   OH215989   3.953   3.273   3.223  0.4353  0.1796  0.6237
 5328TIP3    H115990   3.868   3.264   3.181  0.2640 -1.7864  1.2828
 5328TIP3    H215991   4.016   3.267   3.152  0.0689 -0.4334  0.3392
 5329TIP3   OH215992   1.075   2.888   1.388  0.1181 -0.3356  0.0552
 5329TIP3    H115993   1.101   2.980   1.387 -0.4237 -0.1503 -1.9347
 5329TIP3    H215994   1.157   2.839   1.393  0.4287  0.2436  0.6934
 5330TIP3   OH215995   1.487   0.351   3.291  0.0309  0.5027  0.7185
 5330TIP3    H115996   1.480   0.304   3.208 -0.5184  1.7215  0.0510
 5330TIP3    H215997   1.403   0.397   3.299  0.3788  1.0017  1.5782
 5331TIP3   OH215998   5.397   0.846   3.728  0.4442 -0.1137 -0.0175
 5331TIP3    H115999   5.348   0.769   3.697 -1.2159  0.8290  0.1546
 5331TIP3    H216000   5.329   0.909   3.753  1.6846  2.5618 -2.8613
 5332TIP3   OH216001   1.341   3.632   0.995  0.1096  0.4544 -0.3638
 5332TIP3    H116002   1.312   3.696   0.930  2.1286  0.2018 -1.6068
 5332TIP3    H216003   1.325   3.675   1.079 -2.8299  0.6724 -0.9461
 5333TIP3   OH216004   1.601   4.959   0.085  0.3833 -0.1779 -0.7241
 5333TIP3    H116005   1.618   4.902   0.010  1.3585  0.1945 -0.7991
 5333TIP3    H216006   1.511   4.937   0.111  0.7660 -1.8507 -0.6525
 5334TIP3   OH216007   0.645   2.528   3.504 -0.1619 -0.3164  0.3623
 5334TIP3    H116008   0.621   2.512   3.595  1.8294 -3.2180  0.4938
 5334TIP3    H216009   0.569   2.573   3.467 -1.1356  0.7448  3.3343
 5335TIP3   OH216010   4.345   0.885   3.407 -0.1619  0.1694 -0.1086
 5335TIP3    H116011   4.269   0.887   3.350  0.7817 -1.7829 -1.5668
 5335TIP3    H216012   4.382   0.973   3.402 -0.1724  0.0924 -2.4751
 5336TIP3   OH216013   4.087   2.114   2.592 -0.6239 -0.2930  0.4044
 5336TIP3    H116014   4.175   2.150   2.602 -0.5299 -0.2889 -0.4399
 5336TIP3    H216015   4.091   2.059   2.515 -0.9037 -1.7365  1.3795
 5337TIP3   OH216016   4.465   1.952   2.690 -0.2580  0.1450 -0.6536
 5337TIP3    H116017   4.419   1.940   2.607 -0.7870 -0.3865 -0.2966
 5337TIP3    H216018   4.538   1.890   2.686 -1.6854 -1.6828  0.2553
 5338TIP3   OH216019   0.042   5.930   2.990 -0.4889 -0.0255  0.4018
 5338TIP3    H116020   0.064   5.841   2.965 -2.4964 -0.4119 -0.1874
 5338TIP3    H216021  -0.002   5.966   2.913 -0.2118  1.2911  0.8285
 5339TIP3   OH216022   5.535   0.912   0.730 -0.6087  0.7008  0.0147
 5339TIP3    H116023   5.492   0.985   0.773 -3.1870  0.5361 -1.9795
 5339TIP3    H216024   5.470   0.841   0.733  1.0564 -0.8984  0.1919
 5340TIP3   OH216025   5.620   0.879   2.165  0.4322 -0.8342  0.0124
 5340TIP3    H116026   5.600   0.968   2.135 -0.2665 -1.8245 -2.8186
 5340TIP3    H216027   5.568   0.869   2.245 -2.6097  0.1093 -1.6629
 5341TIP3   OH216028   0.947   0.988   4.449 -0.3137  0.1091  0.3026
 5341TIP3    H116029   0.970   1.060   4.391 -1.0650  1.7291  1.9034
 5341TIP3    H216030   0.886   1.026   4.512 -0.3300 -1.7957  1.5426
 5342TIP3   OH216031   5.027   3.948   1.871  0.1522  0.4997 -0.1148
 5342TIP3    H116032   5.009   4.007   1.944  0.1822  0.9594 -0.4727
 5342TIP3    H216033   4.956   3.883   1.874  0.3384  0.3203  0.5167
 5343TIP3   OH216034   1.128   2.769   4.849  0.4115 -0.4652 -0.1899
 5343TIP3    H116035   1.076   2.793   4.772  0.8745 -1.2074 -0.7562
 5343TIP3    H216036   1.069   2.783   4.923 -0.5165 -1.0392 -0.7927
 5344TIP3   OH216037   3.358   5.572   1.042 -0.0739 -0.2539 -0.1368
 5344TIP3    H116038   3.391   5.589   1.130  0.2693  0.3046 -0.3673
 5344TIP3    H216039   3.275   5.620   1.038  0.6761  1.0407 -0.6360
 5345TIP3   OH216040   0.867   2.745   5.115  0.0910 -0.5096 -0.6844
 5345TIP3    H116041   0.912   2.794   5.185  0.1868 -0.2331 -0.9393
 5345TIP3    H216042   0.822   2.674   5.161  0.9455 -0.9035 -0.4510
 5346TIP3   OH216043   2.355   1.773   4.788  0.8000  0.4112 -0.5955
 5346TIP3    H116044   2.350   1.725   4.871  0.8015 -0.6422 -1.1847
 5346TIP3    H216045   2.286   1.839   4.795 -0.3915 -0.7921 -0.4442
 5347TIP3   OH216046   6.098   1.577   1.058  0.0841  0.9881  0.3023
 5347TIP3    H116047   6.125   1.509   0.996  1.4729  1.6141  0.1933
 5347TIP3    H216048   6.005   1.591   1.038  0.1448  0.1501 -0.6588
 5348TIP3   OH216049   0.686   4.904   2.732 -0.6253 -0.0465  0.6018
 5348TIP3    H116050   0.666   4.814   2.704 -0.7795  0.8490 -2.5406
 5348TIP3    H216051   0.775   4.920   2.699 -0.0931  0.5967  2.2367
 5349TIP3   OH216052   0.898   1.993   4.500 -0.3085 -0.2609  0.2027
 5349TIP3    H116053   0.843   2.004   4.422 -1.4521 -1.5838  0.7710
 5349TIP3    H216054   0.938   1.907   4.489 -0.7129 -0.5932  1.1823
 5350TIP3   OH216055   0.488   2.371   0.691 -0.1452 -0.0254 -0.1679
 5350TIP3    H116056   0.483   2.311   0.766 -2.3006  1.9828  1.4369
 5350TIP3    H216057   0.466   2.457   0.727 -1.2774  1.0502 -3.1232
 5351TIP3   OH216058   5.772   4.782   3.692 -0.0529  0.3449  0.6095
 5351TIP3    H116059   5.783   4.778   3.597 -0.3146  3.1811  0.3805
 5351TIP3    H216060   5.699   4.722   3.710  0.5311 -0.8660 -0.8355
 5352TIP3   OH216061   0.284   0.590   3.536  0.6374  0.1562 -0.8269
 5352TIP3    H116062   0.193   0.578   3.507 -1.3550  3.2733  3.1235
 5352TIP3    H216063   0.305   0.509   3.582 -1.4101  0.4034  0.7286
 5353TIP3   OH216064   0.126   3.835   4.538 -0.0084 -0.8589 -0.2849
 5353TIP3    H116065   0.091   3.749   4.512  1.1305 -1.0666 -1.2235
 5353TIP3    H216066   0.055   3.896   4.519 -0.5464 -1.4913 -0.3694
 5354TIP3   OH216067   1.801   0.953   3.233  0.2663 -0.2458 -0.0403
 5354TIP3    H116068   1.866   0.902   3.283  3.1063  1.4402 -1.7418
 5354TIP3    H216069   1.775   0.895   3.162  0.0585 -0.8516  0.5154
 5355TIP3   OH216070   1.901   4.226   3.279  0.3537  0.1094  0.0485
 5355TIP3    H116071   1.881   4.252   3.369  1.8173 -1.0696  0.7485
 5355TIP3    H216072   1.996   4.211   3.278  0.4313  0.4034 -1.7860
 5356TIP3   OH216073   4.670   4.606   4.100 -0.4473  0.3487 -0.1049
 5356TIP3    H116074   4.663   4.527   4.046  0.6158  1.3797 -1.8335
 5356TIP3    H216075   4.746   4.590   4.156  0.1187  0.3889 -0.8618
 5357TIP3   OH216076   2.069   5.194   2.245 -0.1015  0.1530 -0.0559
 5357TIP3    H116077   2.038   5.203   2.155  0.0406 -0.4535 -0.1678
 5357TIP3    H216078   1.996   5.226   2.299 -0.2739  0.3008 -0.3735
 5358TIP3   OH216079   4.717   4.405   1.732  0.0327  0.3489 -0.3394
 5358TIP3    H116080   4.731   4.387   1.639 -2.3290 -2.7033 -0.2722
 5358TIP3    H216081   4.794   4.367   1.776  1.3438  2.1361 -0.9707
 5359TIP3   OH216082   2.623   0.280   4.901 -0.4757  0.2555 -0.3040
 5359TIP3    H116083   2.704   0.233   4.883 -0.4736 -0.1692  0.7349
 5359TIP3    H216084   2.638   0.368   4.867  1.5203  1.0513  2.3075
 5360TIP3   OH216085   1.947   4.088   1.785  0.0570 -0.2668  0.4703
 5360TIP3    H116086   2.021   4.072   1.844 -0.0983  2.0730  1.4037
 5360TIP3    H216087   1.960   4.027   1.712  0.5929 -2.8442  2.5747
 5361TIP3   OH216088   0.056   2.567   1.774  0.5730 -0.1513  0.3201
 5361TIP3    H116089   0.067   2.517   1.693 -0.2786  0.7568 -0.3664
 5361TIP3    H216090   0.145   2.593   1.798  0.9951 -1.6134  0.4753
 5362TIP3   OH216091   2.176   2.680   4.299 -1.0587  0.4081  0.6252
 5362TIP3    H116092   2.142   2.719   4.219 -0.2363  0.8932  0.4972
 5362TIP3    H216093   2.271   2.690   4.292 -0.8557 -1.0885  0.8744
 5363TIP3   OH216094   0.402   0.716   2.199  0.3032 -0.2252  0.4415
 5363TIP3    H116095   0.343   0.649   2.165  1.9181 -1.0584 -0.8690
 5363TIP3    H216096   0.348   0.796   2.200 -0.9462 -1.0090 -0.3537
 5364TIP3   OH216097   3.494   5.954   3.431 -0.3199  0.1072 -0.2896
 5364TIP3    H116098   3.444   5.875   3.408 -0.9578  0.4533 -0.1179
 5364TIP3    H216099   3.552   5.968   3.356 -1.3576  0.4092 -1.0589
 5365TIP3   OH216100   0.665   2.846   1.718 -0.7374  0.1309 -0.3121
 5365TIP3    H116101   0.757   2.855   1.695 -0.9336 -0.3759 -1.3405
 5365TIP3    H216102   0.633   2.937   1.722  0.2247  0.4431  2.0052
 5366TIP3   OH216103   2.834   3.240   1.449  0.4601  0.2429  0.1660
 5366TIP3    H116104   2.751   3.289   1.456 -1.3859 -2.2405 -1.9639
 5366TIP3    H216105   2.886   3.291   1.386 -1.2481 -0.1652 -1.7017
 5367TIP3   OH216106   3.656   4.711   3.834 -0.2163 -0.2494  0.0589
 5367TIP3    H116107   3.681   4.694   3.925  2.4157 -0.3117 -0.5800
 5367TIP3    H216108   3.731   4.680   3.782 -1.6779 -0.3130 -2.1516
 5368TIP3   OH216109   0.401   0.064   2.522  0.1669 -1.1678 -0.0646
 5368TIP3    H116110   0.396   0.027   2.434  1.5810  1.6058 -1.4169
 5368TIP3    H216111   0.494   0.064   2.543 -0.0131 -0.3609  0.7846
 5369TIP3   OH216112   5.148   0.553   2.276  0.5362 -0.1879 -0.2354
 5369TIP3    H116113   5.184   0.636   2.247 -0.5254  0.0574 -0.8780
 5369TIP3    H216114   5.140   0.562   2.371 -0.4353  0.8112 -0.3914
 5370TIP3   OH216115   0.923   1.263   2.821  0.6070 -0.1647 -0.0716
 5370TIP3    H116116   0.999   1.220   2.859  1.3347  0.5024 -0.7268
 5370TIP3    H216117   0.914   1.344   2.870 -1.6413 -1.6121  2.1414
 5371TIP3   OH216118   4.202   4.125   2.300 -0.4532  0.1692 -0.4676
 5371TIP3    H116119   4.129   4.159   2.353 -0.6670 -1.3660  0.2880
 5371TIP3    H216120   4.228   4.044   2.345  0.5369 -0.2499 -1.7431
 5372TIP3   OH216121   4.986   2.983   2.237 -0.4539 -0.7158  0.2310
 5372TIP3    H116122   4.926   2.975   2.163 -0.2236  0.4926 -0.1220
 5372TIP3    H216123   5.034   3.064   2.219  0.5343 -1.1048  1.0427
 5373TIP3   OH216124   5.419   1.291   2.975  0.8588  0.4691  0.3788
 5373TIP3    H116125   5.414   1.292   2.880  0.9778  0.6800  0.3735
 5373TIP3    H216126   5.483   1.359   2.997  0.8026  0.4507  0.6102
 5374TIP3   OH216127   3.873   4.784   0.724 -0.1873 -0.8045  0.1895
 5374TIP3    H116128   3.934   4.736   0.781 -0.8330 -1.7861  0.0891
 5374TIP3    H216129   3.809   4.822   0.784  0.0507 -0.4654  0.2322
 5375TIP3   OH216130   2.844   3.303   0.127 -0.0305 -0.2622  0.4745
 5375TIP3    H116131   2.924   3.352   0.146  0.0195 -0.3798  0.5700
 5375TIP3    H216132   2.794   3.359   0.068  0.7630 -0.7752 -0.7317
 5376TIP3   OH216133   5.324   3.898   2.223 -0.5995 -0.4016  0.1658
 5376TIP3    H116134   5.348   3.855   2.306 -1.5316  0.8464  1.1278
 5376TIP3    H216135   5.305   3.825   2.163 -0.4521 -1.3362  1.2144
 5377TIP3   OH216136   5.427   3.330   4.963  0.2813 -0.6836 -0.0951
 5377TIP3    H116137   5.337   3.361   4.966  0.2710 -0.6795 -0.3958
 5377TIP3    H216138   5.442   3.307   4.871  0.0848 -2.1882  0.2269
 5378TIP3   OH216139   2.290   3.096   1.422  0.2379  0.6026  0.1900
 5378TIP3    H116140   2.272   3.185   1.394  0.2957  0.6559  0.3229
 5378TIP3    H216141   2.298   3.046   1.340  1.4035  0.9465  0.0842
 5379TIP3   OH216142   3.018   1.838   1.422  0.6172  0.4981  0.1730
 5379TIP3    H116143   3.029   1.746   1.447 -0.4146  0.0202 -0.9896
 5379TIP3    H216144   2.930   1.841   1.383  1.3413  1.5706 -1.4786
 5380TIP3   OH216145   4.191   0.434   4.171  0.1263  0.5234 -0.0268
 5380TIP3    H116146   4.133   0.357   4.176 -2.4487  2.2683 -1.0525
 5380TIP3    H216147   4.143   0.503   4.216  2.6829  1.4630  1.4716
 5381TIP3   OH216148   4.400   4.859   5.029 -0.3790  0.8370 -0.0722
 5381TIP3    H116149   4.376   4.946   4.996 -0.9396  1.2221  1.2851
 5381TIP3    H216150   4.467   4.828   4.968 -0.0065  2.3224 -0.4545
 5382TIP3   OH216151   1.325   0.580   3.394  0.4706  0.1683 -0.1584
 5382TIP3    H116152   1.315   0.543   3.481 -0.7254  0.2925 -0.2213
 5382TIP3    H216153   1.388   0.652   3.406  1.3451 -0.6540  0.3212
 5383TIP3   OH216154   2.123   0.538   1.645  0.3125 -0.9443 -0.3265
 5383TIP3    H116155   2.215   0.564   1.640  0.3586 -1.1103 -0.3510
 5383TIP3    H216156   2.079   0.614   1.682  0.5632 -1.1206  0.3462
 5384TIP3   OH216157   0.387   5.908   3.347 -0.1252 -0.1273  0.2815
 5384TIP3    H116158   0.392   5.969   3.421 -2.5446  1.6890 -0.9252
 5384TIP3    H216159   0.475   5.911   3.309  0.0344  2.1647  0.6566
 5385TIP3   OH216160   3.387   5.284   1.534  0.2615  0.4685 -0.2040
 5385TIP3    H116161   3.300   5.264   1.568  0.1347 -0.1171 -0.8584
 5385TIP3    H216162   3.376   5.369   1.491  0.0967  0.5550  0.0042
 5386TIP3   OH216163   1.863   4.414   4.516 -0.3114 -0.0416  0.2088
 5386TIP3    H116164   1.824   4.446   4.597  0.6639 -0.4591  0.8656
 5386TIP3    H216165   1.911   4.335   4.542  1.8551  1.0103 -0.3190
 5387TIP3   OH216166   2.293   5.392   3.514 -0.5464 -0.4026  0.0213
 5387TIP3    H116167   2.372   5.433   3.479 -0.1962 -0.0937  1.1084
 5387TIP3    H216168   2.314   5.376   3.606 -0.8264 -2.6678 -0.2597
 5388TIP3   OH216169   0.280   3.090   1.545  0.5908  0.2396  0.0817
 5388TIP3    H116170   0.351   3.038   1.507  0.2085  0.6542 -1.2593
 5388TIP3    H216171   0.314   3.179   1.549  0.4547  0.2847  0.2648
 5389TIP3   OH216172   2.000   5.595   4.715 -0.1474 -0.4111 -0.1276
 5389TIP3    H116173   1.961   5.542   4.645  0.3832 -1.6798  0.5092
 5389TIP3    H216174   1.934   5.595   4.785 -0.3542  0.2149 -0.3096
 5390TIP3   OH216175   3.765   1.953   4.807  0.2482  0.5557 -0.1671
 5390TIP3    H116176   3.840   1.966   4.864  0.7488 -0.0157 -0.6869
 5390TIP3    H216177   3.797   1.896   4.737 -0.7159  0.1318 -0.2827
 5391TIP3   OH216178   0.697   5.792   5.073 -0.0379  0.4598 -0.1579
 5391TIP3    H116179   0.758   5.752   5.135  0.9335  1.3088 -0.5410
 5391TIP3    H216180   0.750   5.808   4.995 -0.9277  0.6047 -0.7372
 5392TIP3   OH216181   2.921   2.468   4.139  0.6927 -0.1159  0.4596
 5392TIP3    H116182   2.881   2.392   4.097  1.1664 -0.4148  0.5444
 5392TIP3    H216183   2.927   2.445   4.231  0.0932  0.3501  0.6226
 5393TIP3   OH216184   0.900   3.340   1.606 -0.3194  0.2797  0.0808
 5393TIP3    H116185   0.824   3.388   1.639 -0.1536  1.0631 -0.6524
 5393TIP3    H216186   0.901   3.358   1.512  1.3433  1.1142  0.2186
 5394TIP3   OH216187   2.190   3.880   3.029 -0.5129  0.0614  0.1348
 5394TIP3    H116188   2.186   3.971   3.002 -0.4996  0.7211  2.2005
 5394TIP3    H216189   2.107   3.842   2.999 -1.0825  1.0993  0.3761
 5395TIP3   OH216190   3.478   5.115   3.454 -0.2871  0.1826  0.5821
 5395TIP3    H116191   3.573   5.105   3.446 -0.2353  1.1584 -0.2763
 5395TIP3    H216192   3.458   5.192   3.401 -1.4380  0.5551  1.5258
 5396TIP3   OH216193   0.692   4.657   5.040 -0.3347  0.4044 -0.4016
 5396TIP3    H116194   0.647   4.694   5.115 -1.0207  0.4539 -0.8230
 5396TIP3    H216195   0.622   4.640   4.976  0.2404  0.4239 -1.0501
 5397TIP3   OH216196   1.309   4.970   3.833  0.0026 -0.1993  0.8180
 5397TIP3    H116197   1.361   4.898   3.799 -2.2133 -1.3139 -0.4390
 5397TIP3    H216198   1.318   5.039   3.767  0.0039 -0.3302  0.6817
 5398TIP3   OH216199   2.129   4.052   2.637  0.4121  0.2847  0.0695
 5398TIP3    H116200   2.036   4.053   2.617  0.2568  1.9969  0.7328
 5398TIP3    H216201   2.167   3.996   2.569 -0.6883  2.2054 -2.2906
 5399TIP3   OH216202   5.709   5.373   3.682  0.1099  0.0791  0.0851
 5399TIP3    H116203   5.655   5.391   3.606 -0.7366  0.4123  0.7529
 5399TIP3    H216204   5.794   5.414   3.662 -0.5453  1.4056 -0.0855
 5400TIP3   OH216205   0.545   1.438   3.612  0.0788  0.0099  0.0883
 5400TIP3    H116206   0.586   1.490   3.543 -1.5876  1.1465 -0.1209
 5400TIP3    H216207   0.467   1.400   3.571 -0.4037 -0.1095  1.0649
 5401TIP3   OH216208   6.073   4.935   2.829 -0.2086 -0.3854  0.3612
 5401TIP3    H116209   6.026   4.863   2.788 -0.0414 -0.6454  0.6170
 5401TIP3    H216210   6.161   4.931   2.792  0.2236 -1.2018  1.4002
 5402TIP3   OH216211   1.941   1.402   3.441 -0.1387  0.1047 -0.5723
 5402TIP3    H116212   1.927   1.494   3.418 -1.2882 -0.0843 -0.6687
 5402TIP3    H216213   1.915   1.354   3.362  1.1956 -0.2822 -0.8070
 5403TIP3   OH216214   3.229   3.518   2.347 -0.0347 -0.5867  0.1508
 5403TIP3    H116215   3.255   3.552   2.433 -1.7478  2.7197 -0.4914
 5403TIP3    H216216   3.299   3.547   2.288 -0.3334 -0.2483 -0.0364
 5404TIP3   OH216217   1.812   3.331   1.380 -0.0944  0.3614  0.1038
 5404TIP3    H116218   1.833   3.423   1.364  2.8825 -0.2987 -0.5042
 5404TIP3    H216219   1.746   3.309   1.314  1.3781  1.3660 -1.8045
 5405TIP3   OH216220   1.181   2.991   0.191  0.0546 -0.4767  0.3492
 5405TIP3    H116221   1.225   3.064   0.146  0.6299 -1.1194 -0.1575
 5405TIP3    H216222   1.101   3.029   0.226  0.8054  0.6333  0.9237
 5406TIP3   OH216223   5.289   3.382   0.196  0.3370  0.0231 -0.2030
 5406TIP3    H116224   5.294   3.477   0.190 -0.4242  0.0925  0.1729
 5406TIP3    H216225   5.330   3.351   0.115 -0.3640  0.6926 -0.8265
 5407TIP3   OH216226   0.891   1.418   0.344  0.0961 -0.1339  0.0725
 5407TIP3    H116227   0.984   1.437   0.334 -0.0285  0.3755 -0.1981
 5407TIP3    H216228   0.848   1.503   0.329 -0.4220 -0.4099 -0.0368
 5408TIP3   OH216229   0.849   2.021   3.326  0.1708  0.4567  0.5579
 5408TIP3    H116230   0.898   2.100   3.303  0.5330  0.6588  1.9222
 5408TIP3    H216231   0.759   2.041   3.300  0.7095  0.1840 -1.7359
 5409TIP3   OH216232   2.878   3.832   2.056 -0.3651  0.3959 -0.4147
 5409TIP3    H116233   2.799   3.781   2.037  0.1753 -0.1887 -1.1636
 5409TIP3    H216234   2.942   3.767   2.083  0.1709  0.7335 -0.8528
 5410TIP3   OH216235   2.846   3.385   4.991  0.0128  0.9083 -0.5866
 5410TIP3    H116236   2.826   3.391   4.898  1.6076  0.2281 -0.9918
 5410TIP3    H216237   2.897   3.463   5.011 -1.1802  1.5807 -0.0181
 5411TIP3   OH216238   2.759   2.372   3.480 -0.3187  0.1293 -0.1197
 5411TIP3    H116239   2.674   2.413   3.501 -0.7937 -0.4386 -0.8700
 5411TIP3    H216240   2.756   2.360   3.385  1.1934  1.3737 -0.3636
 5412TIP3   OH216241   6.104   4.134   3.415  0.2270  0.0701 -0.0918
 5412TIP3    H116242   6.145   4.097   3.493  0.2259  0.9155  0.3228
 5412TIP3    H216243   6.126   4.227   3.418 -0.3803  0.2444 -0.7151
 5413TIP3   OH216244   3.550   5.796   3.060  0.3545 -0.4585  0.2033
 5413TIP3    H116245   3.520   5.871   3.111  1.8687  0.5913 -0.3802
 5413TIP3    H216246   3.510   5.808   2.974  1.0429 -0.0010 -0.0581
 5414TIP3   OH216247   3.349   2.993   2.300  0.0890  0.2016  0.1912
 5414TIP3    H116248   3.437   3.027   2.284 -0.5232  1.1799 -1.3949
 5414TIP3    H216249   3.331   2.937   2.225 -0.8496  0.4841  0.1974
 5415TIP3   OH216250   5.926   1.805   0.513 -0.1760  0.0592  0.0649
 5415TIP3    H116251   5.989   1.876   0.506 -1.7989  1.8687  2.0627
 5415TIP3    H216252   5.927   1.781   0.606 -1.6138 -0.6189 -0.0607
 5416TIP3   OH216253   6.312   5.484   3.676  0.2370  0.4487 -0.0525
 5416TIP3    H116254   6.347   5.571   3.657  1.4766 -0.1391 -0.5477
 5416TIP3    H216255   6.369   5.451   3.746 -0.6657  0.2944  0.6295
 5417TIP3   OH216256   5.793   5.427   1.214  0.1169  0.3629  0.1695
 5417TIP3    H116257   5.740   5.503   1.239 -0.9144 -0.2379 -0.1604
 5417TIP3    H216258   5.735   5.352   1.225  0.7383 -0.2573 -0.6700
 5418TIP3   OH216259   4.857   3.277   4.709  0.0979 -0.0521 -0.1580
 5418TIP3    H116260   4.887   3.219   4.779 -1.2036 -1.3416 -0.6219
 5418TIP3    H216261   4.873   3.365   4.742  1.2796 -0.6441  0.9512
 5419TIP3   OH216262   1.918   2.734   2.168 -0.6371  0.2414  0.2120
 5419TIP3    H116263   1.856   2.728   2.241 -0.2317  3.5241  1.0053
 5419TIP3    H216264   1.876   2.793   2.106  1.3224  2.0555  0.4851
 5420TIP3   OH216265   0.870   0.057   5.110  0.1657 -0.6627 -0.1338
 5420TIP3    H116266   0.933   0.099   5.169  0.8942 -2.4160  0.3949
 5420TIP3    H216267   0.924   0.025   5.037 -0.6286  0.8571 -1.4648
 5421TIP3   OH216268   3.291   2.039   1.513 -0.3268 -0.1156  0.8871
 5421TIP3    H116269   3.385   2.043   1.499 -0.5380  0.6674 -0.4926
 5421TIP3    H216270   3.279   1.967   1.575  1.1225 -0.6333  0.6066
 5422TIP3   OH216271   3.040   4.144   4.183 -0.5350 -0.6566  0.3946
 5422TIP3    H116272   3.016   4.074   4.244  0.5011 -0.8517  0.5953
 5422TIP3    H216273   3.115   4.110   4.135  0.4650  0.5933  1.0086
 5423TIP3   OH216274   0.991   4.329   3.825  0.1121  0.8136 -0.5608
 5423TIP3    H116275   0.914   4.336   3.881 -0.3759  0.4718 -1.1759
 5423TIP3    H216276   1.030   4.245   3.849 -0.5408  0.2943 -1.2715
 5424TIP3   OH216277   4.604   4.911   3.366  0.0312 -0.1196  0.5066
 5424TIP3    H116278   4.631   4.825   3.396  0.1103 -0.1308  0.4035
 5424TIP3    H216279   4.669   4.935   3.300 -0.9951 -0.7439 -0.7646
 5425TIP3   OH216280   4.984   4.522   1.185  0.1290  0.0460 -0.5885
 5425TIP3    H116281   4.962   4.507   1.093 -0.1109  0.7149 -0.6474
 5425TIP3    H216282   4.906   4.564   1.222  0.0148 -0.7222  0.0611
 5426TIP3   OH216283   0.726   0.920   2.037 -0.4923  0.1475 -0.3768
 5426TIP3    H116284   0.726   0.877   2.123 -2.2089  0.1781 -0.3380
 5426TIP3    H216285   0.754   0.853   1.976  0.6794  0.1028  0.1787
 5427TIP3   OH216286   2.603   0.503   1.913 -0.1486 -0.2157  0.0271
 5427TIP3    H116287   2.548   0.464   1.845 -2.8222  1.3408  1.1616
 5427TIP3    H216288   2.567   0.590   1.926  1.9068  0.4665  1.6811
 5428TIP3   OH216289   3.984   4.309   3.127  0.2739 -0.3380 -0.2138
 5428TIP3    H116290   4.067   4.278   3.093  1.1260 -0.2677  1.6969
 5428TIP3    H216291   4.005   4.346   3.213 -1.4976  0.9909 -0.2906
 5429TIP3   OH216292   3.966   0.132   4.416 -0.7880  0.0786 -0.0941
 5429TIP3    H116293   4.030   0.128   4.487  0.6553  2.5904 -1.1343
 5429TIP3    H216294   3.883   0.150   4.460 -0.0303  1.0322  1.0095
 5430TIP3   OH216295   0.038   0.722   2.956 -0.1386  0.5361 -0.8861
 5430TIP3    H116296   0.004   0.667   2.885 -1.1821 -0.8354  0.5993
 5430TIP3    H216297  -0.032   0.786   2.972  0.1142  0.8710 -1.1010
 5431TIP3   OH216298   1.399   0.670   3.953 -0.0768  0.1898 -0.6543
 5431TIP3    H116299   1.475   0.640   3.903 -0.5201 -0.0575 -1.1909
 5431TIP3    H216300   1.337   0.701   3.887  0.1289  1.7627 -0.1549
 5432TIP3   OH216301   2.418   1.143   0.407 -0.0854 -0.1245 -0.2677
 5432TIP3    H116302   2.371   1.059   0.412  0.8156 -0.6134  0.4673
 5432TIP3    H216303   2.360   1.206   0.450 -0.3609 -0.5706  0.0249
 5433TIP3   OH216304   4.554   4.644   1.767 -0.2143  0.4013  0.4390
 5433TIP3    H116305   4.594   4.722   1.805  1.2045 -0.7222  1.3689
 5433TIP3    H216306   4.624   4.579   1.768 -1.9896 -1.5900  1.8445
 5434TIP3   OH216307   0.096   3.777   0.273 -0.0408  0.0629  0.2661
 5434TIP3    H116308   0.191   3.765   0.264  0.2816  1.8104  0.8721
 5434TIP3    H216309   0.077   3.855   0.221 -1.2126 -0.4185 -0.0556
 5435TIP3   OH216310   0.830   2.867   2.868  0.1650  0.3065  0.4513
 5435TIP3    H116311   0.737   2.852   2.851 -0.0470  0.1214  1.6590
 5435TIP3    H216312   0.855   2.935   2.807 -0.7855  0.4116  0.1592
 5436TIP3   OH216313   4.723   4.643   4.694  0.9125  0.3644 -0.0605
 5436TIP3    H116314   4.794   4.578   4.692  3.4135  2.9237 -0.4845
 5436TIP3    H216315   4.725   4.682   4.607 -0.5085  1.0605  0.1982
 5437TIP3   OH216316   3.870   0.138   2.847  0.4040  0.2034  0.5394
 5437TIP3    H116317   3.860   0.075   2.918 -0.8885 -1.7630 -1.2496
 5437TIP3    H216318   3.796   0.198   2.857 -0.8154 -1.1394 -0.1039
 5438TIP3   OH216319   2.442   3.418   3.436 -0.1434 -0.6204 -0.0812
 5438TIP3    H116320   2.435   3.347   3.373  0.5233 -0.2501 -0.5819
 5438TIP3    H216321   2.535   3.424   3.456 -0.3772 -0.9271  1.1667
 5439TIP3   OH216322   6.236   0.497   4.502  0.2252  0.0824 -0.0235
 5439TIP3    H116323   6.225   0.444   4.423 -0.6443  0.5361 -0.2227
 5439TIP3    H216324   6.254   0.434   4.572  1.9566 -0.2648 -0.7329
 5440TIP3   OH216325   2.341   0.527   4.548 -0.2832  0.0251 -0.8709
 5440TIP3    H116326   2.277   0.501   4.482 -2.1900 -1.3937  1.3841
 5440TIP3    H216327   2.415   0.468   4.535 -0.8371 -0.5521 -1.4379
 5441TIP3   OH216328   0.038   4.314   2.380  0.2610  0.1973  0.2643
 5441TIP3    H116329   0.048   4.400   2.420 -0.7935 -0.0985  1.1941
 5441TIP3    H216330   0.108   4.261   2.418  0.2364  0.3531  0.5254
 5442TIP3   OH216331   4.175   5.103   3.335  0.0057 -0.5944 -0.2815
 5442TIP3    H116332   4.240   5.036   3.357  1.3651  0.5484 -0.6545
 5442TIP3    H216333   4.161   5.094   3.241  0.0875 -0.4435 -0.3084
 5443TIP3   OH216334   4.793   3.215   2.792  0.4290  0.2519  0.2593
 5443TIP3    H116335   4.850   3.283   2.829 -0.3705  0.8684  0.3925
 5443TIP3    H216336   4.804   3.225   2.697 -0.6070  1.4173  0.2315
 5444TIP3   OH216337   3.074   4.051   0.512  0.5480  0.2295 -0.5198
 5444TIP3    H116338   3.118   3.968   0.494  0.6877  0.1572  0.1135
 5444TIP3    H216339   3.060   4.090   0.426 -0.0115 -0.6950 -0.8553
 5445TIP3   OH216340   1.348   2.650   4.992  0.1624 -0.5641 -0.0912
 5445TIP3    H116341   1.331   2.721   5.053  1.4837 -1.2707  1.1610
 5445TIP3    H216342   1.281   2.659   4.925 -0.2776  1.2701  0.5504
 5446TIP3   OH216343   4.650   4.835   4.878 -0.2967  0.6185  0.2634
 5446TIP3    H116344   4.673   4.767   4.815 -0.2332  0.5110  0.4025
 5446TIP3    H216345   4.733   4.880   4.895 -0.1268  0.0439  0.9911
 5447TIP3   OH216346   2.437   0.321   1.766 -0.2270  0.0247 -0.0012
 5447TIP3    H116347   2.447   0.258   1.836 -0.4876  0.3312  0.3169
 5447TIP3    H216348   2.372   0.282   1.707  0.0747 -0.2815 -0.1292
 5448TIP3   OH216349   5.338   1.665   1.050  0.3352 -0.4286 -0.8832
 5448TIP3    H116350   5.382   1.686   0.968  1.4655 -1.2081 -0.5052
 5448TIP3    H216351   5.297   1.747   1.077  1.5122  0.3266 -1.2942
 5449TIP3   OH216352   4.877   0.431   3.772  0.0404 -0.7023 -0.1140
 5449TIP3    H116353   4.849   0.459   3.685  0.8542  0.0137 -0.1539
 5449TIP3    H216354   4.796   0.411   3.818 -0.4608  0.0866 -0.6391
 5450TIP3   OH216355   4.066   1.401   5.050  0.4232 -0.1371  0.3632
 5450TIP3    H116356   4.096   1.312   5.037 -0.3116 -0.2353 -0.7766
 5450TIP3    H216357   4.034   1.403   5.141 -1.9610 -1.7830 -0.3546
 5451TIP3   OH216358   5.251   1.990   0.334  0.3354  0.7367 -0.1303
 5451TIP3    H116359   5.309   1.930   0.288  0.4891  2.8280 -2.9215
 5451TIP3    H216360   5.295   2.007   0.418  1.4824 -1.0845 -0.3186
 5452TIP3   OH216361   5.431   3.429   2.114  0.4313  0.0899  0.4275
 5452TIP3    H116362   5.384   3.359   2.068 -0.4104  1.0796 -0.2516
 5452TIP3    H216363   5.491   3.382   2.173  1.0592 -1.2177 -1.1736
 5453TIP3   OH216364   1.110   0.751   3.935  0.4563 -0.1057 -0.4220
 5453TIP3    H116365   1.058   0.766   3.856  1.3302 -0.6869 -1.1163
 5453TIP3    H216366   1.104   0.657   3.951  1.1323 -0.1448 -0.3896
 5454TIP3   OH216367   4.214   1.468   4.033 -0.1804 -0.4034 -0.1451
 5454TIP3    H116368   4.172   1.437   4.113  1.1096  0.7512  1.0179
 5454TIP3    H216369   4.307   1.473   4.054  0.0885  0.7421 -1.4381
 5455TIP3   OH216370   1.046   2.582   1.740  0.6750  0.3801  0.1650
 5455TIP3    H116371   0.956   2.569   1.771  0.7035  0.1275  0.1445
 5455TIP3    H216372   1.091   2.500   1.762 -0.0802 -1.1428 -3.3586
 5456TIP3   OH216373   0.390   3.931   0.463 -0.0858 -0.1926 -0.3562
 5456TIP3    H116374   0.351   3.979   0.390  0.0437  1.0391  0.3631
 5456TIP3    H216375   0.405   3.997   0.530  0.4194 -1.1886  0.5399
 5457TIP3   OH216376   4.427   1.208   0.651  0.0190  0.2922 -0.4818
 5457TIP3    H116377   4.508   1.251   0.678  0.0076 -0.0021  0.0358
 5457TIP3    H216378   4.362   1.238   0.715 -0.5552  1.4109 -1.5244
 5458TIP3   OH216379   6.198   4.610   0.771  0.1716  0.2913  0.0282
 5458TIP3    H116380   6.183   4.624   0.678 -0.1514  0.7638  0.1496
 5458TIP3    H216381   6.291   4.627   0.783 -0.0267  1.4605  0.0084
 5459TIP3   OH216382   0.232   2.555   2.059 -0.7954  0.1278 -0.0886
 5459TIP3    H116383   0.308   2.560   2.117 -0.8197 -0.6795  0.0222
 5459TIP3    H216384   0.268   2.567   1.971 -0.7558  1.3278  0.0725
 5460TIP3   OH216385   4.957   0.569   3.491  0.3080 -0.1303  0.6428
 5460TIP3    H116386   4.949   0.631   3.419  0.4441 -0.6158  0.2049
 5460TIP3    H216387   5.051   0.564   3.509  0.5754 -1.9818 -0.9215
 5461TIP3   OH216388   2.811   1.231   3.487  0.0419  0.8294  0.5344
 5461TIP3    H116389   2.792   1.197   3.399  1.1298 -1.0339  0.9726
 5461TIP3    H216390   2.764   1.314   3.491 -1.4850  0.1127 -1.1699
 5462TIP3   OH216391   0.089   3.486   0.773  0.5550  0.3194  0.2092
 5462TIP3    H116392   0.155   3.424   0.742  0.2854 -0.4583  1.1477
 5462TIP3    H216393   0.118   3.570   0.739  0.2741 -0.4413 -2.1565
 5463TIP3   OH216394   4.063   1.123   2.322 -0.1862 -0.3886 -0.3387
 5463TIP3    H116395   4.151   1.158   2.314  0.6372 -2.0290  0.9602
 5463TIP3    H216396   4.006   1.197   2.300  1.4619  1.0485 -0.0161
 5464TIP3   OH216397   3.889   2.873   2.383 -0.5425  0.2722 -0.4509
 5464TIP3    H116398   3.975   2.852   2.421 -0.4743  0.4372 -0.5171
 5464TIP3    H216399   3.830   2.875   2.458 -0.6828 -0.8415 -0.5107
 5465TIP3   OH216400   6.283   3.164   0.050 -0.2917 -0.0983  0.0956
 5465TIP3    H116401   6.309   3.251   0.019 -1.2209 -0.2443 -1.1370
 5465TIP3    H216402   6.265   3.115  -0.030 -2.6218 -0.5429  0.8395
 5466TIP3   OH216403   4.283   2.787   3.026  0.3718 -0.2047 -1.3134
 5466TIP3    H116404   4.306   2.854   2.962 -0.0490  0.7308 -0.5109
 5466TIP3    H216405   4.364   2.768   3.073 -0.0543  1.8380  0.3631
 5467TIP3   OH216406   0.008   0.685   3.717 -0.2930  0.3730  0.1024
 5467TIP3    H116407   0.087   0.739   3.719  0.1542 -0.2864  1.5028
 5467TIP3    H216408   0.025   0.615   3.780 -1.9307  0.1037  0.2902
 5468TIP3   OH216409   3.507   5.783   3.634  0.2137 -0.1710  0.2138
 5468TIP3    H116410   3.534   5.864   3.591  0.9228  0.6104  2.0526
 5468TIP3    H216411   3.446   5.743   3.572 -1.0624  2.3217 -0.2511
 5469TIP3   OH216412   0.467   5.457   4.278 -0.4237  0.3526 -0.4874
 5469TIP3    H116413   0.532   5.433   4.344 -0.0544 -0.4057 -1.1051
 5469TIP3    H216414   0.384   5.459   4.326 -0.2202 -0.5756 -0.0620
 5470TIP3   OH216415   4.868   2.413   1.807  0.1357  0.0144  0.0463
 5470TIP3    H116416   4.938   2.424   1.871  1.7269 -0.1703 -1.5978
 5470TIP3    H216417   4.849   2.319   1.807  1.2522 -0.2267 -0.8582
 5471TIP3   OH216418   1.825   2.482   4.482  0.3197  0.1484  0.6152
 5471TIP3    H116419   1.844   2.388   4.484 -1.9137 -0.3706  0.5223
 5471TIP3    H216420   1.732   2.487   4.460  0.5712  2.4318 -0.2208
 5472TIP3   OH216421   0.706   3.879   3.776 -0.0507 -0.0660 -0.0350
 5472TIP3    H116422   0.689   3.972   3.761  1.1328 -0.2125 -2.8872
 5472TIP3    H216423   0.798   3.875   3.799 -0.4907 -0.4519  1.8626
 5473TIP3   OH216424   6.057   2.608   4.883  0.2847 -0.3637 -0.5914
 5473TIP3    H116425   6.064   2.701   4.906 -0.7455 -0.3645 -0.1819
 5473TIP3    H216426   6.113   2.563   4.946 -0.5703 -0.1463  0.3659
 5474TIP3   OH216427   6.359   0.593   2.699  0.1500  0.2748 -0.1380
 5474TIP3    H116428   6.345   0.499   2.712  1.3978  0.0585 -0.2684
 5474TIP3    H216429   6.293   0.618   2.635 -1.2686 -0.1604  1.0917
 5475TIP3   OH216430   4.589   5.651   0.862 -0.0853  0.7056 -0.2925
 5475TIP3    H116431   4.654   5.604   0.810 -0.2547  0.4274 -0.2542
 5475TIP3    H216432   4.639   5.716   0.911  0.3330 -0.2603  0.6200
 5476TIP3   OH216433   6.053   2.478   1.647 -0.5027 -0.4928 -0.7414
 5476TIP3    H116434   6.118   2.443   1.707  0.5468  2.1318 -0.2004
 5476TIP3    H216435   5.989   2.522   1.703  0.5383  2.0703 -1.4332
 5477TIP3   OH216436   4.045   3.606   0.769  0.2628  0.5253  0.7938
 5477TIP3    H116437   4.074   3.550   0.842  0.9815 -1.0537 -0.6399
 5477TIP3    H216438   4.077   3.562   0.691 -1.7366  1.3938 -0.5953
 5478TIP3   OH216439   3.058   1.252   3.631 -0.6119 -0.0060 -0.3249
 5478TIP3    H116440   3.136   1.245   3.576 -0.2469 -0.9531  0.3012
 5478TIP3    H216441   2.985   1.249   3.570 -0.1843  0.3155 -0.8660
 5479TIP3   OH216442   3.749   0.239   0.628  0.2500 -0.8056  0.2107
 5479TIP3    H116443   3.779   0.302   0.563  0.1317 -0.5611  0.3919
 5479TIP3    H216444   3.805   0.254   0.705  2.0067 -2.6874 -0.6051
 5480TIP3   OH216445   5.215   5.107   0.924  0.3870  0.3377  0.2779
 5480TIP3    H116446   5.159   5.082   0.850 -0.9596 -0.4330  1.4840
 5480TIP3    H216447   5.298   5.064   0.907 -0.3489 -0.9828 -0.1250
 5481TIP3   OH216448   2.495   3.344   2.510  0.5926 -0.3581  0.2309
 5481TIP3    H116449   2.450   3.286   2.449  0.0762 -0.9258  1.1453
 5481TIP3    H216450   2.468   3.432   2.483 -1.1140 -0.6868  0.7825
 5482TIP3   OH216451   1.327   5.875   3.343 -0.4024 -0.0581 -0.1459
 5482TIP3    H116452   1.313   5.967   3.365 -0.2233 -0.4872  1.9855
 5482TIP3    H216453   1.259   5.855   3.279 -0.7319  1.4381 -0.2963
 5483TIP3   OH216454   5.909   4.612   2.451  0.1955 -0.1881 -0.5293
 5483TIP3    H116455   5.903   4.670   2.375 -0.8896  0.7600  0.2481
 5483TIP3    H216456   5.880   4.665   2.525 -1.1594 -1.7756  0.1616
 5484TIP3   OH216457   1.650   3.236   2.267  0.1659 -0.1626 -0.1608
 5484TIP3    H116458   1.732   3.203   2.231  0.4460 -0.3289  0.6033
 5484TIP3    H216459   1.582   3.183   2.225  0.2936  1.1248 -2.1231
 5485TIP3   OH216460   3.416   4.800   2.704  0.1127  0.0049  0.3650
 5485TIP3    H116461   3.407   4.754   2.788  0.3743 -2.4025 -0.8487
 5485TIP3    H216462   3.506   4.783   2.677 -0.3807 -0.4653 -1.0540
 5486TIP3   OH216463   2.230   4.143   4.399  0.0500 -0.1845  0.1693
 5486TIP3    H116464   2.297   4.095   4.447 -0.3063 -1.1182 -0.2355
 5486TIP3    H216465   2.188   4.198   4.465  1.4054  0.6512  0.3595
 5487TIP3   OH216466   3.759   0.633   2.133 -0.5027 -0.6280  0.0603
 5487TIP3    H116467   3.854   0.633   2.142 -0.1117 -0.5214 -3.0015
 5487TIP3    H216468   3.729   0.700   2.195  1.4214 -0.4312  0.8542
 5488TIP3   OH216469   1.480   2.943   0.031  0.0428 -0.1299 -0.3683
 5488TIP3    H116470   1.487   2.858  -0.012 -2.6248 -1.1806  1.0667
 5488TIP3    H216471   1.454   2.922   0.121 -0.6649  2.2153  0.0253
 5489TIP3   OH216472   4.654   3.768   2.953  0.0257  0.2909 -0.4165
 5489TIP3    H116473   4.741   3.805   2.965 -0.5608  1.7120 -0.3940
 5489TIP3    H216474   4.608   3.786   3.035  0.3732 -2.4638  0.4673
 5490TIP3   OH216475   2.360   2.255   1.803 -0.3101  0.1663  0.3336
 5490TIP3    H116476   2.416   2.247   1.880 -1.4195  2.6015  1.4915
 5490TIP3    H216477   2.418   2.235   1.729  1.6831  1.0971  1.5644
 5491TIP3   OH216478   0.565   2.779   3.090 -0.6904  0.4613  0.3271
 5491TIP3    H116479   0.627   2.708   3.108  1.2461  1.3962 -2.0460
 5491TIP3    H216480   0.517   2.749   3.012  1.1721  2.2004 -1.6193
 5492TIP3   OH216481   4.803   5.448   1.952 -0.3142  0.0466  0.3843
 5492TIP3    H116482   4.806   5.429   1.858  2.3554  2.1811 -0.0810
 5492TIP3    H216483   4.775   5.539   1.957  1.5857  0.6232  1.4520
 5493TIP3   OH216484   5.752   4.840   3.030  0.2202  0.2720 -0.8210
 5493TIP3    H116485   5.728   4.753   2.998 -2.0977 -0.1140  1.5771
 5493TIP3    H216486   5.704   4.900   2.973 -3.1257 -0.3624  1.0193
 5494TIP3   OH216487   0.500   4.205   3.967 -0.2110 -0.0596 -0.0617
 5494TIP3    H116488   0.492   4.195   3.873 -1.2708 -1.5011  0.1479
 5494TIP3    H216489   0.489   4.299   3.982  1.7559  0.4594 -1.4933
 5495TIP3   OH216490   0.473   3.301   0.936  0.1418  0.1157 -0.3994
 5495TIP3    H116491   0.513   3.228   0.983 -2.0858 -1.7863 -1.2789
 5495TIP3    H216492   0.525   3.309   0.856  2.3253  1.6692  1.0353
 5496TIP3   OH216493   1.991   5.558   0.812  0.5076  0.5055  0.1228
 5496TIP3    H116494   2.082   5.581   0.792  1.6222  1.1665  4.7135
 5496TIP3    H216495   1.984   5.466   0.786  2.0388  0.7778 -1.4708
 5497TIP3   OH216496   6.364   0.436   1.156  0.0387  0.2517  0.3290
 5497TIP3    H116497   6.367   0.349   1.115 -0.2438  0.0688  0.6971
 5497TIP3    H216498   6.278   0.470   1.134 -0.1608  0.1031  0.8724
 5498TIP3   OH216499   0.542   3.781   4.699 -0.3920 -0.1310 -0.0707
 5498TIP3    H116500   0.510   3.716   4.762 -0.5211  0.5060  0.5293
 5498TIP3    H216501   0.631   3.800   4.728 -0.5013  0.2722  0.0061
 5499TIP3   OH216502   1.568   4.885   4.137 -1.1971 -0.0796 -0.5004
 5499TIP3    H116503   1.596   4.814   4.195 -0.0354  1.4829  0.9402
 5499TIP3    H216504   1.491   4.922   4.180  0.0304  1.4860  0.5007
 5500TIP3   OH216505   4.189   0.123   4.587  0.2406  0.5747  0.4348
 5500TIP3    H116506   4.279   0.142   4.615 -0.3136 -0.0027  2.8211
 5500TIP3    H216507   4.151   0.074   4.660 -1.9389  0.5465 -0.6416
 5501TIP3   OH216508   0.754   2.118   3.777 -0.1506  0.5453 -0.4594
 5501TIP3    H116509   0.686   2.142   3.715  1.0954  0.8557 -1.7495
 5501TIP3    H216510   0.774   2.199   3.824 -1.4788  0.1881  0.7725
 5502TIP3   OH216511   4.732   0.642   0.092 -0.4612  0.2697  0.1276
 5502TIP3    H116512   4.711   0.696   0.016  0.8470  0.6905  0.0396
 5502TIP3    H216513   4.656   0.651   0.150 -1.2913  0.2832 -0.9225
 5503TIP3   OH216514   1.208   0.671   0.157  0.6649 -0.4936 -0.2583
 5503TIP3    H116515   1.280   0.657   0.218 -0.0153 -2.0957  0.2658
 5503TIP3    H216516   1.136   0.703   0.212  0.6896  0.1880 -0.6131
 5504TIP3   OH216517   5.838   4.078   3.381  0.6698 -0.4282  0.4469
 5504TIP3    H116518   5.926   4.113   3.373  0.1297  1.0681  0.7276
 5504TIP3    H216519   5.788   4.122   3.312 -0.1277 -0.3383  1.0641
 5505TIP3   OH216520   1.681   5.800   4.070 -0.4658 -0.2299  0.2217
 5505TIP3    H116521   1.696   5.715   4.028  0.6155 -0.4960  1.1095
 5505TIP3    H216522   1.766   5.826   4.105 -1.2223  0.1518  1.9016
 5506TIP3   OH216523   6.229   3.208   3.235  0.2832  0.0701  0.0101
 5506TIP3    H116524   6.209   3.289   3.282  0.7734  0.1574  0.0754
 5506TIP3    H216525   6.323   3.212   3.220  0.2856 -0.4228 -0.1134
 5507TIP3   OH216526   3.533   1.148   4.711  0.0857  0.2304 -0.5950
 5507TIP3    H116527   3.615   1.135   4.663  0.6583 -1.0752  0.6725
 5507TIP3    H216528   3.554   1.211   4.779 -0.1569  0.4292 -0.7021
 5508TIP3   OH216529   4.711   1.387   1.922  0.1478 -0.2128  0.4084
 5508TIP3    H116530   4.745   1.359   1.837  0.1543  1.4826 -0.1825
 5508TIP3    H216531   4.632   1.334   1.935 -0.1512 -0.1161 -0.9108
 5509TIP3   OH216532   4.192   4.677   4.699 -0.8448  0.0876 -0.2808
 5509TIP3    H116533   4.130   4.613   4.733 -1.8737  1.7586  1.2097
 5509TIP3    H216534   4.272   4.663   4.750 -0.5273 -0.9765 -1.0402
 5510TIP3   OH216535   1.099   0.558   1.927  0.1705 -0.2477 -0.0991
 5510TIP3    H116536   1.068   0.620   1.992  0.9714  0.1113 -0.0433
 5510TIP3    H216537   1.169   0.604   1.881  2.1272 -1.6960  1.2029
 5511TIP3   OH216538   5.654   0.275   0.144  0.3889  0.1817 -0.2414
 5511TIP3    H116539   5.591   0.256   0.075 -0.4454  1.9911 -0.0319
 5511TIP3    H216540   5.604   0.268   0.225  0.9111 -0.1679  0.0524
 5512TIP3   OH216541   2.478   1.785   0.386  0.5266 -0.0607  0.0171
 5512TIP3    H116542   2.488   1.705   0.439 -0.6567 -0.3049 -0.1063
 5512TIP3    H216543   2.440   1.755   0.304 -1.2628  0.7792  0.4967
 5513TIP3   OH216544   2.060   2.912   4.391  0.2808  0.3216 -0.6157
 5513TIP3    H116545   1.969   2.897   4.368 -0.1851  1.1172  0.5843
 5513TIP3    H216546   2.106   2.834   4.361 -0.5962  0.3981 -2.2342
 5514TIP3   OH216547   3.506   3.822   2.775 -0.5711  0.1949 -0.4356
 5514TIP3    H116548   3.498   3.878   2.698  2.2094  0.7799 -0.3931
 5514TIP3    H216549   3.456   3.868   2.843 -0.2129  1.4622 -1.0088
 5515TIP3   OH216550   1.521   4.282   4.421  0.3667 -0.2116  0.3479
 5515TIP3    H116551   1.468   4.361   4.431 -0.1393 -0.6779  1.5383
 5515TIP3    H216552   1.554   4.264   4.509  1.3286 -0.7471 -0.1100
 5516TIP3   OH216553   1.472   0.053   4.098 -0.2349 -0.1688 -0.2873
 5516TIP3    H116554   1.391   0.056   4.149 -0.7837 -3.1790 -0.7529
 5516TIP3    H216555   1.539   0.083   4.159 -1.7905  4.4624 -0.5125
 5517TIP3   OH216556   2.319   2.645   4.582 -0.3027 -0.2206  0.2801
 5517TIP3    H116557   2.342   2.597   4.502  0.1912 -0.3090  0.4725
 5517TIP3    H216558   2.370   2.726   4.577 -2.8138  1.4122 -1.1716
 5518TIP3   OH216559   5.784   4.969   0.511  0.1853  0.2565  0.1222
 5518TIP3    H116560   5.829   4.950   0.429  0.6448 -2.7107  0.9514
 5518TIP3    H216561   5.691   4.953   0.492  0.0511  1.3775 -0.2505
 5519TIP3   OH216562   5.969   0.113   2.468  0.6723 -0.0553 -0.4832
 5519TIP3    H116563   6.056   0.078   2.486 -0.2037 -1.7602  0.8138
 5519TIP3    H216564   5.940   0.067   2.389  0.8446  0.3157 -0.7632
 5520TIP3   OH216565   5.719   2.529   5.091  0.2807 -0.0674 -0.0039
 5520TIP3    H116566   5.630   2.551   5.066  0.1141 -0.5054  0.2071
 5520TIP3    H216567   5.724   2.434   5.084  0.0990 -0.2729  1.9873
 5521TIP3   OH216568   2.716   3.423   2.657 -0.4604 -0.4112 -0.0209
 5521TIP3    H116569   2.715   3.518   2.660 -1.2550 -0.4037 -0.1611
 5521TIP3    H216570   2.651   3.401   2.590  0.0896 -1.0417 -0.3625
 5522TIP3   OH216571   4.200   3.291   1.861 -0.0032 -0.1822  0.9387
 5522TIP3    H116572   4.205   3.381   1.894 -0.1254  0.3460 -0.4037
 5522TIP3    H216573   4.140   3.297   1.787 -0.6761 -1.5472  1.3452
 5523TIP3   OH216574   3.998   0.628   1.622  0.2431  0.0190  0.1845
 5523TIP3    H116575   4.052   0.705   1.606 -0.2907  0.2121 -0.7005
 5523TIP3    H216576   3.931   0.630   1.554 -1.5825  0.3875  1.8734
 5524TIP3   OH216577   2.396   5.659   1.694  0.6598  0.3824  0.6373
 5524TIP3    H116578   2.318   5.604   1.698  0.6617  0.2771 -0.4669
 5524TIP3    H216579   2.363   5.749   1.694  0.5404  0.3403  0.3302
 5525TIP3   OH216580   4.875   4.058   4.372 -0.8723 -0.3078  0.2557
 5525TIP3    H116581   4.949   4.092   4.422  0.5999 -0.8507 -1.4174
 5525TIP3    H216582   4.866   3.967   4.401 -0.3939 -0.4537 -0.0370
 5526TIP3   OH216583   1.355   2.034   5.069 -0.4620  0.0355  0.4786
 5526TIP3    H116584   1.409   2.098   5.022 -1.2903  0.4034  0.0139
 5526TIP3    H216585   1.346   1.962   5.006 -3.0785  1.2813 -0.7136
 5527TIP3   OH216586   4.058   0.539   1.904 -0.4682 -0.2199  0.4362
 5527TIP3    H116587   4.135   0.481   1.905  0.9625  1.5728  0.6920
 5527TIP3    H216588   4.079   0.606   1.839 -1.9568  0.1572  0.3097
 5528TIP3   OH216589   1.153   2.521   1.480  0.6128 -0.1219 -0.1308
 5528TIP3    H116590   1.114   2.547   1.564  1.3205 -2.0231  0.8627
 5528TIP3    H216591   1.212   2.593   1.458 -0.1179  0.7363  0.6288
 5529TIP3   OH216592   4.963   3.175   0.668 -0.5617  0.3782 -0.0757
 5529TIP3    H116593   4.921   3.125   0.738  0.4780 -0.4575 -0.0130
 5529TIP3    H216594   5.054   3.143   0.668 -0.3727  0.8812 -1.3458
 5530TIP3   OH216595   3.677   3.051   1.750  0.2331  0.3569  0.4101
 5530TIP3    H116596   3.602   3.100   1.716  0.2967  0.5520  0.5442
 5530TIP3    H216597   3.698   2.988   1.682 -0.8120 -0.5250  0.8670
 5531TIP3   OH216598   4.777   5.171   1.981 -0.2206  0.1108  0.0048
 5531TIP3    H116599   4.803   5.263   1.971  1.7267 -0.1633  1.8075
 5531TIP3    H216600   4.859   5.122   1.978 -0.8027 -1.2017  2.4937
 5532TIP3   OH216601   1.124   1.511   0.644 -0.2752 -0.4278 -0.2010
 5532TIP3    H116602   1.101   1.580   0.581  3.0770  0.8307 -0.2484
 5532TIP3    H216603   1.066   1.438   0.621 -3.4375  1.9986 -0.6610
 5533TIP3   OH216604   1.533   3.574   2.770 -0.1389 -0.2186  0.1010
 5533TIP3    H116605   1.446   3.543   2.794 -0.1949 -0.4163 -0.3529
 5533TIP3    H216606   1.572   3.602   2.853 -1.0776  1.0126  0.1540
 5534TIP3   OH216607   3.948   2.282   4.329 -0.1702  0.1182 -0.5666
 5534TIP3    H116608   3.966   2.214   4.394  0.8368  1.0754  0.2023
 5534TIP3    H216609   3.921   2.235   4.251  0.6605 -1.1637 -0.1031
 5535TIP3   OH216610   4.118   4.463   3.587 -0.0037  0.2894 -1.2315
 5535TIP3    H116611   4.134   4.522   3.661  0.4803 -2.0591  0.6431
 5535TIP3    H216612   4.038   4.416   3.611  1.8550 -2.7646 -0.5914
 5536TIP3   OH216613   0.691   2.059   5.161 -0.0564 -0.1735  0.7641
 5536TIP3    H116614   0.680   1.986   5.100  1.7667  0.7807 -0.8442
 5536TIP3    H216615   0.786   2.069   5.169 -0.2276  2.3054  0.5024
 5537TIP3   OH216616   3.001   0.829   4.177 -0.2764  0.7228 -0.6610
 5537TIP3    H116617   3.003   0.881   4.258  1.1904  1.1749 -0.9494
 5537TIP3    H216618   2.969   0.743   4.205  1.5216  0.4322  0.7137
 5538TIP3   OH216619   5.662   1.983   2.916 -0.2387  0.2197 -0.0779
 5538TIP3    H116620   5.604   2.057   2.933 -0.2764  0.5034 -1.3610
 5538TIP3    H216621   5.612   1.926   2.858 -0.3137 -0.9737  1.1031
 5539TIP3   OH216622   3.276   1.337   1.164 -0.5781 -0.1810 -0.0658
 5539TIP3    H116623   3.213   1.310   1.231 -1.1422  0.2318 -0.4249
 5539TIP3    H216624   3.345   1.271   1.168 -1.3117 -0.9636 -0.0490
 5540TIP3   OH216625   2.639   4.594   3.049  0.0873 -0.0526  0.6182
 5540TIP3    H116626   2.670   4.512   3.089  0.2310 -1.5353 -2.2954
 5540TIP3    H216627   2.549   4.576   3.024  0.1898  0.5807 -0.2663
 5541TIP3   OH216628   2.137   1.022   0.602 -0.0966  0.0888 -0.5201
 5541TIP3    H116629   2.166   1.110   0.580 -0.6685  0.8501  1.5681
 5541TIP3    H216630   2.071   1.001   0.535  1.2708  0.4880 -2.0772
 5542TIP3   OH216631   2.476   2.515   1.620 -0.0790  0.0032 -0.0342
 5542TIP3    H116632   2.410   2.449   1.640 -1.1722  1.1992  0.4806
 5542TIP3    H216633   2.426   2.592   1.594  1.1656  0.5653 -0.8758
 5543TIP3   OH216634   6.031   3.904   1.874  0.5780  0.4163  0.3217
 5543TIP3    H116635   5.949   3.949   1.852  0.4986  0.1949  0.1624
 5543TIP3    H216636   6.031   3.826   1.819  1.5089  1.0563 -0.6321
 5544TIP3   OH216637   3.982   0.348   2.353  0.3511  0.4001  0.1498
 5544TIP3    H116638   3.921   0.354   2.279  1.6470 -0.0393 -0.9861
 5544TIP3    H216639   4.054   0.406   2.330  0.8765  0.0820  0.9643
 5545TIP3   OH216640   2.659   4.571   2.443  0.1895  0.7104 -0.1126
 5545TIP3    H116641   2.650   4.500   2.379 -2.5309  0.8798 -0.0144
 5545TIP3    H216642   2.747   4.606   2.426  0.3211 -0.4785 -2.4423
 5546TIP3   OH216643   5.280   4.478   1.759  0.8441  0.1186  0.3977
 5546TIP3    H116644   5.235   4.436   1.833  1.6903 -0.0268  0.8454
 5546TIP3    H216645   5.271   4.571   1.776  0.0219  0.1076  0.0558
 5547TIP3   OH216646   5.948   1.150   4.574 -0.0005  0.1898 -0.1712
 5547TIP3    H116647   5.962   1.199   4.655  0.4967  0.5469 -0.4681
 5547TIP3    H216648   6.034   1.115   4.551 -0.4965 -1.5422  0.4701
 5548TIP3   OH216649   4.625   3.551   1.732  0.1973  0.3470  0.0590
 5548TIP3    H116650   4.613   3.462   1.765 -0.6134  0.9199  1.3744
 5548TIP3    H216651   4.628   3.605   1.810  0.6637  1.4923 -0.7308
 5549TIP3   OH216652   4.227   2.065   3.464 -0.0388  0.2673  0.2288
 5549TIP3    H116653   4.303   2.034   3.415  0.4303 -0.0061  1.1179
 5549TIP3    H216654   4.176   2.114   3.400 -0.0724 -1.1234 -0.8500
 5550TIP3   OH216655   3.299   1.780   2.348 -0.6006  0.3116  0.0809
 5550TIP3    H116656   3.302   1.693   2.309  0.2011  0.7895 -1.0032
 5550TIP3    H216657   3.296   1.839   2.272  0.9783  1.2828  0.7199
 5551TIP3   OH216658   0.458   0.170   0.417  0.4824 -0.2166  0.3256
 5551TIP3    H116659   0.426   0.131   0.498  2.5281  0.6875  1.6521
 5551TIP3    H216660   0.467   0.263   0.437  0.8926  0.0576 -1.0064
 5552TIP3   OH216661   2.103   1.142   3.087  0.0619 -0.6947  0.0201
 5552TIP3    H116662   2.081   1.049   3.085  0.7495 -0.8590 -0.1099
 5552TIP3    H216663   2.129   1.164   2.997 -2.5466  0.2543 -0.5742
 5553TIP3   OH216664   4.942   5.478   2.207 -0.4292  0.0392  0.6425
 5553TIP3    H116665   4.894   5.493   2.126  2.2692  2.0533 -0.7391
 5553TIP3    H216666   4.980   5.391   2.198  0.7150  0.6557 -0.8016
 5554TIP3   OH216667   1.186   1.003   3.978 -0.5462  0.0059  0.2212
 5554TIP3    H116668   1.238   1.008   4.057  0.0185 -0.1775 -0.1341
 5554TIP3    H216669   1.177   0.909   3.960 -0.3691  0.0517 -0.1250
 5555TIP3   OH216670   0.330   5.377   1.523  0.0059 -0.1788  0.1982
 5555TIP3    H116671   0.386   5.418   1.457 -1.3118 -1.1841 -1.6685
 5555TIP3    H216672   0.371   5.292   1.540  0.1848 -0.0453  0.4235
 5556TIP3   OH216673   5.602   5.789   3.611 -0.3859  0.0451  0.2262
 5556TIP3    H116674   5.668   5.725   3.583 -0.6036  0.6841 -1.9039
 5556TIP3    H216675   5.580   5.837   3.532 -2.2486  0.9395  1.2238
 5557TIP3   OH216676   5.754   2.378   4.064  0.0144  0.0274  0.0046
 5557TIP3    H116677   5.726   2.288   4.048  1.0245 -0.7118  2.0275
 5557TIP3    H216678   5.805   2.373   4.145 -0.1273  2.4703  0.3141
 5558TIP3   OH216679   4.770   0.085   1.267 -0.8901 -0.3870 -0.1156
 5558TIP3    H116680   4.865   0.079   1.257 -0.8908 -0.6070  0.0110
 5558TIP3    H216681   4.736   0.072   1.178 -0.6925  2.6594 -0.7703
 5559TIP3   OH216682   2.821   0.366   2.878  0.1895 -0.3453 -0.0334
 5559TIP3    H116683   2.759   0.396   2.945 -2.3161  1.5992 -2.9319
 5559TIP3    H216684   2.873   0.443   2.857  1.3275 -1.0764  0.0132
 5560TIP3   OH216685   1.343   1.807   2.639  0.5684 -0.1034  0.1645
 5560TIP3    H116686   1.388   1.725   2.619  1.2979  0.4894 -0.7195
 5560TIP3    H216687   1.265   1.781   2.688  1.4895 -1.2233  1.1073
 5561TIP3   OH216688   3.222   0.841   2.898 -0.3758  0.0209 -0.2565
 5561TIP3    H116689   3.254   0.886   2.976 -1.2635  1.7609 -0.8285
 5561TIP3    H216690   3.132   0.873   2.887 -0.9411 -1.6684 -0.9191
 5562TIP3   OH216691   5.913   5.017   3.639  0.2116 -0.2151  1.0754
 5562TIP3    H116692   5.847   5.082   3.665 -1.4125 -0.3281 -2.1475
 5562TIP3    H216693   5.869   4.933   3.648  0.3832 -0.4072  0.2251
 5563TIP3   OH216694   2.166   5.019   2.777  0.3750  0.0017  0.4390
 5563TIP3    H116695   2.105   5.028   2.850 -0.6962 -3.6178  0.1684
 5563TIP3    H216696   2.122   5.063   2.704 -0.4740  0.0960  0.9904
 5564TIP3   OH216697   0.527   2.599   1.324  0.6351 -0.8165 -0.0396
 5564TIP3    H116698   0.600   2.579   1.383  0.8497 -1.7631 -0.6103
 5564TIP3    H216699   0.559   2.573   1.237  0.7617  1.5957 -0.7858
 5565TIP3   OH216700   3.137   2.177   1.906 -0.4165  0.3176 -0.0700
 5565TIP3    H116701   3.111   2.092   1.869  1.8565  0.5163 -2.3540
 5565TIP3    H216702   3.231   2.183   1.889 -0.4336  3.1282  0.4095
 5566TIP3   OH216703   1.389   1.853   3.088 -0.1329 -0.2488  0.4796
 5566TIP3    H116704   1.408   1.881   2.998 -0.1953  1.5173  0.9724
 5566TIP3    H216705   1.296   1.830   3.087 -0.2700  0.3034  0.2061
 5567TIP3   OH216706   1.018   3.424   1.022  0.3500 -0.2733 -0.3159
 5567TIP3    H116707   1.048   3.352   1.078 -0.2692  0.1876  0.6416
 5567TIP3    H216708   1.015   3.387   0.934 -0.1035 -1.4623  0.1857
 5568TIP3   OH216709   3.795   1.367   2.811 -0.3099  0.4977 -0.2433
 5568TIP3    H116710   3.714   1.330   2.847  0.4251 -0.6271  0.3274
 5568TIP3    H216711   3.775   1.382   2.719 -1.1837  0.2613 -0.1048
 5569TIP3   OH216712   4.118   4.515   1.509  0.8202 -0.7473 -0.0243
 5569TIP3    H116713   4.198   4.479   1.546  0.5395  1.3537  2.9534
 5569TIP3    H216714   4.048   4.473   1.558  0.0296 -1.9164 -2.0044
 5570TIP3   OH216715   2.392   0.162   1.090  0.0289  0.0567  0.3419
 5570TIP3    H116716   2.306   0.154   1.050 -0.1326 -0.6539  0.8088
 5570TIP3    H216717   2.452   0.173   1.015 -0.2386 -1.4668 -0.1424
 5571TIP3   OH216718   5.240   2.662   3.559  0.0921  0.4185 -0.0958
 5571TIP3    H116719   5.288   2.701   3.486  0.7908 -0.2003  0.0137
 5571TIP3    H216720   5.167   2.616   3.519 -0.9841  2.1271 -0.2001
 5572TIP3   OH216721   6.068   5.690   3.655  0.6599 -0.3546 -0.2997
 5572TIP3    H116722   6.019   5.728   3.582  1.0753  0.0345 -0.3765
 5572TIP3    H216723   6.065   5.596   3.640 -0.0225 -0.3331 -0.3313
 5573TIP3   OH216724   2.589   5.501   5.170 -0.9998  0.1009 -0.0463
 5573TIP3    H116725   2.495   5.490   5.158 -0.8262 -0.0133 -1.5341
 5573TIP3    H216726   2.625   5.491   5.081  0.3710  0.5128  0.4495
 5574TIP3   OH216727   1.431   3.610   1.344 -0.4803 -0.2895  0.1420
 5574TIP3    H116728   1.511   3.622   1.294  0.1012 -0.4237  1.0024
 5574TIP3    H216729   1.361   3.638   1.286  0.2696  0.7544 -0.2917
 5575TIP3   OH216730   1.066   1.208   4.279  0.3977  0.3381 -0.8947
 5575TIP3    H116731   1.018   1.177   4.203 -1.2497  0.4812  0.0324
 5575TIP3    H216732   1.119   1.281   4.247  0.6342 -0.3395 -2.1088
 5576TIP3   OH216733   4.673   4.076   2.993  0.1694  0.0818 -0.1653
 5576TIP3    H116734   4.767   4.086   3.003  0.0790  0.7555  0.0807
 5576TIP3    H216735   4.637   4.106   3.077 -0.2913  0.3653 -0.4599
 5577TIP3   OH216736   0.262   3.879   2.199 -0.3168 -0.0737 -0.6140
 5577TIP3    H116737   0.274   3.959   2.148  0.2325  0.2626  0.0304
 5577TIP3    H216738   0.234   3.909   2.286 -1.4672 -0.6474 -0.7629
 5578TIP3   OH216739   6.225   2.927   0.778  0.1778 -1.0555  0.0346
 5578TIP3    H116740   6.143   2.971   0.756 -0.9478 -2.2848  1.5669
 5578TIP3    H216741   6.292   2.995   0.770 -1.2420  0.4444  0.5068
 5579TIP3   OH216742   5.834   2.459   0.798 -0.2462  0.1607 -0.0371
 5579TIP3    H116743   5.791   2.541   0.775 -1.0301 -0.5726 -1.3280
 5579TIP3    H216744   5.885   2.436   0.721  0.5873 -0.1951  0.6017
 5580TIP3   OH216745   1.578   3.158   5.106 -0.3437  0.2530  0.2734
 5580TIP3    H116746   1.505   3.159   5.169  0.3844 -0.3149  1.1519
 5580TIP3    H216747   1.633   3.085   5.134 -0.5686 -0.7599 -1.7196
 5581TIP3   OH216748   0.764   0.427   0.223 -0.2863  0.4472  0.0441
 5581TIP3    H116749   0.716   0.350   0.193  0.3765  0.6199 -1.5681
 5581TIP3    H216750   0.856   0.398   0.225 -0.0005  1.2363 -0.8256
 5582TIP3   OH216751   6.297   4.699   2.193  0.2141 -0.1483 -0.3742
 5582TIP3    H116752   6.381   4.663   2.222  0.5080 -1.9710 -3.0698
 5582TIP3    H216753   6.311   4.721   2.101 -1.9944  0.4306 -0.6330
 5583TIP3   OH216754   0.073   1.617   4.430 -0.3267 -0.9345 -0.1323
 5583TIP3    H116755   0.077   1.569   4.348  2.0406 -1.3488  0.1632
 5583TIP3    H216756   0.049   1.551   4.495  1.0080 -1.3454 -0.0277
 5584TIP3   OH216757   4.830   4.656   0.772 -0.2877 -0.1711 -0.4936
 5584TIP3    H116758   4.806   4.600   0.698  0.1870  1.1363 -1.6958
 5584TIP3    H216759   4.805   4.606   0.849 -2.7589 -0.7525 -1.5442
 5585TIP3   OH216760   4.099   4.954   3.842 -0.1882 -0.9683 -0.1385
 5585TIP3    H116761   4.111   4.958   3.747 -0.4033  0.6875 -0.1254
 5585TIP3    H216762   4.006   4.938   3.854 -0.1991 -0.9534 -0.2041
 5586TIP3   OH216763   0.983   4.955   2.541 -0.2765 -0.5601 -0.6914
 5586TIP3    H116764   1.069   4.995   2.550 -0.6200 -0.2038  1.5438
 5586TIP3    H216765   0.960   4.970   2.449  0.8447  1.8465 -0.6810
 5587TIP3   OH216766   2.557   2.513   3.632 -0.0185  0.2092 -0.0293
 5587TIP3    H116767   2.552   2.491   3.726  0.2697 -1.4165 -0.3583
 5587TIP3    H216768   2.468   2.537   3.609  0.2019  2.1685  0.9824
 5588TIP3   OH216769   0.837   1.415   4.213 -0.2337 -0.3831 -0.3675
 5588TIP3    H116770   0.844   1.505   4.182  0.0837 -0.4008 -0.3469
 5588TIP3    H216771   0.859   1.361   4.138 -1.3347 -0.4707 -0.6465
 5589TIP3   OH216772   5.925   4.312   1.721  0.4437 -0.4153  0.0972
 5589TIP3    H116773   5.872   4.389   1.742 -0.5359 -1.0603  0.0659
 5589TIP3    H216774   6.011   4.347   1.696  0.0416  0.6511  0.1841
 5590TIP3   OH216775   4.943   1.134   4.207  0.2582 -0.7106  0.0581
 5590TIP3    H116776   4.971   1.159   4.119  0.9094 -1.0848  0.1572
 5590TIP3    H216777   4.956   1.040   4.211 -1.7041 -1.0372 -0.1360
 5591TIP3   OH216778   3.889   5.858   1.040  0.9027 -0.0629  0.5196
 5591TIP3    H116779   3.834   5.920   1.089  0.1970 -0.7056  0.5626
 5591TIP3    H216780   3.836   5.779   1.034  1.2353 -0.2104 -0.7527
 5592TIP3   OH216781   0.296   1.227   4.583 -0.6865 -0.0217  0.3722
 5592TIP3    H116782   0.287   1.158   4.648 -1.9011  0.7591  1.0757
 5592TIP3    H216783   0.223   1.213   4.523  0.4421 -0.7512 -0.8740
 5593TIP3   OH216784   2.953   0.647   2.903 -0.2442 -0.1810 -0.7232
 5593TIP3    H116785   3.016   0.613   2.967  1.0922  1.9799 -0.8096
 5593TIP3    H216786   3.007   0.693   2.838 -1.7804  0.0250 -1.9144
 5594TIP3   OH216787   0.808   0.932   1.523 -0.5149 -0.4917  0.3563
 5594TIP3    H116788   0.842   0.924   1.612  0.2251  0.2376  0.1569
 5594TIP3    H216789   0.715   0.952   1.534 -0.1743  0.7930  0.9932
 5595TIP3   OH216790   2.898   2.520   0.210  0.6855 -0.2169  0.8178
 5595TIP3    H116791   2.871   2.431   0.231 -0.8653  0.2066  0.7142
 5595TIP3    H216792   2.820   2.573   0.226  2.1470  1.4622  2.9709
 5596TIP3   OH216793   0.949   3.955   0.164  0.2123 -0.2065  0.0206
 5596TIP3    H116794   0.861   3.943   0.198 -0.3437  1.1326 -0.8391
 5596TIP3    H216795   0.956   3.891   0.093  0.1522 -0.7137  0.4681
 5597TIP3   OH216796   1.894   5.516   1.516  0.1523 -0.0712  0.2311
 5597TIP3    H116797   1.936   5.517   1.430 -1.0369  1.9494 -0.4115
 5597TIP3    H216798   1.827   5.448   1.509  1.8503 -1.8574  0.5637
 5598TIP3   OH216799   1.285   2.665   2.185  0.0520 -0.6859  0.4710
 5598TIP3    H116800   1.313   2.750   2.220  0.0233 -0.6760  0.4704
 5598TIP3    H216801   1.335   2.601   2.235  1.1158 -0.6295 -0.4807
 5599TIP3   OH216802   4.353   3.305   2.837 -0.1343 -0.6770 -0.6134
 5599TIP3    H116803   4.432   3.253   2.852  0.1560  0.1170  0.7120
 5599TIP3    H216804   4.312   3.263   2.761  1.9503 -0.6116 -1.8651
 5600TIP3   OH216805   1.680   5.507   2.048 -0.6350  0.0083 -0.0280
 5600TIP3    H116806   1.586   5.509   2.028 -0.7148 -1.2059  0.1290
 5600TIP3    H216807   1.683   5.491   2.143 -0.2991 -2.0285 -0.3432
 5601TIP3   OH216808   4.147   4.021   0.432 -0.2598 -0.1487 -0.1559
 5601TIP3    H116809   4.127   3.950   0.492 -0.3465 -1.5820 -1.8042
 5601TIP3    H216810   4.242   4.028   0.434 -0.3003  0.2687  0.6264
 5602TIP3   OH216811   4.913   1.580   0.695 -0.0429  0.3853  0.5760
 5602TIP3    H116812   4.962   1.503   0.724  0.3660  0.7694  0.9138
 5602TIP3    H216813   4.957   1.607   0.614  0.6426  1.0406  1.1558
 5603TIP3   OH216814   5.646   5.421   4.065  0.6098 -0.1650 -0.1017
 5603TIP3    H116815   5.685   5.508   4.079  2.3908 -1.1857  2.0274
 5603TIP3    H216816   5.654   5.378   4.150 -2.1260 -1.7498 -0.5284
 5604TIP3   OH216817   3.269   3.736   4.551 -0.0717 -0.3680 -0.4714
 5604TIP3    H116818   3.266   3.669   4.620  1.8546 -1.8982 -1.7505
 5604TIP3    H216819   3.186   3.727   4.505 -0.6756 -0.4823  0.5977
 5605TIP3   OH216820   1.125   0.062   4.971 -0.1304 -0.1563  0.3597
 5605TIP3    H116821   1.185   0.083   5.043  2.2724 -1.7716 -0.9966
 5605TIP3    H216822   1.115  -0.033   4.976 -0.4625 -0.2157 -1.0139
 5606TIP3   OH216823   3.043   2.400   3.875 -0.4532  0.2897 -0.3004
 5606TIP3    H116824   3.013   2.457   3.804 -1.2704 -3.2764 -3.1351
 5606TIP3    H216825   2.962   2.376   3.921 -0.0562  1.6755  1.2062
 5607TIP3   OH216826   6.011   3.754   3.503 -1.2163 -0.4983 -0.7266
 5607TIP3    H116827   6.037   3.662   3.497 -0.5303 -0.3105 -0.6506
 5607TIP3    H216828   6.006   3.784   3.412  1.1306  0.0914 -0.7266
 5608TIP3   OH216829   1.535   2.514   4.427  0.3963  0.1870  0.2457
 5608TIP3    H116830   1.463   2.451   4.427 -0.3103  0.9572 -1.1072
 5608TIP3    H216831   1.499   2.592   4.470  1.0074 -0.0302  1.1811
 5609TIP3   OH216832   3.889   5.673   4.632  0.6964 -0.5904 -0.3620
 5609TIP3    H116833   3.876   5.578   4.632  0.2856 -0.5556  0.9083
 5609TIP3    H216834   3.944   5.690   4.708 -0.8268  0.3489  0.5966
 5610TIP3   OH216835   0.102   0.502   1.852 -0.0679 -0.1005 -0.4343
 5610TIP3    H116836   0.171   0.465   1.906  0.0420 -0.0079 -0.5106
 5610TIP3    H216837   0.132   0.591   1.831 -1.6579  1.2117  2.2448
 5611TIP3   OH216838   1.210   3.240   5.125 -0.0082  0.5062 -0.0201
 5611TIP3    H116839   1.220   3.157   5.078 -2.0934  0.9464 -1.3318
 5611TIP3    H216840   1.119   3.239   5.156  0.1148  2.0675  0.4434
 5612TIP3   OH216841   6.334   4.114   0.289  0.5466 -0.3904  0.3018
 5612TIP3    H116842   6.289   4.054   0.230  1.1586 -1.4562  0.8782
 5612TIP3    H216843   6.266   4.144   0.350 -0.0950  0.7499 -0.9235
 5613TIP3   OH216844   4.481   4.362   0.020  0.0537  0.0847 -0.6106
 5613TIP3    H116845   4.395   4.399  -0.001 -0.2913 -0.5259 -0.3156
 5613TIP3    H216846   4.489   4.374   0.115  0.8838  1.3412 -0.8201
 5614TIP3   OH216847   3.501   4.311   0.806  0.5097  0.2538  0.3210
 5614TIP3    H116848   3.466   4.400   0.808 -0.8973 -0.2079 -1.3267
 5614TIP3    H216849   3.550   4.307   0.723  0.2145 -0.6070  0.1770
 5615TIP3   OH216850   2.877   4.723   1.408 -0.1874  0.2590 -0.3270
 5615TIP3    H116851   2.801   4.777   1.389 -0.9992 -0.8577 -0.3690
 5615TIP3    H216852   2.847   4.633   1.393  0.8800 -0.2624  0.4910
 5616TIP3   OH216853   4.396   5.874   0.482  0.3187 -1.0604  0.2602
 5616TIP3    H116854   4.490   5.885   0.495  0.5563 -2.2774 -0.2428
 5616TIP3    H216855   4.377   5.788   0.521 -0.5581 -0.8766  0.2520
 5617TIP3   OH216856   1.782   1.962   3.152 -0.9094  0.0184  0.0698
 5617TIP3    H116857   1.720   2.034   3.164  0.7922  1.4327  0.7561
 5617TIP3    H216858   1.861   1.991   3.197  0.0744 -1.9870 -0.2713
 5618TIP3   OH216859   6.031   1.431   1.810  0.2111 -0.2015 -0.1268
 5618TIP3    H116860   6.053   1.514   1.852  0.3635 -1.1334  1.7577
 5618TIP3    H216861   5.952   1.450   1.760 -0.6162  0.7659  1.4575
 5619TIP3   OH216862   4.176   5.501   0.706  0.2157 -0.2457 -0.2358
 5619TIP3    H116863   4.194   5.472   0.616 -0.1651  0.2729 -0.4798
 5619TIP3    H216864   4.248   5.560   0.727 -0.0818  0.2000 -0.4630
 5620TIP3   OH216865   4.607   2.478   3.156  0.0953 -0.5035 -0.1367
 5620TIP3    H116866   4.688   2.447   3.195  0.3131 -0.3320 -0.4480
 5620TIP3    H216867   4.539   2.422   3.194  0.2927 -0.3025  0.5271
 5621TIP3   OH216868   3.465   2.421   0.591  0.4180  0.1583  0.2812
 5621TIP3    H116869   3.474   2.328   0.570 -0.0806  0.1904 -0.1018
 5621TIP3    H216870   3.539   2.440   0.649  1.2302 -0.1965 -0.6038
 5622TIP3   OH216871   1.092   3.238   2.999  0.1257  0.7504 -0.2996
 5622TIP3    H116872   1.182   3.263   3.017  0.0769  0.1750  0.7867
 5622TIP3    H216873   1.048   3.321   2.978  0.9132  1.0210 -0.9377
 5623TIP3   OH216874   5.317   5.273   0.351  0.2124  0.2738 -0.1680
 5623TIP3    H116875   5.409   5.277   0.325  0.0452  1.6685 -0.6455
 5623TIP3    H216876   5.320   5.275   0.447  0.6635  2.3350 -0.1778
 5624TIP3   OH216877   0.419   5.483   0.800 -0.6884 -0.1310 -0.0398
 5624TIP3    H116878   0.419   5.403   0.748 -0.3829  1.1030 -2.0277
 5624TIP3    H216879   0.335   5.482   0.845  0.1195 -2.5410  1.6571
 5625TIP3   OH216880   3.876   1.310   2.233 -0.1951  0.3174 -0.4018
 5625TIP3    H116881   3.932   1.358   2.172  0.5687 -1.1930 -0.9393
 5625TIP3    H216882   3.792   1.301   2.187 -0.1889  0.7199 -0.4920
 5626TIP3   OH216883   0.761   4.326   3.989 -0.1785 -0.0081  0.2577
 5626TIP3    H116884   0.698   4.258   3.966 -0.5037  0.2649  0.3427
 5626TIP3    H216885   0.746   4.344   4.081 -0.2434  0.3342  0.1841
 5627TIP3   OH216886   5.297   5.318   4.001  0.2276  0.3909  0.4756
 5627TIP3    H116887   5.253   5.329   3.917 -1.5633 -4.5864  0.4120
 5627TIP3    H216888   5.388   5.301   3.979 -0.0835 -0.1635 -0.4290
 5628TIP3   OH216889   3.155   2.264   4.918  0.3675 -0.2847  0.5838
 5628TIP3    H116890   3.078   2.235   4.967 -0.9589  1.5785 -0.2658
 5628TIP3    H216891   3.214   2.298   4.985 -0.3381 -0.0728  1.1100
 5629TIP3   OH216892   4.340   2.435   2.866 -0.1246 -0.1269  0.3703
 5629TIP3    H116893   4.362   2.528   2.873 -0.1458 -0.0192 -0.7743
 5629TIP3    H216894   4.425   2.391   2.860 -0.0982 -0.2452  1.5063
 5630TIP3   OH216895   1.877   5.242   5.039  0.5448 -0.0069 -0.0869
 5630TIP3    H116896   1.839   5.265   4.954 -1.0905 -0.7576  0.4021
 5630TIP3    H216897   1.926   5.319   5.065 -0.0212  0.7236 -1.1216
 5631TIP3   OH216898   6.272   5.418   1.057  0.0093 -0.0472 -0.1334
 5631TIP3    H116899   6.202   5.391   1.116 -0.0793  0.6108  0.0735
 5631TIP3    H216900   6.255   5.511   1.041  0.1058 -0.1894 -1.1031
 5632TIP3   OH216901   6.307   2.266   4.444 -0.0551 -0.1924  0.0508
 5632TIP3    H116902   6.312   2.307   4.530 -1.2782 -0.4066  0.2412
 5632TIP3    H216903   6.216   2.237   4.437  0.0069 -0.1009 -1.3510
 5633TIP3   OH216904   0.326   0.519   3.950  0.3026 -0.5620 -0.6162
 5633TIP3    H116905   0.401   0.516   4.009  0.7046 -2.9782 -1.1640
 5633TIP3    H216906   0.277   0.597   3.978  1.3967 -0.6247  1.7033
 5634TIP3   OH216907   1.680   2.919   3.746  0.3319  0.1948  0.4606
 5634TIP3    H116908   1.590   2.888   3.732 -0.2299  1.2076  1.6060
 5634TIP3    H216909   1.735   2.845   3.721 -0.7320  0.1072 -1.8373
 5635TIP3   OH216910   2.874   1.830   2.954 -0.3644  0.3047  0.1065
 5635TIP3    H116911   2.964   1.864   2.953  0.1304 -0.8050 -2.5235
 5635TIP3    H216912   2.858   1.807   3.045  2.5733 -0.7854  0.4491
 5636TIP3   OH216913   2.398   1.143   1.553 -0.0168  0.3686 -0.1567
 5636TIP3    H116914   2.344   1.102   1.619 -0.2444  0.7568 -0.0973
 5636TIP3    H216915   2.467   1.080   1.535  1.0067  0.9037  1.6450
 5637TIP3   OH216916   4.702   3.873   2.203 -0.4769  0.0757  0.4109
 5637TIP3    H116917   4.691   3.872   2.298  1.4373 -0.0463  0.6769
 5637TIP3    H216918   4.699   3.780   2.178 -0.1747  0.0485  0.4717
 5638TIP3   OH216919   1.022   3.977   0.914 -0.0167 -0.6627 -0.4867
 5638TIP3    H116920   0.946   3.934   0.953 -0.1252  0.9837  1.2930
 5638TIP3    H216921   0.984   4.047   0.860  0.1274  1.2801  1.7543
 5639TIP3   OH216922   4.758   5.140   1.358 -0.0001  0.1798 -0.0056
 5639TIP3    H116923   4.696   5.121   1.288  0.1681 -0.8937  0.1316
 5639TIP3    H216924   4.719   5.101   1.436  0.2458  0.5891  0.3270
 5640TIP3   OH216925   2.865   0.680   0.982 -0.0234 -0.1483  0.1584
 5640TIP3    H116926   2.916   0.648   1.056  1.1384  0.1967 -0.4615
 5640TIP3    H216927   2.834   0.601   0.938 -0.8250 -0.3505  1.0715
 5641TIP3   OH216928   4.791   0.786   1.436  0.4185 -0.4371 -0.1575
 5641TIP3    H116929   4.756   0.834   1.361  0.3385 -1.2484 -0.6529
 5641TIP3    H216930   4.886   0.788   1.423  0.5455  1.0800  0.7644
 5642TIP3   OH216931   5.336   4.264   1.368 -0.8864 -0.2345  0.9409
 5642TIP3    H116932   5.263   4.244   1.310 -0.0210 -0.7665 -0.0003
 5642TIP3    H216933   5.409   4.211   1.334  0.0567  0.6333  1.5579
 5643TIP3   OH216934   5.305   1.561   3.534 -0.1022  0.5738 -0.0660
 5643TIP3    H116935   5.247   1.512   3.593 -0.5470  0.5449 -0.5182
 5643TIP3    H216936   5.275   1.652   3.542  1.4029  0.9778  1.5732
 5644TIP3   OH216937   2.947   2.483   4.411  0.2176  0.2373 -0.7934
 5644TIP3    H116938   2.943   2.552   4.477  0.8199 -0.2268 -0.2620
 5644TIP3    H216939   2.873   2.426   4.430 -0.0075  0.4789 -0.9447
 5645TIP3   OH216940   0.585   4.556   1.568  0.6207 -0.5440  0.3177
 5645TIP3    H116941   0.525   4.482   1.577  0.7253 -0.4551  2.1027
 5645TIP3    H216942   0.529   4.629   1.539  0.4365 -1.1782 -0.9879
 5646TIP3   OH216943   1.645   4.742   0.392 -0.4986  0.3743  0.1358
 5646TIP3    H116944   1.612   4.823   0.354 -1.4807 -0.1494 -0.1672
 5646TIP3    H216945   1.678   4.767   0.479 -0.3434  1.1748 -0.1513
 5647TIP3   OH216946   6.011   5.664   0.789  0.4304  0.5017  0.2443
 5647TIP3    H116947   5.981   5.745   0.748 -0.1155 -0.0139 -0.4018
 5647TIP3    H216948   5.935   5.634   0.840  0.7665  0.6071  0.8121
 5648TIP3   OH216949   1.088   2.453   2.535  0.5548  0.6043  0.5541
 5648TIP3    H116950   1.032   2.461   2.612  0.6696 -1.9538  0.9928
 5648TIP3    H216951   1.164   2.507   2.554 -0.5592  2.0899  1.0488
 5649TIP3   OH216952   2.585   3.515  -0.010 -0.5257 -0.3024  0.1271
 5649TIP3    H116953   2.626   3.563   0.061 -3.2302  1.1729  0.8592
 5649TIP3    H216954   2.515   3.465   0.032  0.0267 -2.2088 -1.0949
 5650TIP3   OH216955   4.906   4.157   4.924  0.1335  0.1499 -0.2188
 5650TIP3    H116956   4.991   4.184   4.892  0.6760 -0.5053  0.6205
 5650TIP3    H216957   4.870   4.101   4.855  0.8628 -0.4534 -0.1177
 5651TIP3   OH216958   2.113   1.881   0.364 -0.0464 -0.0874 -0.1514
 5651TIP3    H116959   2.129   1.909   0.274  0.9693 -1.5468 -0.4695
 5651TIP3    H216960   2.175   1.809   0.378  1.6002  1.6653  2.5367
 5652TIP3   OH216961   5.632   1.973   0.885  0.2652 -0.2920  0.5352
 5652TIP3    H116962   5.615   2.067   0.877 -1.0694 -0.3853  1.8516
 5652TIP3    H216963   5.722   1.967   0.918 -0.1322  0.6061  1.8459
 5653TIP3   OH216964   5.371   5.403   1.755 -0.1160  0.3230 -0.8668
 5653TIP3    H116965   5.285   5.368   1.733 -0.3130  1.0636 -1.3316
 5653TIP3    H216966   5.433   5.343   1.716 -0.3712 -1.0119  0.6665
 5654TIP3   OH216967   4.678   2.845   1.674  0.2021 -0.1658 -0.5317
 5654TIP3    H116968   4.757   2.792   1.669 -1.7998 -3.7502  1.9431
 5654TIP3    H216969   4.662   2.871   1.583  4.1146  0.8489 -1.1319
 5655TIP3   OH216970   5.341   1.161   1.633 -0.4989  0.1624 -0.1768
 5655TIP3    H116971   5.356   1.217   1.709  1.8159 -0.4645 -0.1137
 5655TIP3    H216972   5.346   1.072   1.667  0.6273 -0.1274 -1.0463
 5656TIP3   OH216973   5.331   1.914   3.656 -0.4046 -0.5179  0.1450
 5656TIP3    H116974   5.393   1.966   3.605  0.9812 -1.8578  0.3693
 5656TIP3    H216975   5.246   1.929   3.615  0.2842  0.3359 -1.0079
 5657TIP3   OH216976   1.875   3.030   2.448 -0.4403  1.0060 -0.2343
 5657TIP3    H116977   1.833   2.952   2.411 -0.8632  0.6913  0.8465
 5657TIP3    H216978   1.835   3.039   2.534  2.2548  0.2103  1.2330
 5658TIP3   OH216979   1.220   2.067   4.233  0.3812  0.0094  0.0735
 5658TIP3    H116980   1.188   2.107   4.313  1.9787  0.0354  0.7456
 5658TIP3    H216981   1.314   2.053   4.249  0.2758 -2.2571 -0.8422
 5659TIP3   OH216982   3.779   2.418   4.545  0.2949  0.1866  0.0888
 5659TIP3    H116983   3.686   2.441   4.551 -0.3634 -2.0644 -0.3378
 5659TIP3    H216984   3.806   2.406   4.636  0.3011  1.2618  0.2389
 5660TIP3   OH216985   4.060   1.238   3.035  0.4650 -0.1930  0.1788
 5660TIP3    H116986   4.068   1.317   2.981 -0.6324 -1.0278 -1.2862
 5660TIP3    H216987   3.967   1.234   3.057  0.4998 -1.0980  0.1839
 5661TIP3   OH216988   1.740   4.104   4.947  0.3259 -0.0019 -0.1776
 5661TIP3    H116989   1.704   4.050   5.018  1.6676 -2.0996 -1.0038
 5661TIP3    H216990   1.792   4.043   4.895  0.8647  1.8694 -1.9363
 5662TIP3   OH216991   5.557   0.335   3.237 -0.2742  0.3896 -1.0623
 5662TIP3    H116992   5.556   0.386   3.157 -0.0361 -0.5139 -1.6607
 5662TIP3    H216993   5.489   0.374   3.292  0.3563  1.7530 -1.2133
 5663TIP3   OH216994   3.962   1.795   0.235  0.3471 -0.3952  0.4181
 5663TIP3    H116995   4.019   1.768   0.307 -0.5304 -1.4067  0.7600
 5663TIP3    H216996   3.886   1.834   0.278  0.6720  0.7603 -0.0273
 5664TIP3   OH216997   2.699   1.951   0.348 -0.1612 -0.1834  0.1260
 5664TIP3    H116998   2.620   1.903   0.374  0.5325 -2.6956 -1.8878
 5664TIP3    H216999   2.726   1.998   0.427 -2.2671 -1.2454  1.5867
 5665TIP3   OH217000   5.757   2.204   4.917  0.4100 -0.1690  0.3775
 5665TIP3    H117001   5.712   2.251   4.847  0.9982 -0.8541 -0.4822
 5665TIP3    H217002   5.845   2.241   4.918  0.7614 -0.9550 -0.0532
 5666TIP3   OH217003   2.724   2.937   0.345 -0.2836 -0.2096 -0.4695
 5666TIP3    H117004   2.757   2.982   0.267 -2.5533  1.3032 -0.6749
 5666TIP3    H217005   2.686   2.856   0.311  0.8980 -0.7218 -0.5808
 5667TIP3   OH217006   3.558   1.801   0.897  0.5101 -0.1547 -0.1410
 5667TIP3    H117007   3.554   1.756   0.981  3.1857 -1.0576 -0.4147
 5667TIP3    H217008   3.533   1.734   0.833 -1.9150  0.6328 -0.1444
 5668TIP3   OH217009   5.398   4.536   0.195  0.0583  0.1200  0.0699
 5668TIP3    H117010   5.343   4.488   0.258  1.0515 -0.4817  0.5059
 5668TIP3    H217011   5.367   4.626   0.200 -0.1043  0.0174  1.2027
 5669TIP3   OH217012   1.806   1.465   5.129  0.4437 -0.3438 -0.4562
 5669TIP3    H117013   1.803   1.497   5.219  1.2236 -1.9428  0.1686
 5669TIP3    H217014   1.850   1.380   5.135  0.4072 -0.5319 -2.3337
 5670TIP3   OH217015   1.299   3.711   3.390  0.6409 -0.4692  0.2219
 5670TIP3    H117016   1.242   3.729   3.464  0.1984  1.1386 -0.4631
 5670TIP3    H217017   1.247   3.656   3.332  0.4776 -0.5773  0.4749
 5671TIP3   OH217018   3.322   1.292   2.605 -0.1258  0.1967  0.1410
 5671TIP3    H117019   3.255   1.327   2.547 -1.1399  0.7527  1.5722
 5671TIP3    H217020   3.278   1.284   2.690  1.4264 -0.0881  0.9602
 5672TIP3   OH217021   1.253   5.892   0.312  0.2082  0.2789  0.4633
 5672TIP3    H117022   1.334   5.876   0.361  1.5706  0.5294 -1.5689
 5672TIP3    H217023   1.213   5.806   0.301 -0.2293  0.2425  2.1149
 5673TIP3   OH217024   4.334   5.514   0.325 -0.8239 -0.3733 -0.3353
 5673TIP3    H117025   4.373   5.436   0.364 -1.7799  0.4401  2.5169
 5673TIP3    H217026   4.241   5.508   0.347 -0.8279  1.8077  0.4424
 5674TIP3   OH217027   3.865   4.572   0.287 -0.3300  0.0474  0.0510
 5674TIP3    H117028   3.949   4.617   0.292  0.8898 -1.9428 -1.2110
 5674TIP3    H217029   3.816   4.603   0.364  1.1994  1.8949  0.3413
 5675TIP3   OH217030   1.249   5.044   2.071 -0.2461  0.9390  0.2131
 5675TIP3    H117031   1.296   4.989   2.008  2.0209  2.7416  0.2150
 5675TIP3    H217032   1.175   5.079   2.021  0.0013  0.2556 -0.6607
 5676TIP3   OH217033   6.159   2.760   1.581 -0.0083 -0.3356 -0.0121
 5676TIP3    H117034   6.108   2.825   1.628 -0.3117 -0.0511 -0.7117
 5676TIP3    H217035   6.165   2.686   1.641  0.5614  0.4183  0.8939
 5677TIP3   OH217036   6.345   0.922   4.427 -0.2258 -0.0503 -0.3343
 5677TIP3    H117037   6.402   0.964   4.363  0.2281  0.7329  0.5467
 5677TIP3    H217038   6.257   0.947   4.400 -0.0814 -0.2231 -0.9865
 5678TIP3   OH217039   0.435   1.639   2.666 -0.3795  0.0658  0.1306
 5678TIP3    H117040   0.461   1.571   2.727 -0.4738 -0.3792 -0.3215
 5678TIP3    H217041   0.486   1.621   2.587 -2.4808 -1.2271 -1.0282
 5679TIP3   OH217042   3.566   2.166   3.215 -0.1665 -0.7267 -0.3083
 5679TIP3    H117043   3.575   2.223   3.139 -0.8354 -1.3481 -0.8571
 5679TIP3    H217044   3.644   2.184   3.268  0.6841 -0.8428 -1.4994
 5680TIP3   OH217045   1.909   1.682   5.015  0.3623 -0.0272 -0.2141
 5680TIP3    H117046   1.872   1.603   5.053  1.5968 -0.7319 -0.4409
 5680TIP3    H217047   1.933   1.736   5.091  0.8418 -0.4926 -0.0328
 5681TIP3   OH217048   6.034   4.079   3.111  0.1656  0.3905  1.1911
 5681TIP3    H117049   6.082   4.070   3.193 -0.0918 -1.5117  1.1927
 5681TIP3    H217050   5.979   4.001   3.107 -3.1720  2.5661  1.2700
 5682TIP3   OH217051   5.379   0.136   1.532 -0.0164  0.1332 -0.2061
 5682TIP3    H117052   5.374   0.068   1.465 -1.4468  0.1890 -0.1900
 5682TIP3    H217053   5.424   0.094   1.605  1.9746  0.2074 -1.3125
 5683TIP3   OH217054   0.561   2.040   2.077  0.3795  0.4715  0.4035
 5683TIP3    H117055   0.622   2.106   2.047  1.1673 -0.2896  0.2875
 5683TIP3    H217056   0.589   1.959   2.034  0.6390 -0.3422  2.0174
 5684TIP3   OH217057   0.051   0.180   3.744  0.3285  0.1496  0.1164
 5684TIP3    H117058   0.131   0.227   3.768  0.3827 -0.3992  1.0819
 5684TIP3    H217059   0.011   0.158   3.828 -1.1265  0.8822 -0.3544
 5685TIP3   OH217060   5.486   0.928   4.051 -0.4774  0.3569 -0.1404
 5685TIP3    H117061   5.422   0.860   4.071 -1.2532  1.1538  0.1531
 5685TIP3    H217062   5.539   0.891   3.980  0.1210 -1.1597  1.0525
 5686TIP3   OH217063   3.541   3.524   3.308  0.5886 -0.3002  0.1499
 5686TIP3    H117064   3.599   3.536   3.233 -1.7630  0.2475 -1.7485
 5686TIP3    H217065   3.490   3.446   3.287  0.6083 -0.7622  1.7130
 5687TIP3   OH217066   5.630   4.194   4.691 -0.7884 -0.0287  0.0119
 5687TIP3    H117067   5.689   4.132   4.735 -0.8259 -0.8424 -1.0222
 5687TIP3    H217068   5.567   4.220   4.758  0.1262  0.0643  0.8686
 5688TIP3   OH217069   4.500   1.491   4.045 -0.4932  0.2746 -0.0206
 5688TIP3    H117070   4.509   1.586   4.046 -1.3440  0.3672  0.8866
 5688TIP3    H217071   4.542   1.462   4.126 -1.2154  0.0016  0.2723
 5689TIP3   OH217072   3.471   3.773   2.457  0.0026  0.1374 -0.2306
 5689TIP3    H117073   3.471   3.783   2.362  0.9045  0.5879 -0.1918
 5689TIP3    H217074   3.388   3.811   2.485 -0.2387  0.0584 -0.8321
 5690TIP3   OH217075   5.887   0.759   3.043 -0.2790  0.1181 -0.6083
 5690TIP3    H117076   5.882   0.854   3.059 -0.8183 -0.2596  1.7634
 5690TIP3    H217077   5.800   0.737   3.009 -0.5559  0.2822 -0.0130
 5691TIP3   OH217078   1.293   4.277   3.999  0.6829  0.4809  0.5288
 5691TIP3    H117079   1.326   4.303   3.913  0.8563 -0.2524  0.3674
 5691TIP3    H217080   1.339   4.196   4.019 -0.9519 -0.5532  0.3269
 5692TIP3   OH217081   0.362   4.301   2.547  0.2733 -0.5522 -0.4699
 5692TIP3    H117082   0.426   4.372   2.537 -0.4102 -0.0500 -1.3376
 5692TIP3    H217083   0.395   4.231   2.491  1.0562 -1.0334  0.5394
 5693TIP3   OH217084   0.043   2.038   2.342 -0.0592 -0.0500 -0.1886
 5693TIP3    H117085   0.075   1.970   2.283 -0.2394 -0.2283 -0.0826
 5693TIP3    H217086   0.013   1.990   2.420  2.3651  0.3154  1.0892
 5694TIP3   OH217087   1.414   1.601   3.219 -0.7833  0.2614 -0.1162
 5694TIP3    H117088   1.423   1.585   3.313  0.8634 -0.7502 -0.3980
 5694TIP3    H217089   1.389   1.693   3.212 -0.8627  0.3625  1.3024
 5695TIP3   OH217090   0.407   0.178   0.124 -0.2938 -0.0152  0.5119
 5695TIP3    H117091   0.497   0.164   0.094 -0.3817 -0.4790  0.4624
 5695TIP3    H217092   0.413   0.178   0.220 -0.1421  0.6338  0.5110
 5696TIP3   OH217093   2.019   3.630   2.753  0.0547 -0.3290 -0.1561
 5696TIP3    H117094   2.034   3.601   2.663  1.6268 -0.2238  0.0455
 5696TIP3    H217095   2.011   3.725   2.747  3.8139  0.1858  0.1212
 5697TIP3   OH217096   0.246   1.891   5.035  0.4910  0.2942 -0.7355
 5697TIP3    H117097   0.310   1.958   5.011  0.5581  1.8033  2.9213
 5697TIP3    H217098   0.206   1.924   5.116 -4.1111 -1.1414 -2.1206
 5698TIP3   OH217099   5.076   4.990   2.967  0.2271  0.5212  0.4120
 5698TIP3    H117100   5.171   4.977   2.963  0.6113  3.0852 -0.7663
 5698TIP3    H217101   5.061   5.034   3.050  0.2331  1.1060  0.1073
 5699TIP3   OH217102   2.121   2.442   0.008  0.0100  0.2921 -0.6146
 5699TIP3    H117103   2.152   2.401   0.088  2.3828  1.5795 -0.7731
 5699TIP3    H217104   2.116   2.535   0.029 -0.1933  0.5413 -1.6979
 5700TIP3   OH217105   3.006   1.929   4.326  0.8225  0.0267 -0.1618
 5700TIP3    H117106   2.932   1.904   4.271  2.1946 -0.4673 -1.8872
 5700TIP3    H217107   3.004   2.025   4.327 -0.4116  0.0084  0.6757
 5701TIP3   OH217108   4.268   4.475   3.361 -0.2816 -0.7408  0.2312
 5701TIP3    H117109   4.219   4.524   3.295 -0.5699 -2.5489 -0.9792
 5701TIP3    H217110   4.209   4.472   3.436 -0.1854  0.8658  0.4030
 5702TIP3   OH217111   4.789   1.727   0.127  0.2436 -0.2842  0.3968
 5702TIP3    H117112   4.783   1.633   0.110 -2.3272 -0.1713  0.3260
 5702TIP3    H217113   4.810   1.733   0.220  1.4112 -0.9013  0.1878
 5703TIP3   OH217114   5.567   4.612   0.910 -0.0710 -0.3535  0.0296
 5703TIP3    H117115   5.563   4.650   0.998  0.3252 -0.6275  0.1681
 5703TIP3    H217116   5.534   4.523   0.921  0.9203 -0.7267  0.1005
 5704TIP3   OH217117   2.333   0.373   2.899  0.0281 -0.1080 -0.4343
 5704TIP3    H117118   2.383   0.294   2.921  1.7764  1.2570  0.7299
 5704TIP3    H217119   2.385   0.417   2.833 -0.3037  0.6678 -0.1884
 5705TIP3   OH217120   1.447   4.551   4.728 -0.0967  0.2033 -0.1196
 5705TIP3    H117121   1.429   4.539   4.635  0.0534 -2.3621  0.1308
 5705TIP3    H217122   1.361   4.572   4.767 -0.1059  1.5954 -0.8408
 5706TIP3   OH217123   3.878   3.724   1.559 -0.0491  0.1917  0.0597
 5706TIP3    H117124   3.832   3.640   1.563  1.9598 -1.0883 -1.6477
 5706TIP3    H217125   3.911   3.737   1.648  0.5434 -1.4107  0.1117
 5707TIP3   OH217126   5.886   3.319   3.738  0.2578  0.0750 -0.6962
 5707TIP3    H117127   5.903   3.399   3.787  1.2120 -0.8118  0.4923
 5707TIP3    H217128   5.797   3.294   3.763  1.2792 -1.2710  2.0831
 5708TIP3   OH217129   0.098   0.856   2.537 -0.1873 -0.3065 -0.6029
 5708TIP3    H117130   0.013   0.898   2.522 -0.3850 -0.4383  0.1357
 5708TIP3    H217131   0.112   0.862   2.631  0.7625 -0.0258 -0.7520
 5709TIP3   OH217132   4.755   4.012   1.036 -0.4841 -0.3685  0.4011
 5709TIP3    H117133   4.679   3.959   1.061 -0.7984 -0.3180 -0.4184
 5709TIP3    H217134   4.811   4.011   1.113 -0.1671 -2.4389  0.2233
 5710TIP3   OH217135   2.106   3.459   5.109 -0.0561  0.0898 -0.2375
 5710TIP3    H117136   2.041   3.520   5.075  0.4127  0.6976 -0.0538
 5710TIP3    H217137   2.137   3.499   5.190 -1.2878 -1.4323  1.0458
 5711TIP3   OH217138   4.378   5.310   3.008  0.0777 -0.2740 -0.1159
 5711TIP3    H117139   4.299   5.362   2.993 -0.4045 -1.2886 -1.2800
 5711TIP3    H217140   4.346   5.221   3.020  1.0478 -0.7426 -0.8732
 5712TIP3   OH217141   4.992   0.175   3.308  0.1750  0.5045  0.8551
 5712TIP3    H117142   5.066   0.128   3.269  0.0693  0.6745  0.4372
 5712TIP3    H217143   4.917   0.117   3.295 -0.3186  1.5002 -1.2944
 5713TIP3   OH217144   2.497   2.950   0.663  0.3426 -0.2433  0.0226
 5713TIP3    H117145   2.562   2.916   0.725  0.6671  1.2534  0.5532
 5713TIP3    H217146   2.537   3.030   0.629 -0.8545  0.2225 -0.3140
 5714TIP3   OH217147   2.396   2.693   0.879 -0.2230  0.1957  0.5115
 5714TIP3    H117148   2.474   2.646   0.909  0.1961 -0.8924 -2.0637
 5714TIP3    H217149   2.407   2.782   0.912  1.3149 -0.3296  1.5133
 5715TIP3   OH217150   1.635   0.536   3.892  0.1674  0.0652  0.6239
 5715TIP3    H117151   1.568   0.492   3.839  0.2937  0.3543  0.2163
 5715TIP3    H217152   1.627   0.496   3.979 -2.3832  1.9363  1.3754
 5716TIP3   OH217153   0.658   1.833   4.556 -0.2260  0.0092  0.0740
 5716TIP3    H117154   0.748   1.801   4.549  0.4995  1.6335  1.2181
 5716TIP3    H217155   0.619   1.813   4.471  1.8247  0.9435 -1.1647
 5717TIP3   OH217156   5.424   5.609   0.672 -1.0734  0.1602  0.2503
 5717TIP3    H117157   5.518   5.623   0.657 -1.1756  0.1094 -0.4548
 5717TIP3    H217158   5.382   5.684   0.631 -1.3431  0.2480  0.6757
 5718TIP3   OH217159   1.364   3.689   3.965  0.2938  0.0378  0.2977
 5718TIP3    H117160   1.292   3.746   3.935  0.6643 -0.0610 -0.8409
 5718TIP3    H217161   1.439   3.747   3.971  0.1508  0.1268  1.4270
 5719TIP3   OH217162   0.070   0.998   5.092  0.0552  0.2978 -0.1069
 5719TIP3    H117163   0.116   1.062   5.147  1.3583 -1.4797  0.9929
 5719TIP3    H217164  -0.022   1.018   5.103  0.3679  1.0022  1.5070
 5720TIP3   OH217165   6.281   3.750   2.568  0.1520  0.1537 -0.1646
 5720TIP3    H117166   6.283   3.845   2.579  0.8558  0.0299  1.0193
 5720TIP3    H217167   6.204   3.723   2.619 -0.1845  0.1019 -0.6942
 5721TIP3   OH217168   3.963   3.542   4.942 -0.2342  0.4382  0.0385
 5721TIP3    H117169   3.943   3.558   4.850 -2.8241  2.8395  0.8654
 5721TIP3    H217170   3.986   3.629   4.977  1.3155 -0.5182  1.5666
 5722TIP3   OH217171   0.117   5.676   4.296  0.8172  0.3206 -0.7000
 5722TIP3    H117172   0.120   5.744   4.228 -0.6605 -0.0234 -1.1430
 5722TIP3    H217173   0.112   5.725   4.378  0.9485  0.7450 -0.9384
 5723TIP3   OH217174   3.432   3.291   4.128 -0.0642  0.3354  0.5006
 5723TIP3    H117175   3.373   3.237   4.076  1.7033 -1.4750  0.2628
 5723TIP3    H217176   3.377   3.326   4.198 -1.8533  0.4688 -0.8848
 5724TIP3   OH217177   2.240   2.832   3.037 -0.3513 -0.2895  0.3225
 5724TIP3    H117178   2.294   2.880   3.098  0.7360 -0.9542 -0.0845
 5724TIP3    H217179   2.216   2.752   3.084 -0.2900 -0.3728  0.2132
 5725TIP3   OH217180   1.690   3.575   4.114 -0.3622 -0.1665 -0.8714
 5725TIP3    H117181   1.713   3.487   4.086 -0.3053  0.0783 -1.6212
 5725TIP3    H217182   1.598   3.569   4.140 -0.0684 -0.6725  0.0962
 5726TIP3   OH217183   0.228   3.177   2.097 -0.5663  0.9763 -0.1713
 5726TIP3    H117184   0.192   3.188   2.009  1.9098  1.6243 -1.1704
 5726TIP3    H217185   0.280   3.097   2.092 -0.8452  0.7090  0.8972
 5727TIP3   OH217186   2.372   1.953   0.653 -0.5897  0.0297  0.5386
 5727TIP3    H117187   2.459   1.976   0.684  0.0488 -1.7765  0.2186
 5727TIP3    H217188   2.375   1.858   0.640 -2.1084  0.1366 -1.0402
 5728TIP3   OH217189   1.968   1.516   0.693 -0.2029  0.2290 -0.3592
 5728TIP3    H117190   1.909   1.441   0.692 -1.0004  0.8479 -0.7561
 5728TIP3    H217191   1.985   1.534   0.600 -0.3791  0.8073 -0.2836
 5729TIP3   OH217192   2.760   4.091   0.292 -0.0583  0.4119  0.2879
 5729TIP3    H117193   2.705   4.150   0.240  0.2111 -0.5254 -1.1167
 5729TIP3    H217194   2.721   4.004   0.278 -0.3699  0.1988  2.2050
 5730TIP3   OH217195   0.121   1.489   0.758 -0.0388  0.0728  0.4691
 5730TIP3    H117196   0.035   1.517   0.729 -0.3668  0.8452  2.0734
 5730TIP3    H217197   0.171   1.477   0.677 -1.5056  0.0308 -0.4704
 5731TIP3   OH217198   4.570   2.125   4.177 -0.0180  0.1265  0.0960
 5731TIP3    H117199   4.559   2.213   4.142  0.2575  0.8606  1.7583
 5731TIP3    H217200   4.655   2.096   4.144  0.9256  1.3824  1.3029
 5732TIP3   OH217201   1.534   5.878   1.516 -0.3454 -0.2544  0.0123
 5732TIP3    H117202   1.485   5.796   1.509 -0.3472 -0.2642  0.1347
 5732TIP3    H217203   1.622   5.851   1.543 -0.0892 -0.2887 -0.8336
 5733TIP3   OH217204   3.882   0.528   3.942 -0.1539 -0.3647  0.2707
 5733TIP3    H117205   3.971   0.494   3.950  0.8493  1.9145 -0.2949
 5733TIP3    H217206   3.850   0.533   4.032  1.3536  1.2899  0.7743
 5734TIP3   OH217207   5.992   1.351   4.147  0.4264 -0.2817 -0.7822
 5734TIP3    H117208   6.022   1.336   4.057  0.3323  0.7968 -1.0009
 5734TIP3    H217209   5.916   1.407   4.139  1.3599  1.1774  0.0345
 5735TIP3   OH217210   2.610   0.926   2.360 -0.6663 -0.7626  0.2012
 5735TIP3    H117211   2.592   0.953   2.270 -0.5420  1.2501  0.7119
 5735TIP3    H217212   2.546   0.858   2.379 -0.2837 -1.6694 -1.5826
 5736TIP3   OH217213   5.684   2.833   1.135  0.2613  0.0942 -0.2278
 5736TIP3    H117214   5.767   2.785   1.128  1.0587  1.3113  0.4659
 5736TIP3    H217215   5.710   2.923   1.153 -1.2339  0.3708  0.7403
 5737TIP3   OH217216   3.655   5.248   2.547 -0.2747 -0.3525  0.0093
 5737TIP3    H117217   3.714   5.240   2.622 -0.5585 -0.8599  0.1853
 5737TIP3    H217218   3.657   5.161   2.507 -1.3605 -0.5576  0.3642
 5738TIP3   OH217219   4.804   4.713   3.766  0.2228 -0.4056 -0.2260
 5738TIP3    H117220   4.818   4.807   3.769 -2.4804  0.1471 -1.4580
 5738TIP3    H217221   4.791   4.687   3.857  2.3852  0.0989  0.2675
 5739TIP3   OH217222   1.947   5.778   4.458  0.7719  0.3896 -0.4630
 5739TIP3    H117223   2.028   5.763   4.409 -0.2168 -1.2747 -1.6913
 5739TIP3    H217224   1.890   5.706   4.432 -0.3901  0.3438  1.9624
 5740TIP3   OH217225   0.561   5.318   3.318  0.5105  0.0682 -0.0639
 5740TIP3    H117226   0.641   5.276   3.350 -0.5514 -2.2107 -0.2119
 5740TIP3    H217227   0.491   5.257   3.341 -0.9393  0.9548 -1.8472
 5741TIP3   OH217228   5.013   5.431   1.327  0.0976  0.1909  0.0479
 5741TIP3    H117229   5.003   5.373   1.403 -0.0282  1.8800  1.3712
 5741TIP3    H217230   5.034   5.371   1.255 -0.4061 -1.5341  1.2529
 5742TIP3   OH217231   4.783   2.129   1.830 -0.1263  0.5146 -0.3040
 5742TIP3    H117232   4.728   2.082   1.767 -0.5493  0.1717  0.3106
 5742TIP3    H217233   4.827   2.060   1.879  0.9296  0.7825 -0.8367
 5743TIP3   OH217234   4.377   3.280   4.234  0.3271  0.1678  0.1994
 5743TIP3    H117235   4.355   3.191   4.262 -2.0465  0.5077 -0.3359
 5743TIP3    H217236   4.332   3.337   4.297 -0.5089  0.9413 -1.0470
 5744TIP3   OH217237   1.782   0.076   0.435  0.2094 -0.2046  0.1468
 5744TIP3    H117238   1.870   0.095   0.403  0.2128  0.0381  0.3015
 5744TIP3    H217239   1.739   0.161   0.440 -0.6723 -0.4922 -1.7327
 5745TIP3   OH217240   4.896   3.471   4.474  0.2032 -0.4211 -0.3017
 5745TIP3    H117241   4.907   3.543   4.412  2.7452 -0.6371 -0.2313
 5745TIP3    H217242   4.812   3.432   4.451  0.2432  0.6022 -2.4403
 5746TIP3   OH217243   2.066   3.619   1.987  0.0020 -0.2589  0.0896
 5746TIP3    H117244   1.998   3.665   2.035 -0.9219 -0.0943 -1.3224
 5746TIP3    H217245   2.084   3.541   2.040 -1.0588 -0.1350  0.6613
 5747TIP3   OH217246   0.167   2.350   1.622  0.1921 -0.3828  0.0059
 5747TIP3    H117247   0.203   2.429   1.583 -1.3259 -0.5499 -1.9020
 5747TIP3    H217248   0.141   2.296   1.547 -0.2382 -2.0156  1.2644
 5748TIP3   OH217249   0.874   4.584   1.640 -0.5251  0.1249 -0.1299
 5748TIP3    H117250   0.783   4.584   1.610 -1.0532  2.4248  1.2679
 5748TIP3    H217251   0.913   4.660   1.597  1.1396 -1.5196 -1.6655
 5749TIP3   OH217252   3.693   3.538   3.086 -0.5394 -0.1134  0.0773
 5749TIP3    H117253   3.705   3.631   3.067 -0.1399 -0.1363  0.2193
 5749TIP3    H217254   3.759   3.494   3.032 -1.9126 -0.4521 -1.3999
 5750TIP3   OH217255   1.671   3.469   0.486  0.3802  0.4898 -0.3463
 5750TIP3    H117256   1.678   3.547   0.540  0.6149  0.2615 -0.0395
 5750TIP3    H217257   1.735   3.408   0.524  0.1501  0.1258 -0.5375
 5751TIP3   OH217258   1.124   0.486   0.387  1.2112 -0.3044 -0.2865
 5751TIP3    H117259   1.082   0.570   0.407  1.4063 -0.1267 -0.6147
 5751TIP3    H217260   1.085   0.458   0.305  0.0925 -1.2517  0.5412
 5752TIP3   OH217261   0.849   0.461   1.835 -0.0682  0.0751 -0.3818
 5752TIP3    H117262   0.921   0.504   1.881 -0.9606  0.1017  1.0782
 5752TIP3    H217263   0.890   0.392   1.783  1.2018  1.4451 -1.2742
 5753TIP3   OH217264   3.895   3.480   0.346  0.1868  0.7029 -0.2378
 5753TIP3    H117265   3.976   3.435   0.323 -0.1389 -0.2747  0.4802
 5753TIP3    H217266   3.874   3.532   0.268  0.3819 -0.6577 -1.2288
 5754TIP3   OH217267   4.864   5.360   3.609  0.3106  0.4566  0.6169
 5754TIP3    H117268   4.826   5.428   3.553  0.8446  0.2364 -0.0347
 5754TIP3    H217269   4.885   5.405   3.691 -1.7950  0.4673  1.1979
 5755TIP3   OH217270   1.215   1.214   4.627  0.2831  0.6769 -0.6667
 5755TIP3    H117271   1.121   1.196   4.627  0.4787 -0.4392 -1.1361
 5755TIP3    H217272   1.228   1.273   4.700 -1.0576  2.3463 -1.6844
 5756TIP3   OH217273   3.400   5.008   1.542 -0.2308 -0.3161  0.1518
 5756TIP3    H117274   3.325   4.981   1.489 -0.3447 -0.5918  0.4488
 5756TIP3    H217275   3.409   5.102   1.524 -0.9970 -0.1584  0.5321
 5757TIP3   OH217276   3.272   1.339   4.520  0.4872  0.0098 -0.4561
 5757TIP3    H117277   3.247   1.430   4.502  2.0956  0.5294 -0.2127
 5757TIP3    H217278   3.362   1.332   4.488  0.2697 -1.6112 -0.7855
 5758TIP3   OH217279   3.372   5.499   1.755  0.3823 -0.7281 -0.2418
 5758TIP3    H117280   3.454   5.493   1.805 -0.2036  0.6932  0.9558
 5758TIP3    H217281   3.401   5.520   1.666  1.3221  1.0401  0.4206
 5759TIP3   OH217282   2.325   3.870   0.881 -0.2319 -0.5392 -0.2195
 5759TIP3    H117283   2.376   3.789   0.878 -0.6039 -0.8575  1.2400
 5759TIP3    H217284   2.288   3.878   0.793 -0.1100 -1.9009 -0.4210
 5760TIP3   OH217285   0.103   5.978   2.358  0.4901  0.5000  0.6039
 5760TIP3    H117286   0.100   5.888   2.392  2.2621 -1.0482 -2.7811
 5760TIP3    H217287   0.051   5.974   2.278 -0.3490  2.8815  0.9588
 5761TIP3   OH217288   2.695   2.276   4.871  0.0672 -0.6137  0.2473
 5761TIP3    H117289   2.764   2.245   4.929 -0.8360 -0.4610  1.4529
 5761TIP3    H217290   2.628   2.311   4.930 -0.5903  0.1737 -0.9251
 5762TIP3   OH217291   0.840   4.117   1.432  0.3663 -0.0894  0.2319
 5762TIP3    H117292   0.840   4.212   1.438 -2.1428 -0.0862  1.2520
 5762TIP3    H217293   0.849   4.099   1.339 -1.3690  1.2501 -0.2450
 5763TIP3   OH217294   4.283   2.205   2.158  0.1413  0.0792  0.2926
 5763TIP3    H117295   4.276   2.155   2.077 -2.0810  1.8500 -0.7196
 5763TIP3    H217296   4.192   2.220   2.185  0.7823  1.4089  1.8985
 5764TIP3   OH217297   2.284   3.105   2.711  0.0044 -0.3832 -0.1497
 5764TIP3    H117298   2.194   3.136   2.703 -0.4463 -1.6693 -0.3515
 5764TIP3    H217299   2.313   3.138   2.796 -0.5696  0.2735 -0.2039
 5765TIP3   OH217300   3.697   3.772   3.951 -0.9094  0.1996 -0.0047
 5765TIP3    H117301   3.771   3.829   3.931  0.1723 -1.1326  0.0899
 5765TIP3    H217302   3.656   3.812   4.028 -0.4076  1.0621 -0.1761
 5766TIP3   OH217303   5.163   2.522   4.957  0.1943 -0.0010  0.3721
 5766TIP3    H117304   5.095   2.586   4.977 -0.1206 -0.5594  1.1242
 5766TIP3    H217305   5.170   2.469   5.036  0.2812 -1.0463 -0.3235
 5767TIP3   OH217306   2.062   0.111   1.382  0.8756  0.1079  0.5182
 5767TIP3    H117307   2.076   0.203   1.401  0.3145  0.5343 -0.9912
 5767TIP3    H217308   2.150   0.076   1.367  1.0379  0.6250  0.2109
 5768TIP3   OH217309   3.563   0.900   4.389 -0.5859  0.0670  0.0820
 5768TIP3    H117310   3.504   0.905   4.314 -1.6296  1.8678  0.9593
 5768TIP3    H217311   3.521   0.839   4.449 -0.7564  0.1417  0.0382
 5769TIP3   OH217312   3.843   4.641   3.635 -0.3484 -0.2265 -0.2685
 5769TIP3    H117313   3.837   4.546   3.636 -0.1620 -0.2362  0.1375
 5769TIP3    H217314   3.923   4.661   3.685 -0.8271  0.1755  0.3498
 5770TIP3   OH217315   2.794   4.050   3.072  0.3797  0.3596 -0.2054
 5770TIP3    H117316   2.854   4.009   3.134 -2.0565 -0.8682  1.5430
 5770TIP3    H217317   2.790   3.989   2.998  2.1402  1.0824 -0.9606
 5771TIP3   OH217318   4.174   5.698   3.585  0.1507 -0.2537  0.0745
 5771TIP3    H117319   4.162   5.656   3.500 -1.8064 -0.6461  0.4988
 5771TIP3    H217320   4.136   5.637   3.648  0.1003  0.7461  1.0444
 5772TIP3   OH217321   2.453   2.720   4.283 -0.8126  0.1817  0.6912
 5772TIP3    H117322   2.487   2.808   4.266  0.6403 -0.6208 -0.7415
 5772TIP3    H217323   2.529   2.669   4.311 -1.1181 -1.2264 -0.9048
 5773TIP3   OH217324   1.452   4.894   1.924  0.2596 -0.0565 -0.4113
 5773TIP3    H117325   1.489   4.892   2.012 -1.8011  1.2216  0.5621
 5773TIP3    H217326   1.401   4.814   1.917  2.4639 -1.4781 -1.5037
 5774TIP3   OH217327   2.790   4.531   3.344 -0.3483  0.2765 -0.0341
 5774TIP3    H117328   2.872   4.527   3.294 -0.2609  0.0840  0.1257
 5774TIP3    H217329   2.776   4.625   3.359  0.4348  0.2496  0.9248
 5775TIP3   OH217330   1.674   0.733   0.116  0.2945 -0.7447  0.1970
 5775TIP3    H117331   1.624   0.676   0.057  1.4655 -1.4337 -0.1754
 5775TIP3    H217332   1.643   0.711   0.204 -0.5192 -0.6780 -0.0698
 5776TIP3   OH217333   0.080   1.276   3.352 -0.1905 -0.8943 -0.1591
 5776TIP3    H117334   0.100   1.244   3.441  2.0110  1.7341  0.4368
 5776TIP3    H217335  -0.011   1.250   3.337 -0.2640 -2.4713  2.3555
 5777TIP3   OH217336   5.507   2.998   2.574 -0.0198 -0.0729 -0.4369
 5777TIP3    H117337   5.423   3.026   2.609  0.5195  2.2457 -0.8387
 5777TIP3    H217338   5.484   2.938   2.502 -1.4150  1.5116 -1.3829
 5778TIP3   OH217339   5.332   3.166   2.727 -0.5424  0.0650  0.1938
 5778TIP3    H117340   5.253   3.145   2.778 -0.1975  1.8021  1.5395
 5778TIP3    H217341   5.301   3.228   2.661 -0.3913  0.4773  0.5026
 5779TIP3   OH217342   0.722   5.710   1.053 -0.2645 -0.0125  0.0538
 5779TIP3    H117343   0.675   5.628   1.039 -1.4809  0.7905 -0.7608
 5779TIP3    H217344   0.742   5.742   0.965 -0.8028  1.1075  0.3167
 5780TIP3   OH217345   3.935   5.122   3.040  0.0922 -0.2429 -0.2171
 5780TIP3    H117346   3.881   5.194   3.073  0.7964 -0.5452  1.7382
 5780TIP3    H217347   3.993   5.162   2.976  0.2191  0.8634  0.5636
 5781TIP3   OH217348   2.109   5.787   0.357 -0.2831 -0.3800  0.3525
 5781TIP3    H117349   2.089   5.800   0.265  0.2093  0.1681  0.3111
 5781TIP3    H217350   2.062   5.857   0.402  0.2895 -0.0169  0.4039
 5782TIP3   OH217351   0.974   3.432   0.368  0.1427 -0.3474 -0.0209
 5782TIP3    H117352   0.925   3.418   0.288 -0.3032 -0.4943  0.2713
 5782TIP3    H217353   0.919   3.392   0.437  0.0554  0.6118  0.4825
 5783TIP3   OH217354   0.675   0.816   2.814 -0.4709 -0.3663 -0.4263
 5783TIP3    H117355   0.758   0.829   2.768  0.7137 -2.2582  1.0321
 5783TIP3    H217356   0.672   0.887   2.879 -0.2936  0.0471 -0.8629
 5784TIP3   OH217357   1.251   1.979   3.756 -0.4277 -0.0441 -0.2070
 5784TIP3    H117358   1.234   2.069   3.787  1.3299  1.4431 -3.1180
 5784TIP3    H217359   1.166   1.936   3.762 -1.6026  2.1538  0.2801
 5785TIP3   OH217360   3.443   5.221   1.253  0.3641 -0.1962 -0.1344
 5785TIP3    H117361   3.474   5.253   1.338  0.6182 -0.6278 -0.0586
 5785TIP3    H217362   3.511   5.160   1.225  0.8575  0.7980 -1.1870
 5786TIP3   OH217363   2.101   4.634   3.122 -0.0831  0.3687  0.1311
 5786TIP3    H117364   2.176   4.575   3.134 -0.5662 -0.1093  0.9256
 5786TIP3    H217365   2.131   4.718   3.158  0.2888  0.3539 -0.1419
 5787TIP3   OH217366   5.224   0.866   1.854  0.4511 -0.3719  0.8242
 5787TIP3    H117367   5.288   0.800   1.880 -0.4396 -0.9899  1.5148
 5787TIP3    H217368   5.251   0.892   1.766  0.1348 -2.5893 -0.0067
 5788TIP3   OH217369   2.147   2.450   3.860  0.0120  0.1165  0.4078
 5788TIP3    H117370   2.196   2.530   3.881  0.8686 -0.5729  1.1702
 5788TIP3    H217371   2.144   2.402   3.943  0.0502 -0.9119 -0.1694
 5789TIP3   OH217372   3.055   1.061   1.688 -0.5287  0.1747 -0.3312
 5789TIP3    H117373   3.115   0.993   1.719 -0.6148 -0.0679 -0.6865
 5789TIP3    H217374   3.091   1.087   1.603 -0.3359  0.7782 -0.0665
 5790TIP3   OH217375   5.820   4.529   3.186  0.0435 -0.5075  0.3899
 5790TIP3    H117376   5.727   4.509   3.200  0.3241 -2.0553  0.3166
 5790TIP3    H217377   5.825   4.553   3.093 -0.2990 -0.3159  0.4189
 5791TIP3   OH217378   1.984   5.598   0.175 -0.0335  0.1991  0.1762
 5791TIP3    H117379   1.923   5.527   0.197 -1.0631  0.5842 -1.2640
 5791TIP3    H217380   1.928   5.676   0.172  0.5014  0.5495 -1.2447
 5792TIP3   OH217381   4.253   5.457   1.499  0.1768  0.7655  0.3691
 5792TIP3    H117382   4.183   5.504   1.542 -1.2262 -0.7403 -0.1600
 5792TIP3    H217383   4.216   5.430   1.415  1.0567 -0.8373  0.4446
 5793TIP3   OH217384   1.146   2.292   4.996  0.1656  0.5229 -0.3288
 5793TIP3    H117385   1.214   2.230   4.968  1.6885  0.3610  3.1643
 5793TIP3    H217386   1.107   2.324   4.914  1.3883 -2.6995 -2.3830
 5794TIP3   OH217387   2.503   2.922   0.969 -0.3059  0.3309 -0.7680
 5794TIP3    H117388   2.583   2.919   0.915  0.5765 -0.6693  0.5066
 5794TIP3    H217389   2.478   3.014   0.970  0.6363  0.6161 -1.4789
 5795TIP3   OH217390   3.028   3.753   1.685  0.0664 -0.1167 -0.4288
 5795TIP3    H117391   3.020   3.688   1.755  1.2220 -0.5904 -0.7150
 5795TIP3    H217392   3.060   3.831   1.728  3.3112 -1.1377 -0.7080
 5796TIP3   OH217393   1.933   5.039   2.888 -0.0538 -0.3963 -0.0501
 5796TIP3    H117394   1.872   5.032   2.815 -3.2101 -2.6663  2.4603
 5796TIP3    H217395   1.891   4.987   2.958  2.7996  1.3960  3.2842
 5797TIP3   OH217396   2.698   2.041   2.085  0.3419 -0.0440  1.0266
 5797TIP3    H117397   2.719   2.029   2.177  0.3621 -0.1334  1.0102
 5797TIP3    H217398   2.756   2.112   2.056 -0.8378  1.1678  1.5025
 5798TIP3   OH217399   2.113   3.624   0.810 -0.0794 -0.6102  0.1333
 5798TIP3    H117400   2.202   3.614   0.845 -0.2405 -0.2197  0.6710
 5798TIP3    H217401   2.126   3.646   0.718  0.4405  1.2519  0.6104
 5799TIP3   OH217402   5.965   5.907   0.661 -0.0718 -0.2383 -0.2164
 5799TIP3    H117403   5.872   5.896   0.641  0.0743 -0.7615 -0.6234
 5799TIP3    H217404   5.998   5.964   0.590  0.1565 -0.9838 -0.7183
 5800TIP3   OH217405   2.397   1.314   2.965  0.5285 -0.1528  0.4711
 5800TIP3    H117406   2.398   1.261   3.044  0.0677 -1.4378 -0.3583
 5800TIP3    H217407   2.352   1.260   2.900  0.3021  1.1343 -0.4910
 5801TIP3   OH217408   0.146   3.302   3.247 -0.1287  0.4976  0.2521
 5801TIP3    H117409   0.227   3.310   3.297 -0.0554  0.8287  0.0845
 5801TIP3    H217410   0.086   3.363   3.290 -0.3123  0.1948  0.4233
 5802TIP3   OH217411   6.119   2.925   3.942  0.0986 -0.1596  0.6226
 5802TIP3    H117412   6.053   2.989   3.969 -0.4064 -0.5241  0.2668
 5802TIP3    H217413   6.189   2.978   3.904 -1.4741  0.0946 -2.2029
 5803TIP3   OH217414   0.081   4.131   0.704 -0.3717 -0.0145  0.0999
 5803TIP3    H117415   0.033   4.049   0.689  0.2116 -0.4299  0.4065
 5803TIP3    H217416   0.165   4.102   0.740 -0.5457  0.7693  1.1833
 5804TIP3   OH217417   2.446   3.700   2.583 -0.0329 -0.3021  0.1665
 5804TIP3    H117418   2.467   3.794   2.577 -0.9120  0.0462  1.8043
 5804TIP3    H217419   2.455   3.667   2.494  0.3923  1.3255 -0.4242
 5805TIP3   OH217420   2.736   5.869   1.854 -0.5972  0.2485 -0.2880
 5805TIP3    H117421   2.800   5.798   1.849 -2.6691 -1.6580 -1.2097
 5805TIP3    H217422   2.744   5.915   1.771  0.0087  0.4318 -0.1303
 5806TIP3   OH217423   3.067   5.678   0.922 -0.5493 -0.2133 -0.2653
 5806TIP3    H117424   2.975   5.654   0.930 -1.1815  2.0066 -0.2786
 5806TIP3    H217425   3.096   5.634   0.841 -1.8917 -0.0743 -0.8525
 5807TIP3   OH217426   1.538   4.809   2.982  0.5085  0.0385  0.0841
 5807TIP3    H117427   1.487   4.856   2.915 -0.5062 -0.0693  0.7650
 5807TIP3    H217428   1.625   4.798   2.942  1.8840  5.1442  0.9539
 5808TIP3   OH217429   0.289   0.224   5.116 -0.5031 -0.6509  0.4126
 5808TIP3    H117430   0.209   0.236   5.167 -0.1130 -0.4009  0.9713
 5808TIP3    H217431   0.355   0.199   5.180 -0.0454 -0.4988  0.0044
 5809TIP3   OH217432   5.060   4.038   2.496  0.4489 -0.2239 -0.0919
 5809TIP3    H117433   5.107   4.118   2.472 -2.3681  2.3486  2.2340
 5809TIP3    H217434   4.975   4.046   2.454  0.1052 -2.1052  0.1332
 5810TIP3   OH217435   2.596   2.075   0.759  0.3187 -0.6046  0.5973
 5810TIP3    H117436   2.651   2.092   0.682  2.1036 -0.2715  1.8853
 5810TIP3    H217437   2.639   2.122   0.830 -1.3134 -0.8692  1.8213
 5811TIP3   OH217438   3.882   2.291   0.268 -0.0413  0.1906  0.0207
 5811TIP3    H117439   3.926   2.214   0.305  0.0256 -0.1590 -0.7696
 5811TIP3    H217440   3.793   2.286   0.304  0.2941  0.4097  0.9133
 5812TIP3   OH217441   0.100   1.674   0.389  0.3074 -0.0599 -0.1979
 5812TIP3    H117442   0.129   1.607   0.327  2.2179  0.6964 -0.1658
 5812TIP3    H217443   0.179   1.704   0.432 -0.5723  1.7854  0.2429
 5813TIP3   OH217444   6.119   0.995   4.309 -0.0285 -0.8650 -0.1626
 5813TIP3    H117445   6.084   1.081   4.285  0.4295 -0.4677  0.5704
 5813TIP3    H217446   6.141   0.954   4.226 -3.2345 -1.5877 -0.8059
 5814TIP3   OH217447   4.258   5.770   4.557  0.7732  0.5901  0.1968
 5814TIP3    H117448   4.183   5.771   4.497 -1.7157  2.1057  3.0305
 5814TIP3    H217449   4.289   5.861   4.557  2.1946  0.1244 -0.3996
 5815TIP3   OH217450   0.711   2.530   2.739 -0.1400  0.1362 -0.5765
 5815TIP3    H117451   0.664   2.479   2.806  1.8252 -0.9596  0.0495
 5815TIP3    H217452   0.688   2.487   2.656 -0.7298  0.0073 -0.3499
 5816TIP3   OH217453   1.755   3.990   2.020  0.2174  0.3412 -0.7531
 5816TIP3    H117454   1.832   4.009   1.966  0.4761 -1.3941 -1.0627
 5816TIP3    H217455   1.763   3.897   2.041  0.0137  0.8578  2.1277
 5817TIP3   OH217456   2.824   1.619   4.365 -0.1821 -0.2189 -0.6000
 5817TIP3    H117457   2.879   1.582   4.296 -1.0166 -1.8259 -0.4462
 5817TIP3    H217458   2.798   1.544   4.419 -2.0362  0.5399 -0.3352
 5818TIP3   OH217459   4.535   2.132   1.062 -0.5346 -0.2574 -0.2528
 5818TIP3    H117460   4.494   2.074   1.126  0.8105 -0.3520  0.5651
 5818TIP3    H217461   4.490   2.216   1.074  0.9702  0.3147  2.2842
 5819TIP3   OH217462   0.699   1.029   3.868 -0.3749 -0.4122  0.1156
 5819TIP3    H117463   0.733   1.119   3.866 -1.1542 -0.0961  0.6731
 5819TIP3    H217464   0.753   0.985   3.934 -0.4187 -0.1630  0.3237
 5820TIP3   OH217465   1.794   1.373   4.304  0.1363 -0.1698 -0.7981
 5820TIP3    H117466   1.821   1.464   4.312 -0.1793  0.0544 -2.0091
 5820TIP3    H217467   1.705   1.378   4.270 -0.0049 -0.9329 -0.5611
 5821TIP3   OH217468   5.399   0.115   0.835 -0.0515  0.4518 -0.0193
 5821TIP3    H117469   5.464   0.162   0.886 -0.8940 -0.5552  2.0915
 5821TIP3    H217470   5.442   0.034   0.809 -0.6818 -0.6691  2.2181
 5822TIP3   OH217471   4.194   0.429   5.016  0.0884 -0.8359  0.0091
 5822TIP3    H117472   4.134   0.454   4.946 -0.6626 -0.6193  0.7012
 5822TIP3    H217473   4.279   0.419   4.974 -0.2229 -0.0934 -0.8166
 5823TIP3   OH217474   3.398   0.668   2.513  0.3329  0.2916 -0.3606
 5823TIP3    H117475   3.307   0.696   2.517  0.5434  0.8869  2.3452
 5823TIP3    H217476   3.406   0.623   2.429 -2.3436  0.5032 -0.8118
 5824TIP3   OH217477   4.759   1.910   4.906 -0.6048 -0.2305 -0.1779
 5824TIP3    H117478   4.719   1.893   4.821  3.1419  0.1173 -2.2724
 5824TIP3    H217479   4.740   2.002   4.924  1.6697  0.8902 -2.7615
 5825TIP3   OH217480   2.066   2.641   1.500  0.2966  0.1434  0.4763
 5825TIP3    H117481   2.147   2.690   1.518 -0.4091  1.3459  0.4574
 5825TIP3    H217482   2.027   2.627   1.586  0.4431 -0.2914  0.4715
 5826TIP3   OH217483   5.567   0.051   0.412 -0.3639 -0.0135  0.4634
 5826TIP3    H117484   5.579   0.145   0.422 -3.5034  0.6973 -1.2951
 5826TIP3    H217485   5.570   0.017   0.501  0.4782  1.7681  1.1707
 5827TIP3   OH217486   2.811   4.105   2.384  0.0140  0.1947 -0.0945
 5827TIP3    H117487   2.887   4.161   2.399  0.4860 -0.1945 -0.9442
 5827TIP3    H217488   2.809   4.092   2.289 -1.6133  0.8798 -0.1765
 5828TIP3   OH217489   2.967   1.739   2.411  0.1493  0.4841 -0.3028
 5828TIP3    H117490   2.943   1.668   2.352 -0.8918  0.7845 -0.2640
 5828TIP3    H217491   3.021   1.798   2.358 -0.8367  0.7893 -0.9893
 5829TIP3   OH217492   3.647   0.377   4.085 -0.1375 -0.9766  0.8072
 5829TIP3    H117493   3.674   0.286   4.101  1.9639 -0.5521  0.0308
 5829TIP3    H217494   3.570   0.369   4.028  0.5618 -2.3015 -0.0152
 5830TIP3   OH217495   2.223   3.981   2.066 -0.1607 -0.6220  0.2256
 5830TIP3    H117496   2.152   3.923   2.092 -1.8300  0.8629 -0.8131
 5830TIP3    H217497   2.287   3.974   2.137 -0.9546 -2.6179  0.7948
 5831TIP3   OH217498   1.616   1.897   4.962 -0.1831  0.5854 -0.0266
 5831TIP3    H117499   1.600   1.867   5.051 -0.5730  1.8944  0.3642
 5831TIP3    H217500   1.531   1.888   4.918 -0.1058  0.3972 -0.1436
 5832TIP3   OH217501   0.401   0.230   1.712 -0.2907  0.4116 -0.2078
 5832TIP3    H117502   0.327   0.276   1.672  0.0098 -1.1333 -2.7238
 5832TIP3    H217503   0.479   0.273   1.676  0.0156 -0.0753 -0.1336
 5833TIP3   OH217504   2.649   3.068   2.301  0.7976  0.5422  0.1285
 5833TIP3    H117505   2.562   3.038   2.275  1.8641 -0.7322 -2.2376
 5833TIP3    H217506   2.653   3.051   2.395 -1.6319  1.0427  0.3996
 5834TIP3   OH217507   0.274   3.419   4.777  0.1513  0.3917  0.3629
 5834TIP3    H117508   0.179   3.433   4.771  0.1024  0.2648  0.8379
 5834TIP3    H217509   0.287   3.329   4.746  0.2155  0.6962 -0.5220
 5835TIP3   OH217510   1.137   0.279   2.579 -0.4524  0.0006 -0.1956
 5835TIP3    H117511   1.153   0.362   2.626  1.0363 -0.6047  0.4343
 5835TIP3    H217512   1.107   0.219   2.647  0.9596 -0.6674 -0.1287
 5836TIP3   OH217513   2.110   1.470   5.169  0.3074  0.0760 -0.1637
 5836TIP3    H117514   2.089   1.431   5.085  0.7267 -1.4297  0.4059
 5836TIP3    H217515   2.058   1.420   5.233  1.8733 -0.4865  0.7214
 5837TIP3   OH217516   3.954   2.173   4.939  0.3158  0.1060  0.4869
 5837TIP3    H117517   3.943   2.172   5.034 -0.7876  2.4717  0.4733
 5837TIP3    H217518   4.046   2.196   4.926  0.6918 -1.0793  0.9430
 5838TIP3   OH217519   0.971   0.509   4.688  0.6702  0.9470 -0.4296
 5838TIP3    H117520   1.046   0.525   4.746  0.7388  0.4297 -0.3725
 5838TIP3    H217521   1.001   0.441   4.628 -1.0598 -2.5409  2.2738
 5839TIP3   OH217522   5.899   4.749   1.211  0.2018 -0.0538  0.2259
 5839TIP3    H117523   5.852   4.827   1.182  1.5395  0.4180 -0.7601
 5839TIP3    H217524   5.838   4.705   1.271 -0.3665  2.0455  1.2886
 5840TIP3   OH217525   2.554   4.104   4.240 -0.7061 -0.4249  0.4413
 5840TIP3    H117526   2.533   4.060   4.323 -2.3692 -0.6759 -0.0687
 5840TIP3    H217527   2.541   4.037   4.173 -1.0716  0.2355 -0.1575
 5841TIP3   OH217528   5.410   4.525   1.422  0.4629  0.1585  0.3763
 5841TIP3    H117529   5.364   4.593   1.373  1.2878  0.7821  0.4585
 5841TIP3    H217530   5.424   4.455   1.358 -0.0462  0.2229  0.1922
 5842TIP3   OH217531   2.628   5.342   1.270 -0.2102  0.0503 -0.0888
 5842TIP3    H117532   2.599   5.277   1.334  0.7174  1.3463  1.7139
 5842TIP3    H217533   2.709   5.304   1.233 -0.0061 -0.1067  0.5083
 5843TIP3   OH217534   3.140   4.520   4.652  0.0741 -0.3138 -0.0292
 5843TIP3    H117535   3.184   4.476   4.724 -1.6085 -0.2488  1.0915
 5843TIP3    H217536   3.048   4.521   4.677 -0.2226  1.9721 -1.0017
 5844TIP3   OH217537   4.520   3.231   2.472  0.1478  0.2604  0.3321
 5844TIP3    H117538   4.487   3.170   2.538  0.7342  1.6396  1.9627
 5844TIP3    H217539   4.519   3.181   2.391 -0.3541 -1.5827  1.4208
 5845TIP3   OH217540   3.177   3.390   0.688  0.3813  0.9020  0.1629
 5845TIP3    H117541   3.242   3.326   0.716  0.0052  0.5121  0.1442
 5845TIP3    H217542   3.188   3.396   0.594 -1.0513 -0.7790 -0.1532
 5846TIP3   OH217543   0.603   3.296   2.952 -0.6197  0.0160  0.1165
 5846TIP3    H117544   0.615   3.230   3.020 -1.8168 -0.7248 -0.3563
 5846TIP3    H217545   0.546   3.361   2.993 -0.8652 -0.1367  0.0217
 5847TIP3   OH217546   2.616   0.559   3.707  0.0577 -0.1477 -0.2200
 5847TIP3    H117547   2.607   0.500   3.633 -1.5015 -0.4329  0.1711
 5847TIP3    H217548   2.704   0.597   3.697 -0.7771  1.2960 -3.2899
 5848TIP3   OH217549   4.820   2.884   2.475  0.1551  0.7129  0.5207
 5848TIP3    H117550   4.884   2.922   2.535 -0.5349  3.2423 -0.2307
 5848TIP3    H217551   4.862   2.890   2.389 -0.3567  0.6521  0.2652
 5849TIP3   OH217552   1.606   5.895   2.114  0.8539 -0.1897 -0.0612
 5849TIP3    H117553   1.522   5.862   2.082  1.1469 -1.0127 -0.0094
 5849TIP3    H217554   1.627   5.838   2.188  0.1112  1.7758  1.7442
 5850TIP3   OH217555   3.898   5.103   1.605  0.1729  0.2337 -0.5059
 5850TIP3    H117556   3.920   5.084   1.514  1.2696  0.7403 -0.3690
 5850TIP3    H217557   3.813   5.145   1.602 -0.7605 -1.5973 -1.1091
 5851TIP3   OH217558   3.981   2.877   0.811 -0.3022 -0.3745 -0.6189
 5851TIP3    H117559   3.908   2.826   0.776 -1.0065  0.4605 -0.3988
 5851TIP3    H217560   3.984   2.855   0.904  0.2069 -0.9634 -0.7655
 5852TIP3   OH217561   3.398   5.331   0.927 -0.3018 -0.2135 -0.0640
 5852TIP3    H117562   3.396   5.403   0.989 -0.7959 -1.1360  1.0332
 5852TIP3    H217563   3.484   5.338   0.884 -0.7427  1.5925 -0.7184
 5853TIP3   OH217564   6.335   5.391   2.113 -0.3061 -0.6462 -0.7925
 5853TIP3    H117565   6.356   5.430   2.028 -1.0645 -0.3227 -0.8327
 5853TIP3    H217566   6.258   5.337   2.097  0.1735 -1.4435 -0.5302
 5854TIP3   OH217567   0.636   0.112   4.678 -0.0985  0.2277  0.1801
 5854TIP3    H117568   0.635   0.022   4.710 -0.2934  0.4313  0.7664
 5854TIP3    H217569   0.544   0.140   4.683  0.4057  1.7575  3.8374
 5855TIP3   OH217570   6.262   0.332   2.362  0.1800  0.1665  0.1601
 5855TIP3    H117571   6.182   0.297   2.403 -0.7905  1.2053 -0.7630
 5855TIP3    H217572   6.287   0.265   2.298 -0.1906  0.0134  0.1707
 5856TIP3   OH217573   2.451   2.911   0.372 -0.1805 -0.0186 -0.1787
 5856TIP3    H117574   2.533   2.868   0.397  0.5505  0.5730 -1.4835
 5856TIP3    H217575   2.450   2.907   0.277 -0.4891  2.1240 -0.3054
 5857TIP3   OH217576   0.333   1.617   4.985  0.1823 -0.2038  0.8715
 5857TIP3    H117577   0.305   1.698   5.028  1.5835  1.2160 -0.7455
 5857TIP3    H217578   0.391   1.646   4.914  0.7746 -2.6376  0.2657
 5858TIP3   OH217579   1.220   5.142   1.065 -0.1532  0.1222 -0.1291
 5858TIP3    H117580   1.131   5.122   1.034  0.1043  0.7573 -1.3622
 5858TIP3    H217581   1.206   5.190   1.147 -0.9201 -0.4693  0.0988
 5859TIP3   OH217582   1.821   5.881   1.315  0.2478  0.5737  0.4047
 5859TIP3    H117583   1.752   5.879   1.248  0.8072  2.5739 -0.3007
 5859TIP3    H217584   1.790   5.820   1.382 -1.7224  0.6486 -0.3482
 5860TIP3   OH217585   4.328   1.287   2.302  0.7294 -0.9633  0.8157
 5860TIP3    H117586   4.386   1.347   2.349  0.6022 -0.1218 -0.0548
 5860TIP3    H217587   4.344   1.307   2.209 -0.8837 -0.7622  0.5533
 5861TIP3   OH217588   3.403   1.036   1.653 -0.1061  0.3613  0.0502
 5861TIP3    H117589   3.437   0.947   1.659 -0.2408  0.2356 -0.9722
 5861TIP3    H217590   3.339   1.041   1.725 -0.0630 -0.3454  0.1468
 5862TIP3   OH217591   3.501   2.483   4.627  0.3150 -0.7581  0.2228
 5862TIP3    H117592   3.494   2.479   4.722 -0.7694  0.2450  0.2081
 5862TIP3    H217593   3.411   2.494   4.597  0.8755  1.6933 -0.7508
 5863TIP3   OH217594   0.625   4.661   2.613 -0.0992  0.5651 -0.4428
 5863TIP3    H117595   0.530   4.649   2.619 -0.0593  0.0615 -0.7523
 5863TIP3    H217596   0.661   4.590   2.666  0.1214  0.1289 -1.1598
 5864TIP3   OH217597   2.019   1.113   2.060  0.1774 -0.3696 -0.1715
 5864TIP3    H117598   2.042   1.198   2.098 -0.6190 -0.3223  0.2280
 5864TIP3    H217599   2.024   1.051   2.134  1.5666 -0.8325 -0.6285
 5865TIP3   OH217600   5.714   3.606   1.503  0.0794  0.1469  0.4357
 5865TIP3    H117601   5.734   3.534   1.563  0.3401  0.0219  0.2028
 5865TIP3    H217602   5.660   3.666   1.554 -1.0239 -0.7181  0.3112
 5866TIP3   OH217603   1.389   5.965   3.765  0.1149 -0.3878 -0.2119
 5866TIP3    H117604   1.386   5.904   3.691 -1.5766 -1.5390  0.7617
 5866TIP3    H217605   1.393   5.909   3.842  2.5905  0.7822  0.6437
 5867TIP3   OH217606   1.594   3.234   1.792 -0.3192 -0.2490 -0.4734
 5867TIP3    H117607   1.527   3.263   1.730 -0.5101  0.5082  0.0824
 5867TIP3    H217608   1.565   3.146   1.819 -1.1667  0.1212 -0.1369
 5868TIP3   OH217609   1.498   4.114   0.444 -1.1325 -0.2617  0.0845
 5868TIP3    H117610   1.483   4.145   0.354 -1.1702  0.5818  0.3667
 5868TIP3    H217611   1.564   4.174   0.478  0.9638 -2.2624 -0.2529
 5869TIP3   OH217612   2.748   5.106   4.806  0.0579 -0.5364  0.9836
 5869TIP3    H117613   2.825   5.145   4.763  0.5105 -0.5676  1.7558
 5869TIP3    H217614   2.747   5.016   4.775 -0.2928 -0.2636  0.1441
 5870TIP3   OH217615   6.039   1.618   4.324  0.1755 -0.2601  0.4900
 5870TIP3    H117616   6.044   1.687   4.390 -0.7012  1.3307 -1.0179
 5870TIP3    H217617   5.985   1.549   4.365 -0.2963  0.6505  1.4440
 5871TIP3   OH217618   5.211   5.927   1.438 -0.3700  0.0459  0.0432
 5871TIP3    H117619   5.238   5.850   1.387  0.3672  1.1215 -1.2536
 5871TIP3    H217620   5.185   5.991   1.372  1.8903  1.9775  0.9059
 5872TIP3   OH217621   0.538   0.671   4.938  0.2578  0.2637 -0.1542
 5872TIP3    H117622   0.587   0.616   4.878 -0.4615 -0.8468  0.2359
 5872TIP3    H217623   0.504   0.610   5.004 -2.3641  0.8013 -0.8723
 5873TIP3   OH217624   5.422   3.980   2.941 -0.1411  0.1199 -0.3315
 5873TIP3    H117625   5.350   4.043   2.936  0.7668  1.2251  0.1228
 5873TIP3    H217626   5.411   3.938   3.026 -0.2438  0.3206 -0.2441
 5874TIP3   OH217627   0.594   3.576   0.583 -0.5068  0.0116  0.4450
 5874TIP3    H117628   0.677   3.557   0.627  0.0620 -0.3690 -0.7714
 5874TIP3    H217629   0.540   3.617   0.651  1.2097  1.7042  0.8652
 5875TIP3   OH217630   1.774   0.345   0.366 -0.7438  0.3631 -0.8722
 5875TIP3    H117631   1.792   0.439   0.364  0.5030  0.1193 -2.1050
 5875TIP3    H217632   1.755   0.322   0.275  1.4666 -1.0087 -1.0434
 5876TIP3   OH217633   2.252   2.107   1.578  0.2246  0.2235 -0.0632
 5876TIP3    H117634   2.345   2.133   1.580  0.1412  0.4596  0.7840
 5876TIP3    H217635   2.234   2.072   1.665 -0.2013 -0.8556 -0.5712
 5877TIP3   OH217636   5.691   2.832   2.684  0.2982 -0.0095 -0.1008
 5877TIP3    H117637   5.609   2.874   2.656 -0.0107 -1.2767 -1.1930
 5877TIP3    H217638   5.736   2.900   2.734 -0.1103  1.6925 -1.9203
 5878TIP3   OH217639   1.176   2.706   0.995 -0.2457  0.3814 -0.1053
 5878TIP3    H117640   1.258   2.707   1.044 -0.7354  0.2716  0.7268
 5878TIP3    H217641   1.199   2.666   0.911  0.1867 -1.3500  0.7830
 5879TIP3   OH217642   5.978   3.035   0.814 -0.2903 -0.3976  0.0439
 5879TIP3    H117643   5.906   2.973   0.824  0.0299 -0.6038  1.3600
 5879TIP3    H217644   5.980   3.083   0.897 -0.6882  1.5932 -1.0333
 5880TIP3   OH217645   2.126   4.339   0.070  0.2564  0.5848  0.4356
 5880TIP3    H117646   2.129   4.371  -0.020 -0.5592  1.0383  0.5606
 5880TIP3    H217647   2.036   4.309   0.082  0.4135  0.3304  1.0386
 5881TIP3   OH217648   6.076   2.132   2.811  0.3125 -0.7820  0.2979
 5881TIP3    H117649   6.066   2.159   2.720  1.5263  0.8672  0.6138
 5881TIP3    H217650   6.112   2.043   2.806 -0.4288 -1.0322 -0.8071
 5882TIP3   OH217651   6.003   4.670   3.749  0.4562 -0.5071 -0.1221
 5882TIP3    H117652   5.919   4.714   3.735  1.8027  2.2621 -0.1022
 5882TIP3    H217653   6.006   4.603   3.680 -1.4800 -0.2805 -0.4952
 5883TIP3   OH217654   2.956   1.252   0.607 -0.0814  0.3451  0.8949
 5883TIP3    H117655   2.899   1.214   0.675  1.1057 -0.2691  1.5864
 5883TIP3    H217656   2.968   1.181   0.544 -0.4567  0.6262  0.5061
 5884TIP3   OH217657   4.332   3.925   4.879 -0.4571  0.1188  0.2040
 5884TIP3    H117658   4.419   3.918   4.918 -0.0766 -0.8529 -0.7718
 5884TIP3    H217659   4.290   3.996   4.927  0.2930 -0.4513  1.7775
 5885TIP3   OH217660   4.451   3.848   1.499  0.0907 -0.5553 -0.3658
 5885TIP3    H117661   4.468   3.793   1.422  1.0618 -2.5625  1.1992
 5885TIP3    H217662   4.511   3.922   1.490  1.9528 -2.0162 -0.3603
 5886TIP3   OH217663   1.145   1.336   4.875  0.8345  0.1987 -0.3175
 5886TIP3    H117664   1.095   1.285   4.939  1.6353  0.5023  0.5595
 5886TIP3    H217665   1.236   1.330   4.905  0.8798  2.8268  0.3085
 5887TIP3   OH217666   0.621   1.453   3.332  0.7776  0.2609 -0.2162
 5887TIP3    H117667   0.626   1.359   3.352 -0.1652  0.4251  0.8918
 5887TIP3    H217668   0.536   1.464   3.289 -1.1764  1.1818  3.4613
 5888TIP3   OH217669   1.895   4.221   2.640  0.2274 -0.2498 -0.1378
 5888TIP3    H117670   1.861   4.202   2.728 -0.0546 -1.2523 -0.4537
 5888TIP3    H217671   1.853   4.303   2.615  0.3357  0.0632  0.6716
 5889TIP3   OH217672   2.330   5.446   2.064  0.1531  0.1008 -0.2098
 5889TIP3    H117673   2.419   5.423   2.037  0.6840 -0.0645  1.5688
 5889TIP3    H217674   2.315   5.533   2.026  0.9847  0.0289 -0.7159
 5890TIP3   OH217675   5.602   1.999   2.397 -0.4339 -0.2466 -0.0708
 5890TIP3    H117676   5.617   2.085   2.438 -0.4521 -1.1379  1.9182
 5890TIP3    H217677   5.558   2.020   2.314 -2.6199  1.6029  1.4084
 5891TIP3   OH217678   2.104   1.057   0.334  0.0612  0.4438  0.2442
 5891TIP3    H117679   2.163   1.106   0.276 -0.3056  0.1810 -0.3563
 5891TIP3    H217680   2.026   1.113   0.341  0.1572  0.5387  0.6028
 5892TIP3   OH217681   4.507   2.781   1.900  0.3092 -0.3147 -0.1386
 5892TIP3    H117682   4.581   2.721   1.908  0.6268  0.1825  0.8590
 5892TIP3    H217683   4.531   2.840   1.829  1.7724  1.0279  1.3796
 5893TIP3   OH217684   3.047   2.049   3.735 -0.4047  0.0240  0.3102
 5893TIP3    H117685   3.037   2.127   3.681  0.7165  0.7431  1.0997
 5893TIP3    H217686   3.034   1.976   3.674  1.5680  0.8001 -1.1470
 5894TIP3   OH217687   5.510   5.010   4.007  0.3078 -0.4455  0.0106
 5894TIP3    H117688   5.492   5.095   3.966 -0.4407 -1.0726 -0.9812
 5894TIP3    H217689   5.599   4.988   3.976 -0.9166 -1.7930 -2.9546
 5895TIP3   OH217690   6.275   3.898   0.813 -0.3601 -0.0061  0.5334
 5895TIP3    H117691   6.264   3.947   0.895  1.4123 -0.3534  1.0201
 5895TIP3    H217692   6.256   3.807   0.836  0.1109 -0.1000  0.5493
 5896TIP3   OH217693   2.249   4.341   1.708  0.0209 -0.4037  0.0171
 5896TIP3    H117694   2.200   4.337   1.791 -1.5326  0.9400 -0.7836
 5896TIP3    H217695   2.181   4.346   1.641  1.2771 -0.3447 -1.2691
 5897TIP3   OH217696   5.215   2.093   0.610 -0.3920  0.7437 -0.1104
 5897TIP3    H117697   5.163   2.162   0.570 -0.0333  0.0727 -1.8120
 5897TIP3    H217698   5.151   2.034   0.649 -0.7646  1.2734  0.0844
 5898TIP3   OH217699   5.484   1.871   0.223  0.1441 -0.1685  0.6095
 5898TIP3    H117700   5.540   1.793   0.218 -0.8813 -0.8918  0.0604
 5898TIP3    H217701   5.545   1.943   0.241  1.4878 -0.6911 -1.4346
 5899TIP3   OH217702   3.843   0.676   1.404 -0.3241  0.1026  1.0118
 5899TIP3    H117703   3.748   0.691   1.405 -0.4607 -0.5203 -0.3340
 5899TIP3    H217704   3.858   0.625   1.325  1.3894  1.7965  0.1773
 5900TIP3   OH217705   6.325   3.300   1.143  0.0337 -0.2173 -0.3078
 5900TIP3    H117706   6.253   3.304   1.080 -1.4097 -0.6149  1.2530
 5900TIP3    H217707   6.404   3.300   1.088 -1.1558 -1.0781 -2.1339
 5901TIP3   OH217708   3.383   1.423   4.126 -0.3587 -0.7124 -0.2737
 5901TIP3    H117709   3.310   1.483   4.112  0.2444  0.2085  0.3753
 5901TIP3    H217710   3.398   1.383   4.040 -0.9227 -0.1015 -0.6665
 5902TIP3   OH217711   2.179   4.367   5.012 -0.2404 -0.1171 -0.7082
 5902TIP3    H117712   2.274   4.367   5.021 -0.3032 -3.2143  1.9545
 5902TIP3    H217713   2.148   4.429   5.077 -0.1086  1.0061 -1.6791
 5903TIP3   OH217714   0.732   4.143   3.742 -0.1116 -0.3218 -0.4431
 5903TIP3    H117715   0.826   4.149   3.724 -0.3002 -0.4281 -1.5861
 5903TIP3    H217716   0.697   4.226   3.710 -0.4046 -0.2523  0.0501
 5904TIP3   OH217717   5.334   0.356   4.725  0.7063  0.0346 -0.0512
 5904TIP3    H117718   5.340   0.345   4.819  0.7967  1.9174  0.2110
 5904TIP3    H217719   5.253   0.311   4.700  0.0217  0.5688  1.1343
 5905TIP3   OH217720   2.433   5.703   4.122  0.3025 -0.1634  0.5749
 5905TIP3    H117721   2.409   5.612   4.100  1.3167  0.1425 -2.1708
 5905TIP3    H217722   2.503   5.694   4.186  1.5086 -1.4322 -0.8338
 5906TIP3   OH217723   3.843   4.369   3.663  0.0426 -0.7860 -0.0082
 5906TIP3    H117724   3.749   4.351   3.651  0.1268 -2.0228  0.9398
 5906TIP3    H217725   3.882   4.282   3.674  1.2302 -0.2508  0.0788
 5907TIP3   OH217726   0.314   1.778   4.345  0.1941  0.3554 -0.2877
 5907TIP3    H117727   0.289   1.816   4.429  4.0073 -0.8048  1.5446
 5907TIP3    H217728   0.290   1.685   4.352  2.7688 -0.3055  0.6588
 5908TIP3   OH217729   6.181   2.357   1.856 -0.0165  0.1509  0.2733
 5908TIP3    H117730   6.245   2.426   1.876  0.4749  0.0133 -0.7713
 5908TIP3    H217731   6.174   2.306   1.937  2.2328 -0.6510  0.0261
 5909TIP3   OH217732   0.504   0.314   0.854 -0.1570  0.6304 -0.5735
 5909TIP3    H117733   0.435   0.379   0.837 -0.7576 -0.2651 -1.6650
 5909TIP3    H217734   0.460   0.244   0.902  0.6320  1.2732  1.1715
 5910TIP3   OH217735   0.612   3.071   5.209  0.6592  0.5096 -0.5289
 5910TIP3    H117736   0.519   3.092   5.200 -0.1053 -2.6827 -1.7607
 5910TIP3    H217737   0.636   3.034   5.124  2.1018 -1.7975  0.7746
 5911TIP3   OH217738   0.993   1.848   1.728  0.0533 -0.0928 -0.6340
 5911TIP3    H117739   0.942   1.772   1.701  1.1611 -0.2394 -2.5255
 5911TIP3    H217740   1.083   1.816   1.734  0.3008  0.7106  0.1962
 5912TIP3   OH217741   4.396   5.876   3.789 -0.2820 -0.2920 -0.2538
 5912TIP3    H117742   4.343   5.949   3.822  0.5449 -0.0967  0.6555
 5912TIP3    H217743   4.331   5.812   3.760 -1.0238  0.4975 -0.4054
 5913TIP3   OH217744   3.426   5.601   2.442 -0.6343 -0.0705  0.0937
 5913TIP3    H117745   3.430   5.505   2.434  1.4291 -0.3151  2.8041
 5913TIP3    H217746   3.478   5.633   2.368  0.1031 -1.1145  0.1438
 5914TIP3   OH217747   0.908   1.675   1.938  0.2032  0.5685  0.1188
 5914TIP3    H117748   0.813   1.689   1.946 -0.2821 -1.2440 -1.6637
 5914TIP3    H217749   0.943   1.761   1.916 -1.2786  0.9567 -0.8555
 5915TIP3   OH217750   1.521   4.965   4.963  0.0676 -0.1550 -0.0950
 5915TIP3    H117751   1.535   4.875   4.994  0.3088  0.4555  1.6573
 5915TIP3    H217752   1.468   4.955   4.884  0.2030 -1.8452 -0.0075
 5916TIP3   OH217753   0.497   5.917   0.715  0.3574 -0.9278  0.0949
 5916TIP3    H117754   0.543   5.966   0.647 -0.3457  0.2207  0.4103
 5916TIP3    H217755   0.495   5.827   0.683  0.9897 -0.6137 -0.8787
 5917TIP3   OH217756   5.726   2.246   5.185  0.4691 -0.2312 -0.1402
 5917TIP3    H117757   5.791   2.229   5.116  2.1131 -0.5757  1.4262
 5917TIP3    H217758   5.716   2.162   5.229 -2.1582 -0.5533 -1.1808
 5918TIP3   OH217759   0.806   5.046   1.292 -0.0466 -0.5071 -0.4730
 5918TIP3    H117760   0.768   5.003   1.369  0.3075 -1.0720 -0.6129
 5918TIP3    H217761   0.794   5.139   1.310 -1.0140 -0.6538 -0.2640
 5919TIP3   OH217762   3.463   1.117   1.166  0.1148  0.4594  0.6520
 5919TIP3    H117763   3.508   1.038   1.137  0.6131  0.4740  1.3627
 5919TIP3    H217764   3.427   1.094   1.251  2.2350  1.6805  1.9552
 5920TIP3   OH217765   0.400   1.661   0.477 -0.3169  0.1953  0.6604
 5920TIP3    H117766   0.429   1.573   0.456 -2.0480 -0.1064 -0.6410
 5920TIP3    H217767   0.457   1.689   0.548  0.2106 -1.9839  1.1385
 5921TIP3   OH217768   4.000   1.486   0.249 -0.3643 -0.5079  0.5492
 5921TIP3    H117769   4.037   1.464   0.335 -0.3384 -1.6447  0.2704
 5921TIP3    H217770   4.076   1.502   0.193 -0.3084 -1.6254  0.2838
 5922TIP3   OH217771   6.153   0.833   0.325  0.0572  0.0309 -0.0587
 5922TIP3    H117772   6.111   0.767   0.381 -0.7049  0.7299  0.2115
 5922TIP3    H217773   6.247   0.816   0.335 -0.0861 -0.2562  0.9495
 5923TIP3   OH217774   4.994   2.574   3.942 -0.0676  0.1947  0.2505
 5923TIP3    H117775   5.082   2.608   3.925 -0.1193  0.2689  0.1270
 5923TIP3    H217776   4.937   2.651   3.935 -0.4853 -0.2352 -2.2833
 5924TIP3   OH217777   5.849   3.427   1.703  0.3763 -0.0269  0.1330
 5924TIP3    H117778   5.859   3.395   1.614 -0.7769 -1.0215  0.3399
 5924TIP3    H217779   5.913   3.499   1.710  0.4263  0.1246 -1.4986
 5925TIP3   OH217780   3.345   0.102   3.994 -0.3516  0.6542  0.7286
 5925TIP3    H117781   3.335   0.160   3.918  1.1027 -0.4651 -0.3867
 5925TIP3    H217782   3.388   0.157   4.060 -1.9678  1.7478  0.9229
 5926TIP3   OH217783   2.968   2.778   1.136  0.5054 -0.3297  0.4903
 5926TIP3    H117784   2.900   2.749   1.075  0.2901  1.3627 -0.1350
 5926TIP3    H217785   3.050   2.766   1.088  0.2812  1.7522 -0.5325
 5927TIP3   OH217786   1.584   3.869   2.522  0.2117 -0.6800  0.4899
 5927TIP3    H117787   1.573   3.887   2.615  1.4775 -1.0128  0.7247
 5927TIP3    H217788   1.507   3.818   2.498 -0.6336  0.2598  1.1061
 5928TIP3   OH217789   0.245   4.240   0.479  0.2756 -0.2221 -0.0018
 5928TIP3    H117790   0.190   4.165   0.456  0.8722 -0.5084 -0.5189
 5928TIP3    H217791   0.202   4.279   0.555 -0.7154 -0.3588 -0.4783
 5929TIP3   OH217792   1.673   0.013   4.660 -0.1864 -0.4218 -0.2471
 5929TIP3    H117793   1.732   0.069   4.710 -0.7192  1.0255 -1.1642
 5929TIP3    H217794   1.702   0.022   4.570 -0.0359 -1.9810 -0.3714
 5930TIP3   OH217795   5.802   4.448   0.809  0.6620 -0.0680  0.0178
 5930TIP3    H117796   5.868   4.441   0.877 -0.7512 -0.3876  1.3941
 5930TIP3    H217797   5.747   4.522   0.835 -2.3307 -2.5725  1.5031
 5931TIP3   OH217798   5.768   2.312   2.752 -0.5005  0.0229 -0.3569
 5931TIP3    H117799   5.717   2.335   2.830  0.5774 -1.4953  0.8549
 5931TIP3    H217800   5.750   2.219   2.739 -0.4401  0.1949 -1.7864
 5932TIP3   OH217801   3.899   1.386   4.171  0.2622 -0.0688  0.0907
 5932TIP3    H117802   3.896   1.411   4.264 -0.4089  0.1129  0.0269
 5932TIP3    H217803   3.840   1.449   4.128  1.1317  0.3051 -0.5692
 5933TIP3   OH217804   1.841   2.941   3.257  0.1639 -0.0791  0.3050
 5933TIP3    H117805   1.881   2.899   3.333 -0.9942  1.4539  1.8508
 5933TIP3    H217806   1.829   3.032   3.284  0.3380  0.6972 -1.9907
 5934TIP3   OH217807   6.107   5.941   4.968  0.0370 -0.0364 -0.4557
 5934TIP3    H117808   6.024   5.892   4.975 -0.9554  1.6719  0.2905
 5934TIP3    H217809   6.081   6.025   4.929  1.4326  0.5361 -0.1797
 5935TIP3   OH217810   1.622   1.154   0.518 -0.1581 -0.0948  0.1294
 5935TIP3    H117811   1.611   1.092   0.591 -1.4723 -0.2505 -0.1815
 5935TIP3    H217812   1.589   1.107   0.442 -0.0174  0.5532 -0.3380
 5936TIP3   OH217813   4.705   5.448   2.464 -0.5887  0.2743 -0.1246
 5936TIP3    H117814   4.726   5.410   2.378 -0.9934  0.4124 -0.2854
 5936TIP3    H217815   4.754   5.530   2.467  1.5832 -0.9418  0.8597
 5937TIP3   OH217816   3.702   3.218   4.853  0.0618 -0.3773  0.3317
 5937TIP3    H117817   3.796   3.235   4.856 -0.1850  1.0198  0.7915
 5937TIP3    H217818   3.671   3.237   4.942 -0.9547  1.1786 -0.3041
 5938TIP3   OH217819   0.636   2.131   1.588 -0.1782 -0.5004  0.0415
 5938TIP3    H117820   0.685   2.179   1.520  1.4561 -3.4411 -1.0333
 5938TIP3    H217821   0.549   2.119   1.551 -0.6449  1.5072  0.3442
 5939TIP3   OH217822   1.910   2.790   2.648 -0.3923 -0.8163 -0.1829
 5939TIP3    H117823   1.846   2.857   2.669 -0.8484 -0.5520 -2.1859
 5939TIP3    H217824   1.988   2.814   2.698 -0.9031  0.5807 -0.0172
 5940TIP3   OH217825   0.993   2.880   4.358  0.1010  0.1298  0.1069
 5940TIP3    H117826   0.902   2.864   4.334  0.2100 -0.6842  0.2129
 5940TIP3    H217827   0.996   2.866   4.453  0.0352  1.6201  0.3461
 5941TIP3   OH217828   2.753   0.407   2.606  0.4779  0.1862 -0.8811
 5941TIP3    H117829   2.776   0.372   2.691 -2.6446  1.5850  0.7127
 5941TIP3    H217830   2.743   0.330   2.550 -0.3493 -1.0321  0.8573
 5942TIP3   OH217831   0.810   4.569   0.045  0.2844  0.1352  0.1685
 5942TIP3    H117832   0.736   4.563   0.106 -0.3206 -1.6454 -0.6617
 5942TIP3    H217833   0.875   4.508   0.080  0.3112 -0.1922 -0.4328
 5943TIP3   OH217834   0.166   4.461   2.132 -0.0067  0.0490  0.1258
 5943TIP3    H117835   0.202   4.471   2.220 -1.0916  0.7150  0.5167
 5943TIP3    H217836   0.231   4.502   2.075  0.4252  0.1505  0.6862
 5944TIP3   OH217837   2.237   3.646   0.557 -0.3072  0.3442 -0.4554
 5944TIP3    H117838   2.282   3.574   0.512  0.2803  0.4609 -0.0638
 5944TIP3    H217839   2.188   3.691   0.488 -1.4350 -0.9785 -0.5609
 5945TIP3   OH217840   1.228   3.931   4.333  0.3937  0.2288  0.2310
 5945TIP3    H117841   1.229   3.878   4.414 -0.1191  0.8868  0.6844
 5945TIP3    H217842   1.147   3.983   4.341  0.0215 -0.1432 -0.9989
 5946TIP3   OH217843   5.686   5.053   3.412 -0.8423 -1.1748  0.4344
 5946TIP3    H117844   5.731   4.970   3.398 -0.6596 -0.9115 -0.6311
 5946TIP3    H217845   5.668   5.055   3.506  3.0970 -0.4511  1.3471
 5947TIP3   OH217846   3.815   4.379   0.875 -0.2983 -0.4318 -0.1193
 5947TIP3    H117847   3.896   4.349   0.917 -0.3168 -0.5124 -0.1418
 5947TIP3    H217848   3.774   4.299   0.842  1.1595 -0.1584 -2.8836
 5948TIP3   OH217849   2.420   2.323   2.385 -0.1227 -0.2740  0.0533
 5948TIP3    H117850   2.483   2.392   2.403  0.3188 -0.3915 -1.0081
 5948TIP3    H217851   2.335   2.364   2.398  0.1228 -0.3300  2.3282
 5949TIP3   OH217852   0.792   1.685   3.730  0.0442  0.0711 -0.2413
 5949TIP3    H117853   0.826   1.605   3.689 -0.5100 -0.4166  0.2480
 5949TIP3    H217854   0.704   1.695   3.694  0.1475  0.5304 -0.3809
 5950TIP3   OH217855   1.879   1.221   3.241  0.4047  0.2156  0.1224
 5950TIP3    H117856   1.967   1.223   3.203  0.4433  0.1449  0.2070
 5950TIP3    H217857   1.851   1.130   3.231  0.9167 -0.1100  1.3956
 5951TIP3   OH217858   2.792   5.625   1.039  0.5734 -0.6649 -0.3346
 5951TIP3    H117859   2.838   5.659   1.115 -0.0168 -0.9208  0.1471
 5951TIP3    H217860   2.708   5.670   1.039  0.6990 -0.4236 -1.0270
 5952TIP3   OH217861   1.461   5.831   2.983 -0.5122 -0.1544  0.2202
 5952TIP3    H117862   1.403   5.885   3.037 -0.4721 -1.2317  1.4010
 5952TIP3    H217863   1.476   5.883   2.904 -1.6392  0.9092  0.6737
 5953TIP3   OH217864   5.808   5.850   5.004  0.1203  0.0323  0.1304
 5953TIP3    H117865   5.757   5.846   4.923 -0.1637  0.1408  0.3018
 5953TIP3    H217866   5.831   5.759   5.022  2.9365  0.2105 -1.7798
 5954TIP3   OH217867   2.054   5.806   3.952  0.4430 -0.3715 -0.3017
 5954TIP3    H117868   1.978   5.842   3.907  0.5078  0.3133  0.1265
 5954TIP3    H217869   2.085   5.877   4.008  0.7724 -0.9843  0.3095
 5955TIP3   OH217870   0.136   4.706   0.080 -0.7755 -0.3258  0.3978
 5955TIP3    H117871   0.206   4.724   0.017 -0.1744 -1.5401  0.6835
 5955TIP3    H217872   0.162   4.752   0.159  0.1879 -1.4905  0.7869
 5956TIP3   OH217873   5.819   4.092   1.881 -0.6498  0.1778 -0.0323
 5956TIP3    H117874   5.740   4.112   1.931 -1.5307  0.8012 -1.6124
 5956TIP3    H217875   5.829   4.165   1.820  0.3696 -0.5494 -0.7867
 5957TIP3   OH217876   6.259   0.394   5.116  0.1986 -0.4984  0.6756
 5957TIP3    H117877   6.174   0.403   5.074 -0.3662 -1.4241  1.5894
 5957TIP3    H217878   6.304   0.476   5.097 -0.0209 -0.8468 -1.7403
 5958TIP3   OH217879   0.045   2.602   1.219 -0.1513 -0.3408 -0.2735
 5958TIP3    H117880   0.065   2.670   1.154 -0.1628  0.4511  0.5291
 5958TIP3    H217881   0.038   2.650   1.301 -1.0659 -1.2058  0.1620
 5959TIP3   OH217882   5.485   4.585   4.370 -0.6637  0.7923  0.1226
 5959TIP3    H117883   5.508   4.563   4.461  0.8244 -1.1077 -0.6370
 5959TIP3    H217884   5.548   4.652   4.345 -0.4725  0.6487  0.2147
 5960TIP3   OH217885   2.875   0.496   1.520 -0.8608 -0.1907  0.2072
 5960TIP3    H117886   2.859   0.505   1.426  0.1666  1.4279  0.1375
 5960TIP3    H217887   2.803   0.442   1.552 -2.1235  0.5530 -1.2452
 5961TIP3   OH217888   3.167   5.693   2.438  0.1602  0.5795 -0.1884
 5961TIP3    H117889   3.261   5.710   2.441  0.2273  0.9447 -2.4322
 5961TIP3    H217890   3.159   5.614   2.385 -0.7079 -1.0282  2.1616
 5962TIP3   OH217891   1.375   1.159   4.426  0.2001 -0.7396  0.5542
 5962TIP3    H117892   1.391   1.240   4.378  2.0725 -1.4708 -0.1694
 5962TIP3    H217893   1.332   1.186   4.507  1.2062  1.0148  0.5454
 5963TIP3   OH217894   3.979   4.680   5.051 -0.5802  0.3698 -0.0908
 5963TIP3    H117895   3.943   4.717   4.971  0.0692 -0.3576 -0.7338
 5963TIP3    H217896   4.062   4.641   5.025 -0.9526 -1.0044  0.6774
 5964TIP3   OH217897   2.879   5.389   2.486  0.4143 -0.2641  0.1923
 5964TIP3    H117898   2.806   5.358   2.432 -1.1465  2.2928  0.6184
 5964TIP3    H217899   2.950   5.405   2.424  0.3499 -1.9314 -0.3655
 5965TIP3   OH217900   3.929   4.044   3.038  0.2002  0.0146 -0.0062
 5965TIP3    H117901   3.909   4.104   2.966  0.8210  0.2086 -0.0194
 5965TIP3    H217902   3.936   4.101   3.115  0.1976 -0.1172  0.0917
 5966TIP3   OH217903   0.716   3.967   5.088 -0.0933 -0.2875  0.1630
 5966TIP3    H117904   0.770   3.934   5.160 -0.4206  1.6897  1.4112
 5966TIP3    H217905   0.775   4.026   5.040 -0.2100 -0.7200 -0.5207
 5967TIP3   OH217906   1.233   0.466   2.748  0.2076 -0.2009  0.2930
 5967TIP3    H117907   1.309   0.412   2.726  1.4627  1.5633  0.1280
 5967TIP3    H217908   1.268   0.536   2.802 -1.3861  0.4538  0.5359
 5968TIP3   OH217909   4.377   0.611   2.632 -0.6213  0.7754 -0.1667
 5968TIP3    H117910   4.397   0.520   2.656 -2.1030 -0.0617 -1.8158
 5968TIP3    H217911   4.296   0.631   2.678  0.0850  1.5400  0.7632
 5969TIP3   OH217912   1.095   1.668   3.998  0.0289  0.4909  0.5160
 5969TIP3    H117913   1.173   1.725   3.996  1.4881 -1.3996 -0.6654
 5969TIP3    H217914   1.080   1.646   3.906  0.2436 -1.8704  0.9744
 5970TIP3   OH217915   2.040   2.269   3.100 -0.5598 -0.2940 -0.1934
 5970TIP3    H117916   2.015   2.358   3.076 -0.2673 -0.4198 -0.9996
 5970TIP3    H217917   1.982   2.213   3.050 -0.1416 -0.5618 -0.3877
 5971TIP3   OH217918   5.226   1.452   3.205  0.1792  0.5800 -0.6532
 5971TIP3    H117919   5.134   1.479   3.203  0.4106  1.3940 -2.5656
 5971TIP3    H217920   5.227   1.367   3.161  0.4711  1.1129 -1.7044
 5972TIP3   OH217921   2.477   0.055   2.248  0.3191  0.1059 -0.3391
 5972TIP3    H117922   2.504   0.086   2.334  1.1314 -0.3172 -0.4376
 5972TIP3    H217923   2.382   0.045   2.255  0.2020  1.3968  0.0790
 5973TIP3   OH217924   1.185   3.936   4.049 -0.3196  0.5078  0.2267
 5973TIP3    H117925   1.266   3.975   4.015 -0.8485  0.5378 -1.0645
 5973TIP3    H217926   1.203   3.920   4.141  1.3887 -0.0700 -0.1758
 5974TIP3   OH217927   2.544   4.004   2.037  0.0582 -0.2713 -0.0740
 5974TIP3    H117928   2.547   4.051   1.954 -0.3553 -0.7760 -0.3824
 5974TIP3    H217929   2.554   3.912   2.013 -1.0313 -0.5113  0.3339
 5975TIP3   OH217930   0.627   3.127   3.427 -0.4847  0.7598 -0.0346
 5975TIP3    H117931   0.618   3.033   3.411  0.2741  0.8046 -0.7810
 5975TIP3    H217932   0.637   3.135   3.522 -0.8142  0.1122  0.0591
 5976TIP3   OH217933   0.657   4.355   3.134  0.2131 -0.0986  0.0388
 5976TIP3    H117934   0.683   4.356   3.226 -0.2907 -1.0590  0.2050
 5976TIP3    H217935   0.563   4.340   3.136 -0.4381  3.0308 -0.5555
 5977TIP3   OH217936   5.615   2.331   0.002 -0.2175 -0.4184 -0.4174
 5977TIP3    H117937   5.554   2.309   0.073 -0.1306  0.7620  0.0495
 5977TIP3    H217938   5.670   2.253  -0.008 -1.4588 -1.3129 -0.5016
 5978TIP3   OH217939   4.997   1.921   0.670  0.1807  0.0718 -0.6871
 5978TIP3    H117940   5.026   1.844   0.621 -0.0967 -1.1766  1.0230
 5978TIP3    H217941   4.905   1.933   0.644 -0.2695 -1.1957  0.2179
 5979TIP3   OH217942   0.514   1.108   2.178  0.1359 -0.1719  0.3869
 5979TIP3    H117943   0.606   1.133   2.192  0.7452 -1.6963 -0.6482
 5979TIP3    H217944   0.466   1.190   2.185  1.8566  1.0744 -1.2608
 5980TIP3   OH217945   3.814   5.495   3.732 -0.2274 -0.3567 -0.2214
 5980TIP3    H117946   3.842   5.443   3.657  1.5250 -0.4817  0.4834
 5980TIP3    H217947   3.881   5.480   3.798 -0.6460  1.3539  0.6497
 5981TIP3   OH217948   3.592   3.206   4.579  0.5258 -0.2124 -0.6057
 5981TIP3    H117949   3.639   3.185   4.660 -0.9014  0.5729  0.4931
 5981TIP3    H217950   3.523   3.140   4.574 -1.7731  1.8633  0.9686
 5982TIP3   OH217951   4.476   4.868   4.386  0.0931  0.0749  0.7617
 5982TIP3    H117952   4.463   4.879   4.481 -1.4278 -0.4056  0.6396
 5982TIP3    H217953   4.411   4.926   4.346 -1.3160 -1.8647  0.0643
 5983TIP3   OH217954   2.106   1.436   2.674 -0.5344 -0.6567 -0.2730
 5983TIP3    H117955   2.069   1.379   2.742 -1.9777  1.5493  0.9124
 5983TIP3    H217956   2.131   1.375   2.604 -1.3532 -2.8016  1.1671
 5984TIP3   OH217957   0.907   5.165   0.183  0.0994  0.2056  0.2588
 5984TIP3    H117958   0.933   5.079   0.150  1.5958 -0.0354  1.9274
 5984TIP3    H217959   0.988   5.217   0.181 -0.6696  1.4492 -0.2582
 5985TIP3   OH217960   2.683   1.790   0.806 -0.1331  0.2217  0.0034
 5985TIP3    H117961   2.610   1.729   0.818  1.0649 -1.1028  0.9399
 5985TIP3    H217962   2.651   1.872   0.842 -0.1899 -1.0953  3.2745
 5986TIP3   OH217963   2.786   3.307   1.095 -0.1777 -0.7670 -0.0233
 5986TIP3    H117964   2.736   3.234   1.129 -0.5892 -1.3509 -1.7576
 5986TIP3    H217965   2.861   3.266   1.050  0.4018 -0.0415  0.2556
 5987TIP3   OH217966   2.781   2.012   3.865  0.1173  0.1267 -0.7063
 5987TIP3    H117967   2.836   1.937   3.839 -1.9345 -1.5866 -0.3369
 5987TIP3    H217968   2.719   1.976   3.928 -2.0556  1.7316 -1.7989
 5988TIP3   OH217969   4.218   4.622   0.592  0.2532  0.2714  0.9544
 5988TIP3    H117970   4.298   4.667   0.567  0.2895 -0.1055  0.3894
 5988TIP3    H217971   4.208   4.552   0.528 -1.3452  1.2548  0.0731
 5989TIP3   OH217972   2.797   4.277   1.205  0.8156  0.1479 -0.5549
 5989TIP3    H117973   2.883   4.253   1.241  0.2115  0.1859  1.0047
 5989TIP3    H217974   2.815   4.350   1.145  1.6916  1.4105  1.1634
 5990TIP3   OH217975   1.587   0.776   3.367 -0.2216  0.2028 -0.1647
 5990TIP3    H117976   1.626   0.750   3.451 -0.7662  1.2619  0.4257
 5990TIP3    H217977   1.627   0.716   3.304  2.0305  0.9022  0.4774
 5991TIP3   OH217978   0.236   0.022   3.448 -0.7806 -0.0455  0.2563
 5991TIP3    H117979   0.313   0.072   3.422 -0.8722  0.0744  0.2151
 5991TIP3    H217980   0.169   0.045   3.383 -0.9175  0.0187  0.4206
 5992TIP3   OH217981   3.490   4.460   4.878 -0.6004 -0.4324 -0.0597
 5992TIP3    H117982   3.416   4.435   4.822 -0.2684  1.4588 -1.4416
 5992TIP3    H217983   3.449   4.499   4.955 -1.0679 -0.1515 -0.4425
 5993TIP3   OH217984   5.613   0.700   2.995  0.1920  0.2557 -0.9873
 5993TIP3    H117985   5.572   0.619   3.024  0.1141  0.9314  0.9727
 5993TIP3    H217986   5.543   0.749   2.952 -0.8014  0.8101  1.1017
 5994TIP3   OH217987   0.046   3.079   4.389 -0.2159 -0.0258 -0.0510
 5994TIP3    H117988  -0.038   3.036   4.380 -0.2591  0.0882 -0.1860
 5994TIP3    H217989   0.089   3.067   4.305  0.1315 -0.5640  0.1945
 5995TIP3   OH217990   1.994   4.039   4.216 -0.2773 -0.5583  0.3586
 5995TIP3    H117991   1.974   4.004   4.129 -1.8919 -0.1881  0.5370
 5995TIP3    H217992   2.085   4.016   4.232  0.3735  0.2709 -1.8666
 5996TIP3   OH217993   1.220   3.470   3.668  0.4227 -0.1853 -0.1240
 5996TIP3    H117994   1.159   3.427   3.728 -1.5005  1.8666 -0.4707
 5996TIP3    H217995   1.198   3.563   3.675  1.4285  0.3039 -2.6187
 5997TIP3   OH217996   2.937   2.548   3.634 -0.0069 -0.1538 -0.5887
 5997TIP3    H117997   2.998   2.545   3.560 -0.0323  1.4980 -0.7125
 5997TIP3    H217998   2.875   2.477   3.616  0.0518  0.1364 -2.1051
 5998TIP3   OH217999   6.025   4.577   4.235 -0.0411 -0.1072  0.0655
 5998TIP3    H118000   6.003   4.501   4.289  1.6834  0.3854  1.5727
 5998TIP3    H218001   6.038   4.541   4.147  0.1251 -1.4545  0.6168
 5999TIP3   OH218002   2.577   1.482   0.337  0.3509  0.4862  0.1238
 5999TIP3    H118003   2.634   1.549   0.299  3.0859 -1.0271  1.2407
 5999TIP3    H218004   2.603   1.400   0.294 -1.0574 -0.2738  0.6361
 6000TIP3   OH218005   1.947   5.553   3.159 -0.4313 -0.3758  0.0941
 6000TIP3    H118006   1.856   5.569   3.136 -0.7354 -0.7000  1.0065
 6000TIP3    H218007   1.973   5.479   3.105 -0.2579  0.5822 -1.1905
 6001TIP3   OH218008   4.400   1.585   1.971 -0.1453  0.2097  0.1916
 6001TIP3    H118009   4.486   1.618   1.948 -0.3253  0.6927  0.2021
 6001TIP3    H218010   4.358   1.657   2.018 -0.5079 -0.0634  0.2923
 6002TIP3   OH218011   3.846   1.892   3.503  0.9574 -0.0370 -0.7689
 6002TIP3    H118012   3.829   1.856   3.416  2.0250 -2.3605 -0.0967
 6002TIP3    H218013   3.937   1.868   3.521  1.4274  2.2267  0.1959
 6003TIP3   OH218014   3.910   3.954   2.063  0.1412  0.6294  0.0439
 6003TIP3    H118015   3.900   4.035   2.112  2.3010  0.6075  0.5936
 6003TIP3    H218016   4.004   3.936   2.063 -0.2760 -2.0129  0.1622
 6004TIP3   OH218017   4.741   3.856   2.484  0.2079 -0.2670  0.3109
 6004TIP3    H118018   4.818   3.829   2.534  0.4421 -2.2194 -0.9868
 6004TIP3    H218019   4.686   3.901   2.548  1.8895  0.1315  1.5402
 6005TIP3   OH218020   1.937   1.938   2.672  0.1484  0.4041 -0.1483
 6005TIP3    H118021   1.900   1.882   2.740 -0.4654 -0.5281 -1.2259
 6005TIP3    H218022   2.030   1.913   2.670 -0.0359 -0.2917 -0.3381
 6006TIP3   OH218023   0.286   2.167   1.119 -0.3070 -0.0953  0.3228
 6006TIP3    H118024   0.235   2.140   1.043  0.3006  2.1780 -0.9886
 6006TIP3    H218025   0.269   2.100   1.185 -1.0685 -2.0018 -1.7086
 6007TIP3   OH218026   5.860   3.551   3.113  0.4496 -0.0740  0.1045
 6007TIP3    H118027   5.890   3.478   3.059 -0.8936 -0.0596 -0.6976
 6007TIP3    H218028   5.859   3.626   3.054 -1.8295 -0.2301 -0.1145
 6008TIP3   OH218029   0.810   3.585   3.162  0.1811 -0.0688  0.0570
 6008TIP3    H118030   0.754   3.508   3.168 -1.0438  0.7952 -0.0070
 6008TIP3    H218031   0.820   3.600   3.068 -0.2946  0.3440  0.0678
 6009TIP3   OH218032   5.919   1.748   4.102 -0.2395 -0.0660  0.2293
 6009TIP3    H118033   5.934   1.690   4.028 -2.2032 -1.0169  0.5180
 6009TIP3    H218034   5.956   1.702   4.177 -1.0910 -0.6078  0.3296
 6010TIP3   OH218035   4.462   1.373   3.801  0.2414 -0.5702  0.1348
 6010TIP3    H118036   4.371   1.347   3.800  0.2393 -0.5851  0.6051
 6010TIP3    H218037   4.472   1.424   3.881 -0.3421  2.9841 -1.8275
 6011TIP3   OH218038   0.222   0.928   2.251 -0.1572  0.1074 -0.3228
 6011TIP3    H118039   0.238   0.938   2.345 -0.4628 -0.9593 -0.1429
 6011TIP3    H218040   0.186   1.013   2.224  0.6486  0.6888  0.3524
 6012TIP3   OH218041   4.110   5.674   0.152  0.1807 -0.3809 -0.4131
 6012TIP3    H118042   4.134   5.765   0.131 -0.5469 -0.4005 -1.4200
 6012TIP3    H218043   4.192   5.634   0.180  0.6281  0.4357 -0.5138
 6013TIP3   OH218044   0.952   5.166   0.553  0.4603  0.0796  0.0659
 6013TIP3    H118045   0.958   5.256   0.521  0.9921  0.6770  1.7281
 6013TIP3    H218046   0.860   5.153   0.573  0.4246  0.3507  0.0784
 6014TIP3   OH218047   5.140   4.255   1.170  0.3846  0.6767  0.4144
 6014TIP3    H118048   5.172   4.264   1.080  0.5277  0.4546  0.4429
 6014TIP3    H218049   5.091   4.336   1.186 -2.1567 -0.4904 -0.8576
 6015TIP3   OH218050   5.403   4.993   4.801  0.0866  0.2978  0.5134
 6015TIP3    H118051   5.396   5.001   4.706  0.1206 -0.7742  0.4040
 6015TIP3    H218052   5.393   4.899   4.817  0.7290  0.3901  1.5069
 6016TIP3   OH218053   2.721   1.074   4.504 -0.3140 -0.7523 -0.1959
 6016TIP3    H118054   2.626   1.068   4.500 -0.3421 -1.0329  0.6787
 6016TIP3    H218055   2.745   1.021   4.580  0.3646  1.1317  0.9736
 6017TIP3   OH218056   0.730   4.396   1.349 -0.5955 -0.1483  0.5038
 6017TIP3    H118057   0.745   4.466   1.285 -0.1352 -0.4080  0.3236
 6017TIP3    H218058   0.671   4.434   1.414  0.7194  0.8505  1.1465
 6018TIP3   OH218059   3.966   0.146   2.527 -0.2458  0.3726 -0.0115
 6018TIP3    H118060   3.871   0.147   2.520 -0.4113  2.1735  1.6168
 6018TIP3    H218061   3.995   0.228   2.488  0.5800  0.1624  0.1281
 6019TIP3   OH218062   2.706   0.498   3.297  0.0207  0.6121 -0.4162
 6019TIP3    H118063   2.798   0.509   3.323  0.3175 -0.9162 -0.7404
 6019TIP3    H218064   2.677   0.421   3.346 -1.0794  1.0310 -0.3850
 6020TIP3   OH218065   2.933   5.150   0.934 -0.7185 -0.3968 -0.6274
 6020TIP3    H118066   2.938   5.215   1.003 -0.0514 -1.3354  0.2483
 6020TIP3    H218067   3.010   5.094   0.948 -0.7418 -0.8002 -1.9347
 6021TIP3   OH218068   1.420   2.812   3.689  0.2102  0.5589  1.1912
 6021TIP3    H118069   1.450   2.726   3.658  1.0700  1.1419  0.3296
 6021TIP3    H218070   1.334   2.795   3.728  0.2777 -0.6609  0.8560
 6022TIP3   OH218071   0.995   0.589   4.403 -0.1648 -0.1427 -0.0735
 6022TIP3    H118072   1.040   0.669   4.430  1.5766 -1.6231  1.6872
 6022TIP3    H218073   0.915   0.587   4.456  0.3548 -0.1075  0.7270
 6023TIP3   OH218074   3.440   0.436   2.303  0.1803  0.0524  0.4705
 6023TIP3    H118075   3.438   0.496   2.229  0.7582  0.7786  1.0273
 6023TIP3    H218076   3.350   0.433   2.335 -0.3140 -1.1402 -0.9198
 6024TIP3   OH218077   0.117   5.069   3.837  0.2919 -0.0122  0.0243
 6024TIP3    H118078   0.093   5.070   3.930 -0.0382  1.5937 -0.0537
 6024TIP3    H218079   0.034   5.083   3.792  0.5632 -0.0450 -0.4854
 6025TIP3   OH218080   0.944   4.204   3.255 -0.5177  0.5109 -0.0646
 6025TIP3    H118081   0.906   4.208   3.167 -0.2261  1.4699 -0.1601
 6025TIP3    H218082   1.007   4.133   3.251 -2.0583 -0.9221  0.0117
 6026TIP3   OH218083   3.425   4.736   0.059  0.0100  0.0417 -0.4537
 6026TIP3    H118084   3.477   4.656   0.054 -0.9218 -0.6892  0.6934
 6026TIP3    H218085   3.489   4.807   0.058  0.8647 -0.7138 -1.3375
 6027TIP3   OH218086   5.535   3.953   5.100 -0.1357 -0.1108  0.7039
 6027TIP3    H118087   5.585   3.914   5.028  0.8492  0.4140  1.0884
 6027TIP3    H218088   5.556   3.899   5.176  0.6419  0.6986  1.0765
 6028TIP3   OH218089   2.485   3.673   3.527 -0.3886 -0.2943  0.3436
 6028TIP3    H118090   2.563   3.678   3.471 -0.9562  1.9122 -0.3439
 6028TIP3    H218091   2.445   3.589   3.505  0.6232 -0.4789 -0.8958
 6029TIP3   OH218092   3.536   5.919   2.465 -0.0185  0.1602 -1.1388
 6029TIP3    H118093   3.577   5.833   2.458  0.2508  0.1809 -0.0580
 6029TIP3    H218094   3.541   5.956   2.377  3.1781  0.5603 -0.9108
 6030TIP3   OH218095   0.041   2.017  -0.030 -0.1333  0.1827  0.4305
 6030TIP3    H118096   0.043   1.976   0.057  0.9944  0.6117  0.6304
 6030TIP3    H218097  -0.019   2.091  -0.020 -1.3027 -0.7257  0.3719
 6031TIP3   OH218098   5.332   3.050   4.878 -0.1142 -0.2488 -0.1257
 6031TIP3    H118099   5.250   3.087   4.912  0.4084 -0.6345  1.6838
 6031TIP3    H218100   5.306   2.966   4.840 -0.8623  0.6063 -1.5948
 6032TIP3   OH218101   1.213   3.371   2.285 -0.2978 -0.0075  0.4506
 6032TIP3    H118102   1.293   3.380   2.336 -0.4144  2.4937  0.3213
 6032TIP3    H218103   1.229   3.421   2.205 -0.4481 -3.1228 -1.6876
 6033TIP3   OH218104   5.140   0.793   3.071  0.4414 -0.1934  0.0628
 6033TIP3    H118105   5.219   0.804   3.019  0.7843  0.9718  0.7832
 6033TIP3    H218106   5.070   0.777   3.007  1.3189 -1.8361 -0.5543
 6034TIP3   OH218107   3.290   4.859   4.208  0.0048 -0.5140  0.2450
 6034TIP3    H118108   3.255   4.783   4.255  1.5060 -1.6427 -0.3868
 6034TIP3    H218109   3.290   4.833   4.116  2.9102 -0.8422  0.2274
 6035TIP3   OH218110   3.594   4.074   1.796  0.0299 -0.0732  0.4182
 6035TIP3    H118111   3.613   3.991   1.839 -0.9667 -0.2055  0.6356
 6035TIP3    H218112   3.582   4.050   1.704 -2.6423 -0.6084  0.8282
 6036TIP3   OH218113   3.877   3.403   3.589  0.1737 -0.7551 -0.1813
 6036TIP3    H118114   3.819   3.457   3.643  0.6137 -1.0848  0.6219
 6036TIP3    H218115   3.819   3.335   3.553 -0.0520 -0.7464  0.1585
 6037TIP3   OH218116   1.356   5.565   3.294 -0.2953  0.0103  0.2534
 6037TIP3    H118117   1.289   5.632   3.286 -1.5354 -1.3178 -1.2228
 6037TIP3    H218118   1.367   5.530   3.205  0.3948 -1.6362  0.9255
 6038TIP3   OH218119   2.407   0.763   2.537 -0.0080 -0.0462  0.1463
 6038TIP3    H118120   2.400   0.841   2.593  1.9952 -0.5384  1.1844
 6038TIP3    H218121   2.485   0.718   2.569 -0.1682 -1.6211 -1.5332
 6039TIP3   OH218122   1.761   1.646   1.513  0.1663 -0.3447  0.6364
 6039TIP3    H118123   1.812   1.675   1.589  1.9744  0.3632 -0.7658
 6039TIP3    H218124   1.742   1.554   1.531  0.5068 -0.1860  1.9537
 6040TIP3   OH218125   2.059   2.346   2.430 -0.7543  0.3574 -0.2042
 6040TIP3    H118126   2.056   2.252   2.414 -3.4118 -0.2021  2.5176
 6040TIP3    H218127   2.099   2.354   2.517 -2.0260  1.5189  0.3236
 6041TIP3   OH218128   4.130   0.158   0.764  0.8282  0.6337  0.4932
 6041TIP3    H118129   4.220   0.126   0.761  0.5143 -0.2238 -1.3530
 6041TIP3    H218130   4.137   0.251   0.742  1.2732  0.5921  0.4452
 6042TIP3   OH218131   2.978   2.043   4.832  0.2043  0.1972  0.0657
 6042TIP3    H118132   3.048   2.023   4.769  0.2326  0.5930 -0.0291
 6042TIP3    H218133   2.898   2.040   4.780 -0.1959 -2.9386  0.6636
 6043TIP3   OH218134   0.898   0.904   4.048 -0.2699 -0.1990  0.4312
 6043TIP3    H118135   0.958   0.841   4.009  0.3548  0.4248  0.3807
 6043TIP3    H218136   0.850   0.852   4.114  1.1997 -0.4429  1.3747
 6044TIP3   OH218137   5.093   5.325   0.166  0.2917  0.4533 -0.2330
 6044TIP3    H118138   5.173   5.345   0.215 -0.5427  0.5757  1.1047
 6044TIP3    H218139   5.022   5.361   0.219 -0.8403 -1.4200 -0.3755
 6045TIP3   OH218140   1.517   2.465   2.813  0.1092 -0.1510 -0.5842
 6045TIP3    H118141   1.563   2.420   2.743  1.4791 -0.4902  0.4878
 6045TIP3    H218142   1.566   2.546   2.827  0.0142 -0.2155  0.1617
 6046TIP3   OH218143   2.680   4.298   3.393  0.0073 -0.0415  0.5522
 6046TIP3    H118144   2.718   4.380   3.361  1.1888 -0.7579  0.0570
 6046TIP3    H218145   2.623   4.269   3.322 -1.8960  1.2435  1.4585
 6047TIP3   OH218146   2.195   5.283   1.872 -0.2988 -0.0124  0.5267
 6047TIP3    H118147   2.222   5.345   1.940  0.1551  0.9874 -0.5111
 6047TIP3    H218148   2.265   5.219   1.869  0.0792  0.3949  0.4663
 6048TIP3   OH218149   1.152   5.735   3.744 -0.3489 -0.0863 -0.5597
 6048TIP3    H118150   1.092   5.667   3.713 -1.4238  1.3834 -1.8718
 6048TIP3    H218151   1.233   5.719   3.697 -0.7439 -0.2132 -1.2186
 6049TIP3   OH218152   5.249   5.420   3.745  0.1458  0.4011 -0.7220
 6049TIP3    H118153   5.154   5.426   3.747  0.1434  2.1807 -2.4891
 6049TIP3    H218154   5.277   5.499   3.699  2.4867 -0.0943 -0.2933
 6050TIP3   OH218155   2.566   0.180   0.870 -0.0959 -0.0421  0.3195
 6050TIP3    H118156   2.492   0.213   0.818  1.5620  2.2823 -0.7485
 6050TIP3    H218157   2.587   0.096   0.830 -0.6630  0.3891 -0.9456
 6051TIP3   OH218158   3.429   0.854   0.594 -0.2279 -0.3553  1.0919
 6051TIP3    H118159   3.423   0.826   0.503  0.2161 -0.4939  1.1035
 6051TIP3    H218160   3.442   0.949   0.589 -1.2400 -0.2156  1.0409
 6052TIP3   OH218161   1.350   4.835   4.314  0.3273 -0.1721  0.7539
 6052TIP3    H118162   1.287   4.850   4.384 -1.2620 -1.1368 -0.4041
 6052TIP3    H218163   1.350   4.741   4.300  0.6019 -0.0018 -0.5387
 6053TIP3   OH218164   2.506   4.355   1.509 -0.0479  0.2449 -0.7155
 6053TIP3    H118165   2.412   4.374   1.502 -0.2728  0.0548  1.3707
 6053TIP3    H218166   2.518   4.324   1.598  1.6611 -1.8501 -1.5912
 6054TIP3   OH218167   2.158   1.374   0.827  0.0103 -0.1167  0.5265
 6054TIP3    H118168   2.148   1.410   0.915 -0.8883 -0.2470  0.4873
 6054TIP3    H218169   2.100   1.427   0.772  1.2648  0.5800 -0.1795
 6055TIP3   OH218170   4.103   0.053   0.499  0.1274  0.2210 -0.0457
 6055TIP3    H118171   4.073   0.086   0.584  2.2133 -0.4061  1.0157
 6055TIP3    H218172   4.195   0.080   0.495  0.5491 -1.2945 -1.3264
 6056TIP3   OH218173   3.067   1.786   2.109  0.5481 -0.3180  0.3196
 6056TIP3    H118174   3.005   1.713   2.104  0.9920 -0.6976  0.1843
 6056TIP3    H218175   3.106   1.791   2.022  0.1584  0.4133  0.1878
 6057TIP3   OH218176   0.854   5.075   4.703 -0.0578 -0.2150  0.0736
 6057TIP3    H118177   0.899   5.160   4.705 -0.2512 -0.0996 -0.2715
 6057TIP3    H218178   0.892   5.026   4.775 -0.3206  0.3624  0.6118
 6058TIP3   OH218179   4.633   0.767   4.493  0.1427 -0.0724  0.0456
 6058TIP3    H118180   4.540   0.758   4.472  0.4554 -1.6794 -0.8634
 6058TIP3    H218181   4.677   0.708   4.432  1.7097  0.1666  0.8832
 6059TIP3   OH218182   6.069   5.424   3.952  0.7299  0.0146  0.5630
 6059TIP3    H118183   6.132   5.468   3.895 -0.2946 -1.9111 -2.2694
 6059TIP3    H218184   6.123   5.386   4.022  2.6281 -0.6325 -1.1441
 6060TIP3   OH218185   3.199   4.840   0.475  0.0953 -0.4436 -0.1559
 6060TIP3    H118186   3.234   4.752   0.465  3.7602  1.0276 -2.1441
 6060TIP3    H218187   3.159   4.859   0.390 -2.7890 -0.8474  0.9902
 6061TIP3   OH218188   2.152   1.324   2.440 -0.0353  0.5468  0.7072
 6061TIP3    H118189   2.211   1.385   2.396  0.6944 -0.0578  0.8332
 6061TIP3    H218190   2.168   1.240   2.397 -0.9456  0.4100  0.6135
 6062TIP3   OH218191   2.887   3.861   0.622  0.2749 -0.1766 -0.1096
 6062TIP3    H118192   2.829   3.876   0.696 -2.1979 -1.5390 -1.6488
 6062TIP3    H218193   2.928   3.946   0.606 -1.2890  0.8509  1.0522
 6063TIP3   OH218194   6.104   5.297   3.217  0.0234 -0.2142  0.2371
 6063TIP3    H118195   6.074   5.234   3.151  1.4781 -0.8898  0.1874
 6063TIP3    H218196   6.188   5.262   3.247 -0.0547  0.7089  1.6040
 6064TIP3   OH218197   1.068   4.272   0.519  0.2815  0.3115  0.0276
 6064TIP3    H118198   1.151   4.293   0.476  1.1384 -1.3130  0.7927
 6064TIP3    H218199   1.043   4.187   0.483 -1.8015  1.3510 -1.1850
 6065TIP3   OH218200   1.015   3.676   4.105 -0.0434  0.3671 -0.0680
 6065TIP3    H118201   1.017   3.581   4.089 -1.4041  0.3182 -0.0893
 6065TIP3    H218202   1.054   3.714   4.026 -0.6295 -0.1289 -0.6082
 6066TIP3   OH218203   2.271   2.136   1.286  0.2853  0.2073 -0.0032
 6066TIP3    H118204   2.262   2.203   1.353  0.9492  1.1694 -0.8440
 6066TIP3    H218205   2.200   2.074   1.303 -0.6908  1.4211  0.4562
 6067TIP3   OH218206   6.114   4.264   0.425  0.2283 -0.3034 -0.0338
 6067TIP3    H118207   6.082   4.343   0.380  0.3550 -1.1343 -1.6450
 6067TIP3    H218208   6.157   4.298   0.504 -1.9191  1.0496  0.6561
 6068TIP3   OH218209   5.465   1.441   4.798  0.2659  0.0079 -0.3050
 6068TIP3    H118210   5.411   1.418   4.723 -0.0142 -0.6435  0.0885
 6068TIP3    H218211   5.404   1.438   4.873  1.1249 -2.2493  0.3885
 6069TIP3   OH218212   3.234   1.295   1.794  0.0161  0.6628  0.4843
 6069TIP3    H118213   3.211   1.292   1.701 -0.7948  1.1819  0.6537
 6069TIP3    H218214   3.157   1.334   1.836  0.5659  0.8751  1.3115
 6070TIP3   OH218215   5.940   1.514   3.845  0.3310  0.9642  0.0867
 6070TIP3    H118216   6.030   1.543   3.827  0.3926 -0.5181 -2.2484
 6070TIP3    H218217   5.893   1.528   3.763 -1.1878  0.2102  0.7949
 6071TIP3   OH218218   2.186   5.865   2.737  0.4023 -0.0762  0.1669
 6071TIP3    H118219   2.110   5.880   2.794  1.3014  1.3992  1.0836
 6071TIP3    H218220   2.248   5.817   2.792  1.4463  1.7229  0.6628
 6072TIP3   OH218221   1.500   3.012   0.552 -0.1157  0.2053 -0.4786
 6072TIP3    H118222   1.561   2.960   0.604 -0.9207  0.3162  0.6086
 6072TIP3    H218223   1.553   3.086   0.521  0.1949  0.5735  0.8719
 6073TIP3   OH218224   5.293   0.889   4.526  0.0981  0.2209  0.1575
 6073TIP3    H118225   5.364   0.848   4.476 -0.3582 -0.5402  0.1216
 6073TIP3    H218226   5.272   0.826   4.595  0.2461  0.9590  0.8973
 6074TIP3   OH218227   0.222   2.403   0.075 -0.5884 -0.3407  0.0646
 6074TIP3    H118228   0.137   2.364   0.055 -0.1198 -0.5623 -1.6466
 6074TIP3    H218229   0.282   2.329   0.078 -0.2599 -0.0713  0.1247
 6075TIP3   OH218230   5.733   0.859   1.787  0.3076 -0.0235 -0.5485
 6075TIP3    H118231   5.698   0.781   1.744  2.2088 -0.2951 -1.7245
 6075TIP3    H218232   5.725   0.840   1.881 -0.5558 -1.0038 -0.8009
 6076TIP3   OH218233   0.620   1.914   2.497 -0.1814 -0.1983  0.1246
 6076TIP3    H118234   0.538   1.942   2.456 -1.6043 -2.1824  1.4417
 6076TIP3    H218235   0.666   1.866   2.428  0.4035  1.7236 -0.9130
 6077TIP3   OH218236   3.121   2.747   3.160  0.4079 -0.1444  0.6268
 6077TIP3    H118237   3.199   2.695   3.141  0.5483 -0.1852  1.2921
 6077TIP3    H218238   3.057   2.719   3.094  1.3287  0.7526 -0.6782
 6078TIP3   OH218239   4.289   3.932   3.152  0.1314  0.5506 -1.1974
 6078TIP3    H118240   4.262   3.871   3.084 -0.7646  0.0670 -0.4396
 6078TIP3    H218241   4.376   3.904   3.178 -0.4519 -0.7323 -0.5353
 6079TIP3   OH218242   4.640   4.592   2.432 -0.2075 -0.1168  0.0931
 6079TIP3    H118243   4.632   4.497   2.446 -1.4381 -0.0186  0.1154
 6079TIP3    H218244   4.669   4.626   2.516  0.6028 -0.5051 -0.0170
 6080TIP3   OH218245   0.236   5.487   2.198  0.3151 -0.0729 -0.4512
 6080TIP3    H118246   0.150   5.475   2.158 -0.3988 -1.3088  1.3152
 6080TIP3    H218247   0.260   5.576   2.176 -0.9006 -0.0593 -1.9282
 6081TIP3   OH218248   1.763   3.315   4.103  0.2969 -0.2162  0.4104
 6081TIP3    H118249   1.855   3.309   4.129  0.5789  0.5969 -0.3764
 6081TIP3    H218250   1.741   3.227   4.073  0.8957 -0.3532  0.3565
 6082TIP3   OH218251   2.464   5.002   2.732  0.2218  0.5044  0.1075
 6082TIP3    H118252   2.413   4.936   2.684  0.3221 -0.5805  1.4333
 6082TIP3    H218253   2.512   5.049   2.664  0.1218 -0.7730 -0.8830
 6083TIP3   OH218254   4.602   4.126   3.248  0.0629 -0.2612  0.0088
 6083TIP3    H118255   4.683   4.171   3.270  0.2538 -0.5818 -0.0405
 6083TIP3    H218256   4.533   4.190   3.269  0.4035  0.8311 -1.9964
 6084TIP3   OH218257   3.395   3.780   3.334 -0.2423 -0.1502  0.2869
 6084TIP3    H118258   3.463   3.846   3.317  0.0387 -0.0656  1.6059
 6084TIP3    H218259   3.445   3.698   3.347 -0.6471 -0.9497 -2.5320
 6085TIP3   OH218260   5.355   3.426   3.145 -0.0354 -0.7763  0.1491
 6085TIP3    H118261   5.417   3.353   3.154 -1.3932 -1.8425  1.2268
 6085TIP3    H218262   5.395   3.482   3.078  1.9008 -1.6084  0.5207
 6086TIP3   OH218263   1.309   2.547   3.479  0.0898 -0.2308 -0.9494
 6086TIP3    H118264   1.362   2.614   3.437 -2.1300  1.3245 -1.4505
 6086TIP3    H218265   1.319   2.470   3.424  0.3934  0.5725 -2.0441
 6087TIP3   OH218266   3.037   1.060   0.114 -0.0058  0.2800  0.2906
 6087TIP3    H118267   2.992   1.144   0.114  1.2636  1.0062 -0.7674
 6087TIP3    H218268   3.002   1.014   0.037  1.1245  0.9127 -0.6296
 6088TIP3   OH218269   5.181   1.715   0.079 -0.2335  0.2135 -0.5316
 6088TIP3    H118270   5.160   1.807   0.067  2.2183  0.6934 -1.8418
 6088TIP3    H218271   5.272   1.706   0.048  0.2213 -2.3036  1.1634
 6089TIP3   OH218272   2.983   1.016   2.056 -0.7344 -0.1497  0.6795
 6089TIP3    H118273   2.933   0.978   2.128 -0.2360 -1.1932  0.4933
 6089TIP3    H218274   3.012   0.941   2.004 -0.6055  0.5564 -0.2938
 6090TIP3   OH218275   5.888   3.507   3.933 -0.3326  0.0260  0.0647
 6090TIP3    H118276   5.849   3.587   3.900 -1.7195 -1.5053 -2.3300
 6090TIP3    H218277   5.863   3.504   4.025 -1.5080  1.6234 -0.1744
 6091TIP3   OH218278   2.050   2.949   3.817  0.1777 -0.6857  0.1699
 6091TIP3    H118279   1.999   3.011   3.764  0.6853  0.2714  0.7688
 6091TIP3    H218280   2.069   2.877   3.758 -2.4314 -1.4307  0.0890
 6092TIP3   OH218281   1.111   4.949   0.608  0.2263  0.5552  0.5008
 6092TIP3    H118282   1.064   4.872   0.576  0.8734  0.6458 -0.7244
 6092TIP3    H218283   1.062   5.023   0.574  0.6276  0.6580  0.1316
 6093TIP3   OH218284   1.404   2.571   1.214  0.4077 -0.4433 -0.0252
 6093TIP3    H118285   1.456   2.577   1.134 -1.2594 -1.7911 -1.2962
 6093TIP3    H218286   1.443   2.499   1.263  1.1636  0.0962  0.1767
 6094TIP3   OH218287   1.414   0.347   1.091 -0.0002 -0.2379 -1.1750
 6094TIP3    H118288   1.491   0.366   1.145 -1.6927 -0.4771  1.4973
 6094TIP3    H218289   1.391   0.431   1.052 -0.8640  0.8940  1.5373
 6095TIP3   OH218290   2.456   5.627   0.781 -0.0807  0.0663 -0.0643
 6095TIP3    H118291   2.459   5.544   0.829 -0.7332 -0.1783 -0.4268
 6095TIP3    H218292   2.503   5.689   0.836  2.3003 -1.0101 -0.7274
 6096TIP3   OH218293   4.360   5.594   4.746  0.3851  0.6038  0.0903
 6096TIP3    H118294   4.350   5.640   4.662  0.0203 -0.8927 -0.7064
 6096TIP3    H218295   4.430   5.643   4.791 -0.6099  2.4974 -0.3113
 6097TIP3   OH218296   1.885   0.063   1.920 -0.3592  0.5255  0.0938
 6097TIP3    H118297   1.944   0.025   1.854  1.6036 -0.0347  2.0423
 6097TIP3    H218298   1.902   0.157   1.915 -0.6151  0.5419 -0.5484
 6098TIP3   OH218299   2.602   1.865   4.678 -0.2589  0.2561 -0.1574
 6098TIP3    H118300   2.569   1.810   4.608  0.8818 -2.3662  1.2325
 6098TIP3    H218301   2.533   1.863   4.745 -0.0110  0.0970  0.0976
 6099TIP3   OH218302   4.730   4.385   4.943 -0.2924  0.0085  0.7068
 6099TIP3    H118303   4.797   4.329   4.983 -0.5288 -1.0738 -0.3455
 6099TIP3    H218304   4.721   4.351   4.854 -2.0149  0.3307  0.7262
 6100TIP3   OH218305   5.581   3.646   4.782 -0.4223  0.0770 -0.3180
 6100TIP3    H118306   5.621   3.559   4.787 -0.5306 -0.0579 -1.4419
 6100TIP3    H218307   5.499   3.632   4.735 -1.1859  0.5548  0.8513
 6101TIP3   OH218308   2.215   3.922   2.399 -0.4182  0.2583 -0.1511
 6101TIP3    H118309   2.278   3.864   2.356 -1.9234 -2.1602  0.7015
 6101TIP3    H218310   2.164   3.958   2.327  0.4720  0.4753 -0.6933
 6102TIP3   OH218311   5.172   0.279   3.487  0.6265  0.1805 -0.1704
 6102TIP3    H118312   5.113   0.261   3.414 -0.2758 -1.2837  0.8893
 6102TIP3    H218313   5.250   0.227   3.469  0.0842 -0.8100  0.2883
 6103TIP3   OH218314   2.771   0.384   0.104 -0.0636  0.1295 -0.0238
 6103TIP3    H118315   2.690   0.416   0.064  0.3395  1.8368  0.4564
 6103TIP3    H218316   2.838   0.447   0.077  0.1368  1.8035  3.7406
 6104TIP3   OH218317   2.626   1.600   1.464 -0.4065 -0.4063  0.0448
 6104TIP3    H118318   2.551   1.655   1.444 -1.1164 -0.5222  2.0835
 6104TIP3    H218319   2.694   1.627   1.403 -0.9555  2.2414  0.5102
 6105TIP3   OH218320   1.776   0.604   1.646  0.0783 -0.4514 -0.3477
 6105TIP3    H118321   1.783   0.514   1.679 -1.4992 -0.8114 -0.8923
 6105TIP3    H218322   1.781   0.658   1.725 -1.0696 -1.1533  0.2510
 6106TIP3   OH218323   3.319   1.483   0.347  0.2607 -0.0839 -0.6374
 6106TIP3    H118324   3.372   1.480   0.268 -0.7395  2.8273 -1.5511
 6106TIP3    H218325   3.232   1.456   0.319  0.2861 -0.7574 -0.0979
 6107TIP3   OH218326   0.324   5.838   0.928 -0.5248  0.2402 -0.1492
 6107TIP3    H118327   0.400   5.873   0.881 -0.8120  0.0913 -0.7363
 6107TIP3    H218328   0.254   5.837   0.862 -0.9174 -0.0312  0.2700
 6108TIP3   OH218329   1.209   1.409   4.117  0.2673 -0.2092  0.3331
 6108TIP3    H118330   1.169   1.470   4.054  1.1821  0.2464  0.1791
 6108TIP3    H218331   1.282   1.370   4.069 -1.3247 -2.7873 -0.1704
 6109TIP3   OH218332   0.876   3.622   5.033 -0.0352  0.2015 -0.5809
 6109TIP3    H118333   0.965   3.601   5.059 -0.2334 -0.0472 -0.0874
 6109TIP3    H218334   0.822   3.556   5.077 -0.6873  1.7580  1.0933
 6110TIP3   OH218335   2.277   0.192   3.572  0.1099  0.6931  0.0072
 6110TIP3    H118336   2.227   0.124   3.527 -1.0814  1.1556  0.5883
 6110TIP3    H218337   2.212   0.257   3.596  1.2940  2.3523 -1.0583
 6111TIP3   OH218338   0.967   4.780   4.165  1.1191  0.2180  0.2130
 6111TIP3    H118339   0.975   4.803   4.257  0.0563 -0.0435  0.3844
 6111TIP3    H218340   1.045   4.729   4.145  0.2574 -1.7109  1.5823
 6112TIP3   OH218341   3.924   4.232   0.495  0.0526  0.3546  0.3019
 6112TIP3    H118342   3.980   4.282   0.554  0.6298  0.8121 -0.6028
 6112TIP3    H218343   3.983   4.170   0.453  0.0572  1.2967 -1.1676
 6113TIP3   OH218344   3.906   0.767   2.645 -0.5841 -0.5413  0.1014
 6113TIP3    H118345   3.892   0.862   2.639 -0.4207 -0.3610  2.0605
 6113TIP3    H218346   3.819   0.729   2.634 -0.5370 -0.2516 -1.5548
 6114TIP3   OH218347   0.275   1.968   3.245 -0.1007 -0.1521 -0.0477
 6114TIP3    H118348   0.188   1.930   3.257 -0.2600  0.0914 -0.3921
 6114TIP3    H218349   0.306   1.987   3.333 -1.3087  1.7822  0.0314
 6115TIP3   OH218350   0.586   1.452   1.638 -0.6548 -0.0702 -0.2009
 6115TIP3    H118351   0.681   1.445   1.630 -0.8188 -1.5931 -1.1616
 6115TIP3    H218352   0.553   1.445   1.549 -1.6282  2.1302 -0.0846
 6116TIP3   OH218353   2.069   4.822   4.374 -0.2518 -0.2525 -0.6786
 6116TIP3    H118354   2.031   4.869   4.448 -0.9188 -2.4614  0.4947
 6116TIP3    H218355   2.002   4.757   4.351  1.9185 -2.9358  0.1234
 6117TIP3   OH218356   0.622   3.732   3.983  0.3052  0.2546  0.1452
 6117TIP3    H118357   0.659   3.799   3.927  0.4727  0.1381  0.1154
 6117TIP3    H218358   0.623   3.652   3.930 -1.1076  0.4909 -0.2908
 6118TIP3   OH218359   0.169   5.358   3.826  0.3396 -0.1185  1.1747
 6118TIP3    H118360   0.168   5.316   3.912  1.1729 -0.5452  0.9811
 6118TIP3    H218361   0.252   5.405   3.823  1.4485 -2.0483 -0.3065
 6119TIP3   OH218362   0.856   5.649   1.309 -1.1531  0.8288 -0.1875
 6119TIP3    H118363   0.817   5.679   1.227 -2.4488  0.2064  0.1582
 6119TIP3    H218364   0.935   5.602   1.283 -1.0787  1.3906 -0.9979
 6120TIP3   OH218365   3.790   3.392   5.078 -0.0617  0.5138 -0.5291
 6120TIP3    H118366   3.863   3.429   5.029  2.1534  0.6375  2.5627
 6120TIP3    H218367   3.745   3.468   5.115  0.8924  0.3864  0.9890
 6121TIP3   OH218368   4.418   0.733   4.756 -0.4909  0.1434 -0.1848
 6121TIP3    H118369   4.388   0.711   4.844 -0.0822 -0.5707 -0.2194
 6121TIP3    H218370   4.367   0.811   4.732 -1.1115 -0.0733  0.4035
 6122TIP3   OH218371   4.606   3.946   4.111  0.4434  0.2624  0.6921
 6122TIP3    H118372   4.648   3.863   4.090 -0.6240  0.2425 -1.8237
 6122TIP3    H218373   4.513   3.924   4.120  0.1311  1.1583 -0.1499
 6123TIP3   OH218374   0.249   1.607   3.938  0.1265  0.4310 -0.1056
 6123TIP3    H118375   0.292   1.540   3.991 -1.2773 -1.4402 -1.2031
 6123TIP3    H218376   0.167   1.567   3.911  0.4108  1.5588 -3.0309
 6124TIP3   OH218377   4.639   4.328   4.664  0.4165  0.7143 -0.1205
 6124TIP3    H118378   4.591   4.246   4.678 -1.2077  1.3131 -1.8547
 6124TIP3    H218379   4.676   4.320   4.577  0.7619  1.5802 -0.0612
 6125TIP3   OH218380   4.185   3.463   2.557  0.1357 -0.4939  0.3664
 6125TIP3    H118381   4.158   3.409   2.631 -1.9432  1.9562  1.5645
 6125TIP3    H218382   4.105   3.506   2.528  1.4395  0.9614 -1.3142
 6126TIP3   OH218383   4.213   4.132   1.847 -0.1222 -0.6658  0.0964
 6126TIP3    H118384   4.233   4.220   1.817  2.0513 -1.4540 -0.9683
 6126TIP3    H218385   4.152   4.098   1.782 -1.5105  0.2425  0.8832
 6127TIP3   OH218386   4.119   1.084   4.497 -0.1627 -0.1992 -0.3601
 6127TIP3    H118387   4.066   1.125   4.429  0.7381 -1.1475 -1.6898
 6127TIP3    H218388   4.071   1.099   4.578 -0.3919  2.5049 -0.9232
 6128TIP3   OH218389   1.457   2.115   3.986  0.4160 -0.3188 -0.7243
 6128TIP3    H118390   1.470   2.026   4.017  1.4774 -0.1343 -0.5942
 6128TIP3    H218391   1.465   2.169   4.065  0.3846 -0.0634 -0.8922
 6129TIP3   OH218392   5.926   0.618   4.008  0.5859 -0.1676  0.5287
 6129TIP3    H118393   5.877   0.698   3.989  1.1376 -0.2595 -1.5206
 6129TIP3    H218394   6.005   0.648   4.052  0.7888  0.4245 -0.2270
 6130TIP3   OH218395   2.221   3.043   0.358 -0.5576  0.4959  0.4932
 6130TIP3    H118396   2.211   3.010   0.269 -0.2800  1.5841  0.0393
 6130TIP3    H218397   2.301   3.002   0.390 -0.5428  0.2614  0.1582
 6131TIP3   OH218398   1.882   1.614   2.725 -0.2700  0.3499 -0.3961
 6131TIP3    H118399   1.851   1.526   2.745  1.2954  0.0121  0.7026
 6131TIP3    H218400   1.964   1.600   2.677 -0.2761  1.2241 -0.6816
 6132TIP3   OH218401   0.032   0.870   0.950 -0.0001 -0.1123  0.8694
 6132TIP3    H118402   0.081   0.900   0.873  0.4103 -1.1627  0.7081
 6132TIP3    H218403   0.072   0.917   1.023  0.3119  0.1043  0.5636
 6133TIP3   OH218404   5.961   1.690   2.717 -0.4712 -0.1804 -0.0640
 6133TIP3    H118405   5.910   1.742   2.655 -0.5029 -2.9227 -2.5486
 6133TIP3    H218406   5.898   1.627   2.753  0.0347 -0.0517  1.1028
 6134TIP3   OH218407   5.835   1.937   4.833  0.5163  0.0094 -0.4160
 6134TIP3    H118408   5.893   1.980   4.770 -1.3710  1.0332 -1.5447
 6134TIP3    H218409   5.820   2.003   4.901 -0.1335  0.1359 -0.6757
 6135TIP3   OH218410   6.197   2.765   3.181  0.2155  0.1261  0.0898
 6135TIP3    H118411   6.282   2.796   3.210  0.0188 -1.0566  2.1265
 6135TIP3    H218412   6.216   2.684   3.133  0.3155  0.5642 -0.6270
 6136TIP3   OH218413   4.153   0.431   3.856  0.2375 -0.0283 -0.3279
 6136TIP3    H118414   4.104   0.356   3.823 -2.6025  0.5070  2.3164
 6136TIP3    H218415   4.228   0.392   3.902 -0.0887 -1.1002 -0.6715
 6137TIP3   OH218416   4.337   1.153   2.568  0.2036  0.3085  0.2248
 6137TIP3    H118417   4.381   1.075   2.601  4.1582  1.4733 -1.6568
 6137TIP3    H218418   4.343   1.145   2.473  0.1408  2.5506 -0.0185
 6138TIP3   OH218419   2.061   3.210   3.235 -0.2823 -0.1165 -0.2000
 6138TIP3    H118420   2.056   3.212   3.330 -0.9461 -2.5709 -0.1245
 6138TIP3    H218421   1.970   3.204   3.206 -0.0173 -0.8063 -0.9192
 6139TIP3   OH218422   2.829   0.320   1.159  0.3192  0.9189  0.0111
 6139TIP3    H118423   2.776   0.353   1.087  2.9102  1.4878 -1.7853
 6139TIP3    H218424   2.872   0.397   1.195 -0.6513  0.5907  2.0133
 6140TIP3   OH218425   3.889   1.844   1.919 -0.3754 -0.1884 -0.0106
 6140TIP3    H118426   3.815   1.793   1.884 -2.3673  1.3948  1.6032
 6140TIP3    H218427   3.913   1.903   1.849 -1.3816 -0.0273 -0.2443
 6141TIP3   OH218428   3.408   0.202   3.415  0.2688 -0.4801  0.0124
 6141TIP3    H118429   3.407   0.294   3.439 -1.2802 -0.7973  1.4082
 6141TIP3    H218430   3.343   0.195   3.345  0.6249 -0.4740 -0.3231
 6142TIP3   OH218431   3.686   0.875   4.047 -0.5041 -0.0134 -0.2135
 6142TIP3    H118432   3.778   0.902   4.054 -0.4931 -0.1186  0.0691
 6142TIP3    H218433   3.638   0.957   4.033 -0.4948  0.1907  0.8831
 6143TIP3   OH218434   0.527   5.566   2.267  0.3496 -0.1669 -0.4653
 6143TIP3    H118435   0.603   5.600   2.220 -0.3339 -0.9034 -2.2187
 6143TIP3    H218436   0.455   5.625   2.242  0.4527  1.0911  1.9133
 6144TIP3   OH218437   6.222   5.250   4.138 -0.1532 -0.1949  0.2189
 6144TIP3    H118438   6.240   5.279   4.227 -1.5085  0.0645  0.4375
 6144TIP3    H218439   6.224   5.155   4.142  0.1871 -0.1797  0.4312
 6145TIP3   OH218440   4.524   5.169   3.411  0.2536  0.0474 -0.2562
 6145TIP3    H118441   4.531   5.078   3.380  0.2123 -0.2647  0.6357
 6145TIP3    H218442   4.495   5.161   3.502 -1.1299  0.9908 -0.5839
 6146TIP3   OH218443   2.120   5.617   5.048  0.4315 -0.2419 -0.0092
 6146TIP3    H118444   2.203   5.571   5.033 -0.5923 -2.7507  1.3619
 6146TIP3    H218445   2.140   5.680   5.118  1.5830  0.6145 -1.0656
 6147TIP3   OH218446   2.513   1.879   1.191  0.1935  0.7394 -0.6928
 6147TIP3    H118447   2.457   1.880   1.114  0.4673 -0.4967 -0.9331
 6147TIP3    H218448   2.456   1.851   1.262  1.1358 -4.6555 -1.6245
 6148TIP3   OH218449   3.643   2.293   0.365  0.1898  0.5201  0.4260
 6148TIP3    H118450   3.573   2.358   0.356  0.8467  1.3209  0.9623
 6148TIP3    H218451   3.603   2.222   0.416 -0.5240  0.5145 -0.1259
 6149TIP3   OH218452   0.128   4.425   0.158  0.7381  0.4220  0.1004
 6149TIP3    H118453   0.132   4.521   0.157  1.5996  0.4894  2.4613
 6149TIP3    H218454   0.199   4.399   0.217 -0.7104 -1.5613  1.0836
 6150TIP3   OH218455   0.532   2.970   1.481  0.1760 -0.1920  0.1178
 6150TIP3    H118456   0.573   3.010   1.557  1.4559  1.0613 -1.1746
 6150TIP3    H218457   0.604   2.952   1.421 -0.9188  0.0268 -1.3278
 6151TIP3   OH218458   6.132   1.277   0.029 -0.1373 -0.4630  0.4027
 6151TIP3    H118459   6.190   1.227   0.087  0.6431  0.4107  0.4063
 6151TIP3    H218460   6.054   1.223   0.021  0.6663 -1.6694  0.4221
 6152TIP3   OH218461   1.251   3.690   1.541  0.1803 -0.1586  0.0275
 6152TIP3    H118462   1.222   3.752   1.474  0.5943  1.0999  0.9669
 6152TIP3    H218463   1.318   3.637   1.497  1.2665  1.3925 -0.2849
 6153TIP3   OH218464   0.755   2.613   0.151 -0.4437 -0.4140  0.0543
 6153TIP3    H118465   0.719   2.544   0.207 -1.2616 -0.4074 -0.4502
 6153TIP3    H218466   0.750   2.577   0.062 -0.9935  0.3471 -0.2256
 6154TIP3   OH218467   4.318   0.701   5.010 -0.0762 -0.6089 -0.2684
 6154TIP3    H118468   4.384   0.710   5.079 -1.2878 -0.1057  0.8918
 6154TIP3    H218469   4.283   0.613   5.022 -0.9765 -0.1776  0.4534
 6155TIP3   OH218470   5.796   0.928   0.634 -0.1641  0.3580  0.2824
 6155TIP3    H118471   5.709   0.952   0.665 -0.6754 -0.7379 -0.2853
 6155TIP3    H218472   5.815   0.993   0.565 -1.1641 -0.2815 -0.6255
 6156TIP3   OH218473   0.439   3.725   0.756  0.0634  0.2029 -0.0651
 6156TIP3    H118474   0.523   3.768   0.772  0.6545 -1.0599  0.3773
 6156TIP3    H218475   0.400   3.716   0.843  0.2838 -0.7933 -0.0592
 6157TIP3   OH218476   2.509   0.066   3.607  0.1544  0.0649  0.0031
 6157TIP3    H118477   2.550   0.093   3.689  0.5564 -0.4284 -0.0258
 6157TIP3    H218478   2.422   0.105   3.609  0.0750 -0.1354  0.7802
 6158TIP3   OH218479   5.699   0.238   4.564  0.0790  1.0039  0.2273
 6158TIP3    H118480   5.683   0.307   4.628  1.1257 -1.0489  2.8746
 6158TIP3    H218481   5.670   0.158   4.607 -1.7769 -0.2541 -3.0012
 6159TIP3   OH218482   5.366   0.383   5.006  0.4069  0.3228  0.0814
 6159TIP3    H118483   5.428   0.320   5.041  0.8073 -0.1096 -1.3354
 6159TIP3    H218484   5.375   0.461   5.062  2.5059  0.4201 -0.3202
 6160TIP3   OH218485   5.708   3.238   2.562  0.2161 -0.5799  0.0650
 6160TIP3    H118486   5.659   3.156   2.565 -0.6977 -0.1621 -1.8940
 6160TIP3    H218487   5.788   3.217   2.513  0.7150 -0.6293  0.8819
 6161TIP3   OH218488   4.406   4.293   1.199  0.0988 -0.0196 -0.0647
 6161TIP3    H118489   4.333   4.237   1.223 -0.5254  1.0116  0.5210
 6161TIP3    H218490   4.387   4.321   1.110  0.1497 -0.3271 -0.1720
 6162TIP3   OH218491   3.062   5.573   4.637 -0.5022  0.0342  0.1320
 6162TIP3    H118492   3.110   5.496   4.666 -0.9121 -0.6990 -1.0928
 6162TIP3    H218493   2.974   5.563   4.673  0.3556  1.7929  3.1003
 6163TIP3   OH218494   2.725   4.943   3.653 -0.0548 -0.1342 -0.3406
 6163TIP3    H118495   2.663   4.965   3.722  0.6680 -1.6010  0.8381
 6163TIP3    H218496   2.789   4.886   3.696  2.0907  1.2612 -1.5085
 6164TIP3   OH218497   3.809   0.475   0.885 -0.4548  0.6319 -0.0561
 6164TIP3    H118498   3.873   0.546   0.883  1.0708 -0.6499  0.6526
 6164TIP3    H218499   3.859   0.400   0.918 -1.3794 -1.3946 -2.9519
 6165TIP3   OH218500   3.467   4.887   4.517 -0.3280  0.5917 -0.4905
 6165TIP3    H118501   3.397   4.942   4.482  1.6110  1.7496 -2.8690
 6165TIP3    H218502   3.426   4.802   4.531 -2.7431  1.8208  0.5217
 6166TIP3   OH218503  -0.019   3.090   3.863 -0.4448  0.0038 -0.6017
 6166TIP3    H118504   0.073   3.070   3.879 -0.6914 -0.0618  0.7941
 6166TIP3    H218505  -0.019   3.135   3.778  1.1584  2.1662  0.4588
 6167TIP3   OH218506   5.336   3.677   2.046  0.2162  0.2372  1.1637
 6167TIP3    H118507   5.258   3.624   2.061  0.5383 -0.9124 -0.8571
 6167TIP3    H218508   5.409   3.615   2.048  0.4132 -0.0010 -3.4653
 6168TIP3   OH218509   0.307   1.965   4.565  0.5369  0.0027  0.1842
 6168TIP3    H118510   0.262   2.015   4.634  1.1192  0.5524  0.1734
 6168TIP3    H218511   0.270   1.998   4.483  0.9401  0.4419  0.1761
 6169TIP3   OH218512   2.103   5.190   0.429  0.0618  0.1679  1.0478
 6169TIP3    H118513   2.126   5.113   0.481 -1.8079 -2.1015 -1.2158
 6169TIP3    H218514   2.020   5.220   0.465  1.3964  2.1050  2.7742
 6170TIP3   OH218515   0.692   4.442   4.237 -0.1859 -0.6990  0.4433
 6170TIP3    H118516   0.762   4.457   4.300 -0.2526  1.8539 -0.0062
 6170TIP3    H218517   0.666   4.529   4.207 -2.3591 -1.6504 -0.7330
 6171TIP3   OH218518   6.158   5.707   3.336 -0.1631 -0.0718  0.1595
 6171TIP3    H118519   6.087   5.747   3.386 -0.9614 -2.4097  1.0153
 6171TIP3    H218520   6.116   5.669   3.259  0.3360 -0.5755  0.1294
 6172TIP3   OH218521   0.930   1.095   3.249 -0.0935  0.7265 -0.2860
 6172TIP3    H118522   0.969   1.054   3.173 -0.5114 -1.7733  0.7562
 6172TIP3    H218523   0.839   1.065   3.249  0.5587 -1.8121  2.6488
 6173TIP3   OH218524   6.180   2.676   4.023 -0.5789  0.2370 -0.1972
 6173TIP3    H118525   6.148   2.764   4.001  0.8629  0.3691 -1.9874
 6173TIP3    H218526   6.247   2.691   4.090  0.6324  0.6747 -1.4733
 6174TIP3   OH218527   0.409   1.810   3.057  0.4798  0.0677  0.0227
 6174TIP3    H118528   0.366   1.877   3.109  1.3078  2.3971 -2.0676
 6174TIP3    H218529   0.347   1.790   2.986  1.2851  0.6288 -0.8620
 6175TIP3   OH218530   1.687   2.509   2.360 -0.0427 -0.2131  0.3625
 6175TIP3    H118531   1.763   2.549   2.401  0.8254 -1.0415 -0.4039
 6175TIP3    H218532   1.638   2.471   2.433 -0.4807  1.4890  1.0209
 6176TIP3   OH218533   2.402   0.400   5.099 -0.2139 -0.7242  0.4385
 6176TIP3    H118534   2.407   0.312   5.062  0.8519 -1.4214  2.1053
 6176TIP3    H218535   2.493   0.431   5.100 -0.1409 -0.8293  2.5263
 6177TIP3   OH218536   1.382   2.910   2.883  0.1876 -0.0526  0.0873
 6177TIP3    H118537   1.335   2.831   2.909 -1.7625  1.5092  1.5932
 6177TIP3    H218538   1.438   2.930   2.958 -0.1713  0.5946  0.1870
 6178TIP3   OH218539   4.229   2.841   0.672 -0.0356 -0.2938 -0.3325
 6178TIP3    H118540   4.298   2.826   0.737 -0.9320  1.2803  1.0658
 6178TIP3    H218541   4.148   2.839   0.722 -0.7305  1.2942 -1.3286
 6179TIP3   OH218542   6.127   0.449   4.231 -0.3264  0.0506  0.1256
 6179TIP3    H118543   6.102   0.516   4.295 -0.6329  0.0382  0.0176
 6179TIP3    H218544   6.134   0.497   4.148 -0.2410  0.0064  0.1068
 6180TIP3   OH218545   1.096   4.128   2.045 -0.3395 -0.4122  0.0891
 6180TIP3    H118546   1.010   4.159   2.073 -0.9131 -1.0573 -0.9076
 6180TIP3    H218547   1.079   4.082   1.963  0.9895 -0.3713 -0.2242
 6181TIP3   OH218548   3.744   1.768   1.343 -0.3862 -0.1778  0.0353
 6181TIP3    H118549   3.712   1.740   1.429 -0.0731  1.4457  0.7009
 6181TIP3    H218550   3.668   1.808   1.301 -0.4373 -0.6282 -0.3193
 6182TIP3   OH218551   5.028   5.612   4.972  0.6616 -0.1300 -0.3133
 6182TIP3    H118552   5.054   5.547   5.038 -0.6089 -1.1052 -0.7355
 6182TIP3    H218553   4.951   5.574   4.930 -0.1059  1.6495 -0.5951
 6183TIP3   OH218554   4.566   5.381   4.754 -0.5998  0.0898 -0.0228
 6183TIP3    H118555   4.493   5.426   4.712 -0.1595  2.7081  1.7340
 6183TIP3    H218556   4.536   5.364   4.843  0.8690  1.3851  0.7930
 6184TIP3   OH218557   2.824   1.175   1.734 -0.0746 -0.2595 -0.5244
 6184TIP3    H118558   2.815   1.248   1.673  0.2526  1.2621  1.1629
 6184TIP3    H218559   2.902   1.128   1.705  0.7200  1.0892 -0.6441
 6185TIP3   OH218560   0.832   0.993   0.994 -0.0782  0.3154  0.1478
 6185TIP3    H118561   0.845   0.943   1.075  2.2351 -0.9573 -0.9320
 6185TIP3    H218562   0.851   1.084   1.020 -1.7516  0.3381  1.5259
 6186TIP3   OH218563   0.114   4.500   1.225  0.4588  0.7594  0.3464
 6186TIP3    H118564   0.084   4.412   1.202  0.6419  0.6366  0.5743
 6186TIP3    H218565   0.174   4.523   1.153 -2.9460  2.5245 -2.1916
 6187TIP3   OH218566   2.130   3.823   0.353 -0.2344  0.2878  0.4914
 6187TIP3    H118567   2.051   3.851   0.308 -0.0406  0.5908  0.3319
 6187TIP3    H218568   2.194   3.808   0.283  0.3080  1.5247  0.6882
 6188TIP3   OH218569   3.268   5.465   3.569  0.5088 -0.3224  0.2125
 6188TIP3    H118570   3.360   5.442   3.584  0.2405 -2.0180 -0.5625
 6188TIP3    H218571   3.226   5.383   3.544 -0.8881  0.7132 -1.0164
 6189TIP3   OH218572   1.209   4.276   0.293  0.3798  0.5930  0.2871
 6189TIP3    H118573   1.250   4.230   0.220  0.8411  1.0815  0.2325
 6189TIP3    H218574   1.130   4.316   0.256  0.8881  1.2823 -0.0787
 6190TIP3   OH218575   1.304   5.624   2.894 -0.3291  0.6142  0.2744
 6190TIP3    H118576   1.260   5.696   2.849 -0.4587  0.2942 -0.1089
 6190TIP3    H218577   1.363   5.668   2.956 -0.1317  1.0572 -0.2175
 6191TIP3   OH218578   2.912   4.405   4.193  0.0334  0.3056  0.0649
 6191TIP3    H118579   2.994   4.360   4.172 -0.8078 -0.1272 -2.7584
 6191TIP3    H218580   2.861   4.339   4.241  0.9230  0.2471  0.9760
 6192TIP3   OH218581   2.102   3.725   4.752 -0.4549 -0.2586  0.1042
 6192TIP3    H118582   2.056   3.799   4.713 -2.4073 -0.1123  2.4298
 6192TIP3    H218583   2.104   3.659   4.683 -2.7653  0.3359 -0.6188
 6193TIP3   OH218584   2.450   5.148   1.865 -0.7296 -0.6402  0.2295
 6193TIP3    H118585   2.500   5.067   1.850 -0.3167 -0.1315 -1.4150
 6193TIP3    H218586   2.514   5.209   1.900 -0.8592 -0.7814  0.7240
 6194TIP3   OH218587   3.192   4.909   1.335  0.1445 -0.0343  0.3684
 6194TIP3    H118588   3.108   4.885   1.373 -0.6321  3.3061  1.0242
 6194TIP3    H218589   3.170   4.957   1.255  1.4955 -0.0594 -0.0584
 6195TIP3   OH218590   1.676   1.866   3.790  0.1528 -0.4967 -0.4389
 6195TIP3    H118591   1.675   1.818   3.707 -1.2909 -0.5563 -0.4084
 6195TIP3    H218592   1.651   1.955   3.766  0.5358 -0.3102 -0.1663
 6196TIP3   OH218593   0.428   0.114   3.745 -0.1723  0.2206  0.7130
 6196TIP3    H118594   0.360   0.176   3.770  1.6277  2.2892  0.7524
 6196TIP3    H218595   0.510   0.160   3.762  1.2401 -1.5942 -0.7440
 6197TIP3   OH218596   0.500   1.356   5.041  0.0577 -0.2245  0.1930
 6197TIP3    H118597   0.516   1.334   5.133 -0.3077 -0.5957  0.1707
 6197TIP3    H218598   0.455   1.440   5.044  0.6675  0.0986  0.3220
 6198TIP3   OH218599   4.055   0.656   3.613  0.5472 -0.0251 -0.0251
 6198TIP3    H118600   4.027   0.730   3.668  2.0633  1.6629 -1.3704
 6198TIP3    H218601   4.095   0.594   3.675  0.4385  0.9098  1.0151
 6199TIP3   OH218602   1.019   2.076   0.319  0.5063  0.0780 -0.5402
 6199TIP3    H118603   1.045   2.091   0.410 -0.5616  1.8749 -0.4727
 6199TIP3    H218604   1.101   2.058   0.273  1.1216 -0.3218  0.6814
 6200TIP3   OH218605   6.129   5.903   2.453  0.1743  0.5222 -0.1020
 6200TIP3    H118606   6.121   5.812   2.424  1.5814  0.2405  0.3072
 6200TIP3    H218607   6.105   5.955   2.376  0.5556 -0.2006 -0.7205
 6201TIP3   OH218608   2.551   5.672   1.917 -0.1530  0.0329  0.0430
 6201TIP3    H118609   2.615   5.740   1.898  0.0225 -0.1776 -0.1287
 6201TIP3    H218610   2.495   5.670   1.839 -0.0082 -0.1852 -0.0576
 6202TIP3   OH218611   3.109   0.467   2.717 -0.0480  0.3162  0.4962
 6202TIP3    H118612   3.118   0.545   2.662 -0.1225  0.9489  1.3613
 6202TIP3    H218613   3.189   0.465   2.768 -0.0216 -0.2180  0.4364
 6203TIP3   OH218614   2.197   2.769   5.076 -0.1510  0.0452  0.3748
 6203TIP3    H118615   2.241   2.715   5.141  0.2702 -0.3631 -0.2370
 6203TIP3    H218616   2.253   2.763   4.998 -0.1145  1.3498  0.2895
 6204TIP3   OH218617   2.166   0.400   1.387 -0.4725 -0.0934  0.1529
 6204TIP3    H118618   2.175   0.460   1.461  1.0017  1.0087 -0.8681
 6204TIP3    H218619   2.251   0.401   1.344 -1.0432 -1.3439 -1.1040
 6205TIP3   OH218620   3.045   2.713   4.036 -0.0124 -0.0981 -0.0692
 6205TIP3    H118621   3.025   2.708   3.942  1.3034 -0.5895 -0.3416
 6205TIP3    H218622   3.052   2.622   4.064 -0.5480  0.0450  0.5486
 6206TIP3   OH218623   3.690   3.785   2.999 -0.5744 -0.0631  0.4604
 6206TIP3    H118624   3.642   3.793   2.916 -1.8448 -2.2413  0.9019
 6206TIP3    H218625   3.700   3.875   3.030 -0.2489  0.7997 -1.9121
 6207TIP3   OH218626   5.197   0.493   1.691  0.4777 -0.1008 -0.8186
 6207TIP3    H118627   5.132   0.562   1.700  1.0729  0.4872 -1.0014
 6207TIP3    H218628   5.201   0.453   1.778  2.1232  1.8901  0.0880
 6208TIP3   OH218629   6.255   3.908   0.521 -0.1583  0.5405  0.0188
 6208TIP3    H118630   6.256   3.906   0.617  1.5860 -0.2471  0.0400
 6208TIP3    H218631   6.339   3.869   0.496  0.0551  2.0167 -1.8124
 6209TIP3   OH218632   4.107   4.463   1.209 -0.0391 -0.3462  0.7451
 6209TIP3    H118633   4.164   4.513   1.268  0.7618 -0.8267  0.3996
 6209TIP3    H218634   4.103   4.376   1.247  0.5564 -0.6856  0.0670
 6210TIP3   OH218635   4.616   0.073   0.458 -0.2783  0.4093  0.1038
 6210TIP3    H118636   4.650   0.108   0.540  1.0753  1.1284 -0.7214
 6210TIP3    H218637   4.612  -0.022   0.471  1.7598  0.3162  0.3888
 6211TIP3   OH218638   0.737   5.788   2.369 -0.2183  0.2388 -0.0091
 6211TIP3    H118639   0.679   5.844   2.420 -0.3878  0.6851 -0.6816
 6211TIP3    H218640   0.825   5.818   2.389 -0.0978 -1.2437  1.9852
 6212TIP3   OH218641   2.348   4.991   0.418 -0.1579  0.3894  0.2974
 6212TIP3    H118642   2.379   5.011   0.330  0.7109  0.5399  0.6301
 6212TIP3    H218643   2.288   4.917   0.405  1.2375 -0.6892 -0.2413
 6213TIP3   OH218644   1.574   2.253   4.929  0.2181  0.1902  0.3345
 6213TIP3    H118645   1.568   2.326   4.991 -1.0006  1.5684 -1.3196
 6213TIP3    H218646   1.495   2.261   4.876  1.1360 -1.0515 -1.2748
 6214TIP3   OH218647   3.155   3.012   3.659  0.3463  0.1787 -0.0504
 6214TIP3    H118648   3.230   3.045   3.611  0.2236 -2.5430 -2.4188
 6214TIP3    H218649   3.080   3.034   3.604  0.0469 -1.7856 -0.5169
 6215TIP3   OH218650   2.482   5.915   2.811  0.0420  0.5428 -0.0242
 6215TIP3    H118651   2.444   5.930   2.898  0.0330 -1.0391  0.2808
 6215TIP3    H218652   2.438   5.978   2.754  0.9986  2.5649  1.3178
 6216TIP3   OH218653   2.931   0.955   3.535 -0.0775 -0.0762 -0.4482
 6216TIP3    H118654   2.891   1.042   3.533 -0.0425 -0.0078  1.1943
 6216TIP3    H218655   2.892   0.911   3.610  0.5411 -1.1799 -0.7456
 6217TIP3   OH218656   5.863   0.809   2.354 -0.5250  0.0803 -0.3365
 6217TIP3    H118657   5.887   0.724   2.316  1.7838  1.3282 -1.8776
 6217TIP3    H218658   5.840   0.863   2.279 -2.6848  0.6841  0.6885
 6218TIP3   OH218659   5.751   0.177   2.822 -0.5864 -0.3618  0.2024
 6218TIP3    H118660   5.828   0.146   2.776 -0.7750 -0.3095 -0.1484
 6218TIP3    H218661   5.687   0.107   2.812 -0.5572 -0.4419  0.5654
 6219TIP3   OH218662   4.129   2.149   1.446 -0.1100  0.5737 -0.4237
 6219TIP3    H118663   4.059   2.084   1.440 -0.3034  0.8239 -0.9750
 6219TIP3    H218664   4.191   2.112   1.508 -0.9427  0.5472  0.4180
 6220TIP3   OH218665   3.974   2.918   4.015 -0.2720 -0.1502  0.7814
 6220TIP3    H118666   3.996   2.931   4.107 -1.1956 -0.8629  1.1261
 6220TIP3    H218667   3.970   2.823   4.005 -0.4358 -0.0739  0.0669
 6221TIP3   OH218668   4.756   4.662   2.675 -0.3162  0.0274  0.0938
 6221TIP3    H118669   4.840   4.700   2.697  0.6220 -0.6774 -1.9878
 6221TIP3    H218670   4.724   4.626   2.757  1.1876  0.7160  1.0270
 6222TIP3   OH218671   3.420   3.571   0.071 -0.3370 -0.1575  0.2182
 6222TIP3    H118672   3.386   3.523  -0.004 -0.0250 -0.7738  0.4640
 6222TIP3    H218673   3.403   3.663   0.051 -0.1226 -0.3088 -0.6637
 6223TIP3   OH218674   2.907   3.035   1.165 -0.0209 -0.9464  0.4483
 6223TIP3    H118675   2.821   3.040   1.207  0.5838  0.0616  1.6191
 6223TIP3    H218676   2.932   2.943   1.172 -1.0025 -1.2429  0.1019
 6224TIP3   OH218677   4.087   2.104   0.306  0.7923 -0.0163  0.3015
 6224TIP3    H118678   4.086   2.008   0.304 -1.3223 -0.0519  0.7526
 6224TIP3    H218679   4.119   2.126   0.394 -2.5597 -0.4979  1.8317
 6225TIP3   OH218680   2.891   0.058   2.850  0.4288  0.4369  0.3173
 6225TIP3    H118681   2.844   0.140   2.839  0.6690  0.7030  1.1538
 6225TIP3    H218682   2.963   0.080   2.910 -0.0655 -0.5865  1.3198
 6226TIP3   OH218683   3.297   1.301   3.196  0.9194 -0.7673  0.5653
 6226TIP3    H118684   3.233   1.356   3.241 -0.7264 -2.6768  0.7013
 6226TIP3    H218685   3.327   1.354   3.123 -1.0208  0.1150  0.3390
 6227TIP3   OH218686   6.196   3.966   1.067 -0.2699 -0.0591  0.7894
 6227TIP3    H118687   6.145   4.038   1.105  3.4137  2.3393  1.8749
 6227TIP3    H218688   6.216   3.909   1.142  0.5800  0.4110  0.9464
 6228TIP3   OH218689   1.700   4.409   4.217 -0.5180 -0.8009 -0.2668
 6228TIP3    H118690   1.654   4.337   4.260  0.4215 -1.8737 -0.9841
 6228TIP3    H218691   1.793   4.390   4.232 -0.2584  0.9088  0.5283
 6229TIP3   OH218692   0.069   3.940   2.943 -0.4748 -0.2304 -0.6291
 6229TIP3    H118693   0.152   3.983   2.922  0.0273 -0.9137 -0.0974
 6229TIP3    H218694   0.002   3.996   2.903  0.2606  0.1080 -1.4187
 6230TIP3   OH218695   0.984   0.654   2.976  0.4692 -0.0221  0.4149
 6230TIP3    H118696   1.018   0.696   2.897  1.2900  0.9396  1.2471
 6230TIP3    H218697   0.911   0.600   2.945  0.4003  0.7863 -0.9175
 6231TIP3   OH218698   2.692   1.466   3.406  0.3544 -0.1840  0.1786
 6231TIP3    H118699   2.660   1.552   3.377  2.2499  0.2264 -0.8270
 6231TIP3    H218700   2.643   1.403   3.353 -0.3230  0.3029  0.2097
 6232TIP3   OH218701   0.701   1.010   1.757  0.3112 -0.1857 -0.7574
 6232TIP3    H118702   0.625   1.000   1.701 -0.6558  0.4046  0.4061
 6232TIP3    H218703   0.697   0.935   1.817  0.7061 -0.2019 -0.7447
 6233TIP3   OH218704   0.136   2.401   1.068  0.4668  0.0706 -0.2935
 6233TIP3    H118705   0.169   2.319   1.104 -0.5670 -0.5722 -0.7604
 6233TIP3    H218706   0.093   2.444   1.142  1.0243  0.2125 -0.0442
 6234TIP3   OH218707   6.010   3.789   2.712 -0.0147  0.1920 -0.0787
 6234TIP3    H118708   5.952   3.750   2.647 -0.3221 -0.2276  0.4347
 6234TIP3    H218709   5.983   3.880   2.718 -1.0953 -0.1619  0.6581
 6235TIP3   OH218710   1.160   2.082   0.585 -0.1278 -0.1774  0.5367
 6235TIP3    H118711   1.137   2.038   0.668  0.2240  0.4756  0.9844
 6235TIP3    H218712   1.144   2.174   0.602 -0.8554 -0.1231 -0.4074
 6236TIP3   OH218713   0.636   1.511   0.020  0.0124  0.1457 -0.1917
 6236TIP3    H118714   0.548   1.536  -0.009  0.0969  0.8404  0.1478
 6236TIP3    H218715   0.625   1.422   0.054 -0.4050 -0.0686 -0.8682
 6237TIP3   OH218716   3.135   3.835   0.909  0.2477 -0.1083  0.2205
 6237TIP3    H118717   3.160   3.871   0.994 -0.4152  1.2055 -0.1101
 6237TIP3    H218718   3.107   3.911   0.859 -1.5910 -1.1330 -0.3967
 6238TIP3   OH218719   1.189   4.405   1.476  0.0488 -0.1769 -0.0324
 6238TIP3    H118720   1.224   4.323   1.514  1.5490 -0.9895 -2.8899
 6238TIP3    H218721   1.154   4.379   1.391 -2.5328  1.6664  0.3754
 6239TIP3   OH218722   2.911   3.109   4.979 -0.3361 -0.0719 -0.1340
 6239TIP3    H118723   2.906   3.203   4.992  0.9984  0.0343 -0.1768
 6239TIP3    H218724   2.823   3.077   4.995 -0.3090  0.8881  2.3255
 6240TIP3   OH218725   4.409   2.852   3.937 -0.0972  0.3203  0.1294
 6240TIP3    H118726   4.403   2.947   3.935  0.4394  0.3517 -0.0758
 6240TIP3    H218727   4.399   2.826   3.845 -0.8881  0.1357  0.2623
 6241TIP3   OH218728   0.328   2.933   0.314  0.1781 -0.0142  0.3059
 6241TIP3    H118729   0.360   2.918   0.226 -0.5223 -2.0104  0.3529
 6241TIP3    H218730   0.241   2.892   0.316  0.6061 -0.9467  2.1800
 6242TIP3   OH218731   4.427   3.049   4.457  0.8962 -0.2056  0.3480
 6242TIP3    H118732   4.377   3.010   4.529  0.5153  0.6183  0.5387
 6242TIP3    H218733   4.512   3.068   4.496  0.5110  0.7536  0.7567
 6243TIP3   OH218734   0.828   0.315   2.172 -0.8589  0.2159  0.0389
 6243TIP3    H118735   0.908   0.322   2.120 -1.0101 -2.7655 -0.8191
 6243TIP3    H218736   0.808   0.221   2.173 -2.1466  0.3486  3.6434
 6244TIP3   OH218737   4.883   3.309   0.440 -0.5780 -0.3960 -0.5983
 6244TIP3    H118738   4.914   3.259   0.515 -0.1527  2.1623  1.0413
 6244TIP3    H218739   4.958   3.311   0.380 -0.5873 -1.5963 -0.6783
 6245TIP3   OH218740   3.473   2.004   1.113  0.4012  0.1651  0.0818
 6245TIP3    H118741   3.509   1.917   1.130  0.5043  0.1813 -0.0577
 6245TIP3    H218742   3.416   1.992   1.037 -0.7799 -0.1031  0.9763
 6246TIP3   OH218743   4.699   4.645   3.386 -0.1513  0.2394 -0.3288
 6246TIP3    H118744   4.683   4.559   3.346 -0.0252 -0.2726  0.6947
 6246TIP3    H218745   4.662   4.638   3.474  3.5380 -0.2235  1.3529
 6247TIP3   OH218746   1.652   4.687   4.309 -0.2290  0.3164  0.5315
 6247TIP3    H118747   1.747   4.683   4.324  0.0153  1.2527 -0.6254
 6247TIP3    H218748   1.629   4.602   4.273  0.0880 -0.0611  1.1977
 6248TIP3   OH218749   4.654   5.960   0.617 -0.0051  0.3012 -0.1858
 6248TIP3    H118750   4.733   5.917   0.650 -1.6684 -4.0071 -1.1774
 6248TIP3    H218751   4.585   5.931   0.676 -1.5250  0.1109 -1.9552
 6249TIP3   OH218752   4.573   3.626   4.271  0.3240  0.2307  0.1377
 6249TIP3    H118753   4.518   3.627   4.193 -0.5723 -1.4474  0.6887
 6249TIP3    H218754   4.516   3.658   4.341 -0.2370 -2.0997  0.8313
 6250TIP3   OH218755   4.916   1.686   3.553  0.0257  0.3542 -0.4151
 6250TIP3    H118756   4.992   1.665   3.498 -0.0462  0.3466 -0.5124
 6250TIP3    H218757   4.868   1.603   3.558 -0.1690  0.4525 -0.6577
 6251TIP3   OH218758   5.670   0.239   3.484  0.0963 -0.1717 -0.4864
 6251TIP3    H118759   5.666   0.143   3.484  0.9968 -0.2274 -1.3115
 6251TIP3    H218760   5.635   0.264   3.398  0.7860  0.1773 -0.6722
 6252TIP3   OH218761   1.085   3.237   1.182  0.0553 -0.1311 -0.3766
 6252TIP3    H118762   1.091   3.233   1.278  0.6644  0.7216 -0.3661
 6252TIP3    H218763   1.031   3.161   1.158  1.3365 -1.3687  0.4999
 6253TIP3   OH218764   1.564   3.450   3.295  0.5308 -0.6135 -0.3678
 6253TIP3    H118765   1.508   3.426   3.368  0.6982 -0.5772 -0.2267
 6253TIP3    H218766   1.573   3.370   3.243 -0.7206 -0.2947 -1.1070
 6254TIP3   OH218767   3.227   3.132   3.928  0.0566  0.2822  0.3473
 6254TIP3    H118768   3.312   3.117   3.887 -0.2255  0.3420 -0.2697
 6254TIP3    H218769   3.164   3.092   3.869 -0.3950  0.7439  0.5021
 6255TIP3   OH218770   4.217   4.194   3.059  0.1710  0.0655 -0.1585
 6255TIP3    H118771   4.274   4.128   3.099  1.6598  0.7938 -1.0176
 6255TIP3    H218772   4.265   4.224   2.982 -1.6868  0.2142 -1.3159
 6256TIP3   OH218773   0.786   3.498   2.029 -0.4632 -0.3721 -0.7887
 6256TIP3    H118774   0.712   3.448   1.995 -0.9713 -0.4189  0.3572
 6256TIP3    H218775   0.863   3.454   1.993 -0.8434 -2.6760  1.0514
 6257TIP3   OH218776   0.019   3.243   4.632  0.0317  0.4624  0.0002
 6257TIP3    H118777  -0.055   3.295   4.600  1.3167  2.1663 -0.2985
 6257TIP3    H218778   0.047   3.192   4.556  1.0724  2.1229 -0.7660
 6258TIP3   OH218779   0.149   2.714   0.569 -0.2913  0.3392  0.0488
 6258TIP3    H118780   0.181   2.639   0.520 -2.7621 -0.5932 -0.3215
 6258TIP3    H218781   0.097   2.764   0.506 -0.4199  1.2025  0.8118
 6259TIP3   OH218782   0.988   4.393   0.181  0.1305  0.3763 -0.0587
 6259TIP3    H118783   0.911   4.338   0.170 -0.3650  0.7964  1.1894
 6259TIP3    H218784   0.975   4.436   0.266  2.7922 -1.2467  1.2937
 6260TIP3   OH218785   6.223   5.708   0.945  0.4455 -0.3186 -0.3371
 6260TIP3    H118786   6.165   5.761   1.000  0.3869  1.0719 -1.6479
 6260TIP3    H218787   6.167   5.681   0.872  0.9436 -0.6976 -0.5763
 6261TIP3   OH218788   2.619   3.723   2.071 -0.2743 -0.2781 -0.0305
 6261TIP3    H118789   2.643   3.652   2.130  0.7728 -1.8809 -2.2326
 6261TIP3    H218790   2.615   3.682   1.984  1.7948  2.5418 -1.6478
 6262TIP3   OH218791   5.157   0.392   3.752  0.7077 -0.2550 -0.1289
 6262TIP3    H118792   5.062   0.394   3.766  0.7607 -1.0994  0.4459
 6262TIP3    H218793   5.167   0.372   3.659  0.3126 -1.0140 -0.0185
 6263TIP3   OH218794   5.127   0.821   2.235  0.1443  0.6284 -0.0177
 6263TIP3    H118795   5.152   0.869   2.156 -0.9464  0.5771 -0.4179
 6263TIP3    H218796   5.128   0.886   2.304  2.0185  0.4802  0.1315
 6264TIP3   OH218797   4.828   3.243   2.518 -0.0156  0.4739 -0.3272
 6264TIP3    H118798   4.735   3.231   2.497  0.2372  0.2348 -1.3725
 6264TIP3    H218799   4.863   3.291   2.443  0.7773  0.2877 -0.0849
 6265TIP3   OH218800   3.292   2.046   3.515  0.0124 -0.4511  0.2575
 6265TIP3    H118801   3.324   2.001   3.437  1.7847  0.3713  0.4809
 6265TIP3    H218802   3.281   1.976   3.580 -2.4494 -1.2994 -0.9536
 6266TIP3   OH218803   3.240   2.064   0.549  0.3083 -0.2160  0.3147
 6266TIP3    H118804   3.165   2.046   0.492 -0.5412  1.5171  0.7928
 6266TIP3    H218805   3.233   1.999   0.618 -1.1833  0.2998  0.6997
 6267TIP3   OH218806   0.210   4.487   0.678 -0.5315 -0.0539 -0.5889
 6267TIP3    H118807   0.172   4.569   0.708  0.0621 -0.7081  2.2914
 6267TIP3    H218808   0.302   4.493   0.704 -0.7302 -2.0314  0.8511
 6268TIP3   OH218809   3.008   1.219   3.107 -0.2221 -0.6467 -0.6204
 6268TIP3    H118810   2.915   1.208   3.121 -0.2012 -0.3935 -0.2760
 6268TIP3    H218811   3.050   1.158   3.168 -0.1581 -0.6100 -0.6270
 6269TIP3   OH218812   3.891   2.445   1.073 -0.2440  0.2581 -0.4868
 6269TIP3    H118813   3.973   2.407   1.104  0.0112 -0.3917 -1.8974
 6269TIP3    H218814   3.914   2.535   1.049  0.5116 -0.4321 -2.5422
 6270TIP3   OH218815   0.212   2.387   0.432  0.0227  0.0365  0.0827
 6270TIP3    H118816   0.164   2.350   0.506  0.6294 -0.3525  0.2910
 6270TIP3    H218817   0.294   2.337   0.429  0.0248  0.0806 -0.8243
 6271TIP3   OH218818   0.140   2.957   4.645 -0.1430  0.4561 -0.1874
 6271TIP3    H118819   0.095   2.874   4.633  1.6097 -0.4273 -1.0108
 6271TIP3    H218820   0.149   2.993   4.557  2.2622 -0.2833 -0.3362
 6272TIP3   OH218821   1.939   0.930   2.258  0.0022 -0.1167  0.4623
 6272TIP3    H118822   1.853   0.916   2.299  0.0761 -0.4019  0.5248
 6272TIP3    H218823   1.949   0.856   2.198 -0.1770  0.3857 -0.1978
 6273TIP3   OH218824   1.373   1.632   0.526  0.1704  0.4634  0.8467
 6273TIP3    H118825   1.330   1.548   0.544  0.3122  0.2076  0.0464
 6273TIP3    H218826   1.435   1.612   0.456  0.5857  1.1325  1.0170
 6274TIP3   OH218827   1.837   3.099   2.090  0.6993  0.5957 -0.2532
 6274TIP3    H118828   1.846   3.007   2.066  0.3338  0.7072 -0.8434
 6274TIP3    H218829   1.827   3.145   2.006  1.7603  1.2784 -0.0213
 6275TIP3   OH218830   6.227   5.652   2.710  0.2308 -0.2067  0.0004
 6275TIP3    H118831   6.184   5.569   2.728  0.9947 -1.1398 -2.1311
 6275TIP3    H218832   6.255   5.645   2.618 -0.4267  2.7282 -0.5309
 6276TIP3   OH218833   2.078   0.794   3.623 -0.1798 -0.0615 -0.7441
 6276TIP3    H118834   2.130   0.868   3.654  1.8395 -0.9592 -1.7569
 6276TIP3    H218835   2.113   0.719   3.672 -1.4175 -0.5294 -0.5382
 6277TIP3   OH218836   0.809   3.616   2.281  0.4509 -0.0741 -0.3091
 6277TIP3    H118837   0.872   3.551   2.311 -1.5176 -2.3392 -0.8165
 6277TIP3    H218838   0.775   3.580   2.199  0.6617  2.5753 -1.6556
 6278TIP3   OH218839   6.191   4.891   0.881  0.4620 -0.1390  0.0369
 6278TIP3    H118840   6.144   4.840   0.815 -0.0460  0.5736 -0.1732
 6278TIP3    H218841   6.203   4.831   0.954  1.4277 -1.0769 -0.8621
 6279TIP3   OH218842   6.077   3.154   3.614  0.5053  0.1970 -0.1498
 6279TIP3    H118843   6.017   3.199   3.673  0.1773 -0.5100  0.0715
 6279TIP3    H218844   6.063   3.195   3.529  0.4187  0.6995  0.1052
 6280TIP3   OH218845   4.794   1.226   4.407 -0.0846  0.3377 -0.2997
 6280TIP3    H118846   4.803   1.141   4.450  2.4326  1.9912  2.8777
 6280TIP3    H218847   4.841   1.215   4.324  1.1653 -1.1162  0.5264
 6281TIP3   OH218848   1.525   3.613   1.604  0.5951 -0.0807 -1.1422
 6281TIP3    H118849   1.508   3.579   1.516 -1.2536  1.6323 -1.5416
 6281TIP3    H218850   1.439   3.614   1.646  0.2966  4.2475 -1.3322
 6282TIP3   OH218851   2.181   5.065   4.786 -0.7796  0.6325 -0.0366
 6282TIP3    H118852   2.138   5.150   4.797 -1.4725  0.2083  0.5607
 6282TIP3    H218853   2.274   5.087   4.779 -0.8757  1.3926  0.8347
 6283TIP3   OH218854   1.773   4.032   3.136  0.1264 -0.0356 -0.2872
 6283TIP3    H118855   1.685   4.029   3.174  0.2751 -2.0082 -0.0073
 6283TIP3    H218856   1.826   4.075   3.203 -0.7582  2.0681 -0.8518
 6284TIP3   OH218857   1.430   5.690   0.823  0.0074  0.0125 -0.0523
 6284TIP3    H118858   1.369   5.705   0.895  0.5803  0.2477  0.3901
 6284TIP3    H218859   1.475   5.774   0.811  1.6912 -0.6941  0.9961
 6285TIP3   OH218860   5.939   3.156   3.333 -0.2092 -0.5952  0.2719
 6285TIP3    H118861   5.995   3.082   3.351  0.7732  0.3365  1.1379
 6285TIP3    H218862   5.939   3.163   3.237 -1.8138 -2.7870  0.0246
 6286TIP3   OH218863   1.560   3.332   4.911 -0.3866  0.4052  0.2622
 6286TIP3    H118864   1.558   3.265   4.979  0.2409  0.1445  0.0256
 6286TIP3    H218865   1.475   3.377   4.920 -0.4186  0.2113  1.0433
 6287TIP3   OH218866   4.816   4.303   3.416  0.3822  0.0073 -0.3502
 6287TIP3    H118867   4.773   4.303   3.502  0.0454  0.8707 -0.5127
 6287TIP3    H218868   4.852   4.215   3.408  2.7441  0.6339  1.8317
 6288TIP3   OH218869   2.308   2.751   0.617 -0.2691 -0.5978 -0.1530
 6288TIP3    H118870   2.307   2.703   0.700 -1.6613  1.2718  1.0044
 6288TIP3    H218871   2.383   2.810   0.625  0.6841 -1.6357 -1.0429
 6289TIP3   OH218872   1.853   5.303   2.688  0.3503  0.3917 -0.4333
 6289TIP3    H118873   1.936   5.332   2.726  0.6957  0.0773 -0.9397
 6289TIP3    H218874   1.810   5.384   2.660 -1.1169  0.9307  2.9483
 6290TIP3   OH218875   2.694   0.125   0.478 -0.0940  0.2219 -0.0084
 6290TIP3    H118876   2.625   0.156   0.420  0.7574  0.2396 -1.0460
 6290TIP3    H218877   2.776   0.154   0.437  0.5491  0.0604  1.0969
 6291TIP3   OH218878   4.838   5.735   2.699  0.3458 -0.0771  0.3935
 6291TIP3    H118879   4.753   5.778   2.694 -1.0642 -2.6855 -0.1875
 6291TIP3    H218880   4.879   5.753   2.614 -0.5924 -0.5723 -0.1765
 6292TIP3   OH218881   1.778   0.814   1.873 -0.1485 -0.2270  0.1768
 6292TIP3    H118882   1.758   0.903   1.903  0.4351  0.3918 -1.1423
 6292TIP3    H218883   1.870   0.819   1.846 -0.4512 -0.8952 -1.0294
 6293TIP3   OH218884   3.525   4.075   2.184 -0.4209 -0.1506 -0.0708
 6293TIP3    H118885   3.569   3.990   2.192  1.3977  0.8869  1.8497
 6293TIP3    H218886   3.432   4.053   2.181 -0.0154 -2.2088  0.6099
 6294TIP3   OH218887   1.373   1.284   5.022 -0.4575  0.5479  0.2512
 6294TIP3    H118888   1.422   1.238   4.954  1.0538 -0.2397  1.8084
 6294TIP3    H218889   1.403   1.245   5.104  0.2388  3.6674  1.6163
 6295TIP3   OH218890   3.614   4.688   1.793  0.2961 -0.7870 -0.5157
 6295TIP3    H118891   3.595   4.731   1.876  0.9467 -0.9933 -0.2551
 6295TIP3    H218892   3.624   4.760   1.730 -0.9141 -0.6597 -0.5753
 6296TIP3   OH218893   1.527   2.474   5.091 -0.7085 -0.1198  0.6453
 6296TIP3    H118894   1.603   2.514   5.134 -0.0281  0.9221 -1.3952
 6296TIP3    H218895   1.483   2.547   5.048 -1.4525 -1.0692 -0.2477
 6297TIP3   OH218896   1.061   2.353   1.076  0.4577  0.0479 -0.0283
 6297TIP3    H118897   1.013   2.432   1.100 -0.7632 -0.8170  0.4523
 6297TIP3    H218898   1.093   2.318   1.160 -2.6177 -2.2102  0.3857
 6298TIP3   OH218899   5.862   0.377   2.510  0.0584 -0.0889 -0.0757
 6298TIP3    H118900   5.901   0.290   2.508  1.0908  0.3011  1.7202
 6298TIP3    H218901   5.790   0.370   2.573  0.5566  0.4949  0.5795
 6299TIP3   OH218902   2.724   2.410   2.456  0.0896 -0.3524 -0.3254
 6299TIP3    H118903   2.764   2.495   2.468  0.3761 -0.4205 -0.7882
 6299TIP3    H218904   2.763   2.375   2.376  2.7432 -2.4977  1.7233
 6300TIP3   OH218905   3.471   2.679   0.472 -0.1268  0.1264  0.2813
 6300TIP3    H118906   3.476   2.588   0.501  0.3885 -1.0676 -3.1102
 6300TIP3    H218907   3.378   2.694   0.460 -0.1255 -0.6065 -0.8205
 6301TIP3   OH218908   3.574   2.653   1.601  0.3961 -0.5217 -0.0609
 6301TIP3    H118909   3.509   2.711   1.640 -0.7135 -1.3732 -0.5597
 6301TIP3    H218910   3.522   2.588   1.554  1.4580 -2.9816  1.9155
 6302TIP3   OH218911   3.871   2.306   0.838  0.5796  0.8327 -0.3308
 6302TIP3    H118912   3.874   2.337   0.929  0.1196 -3.9057  1.5906
 6302TIP3    H218913   3.779   2.291   0.821  0.5548  2.5643 -2.0844
 6303TIP3   OH218914   5.379   1.521   1.468  0.0670  0.5101 -0.5373
 6303TIP3    H118915   5.334   1.441   1.441  2.1706 -0.6465 -0.8095
 6303TIP3    H218916   5.328   1.591   1.429 -0.9425 -0.7864 -1.6451
 6304TIP3   OH218917   2.792   0.734   2.081 -0.0491 -0.5963 -0.3296
 6304TIP3    H118918   2.705   0.770   2.067  0.3746  0.7052  0.2254
 6304TIP3    H218919   2.816   0.696   1.996  0.1142  1.9242 -1.5146
 6305TIP3   OH218920   5.341   4.414   0.656  0.2362 -0.3420  0.1740
 6305TIP3    H118921   5.262   4.414   0.709  0.5389 -1.7444  0.6568
 6305TIP3    H218922   5.323   4.352   0.585  0.5744  0.0124 -0.2311
 6306TIP3   OH218923   5.207   1.644   1.711 -0.0435 -0.0470  0.1032
 6306TIP3    H118924   5.168   1.628   1.625  1.0730 -0.1300 -0.4033
 6306TIP3    H218925   5.132   1.656   1.769 -0.8355  1.8448 -1.2055
 6307TIP3   OH218926   5.888   3.642   2.519 -0.0497  0.8522  0.1952
 6307TIP3    H118927   5.812   3.595   2.487 -1.5675  3.7730 -0.9189
 6307TIP3    H218928   5.956   3.628   2.453 -0.7980  0.9958 -0.6120
 6308TIP3   OH218929   3.194   2.412   4.246 -0.3158 -0.3239 -0.4329
 6308TIP3    H118930   3.154   2.386   4.329  0.6782 -0.7761 -0.0870
 6308TIP3    H218931   3.121   2.414   4.184 -1.3761  1.6039  0.7780
 6309TIP3   OH218932   0.624   1.733   3.438  0.6017  0.2223 -0.3917
 6309TIP3    H118933   0.536   1.698   3.428  0.3052  0.1996  1.7230
 6309TIP3    H218934   0.611   1.828   3.445  0.5313  0.1161  1.3816
 6310TIP3   OH218935   2.201   4.996   1.326  0.1510  0.4658 -0.3470
 6310TIP3    H118936   2.146   4.951   1.389  0.4670 -0.9921 -1.0775
 6310TIP3    H218937   2.252   5.058   1.378  0.7738 -1.0551  0.9260
 6311TIP3   OH218938   5.979   4.323   2.951 -0.0456  0.5478 -0.1508
 6311TIP3    H118939   5.964   4.230   2.966 -0.2384  0.7463  0.9509
 6311TIP3    H218940   6.054   4.344   3.007 -0.3226  1.1593  0.0013
 6312TIP3   OH218941   2.826   3.605   0.462 -0.3876 -0.1727  0.6701
 6312TIP3    H118942   2.904   3.606   0.517 -0.1226  0.6551  0.2840
 6312TIP3    H218943   2.798   3.696   0.458 -1.6681 -0.5088  1.2049
 6313TIP3   OH218944   2.696   0.724   4.604 -0.1120  0.4867 -0.4380
 6313TIP3    H118945   2.737   0.794   4.656 -1.4740  1.1332 -0.1932
 6313TIP3    H218946   2.767   0.662   4.589  0.1989 -0.2572  3.0770
 6314TIP3   OH218947   0.473   4.124   2.376  0.4140  0.2765 -0.4036
 6314TIP3    H118948   0.464   4.178   2.297  1.7115  1.1616  0.0158
 6314TIP3    H218949   0.560   4.085   2.368 -0.6022 -2.0519 -0.8370
 6315TIP3   OH218950   0.846   1.497   3.535 -0.3207  0.0626  0.1063
 6315TIP3    H118951   0.783   1.529   3.471  0.8684  0.3474 -0.9594
 6315TIP3    H218952   0.931   1.506   3.492  0.5264  0.3001  1.7327
 6316TIP3   OH218953   3.465   4.365   4.373 -0.1857 -0.2093  0.2670
 6316TIP3    H118954   3.491   4.397   4.287 -1.4665  3.2553  1.0121
 6316TIP3    H218955   3.374   4.338   4.362 -0.1156 -0.4950  0.3816
 6317TIP3   OH218956   6.260   4.410   2.755  0.5148 -0.0972  0.4629
 6317TIP3    H118957   6.207   4.399   2.676  0.1881  1.1580  0.4768
 6317TIP3    H218958   6.341   4.363   2.737  0.8168  0.9011 -0.9964
 6318TIP3   OH218959   4.017   3.005   3.386  0.0134 -0.3040  0.1135
 6318TIP3    H118960   3.978   3.067   3.325  0.1224  1.7847  2.0355
 6318TIP3    H218961   4.111   3.024   3.384 -0.0270  0.1051  1.2010
 6319TIP3   OH218962   0.213   1.803   3.682  0.5481  0.2549  0.2648
 6319TIP3    H118963   0.252   1.717   3.694  0.3146  0.0693 -0.2918
 6319TIP3    H218964   0.197   1.834   3.772  0.3639 -0.3986  0.4673
 6320TIP3   OH218965   4.479   3.377   0.465  0.3633  0.2578  0.2680
 6320TIP3    H118966   4.525   3.365   0.382 -1.8537  0.5166 -1.0810
 6320TIP3    H218967   4.418   3.303   0.469  0.9122 -0.1386  2.0445
 6321TIP3   OH218968   2.401   1.826   1.721 -0.1389 -0.4333 -0.0198
 6321TIP3    H118969   2.486   1.866   1.707  0.2189 -1.1082  0.1873
 6321TIP3    H218970   2.413   1.768   1.796 -0.6686 -0.8618 -0.2537
 6322TIP3   OH218971   1.251   2.006   2.300  0.2144 -0.4206 -0.0305
 6322TIP3    H118972   1.180   1.943   2.293 -0.1637 -0.0352  0.2673
 6322TIP3    H218973   1.226   2.062   2.374  0.1797  0.5361 -0.7558
 6323TIP3   OH218974   2.732   4.244   2.719 -0.9554  0.2573 -0.1957
 6323TIP3    H118975   2.734   4.340   2.714  2.3244  0.2460 -1.5420
 6323TIP3    H218976   2.681   4.226   2.799  3.5091  3.4544  4.0118
 6324TIP3   OH218977   3.622   1.514   1.263 -0.2211 -0.2343  0.2459
 6324TIP3    H118978   3.547   1.489   1.316  1.2743 -0.4778  2.3735
 6324TIP3    H218979   3.693   1.458   1.294  0.4239 -1.6243 -3.1997
 6325TIP3   OH218980   2.298   2.940   4.588 -0.0146  0.3835  0.1731
 6325TIP3    H118981   2.226   2.887   4.621 -1.3026  2.1817  0.3406
 6325TIP3    H218982   2.343   2.971   4.666  1.6463 -1.5332  0.0789
 6326TIP3   OH218983   6.095   4.313   0.853  0.3025  0.2342  0.2774
 6326TIP3    H118984   6.098   4.395   0.803  2.3251 -0.8661 -1.5572
 6326TIP3    H218985   6.186   4.295   0.877  0.1017 -2.0789 -0.4544
 6327TIP3   OH218986   2.879   5.418   0.430  0.3109 -0.0819 -0.6559
 6327TIP3    H118987   2.895   5.334   0.472 -0.2860 -0.9205 -2.0516
 6327TIP3    H218988   2.793   5.445   0.461  0.7840  0.3691  0.3173
 6328TIP3   OH218989   4.220   2.119   2.978  0.2316 -0.2987 -0.0573
 6328TIP3    H118990   4.307   2.088   3.002 -0.0463 -1.4872 -0.5133
 6328TIP3    H218991   4.236   2.190   2.915  0.8611 -1.1153 -0.8371
 6329TIP3   OH218992   2.757   1.394   4.512  0.2028  0.5922  0.0239
 6329TIP3    H118993   2.817   1.331   4.471  1.7017  1.2830  1.0454
 6329TIP3    H218994   2.676   1.344   4.525  0.8320 -0.6603 -0.5821
 6330TIP3   OH218995   0.339   5.556   2.855  0.0013 -0.0336 -0.2963
 6330TIP3    H118996   0.429   5.540   2.885 -0.2333 -0.1666  0.3683
 6330TIP3    H218997   0.323   5.487   2.790  0.4184  0.0671 -0.5122
 6331TIP3   OH218998   0.513   2.108   4.419 -0.4732 -0.0645  0.3156
 6331TIP3    H118999   0.581   2.064   4.368 -0.1945 -0.1771  0.7817
 6331TIP3    H219000   0.441   2.044   4.422 -0.9338  0.3654 -0.8663
 6332TIP3   OH219001   5.765   0.598   2.757 -0.5369  0.4904 -0.3874
 6332TIP3    H119002   5.829   0.539   2.799 -0.3268  0.3225 -0.9286
 6332TIP3    H219003   5.689   0.596   2.815 -0.2108  0.3504  0.0429
 6333TIP3   OH219004   3.419   1.772   4.705  0.5509 -0.2719 -0.0838
 6333TIP3    H119005   3.453   1.843   4.652  1.3622  0.2168  1.0596
 6333TIP3    H219006   3.441   1.796   4.795 -2.5542 -0.0573  0.7428
 6334TIP3   OH219007   0.514   5.567   3.493 -0.4348 -0.1171 -0.2806
 6334TIP3    H119008   0.541   5.648   3.536 -1.9507 -0.1334  0.7813
 6334TIP3    H219009   0.422   5.581   3.469 -0.5200 -1.2569 -0.7070
 6335TIP3   OH219010   2.141   0.679   0.085  0.0314  1.0613 -0.2057
 6335TIP3    H119011   2.205   0.638   0.027  0.5461 -0.4306  1.3354
 6335TIP3    H219012   2.057   0.661   0.043  0.3486 -0.4945 -0.2252
 6336TIP3   OH219013   5.634   0.607   1.702 -0.0331  0.5839  0.3296
 6336TIP3    H119014   5.604   0.592   1.612 -1.4468  1.1086  0.7039
 6336TIP3    H219015   5.659   0.520   1.733 -0.3425  0.2731 -0.2780
 6337TIP3   OH219016   0.923   4.819   3.361 -0.0324  0.1297  0.7752
 6337TIP3    H119017   0.988   4.879   3.398  1.8133 -0.6278 -1.0234
 6337TIP3    H219018   0.900   4.761   3.434 -1.5434  2.6379  2.4365
 6338TIP3   OH219019   2.110   3.602   3.028 -0.2482 -0.2993  0.1910
 6338TIP3    H119020   2.088   3.601   2.935 -1.3069  0.3249  0.4156
 6338TIP3    H219021   2.189   3.549   3.035 -0.6977 -1.1478 -0.9293
 6339TIP3   OH219022   6.201   1.166   4.874  1.0014  0.3043  0.0948
 6339TIP3    H119023   6.225   1.142   4.785  1.7340  2.7930 -0.4538
 6339TIP3    H219024   6.110   1.196   4.867  0.8907  0.0311  0.3097
 6340TIP3   OH219025   2.934   4.517   2.700 -0.5953  0.3201 -0.2380
 6340TIP3    H119026   2.839   4.522   2.715 -0.3299  2.4264  1.2382
 6340TIP3    H219027   2.973   4.542   2.784  1.3251 -1.5443 -0.4888
 6341TIP3   OH219028  -0.004   2.164   3.719  0.1145  0.0002  0.0493
 6341TIP3    H119029   0.055   2.127   3.785  0.6303  0.0879 -0.3583
 6341TIP3    H219030  -0.050   2.234   3.765  1.8211  1.3247 -0.1562
 6342TIP3   OH219031   2.429   3.104   4.820 -0.0035 -0.1805  0.4329
 6342TIP3    H119032   2.480   3.169   4.771  0.8358 -0.4254  0.9565
 6342TIP3    H219033   2.495   3.054   4.868 -0.8292  0.1430  1.9361
 6343TIP3   OH219034   1.688   2.562   0.221 -0.0774  0.4015 -0.1492
 6343TIP3    H119035   1.736   2.550   0.139 -0.1171 -0.8915  0.0012
 6343TIP3    H219036   1.738   2.512   0.286 -1.8165 -1.3826 -0.0878
 6344TIP3   OH219037   4.794   0.250   2.968 -0.3632 -0.5841 -0.0959
 6344TIP3    H119038   4.777   0.260   3.061  0.4433 -1.3465  0.1506
 6344TIP3    H219039   4.842   0.168   2.961  2.1023  0.8100 -0.8351
 6345TIP3   OH219040   0.191   5.280   4.770 -0.2086  0.1697 -0.6364
 6345TIP3    H119041   0.146   5.278   4.854 -1.3980 -1.2341 -1.2538
 6345TIP3    H219042   0.174   5.367   4.735 -0.7972  0.3228  0.0156
 6346TIP3   OH219043   3.496   1.217   2.295  0.5371  0.6191 -0.4507
 6346TIP3    H119044   3.423   1.182   2.245 -0.0235  1.0986  0.0162
 6346TIP3    H219045   3.572   1.166   2.267 -0.4229 -1.7344  1.0101
 6347TIP3   OH219046   5.184   5.411   4.453 -0.7214  0.2098  0.0600
 6347TIP3    H119047   5.109   5.457   4.492 -2.2346 -1.9289 -0.1319
 6347TIP3    H219048   5.215   5.354   4.522 -0.5219 -0.3321 -0.4696
 6348TIP3   OH219049   1.011   1.465   1.708  0.4664  0.3401 -0.1559
 6348TIP3    H119050   0.966   1.380   1.719  0.4142  0.3174 -0.5285
 6348TIP3    H219051   1.057   1.478   1.790  0.0325  0.2068  0.1123
 6349TIP3   OH219052   2.444   3.382   1.728 -0.0791 -0.0850 -0.0623
 6349TIP3    H119053   2.491   3.314   1.679  1.3255  1.5185 -1.0349
 6349TIP3    H219054   2.420   3.447   1.662 -0.7574  0.7273  0.9592
 6350TIP3   OH219055   5.445   2.985   5.108  0.3211 -0.8684  0.1586
 6350TIP3    H119056   5.523   3.036   5.128 -0.0103 -0.6195  0.8663
 6350TIP3    H219057   5.422   3.009   5.019 -1.8377  2.9716  1.5421
 6351TIP3   OH219058   1.150   3.020   2.785 -0.2519  0.0588  0.2798
 6351TIP3    H119059   1.125   3.095   2.840  0.0674  0.0610  0.4217
 6351TIP3    H219060   1.235   2.993   2.818 -0.3070 -0.2862  0.1400
 6352TIP3   OH219061   4.296   0.478   1.653 -0.1657 -0.5668  0.1788
 6352TIP3    H119062   4.349   0.542   1.700  1.9469 -1.1755 -1.2262
 6352TIP3    H219063   4.259   0.422   1.721 -0.6622  1.0683  1.3078
 6353TIP3   OH219064   1.793   1.773   4.469  0.3969  0.2205  0.1999
 6353TIP3    H119065   1.798   1.680   4.487 -1.8752 -0.2938 -1.2993
 6353TIP3    H219066   1.791   1.815   4.555  0.7282 -1.1517  0.8978
 6354TIP3   OH219067   5.716   0.124   1.859  0.2207 -0.3013 -0.0181
 6354TIP3    H119068   5.795   0.104   1.910  0.0720  2.2165  1.3982
 6354TIP3    H219069   5.734   0.092   1.771  3.2835  1.0609 -0.0054
 6355TIP3   OH219070   1.759   4.064   2.863 -0.2397 -0.2483 -0.2770
 6355TIP3    H119071   1.684   4.007   2.852  0.4932 -1.2593 -0.1462
 6355TIP3    H219072   1.776   4.063   2.957 -0.9966  1.2259 -0.0908
 6356TIP3   OH219073   2.502   5.873   0.085  0.2291  0.1314  0.1807
 6356TIP3    H119074   2.473   5.808   0.149 -0.0446  1.6739  1.7231
 6356TIP3    H219075   2.479   5.836   0.000 -1.8165 -0.8839  1.1035
 6357TIP3   OH219076   3.425   1.289   0.558 -0.0959  0.1456  0.6450
 6357TIP3    H119077   3.400   1.342   0.482  1.4203  0.4556  0.3328
 6357TIP3    H219078   3.493   1.230   0.524 -2.1583 -2.5196  0.8078
 6358TIP3   OH219079   4.533   2.966   2.607  0.0916  0.3374 -0.1095
 6358TIP3    H119080   4.531   2.889   2.550 -0.2484 -0.3151  0.7405
 6358TIP3    H219081   4.626   2.982   2.624  0.1422 -0.8670  0.9370
 6359TIP3   OH219082   2.888   4.936   4.468 -0.5211  0.2756  0.1903
 6359TIP3    H119083   2.955   4.994   4.432  0.3302 -0.7663  0.0254
 6359TIP3    H219084   2.938   4.865   4.510 -1.5125  0.2843  1.4332
 6360TIP3   OH219085   1.605   2.046   1.578 -0.2185 -0.4482  0.2350
 6360TIP3    H119086   1.636   2.111   1.515  0.1752 -0.8471  0.0054
 6360TIP3    H219087   1.512   2.036   1.559 -0.0559 -0.7226 -0.4341
 6361TIP3   OH219088   2.064   5.408   4.065  0.5484  0.0619 -0.2457
 6361TIP3    H119089   2.155   5.417   4.094  1.0603  0.3467 -1.8712
 6361TIP3    H219090   2.070   5.369   3.978 -0.9935 -1.8559  0.4367
 6362TIP3   OH219091   4.270   3.479   4.389  0.9630 -0.5752 -0.1544
 6362TIP3    H119092   4.240   3.570   4.390  1.1864 -0.5008  1.2682
 6362TIP3    H219093   4.349   3.479   4.444 -1.2014 -2.3040  3.2789
 6363TIP3   OH219094   3.323   4.045   4.123  0.2591 -0.1223 -0.3057
 6363TIP3    H119095   3.315   3.949   4.124  0.4236 -0.1434 -0.7660
 6363TIP3    H219096   3.327   4.067   4.030 -1.1082  0.4414 -0.2544
 6364TIP3   OH219097   5.998   0.994   3.440 -0.7385  0.2619  0.0777
 6364TIP3    H119098   5.952   0.909   3.437  0.6170 -0.5048  0.4323
 6364TIP3    H219099   5.948   1.045   3.503 -0.9933 -0.6403  0.6345
 6365TIP3   OH219100   2.061   4.543   0.781 -0.3521  0.3055 -0.3412
 6365TIP3    H119101   2.023   4.538   0.693  0.3763 -0.9741 -0.5955
 6365TIP3    H219102   2.053   4.636   0.805 -2.4604  0.3204 -0.8898
 6366TIP3   OH219103   3.698   2.700   1.198  0.2537  0.4371  0.1511
 6366TIP3    H119104   3.663   2.783   1.165  0.0441  0.2761 -0.0309
 6366TIP3    H219105   3.626   2.661   1.247 -0.6592 -1.0377 -2.2316
 6367TIP3   OH219106   1.031   2.588   1.214  0.0161 -0.1952 -0.1064
 6367TIP3    H119107   1.091   2.642   1.162 -0.1854  0.6387  0.5108
 6367TIP3    H219108   1.081   2.564   1.292 -0.4496  0.5105  0.4144
 6368TIP3   OH219109   3.114   4.821   2.393 -0.1542 -0.1535  0.0273
 6368TIP3    H119110   3.194   4.808   2.443 -0.5752 -0.7528  0.5601
 6368TIP3    H219111   3.066   4.890   2.439 -1.5462 -2.1513  1.7746
 6369TIP3   OH219112   0.171   3.555   3.563 -0.3435  0.4756 -0.5890
 6369TIP3    H119113   0.086   3.566   3.520 -0.8399 -0.6904  0.0581
 6369TIP3    H219114   0.153   3.564   3.656 -0.0089 -1.0393 -0.3479
 6370TIP3   OH219115   0.948   1.321   0.573  0.1916  0.2678 -0.6373
 6370TIP3    H119116   0.904   1.336   0.489 -1.6672  1.1854  0.4379
 6370TIP3    H219117   1.016   1.257   0.553  0.9889  1.7466 -3.2012
 6371TIP3   OH219118   5.345   3.834   4.476  0.3932 -0.8542 -0.4055
 6371TIP3    H119119   5.368   3.894   4.547  0.4821 -2.5224  1.0408
 6371TIP3    H219120   5.423   3.832   4.420  1.0272 -0.8891  0.4563
 6372TIP3   OH219121   0.758   0.476   3.214 -0.4009  0.1239  0.2672
 6372TIP3    H119122   0.800   0.553   3.253  1.2562  0.0508 -1.1930
 6372TIP3    H219123   0.726   0.508   3.129  1.1745 -0.9459 -0.7945
 6373TIP3   OH219124   1.177   0.815   1.539  0.1788  0.0235 -0.2005
 6373TIP3    H119125   1.207   0.841   1.626  0.8424  0.1725 -0.4696
 6373TIP3    H219126   1.222   0.732   1.522  0.1379  0.0520 -0.4510
 6374TIP3   OH219127   3.210   1.572   1.602  0.2594  0.4339 -0.2094
 6374TIP3    H119128   3.217   1.508   1.532  0.7804 -0.6763  0.8189
 6374TIP3    H219129   3.119   1.599   1.602  0.2305  0.3552 -1.2210
 6375TIP3   OH219130   5.160   1.159   0.657  0.1015 -0.9666  0.1140
 6375TIP3    H119131   5.212   1.084   0.687 -0.9206 -1.7955 -0.0992
 6375TIP3    H219132   5.225   1.222   0.625  1.0569 -1.1887  1.5355
 6376TIP3   OH219133   2.240   5.296   3.104 -0.5221  0.3826 -0.4168
 6376TIP3    H119134   2.292   5.243   3.043 -2.1165 -0.4801 -1.0645
 6376TIP3    H219135   2.301   5.363   3.134  1.4153 -1.4605  0.0153
 6377TIP3   OH219136   6.071   5.180   2.423 -0.1545  0.2053  0.1155
 6377TIP3    H119137   6.010   5.107   2.433 -0.8590  0.7884  0.0791
 6377TIP3    H219138   6.141   5.145   2.369  0.3858 -0.9724  1.5037
 6378TIP3   OH219139   5.505   5.769   4.167 -0.6838 -0.2468  0.7607
 6378TIP3    H119140   5.441   5.714   4.120 -1.0708 -0.2459  1.2725
 6378TIP3    H219141   5.590   5.735   4.140 -0.9064 -0.4481  0.2974
 6379TIP3   OH219142   2.161   2.647   0.421  0.2359 -0.4851 -0.4509
 6379TIP3    H119143   2.112   2.612   0.496  0.4590 -1.2918 -0.6782
 6379TIP3    H219144   2.217   2.715   0.460  0.2581 -0.8096  0.0914
 6380TIP3   OH219145   2.792   2.108   0.553  0.3481  0.2602  0.2753
 6380TIP3    H119146   2.869   2.061   0.588  0.0017 -0.5994 -0.0845
 6380TIP3    H219147   2.812   2.200   0.567  0.9589  0.0073  1.2158
 6381TIP3   OH219148   5.077   2.245   4.267  0.2929 -0.4564  0.4397
 6381TIP3    H119149   5.006   2.279   4.212  1.1796  1.2575  0.2883
 6381TIP3    H219150   5.038   2.171   4.314 -1.7867  0.8072  0.8212
 6382TIP3   OH219151   0.596   2.052   4.735 -0.0796 -0.3701  0.4336
 6382TIP3    H119152   0.608   2.009   4.651 -0.2535  1.2234 -0.4544
 6382TIP3    H219153   0.682   2.089   4.756 -0.7357  2.1396 -0.7976
 6383TIP3   OH219154   2.082   0.304   0.805 -0.2202 -0.2854  0.0427
 6383TIP3    H119155   2.053   0.215   0.826  0.1709 -0.1614  1.2018
 6383TIP3    H219156   2.010   0.341   0.754 -1.8110 -0.2653  2.1360
 6384TIP3   OH219157   1.026   4.733   0.286 -0.1591 -0.5871 -0.2917
 6384TIP3    H119158   0.950   4.773   0.243 -0.8414  2.9626  3.5231
 6384TIP3    H219159   0.989   4.663   0.340 -0.6741  0.5473  0.8731
 6385TIP3   OH219160   1.591   2.247   0.186 -0.9184 -0.0936  0.4065
 6385TIP3    H119161   1.555   2.298   0.114 -0.4608  0.3278  0.4709
 6385TIP3    H219162   1.664   2.300   0.219 -0.2545 -0.9264  0.2895
 6386TIP3   OH219163   5.866   1.600   3.210  0.9079 -0.1528  0.1220
 6386TIP3    H119164   5.812   1.612   3.288 -2.7714 -1.8454 -1.9123
 6386TIP3    H219165   5.836   1.668   3.149  2.6456  0.2242 -0.3551
 6387TIP3   OH219166   2.384   5.189   2.911  0.0812 -0.0612  0.2551
 6387TIP3    H119167   2.363   5.105   2.870  0.7178 -1.3776  2.4444
 6387TIP3    H219168   2.424   5.241   2.841  1.6750 -2.3898 -0.6891
 6388TIP3   OH219169   5.955   2.339   0.571 -0.1845 -0.1652 -0.1273
 6388TIP3    H119170   6.039   2.382   0.583 -0.2997  0.1394 -0.3807
 6388TIP3    H219171   5.941   2.341   0.476 -0.4054 -0.3457 -0.0987
 6389TIP3   OH219172   3.207   3.340   1.904 -0.2641  0.2071  0.3989
 6389TIP3    H119173   3.245   3.323   1.818  2.2347  0.0617  1.4404
 6389TIP3    H219174   3.158   3.260   1.925 -0.5916  0.0993 -0.7187
 6390TIP3   OH219175   1.980   5.793   2.566  0.6142  0.7856 -0.0011
 6390TIP3    H119176   2.019   5.852   2.630  0.1149  0.7485  0.3394
 6390TIP3    H219177   2.052   5.771   2.507  1.1302  0.6727  0.6577
 6391TIP3   OH219178   2.768   3.888   2.828 -0.1632 -0.2442  0.1730
 6391TIP3    H119179   2.780   3.818   2.764 -0.7736  1.2306 -1.6338
 6391TIP3    H219180   2.684   3.927   2.805  0.6086  1.6992  0.5222
 6392TIP3   OH219181   6.336   1.525   0.045  0.1845  0.2369  0.1667
 6392TIP3    H119182   6.373   1.506   0.132  0.0257 -1.6013 -0.1300
 6392TIP3    H219183   6.246   1.495   0.051 -0.1018  0.9960 -0.3453
 6393TIP3   OH219184   3.832   5.888   3.510  0.0446  0.2793  0.3317
 6393TIP3    H119185   3.926   5.906   3.516 -0.0765  1.1705 -0.0922
 6393TIP3    H219186   3.809   5.848   3.593  0.9656 -0.7849  0.0978
 6394TIP3   OH219187   3.787   0.823   3.471 -0.2846  0.4276  0.2391
 6394TIP3    H119188   3.851   0.886   3.437  0.1951  0.7171  1.5967
 6394TIP3    H219189   3.807   0.817   3.564  0.3887 -2.5671 -0.0066
 6395TIP3   OH219190   3.255   5.919   4.958 -0.0300 -0.5054  0.6287
 6395TIP3    H119191   3.176   5.931   5.011 -1.0225 -0.2777 -0.8650
 6395TIP3    H219192   3.232   5.851   4.895  0.5200  0.4491 -0.6531
 6396TIP3   OH219193   3.273   1.759   0.998 -0.2559 -0.5199  0.1289
 6396TIP3    H119194   3.188   1.731   0.964  0.0403 -0.8576 -0.3472
 6396TIP3    H219195   3.267   1.742   1.092 -0.5935 -0.8663  0.0512
 6397TIP3   OH219196   1.038   3.511   2.944  0.5895  0.1142 -0.1084
 6397TIP3    H119197   1.089   3.548   2.872 -0.3510 -0.6915 -1.2339
 6397TIP3    H219198   0.947   3.527   2.920  0.2441 -0.7433  0.5753
 6398TIP3   OH219199   3.042   4.290   2.389 -0.6447 -0.1332  0.0366
 6398TIP3    H119200   3.083   4.327   2.468  2.6856 -0.3078 -1.4714
 6398TIP3    H219201   3.026   4.367   2.334  0.4083 -0.3226 -0.5481
 6399TIP3   OH219202   2.306   5.687   2.926  0.2163 -0.7060  0.4337
 6399TIP3    H119203   2.389   5.683   2.877 -0.0838 -0.7960 -0.0810
 6399TIP3    H219204   2.255   5.613   2.891 -0.4129 -0.1312  0.1160
 6400TIP3   OH219205   5.972   1.630   1.404 -0.0883 -0.7398  0.5139
 6400TIP3    H119206   5.893   1.576   1.407  0.4281 -1.6092 -0.5942
 6400TIP3    H219207   5.946   1.708   1.355  0.1571 -1.8717 -1.5718
 6401TIP3   OH219208   4.881   0.168   4.226  0.3474 -0.3618 -0.0664
 6401TIP3    H119209   4.931   0.102   4.274 -1.1275 -0.8653  0.8534
 6401TIP3    H219210   4.805   0.120   4.192  0.2504  0.4658 -1.0687
 6402TIP3   OH219211   1.308   0.607   3.118  0.1910 -0.3368 -0.4280
 6402TIP3    H119212   1.308   0.634   3.210  2.7171 -0.6621 -0.2685
 6402TIP3    H219213   1.270   0.519   3.119  0.6552 -0.5386  0.3863
 6403TIP3   OH219214   4.135   5.282   4.377  0.0638 -0.2914  0.2601
 6403TIP3    H119215   4.046   5.250   4.364  0.0602 -1.0830  1.9834
 6403TIP3    H219216   4.126   5.375   4.394 -0.4310 -0.3720  0.4343
 6404TIP3   OH219217   1.586   0.783   4.197 -0.2618 -0.0832 -0.0260
 6404TIP3    H119218   1.515   0.720   4.192 -0.2984  0.0032 -0.5834
 6404TIP3    H219219   1.662   0.732   4.224 -0.6034 -0.1164  0.9320
 6405TIP3   OH219220   4.651   1.582   4.734 -0.1512 -0.9428  0.9790
 6405TIP3    H119221   4.717   1.633   4.689 -0.0153 -0.9041  1.2210
 6405TIP3    H219222   4.673   1.491   4.715 -0.2907 -0.9168  0.6933
 6406TIP3   OH219223   3.783   1.876   2.222 -0.0661 -0.3884 -0.6865
 6406TIP3    H119224   3.768   1.789   2.185  1.1232 -0.9665  0.1422
 6406TIP3    H219225   3.800   1.860   2.315 -0.1212  0.7691 -0.4622
 6407TIP3   OH219226   2.273   5.997   0.801  0.1088 -0.0539  0.3312
 6407TIP3    H119227   2.265   5.902   0.802  1.0079 -0.1858 -1.3702
 6407TIP3    H219228   2.256   6.024   0.891 -2.2873 -1.6265  0.4319
 6408TIP3   OH219229   5.799   4.754   0.844 -0.1888 -0.3233  0.1782
 6408TIP3    H119230   5.712   4.713   0.849  0.4026 -1.5210  1.3535
 6408TIP3    H219231   5.856   4.693   0.891  1.1064  0.9302  0.2703
 6409TIP3   OH219232   2.313   2.015   0.141  0.5357  0.0389  0.4426
 6409TIP3    H119233   2.376   1.951   0.174  0.4245  0.5557  1.6978
 6409TIP3    H219234   2.290   1.983   0.053  1.9522 -0.5628  0.2737
 6410TIP3   OH219235   5.468   1.984   1.138  0.1405  0.1773  0.0033
 6410TIP3    H119236   5.374   1.995   1.149 -0.1539 -1.6863 -0.2555
 6410TIP3    H219237   5.492   2.044   1.068 -0.5411  1.7956  1.0902
 6411TIP3   OH219238   2.351   5.179   2.247  0.0944 -0.1817  0.2373
 6411TIP3    H119239   2.315   5.097   2.213 -0.9277  0.4878 -0.3206
 6411TIP3    H219240   2.276   5.237   2.256  0.6937  0.4620  1.3743
 6412TIP3   OH219241   3.857   4.966   0.981  0.2126 -0.2575  0.7508
 6412TIP3    H119242   3.803   4.986   0.905  0.1793 -0.4311  0.7282
 6412TIP3    H219243   3.814   5.009   1.054  1.4664  1.8735  0.3227
 6413TIP3   OH219244   3.647   2.298   3.612 -0.1261 -0.5056 -0.0291
 6413TIP3    H119245   3.665   2.347   3.692  0.7076 -1.7911  0.5977
 6413TIP3    H219246   3.598   2.221   3.641  0.5092 -1.1837 -0.6914
 6414TIP3   OH219247   5.048   2.322   0.562  0.0180  0.1322  0.1687
 6414TIP3    H119248   4.953   2.310   0.569  0.3964 -3.6412  1.0416
 6414TIP3    H219249   5.074   2.357   0.647 -0.3420 -1.7785  1.1129
 6415TIP3   OH219250   5.465   1.582   0.490 -0.2298  0.4791 -0.4670
 6415TIP3    H119251   5.556   1.575   0.460 -0.0264  2.2284 -0.4192
 6415TIP3    H219252   5.449   1.677   0.493 -1.4523  0.2659  1.3059
 6416TIP3   OH219253   0.010   0.025   2.958 -0.4513 -0.2748  0.6444
 6416TIP3    H119254   0.011   0.119   2.938  0.4419 -0.5758 -0.8876
 6416TIP3    H219255  -0.013   0.021   3.051  1.3797  1.5433  1.2603
 6417TIP3   OH219256   2.419   4.617   4.710 -0.2081 -0.0030  0.3494
 6417TIP3    H119257   2.342   4.634   4.765 -0.5015  0.6761 -0.2439
 6417TIP3    H219258   2.391   4.642   4.622  0.1505 -1.3664 -0.1812
 6418TIP3   OH219259   4.033   2.529   0.259  0.7679 -0.3682  0.2990
 6418TIP3    H119260   3.963   2.464   0.262  0.8086 -0.4029  0.5284
 6418TIP3    H219261   4.063   2.536   0.350  1.9492 -1.3355  0.0135
 6419TIP3   OH219262   0.380   0.541   1.975  0.4959  0.1660 -0.3797
 6419TIP3    H119263   0.445   0.472   1.960 -1.0890 -1.1681 -1.7085
 6419TIP3    H219264   0.316   0.501   2.034  0.6377  1.2905  0.5628
 6420TIP3   OH219265   2.440   4.578   0.491 -0.0635  0.4560 -0.3254
 6420TIP3    H119266   2.380   4.605   0.561 -0.6880 -1.5925 -0.0105
 6420TIP3    H219267   2.384   4.536   0.426  0.6967  1.0632 -1.4118
 6421TIP3   OH219268   2.390   2.972   3.199  0.0609 -0.3374 -0.2956
 6421TIP3    H119269   2.358   3.062   3.203  0.2242 -0.2993  0.2020
 6421TIP3    H219270   2.482   2.979   3.174 -0.3218 -0.4546 -1.8759
 6422TIP3   OH219271   2.116   0.275   1.810  0.2217 -0.4268  0.0565
 6422TIP3    H119272   2.049   0.320   1.757 -2.0864 -1.7057  1.7168
 6422TIP3    H219273   2.167   0.225   1.747  1.0650  2.2305 -1.5188
 6423TIP3   OH219274   4.595   1.013   4.239 -0.1572 -0.3632  0.6206
 6423TIP3    H119275   4.689   0.995   4.235 -0.3505 -1.1640 -1.1759
 6423TIP3    H219276   4.561   0.950   4.302  0.5667  0.3438  1.7599
 6424TIP3   OH219277   0.342   2.490   4.109 -0.0044  0.3858 -0.3246
 6424TIP3    H119278   0.246   2.494   4.119 -0.0907 -0.0261 -0.9269
 6424TIP3    H219279   0.363   2.397   4.117  0.5526  0.6290  1.4438
 6425TIP3   OH219280   0.413   2.969   2.034  0.2552 -0.4110 -0.2745
 6425TIP3    H119281   0.368   2.960   1.950  0.4487 -0.4629 -0.3757
 6425TIP3    H219282   0.480   2.900   2.032 -0.6497 -1.3504  0.5262
 6426TIP3   OH219283   4.952   4.294   0.689  0.7943  0.2905 -0.6078
 6426TIP3    H119284   4.966   4.200   0.675  1.4507  0.3087 -0.1176
 6426TIP3    H219285   4.866   4.299   0.728 -0.0528  0.0478 -2.3321
 6427TIP3   OH219286   6.156   0.856   3.023  0.2774  0.2135 -0.3666
 6427TIP3    H119287   6.102   0.792   2.977  1.0581  0.6106 -1.9115
 6427TIP3    H219288   6.153   0.829   3.115 -0.3029 -1.3674 -0.8198
 6428TIP3   OH219289   0.499   0.830   3.900  0.2485  0.3519  0.2339
 6428TIP3    H119290   0.496   0.786   3.815  0.9091 -0.3107  0.5467
 6428TIP3    H219291   0.562   0.901   3.889 -0.9548  1.3683 -0.3256
 6429TIP3   OH219292   5.607   2.886   4.864 -0.1777 -0.6108 -0.0896
 6429TIP3    H119293   5.579   2.901   4.774  0.4400 -1.3629 -0.4179
 6429TIP3    H219294   5.554   2.812   4.894  1.4747 -2.1408 -0.7632
 6430TIP3   OH219295   0.966   0.869  -0.027 -0.0821 -0.0075 -0.2537
 6430TIP3    H119296   0.983   0.935   0.041  0.9961 -2.1032  1.6224
 6430TIP3    H219297   0.929   0.795   0.021 -2.4395 -0.3906 -2.4733
 6431TIP3   OH219298   5.031   4.846   0.045 -0.3311  0.7618  0.0193
 6431TIP3    H119299   4.988   4.764   0.020 -0.7376  0.4689  1.5699
 6431TIP3    H219300   5.080   4.873  -0.033 -1.1474 -0.3287 -0.8938
 6432TIP3   OH219301   0.564   0.953   4.905  0.0938  0.4727  0.0684
 6432TIP3    H119302   0.559   0.859   4.922  4.5980 -0.3117 -1.5239
 6432TIP3    H219303   0.604   0.989   4.985 -0.5466  0.8820  0.2129
 6433TIP3   OH219304   2.583   4.660   1.613 -0.1961 -0.0884  0.0450
 6433TIP3    H119305   2.546   4.588   1.664 -1.9081  0.7159  0.0075
 6433TIP3    H219306   2.670   4.629   1.588 -0.7343 -1.9918  0.3442
 6434TIP3   OH219307   3.182   5.199   1.265 -0.2691  0.2993 -0.0153
 6434TIP3    H119308   3.277   5.207   1.258 -0.3915  1.6649 -0.4251
 6434TIP3    H219309   3.151   5.202   1.175 -0.6860 -0.6909  0.0820
 6435TIP3   OH219310   6.197   0.180   1.516 -0.1944  0.0401 -0.3084
 6435TIP3    H119311   6.115   0.213   1.553  0.6195  1.2956  0.4429
 6435TIP3    H219312   6.234   0.254   1.469 -0.0029 -0.8368 -1.5970
 6436TIP3   OH219313   3.272   3.521   4.749  0.7240 -0.5867  0.7888
 6436TIP3    H119314   3.280   3.458   4.821  1.1901 -2.8103 -1.1118
 6436TIP3    H219315   3.200   3.487   4.696  1.3874  0.1429 -0.6157
 6437TIP3   OH219316   1.054   5.933   1.816  0.0862 -0.6138 -0.2620
 6437TIP3    H119317   1.064   6.005   1.753  0.0532 -0.7869 -0.4670
 6437TIP3    H219318   1.106   5.862   1.779 -0.9413 -1.1352 -0.7487
 6438TIP3   OH219319   5.754   0.027   0.211  0.1266  0.4649  0.0928
 6438TIP3    H119320   5.692   0.041   0.282  0.6869 -0.4341  0.7827
 6438TIP3    H219321   5.826  -0.022   0.251  0.8864  0.7415 -0.8824
 6439TIP3   OH219322   3.292   1.047   0.753  0.0786 -0.5164 -0.2973
 6439TIP3    H119323   3.258   1.014   0.670  1.3047  0.6936 -1.3439
 6439TIP3    H219324   3.320   1.137   0.732 -1.5445  0.6029  1.9611
 6440TIP3   OH219325   2.513   3.234   3.244  0.2482 -0.1093 -0.1662
 6440TIP3    H119326   2.552   3.190   3.320 -0.1053 -2.3655 -1.1926
 6440TIP3    H219327   2.575   3.217   3.172 -0.1553  0.6669 -0.7091
 6441TIP3   OH219328   2.497   3.969   2.780 -0.5352 -0.1931 -0.2912
 6441TIP3    H119329   2.429   3.926   2.832 -1.7538  1.0606 -0.7925
 6441TIP3    H219330   2.500   4.058   2.814  1.3809 -0.4002  0.1869
 6442TIP3   OH219331   2.742   3.702   2.631  0.1914 -0.2153 -0.1131
 6442TIP3    H119332   2.817   3.743   2.588  1.6579 -1.6447  0.9698
 6442TIP3    H219333   2.667   3.756   2.605  1.6386  1.5488 -0.8471
 6443TIP3   OH219334   3.683   1.647   5.020  0.3632  0.0289 -0.2293
 6443TIP3    H119335   3.614   1.705   4.988  1.1756  0.8005 -0.6228
 6443TIP3    H219336   3.638   1.563   5.037 -0.0315 -0.7208 -4.1047
 6444TIP3   OH219337   0.342   0.218   2.939  0.2314  0.3968  0.1951
 6444TIP3    H119338   0.359   0.271   2.861  1.3976 -0.2593 -0.0179
 6444TIP3    H219339   0.297   0.141   2.906  0.1216  0.4340  0.2589
 6445TIP3   OH219340   2.612   4.525   4.887  0.8428 -0.3319 -0.2528
 6445TIP3    H119341   2.561   4.568   4.818 -0.0343  0.3574  0.8039
 6445TIP3    H219342   2.703   4.542   4.863  0.5407  0.3823 -0.9437
 6446TIP3   OH219343   6.056   5.927   2.175 -0.3393 -0.4206 -0.3008
 6446TIP3    H119344   6.059   5.996   2.109 -3.6207 -0.0942 -0.2606
 6446TIP3    H219345   6.009   5.855   2.132 -1.1635 -0.7783  1.1423
 6447TIP3   OH219346   3.788   5.926   2.240  0.1320  0.2477 -0.2109
 6447TIP3    H119347   3.796   5.846   2.291  0.7891 -0.3637 -1.2304
 6447TIP3    H219348   3.695   5.933   2.220 -0.0695  0.2899  0.7349
 6448TIP3   OH219349   0.995   4.262   1.734 -0.2010 -0.7912  0.1809
 6448TIP3    H119350   0.985   4.347   1.691  0.5144 -0.6363  0.3130
 6448TIP3    H219351   1.083   4.233   1.710  0.6219 -0.2298  2.3454
 6449TIP3   OH219352   1.629   1.044   4.404  0.4214 -0.5367 -0.0649
 6449TIP3    H119353   1.609   0.956   4.436 -0.2709  0.1878  1.5924
 6449TIP3    H219354   1.544   1.084   4.387  0.5846  0.6842  1.7446
 6450TIP3   OH219355   0.846   1.512   2.913  0.1193 -0.5146 -0.3145
 6450TIP3    H119356   0.851   1.556   2.998  0.3633 -0.8007 -0.1763
 6450TIP3    H219357   0.755   1.522   2.886  0.1127 -0.1507 -0.1647
 6451TIP3   OH219358   4.052   4.203   3.969 -0.5248 -0.0806 -0.6896
 6451TIP3    H119359   4.051   4.292   4.004  0.9251 -0.5448  0.6608
 6451TIP3    H219360   4.145   4.182   3.961 -0.8403 -1.5829 -0.7172
 6452TIP3   OH219361   0.025   0.706   4.582  0.1198  0.6772  0.6274
 6452TIP3    H119362  -0.032   0.640   4.541  0.8988 -0.1147  0.7750
 6452TIP3    H219363   0.015   0.784   4.527 -0.2714  0.2108  0.0165
 6453TIP3   OH219364   3.908   4.825   2.721  0.0051 -0.5639 -0.5042
 6453TIP3    H119365   3.995   4.861   2.702 -0.8063  1.9320  0.1528
 6453TIP3    H219366   3.847   4.888   2.683 -1.5408 -1.6985  0.0103
 6454TIP3   OH219367   4.882   5.837   0.708 -0.8837 -0.2362  0.1672
 6454TIP3    H119368   4.889   5.752   0.751 -3.4296  0.8610  3.1246
 6454TIP3    H219369   4.973   5.868   0.701 -0.0696 -2.2484  1.0302
 6455TIP3   OH219370   3.316   1.571   2.138  0.4405  0.5488  0.0485
 6455TIP3    H119371   3.233   1.542   2.175  1.5951  0.9921  3.2731
 6455TIP3    H219372   3.368   1.492   2.128  0.2544  0.4706 -0.3225
 6456TIP3   OH219373   5.870   2.278   1.543  0.0428 -0.5931  0.7898
 6456TIP3    H119374   5.893   2.369   1.525  0.2512 -0.5616  1.2070
 6456TIP3    H219375   5.932   2.227   1.492  1.0147 -0.5071  1.8463
 6457TIP3   OH219376   4.562   1.900   0.023  0.3021 -0.1497  0.5025
 6457TIP3    H119377   4.501   1.916   0.095 -0.1104  1.5845 -0.1762
 6457TIP3    H219378   4.621   1.832   0.056  0.0550  0.5005  2.4172
 6458TIP3   OH219379   2.133   5.484   1.676 -0.1104 -0.2216 -0.0834
 6458TIP3    H119380   2.055   5.479   1.620  0.7170  1.0797 -1.4451
 6458TIP3    H219381   2.121   5.415   1.741 -1.2513 -1.6674 -1.7380
 6459TIP3   OH219382   2.810   5.871   2.116  0.3151  0.2069 -0.5037
 6459TIP3    H119383   2.767   5.891   2.033  0.4206  0.3775 -0.5178
 6459TIP3    H219384   2.741   5.878   2.182 -0.1651 -1.5678 -0.7611
 6460TIP3   OH219385   6.341   1.788   1.359  0.1991  0.1810 -0.8219
 6460TIP3    H119386   6.317   1.847   1.288  0.4301  1.9001  0.4577
 6460TIP3    H219387   6.260   1.742   1.380  0.2420 -0.7211 -2.4842
 6461TIP3   OH219388   2.342   3.767   4.315 -0.4089 -0.2877 -0.1712
 6461TIP3    H119389   2.417   3.710   4.297 -1.3608 -1.8763  0.7041
 6461TIP3    H219390   2.360   3.802   4.402 -1.0926 -1.4331  0.4607
 6462TIP3   OH219391   3.753   5.608   3.087  0.7742  0.1573 -0.0528
 6462TIP3    H119392   3.685   5.675   3.082 -0.1915 -0.8617 -1.5741
 6462TIP3    H219393   3.834   5.654   3.066  0.9525  1.7786  3.5567
 6463TIP3   OH219394   3.265   0.518   4.713  0.6673  0.0045  0.4944
 6463TIP3    H119395   3.333   0.461   4.751 -0.7395 -1.5013  0.8497
 6463TIP3    H219396   3.259   0.490   4.622  2.2603  1.9016 -0.2811
 6464TIP3   OH219397   0.501   1.569   1.888  0.4616  0.0341  0.2549
 6464TIP3    H119398   0.521   1.517   1.810 -2.5126  0.2464 -0.7729
 6464TIP3    H219399   0.411   1.599   1.875  0.4869  1.6434  2.9431
 6465TIP3   OH219400   4.020   2.654   4.603  0.1092 -0.4191 -0.3339
 6465TIP3    H119401   3.928   2.629   4.597 -0.3097  1.2000 -1.2108
 6465TIP3    H219402   4.037   2.657   4.698 -0.8585 -0.3185 -0.1497
 6466TIP3   OH219403   2.650   5.553   2.564  0.6320 -0.0970  0.5468
 6466TIP3    H119404   2.728   5.607   2.561 -0.6273  1.7999 -0.1200
 6466TIP3    H219405   2.611   5.562   2.477 -0.8740 -0.1174  1.1842
 6467TIP3   OH219406   0.906   1.810   0.259 -0.0529 -0.3709 -0.4110
 6467TIP3    H119407   0.882   1.886   0.312  1.1682 -2.7066  3.9262
 6467TIP3    H219408   0.826   1.758   0.253 -0.3100  0.1004 -1.4479
 6468TIP3   OH219409   2.805   0.218   2.424  0.7777 -0.5148  0.1087
 6468TIP3    H119410   2.889   0.230   2.467  0.3693  0.1163  0.7589
 6468TIP3    H219411   2.819   0.252   2.335  0.9292  0.5944  0.5339
 6469TIP3   OH219412   0.760   5.936   1.482 -0.0423  0.0089 -0.4759
 6469TIP3    H119413   0.706   5.946   1.404 -0.8907 -1.7418 -0.1594
 6469TIP3    H219414   0.820   5.864   1.462 -0.2299 -0.4268  0.4333
 6470TIP3   OH219415   2.229   4.483   4.332 -0.4861  0.1611 -0.5817
 6470TIP3    H119416   2.237   4.413   4.398  0.4335  0.0551 -0.7825
 6470TIP3    H219417   2.275   4.557   4.371  1.3495 -0.3377 -1.6524
 6471TIP3   OH219418   2.413   1.557   1.165  0.2256  0.3240  0.0298
 6471TIP3    H119419   2.410   1.498   1.240  4.2396  0.8534  0.8943
 6471TIP3    H219420   2.421   1.644   1.205  2.0018  0.6489 -0.9226
 6472TIP3   OH219421   4.440   5.347   4.996 -0.0497  0.5144 -0.0485
 6472TIP3    H119422   4.507   5.317   5.058 -0.2258  0.1419 -0.0321
 6472TIP3    H219423   4.374   5.390   5.050 -0.5956 -0.5122  0.1269
 6473TIP3   OH219424   5.110   5.196   1.174  0.3410 -0.4937  0.1502
 6473TIP3    H119425   5.141   5.173   1.086  0.6392 -1.5402  0.5178
 6473TIP3    H219426   5.189   5.196   1.228  0.1955  0.4076  0.3801
 6474TIP3   OH219427   3.900   3.952   5.167 -0.3525 -0.0270  0.2188
 6474TIP3    H119428   3.866   3.881   5.221 -0.3352  0.1049  0.4026
 6474TIP3    H219429   3.977   3.915   5.124 -0.8658 -0.4114 -0.3980
 6475TIP3   OH219430   5.251   0.534   4.109  0.0691 -0.0077 -0.2664
 6475TIP3    H119431   5.207   0.568   4.031 -1.2011 -2.0684 -0.5282
 6475TIP3    H219432   5.269   0.442   4.088  0.0365 -0.5042  1.7044
 6476TIP3   OH219433   1.025   5.122   0.831  0.7428  0.0708  0.3482
 6476TIP3    H119434   0.964   5.165   0.772 -0.4067 -1.2515  0.5267
 6476TIP3    H219435   1.089   5.080   0.774  2.0287  2.1063  0.1722
 6477TIP3   OH219436   2.904   4.510   1.055  0.5884 -0.0433  0.0992
 6477TIP3    H119437   2.891   4.598   1.020 -1.2402 -0.4873 -0.4171
 6477TIP3    H219438   2.999   4.496   1.051  0.8904  1.8267  0.0515
 6478TIP3   OH219439   0.358   2.100   2.495  0.4741 -0.4490 -0.1083
 6478TIP3    H119440   0.272   2.105   2.455  0.2532  0.9143  0.4905
 6478TIP3    H219441   0.344   2.127   2.586  1.6935  0.9883 -0.2971
 6479TIP3   OH219442   2.340   2.402   4.715  0.5771 -0.6112 -0.1096
 6479TIP3    H119443   2.309   2.321   4.676 -2.0213  0.6014 -0.7969
 6479TIP3    H219444   2.312   2.471   4.654  0.8913  0.9464  1.4138
 6480TIP3   OH219445   2.544   4.958   1.089 -0.0664  0.7865  0.6484
 6480TIP3    H119446   2.456   4.976   1.057  0.6014  1.6904 -0.7444
 6480TIP3    H219447   2.601   4.971   1.013  1.0731 -1.9590  0.9178
 6481TIP3   OH219448   4.460   4.275   3.438  0.5505  0.3890 -0.0038
 6481TIP3    H119449   4.416   4.353   3.405 -0.2879 -0.8061 -1.8813
 6481TIP3    H219450   4.391   4.224   3.479  0.9835  0.3694  0.7089
 6482TIP3   OH219451   2.074   3.044   0.599 -0.4545  0.3511  0.3441
 6482TIP3    H119452   2.128   3.063   0.676  0.0938 -0.3812  0.1525
 6482TIP3    H219453   2.137   3.017   0.531 -1.0383 -0.3509  0.0620
 6483TIP3   OH219454   2.620   0.365   1.465  0.1525  0.1798 -0.4734
 6483TIP3    H119455   2.559   0.354   1.392  2.2477 -0.6361 -2.1971
 6483TIP3    H219456   2.667   0.282   1.469 -0.2040  0.0166  2.1834
 6484TIP3   OH219457   2.122   2.253   5.054 -0.8235 -0.2048  0.4407
 6484TIP3    H119458   2.151   2.337   5.020  0.6149 -0.1025  1.8323
 6484TIP3    H219459   2.054   2.225   4.993  0.2189  0.9089 -1.3166
 6485TIP3   OH219460   5.734   5.068   1.731 -0.0317 -0.1826  0.3221
 6485TIP3    H119461   5.724   5.003   1.800 -0.0550 -0.3097  0.1980
 6485TIP3    H219462   5.807   5.038   1.678  1.1102  0.8028  1.2847
 6486TIP3   OH219463   5.977   0.090   3.034 -0.6475  0.0348 -0.0959
 6486TIP3    H119464   5.942   0.174   3.063 -0.6258  0.4919 -1.3500
 6486TIP3    H219465   5.942   0.077   2.946  0.3803 -0.6533 -0.4305
 6487TIP3   OH219466   5.649   3.929   2.309  0.0690 -0.8040 -0.0939
 6487TIP3    H119467   5.607   3.971   2.234  0.6106 -1.1931 -0.6202
 6487TIP3    H219468   5.667   3.840   2.280  1.3938 -0.6037  0.0647
 6488TIP3   OH219469   4.853   1.417   2.392 -0.2024 -0.9971 -0.4023
 6488TIP3    H119470   4.816   1.480   2.330  0.4032  0.8461  0.9896
 6488TIP3    H219471   4.910   1.362   2.339 -0.2382  0.0716 -1.5992
 6489TIP3   OH219472   3.532   2.273   2.105 -0.0990  0.1005 -0.2827
 6489TIP3    H119473   3.590   2.349   2.097 -0.3858  0.2404 -1.1381
 6489TIP3    H219474   3.578   2.214   2.165  1.0656  0.0969 -1.1301
 6490TIP3   OH219475   1.273   5.072   0.388  0.7697  0.6248  0.0716
 6490TIP3    H119476   1.352   5.072   0.443  0.7191 -0.5120  0.1657
 6490TIP3    H219477   1.207   5.027   0.440 -0.0512  1.8271  0.1063
 6491TIP3   OH219478   6.037   3.119   2.717 -0.1357 -0.0440 -0.3677
 6491TIP3    H119479   6.003   3.198   2.675 -0.0076 -0.0128 -0.4160
 6491TIP3    H219480   5.976   3.101   2.788 -0.0869  0.1843 -0.2644
 6492TIP3   OH219481   3.547   5.101   4.706  0.6655  0.1752  0.4770
 6492TIP3    H119482   3.549   5.172   4.643 -1.6180  1.8504  2.1226
 6492TIP3    H219483   3.540   5.022   4.653  1.2054  1.3068 -1.3637
 6493TIP3   OH219484   2.248   3.961   0.615 -0.6357  0.3663 -0.1099
 6493TIP3    H119485   2.296   3.880   0.602 -0.5516  0.6796 -1.9800
 6493TIP3    H219486   2.155   3.937   0.609 -0.6349  0.2943  0.1463
 6494TIP3   OH219487   1.630   2.057   0.404 -0.2141  0.3627 -0.2261
 6494TIP3    H119488   1.669   1.973   0.381  0.8400  0.7364  0.1200
 6494TIP3    H219489   1.605   2.095   0.320 -2.5134 -1.0999 -0.2819
 6495TIP3   OH219490   5.753   2.866   0.851  0.2145  0.2531 -0.5532
 6495TIP3    H119491   5.697   2.794   0.820 -0.9491  1.0775 -0.4313
 6495TIP3    H219492   5.801   2.829   0.925  0.9145 -0.8951 -1.5479
 6496TIP3   OH219493   2.465   2.596   3.000  0.3842  0.1608  0.3243
 6496TIP3    H119494   2.395   2.602   2.935  0.9114 -1.9948 -0.5442
 6496TIP3    H219495   2.530   2.660   2.972  0.9000 -1.1780 -1.7374
 6497TIP3   OH219496   3.724   1.119   2.065  0.0148 -0.5019 -0.7326
 6497TIP3    H119497   3.669   1.178   2.014  0.7725  1.1495  0.2589
 6497TIP3    H219498   3.809   1.122   2.022  0.4206  0.2354  0.0652
 6498TIP3   OH219499   1.659   0.372   1.768 -0.1515 -0.0398  0.8955
 6498TIP3    H119500   1.660   0.279   1.746 -0.9283 -0.0681  0.9669
 6498TIP3    H219501   1.566   0.395   1.773  0.0314  0.7485  0.8394
 6499TIP3   OH219502   3.830   4.514   2.387 -0.1906  0.0273 -0.2207
 6499TIP3    H119503   3.797   4.438   2.435  0.8105  0.3831  1.0718
 6499TIP3    H219504   3.885   4.561   2.449 -0.2547  1.4759 -1.1916
 6500TIP3   OH219505   5.684   5.236   0.931 -0.1387 -0.5871 -0.0133
 6500TIP3    H119506   5.719   5.166   0.876  2.3423 -0.1055  0.8117
 6500TIP3    H219507   5.688   5.202   1.020 -1.7957 -0.4639  0.1340
 6501TIP3   OH219508   2.924   4.069   0.072 -0.4960 -0.1080  0.0096
 6501TIP3    H119509   2.906   4.122   0.149 -1.4031 -0.4686  0.0546
 6501TIP3    H219510   2.853   4.005   0.070 -0.4368 -0.1514 -1.0853
 6502TIP3   OH219511   2.948   5.240   4.647 -0.3088  0.5376  0.4786
 6502TIP3    H119512   2.941   5.217   4.554 -2.2933  3.6326 -0.2923
 6502TIP3    H219513   3.041   5.229   4.667  0.0468 -0.9551 -1.6273
 6503TIP3   OH219514   0.037   1.876   4.438  0.0160  0.3802 -0.5222
 6503TIP3    H119515   0.061   1.887   4.529 -2.8689  2.2134  0.1433
 6503TIP3    H219516   0.039   1.781   4.424 -3.4206 -0.4193  2.7659
 6504TIP3   OH219517   2.421   2.041   4.216 -0.1560  0.0351 -0.4797
 6504TIP3    H119518   2.422   1.968   4.154  0.4053  1.2279 -1.9408
 6504TIP3    H219519   2.334   2.039   4.254 -0.3184 -1.0929 -0.8816
 6505TIP3   OH219520   5.069   3.573   2.102 -0.4154 -0.1070 -0.6749
 6505TIP3    H119521   5.020   3.521   2.167 -0.4285 -1.0354 -1.4094
 6505TIP3    H219522   5.061   3.663   2.134 -2.3156 -0.2572 -0.5638
 6506TIP3   OH219523   4.082   2.469   2.088 -0.2827  0.3464  0.1343
 6506TIP3    H119524   4.025   2.487   2.013 -0.2025 -1.1440 -0.3059
 6506TIP3    H219525   4.162   2.518   2.069 -0.1495 -0.2620 -0.9120
 6507TIP3   OH219526   1.671   5.264   0.813 -0.0158  0.4819  0.1845
 6507TIP3    H119527   1.664   5.359   0.815 -1.5329  0.5779 -2.9412
 6507TIP3    H219528   1.741   5.246   0.750 -1.0433 -0.3796 -0.7688
 6508TIP3   OH219529   1.798   4.960   2.661  0.5940 -0.3975 -0.2865
 6508TIP3    H119530   1.710   4.925   2.657  0.7407 -0.6732 -1.3449
 6508TIP3    H219531   1.840   4.929   2.581  0.5034  2.7840 -1.7152
 6509TIP3   OH219532   1.481   4.825   3.414  0.6621 -0.2460  0.7674
 6509TIP3    H119533   1.452   4.913   3.387 -0.5087 -0.8001  0.1383
 6509TIP3    H219534   1.439   4.766   3.351  0.6469 -1.3297  1.7706
 6510TIP3   OH219535   3.002   3.106   0.906 -0.1580 -0.1653  0.1183
 6510TIP3    H119536   2.940   3.089   0.977 -1.0049 -1.1974 -0.8344
 6510TIP3    H219537   3.072   3.157   0.947 -0.6815 -0.6290  1.6582
 6511TIP3   OH219538   2.217   0.193   2.097 -0.5193  0.2217 -0.0547
 6511TIP3    H119539   2.188   0.104   2.074 -0.5584  0.0118  0.7928
 6511TIP3    H219540   2.303   0.201   2.055 -0.0517 -0.6010  0.7095
 6512TIP3   OH219541   4.195   5.885   2.044 -0.7283 -0.3970  0.2249
 6512TIP3    H119542   4.275   5.861   1.996  0.9955  0.8160  2.3023
 6512TIP3    H219543   4.143   5.805   2.043 -0.4191 -0.7118 -2.7711
 6513TIP3   OH219544   5.301   2.749   0.778  0.1260  0.0953  0.5244
 6513TIP3    H119545   5.334   2.758   0.868  0.4816  0.7249  0.3342
 6513TIP3    H219546   5.307   2.655   0.760  2.2082  0.2277  0.3559
 6514TIP3   OH219547   2.379   0.080   4.302 -0.1628 -0.5191 -0.2961
 6514TIP3    H119548   2.309   0.070   4.238 -0.1253 -1.0673 -0.2598
 6514TIP3    H219549   2.459   0.059   4.254  0.0269  0.5167 -0.4448
 6515TIP3   OH219550   2.679   3.726   4.714 -0.2058 -0.5581 -0.0946
 6515TIP3    H119551   2.598   3.675   4.711 -0.2069 -0.6409  1.0155
 6515TIP3    H219552   2.655   3.805   4.763  0.5281 -0.8527  0.7493
 6516TIP3   OH219553   0.870   2.018   2.972 -0.0697 -0.6156 -0.4150
 6516TIP3    H119554   0.848   2.065   2.892  0.6314 -0.9514 -0.8102
 6516TIP3    H219555   0.791   1.970   2.994 -0.9964  1.1431  0.2988
 6517TIP3   OH219556   4.794   3.417   0.875  0.1004 -0.0138  0.3513
 6517TIP3    H119557   4.729   3.427   0.805 -0.3517 -1.6189  0.5034
 6517TIP3    H219558   4.878   3.438   0.833 -0.4045  1.3548 -0.0367
 6518TIP3   OH219559   2.159   3.875   1.359  0.1924 -0.5426 -0.5553
 6518TIP3    H119560   2.150   3.901   1.267  1.8192 -0.5569 -0.7448
 6518TIP3    H219561   2.204   3.790   1.356 -0.8186 -1.1261  0.2195
 6519TIP3   OH219562   0.760   3.275   2.725 -0.1978  0.0587 -0.2202
 6519TIP3    H119563   0.681   3.260   2.673 -0.2336  0.4491 -0.2819
 6519TIP3    H219564   0.728   3.307   2.809 -0.0881  0.6317 -0.3955
 6520TIP3   OH219565   3.839   4.284   4.238  0.2127  0.0839 -0.4897
 6520TIP3    H119566   3.934   4.281   4.229  0.2778 -2.0997  0.3342
 6520TIP3    H219567   3.821   4.367   4.284  1.9266 -0.4189  1.2169
 6521TIP3   OH219568   4.543   5.520   4.501  0.0450 -0.6803  0.5104
 6521TIP3    H119569   4.586   5.454   4.555  0.9083 -2.5897 -2.2631
 6521TIP3    H219570   4.614   5.556   4.447 -0.9104  0.3478 -0.1011
 6522TIP3   OH219571   4.953   2.793   0.644 -0.3468 -0.0079 -0.1073
 6522TIP3    H119572   4.867   2.833   0.641 -0.6224 -0.2513  2.3113
 6522TIP3    H219573   4.941   2.712   0.694  1.0418 -0.7492 -0.8889
 6523TIP3   OH219574   4.734   3.080   3.858  0.0821 -0.2562 -0.1900
 6523TIP3    H119575   4.723   3.079   3.954  0.0029 -1.4131 -0.1955
 6523TIP3    H219576   4.645   3.082   3.824  0.0858 -0.8494 -0.2375
 6524TIP3   OH219577   2.034   1.875   0.037  0.5183 -0.1005  1.0141
 6524TIP3    H119578   1.972   1.811   0.002 -0.0436  1.4294 -1.0051
 6524TIP3    H219579   2.119   1.844   0.008  0.2550 -0.0124  0.1005
 6525TIP3   OH219580   4.232   2.972   4.212  0.7362 -0.0801  0.0031
 6525TIP3    H119581   4.176   3.045   4.183 -1.5643 -2.2618 -1.5150
 6525TIP3    H219582   4.183   2.931   4.284  1.3047 -0.9216 -0.0730
 6526TIP3   OH219583   4.246   2.690   1.218 -0.3367 -0.0282  0.4355
 6526TIP3    H119584   4.265   2.674   1.310 -0.1027  0.8630  0.5584
 6526TIP3    H219585   4.311   2.639   1.170 -0.3820 -0.3982  0.7625
 6527TIP3   OH219586   5.855   5.692   1.473 -0.0070 -0.3679  0.1684
 6527TIP3    H119587   5.939   5.699   1.428 -1.2972 -0.6041 -2.4683
 6527TIP3    H219588   5.851   5.770   1.528  0.7008  1.3072 -1.9833
 6528TIP3   OH219589   2.719   3.364   3.468  0.5204  0.0754  0.5676
 6528TIP3    H119590   2.735   3.277   3.504  0.9311  0.4639  1.3509
 6528TIP3    H219591   2.802   3.389   3.427  0.5109  0.2433  0.6501
 6529TIP3   OH219592   0.530   5.328   3.609 -0.5927  0.3628  0.7344
 6529TIP3    H119593   0.552   5.394   3.543  0.2817  0.9329  1.5585
 6529TIP3    H219594   0.577   5.249   3.580  0.5082  0.8548  1.1101
 6530TIP3   OH219595   3.048   1.443   2.601 -0.0280 -0.2789  0.0196
 6530TIP3    H119596   2.955   1.450   2.623 -0.2755  0.1180 -1.1001
 6530TIP3    H219597   3.088   1.522   2.637 -0.1186 -0.4185  0.4424
 6531TIP3   OH219598   4.703   3.104   1.455 -0.2473  0.8744  0.0227
 6531TIP3    H119599   4.679   3.056   1.376 -1.9831  0.2211  0.9006
 6531TIP3    H219600   4.753   3.179   1.423 -0.3396  0.2783 -1.6274
 6532TIP3   OH219601   2.843   4.712   2.888  0.4440  0.3623  0.5503
 6532TIP3    H119602   2.826   4.748   2.801  0.8929  0.4793  0.5066
 6532TIP3    H219603   2.761   4.668   2.913 -0.5515  2.4316  1.1210
 6533TIP3   OH219604   1.973   4.477   1.771  0.3510  0.2536  0.1035
 6533TIP3    H119605   1.901   4.451   1.828  1.4498 -2.8086  0.3043
 6533TIP3    H219606   2.024   4.539   1.823 -0.4702  0.0717  1.1587
 6534TIP3   OH219607   4.836   0.267   2.110 -0.3103 -0.0191  0.1187
 6534TIP3    H119608   4.807   0.330   2.176  0.4213  0.4737 -0.0206
 6534TIP3    H219609   4.757   0.219   2.086 -0.9837  1.2276 -0.1949
 6535TIP3   OH219610   5.565   2.602   2.580  0.5098 -0.5070  0.2157
 6535TIP3    H119611   5.614   2.682   2.598  1.4320 -0.7660 -1.0169
 6535TIP3    H219612   5.479   2.632   2.553  1.5250  0.2558 -2.4813
 6536TIP3   OH219613   0.771   4.453   0.687 -0.1210  0.3003  0.5379
 6536TIP3    H119614   0.863   4.477   0.697 -0.0266 -0.3202  1.2306
 6536TIP3    H219615   0.735   4.457   0.775 -0.8040  0.7030  0.2442
 6537TIP3   OH219616   3.919   5.024   2.103  0.4080 -0.1665  0.1944
 6537TIP3    H119617   4.002   4.993   2.065 -0.0293 -1.4726  0.2567
 6537TIP3    H219618   3.873   4.944   2.127 -1.4678  0.4629 -1.0837
 6538TIP3   OH219619   0.929   3.230   3.425  0.2257 -0.1408  0.3750
 6538TIP3    H119620   0.926   3.183   3.342 -1.2014  0.8249 -0.1619
 6538TIP3    H219621   0.902   3.166   3.491 -0.9131 -0.3021 -0.2369
 6539TIP3   OH219622   1.614   3.856   1.691  0.3112 -0.3648  0.4502
 6539TIP3    H119623   1.545   3.834   1.754 -0.6130 -1.3563 -0.8522
 6539TIP3    H219624   1.632   3.774   1.645  1.0915  0.2804 -0.4488
 6540TIP3   OH219625   3.718   5.710   2.390  0.7012  0.0669  0.2749
 6540TIP3    H119626   3.743   5.697   2.481  0.7617  0.3394  0.2977
 6540TIP3    H219627   3.720   5.622   2.352 -0.3521 -0.2053  0.7904
 6541TIP3   OH219628   5.850   3.461   2.322  1.1830 -0.5511  0.0767
 6541TIP3    H119629   5.939   3.436   2.299  1.1256 -1.2209  0.5618
 6541TIP3    H219630   5.801   3.379   2.324 -0.0010 -0.0293 -2.4327
 6542TIP3   OH219631   5.601   3.269   3.162 -0.0147 -0.0815  0.2751
 6542TIP3    H119632   5.687   3.228   3.178 -0.3779 -0.3437  1.7694
 6542TIP3    H219633   5.606   3.354   3.206  0.4541  1.2075 -2.1355
 6543TIP3   OH219634   1.683   3.979   3.768  0.5005 -0.0623 -0.0658
 6543TIP3    H119635   1.603   3.936   3.738  1.0264 -1.0993 -0.0404
 6543TIP3    H219636   1.689   4.059   3.716 -0.9213  0.4049  0.4392
 6544TIP3   OH219637   1.022   4.630   1.253 -0.1832 -0.2689 -0.4134
 6544TIP3    H119638   0.929   4.620   1.234 -0.8316  0.2533  2.0796
 6544TIP3    H219639   1.042   4.720   1.226 -0.3117 -0.4846 -1.2469
 6545TIP3   OH219640   2.140   5.376   1.049 -0.0807  0.6948  0.5512
 6545TIP3    H119641   2.155   5.282   1.048  4.3622  1.1943 -0.7656
 6545TIP3    H219642   2.067   5.389   0.988 -0.6653 -1.8386  0.5972
 6546TIP3   OH219643   3.869   2.257   2.221  0.0532  0.3539 -0.6790
 6546TIP3    H119644   3.899   2.277   2.132  1.5991  0.0883 -0.2443
 6546TIP3    H219645   3.902   2.169   2.238  2.0766  1.3928  1.0960
 6547TIP3   OH219646   4.302   0.053   4.023  0.0577  0.3625  0.0468
 6547TIP3    H119647   4.377   0.019   3.975  0.3366 -0.5706  1.1006
 6547TIP3    H219648   4.325   0.143   4.044  1.2700 -0.1854  1.1238
 6548TIP3   OH219649   5.857   0.861   4.103 -0.1139  0.2768  0.1304
 6548TIP3    H119650   5.909   0.895   4.031 -1.3127  1.2526 -0.2964
 6548TIP3    H219651   5.837   0.937   4.158 -1.9945  0.1612 -0.3123
 6549TIP3   OH219652   4.903   3.037   1.652 -0.0837  0.2318 -0.3296
 6549TIP3    H119653   4.838   2.975   1.685 -0.4229  0.7146 -0.0806
 6549TIP3    H219654   4.878   3.053   1.561 -0.5239  0.6829 -0.1331
 6550TIP3   OH219655   1.280   5.397   2.605 -0.0474  0.0160  0.1362
 6550TIP3    H119656   1.194   5.438   2.602 -0.9980 -1.7936  0.5822
 6550TIP3    H219657   1.296   5.366   2.516 -0.1994 -0.2777  0.2092
 6551TIP3   OH219658   2.050   3.669   2.465  0.9903  0.2052  0.2554
 6551TIP3    H119659   2.105   3.727   2.413  2.0537  1.0712  2.2117
 6551TIP3    H219660   1.960   3.692   2.442  1.3803 -0.6305 -2.3780
 6552TIP3   OH219661   3.384   2.645   1.950 -0.3525  0.4547  0.7344
 6552TIP3    H119662   3.460   2.610   1.996 -1.6161 -1.2783  1.6043
 6552TIP3    H219663   3.313   2.643   2.014 -1.4739  0.7422 -0.4486
 6553TIP3   OH219664   4.839   3.306   2.172  0.0643 -0.4115  0.2942
 6553TIP3    H119665   4.867   3.270   2.088 -0.6355  1.4543 -0.8023
 6553TIP3    H219666   4.912   3.360   2.201 -0.3032  0.2310  0.0566
 6554TIP3   OH219667   2.869   3.780   4.016 -0.5213  0.2904  0.1107
 6554TIP3    H119668   2.774   3.771   4.028 -0.5207  0.7563  0.5259
 6554TIP3    H219669   2.881   3.785   3.921 -0.8787 -0.0935  0.0420
 6555TIP3   OH219670   4.782   2.569   4.241 -0.2508  0.3645 -0.6282
 6555TIP3    H119671   4.774   2.548   4.335 -1.9961 -0.2411 -0.8659
 6555TIP3    H219672   4.825   2.493   4.203  1.1621  0.9354 -0.2336
 6556TIP3   OH219673   4.901   1.651   2.739  0.2361 -0.4928 -0.4226
 6556TIP3    H119674   4.884   1.726   2.682  1.0035  0.5777  0.7389
 6556TIP3    H219675   4.963   1.597   2.689  0.5768  0.2154 -0.7693
 6557TIP3   OH219676   3.402   4.590   4.534 -0.1365 -0.2395  0.6638
 6557TIP3    H119677   3.306   4.585   4.539 -0.1896  0.2506  0.2220
 6557TIP3    H219678   3.427   4.511   4.486 -0.2844 -0.5516  1.0868
 6558TIP3   OH219679   2.157   1.567   3.869 -0.1093  0.0142  0.8278
 6558TIP3    H119680   2.231   1.539   3.815  0.2772  0.2513  1.2235
 6558TIP3    H219681   2.124   1.646   3.825 -1.4472 -1.2107 -0.5093
 6559TIP3   OH219682   3.601   4.246   3.738 -0.0551  0.8310 -0.2050
 6559TIP3    H119683   3.632   4.158   3.717  1.3642  1.3305 -0.2658
 6559TIP3    H219684   3.620   4.256   3.831 -2.0452  0.3637  0.2972
 6560TIP3   OH219685   3.937   5.296   0.052  0.3991  0.5994 -0.3750
 6560TIP3    H119686   4.010   5.282   0.112 -1.5073  0.9766  2.2759
 6560TIP3    H219687   3.947   5.387   0.023  2.3708 -0.1379 -2.2799
 6561TIP3   OH219688   0.924   4.876   1.988  0.2478  0.1767 -0.4985
 6561TIP3    H119689   0.989   4.808   1.971  0.3998  0.0868  0.4066
 6561TIP3    H219690   0.849   4.852   1.933  0.0279 -1.1177  0.3275
 6562TIP3   OH219691   5.929   4.039   4.370  0.0215  0.2499  0.6072
 6562TIP3    H119692   6.004   4.096   4.354 -1.5762  2.2888 -0.0968
 6562TIP3    H219693   5.905   4.006   4.283  1.0876 -1.8090  1.0355
 6563TIP3   OH219694   3.513   4.765   1.441 -0.5674  0.7960 -0.3194
 6563TIP3    H119695   3.532   4.680   1.480 -0.6755 -0.1215 -2.1711
 6563TIP3    H219696   3.549   4.829   1.503  0.3541 -0.6137  0.6424
 6564TIP3   OH219697   2.305   3.372   0.711 -0.3161 -0.0788 -0.5114
 6564TIP3    H119698   2.343   3.376   0.623  0.3869  3.1986 -0.1959
 6564TIP3    H219699   2.339   3.450   0.755 -0.3250 -1.7887  2.8622
 6565TIP3   OH219700   2.956   3.849   2.552  0.3176 -0.3288  0.0647
 6565TIP3    H119701   3.046   3.874   2.535  0.0471  0.8812  0.3039
 6565TIP3    H219702   2.904   3.918   2.511 -0.5092 -1.1241 -0.2544
 6566TIP3   OH219703   3.760   2.839   2.830  0.8218  0.7069  0.6810
 6566TIP3    H119704   3.713   2.756   2.827  1.3168  0.4476 -0.3491
 6566TIP3    H219705   3.844   2.819   2.870  1.2594  0.5257 -0.2892
 6567TIP3   OH219706   0.549   3.884   2.219  0.5138  0.2398  0.2967
 6567TIP3    H119707   0.566   3.915   2.130 -1.1402  0.8535  0.1580
 6567TIP3    H219708   0.454   3.877   2.224  0.6698 -1.6746  1.4078
 6568TIP3   OH219709   5.919   2.793   2.094  0.1503 -0.0591  0.1596
 6568TIP3    H119710   5.837   2.842   2.085  0.0521 -0.3468 -0.5555
 6568TIP3    H219711   5.988   2.857   2.077 -0.0149 -0.5644 -2.9504
 6569TIP3   OH219712   5.376   3.103   0.441  0.7713  0.0809 -0.2548
 6569TIP3    H119713   5.281   3.096   0.454  0.3392 -0.9175 -3.1209
 6569TIP3    H219714   5.414   3.044   0.506 -0.6750 -0.7064 -0.0898
 6570TIP3   OH219715   0.867   2.107   2.417 -0.0303 -0.1918 -0.1004
 6570TIP3    H119716   0.772   2.119   2.413 -0.2088 -0.3315  2.3997
 6570TIP3    H219717   0.881   2.048   2.491  2.0844  0.9350  0.4768
 6571TIP3   OH219718   4.861   3.408   3.976  0.0518 -0.6193  0.0514
 6571TIP3    H119719   4.843   3.501   3.990  1.1950 -0.2658 -0.6734
 6571TIP3    H219720   4.955   3.399   3.992 -0.2152 -1.8498  1.0335
 6572TIP3   OH219721   5.001   2.739   4.312 -0.2771  0.0089  0.2481
 6572TIP3    H119722   4.939   2.780   4.372  0.8661  0.0029  1.4662
 6572TIP3    H219723   4.948   2.677   4.261 -1.4624  0.8267  0.4572
 6573TIP3   OH219724   5.265   3.279   1.956  0.2964 -0.5504 -0.0313
 6573TIP3    H119725   5.345   3.234   1.928  0.2729 -0.1913 -0.6989
 6573TIP3    H219726   5.202   3.262   1.886 -0.0346 -0.3498  0.2131
 6574TIP3   OH219727   3.317   5.575   2.704  0.1036  0.2452  0.3179
 6574TIP3    H119728   3.236   5.524   2.698  0.3006  0.0270 -0.7490
 6574TIP3    H219729   3.345   5.586   2.613  2.0727 -0.9299  0.7355
 6575TIP3   OH219730   3.972   5.800   0.540  0.3902  0.3069  0.4474
 6575TIP3    H119731   3.904   5.797   0.606 -0.2790  1.4129 -0.1784
 6575TIP3    H219732   4.008   5.711   0.539 -2.1646 -0.7972 -0.3795
 6576TIP3   OH219733   3.279   4.998   2.563  0.2827 -0.1262 -0.2095
 6576TIP3    H119734   3.340   4.950   2.619  1.3319  1.2747 -0.1066
 6576TIP3    H219735   3.206   5.021   2.621  0.6787  0.0549  0.2209
 6577TIP3   OH219736   2.479   3.582   2.348  0.5635 -0.2392 -0.1251
 6577TIP3    H119737   2.570   3.553   2.335  0.2945 -0.1903 -2.6024
 6577TIP3    H219738   2.426   3.515   2.305 -0.3535  1.3771 -1.6169
 6578TIP3   OH219739   5.727   4.572   0.499  0.3068 -0.8150  0.3391
 6578TIP3    H119740   5.726   4.491   0.549 -0.3658 -1.2045 -0.2765
 6578TIP3    H219741   5.650   4.620   0.530 -0.9836 -1.7081 -1.2929
 6579TIP3   OH219742   2.648   3.089   1.221 -0.2286 -0.3646  0.1095
 6579TIP3    H119743   2.628   3.149   1.293 -0.3268 -0.3607  0.0789
 6579TIP3    H219744   2.623   3.003   1.254 -0.8765 -0.2832 -0.1517
 6580TIP3   OH219745   4.896   2.360   4.103  0.0550 -0.3797 -0.5775
 6580TIP3    H119746   4.901   2.435   4.044  1.3320 -1.4306 -1.8652
 6580TIP3    H219747   4.808   2.325   4.091 -0.7185  1.1081  0.3620
 6581TIP3   OH219748   1.851   0.179   4.486 -0.0417  0.1144 -0.2700
 6581TIP3    H119749   1.940   0.146   4.477  0.3275  1.5264 -2.5971
 6581TIP3    H219750   1.804   0.146   4.409 -1.5416 -0.5254  0.8625
 6582TIP3   OH219751   5.228   4.687   3.055  0.1787  0.2678 -0.0458
 6582TIP3    H119752   5.291   4.752   3.025  0.9896 -0.2528  0.4882
 6582TIP3    H219753   5.220   4.702   3.149 -0.7599  0.5485 -0.1666
 6583TIP3   OH219754   5.491   1.354   4.148 -0.5332 -0.2112  0.6184
 6583TIP3    H119755   5.520   1.393   4.231 -1.2335  0.2483  0.6557
 6583TIP3    H219756   5.533   1.268   4.146  0.7851  0.3927  0.6895
 6584TIP3   OH219757   1.148   5.742   3.202 -0.3339 -0.1902 -0.4222
 6584TIP3    H119758   1.120   5.662   3.158 -0.3253 -1.1374  1.2199
 6584TIP3    H219759   1.067   5.784   3.231 -0.3064 -1.8688  2.4916
 6585TIP3   OH219760   6.020   3.299   0.581 -0.6546 -0.3293 -0.0629
 6585TIP3    H119761   5.986   3.210   0.586 -0.2690 -0.4212  1.3437
 6585TIP3    H219762   6.103   3.291   0.534  0.0397 -0.9457  1.2162
 6586TIP3   OH219763   4.400   3.716   4.476  0.1579  0.1437 -0.1567
 6586TIP3    H119764   4.364   3.794   4.518  1.0017  1.4519 -1.7147
 6586TIP3    H219765   4.457   3.677   4.542  0.0749  1.1104  0.5111
 6587TIP3   OH219766   4.064   4.723   0.243 -0.2836  0.4491 -0.3443
 6587TIP3    H119767   4.019   4.783   0.302  0.3618 -0.2203  0.8683
 6587TIP3    H219768   4.066   4.768   0.159 -0.0678  1.9883  0.4607
 6588TIP3   OH219769   3.948   2.932   1.334 -0.4969  0.2417  0.3804
 6588TIP3    H119770   3.853   2.944   1.340 -0.5177  0.7010 -0.6586
 6588TIP3    H219771   3.978   3.008   1.284  0.0429 -1.3368 -1.8226
 6589TIP3   OH219772   5.707   0.102   1.289 -0.3383 -0.0306 -0.8513
 6589TIP3    H119773   5.799   0.116   1.268 -0.2732 -1.3698 -1.6038
 6589TIP3    H219774   5.688   0.165   1.358  0.9076  0.8552 -1.2817
 6590TIP3   OH219775   4.798   0.707   1.980  0.3190  0.5020  0.0068
 6590TIP3    H119776   4.779   0.630   1.926  0.0062  0.3068  0.3933
 6590TIP3    H219777   4.741   0.698   2.056  1.2863  0.4028  0.7353
 6591TIP3   OH219778   5.878   5.511   4.724 -0.3127  0.4946  0.3259
 6591TIP3    H119779   5.855   5.537   4.813  1.2684  1.2265  0.5357
 6591TIP3    H219780   5.826   5.570   4.668 -1.2230  0.1080  0.7322
 6592TIP3   OH219781   5.717   5.821   0.509 -0.0634  0.0216 -0.1469
 6592TIP3    H119782   5.731   5.768   0.431  2.8390 -0.3016  0.4771
 6592TIP3    H219783   5.731   5.911   0.479 -1.3000  0.1392 -0.4342
 6593TIP3   OH219784   5.683   0.068   3.817  0.0380 -0.0779 -0.5052
 6593TIP3    H119785   5.602   0.023   3.794  0.4593 -0.8139 -0.5908
 6593TIP3    H219786   5.673   0.091   3.910  0.6484 -2.2541  0.1625
 6594TIP3   OH219787   3.794   0.854   3.174  0.4315  0.4105  0.1012
 6594TIP3    H119788   3.746   0.812   3.246  0.1819  0.3864 -0.0810
 6594TIP3    H219789   3.762   0.812   3.095  0.4314  0.7039 -0.0567
 6595TIP3   OH219790   1.035   5.781   0.056  0.5786  0.2656  0.2218
 6595TIP3    H119791   1.121   5.816   0.030  0.2167  0.6971 -0.4211
 6595TIP3    H219792   1.055   5.715   0.122  1.3459  1.0560  0.7985
 6596TIP3   OH219793   5.306   4.249   3.540  0.6809 -0.1635 -0.5484
 6596TIP3    H119794   5.324   4.282   3.452  1.0676  0.0792 -0.3820
 6596TIP3    H219795   5.220   4.285   3.563  1.1604  0.8553 -0.3112
 6597TIP3   OH219796   4.283   3.091   4.892 -0.0859  0.0461 -0.0736
 6597TIP3    H119797   4.321   3.006   4.873 -1.7108 -0.6320 -0.4886
 6597TIP3    H219798   4.195   3.072   4.926 -0.5773  1.5530 -0.3843
 6598TIP3   OH219799   5.909   2.660   3.043 -0.4830 -0.5847  0.3891
 6598TIP3    H119800   5.905   2.695   2.954 -0.1271  0.7203  0.8658
 6598TIP3    H219801   5.992   2.691   3.078 -1.3518  0.3438  1.7387
 6599TIP3   OH219802   1.334   0.169   3.873  0.2743 -0.4740  0.0050
 6599TIP3    H119803   1.385   0.114   3.933 -1.5277  0.7040  2.8280
 6599TIP3    H219804   1.318   0.249   3.922 -0.1146  1.2117 -2.6721
 6600TIP3   OH219805   5.267   5.243   3.138 -0.0161 -0.2435  0.4600
 6600TIP3    H119806   5.354   5.238   3.097 -0.1653 -1.1999  0.2390
 6600TIP3    H219807   5.282   5.220   3.229 -0.4597 -3.9071 -0.2231
 6601TIP3   OH219808   5.047   2.406   1.998 -0.3980 -0.0763 -0.3722
 6601TIP3    H119809   5.024   2.405   2.091  1.3919 -0.0612  0.0975
 6601TIP3    H219810   5.106   2.481   1.989  0.3466 -0.7621 -1.2996
 6602TIP3   OH219811   6.177   2.438   4.684  0.2627  0.1425  0.3419
 6602TIP3    H119812   6.187   2.509   4.747  0.4191  1.9146 -1.5671
 6602TIP3    H219813   6.092   2.400   4.704  0.3892  0.5250  1.7056
 6603TIP3   OH219814   5.304   1.381   4.565  0.1841  0.3818 -0.3740
 6603TIP3    H119815   5.212   1.360   4.581 -0.5799  1.3647 -3.0085
 6603TIP3    H219816   5.349   1.297   4.574 -1.0550 -0.2535  0.2203
 6604TIP3   OH219817   5.611   4.323   0.589 -0.6196  0.4042 -0.4546
 6604TIP3    H119818   5.571   4.272   0.518 -0.2971  3.1082 -2.7397
 6604TIP3    H219819   5.537   4.348   0.645 -0.7699 -2.5449  0.8924
 6605TIP3   OH219820   1.376   5.766   2.520 -0.0734  0.1587 -0.0294
 6605TIP3    H119821   1.302   5.766   2.459  0.1200  3.3174 -0.4236
 6605TIP3    H219822   1.434   5.698   2.487 -1.1386  0.0812 -1.8900
 6606TIP3   OH219823   2.517   3.411   5.129  0.7743  0.1385 -0.0831
 6606TIP3    H119824   2.503   3.323   5.164  0.8968 -0.6359 -1.8494
 6606TIP3    H219825   2.611   3.414   5.112  0.7161  0.4693 -0.3493
 6607TIP3   OH219826   4.067   5.973   3.596  0.0614 -0.6173  0.3794
 6607TIP3    H119827   4.115   6.056   3.594  0.6041 -0.9302 -1.0511
 6607TIP3    H219828   4.135   5.906   3.604 -0.2915 -0.9648  0.4813
 6608TIP3   OH219829   2.318   2.576   1.183  0.5528  0.3828  0.4393
 6608TIP3    H119830   2.389   2.554   1.122  0.3902 -0.9303  0.6941
 6608TIP3    H219831   2.343   2.662   1.218  0.3882  1.4604 -1.8512
 6609TIP3   OH219832   4.283   3.712   2.183  0.0202  0.2291  0.3331
 6609TIP3    H119833   4.325   3.682   2.264  0.3802 -0.0157  0.0602
 6609TIP3    H219834   4.351   3.760   2.137 -0.0384 -0.0490 -0.0476
 6610TIP3   OH219835   1.593   3.592   0.904  0.1929 -0.2729 -0.5042
 6610TIP3    H119836   1.523   3.617   0.964  0.8154 -1.9076  0.9813
 6610TIP3    H219837   1.551   3.536   0.839  0.2076 -1.9268  0.8532
 6611TIP3   OH219838   3.389   0.927   4.186 -0.1634  0.0174 -0.6662
 6611TIP3    H119839   3.420   0.978   4.111 -1.7508  1.2393 -0.5369
 6611TIP3    H219840   3.332   0.987   4.234 -0.9417 -1.4406  0.2990
 6612TIP3   OH219841   2.327   3.042   1.998  0.3497 -0.5305  0.4414
 6612TIP3    H119842   2.314   3.130   1.962 -1.9793 -0.4620  1.2844
 6612TIP3    H219843   2.420   3.038   2.018  0.3739  2.1351  1.3024
 6613TIP3   OH219844   3.650   1.619   4.566  0.0195  0.1455  0.3374
 6613TIP3    H119845   3.581   1.663   4.615 -0.4877 -1.1794  0.8675
 6613TIP3    H219846   3.604   1.558   4.508  0.6916  0.3309 -0.4075
 6614TIP3   OH219847   3.883   5.441   5.149 -0.0502  0.1994 -0.8102
 6614TIP3    H119848   3.802   5.391   5.135  0.0098  0.1108 -0.8384
 6614TIP3    H219849   3.952   5.384   5.118  0.6030 -1.9027  3.6299
 6615TIP3   OH219850   4.645   2.703   3.600  0.1910  0.0685  0.3538
 6615TIP3    H119851   4.565   2.670   3.640  0.4901 -0.2036  0.7356
 6615TIP3    H219852   4.685   2.758   3.667  0.0705  0.6069 -0.0164
 6616TIP3   OH219853   3.107   5.638   1.399 -0.1419  0.2974 -0.2614
 6616TIP3    H119854   3.027   5.587   1.412  0.4518 -0.6919 -0.3749
 6616TIP3    H219855   3.083   5.727   1.424 -1.3004  0.0356 -0.3873
 6617TIP3   OH219856   0.232   0.471   2.192  0.3248  0.2944 -0.2414
 6617TIP3    H119857   0.245   0.377   2.196 -0.6944  0.1548 -0.1008
 6617TIP3    H219858   0.206   0.496   2.280 -1.0026  0.4559 -0.6639
 6618TIP3   OH219859   0.238   0.640   1.267  0.8806 -0.2597 -0.1047
 6618TIP3    H119860   0.307   0.580   1.294  1.0422 -0.4848 -0.9981
 6618TIP3    H219861   0.160   0.610   1.314  1.3182 -0.1573  0.7103
 6619TIP3   OH219862   6.315   2.738   4.580  0.0123 -0.4188  0.5506
 6619TIP3    H119863   6.361   2.659   4.550 -2.2569 -1.5438 -0.1586
 6619TIP3    H219864   6.307   2.727   4.674 -0.7840 -1.3490  0.3887
 6620TIP3   OH219865   6.271   4.780   4.627 -0.3713  0.2368 -0.2920
 6620TIP3    H119866   6.337   4.713   4.607  0.4453  0.9510 -0.0267
 6620TIP3    H219867   6.194   4.730   4.655  0.6816 -0.5701  1.2696
 6621TIP3   OH219868   5.418   5.883   0.542 -0.4224 -0.0542  0.0734
 6621TIP3    H119869   5.512   5.869   0.530 -0.0911  1.6702  0.3087
 6621TIP3    H219870   5.412   5.967   0.588 -2.0897  0.0509 -0.2630
 6622TIP3   OH219871   2.766   5.885   0.653 -0.2391 -0.7183  0.1802
 6622TIP3    H119872   2.681   5.861   0.615  0.4974 -3.0820 -0.1239
 6622TIP3    H219873   2.811   5.802   0.665  0.6344  0.0769  3.8068
 6623TIP3   OH219874   0.100   5.688   2.913  0.0489  0.3012 -0.5898
 6623TIP3    H119875   0.034   5.664   2.848 -0.1344 -0.1032 -0.2595
 6623TIP3    H219876   0.169   5.622   2.903 -0.4608 -0.3994  0.3269
 6624TIP3   OH219877   0.860   3.401   0.127 -0.3063  0.1861  0.0675
 6624TIP3    H119878   0.808   3.322   0.108  2.2454 -1.3063 -1.2472
 6624TIP3    H219879   0.890   3.431   0.041 -0.9191  2.4429  0.5831
 6625TIP3   OH219880   4.922   2.722   1.597  0.5100 -0.1652 -0.0355
 6625TIP3    H119881   4.902   2.628   1.604 -0.4476 -0.0492 -0.9836
 6625TIP3    H219882   4.951   2.734   1.507  2.7096  0.1127  0.6419
 6626TIP3   OH219883   0.129   4.737   0.794  0.0837 -0.5209 -0.2607
 6626TIP3    H119884   0.114   4.831   0.784 -0.4071 -0.6800 -1.2280
 6626TIP3    H219885   0.210   4.730   0.844  0.7223  0.4242 -1.1205
 6627TIP3   OH219886   2.952   4.625   2.435  0.1662 -0.7193 -0.0266
 6627TIP3    H119887   2.955   4.605   2.528 -1.0214 -1.4369 -0.1213
 6627TIP3    H219888   3.024   4.686   2.421  1.0131 -1.4147  1.1568
 6628TIP3   OH219889   5.283   0.399   0.205 -0.0566  0.0031  0.0024
 6628TIP3    H119890   5.289   0.418   0.111 -1.1879  1.5196  0.1920
 6628TIP3    H219891   5.191   0.376   0.218  0.1131 -0.2622  0.7270
 6629TIP3   OH219892   1.656   2.382   4.210 -0.0094  0.6122 -0.3917
 6629TIP3    H119893   1.616   2.425   4.134 -0.1442 -0.2387 -0.8180
 6629TIP3    H219894   1.634   2.438   4.284 -0.6318  0.9968 -0.8571
 6630TIP3   OH219895   4.207   4.529   0.958  0.4036 -0.2183 -0.2888
 6630TIP3    H119896   4.259   4.453   0.933  0.9140  0.0720 -0.1167
 6630TIP3    H219897   4.190   4.518   1.052  2.4657  1.0334  0.2855
 6631TIP3   OH219898   3.506   1.883   4.931 -0.3304 -0.1106  0.1577
 6631TIP3    H119899   3.581   1.940   4.918 -0.1964 -0.2086  0.4939
 6631TIP3    H219900   3.458   1.922   5.004 -0.4296 -0.2317  0.1587
 6632TIP3   OH219901   0.933   3.028   1.133  0.0719 -0.1268  0.3209
 6632TIP3    H119902   0.956   2.964   1.065  2.0317  0.9136 -0.0487
 6632TIP3    H219903   0.883   2.977   1.196  0.4666 -1.7440 -0.6022
 6633TIP3   OH219904   5.329   2.913   3.817 -0.1894  0.3744 -0.0703
 6633TIP3    H119905   5.297   2.996   3.852 -1.9469 -0.4363  0.3659
 6633TIP3    H219906   5.292   2.908   3.729  0.7216  0.4857 -0.4667
 6634TIP3   OH219907   5.512   0.107   5.099 -0.8744 -0.0338  0.3537
 6634TIP3    H119908   5.575   0.043   5.133  0.0089  0.0965 -0.9591
 6634TIP3    H219909   5.443   0.054   5.059 -2.0032 -0.1942  2.3674
 6635TIP3   OH219910   6.158   1.940   3.145 -0.0808  0.0687 -0.0313
 6635TIP3    H119911   6.198   2.027   3.151  3.3462 -1.4071  0.9046
 6635TIP3    H219912   6.086   1.951   3.084  0.6332  3.4131 -0.4560
 6636TIP3   OH219913   1.633   1.573   0.745 -0.1303 -0.2972 -0.0793
 6636TIP3    H119914   1.697   1.503   0.754  0.0687 -0.1167 -0.0803
 6636TIP3    H219915   1.666   1.644   0.800 -1.4894 -0.9956  1.7483
 6637TIP3   OH219916   1.653   3.572   0.223 -0.6733  0.3881 -0.6549
 6637TIP3    H119917   1.560   3.593   0.218 -1.2666 -1.3178  1.4665
 6637TIP3    H219918   1.658   3.503   0.289  2.2137  1.1093  0.0271
 6638TIP3   OH219919   6.231   3.723   3.281 -0.6291 -0.1372 -0.2822
 6638TIP3    H119920   6.153   3.776   3.263  0.1042  0.7602 -0.8703
 6638TIP3    H219921   6.304   3.783   3.269  0.1446 -0.8272  0.7979
 6639TIP3   OH219922   6.188   5.067   3.755  0.0616 -0.0566 -0.2472
 6639TIP3    H119923   6.099   5.072   3.721  0.6890 -0.2039 -2.0335
 6639TIP3    H219924   6.186   4.993   3.816 -0.9055 -0.3709 -0.6412
 6640TIP3   OH219925   1.482   1.489   3.661  0.1845  0.5448 -0.4044
 6640TIP3    H119926   1.570   1.454   3.647  0.7752  1.7811  0.0440
 6640TIP3    H219927   1.424   1.415   3.644  1.2484 -0.0372 -1.6969
   6.34317   5.98039   5.17918   0.00000   0.00000  -2.11439   0.00000  -2.11439  -2.99021
