Title
19942
    1ASP      N    1   4.696   1.733   3.302 -0.4810  0.0405  0.0980
    1ASP    HT1    2   4.742   1.658   3.357  1.1288  1.1196  0.2918
    1ASP    HT2    3   4.721   1.716   3.202 -3.0739 -2.6755 -0.2349
    1ASP    HT3    4   4.594   1.715   3.308 -0.1558 -1.4572  2.7630
    1ASP     CA    5   4.733   1.865   3.363 -0.4381 -0.5092 -0.3572
    1ASP     HA    6   4.834   1.853   3.400 -1.3935  0.6058  2.9664
    1ASP     CB    7   4.715   1.983   3.260 -0.0491  0.5026  0.2793
    1ASP    HB1    8   4.609   2.005   3.237 -0.7621 -2.8497 -0.1031
    1ASP    HB2    9   4.754   1.964   3.158 -1.6724  1.2804 -0.5225
    1ASP     CG   10   4.786   2.104   3.306 -0.7256  0.2953  0.0803
    1ASP    OD1   11   4.859   2.097   3.405  0.3638  0.3698  0.1943
    1ASP    OD2   12   4.771   2.212   3.242 -0.1384  0.6675 -0.2722
    1ASP      C   13   4.641   1.893   3.490 -0.2267 -0.7177 -0.0628
    1ASP      O   14   4.586   1.796   3.547 -0.1462 -0.3267  0.1958
    2ALA      N   15   4.621   2.017   3.534 -0.3009  0.2592 -0.3016
    2ALA     HN   16   4.687   2.082   3.498  1.0317 -1.0591 -0.3252
    2ALA     CA   17   4.521   2.053   3.633  0.0597  0.4601  0.0394
    2ALA     HA   18   4.519   1.977   3.711 -2.9067  0.0491 -0.3484
    2ALA     CB   19   4.560   2.183   3.696 -0.1075  0.2746  0.4161
    2ALA    HB1   20   4.561   2.258   3.613 -0.9084  1.3248  1.3202
    2ALA    HB2   21   4.666   2.177   3.728  0.4035  0.4635 -1.1099
    2ALA    HB3   22   4.495   2.222   3.777  1.0295  0.6347  1.1755
    2ALA      C   23   4.381   2.056   3.577  0.2386  0.1025  0.1888
    2ALA      O   24   4.352   2.101   3.469  0.3979  0.2117  0.5967
    3ASP      N   25   4.286   2.021   3.668 -0.0149  0.1152 -0.1944
    3ASP     HN   26   4.300   1.999   3.765  0.3703  0.9788 -0.0402
    3ASP     CA   27   4.145   2.034   3.642  0.0543  0.1135  0.4397
    3ASP     HA   28   4.135   2.027   3.535  1.3823  1.0624  0.2308
    3ASP     CB   29   4.050   1.926   3.719 -0.2954  0.3339  0.3355
    3ASP    HB1   30   3.943   1.951   3.707 -0.3828  0.7809  1.8553
    3ASP    HB2   31   4.078   1.923   3.827  0.3809 -0.5813  0.1473
    3ASP     CG   32   4.074   1.790   3.663  0.3912  0.1358  0.1443
    3ASP    OD1   33   4.149   1.771   3.565  0.2852  0.3274 -0.0366
    3ASP    OD2   34   4.027   1.695   3.729  0.3019  0.0885  0.3321
    3ASP      C   35   4.107   2.184   3.665  0.2242  0.1034 -0.1676
    3ASP      O   36   4.194   2.259   3.711 -0.1448  0.3177 -0.4120
    4GLY      N   37   3.986   2.228   3.625 -0.7649 -0.3013 -0.2113
    4GLY     HN   38   3.928   2.157   3.585 -0.5537 -0.0430 -0.9935
    4GLY     CA   39   3.938   2.368   3.622 -0.5296  0.1253  0.2454
    4GLY    HA1   40   3.837   2.359   3.586 -1.0770  0.3790  1.6817
    4GLY    HA2   41   4.005   2.421   3.557 -2.9378  0.2261 -2.3369
    4GLY      C   42   3.931   2.431   3.763 -0.0819  0.4911 -0.2040
    4GLY      O   43   3.926   2.357   3.859  0.5967 -0.3837 -0.5985
    5PRO      N   44   3.917   2.563   3.784 -0.0722  0.7938  0.7191
    5PRO     CD   45   3.913   2.664   3.673  0.5569  0.1251  0.2172
    5PRO    HD1   46   3.859   2.630   3.582  2.0395  0.2315 -0.7236
    5PRO    HD2   47   4.017   2.684   3.640  1.3255 -0.4718  2.1370
    5PRO     CA   48   3.871   2.612   3.912  0.2859 -0.5186  0.2731
    5PRO     HA   49   3.932   2.576   3.993  0.6006  0.0949  0.3181
    5PRO     CB   50   3.870   2.760   3.885  0.0555  0.0568  0.6699
    5PRO    HB1   51   3.971   2.799   3.912 -0.8853  0.2203  4.5020
    5PRO    HB2   52   3.794   2.811   3.948  1.9690  1.5246  1.9378
    5PRO     CG   53   3.844   2.784   3.735 -0.0850  0.2134  0.1334
    5PRO    HG1   54   3.737   2.782   3.704  0.4466 -0.0732 -1.8075
    5PRO    HG2   55   3.884   2.877   3.689  0.6821 -0.8434 -1.4206
    5PRO      C   56   3.738   2.560   3.956 -0.1752 -0.3525 -0.4972
    5PRO      O   57   3.664   2.510   3.875  0.3288  0.2359  0.5751
    6GLY      N   58   3.707   2.563   4.087  0.2346  0.0618  0.0169
    6GLY     HN   59   3.770   2.615   4.145  0.2041 -0.3324  0.4108
    6GLY     CA   60   3.592   2.499   4.150  0.2940  0.0435 -0.3596
    6GLY    HA1   61   3.615   2.481   4.254  1.5835  0.3353 -0.5821
    6GLY    HA2   62   3.570   2.411   4.093  0.3577  0.4115 -0.9565
    6GLY      C   63   3.464   2.580   4.135  0.2474  0.9434  0.3324
    6GLY      O   64   3.449   2.672   4.056  0.2767  0.3566  0.1544
    7ASP      N   65   3.360   2.536   4.213  0.1291 -0.2833  0.0825
    7ASP     HN   66   3.370   2.447   4.258 -1.6601 -0.6875 -0.2415
    7ASP     CA   67   3.237   2.599   4.236 -0.7268 -0.5379  0.4981
    7ASP     HA   68   3.201   2.612   4.135 -1.4935 -0.7742  0.7319
    7ASP     CB   69   3.143   2.510   4.313 -0.2653 -0.0784 -0.7215
    7ASP    HB1   70   3.054   2.564   4.352 -0.7987 -1.0719 -0.5368
    7ASP    HB2   71   3.192   2.465   4.402  0.2962  1.5298 -0.1776
    7ASP     CG   72   3.080   2.397   4.233  0.1392 -0.5132  0.2592
    7ASP    OD1   73   3.100   2.396   4.106  0.3523  0.2165  0.4074
    7ASP    OD2   74   3.009   2.317   4.303 -0.0020 -0.6377  0.1694
    7ASP      C   75   3.261   2.740   4.298  1.2022 -0.0335  0.4061
    7ASP      O   76   3.360   2.760   4.364 -0.0464 -0.1276 -0.0115
    8PRO      N   77   3.174   2.840   4.259 -0.2491  0.0143 -0.7156
    8PRO     CD   78   3.058   2.811   4.172  0.1025  0.0206 -0.6634
    8PRO    HD1   79   2.999   2.729   4.219 -0.3391  0.5306 -0.3153
    8PRO    HD2   80   3.088   2.791   4.067  0.1005 -0.7264 -0.5272
    8PRO     CA   81   3.170   2.980   4.312  0.2843  0.2046  0.3982
    8PRO     HA   82   3.244   3.038   4.257 -0.5886  2.2883  1.3149
    8PRO     CB   83   3.022   3.023   4.289  0.1938  0.7682  0.0919
    8PRO    HB1   84   3.005   3.129   4.262 -1.0521  1.0471  1.7852
    8PRO    HB2   85   2.960   3.006   4.380 -1.1098  0.2274 -0.8665
    8PRO     CG   86   2.968   2.936   4.173  0.6067 -0.5231 -0.3389
    8PRO    HG1   87   2.859   2.924   4.193  0.8560  0.2267  1.6196
    8PRO    HG2   88   2.980   2.984   4.073 -0.6883 -3.6791 -2.1609
    8PRO      C   89   3.213   3.000   4.455  0.6518  1.1503  0.4790
    8PRO      O   90   3.189   2.914   4.543 -0.1210 -0.0595 -0.1215
    9ASP      N   91   3.286   3.107   4.483 -0.1448  0.1919 -0.4813
    9ASP     HN   92   3.307   3.184   4.424  1.3232 -0.6446 -1.1004
    9ASP     CA   93   3.329   3.147   4.612 -1.6019  0.0912  0.3223
    9ASP     HA   94   3.394   3.068   4.647  0.0856  0.6224 -1.4540
    9ASP     CB   95   3.440   3.256   4.596  0.8275  0.1972 -0.1200
    9ASP    HB1   96   3.394   3.352   4.562  2.0093  0.8450  0.0664
    9ASP    HB2   97   3.518   3.219   4.527  0.7072 -1.9837  0.8277
    9ASP     CG   98   3.517   3.294   4.719 -0.1083 -0.3068 -0.7395
    9ASP    OD1   99   3.485   3.241   4.833 -0.0749  0.6828 -0.1532
    9ASP    OD2  100   3.612   3.375   4.703 -0.5162 -0.0861 -0.1664
    9ASP      C  101   3.214   3.171   4.712 -0.3741  0.5480  0.7223
    9ASP      O  102   3.109   3.232   4.683 -0.2667  0.4631 -0.2042
   10ALA      N  103   3.225   3.116   4.836 -0.4045 -0.8870 -0.0484
   10ALA     HN  104   3.310   3.073   4.866 -0.6117  0.6185  3.1461
   10ALA     CA  105   3.123   3.126   4.941  0.5610 -0.0230  0.5207
   10ALA     HA  106   3.029   3.102   4.894  0.0634  1.1923  0.8595
   10ALA     CB  107   3.148   3.027   5.048  0.2281  0.0395 -0.5350
   10ALA    HB1  108   3.081   3.035   5.136 -0.0292 -1.9865 -0.4977
   10ALA    HB2  109   3.253   3.026   5.084  0.2922 -2.9998 -0.5721
   10ALA    HB3  110   3.133   2.922   5.014  1.8931 -0.5598  0.4649
   10ALA      C  111   3.113   3.261   4.997  0.0324  0.1383  0.1789
   10ALA      O  112   3.208   3.308   5.060 -0.5146  0.6878 -0.0781
   11GLY      N  113   3.000   3.328   4.965  0.4658  0.4214  0.2560
   11GLY     HN  114   2.931   3.299   4.900  0.7475  1.3340 -0.4759
   11GLY     CA  115   2.963   3.459   5.029 -0.1867  0.0664  0.0862
   11GLY    HA1  116   3.046   3.523   5.004 -0.3310 -0.4140 -1.7636
   11GLY    HA2  117   2.943   3.436   5.132  1.2752 -2.1108 -0.0679
   11GLY      C  118   2.845   3.542   4.973 -0.4846  0.0948 -0.6436
   11GLY    OT1  119   2.865   3.593   4.860  0.2517  0.4070  0.7321
   11GLY    OT2  120   2.737   3.566   5.027  0.0256  0.2521  0.1123
   12LIT    LIT  121   0.352   5.776   3.579  0.1829  0.4476 -0.3320
   13LIT    LIT  122   2.254   3.626   4.006  0.9851 -0.0986  0.5290
   14LIT    LIT  123   2.697   3.683   4.869  0.5387 -0.6486 -1.2027
   15LIT    LIT  124   2.444   4.681   4.781 -0.2886 -0.7809  0.5753
   16LIT    LIT  125   0.788   5.732   1.383  0.4013 -0.3147  0.7305
   17LIT    LIT  126   2.232   5.505   4.830 -0.4945 -0.4811  0.1618
   18LIT    LIT  127   4.435   4.450   3.594  0.4193  0.5582  0.2607
   19LIT    LIT  128   2.809   3.585   2.725 -0.7288  0.3653 -0.0432
   20LIT    LIT  129   1.036   3.022   4.096  1.0223 -0.0747  0.6274
   21LIT    LIT  130   5.268   4.920   3.089 -0.7045  0.2515  0.8824
   22LIT    LIT  131   5.342   0.391   3.155 -0.2344 -0.3528 -0.4101
   23LIT    LIT  132   2.213   2.998   1.303 -0.1086  0.0321 -0.6232
   24LIT    LIT  133   1.598   5.810   4.381 -0.0504  0.2678 -0.0327
   25LIT    LIT  134   6.310   4.538   1.050  0.6405 -0.0661  0.1570
   26LIT    LIT  135   1.654   5.165   0.935  1.1990  0.4550  1.7190
   27LIT    LIT  136   2.462   1.967   4.014  0.3687 -0.1739  0.2791
   28LIT    LIT  137   4.631   2.319   3.189 -0.0773  0.1638  1.0095
   29LIT    LIT  138   2.297   3.794   0.950  0.1335  0.6437 -0.9739
   30LIT    LIT  139   0.800   4.204   0.229 -1.3021 -0.1776 -1.3833
   31LIT    LIT  140   4.505   1.722   3.903  0.1531 -0.4746  1.1309
   32LIT    LIT  141   0.302   2.276   1.938 -0.4664 -1.0312 -1.2784
   33LIT    LIT  142   3.661   5.069   3.091  0.6886 -1.0945 -0.0238
   34CLA    CLA  143   2.182   5.758   1.175 -0.1328  0.0957 -0.2833
   35CLA    CLA  144   5.564   4.607   1.243 -0.0190  0.2910  0.0593
   36CLA    CLA  145   3.611   5.986   1.730  0.2665 -0.1228 -0.3470
   37CLA    CLA  146   4.853   4.565   4.366  0.4874  0.1537  0.1937
   38CLA    CLA  147   2.145   5.592   4.644 -0.3362  0.0511  0.1853
   39CLA    CLA  148   2.698   5.047   2.797  0.0341 -0.1092  0.1597
   40CLA    CLA  149   3.289   3.001   3.125 -0.4392  0.0062  0.0389
   41CLA    CLA  150   0.484   2.169   2.026  0.3207  0.1277 -0.4532
   42CLA    CLA  151   1.709   2.552   2.195 -0.4877 -0.2022 -0.0035
   43CLA    CLA  152   4.000   4.791   4.355 -0.2585  0.2005 -0.1025
   44CLA    CLA  153   4.094   2.449   0.507 -0.1037 -0.4446 -0.2088
   45CLA    CLA  154   4.693   2.521   3.301  0.4449 -0.0297  0.6467
   46CLA    CLA  155   2.204   5.141   1.029  0.1921 -0.0785  0.0488
   47CLA    CLA  156   2.410   2.094   1.308 -0.1388  0.1721  0.1087
   48CLA    CLA  157   0.927   4.722   2.872  0.2636  0.1201 -0.1094
   49CLA    CLA  158   5.483   1.228   0.454  0.4541 -0.3181 -0.3057
   50CLA    CLA  159   4.917   5.339   1.556  0.0396  0.1205 -0.0900
   51CLA    CLA  160   4.731   1.385   2.624 -0.3381  0.2250  0.4698
   52TIP3   OH2  161   2.605   3.424   4.209 -0.2835  0.6041 -0.5678
   52TIP3    H1  162   2.677   3.388   4.157 -1.2057 -0.2560 -1.2777
   52TIP3    H2  163   2.556   3.347   4.237 -0.8308  1.1775  0.0527
   53TIP3   OH2  164   1.055   3.159   3.967 -0.4104 -0.1755  0.2312
   53TIP3    H1  165   1.116   3.233   3.967 -1.4447  0.7239 -0.8580
   53TIP3    H2  166   1.008   3.168   3.884 -1.4614 -1.3127  0.6839
   54TIP3   OH2  167   1.904   0.729   1.623 -0.1571  0.2693  0.5823
   54TIP3    H1  168   1.975   0.776   1.666  0.6039 -0.3069 -0.0244
   54TIP3    H2  169   1.917   0.745   1.530 -0.2295 -0.6591  0.4045
   55TIP3   OH2  170   0.525   3.425   2.591  0.5838  0.4874 -0.4713
   55TIP3    H1  171   0.580   3.479   2.648  0.6772  0.5195 -0.5920
   55TIP3    H2  172   0.586   3.384   2.531  0.6507 -0.7001  0.3731
   56TIP3   OH2  173   5.632   5.632   1.755  0.8347 -0.2437 -0.9758
   56TIP3    H1  174   5.691   5.655   1.684  0.7866 -1.9281 -1.6033
   56TIP3    H2  175   5.666   5.549   1.789  0.0222 -0.1885  0.0298
   57TIP3   OH2  176   4.945   5.092   4.168 -0.1621 -0.6652 -0.1791
   57TIP3    H1  177   4.887   5.044   4.227  0.6691  0.9811  2.1507
   57TIP3    H2  178   5.033   5.073   4.200  0.2741  0.9199 -0.3512
   58TIP3   OH2  179   4.960   3.278   2.103 -0.0977 -0.0742 -0.0920
   58TIP3    H1  180   4.884   3.336   2.110  0.2983  0.3717  0.5742
   58TIP3    H2  181   5.025   3.315   2.163  0.0073 -1.4635  0.6908
   59TIP3   OH2  182   5.179   5.477   1.448 -0.5990  0.7992  0.2243
   59TIP3    H1  183   5.237   5.458   1.521 -0.9180  1.2712  0.6025
   59TIP3    H2  184   5.099   5.428   1.466  0.3683 -1.5381 -1.3174
   60TIP3   OH2  185   4.732   3.075   4.300  0.0862 -0.0822  0.1700
   60TIP3    H1  186   4.639   3.055   4.312 -0.5081  2.4938  0.3058
   60TIP3    H2  187   4.777   3.003   4.345 -1.7799 -1.8132 -0.5724
   61TIP3   OH2  188   2.786   3.740   2.179  0.8119 -0.0134 -0.6279
   61TIP3    H1  189   2.699   3.716   2.148  0.9325 -0.5335 -0.5774
   61TIP3    H2  190   2.827   3.784   2.104  0.1879  1.0527 -0.3523
   62TIP3   OH2  191   4.888   4.820   3.024 -0.4131 -0.0127  0.2103
   62TIP3    H1  192   4.857   4.744   2.975 -1.5920 -1.0773  2.4633
   62TIP3    H2  193   4.843   4.814   3.109 -0.1127  2.9039  0.6715
   63TIP3   OH2  194  -0.014   4.732   3.293  0.1927 -0.0123  0.4919
   63TIP3    H1  195   0.028   4.766   3.372 -0.3598  1.0891  0.3325
   63TIP3    H2  196   0.018   4.642   3.285  2.9795  0.9422  0.0378
   64TIP3   OH2  197   0.178   1.544   0.243  0.2401  0.1995  0.2829
   64TIP3    H1  198   0.157   1.530   0.335 -0.2537 -0.8300  0.0359
   64TIP3    H2  199   0.260   1.498   0.229  0.3597  0.4272  0.2234
   65TIP3   OH2  200   4.554   3.783   0.846  0.2046 -0.5020 -0.5237
   65TIP3    H1  201   4.616   3.822   0.908 -0.0358 -1.4843  0.3699
   65TIP3    H2  202   4.590   3.803   0.760  0.9743  0.2091 -0.0563
   66TIP3   OH2  203   2.364   4.921   0.231  0.5276  0.4221  0.0574
   66TIP3    H1  204   2.291   4.969   0.193 -0.0877  0.0529  0.7542
   66TIP3    H2  205   2.407   4.879   0.157  0.4305  1.1601 -0.4342
   67TIP3   OH2  206   5.780   2.051   3.089 -0.3450 -0.3101  0.3070
   67TIP3    H1  207   5.824   2.010   3.164 -0.5964 -1.2384 -0.0389
   67TIP3    H2  208   5.828   2.132   3.075 -0.3772 -0.0523  1.5589
   68TIP3   OH2  209   5.117   4.930   3.779 -0.3166  0.1573 -0.4328
   68TIP3    H1  210   5.116   4.891   3.867  2.3901  0.4946 -0.1527
   68TIP3    H2  211   5.141   4.858   3.721 -1.8486 -0.0056 -0.9107
   69TIP3   OH2  212   1.714   3.150   2.710 -0.2874 -1.1158 -0.4026
   69TIP3    H1  213   1.637   3.093   2.714 -0.0522 -1.4386 -0.3846
   69TIP3    H2  214   1.776   3.111   2.772  0.0413 -1.0983 -0.7147
   70TIP3   OH2  215   0.922   2.803   3.634 -0.2403 -0.3707  0.3712
   70TIP3    H1  216   0.952   2.731   3.579 -1.6526 -0.5910 -0.1647
   70TIP3    H2  217   0.907   2.876   3.574 -0.2958 -0.1169  0.6857
   71TIP3   OH2  218   1.796   1.569   2.469 -0.3142  0.3911 -0.9483
   71TIP3    H1  219   1.750   1.651   2.449 -2.1830 -0.6285 -1.0077
   71TIP3    H2  220   1.732   1.516   2.515  0.8203 -1.1312 -1.0532
   72TIP3   OH2  221   4.241   3.851   1.259 -0.6953 -0.2376 -0.0378
   72TIP3    H1  222   4.222   3.761   1.285  2.3641 -0.5226  1.7800
   72TIP3    H2  223   4.279   3.843   1.172 -1.3120 -0.5921 -0.2775
   73TIP3   OH2  224   1.874   5.691   1.172 -0.0751  0.3179  0.1084
   73TIP3    H1  225   1.967   5.714   1.178 -0.2182  0.5147  2.2187
   73TIP3    H2  226   1.829   5.766   1.208 -1.0657  0.0648 -0.5665
   74TIP3   OH2  227   5.706   5.782   0.055 -0.3673 -0.5425 -0.1033
   74TIP3    H1  228   5.614   5.758   0.066  0.3659 -3.5674  0.1178
   74TIP3    H2  229   5.725   5.766  -0.038 -0.4377  1.7922 -0.5847
   75TIP3   OH2  230   3.562   5.615   4.253 -0.1777 -0.5422 -0.5626
   75TIP3    H1  231   3.609   5.684   4.300 -0.4113 -0.9707  0.3289
   75TIP3    H2  232   3.584   5.629   4.161  2.1911 -1.0960 -0.1225
   76TIP3   OH2  233   1.429   5.379   2.906 -0.0058  0.2184  0.2282
   76TIP3    H1  234   1.452   5.405   2.817 -1.3333  0.5657 -0.0263
   76TIP3    H2  235   1.413   5.461   2.952  0.3295  0.0255  0.7031
   77TIP3   OH2  236   6.325   0.902   0.058 -0.4665  0.6901  0.2932
   77TIP3    H1  237   6.403   0.953   0.080  1.1973 -1.7326  0.2885
   77TIP3    H2  238   6.291   0.873   0.142  0.2805 -0.5356  0.1948
   78TIP3   OH2  239   0.462   3.690   2.999 -0.1197 -0.4274 -0.1941
   78TIP3    H1  240   0.445   3.609   2.952 -0.2734  0.1428 -1.1393
   78TIP3    H2  241   0.391   3.749   2.972  0.7759  0.4749 -0.6126
   79TIP3   OH2  242   3.537   4.913   1.967 -0.4284 -0.1235  0.1300
   79TIP3    H1  243   3.600   4.923   1.895 -0.2149  0.4500  0.3886
   79TIP3    H2  244   3.452   4.912   1.924 -0.2999  0.2113 -0.1350
   80TIP3   OH2  245   3.875   3.191   0.407 -0.4823 -0.3111  0.2586
   80TIP3    H1  246   3.964   3.176   0.438 -0.4094 -1.3327 -0.4141
   80TIP3    H2  247   3.842   3.261   0.464  0.8678  0.3605  0.2696
   81TIP3   OH2  248   4.305   5.391   5.066 -0.1235  0.0533 -0.0228
   81TIP3    H1  249   4.307   5.484   5.045  0.1531 -0.1318 -0.8452
   81TIP3    H2  250   4.304   5.388   5.162  2.3179  0.8680  0.0797
   82TIP3   OH2  251   0.349   3.856   1.576 -0.0771  0.5649  0.3109
   82TIP3    H1  252   0.345   3.944   1.614 -0.9021  0.8415 -0.4107
   82TIP3    H2  253   0.309   3.800   1.642  1.3562  0.5546  1.2223
   83TIP3   OH2  254   5.361   3.848   4.767  0.2058 -0.0136 -0.1275
   83TIP3    H1  255   5.416   3.924   4.748  0.4159 -0.3345 -0.8301
   83TIP3    H2  256   5.398   3.777   4.715 -0.4884 -0.3943 -0.1266
   84TIP3   OH2  257   4.128   5.151   2.987 -0.3009 -0.1105 -0.2197
   84TIP3    H1  258   4.095   5.142   3.076 -1.0922 -0.5970 -0.5515
   84TIP3    H2  259   4.174   5.069   2.969  1.6484  0.7748  0.4357
   85TIP3   OH2  260   1.362   2.968   2.208 -0.2886  0.0289  0.2040
   85TIP3    H1  261   1.363   3.037   2.274  0.3173  0.6436 -0.4233
   85TIP3    H2  262   1.278   2.980   2.163  0.3744  1.2325 -0.7690
   86TIP3   OH2  263   4.868   3.349   1.778 -0.0485 -0.4518 -0.2783
   86TIP3    H1  264   4.896   3.429   1.821  0.6441  0.8896 -2.9962
   86TIP3    H2  265   4.794   3.318   1.830 -0.5499  2.1325  0.6843
   87TIP3   OH2  266   4.457   3.111   0.332 -0.4760 -0.0973 -0.6364
   87TIP3    H1  267   4.414   3.027   0.316 -2.9428  1.2828 -2.0456
   87TIP3    H2  268   4.388   3.176   0.316  0.5782  2.1624  2.8285
   88TIP3   OH2  269   4.870   1.770   3.713  0.1710 -0.3371 -0.0782
   88TIP3    H1  270   4.827   1.798   3.794  2.0825  0.6233  0.6581
   88TIP3    H2  271   4.910   1.849   3.678  1.1341 -1.1430 -0.8509
   89TIP3   OH2  272   0.660   5.628   2.871 -0.0342 -0.2779 -0.1686
   89TIP3    H1  273   0.707   5.564   2.925  0.5665  0.7425  0.5584
   89TIP3    H2  274   0.711   5.635   2.791  0.1986 -0.3159 -0.0236
   90TIP3   OH2  275   6.170   2.424   5.137 -0.4953 -0.0816  0.9803
   90TIP3    H1  276   6.144   2.480   5.210  0.5568 -0.2546  1.5146
   90TIP3    H2  277   6.259   2.396   5.159 -0.0245  0.1187 -0.5341
   91TIP3   OH2  278   5.157   4.858   1.452  0.1845 -0.1202  0.2114
   91TIP3    H1  279   5.250   4.862   1.473  0.2241 -1.1343  0.2842
   91TIP3    H2  280   5.155   4.857   1.356  0.2286  0.2163  0.2055
   92TIP3   OH2  281   2.593   3.066   3.944  0.0475  0.2974  0.3376
   92TIP3    H1  282   2.565   2.996   4.003  0.1854  0.0048  0.0609
   92TIP3    H2  283   2.527   3.067   3.875  0.6308 -0.2976 -0.2407
   93TIP3   OH2  284   4.442   1.994   2.126 -0.2114 -0.4178 -0.3974
   93TIP3    H1  285   4.495   2.008   2.047  2.1636  1.9011  1.4154
   93TIP3    H2  286   4.505   1.997   2.198 -2.2684 -2.4536  1.6581
   94TIP3   OH2  287   0.606   1.977   2.875  0.1576  0.6043  0.6715
   94TIP3    H1  288   0.620   1.964   2.968 -0.1907  1.0749  0.7911
   94TIP3    H2  289   0.679   1.931   2.833  0.6564  0.9117  1.1947
   95TIP3   OH2  290   3.433   0.759   3.908  0.3415 -0.4144  0.0087
   95TIP3    H1  291   3.351   0.737   3.952  0.6646  0.8700  1.3401
   95TIP3    H2  292   3.424   0.723   3.820 -1.9806  0.3337 -0.1171
   96TIP3   OH2  293   5.959   2.856   3.118  0.3796 -0.2574  0.3478
   96TIP3    H1  294   5.878   2.902   3.140  0.1394 -0.1615 -0.6721
   96TIP3    H2  295   6.024   2.926   3.109 -0.0405 -0.0494 -1.4455
   97TIP3   OH2  296   3.345   4.271   2.608  0.2375  0.1947 -0.0905
   97TIP3    H1  297   3.288   4.346   2.620  0.8694  0.4514  1.5637
   97TIP3    H2  298   3.298   4.198   2.648  0.8882  0.3551  1.0409
   98TIP3   OH2  299   3.274   3.959   2.625  0.2295  0.4837 -0.7282
   98TIP3    H1  300   3.257   3.972   2.531  1.2847  1.1503 -0.8387
   98TIP3    H2  301   3.332   3.883   2.628  0.3105  0.5504 -0.6252
   99TIP3   OH2  302   5.559   1.330   0.174 -0.7206  0.0930  0.2956
   99TIP3    H1  303   5.554   1.413   0.220  1.6589 -0.8017  2.4276
   99TIP3    H2  304   5.535   1.265   0.240  0.1808 -1.0736 -0.4836
  100TIP3   OH2  305   2.520   2.041   4.898 -0.2087  0.3019 -0.3512
  100TIP3    H1  306   2.536   1.950   4.873 -1.9801 -0.0307 -0.3899
  100TIP3    H2  307   2.486   2.082   4.818  1.5357  1.3099 -0.6373
  101TIP3   OH2  308   1.849   3.982   4.583  0.1103 -0.2867  0.2551
  101TIP3    H1  309   1.793   3.920   4.629 -0.4519 -0.8831 -1.1930
  101TIP3    H2  310   1.801   4.064   4.585 -0.0021 -0.3573  0.5443
  102TIP3   OH2  311   4.828   2.961   1.461 -0.1290  0.3388 -0.0929
  102TIP3    H1  312   4.772   3.012   1.520  0.4538  0.3128  0.4917
  102TIP3    H2  313   4.859   2.888   1.514 -0.2464 -0.1369 -0.6713
  103TIP3   OH2  314   3.366   5.262   1.034  0.2778 -0.0421 -0.4973
  103TIP3    H1  315   3.334   5.317   0.963  0.8627 -0.1152 -0.8253
  103TIP3    H2  316   3.436   5.210   0.995 -0.1729 -0.9298 -0.1563
  104TIP3   OH2  317   1.609   5.130   1.754  0.4124 -0.8370  0.0848
  104TIP3    H1  318   1.572   5.057   1.703 -2.4422  0.3964  0.1925
  104TIP3    H2  319   1.629   5.092   1.839  0.2581 -1.7794 -0.2863
  105TIP3   OH2  320   5.763   2.778   1.205  0.1659  0.1646 -0.1367
  105TIP3    H1  321   5.722   2.745   1.125  1.6450 -1.4483 -0.2895
  105TIP3    H2  322   5.806   2.859   1.178  1.6447 -0.9484 -1.3301
  106TIP3   OH2  323   1.242   5.665   2.059  0.0372 -0.0698 -0.0177
  106TIP3    H1  324   1.329   5.648   2.022  0.6117 -1.1261  1.6946
  106TIP3    H2  325   1.228   5.759   2.046  2.1345  0.4511  0.9857
  107TIP3   OH2  326   1.659   3.764   1.230  0.2329 -1.0395  0.3068
  107TIP3    H1  327   1.713   3.709   1.173  0.2777 -0.5579 -0.1279
  107TIP3    H2  328   1.691   3.745   1.319  0.9555 -0.9521  0.0772
  108TIP3   OH2  329   0.780   1.317   0.879 -0.3748  0.3708  0.3395
  108TIP3    H1  330   0.854   1.329   0.939 -0.6786  1.6756  0.4780
  108TIP3    H2  331   0.789   1.227   0.848  1.1180  0.4230  0.5486
  109TIP3   OH2  332   2.324   4.123   3.246 -0.1596 -0.1984 -0.1376
  109TIP3    H1  333   2.238   4.165   3.256  0.1082  0.6453 -1.2251
  109TIP3    H2  334   2.316   4.041   3.295 -1.3847  0.1505  0.2860
  110TIP3   OH2  335   1.183   4.638   1.276  0.0194 -0.4296 -0.0685
  110TIP3    H1  336   1.244   4.565   1.268 -0.4892 -1.1366  1.9016
  110TIP3    H2  337   1.097   4.599   1.261 -0.0571  0.4571 -2.3107
  111TIP3   OH2  338   1.490   3.575   2.973  0.8911 -0.1088  0.0107
  111TIP3    H1  339   1.480   3.482   2.955  0.0594 -0.0245  0.0278
  111TIP3    H2  340   1.581   3.594   2.950  1.1322 -0.9689  0.2145
  112TIP3   OH2  341   1.875   5.035   1.370 -0.1915 -0.0746  0.0223
  112TIP3    H1  342   1.898   5.098   1.301  0.0665 -0.7596 -0.5207
  112TIP3    H2  343   1.780   5.026   1.364 -0.4875  1.5730  1.2533
  113TIP3   OH2  344   5.850   2.271   0.712 -0.0200 -0.2480  0.1172
  113TIP3    H1  345   5.940   2.284   0.681 -0.4360 -0.7867 -1.4238
  113TIP3    H2  346   5.805   2.351   0.688 -0.1312 -0.2802  0.2182
  114TIP3   OH2  347   1.464   4.457   0.502  0.0102  0.4705 -0.1626
  114TIP3    H1  348   1.556   4.430   0.502 -0.2566 -0.4566 -0.2124
  114TIP3    H2  349   1.436   4.450   0.411 -0.5356 -0.7524  0.0878
  115TIP3   OH2  350   0.481   5.908   4.993 -0.0816  0.2442 -0.2504
  115TIP3    H1  351   0.457   5.828   5.039 -3.4565  0.7093 -0.9951
  115TIP3    H2  352   0.496   5.880   4.903  0.8726  0.1789 -0.0838
  116TIP3   OH2  353   5.618   5.762   2.385  0.3440 -0.2502  0.5524
  116TIP3    H1  354   5.530   5.735   2.357  0.6017  0.8727 -1.5896
  116TIP3    H2  355   5.604   5.847   2.426  0.6338  1.2875 -2.2961
  117TIP3   OH2  356   0.404   1.441   0.613  0.3373 -0.5677 -0.4378
  117TIP3    H1  357   0.452   1.417   0.534  1.7479 -0.9029  0.4917
  117TIP3    H2  358   0.467   1.428   0.685 -0.2540  1.5633  0.5615
  118TIP3   OH2  359   2.141   2.940   2.485  0.4222 -0.1971  0.0003
  118TIP3    H1  360   2.095   3.024   2.473  2.3951  0.9548  0.1314
  118TIP3    H2  361   2.147   2.904   2.397  2.3181  1.3731 -0.5859
  119TIP3   OH2  362   1.022   0.406   4.680 -0.3130  0.3203  0.3873
  119TIP3    H1  363   0.997   0.433   4.768 -1.7168  1.0815 -0.2176
  119TIP3    H2  364   0.960   0.451   4.623  1.0217  0.4060 -1.0452
  120TIP3   OH2  365   5.232   0.807   2.045  0.1916  0.0889  0.3415
  120TIP3    H1  366   5.231   0.712   2.057  0.5354 -0.1174 -1.1405
  120TIP3    H2  367   5.154   0.837   2.093  0.7411 -0.7788  1.8646
  121TIP3   OH2  368   0.853   5.930   5.095  0.1605  0.6579  0.3989
  121TIP3    H1  369   0.836   5.952   5.004 -1.3637  1.7396  0.9001
  121TIP3    H2  370   0.825   6.008   5.144 -0.0693 -0.3046  1.8612
  122TIP3   OH2  371   1.729   2.474   3.143 -0.0154  0.0044  0.5891
  122TIP3    H1  372   1.670   2.433   3.079  1.6579 -0.7738 -0.5054
  122TIP3    H2  373   1.813   2.481   3.098  1.2041 -0.4700  2.6621
  123TIP3   OH2  374   2.320   0.760   4.919  0.0574  0.0311 -0.1829
  123TIP3    H1  375   2.398   0.815   4.920  1.2131 -1.4894 -1.4547
  123TIP3    H2  376   2.352   0.673   4.894 -2.1175 -0.5261 -1.2945
  124TIP3   OH2  377   0.563   0.425   3.598 -0.1222  0.0038  0.3978
  124TIP3    H1  378   0.630   0.493   3.595 -1.5017  1.4848  1.1870
  124TIP3    H2  379   0.480   0.474   3.603 -1.1002 -1.7137  2.6399
  125TIP3   OH2  380   1.240   4.078   0.604 -0.0682  0.7172 -0.0131
  125TIP3    H1  381   1.295   4.000   0.594 -0.3245  0.4696  0.5205
  125TIP3    H2  382   1.150   4.045   0.601 -0.1867  1.0605 -0.3509
  126TIP3   OH2  383   4.311   3.661   0.778 -0.2261 -0.3181  0.4119
  126TIP3    H1  384   4.387   3.677   0.834  0.1938  1.1805 -0.5282
  126TIP3    H2  385   4.294   3.567   0.786  2.2219 -0.8437  0.0437
  127TIP3   OH2  386   4.949   3.328   3.551 -0.3368  0.0967  0.3744
  127TIP3    H1  387   5.031   3.371   3.575  0.4315 -1.0948  0.0231
  127TIP3    H2  388   4.908   3.307   3.635  0.7773 -1.1757  0.6560
  128TIP3   OH2  389   5.178   3.225   1.003  0.1638  0.4635 -0.0089
  128TIP3    H1  390   5.086   3.206   1.021 -0.2241 -0.4530 -2.6047
  128TIP3    H2  391   5.176   3.300   0.944  1.0524  0.0324 -0.6022
  129TIP3   OH2  392   5.043   5.157   2.470 -0.4230 -0.0345  1.0517
  129TIP3    H1  393   4.957   5.116   2.461 -0.9788  1.0784  1.2311
  129TIP3    H2  394   5.059   5.200   2.386 -0.2625  0.1877  1.1938
  130TIP3   OH2  395   1.676   5.727   0.132 -0.2325  0.1079  0.3138
  130TIP3    H1  396   1.611   5.786   0.170 -0.0166  0.0717  0.7493
  130TIP3    H2  397   1.756   5.743   0.183 -0.2828 -0.8540  0.7173
  131TIP3   OH2  398   2.300   3.004   4.885  0.2901  0.2237 -0.3133
  131TIP3    H1  399   2.207   3.002   4.866 -0.1637 -0.5454  1.7235
  131TIP3    H2  400   2.330   3.089   4.853 -1.0916  0.4411 -1.0681
  132TIP3   OH2  401   5.444   3.313   2.213 -0.0603 -0.6791  0.5897
  132TIP3    H1  402   5.411   3.286   2.127  0.7662  1.1932 -0.3555
  132TIP3    H2  403   5.458   3.407   2.205 -1.6072 -0.1092  3.3505
  133TIP3   OH2  404   1.370   2.497   3.912 -0.2747 -0.1002 -0.1469
  133TIP3    H1  405   1.414   2.566   3.960  0.2126 -0.3141 -0.2773
  133TIP3    H2  406   1.278   2.506   3.935 -0.0054 -0.4233  1.0994
  134TIP3   OH2  407   5.725   2.480   1.696 -0.1672  0.1923 -0.6333
  134TIP3    H1  408   5.810   2.440   1.677  0.6301  1.3611  0.2885
  134TIP3    H2  409   5.744   2.542   1.767 -1.9292 -0.0325  0.0724
  135TIP3   OH2  410   3.999   1.038   3.464 -0.2798  0.0587  0.2003
  135TIP3    H1  411   4.084   1.033   3.421 -0.4059  0.8930 -0.1661
  135TIP3    H2  412   4.018   1.069   3.553 -0.3581  2.5251 -0.5654
  136TIP3   OH2  413   2.294   1.297   0.648 -0.5540 -0.3651 -0.1635
  136TIP3    H1  414   2.333   1.384   0.656  1.1518 -1.1774  1.3265
  136TIP3    H2  415   2.214   1.310   0.598 -1.6559  2.4469  2.0625
  137TIP3   OH2  416   2.640   3.838   4.982 -0.0630  0.0067 -0.0700
  137TIP3    H1  417   2.549   3.841   5.012 -0.4465 -0.3216 -1.1555
  137TIP3    H2  418   2.670   3.929   4.986 -0.5865  0.1846 -0.1480
  138TIP3   OH2  419   1.601   2.695   1.766 -0.3005 -0.3017 -0.4394
  138TIP3    H1  420   1.519   2.647   1.776  0.5044 -2.1798 -2.1259
  138TIP3    H2  421   1.668   2.638   1.805  0.4024  0.5743 -0.3163
  139TIP3   OH2  422   6.146   3.182   3.911  0.4287 -0.2860 -0.1594
  139TIP3    H1  423   6.238   3.171   3.890  0.4050  0.6499 -0.8507
  139TIP3    H2  424   6.104   3.103   3.879  0.9937 -0.7587  0.2417
  140TIP3   OH2  425   5.967   4.446   0.360 -0.0228 -0.0728  0.0063
  140TIP3    H1  426   5.876   4.474   0.353  0.2712  1.6308  1.8632
  140TIP3    H2  427   5.964   4.366   0.413 -0.4774 -0.4192 -0.5396
  141TIP3   OH2  428   3.469   2.956   4.143 -0.0951 -0.2530 -0.2955
  141TIP3    H1  429   3.460   2.866   4.113 -2.2484  0.1325 -0.9532
  141TIP3    H2  430   3.463   2.950   4.238  2.7019 -1.0500 -0.0806
  142TIP3   OH2  431   2.252   4.620   2.338 -0.0534  0.0034  0.1656
  142TIP3    H1  432   2.342   4.615   2.372 -1.1463 -1.0721  3.2117
  142TIP3    H2  433   2.212   4.538   2.364 -2.5867  1.4206  1.0491
  143TIP3   OH2  434   3.662   4.961   1.710  0.3225  0.8026  0.1483
  143TIP3    H1  435   3.748   4.922   1.728  0.4510  1.4577  1.0173
  143TIP3    H2  436   3.606   4.887   1.687  1.4079  0.4949 -1.6105
  144TIP3   OH2  437   4.585   4.171   3.796 -0.0841 -0.1196  0.7939
  144TIP3    H1  438   4.558   4.231   3.727  0.9313  0.8461  1.2000
  144TIP3    H2  439   4.554   4.211   3.877 -0.4614 -0.7774  0.9856
  145TIP3   OH2  440   1.817   4.025   3.800  0.8098  0.1400  0.5838
  145TIP3    H1  441   1.740   4.057   3.848  0.3331 -0.1713  0.0375
  145TIP3    H2  442   1.887   4.086   3.824  0.1454  1.0383  0.2857
  146TIP3   OH2  443   2.836   1.117   4.046  0.5502  0.3238  0.3005
  146TIP3    H1  444   2.826   1.212   4.046  1.0979  0.3897 -0.1443
  146TIP3    H2  445   2.860   1.095   4.136  2.7651  0.8893 -0.0937
  147TIP3   OH2  446   4.905   2.172   2.004 -0.1279  0.1447  0.1850
  147TIP3    H1  447   4.985   2.184   1.952 -0.4080 -0.5413 -0.4331
  147TIP3    H2  448   4.856   2.105   1.956 -1.5877  1.3193 -0.0531
  148TIP3   OH2  449   1.668   2.573   0.239 -0.9032  0.1285 -0.1074
  148TIP3    H1  450   1.658   2.583   0.144 -0.7653 -0.4857 -0.1934
  148TIP3    H2  451   1.698   2.483   0.250  1.2236  0.8501  0.3630
  149TIP3   OH2  452   2.014   0.049   3.282 -0.1207 -0.2489 -0.4210
  149TIP3    H1  453   1.960   0.028   3.206  0.8540 -1.4854 -0.7942
  149TIP3    H2  454   2.103   0.055   3.247  0.4609 -1.6641  0.7273
  150TIP3   OH2  455   5.423   2.299   4.993 -0.2372  0.1381 -0.2522
  150TIP3    H1  456   5.430   2.390   5.022  1.7423 -0.5674  1.7835
  150TIP3    H2  457   5.444   2.302   4.900 -0.1713  1.7631 -0.2158
  151TIP3   OH2  458   0.170   0.502   3.815  0.0109  0.0593  0.2982
  151TIP3    H1  459   0.248   0.508   3.759  1.1692  0.2933  1.8931
  151TIP3    H2  460   0.110   0.568   3.779  1.0239  0.7295 -0.1960
  152TIP3   OH2  461   3.641   5.875   3.387 -0.0415 -0.4406 -0.3365
  152TIP3    H1  462   3.736   5.877   3.384  0.0381 -0.7537  1.0531
  152TIP3    H2  463   3.612   5.929   3.314  1.1960 -0.5089 -0.8869
  153TIP3   OH2  464   0.082   5.908   2.228 -0.1251 -0.3833  0.2938
  153TIP3    H1  465   0.033   5.839   2.272 -1.5453  1.5371  1.9450
  153TIP3    H2  466   0.118   5.961   2.299  3.0480 -0.7511 -0.8953
  154TIP3   OH2  467   4.468   1.650   0.545  0.4435 -0.0264 -1.0862
  154TIP3    H1  468   4.540   1.713   0.542 -0.8405  1.4967 -3.4386
  154TIP3    H2  469   4.422   1.662   0.461 -1.4041 -2.2968 -0.5069
  155TIP3   OH2  470   4.822   3.146   5.046 -0.1161  0.1837  0.5080
  155TIP3    H1  471   4.751   3.084   5.033  0.6228 -0.4552 -0.6288
  155TIP3    H2  472   4.790   3.206   5.113 -1.2352 -0.8242  0.8990
  156TIP3   OH2  473   5.240   4.648   3.311 -0.4706  0.3476  0.0968
  156TIP3    H1  474   5.179   4.590   3.356 -1.4708 -1.4113 -3.2374
  156TIP3    H2  475   5.185   4.703   3.256  0.7420  1.7804  0.2398
  157TIP3   OH2  476   3.480   3.616   1.723  0.7328 -0.5598  0.2858
  157TIP3    H1  477   3.410   3.583   1.779  0.5896  0.3524  0.6541
  157TIP3    H2  478   3.489   3.549   1.655 -0.1781 -0.9088  0.4899
  158TIP3   OH2  479   0.878   4.157   1.946 -0.0807 -0.0533  0.3784
  158TIP3    H1  480   0.900   4.230   2.004  0.3412  1.7170 -1.8589
  158TIP3    H2  481   0.782   4.160   1.940  0.0072  1.8223 -1.3613
  159TIP3   OH2  482   5.319   4.746   3.015 -0.0682  0.5473  0.2303
  159TIP3    H1  483   5.383   4.690   3.059  0.1574  0.8573  0.2997
  159TIP3    H2  484   5.301   4.703   2.932  2.7213  2.0987 -1.3175
  160TIP3   OH2  485   0.929   0.847   3.630 -0.3229  0.1572  0.0068
  160TIP3    H1  486   0.903   0.789   3.701 -0.4788  1.2049  0.8265
  160TIP3    H2  487   0.986   0.794   3.575 -1.8812 -1.3259 -0.2573
  161TIP3   OH2  488   5.213   3.948   3.073  0.3079  0.1122 -0.2997
  161TIP3    H1  489   5.273   3.924   3.143  0.7942 -0.5240 -0.9177
  161TIP3    H2  490   5.266   3.999   3.012 -0.1248  0.7117 -0.1771
  162TIP3   OH2  491   5.933   5.210   3.383 -0.0629  0.3257  0.3288
  162TIP3    H1  492   5.998   5.151   3.344  0.6414  0.5815  1.0791
  162TIP3    H2  493   5.855   5.156   3.393 -0.2513  0.2328 -1.3485
  163TIP3   OH2  494   2.759   3.079   3.590 -0.0372 -0.1805 -0.4971
  163TIP3    H1  495   2.755   3.005   3.530 -1.3614 -1.1428  0.7189
  163TIP3    H2  496   2.761   3.040   3.677 -3.6652  1.0742  0.3454
  164TIP3   OH2  497   6.178   2.522   4.368  0.3237 -0.1381  0.4187
  164TIP3    H1  498   6.165   2.612   4.338  1.7084 -0.0281  0.0619
  164TIP3    H2  499   6.179   2.528   4.463 -1.8274 -0.1442  0.4884
  165TIP3   OH2  500   4.550   5.195   3.562  0.2127 -0.1033  0.0517
  165TIP3    H1  501   4.633   5.150   3.582 -0.7716 -1.4235  1.3418
  165TIP3    H2  502   4.482   5.135   3.593 -1.2923  0.4271 -2.0398
  166TIP3   OH2  503   4.227   5.461   2.267 -0.0318  0.2692 -1.2541
  166TIP3    H1  504   4.318   5.448   2.240  0.2493  0.2636 -0.3559
  166TIP3    H2  505   4.218   5.556   2.275  0.1613  0.2328 -0.5099
  167TIP3   OH2  506   2.218   2.800   4.493 -0.1812  0.3333 -0.1076
  167TIP3    H1  507   2.140   2.821   4.545 -0.2320  1.3730 -0.5768
  167TIP3    H2  508   2.288   2.791   4.558  0.6816  5.5256  0.1468
  168TIP3   OH2  509   3.673   1.621   4.082 -0.2331 -0.0239 -0.2966
  168TIP3    H1  510   3.688   1.681   4.009  0.5129  0.5663  0.3181
  168TIP3    H2  511   3.751   1.566   4.083 -0.8441 -0.9084 -0.7563
  169TIP3   OH2  512   2.123   4.594   4.554  0.4387  0.2704 -0.0154
  169TIP3    H1  513   2.161   4.558   4.473  1.3307  1.7156 -0.2877
  169TIP3    H2  514   2.040   4.548   4.565  0.1949  0.1869 -1.8840
  170TIP3   OH2  515   0.595   4.159   2.323  0.3744  0.2079  1.2152
  170TIP3    H1  516   0.517   4.123   2.281  1.3479 -1.6705  0.9110
  170TIP3    H2  517   0.601   4.248   2.289 -0.1413 -0.4934 -0.8893
  171TIP3   OH2  518   4.006   1.163   3.960  0.5747 -0.1760 -0.1364
  171TIP3    H1  519   4.031   1.136   3.871  1.1777 -2.0793  0.5493
  171TIP3    H2  520   3.943   1.096   3.988  1.7783 -0.6758  1.5204
  172TIP3   OH2  521   0.857   5.057   1.845 -0.5111 -0.2389 -0.3084
  172TIP3    H1  522   0.831   5.003   1.770 -1.7501  0.5129 -0.4688
  172TIP3    H2  523   0.795   5.033   1.914 -0.4693  0.2890 -0.0837
  173TIP3   OH2  524   4.232   2.061   0.938 -0.4764  0.2170 -0.2219
  173TIP3    H1  525   4.173   2.049   0.863 -1.5426 -1.7906  0.8506
  173TIP3    H2  526   4.265   1.973   0.957  1.1451  0.9600  0.6038
  174TIP3   OH2  527   0.722   3.100   1.900  0.0491  0.0020  0.4896
  174TIP3    H1  528   0.748   3.101   1.992  0.8476 -0.1251  0.2664
  174TIP3    H2  529   0.790   3.149   1.854  0.8066 -1.7204 -0.3234
  175TIP3   OH2  530   3.115   4.987   1.458  0.2617 -0.2951 -0.5385
  175TIP3    H1  531   3.033   4.960   1.416  0.1015 -0.6280 -0.0221
  175TIP3    H2  532   3.182   4.933   1.415  0.1514 -0.3457 -0.6500
  176TIP3   OH2  533   5.181   2.342   2.864  0.0982 -0.3177  0.1295
  176TIP3    H1  534   5.109   2.281   2.851  0.8773 -0.9396 -1.4489
  176TIP3    H2  535   5.229   2.308   2.939 -0.6549 -0.4515  0.5623
  177TIP3   OH2  536   3.252   5.870   4.202 -0.1152  0.5628 -0.0320
  177TIP3    H1  537   3.258   5.912   4.288 -0.4551 -0.2907  0.4264
  177TIP3    H2  538   3.307   5.923   4.145  0.6879  0.7362  0.8827
  178TIP3   OH2  539   5.279   3.692   3.499 -0.0101  0.0241 -0.2234
  178TIP3    H1  540   5.240   3.614   3.540 -2.4625  0.3648 -1.6997
  178TIP3    H2  541   5.222   3.764   3.526  0.2789  0.7656 -1.5249
  179TIP3   OH2  542   5.288   3.497   5.207  0.4154  0.3452  0.0338
  179TIP3    H1  543   5.353   3.432   5.233  0.7234  0.8093  0.4313
  179TIP3    H2  544   5.290   3.495   5.111  1.7664  1.0912  0.0317
  180TIP3   OH2  545   4.348   1.410   4.584  0.3095 -0.3931 -0.1416
  180TIP3    H1  546   4.273   1.463   4.611 -1.1788 -1.9275 -1.1027
  180TIP3    H2  547   4.422   1.470   4.588 -0.9118  1.1194  1.0481
  181TIP3   OH2  548   5.387   5.520   1.079 -0.4406 -0.0338  0.2372
  181TIP3    H1  549   5.397   5.559   1.166  0.3805  0.1155  0.0839
  181TIP3    H2  550   5.455   5.562   1.026 -0.2443 -0.8995 -0.2054
  182TIP3   OH2  551   0.199   5.854   4.029  0.0526 -0.5346 -0.4295
  182TIP3    H1  552   0.122   5.910   4.042 -0.0863 -1.0108  0.8854
  182TIP3    H2  553   0.165   5.775   3.987 -0.2960 -1.0155  0.7339
  183TIP3   OH2  554   0.286   0.136   1.249 -0.3894  0.1778  0.0206
  183TIP3    H1  555   0.261   0.207   1.307 -0.8622  0.5573 -0.6365
  183TIP3    H2  556   0.364   0.098   1.289 -2.7349 -1.9762  2.9543
  184TIP3   OH2  557   2.381   2.301   4.260  0.1555 -0.0024  0.2695
  184TIP3    H1  558   2.445   2.372   4.251  0.5220 -0.2830  0.6407
  184TIP3    H2  559   2.336   2.298   4.176  1.3684 -0.5079 -0.3744
  185TIP3   OH2  560   4.971   3.940   3.687 -0.0844 -0.4544  0.1896
  185TIP3    H1  561   4.991   3.847   3.700  1.2729 -0.3926 -1.1428
  185TIP3    H2  562   5.051   3.977   3.650 -1.0477  0.9711 -0.5908
  186TIP3   OH2  563   3.164   3.508   4.107 -0.1343 -0.0273 -0.2776
  186TIP3    H1  564   3.093   3.529   4.045 -0.3398 -0.0583 -0.0548
  186TIP3    H2  565   3.196   3.422   4.078 -0.4479 -0.1920 -0.1472
  187TIP3   OH2  566   4.248   3.339   1.819 -0.4906 -0.3013 -0.0254
  187TIP3    H1  567   4.184   3.408   1.800  0.3056  0.3765 -0.3541
  187TIP3    H2  568   4.293   3.326   1.735  0.6984  0.2036  0.5116
  188TIP3   OH2  569   3.262   5.982   2.942 -0.5876  0.3419 -0.3153
  188TIP3    H1  570   3.177   6.002   2.903 -1.2058  2.0243  1.7324
  188TIP3    H2  571   3.257   5.890   2.967 -1.7810  0.4110 -0.2784
  189TIP3   OH2  572   1.199   0.892   2.533  0.3814 -0.4761 -0.7076
  189TIP3    H1  573   1.185   0.952   2.606  0.4568 -2.1183  0.7127
  189TIP3    H2  574   1.111   0.863   2.508  0.4394 -0.9180 -0.3971
  190TIP3   OH2  575   1.504   4.113   2.230  0.3114 -0.0826  0.3007
  190TIP3    H1  576   1.534   4.204   2.232  2.7779 -0.8553  1.1549
  190TIP3    H2  577   1.456   4.106   2.147 -0.4456  2.1150  0.4807
  191TIP3   OH2  578   4.879   5.872   3.367 -0.3431 -0.5324  0.0331
  191TIP3    H1  579   4.792   5.907   3.386 -0.2316  0.6256 -1.4473
  191TIP3    H2  580   4.871   5.830   3.282  0.7054  0.2731 -0.4913
  192TIP3   OH2  581   4.122   2.430   1.223 -0.0217 -0.6734  0.2791
  192TIP3    H1  582   4.181   2.501   1.197 -0.8448 -0.2482 -0.4872
  192TIP3    H2  583   4.167   2.350   1.198  1.0381 -0.4584  1.3900
  193TIP3   OH2  584   6.257   1.371   4.844  0.1491 -0.3225  0.1115
  193TIP3    H1  585   6.222   1.382   4.932  1.1485  0.1394  0.4677
  193TIP3    H2  586   6.206   1.299   4.806  0.7763 -1.6343  1.6399
  194TIP3   OH2  587   3.995   3.648   3.557 -0.4151 -0.6067 -0.1732
  194TIP3    H1  588   4.007   3.554   3.543  1.1449 -1.0743  3.2192
  194TIP3    H2  589   4.082   3.679   3.584 -0.7313  2.0142 -1.7976
  195TIP3   OH2  590   0.642   4.060   1.612 -0.3615 -0.5438  0.1189
  195TIP3    H1  591   0.691   3.994   1.662 -0.8667 -0.3075  0.9495
  195TIP3    H2  592   0.588   4.103   1.678 -0.4021  0.3676 -0.5066
  196TIP3   OH2  593   0.117   1.438   2.717 -0.2120 -0.0402  0.2166
  196TIP3    H1  594   0.197   1.491   2.718 -0.3553  0.1661  0.8436
  196TIP3    H2  595   0.090   1.439   2.625  0.9288 -0.7658 -0.1471
  197TIP3   OH2  596   1.320   1.551   0.049  0.3578 -0.0481  0.5853
  197TIP3    H1  597   1.380   1.490   0.090 -0.7121 -1.6369 -0.1282
  197TIP3    H2  598   1.369   1.588  -0.024  0.3839 -1.5729 -0.1935
  198TIP3   OH2  599   5.805   0.537   1.476  0.2321 -0.2455  0.6192
  198TIP3    H1  600   5.877   0.594   1.504 -0.6821  0.3717  1.8096
  198TIP3    H2  601   5.847   0.471   1.420  1.8191 -0.2839  1.7810
  199TIP3   OH2  602   5.094   0.535   5.190  0.1992 -0.3064 -0.5318
  199TIP3    H1  603   5.015   0.481   5.187  0.3395 -0.5553  0.2095
  199TIP3    H2  604   5.137   0.519   5.105 -0.0095 -0.9833 -0.5110
  200TIP3   OH2  605   2.451   0.358   1.089 -0.0165  0.1168 -0.6451
  200TIP3    H1  606   2.490   0.397   1.011 -0.9239  0.9101 -0.7151
  200TIP3    H2  607   2.521   0.304   1.127  0.4741 -0.1618 -1.9173
  201TIP3   OH2  608   5.104   5.307   3.218  0.4688  0.0296  0.1157
  201TIP3    H1  609   5.195   5.335   3.218  0.4361  0.1488 -0.4934
  201TIP3    H2  610   5.071   5.331   3.132 -0.3858  0.7594  0.6316
  202TIP3   OH2  611   1.984   3.310   1.272 -0.2612  0.1620  0.2208
  202TIP3    H1  612   1.900   3.280   1.307  0.5483 -3.3901 -0.4656
  202TIP3    H2  613   1.964   3.336   1.182 -0.7072 -0.3888  0.1506
  203TIP3   OH2  614   1.117   1.491   0.551 -0.1471  0.1466 -0.6975
  203TIP3    H1  615   1.193   1.447   0.590 -2.6300 -1.7592  2.5039
  203TIP3    H2  616   1.097   1.439   0.473  0.3379 -0.9652 -0.1133
  204TIP3   OH2  617   5.305   1.036   0.289 -0.2615 -0.0300  0.2142
  204TIP3    H1  618   5.362   1.097   0.336 -0.3845  0.6269 -0.4603
  204TIP3    H2  619   5.262   1.091   0.222 -1.4917 -0.5480  0.5453
  205TIP3   OH2  620   1.667   3.308   2.332  0.0295 -0.1251 -0.1087
  205TIP3    H1  621   1.605   3.258   2.385  0.0490 -0.3725 -0.3176
  205TIP3    H2  622   1.625   3.315   2.246 -0.6754  1.5425  0.3285
  206TIP3   OH2  623   0.912   3.989   2.825 -0.0317  0.2278  0.2645
  206TIP3    H1  624   0.988   4.013   2.773  0.7078 -0.0160  1.2217
  206TIP3    H2  625   0.927   4.027   2.911 -1.6536  1.3747  0.0955
  207TIP3   OH2  626   3.855   5.201   5.027  0.4763  0.2958  0.0867
  207TIP3    H1  627   3.878   5.283   5.070  1.1117 -0.0471  0.4132
  207TIP3    H2  628   3.937   5.153   5.021 -0.0339 -0.6911  0.6998
  208TIP3   OH2  629   4.498   2.405   1.405  0.0940  0.1634 -0.5376
  208TIP3    H1  630   4.569   2.458   1.442  0.2184 -1.1123  1.1581
  208TIP3    H2  631   4.426   2.415   1.467 -0.0358 -1.2624 -0.4476
  209TIP3   OH2  632   1.920   5.508   2.976  0.9590 -0.2439 -0.2860
  209TIP3    H1  633   1.934   5.597   3.010  0.7949 -0.4479  0.3378
  209TIP3    H2  634   1.906   5.455   3.055  0.1468 -0.6618 -0.6997
  210TIP3   OH2  635   5.874   1.510   4.847  0.1740 -0.1735 -0.5996
  210TIP3    H1  636   5.951   1.567   4.852 -0.0479  0.4588 -3.1803
  210TIP3    H2  637   5.804   1.567   4.815 -0.4767 -1.4917 -1.6298
  211TIP3   OH2  638   5.004   1.536   1.957 -0.2003  0.3683 -0.1671
  211TIP3    H1  639   4.958   1.520   2.039  1.9563 -0.0702  1.0209
  211TIP3    H2  640   4.939   1.516   1.889 -1.2367 -2.0203  1.3873
  212TIP3   OH2  641   3.333   1.218   4.322 -0.5874 -0.2078 -0.4719
  212TIP3    H1  642   3.382   1.255   4.396  0.0127  0.3184 -1.1264
  212TIP3    H2  643   3.352   1.124   4.326 -0.6832 -0.2094  0.1249
  213TIP3   OH2  644   4.592   1.454   1.529 -0.0347 -0.1326 -0.0919
  213TIP3    H1  645   4.599   1.548   1.548 -1.4309 -0.0212  0.0093
  213TIP3    H2  646   4.515   1.426   1.579 -0.2697 -1.0950 -0.9663
  214TIP3   OH2  647   3.852   3.006   3.224  0.0861  0.0343 -0.4276
  214TIP3    H1  648   3.828   3.090   3.264  1.2120  0.2801 -0.2452
  214TIP3    H2  649   3.893   2.956   3.295  0.3112 -0.2910 -0.7827
  215TIP3   OH2  650   3.996   0.460   4.530  0.2581  0.4496  0.2141
  215TIP3    H1  651   3.927   0.411   4.485  0.9233  0.8582 -1.3083
  215TIP3    H2  652   4.066   0.396   4.545  0.5423  0.5948 -0.4736
  216TIP3   OH2  653   3.256   4.599   1.213 -0.0741 -0.1507 -0.1816
  216TIP3    H1  654   3.321   4.567   1.276 -1.3656 -0.2755  1.1249
  216TIP3    H2  655   3.194   4.527   1.205 -0.9401  0.5782 -0.1461
  217TIP3   OH2  656   0.148   3.193   2.864 -0.0440 -0.2735  0.3041
  217TIP3    H1  657   0.175   3.263   2.924 -0.2044 -1.2580  1.5692
  217TIP3    H2  658   0.221   3.186   2.802  0.6131  0.0756  1.0147
  218TIP3   OH2  659   1.132   0.242   0.993  0.2696 -0.0919  0.5154
  218TIP3    H1  660   1.160   0.323   0.950 -0.7488  0.3257  0.6134
  218TIP3    H2  661   1.080   0.271   1.068 -0.6102 -0.8389  0.2107
  219TIP3   OH2  662   1.325   1.761   1.898  0.0476  0.1933  0.0419
  219TIP3    H1  663   1.260   1.695   1.874  0.5664 -0.0602 -0.7226
  219TIP3    H2  664   1.275   1.830   1.941 -0.5941 -0.4124  0.2914
  220TIP3   OH2  665   6.010   2.797   0.035 -0.1409  0.5639 -0.1488
  220TIP3    H1  666   5.959   2.877   0.044 -0.9042  0.0696  0.0350
  220TIP3    H2  667   5.972   2.737   0.099 -1.4080 -0.8612 -2.1080
  221TIP3   OH2  668   3.590   4.190   2.177  0.5917 -0.0810 -0.3142
  221TIP3    H1  669   3.520   4.217   2.237  0.7593 -0.2151 -0.0578
  221TIP3    H2  670   3.670   4.222   2.218  0.6415  0.5304 -0.8640
  222TIP3   OH2  671   2.607   4.719   0.368 -0.0980  0.0327 -0.2107
  222TIP3    H1  672   2.529   4.679   0.331 -0.0636 -0.4164  0.1889
  222TIP3    H2  673   2.621   4.672   0.451  0.8188 -0.1727 -0.4713
  223TIP3   OH2  674   6.068   5.598   4.435 -0.5449 -0.1192  0.0091
  223TIP3    H1  675   6.000   5.555   4.383 -1.4211  0.6634  0.4829
  223TIP3    H2  676   6.063   5.690   4.410  0.5793 -0.1069 -0.1993
  224TIP3   OH2  677   2.080   2.217   2.080 -0.0492  0.0692 -0.0090
  224TIP3    H1  678   1.987   2.194   2.086  0.0458 -0.2399  0.3120
  224TIP3    H2  679   2.125   2.133   2.074  0.1961  0.2275 -0.4186
  225TIP3   OH2  680   5.387   4.344   4.302  0.3603  0.3987 -0.3905
  225TIP3    H1  681   5.471   4.389   4.314 -0.2655  1.1108  1.6529
  225TIP3    H2  682   5.327   4.414   4.273 -0.3612  0.7401  1.7563
  226TIP3   OH2  683   0.705   0.621   4.939 -0.0214  0.3208  0.1679
  226TIP3    H1  684   0.723   0.687   4.873 -1.6678 -0.8993 -1.6027
  226TIP3    H2  685   0.690   0.671   5.019 -1.0180  2.1011 -1.0621
  227TIP3   OH2  686   1.303   1.745   2.510 -0.2816 -0.8396 -0.2886
  227TIP3    H1  687   1.259   1.784   2.434  0.7426  1.5300  0.2538
  227TIP3    H2  688   1.235   1.741   2.577 -0.4582 -0.1044 -0.4095
  228TIP3   OH2  689   3.898   0.396   1.458 -0.4401  0.0848  0.4810
  228TIP3    H1  690   3.962   0.465   1.441 -0.4536 -0.3895 -1.8188
  228TIP3    H2  691   3.813   0.437   1.443 -0.5394  0.0041  0.8099
  229TIP3   OH2  692   0.829   3.162   2.975 -0.5067  0.1121  0.2508
  229TIP3    H1  693   0.754   3.217   3.000  0.5807  0.7936  2.2510
  229TIP3    H2  694   0.879   3.217   2.914  1.3054  2.0804  3.2864
  230TIP3   OH2  695   1.061   5.341   4.047 -0.3494  0.2920  0.5568
  230TIP3    H1  696   0.977   5.326   4.089  0.0389  1.0413  1.6465
  230TIP3    H2  697   1.048   5.313   3.957 -1.3176 -1.0194  1.0710
  231TIP3   OH2  698   2.683   0.651   1.057  0.2060 -0.1378  0.0449
  231TIP3    H1  699   2.701   0.557   1.068  0.1159 -0.1126  0.4107
  231TIP3    H2  700   2.758   0.684   1.008  0.0798 -0.4641 -0.3800
  232TIP3   OH2  701   3.895   3.200   0.138 -0.2766  0.1891 -0.3155
  232TIP3    H1  702   3.888   3.225   0.230  2.4217 -1.3078  0.4013
  232TIP3    H2  703   3.851   3.115   0.132  0.9567 -0.5092  0.0403
  233TIP3   OH2  704   2.323   1.187   2.524 -0.3768 -0.3950  0.4507
  233TIP3    H1  705   2.329   1.154   2.434  1.0618 -0.1645  0.4257
  233TIP3    H2  706   2.255   1.253   2.522 -1.8551 -1.8604  0.0258
  234TIP3   OH2  707   0.858   3.986   3.859 -0.4625  0.1737 -0.1780
  234TIP3    H1  708   0.906   4.003   3.777  0.8255  2.5783  0.9862
  234TIP3    H2  709   0.767   3.977   3.831 -0.2936  2.5026 -1.7781
  235TIP3   OH2  710   3.174   0.291   3.052 -0.1227 -0.0041 -0.5823
  235TIP3    H1  711   3.265   0.266   3.035  0.1237  1.2675 -1.3475
  235TIP3    H2  712   3.177   0.340   3.134 -0.0871  0.1524 -0.6759
  236TIP3   OH2  713   4.200   0.587   0.339 -0.2592  0.4855 -0.3639
  236TIP3    H1  714   4.237   0.532   0.270  1.6404  0.4692  0.6136
  236TIP3    H2  715   4.271   0.599   0.402 -2.0117  0.1565  1.8285
  237TIP3   OH2  716   3.014   5.650   2.732  0.7146 -0.5771 -0.0466
  237TIP3    H1  717   3.045   5.562   2.752  2.7243 -0.1754 -1.1088
  237TIP3    H2  718   2.969   5.642   2.648 -0.6864 -0.8649  0.7013
  238TIP3   OH2  719   4.513   3.106   4.631 -0.0780 -0.0584  0.6489
  238TIP3    H1  720   4.501   3.178   4.694  0.7304 -0.8876  1.7806
  238TIP3    H2  721   4.440   3.116   4.569  0.2623  1.9813  0.5163
  239TIP3   OH2  722   0.712   0.309   4.539  0.5753 -0.3068  0.0955
  239TIP3    H1  723   0.748   0.310   4.450  0.8041 -0.4831  0.1844
  239TIP3    H2  724   0.638   0.369   4.535  1.3547  0.6751  0.1085
  240TIP3   OH2  725   4.254   0.116   1.507 -0.3537 -0.1988  0.0767
  240TIP3    H1  726   4.301   0.038   1.477 -1.9226 -0.6055 -1.4667
  240TIP3    H2  727   4.255   0.175   1.431  0.1076  0.9844  0.9673
  241TIP3   OH2  728   4.363   3.092   3.262 -0.1313 -0.3193 -0.4186
  241TIP3    H1  729   4.351   3.003   3.294  1.2591 -0.4149 -0.0939
  241TIP3    H2  730   4.391   3.081   3.171 -2.1432 -0.1152 -1.0958
  242TIP3   OH2  731   1.024   0.098   3.186 -0.4963 -0.0257  0.1500
  242TIP3    H1  732   1.117   0.111   3.166 -0.0785 -0.3760  1.7358
  242TIP3    H2  733   1.022   0.018   3.238 -1.9500 -1.2140 -1.5870
  243TIP3   OH2  734   2.818   4.244   3.507  0.6813  0.7046 -0.0872
  243TIP3    H1  735   2.836   4.237   3.601 -1.9648 -0.6207  0.4300
  243TIP3    H2  736   2.749   4.311   3.501 -1.6654 -1.5861 -0.5638
  244TIP3   OH2  737   2.440   5.320   4.089  0.5763  0.1826 -0.1186
  244TIP3    H1  738   2.375   5.390   4.081 -0.5221 -0.8021 -0.2197
  244TIP3    H2  739   2.488   5.339   4.169 -1.4627 -0.3288  1.3023
  245TIP3   OH2  740   0.823   5.878   0.962  0.1057  0.2324  0.5119
  245TIP3    H1  741   0.781   5.964   0.955  0.2963  0.2047 -2.3414
  245TIP3    H2  742   0.905   5.887   0.913  0.8534 -1.1835  1.4298
  246TIP3   OH2  743   5.416   4.112   0.078 -0.0522 -0.4931 -0.0695
  246TIP3    H1  744   5.469   4.051   0.026 -0.1884 -1.4289  0.8448
  246TIP3    H2  745   5.456   4.110   0.165  0.0357  0.8705 -0.0658
  247TIP3   OH2  746   5.910   2.045   4.525 -0.1583 -0.0613  0.4622
  247TIP3    H1  747   5.964   2.013   4.597 -1.0193 -3.3722 -0.1860
  247TIP3    H2  748   5.971   2.087   4.465  0.9113  0.6147  1.9634
  248TIP3   OH2  749   0.093   5.609   1.075  0.4018  0.0393  0.2893
  248TIP3    H1  750   0.095   5.525   1.030  0.7452 -0.3782  1.0697
  248TIP3    H2  751  -0.000   5.628   1.087  0.3101  0.0855 -0.4533
  249TIP3   OH2  752   0.102   3.172   0.389  0.7071 -0.0318 -0.2197
  249TIP3    H1  753   0.060   3.193   0.472 -0.8870  0.5899 -1.1482
  249TIP3    H2  754   0.172   3.111   0.412  2.3618  2.4593  1.9802
  250TIP3   OH2  755   5.585   0.191   4.004  0.0087  0.4251  0.8029
  250TIP3    H1  756   5.529   0.127   3.961  1.1484  0.6792 -1.2135
  250TIP3    H2  757   5.654   0.139   4.044 -1.1423  0.1744  2.5589
  251TIP3   OH2  758   2.849   5.979   1.018  0.1406  0.6120  0.7229
  251TIP3    H1  759   2.826   5.954   1.108  2.0132 -2.4871  0.5007
  251TIP3    H2  760   2.766   5.981   0.971 -0.6353 -0.1948  1.9960
  252TIP3   OH2  761   5.242   2.515   1.026  0.5336 -0.8500  0.2418
  252TIP3    H1  762   5.207   2.475   1.106  1.1423 -1.5230  0.1864
  252TIP3    H2  763   5.325   2.554   1.053 -0.2922  0.8761  0.4103
  253TIP3   OH2  764   0.422   1.860   5.201  0.4356 -0.3204  0.1467
  253TIP3    H1  765   0.451   1.771   5.219  1.6227 -0.0192 -0.1570
  253TIP3    H2  766   0.487   1.894   5.139 -0.0474  0.7170  0.1886
  254TIP3   OH2  767   6.139   2.466   4.067 -0.1987  0.3079 -0.2536
  254TIP3    H1  768   6.134   2.371   4.069 -0.9664  0.3606  1.1040
  254TIP3    H2  769   6.199   2.488   4.138 -0.0646  0.8521 -0.5288
  255TIP3   OH2  770   2.168   5.285   4.519  0.5667 -0.1633  0.6115
  255TIP3    H1  771   2.172   5.361   4.578 -0.2041 -0.9075  1.6587
  255TIP3    H2  772   2.230   5.306   4.449 -0.2183  1.8102  0.4249
  256TIP3   OH2  773   5.517   1.594   2.407 -0.4736  0.2150  0.2690
  256TIP3    H1  774   5.594   1.644   2.380  0.7636 -1.2645  0.8915
  256TIP3    H2  775   5.460   1.659   2.449 -0.2394  1.6048 -1.4658
  257TIP3   OH2  776   6.093   4.576   4.596  0.0068 -0.0010  0.0626
  257TIP3    H1  777   6.167   4.541   4.645 -1.6035 -1.6973  1.4184
  257TIP3    H2  778   6.132   4.641   4.537  2.5188 -0.7078  0.8204
  258TIP3   OH2  779   5.654   1.530   3.113 -0.1710 -0.1780  0.2945
  258TIP3    H1  780   5.600   1.597   3.072 -1.4171 -0.4814  1.3877
  258TIP3    H2  781   5.734   1.528   3.060 -0.6090  1.3058 -0.4793
  259TIP3   OH2  782   0.494   4.184   3.782 -0.0745 -0.0418 -0.0459
  259TIP3    H1  783   0.529   4.155   3.698  1.0673 -1.6617  0.9301
  259TIP3    H2  784   0.446   4.108   3.816 -1.7000  1.0293  0.1907
  260TIP3   OH2  785   1.399   5.958   1.563  0.4578 -0.1625  0.1760
  260TIP3    H1  786   1.354   5.893   1.510  0.0974 -2.0354  2.5755
  260TIP3    H2  787   1.484   5.919   1.584  0.4167  0.2881  1.3086
  261TIP3   OH2  788   3.094   2.537   4.726 -0.0612 -0.0380  0.2543
  261TIP3    H1  789   3.170   2.529   4.668 -0.2254 -0.0478  0.0350
  261TIP3    H2  790   3.079   2.448   4.758 -1.2939 -0.4928 -1.4172
  262TIP3   OH2  791   0.967   2.056   2.292  0.2819  0.0253  0.3418
  262TIP3    H1  792   1.006   2.135   2.255 -3.0146  1.4798 -0.3251
  262TIP3    H2  793   0.939   2.081   2.380 -0.0567 -0.6819  0.4452
  263TIP3   OH2  794   4.040   2.024   0.116  0.7141  0.2730 -0.1598
  263TIP3    H1  795   4.070   1.999   0.203  0.8853 -1.5888 -0.7124
  263TIP3    H2  796   3.999   1.945   0.082  0.4190  1.0536 -1.6712
  264TIP3   OH2  797   3.330   3.221   1.024  0.1956 -0.6219 -0.0020
  264TIP3    H1  798   3.323   3.138   0.978  0.4498 -1.1182  0.8297
  264TIP3    H2  799   3.247   3.266   1.004 -0.5688 -1.6766  0.6655
  265TIP3   OH2  800   0.727   4.041   3.079 -0.2189 -0.1657  0.1950
  265TIP3    H1  801   0.715   4.121   3.029  1.3342 -0.1454 -0.2120
  265TIP3    H2  802   0.684   3.973   3.028  0.3603  0.0514 -0.5988
  266TIP3   OH2  803   3.177   0.376   2.688  0.1142  0.3512 -0.5171
  266TIP3    H1  804   3.224   0.373   2.604 -0.9053  1.6638 -1.1824
  266TIP3    H2  805   3.244   0.359   2.754  1.2722  0.8617 -1.5152
  267TIP3   OH2  806   0.284   4.034   2.529  0.4989 -0.0310  0.1994
  267TIP3    H1  807   0.327   4.048   2.613 -0.3022 -1.0814  0.8034
  267TIP3    H2  808   0.191   4.048   2.547 -0.0179 -2.8520  0.1660
  268TIP3   OH2  809   0.127   2.630   2.541  0.3423 -0.2960  0.1637
  268TIP3    H1  810   0.146   2.615   2.448 -0.3004 -0.4151  0.0432
  268TIP3    H2  811   0.170   2.558   2.587  0.2806 -0.4939 -0.0847
  269TIP3   OH2  812   5.756   1.779   1.524  0.6009  0.1266  0.3874
  269TIP3    H1  813   5.794   1.864   1.545  0.8253 -0.2694  1.6980
  269TIP3    H2  814   5.766   1.770   1.429  0.6375  1.5184  0.2508
  270TIP3   OH2  815   5.374   4.239   2.275  0.3745 -0.2361  0.0214
  270TIP3    H1  816   5.318   4.176   2.230 -0.8093 -0.6011  1.8966
  270TIP3    H2  817   5.378   4.314   2.216  1.1002 -1.6674 -1.8731
  271TIP3   OH2  818   1.309   0.304   0.719 -0.2023 -0.0893  0.2440
  271TIP3    H1  819   1.276   0.393   0.729  0.7231  0.3234 -0.2215
  271TIP3    H2  820   1.236   0.248   0.744 -0.9054  0.7969  0.2180
  272TIP3   OH2  821   6.191   3.287   1.695  0.0551  0.0058  0.7096
  272TIP3    H1  822   6.113   3.234   1.679  0.4982 -0.1496 -1.1490
  272TIP3    H2  823   6.169   3.374   1.661  0.5901  0.0324  0.4205
  273TIP3   OH2  824   3.928   1.797   3.393 -0.3811  0.6413 -0.1341
  273TIP3    H1  825   3.900   1.714   3.356 -0.8955  0.8582 -0.2319
  273TIP3    H2  826   4.009   1.776   3.440  0.4492  0.4189 -1.6031
  274TIP3   OH2  827   0.450   4.767   3.153 -0.0758 -0.3186  0.1594
  274TIP3    H1  828   0.496   4.801   3.076  0.1265  0.6235  0.6926
  274TIP3    H2  829   0.372   4.724   3.116  0.3964 -0.5288 -0.6222
  275TIP3   OH2  830   4.354   2.961   3.023  0.7463  0.0234 -0.3004
  275TIP3    H1  831   4.318   2.904   2.955  0.7280 -1.3107  0.7794
  275TIP3    H2  832   4.448   2.950   3.017  0.6957 -1.2573  0.8079
  276TIP3   OH2  833   3.611   4.972   4.654  0.1052  0.5632 -0.1870
  276TIP3    H1  834   3.646   4.962   4.565  1.3734  1.1496  0.2119
  276TIP3    H2  835   3.634   5.062   4.678  0.9447  0.0160  1.1863
  277TIP3   OH2  836   2.419   4.620   0.204 -0.7522  0.2197  1.2365
  277TIP3    H1  837   2.438   4.526   0.206 -0.0109  0.2343 -1.6462
  277TIP3    H2  838   2.397   4.639   0.113  1.5226  3.3007  1.1706
  278TIP3   OH2  839   3.318   4.332   0.659 -0.3982 -0.1343 -0.5002
  278TIP3    H1  840   3.374   4.402   0.624  0.1699  0.2573  1.1040
  278TIP3    H2  841   3.233   4.374   0.672  0.0491  0.4246  0.8444
  279TIP3   OH2  842   2.274   3.780   0.280 -0.4568  0.6639  0.4142
  279TIP3    H1  843   2.283   3.684   0.285  3.6979  0.7599 -0.9728
  279TIP3    H2  844   2.221   3.795   0.203  0.3029 -0.5982 -0.3958
  280TIP3   OH2  845   5.553   1.938   3.765  0.2530  0.2822  0.0395
  280TIP3    H1  846   5.616   1.871   3.793  0.0465  0.1868  0.2767
  280TIP3    H2  847   5.603   2.020   3.768  1.5872 -0.2120 -3.6291
  281TIP3   OH2  848   2.806   1.881   3.331 -0.4872 -0.3975 -0.5688
  281TIP3    H1  849   2.897   1.891   3.359 -0.5056  0.4970 -0.7967
  281TIP3    H2  850   2.758   1.862   3.411  0.0716 -2.2337 -0.6166
  282TIP3   OH2  851   1.109   0.447   1.429 -0.4145 -0.1807 -0.0621
  282TIP3    H1  852   1.117   0.535   1.464  0.6992 -0.2547 -0.0882
  282TIP3    H2  853   1.140   0.390   1.499 -1.2576 -0.5782  0.0082
  283TIP3   OH2  854   2.334   1.245   3.575 -0.4847 -1.1505 -0.3510
  283TIP3    H1  855   2.324   1.233   3.480  0.1616 -2.1068 -0.3118
  283TIP3    H2  856   2.429   1.246   3.588 -0.5566  0.2918  0.1388
  284TIP3   OH2  857   5.700   3.274   2.353  0.0862 -0.7644  0.3590
  284TIP3    H1  858   5.617   3.283   2.306  1.6304 -0.7285 -2.5931
  284TIP3    H2  859   5.677   3.227   2.433 -3.0660  0.9645  0.6583
  285TIP3   OH2  860   3.045   3.546   1.406  0.0594 -0.3016  0.2586
  285TIP3    H1  861   3.022   3.525   1.496 -2.1781 -1.5257 -0.5363
  285TIP3    H2  862   2.962   3.544   1.358  0.8664  2.4413 -1.4666
  286TIP3   OH2  863   2.615   4.340   2.621 -0.0909  0.0646 -0.1470
  286TIP3    H1  864   2.579   4.263   2.578 -1.2844  1.6807 -2.2154
  286TIP3    H2  865   2.684   4.371   2.562  0.0474  0.8485  0.3998
  287TIP3   OH2  866   3.126   0.954   2.944  0.2630  0.0504  0.8494
  287TIP3    H1  867   3.147   0.949   2.851 -1.9527  3.0453  0.0411
  287TIP3    H2  868   3.093   0.866   2.965 -4.0449  0.4492 -2.6602
  288TIP3   OH2  869   5.822   3.050   0.071  0.2372 -0.3098 -0.3609
  288TIP3    H1  870   5.748   3.102   0.039  1.9651  1.8991 -1.0271
  288TIP3    H2  871   5.889   3.060   0.004  0.5891 -3.8782 -0.7570
  289TIP3   OH2  872   0.963   4.576   0.772  0.1986  0.0236  0.4123
  289TIP3    H1  873   0.949   4.666   0.744  1.3231  0.0722 -0.0645
  289TIP3    H2  874   1.009   4.583   0.856 -1.4801 -0.1310  1.4054
  290TIP3   OH2  875   1.915   1.456   3.971  0.0132  0.0326  0.4601
  290TIP3    H1  876   1.873   1.385   3.922 -0.4540  0.5147  0.1467
  290TIP3    H2  877   1.863   1.533   3.950  1.0979  0.6675  0.0076
  291TIP3   OH2  878   0.110   3.791   4.910 -0.1918 -0.3928 -0.0325
  291TIP3    H1  879   0.137   3.795   5.001  2.0523 -1.5327 -0.5953
  291TIP3    H2  880   0.034   3.733   4.910  1.1014 -2.1600  0.8644
  292TIP3   OH2  881   0.634   5.891   4.039  0.4257 -0.3170  0.3320
  292TIP3    H1  882   0.564   5.828   4.053  1.3086 -1.3492  0.2199
  292TIP3    H2  883   0.653   5.925   4.127 -0.9907  0.8745  0.2244
  293TIP3   OH2  884   3.792   4.533   4.516 -0.4977 -0.2405  0.3526
  293TIP3    H1  885   3.727   4.561   4.581  0.0251  2.1691 -0.0871
  293TIP3    H2  886   3.837   4.613   4.491  1.9657 -1.6718 -0.1445
  294TIP3   OH2  887   1.417   2.815   3.479 -0.0628  0.7219 -0.3536
  294TIP3    H1  888   1.465   2.761   3.417  0.6997  0.1756  0.6802
  294TIP3    H2  889   1.331   2.774   3.487 -0.0975  0.6874 -0.8847
  295TIP3   OH2  890   0.457   1.849   0.710 -0.0718  0.0406 -0.2744
  295TIP3    H1  891   0.529   1.787   0.722  0.1322  0.2253 -0.5309
  295TIP3    H2  892   0.389   1.798   0.666 -0.8056 -0.6259  1.5339
  296TIP3   OH2  893   0.377   4.980  -0.037  0.2217 -0.2261 -0.0253
  296TIP3    H1  894   0.293   4.995   0.005 -0.7746  0.1658 -2.0274
  296TIP3    H2  895   0.434   4.946   0.033 -1.4548 -0.0970  1.4590
  297TIP3   OH2  896   0.046   2.027   3.261 -0.3936  0.1484 -0.0807
  297TIP3    H1  897   0.112   2.094   3.275 -0.0898 -0.1973  0.1397
  297TIP3    H2  898  -0.027   2.054   3.318 -0.5016  0.5980 -0.4214
  298TIP3   OH2  899   5.040   3.899   1.524 -0.0080 -0.0950 -0.0159
  298TIP3    H1  900   5.108   3.915   1.459 -0.1528 -0.9591 -0.3950
  298TIP3    H2  901   4.970   3.856   1.475 -0.8690  0.8367  0.3438
  299TIP3   OH2  902   2.061  -0.014   2.875  0.2944 -0.2388 -0.0948
  299TIP3    H1  903   2.122   0.059   2.885  0.1419 -0.3376  2.0300
  299TIP3    H2  904   2.008   0.008   2.798  0.2547  1.8670  0.4867
  300TIP3   OH2  905   6.025   4.898   0.926 -0.5086 -0.2991  0.3876
  300TIP3    H1  906   6.018   4.931   0.836 -0.4148  1.3879  0.9764
  300TIP3    H2  907   6.114   4.918   0.952 -0.5787 -0.6566  0.9170
  301TIP3   OH2  908   3.461   1.388   4.672 -0.2159 -0.6305 -0.2005
  301TIP3    H1  909   3.445   1.467   4.621  0.6383 -0.2425  0.1087
  301TIP3    H2  910   3.483   1.420   4.760 -0.9072 -1.2546  0.2155
  302TIP3   OH2  911   4.456   5.976   2.378 -0.0235  0.7331  0.1022
  302TIP3    H1  912   4.361   5.989   2.382  0.1367  2.1100 -0.0744
  302TIP3    H2  913   4.468   5.902   2.318 -1.0173 -0.1781  0.9882
  303TIP3   OH2  914   4.996   2.059   4.933  0.2364  0.1664  0.0364
  303TIP3    H1  915   5.048   2.120   4.880  0.1395  0.6125  0.4516
  303TIP3    H2  916   4.980   1.985   4.875  0.0416  0.6974 -0.6054
  304TIP3   OH2  917   4.883   5.582   1.316 -0.4744  0.5215  0.3574
  304TIP3    H1  918   4.902   5.674   1.335 -1.4275  0.7708  0.1840
  304TIP3    H2  919   4.895   5.537   1.400  0.4513  0.7202  0.3378
  305TIP3   OH2  920   6.307   1.478   2.223 -0.1594  0.3325 -0.2014
  305TIP3    H1  921   6.319   1.390   2.259  1.4434  1.4593  2.2922
  305TIP3    H2  922   6.360   1.479   2.143  1.3266 -0.4710  0.7197
  306TIP3   OH2  923   5.348   2.419   3.225  0.6617  0.0387 -0.3145
  306TIP3    H1  924   5.264   2.459   3.248  0.6119 -0.6686  0.7930
  306TIP3    H2  925   5.390   2.484   3.168  0.0690  1.1229  0.4331
  307TIP3   OH2  926   5.789   4.892   1.450 -0.0503 -0.3841  0.2897
  307TIP3    H1  927   5.863   4.833   1.437 -0.1141 -0.3771 -0.1159
  307TIP3    H2  928   5.787   4.947   1.371 -0.4845 -0.3837  0.2936
  308TIP3   OH2  929   0.986   4.265   5.070 -0.3376 -0.2412  0.3221
  308TIP3    H1  930   0.961   4.290   4.981  1.2615 -2.3389 -0.8266
  308TIP3    H2  931   1.065   4.315   5.088  1.2470 -2.1608 -0.8538
  309TIP3   OH2  932   3.647   4.306   3.732  0.3964 -0.3027 -0.0319
  309TIP3    H1  933   3.590   4.230   3.718 -0.1234  0.4212 -2.3760
  309TIP3    H2  934   3.721   4.271   3.782 -1.0580 -1.7423  1.2358
  310TIP3   OH2  935   1.335   5.256   0.218  0.3740 -0.1994 -0.5691
  310TIP3    H1  936   1.349   5.165   0.244 -0.2689  0.1087  1.0224
  310TIP3    H2  937   1.417   5.300   0.237 -0.0720  0.0103  1.0345
  311TIP3   OH2  938   5.234   1.711   0.275 -0.2718 -0.9223  0.0591
  311TIP3    H1  939   5.278   1.773   0.332  1.0926 -0.8974 -0.9614
  311TIP3    H2  940   5.233   1.753   0.189 -1.4621 -1.3374 -0.1543
  312TIP3   OH2  941   3.582   2.470   0.313  0.3685 -0.3492 -0.2126
  312TIP3    H1  942   3.591   2.526   0.236  0.9879  0.6401  0.5461
  312TIP3    H2  943   3.629   2.517   0.382  0.8860 -1.8126  0.4698
  313TIP3   OH2  944   5.095   3.846   4.828 -0.3173  0.0115 -0.4277
  313TIP3    H1  945   5.024   3.904   4.799  0.5290  0.5370 -1.5701
  313TIP3    H2  946   5.173   3.880   4.783  0.3829 -1.4437 -0.3834
  314TIP3   OH2  947   1.475   2.946   1.950  0.0788  0.2178  0.1196
  314TIP3    H1  948   1.426   2.938   2.032 -0.6997  2.2972 -0.0856
  314TIP3    H2  949   1.553   2.893   1.963 -0.7336 -0.6694  1.6393
  315TIP3   OH2  950   1.213   0.623   4.379 -0.3881 -0.3868 -0.1666
  315TIP3    H1  951   1.163   0.595   4.302 -0.5266  1.5310 -0.8300
  315TIP3    H2  952   1.158   0.690   4.420 -0.9726 -2.3116  2.4722
  316TIP3   OH2  953   2.963   1.975   1.978  0.1431  0.3357  0.2344
  316TIP3    H1  954   3.036   1.913   1.976  1.3141  1.6395  0.9692
  316TIP3    H2  955   3.004   2.061   1.987 -1.4211  1.2909 -1.1393
  317TIP3   OH2  956   2.968   1.784   0.467 -0.3160 -0.2502  0.1419
  317TIP3    H1  957   3.061   1.793   0.487 -0.1837 -1.3699  0.0933
  317TIP3    H2  958   2.947   1.693   0.488 -1.7076  0.3113  1.3787
  318TIP3   OH2  959   1.624   5.788   1.697  0.4040  0.0805 -0.3034
  318TIP3    H1  960   1.592   5.698   1.688  0.7961 -0.0005 -0.9199
  318TIP3    H2  961   1.719   5.779   1.707  0.5061  0.4455 -0.8769
  319TIP3   OH2  962   4.231   1.140   4.966  0.0390 -0.0892 -0.7088
  319TIP3    H1  963   4.251   1.048   4.947 -5.1258 -1.7664  0.2089
  319TIP3    H2  964   4.191   1.173   4.885 -0.2835  0.5566 -0.2929
  320TIP3   OH2  965   5.680   5.056   1.213  0.0051  0.3724  0.2584
  320TIP3    H1  966   5.662   5.110   1.136  0.1365 -0.4393 -0.3484
  320TIP3    H2  967   5.594   5.041   1.253  0.0607  1.8517  1.0133
  321TIP3   OH2  968   3.228   1.236   3.419 -0.1346  0.3913 -0.6299
  321TIP3    H1  969   3.234   1.218   3.513  0.8891 -0.7469 -0.8762
  321TIP3    H2  970   3.135   1.235   3.400 -0.4623  2.2108  0.6363
  322TIP3   OH2  971   5.850   2.113   4.215  0.0275  0.0961  0.0870
  322TIP3    H1  972   5.765   2.069   4.220 -0.3170  0.7850  0.4370
  322TIP3    H2  973   5.836   2.185   4.154  0.4296  0.0754 -0.0354
  323TIP3   OH2  974   0.462   0.466   4.481  0.3025 -0.0260  0.0359
  323TIP3    H1  975   0.494   0.530   4.417  0.3378 -0.1369 -0.0559
  323TIP3    H2  976   0.372   0.448   4.455 -0.6297  1.9596  1.5570
  324TIP3   OH2  977   4.215   1.476   1.049 -0.1615 -0.7857  0.2891
  324TIP3    H1  978   4.308   1.473   1.071 -0.2749 -0.6686  0.8067
  324TIP3    H2  979   4.200   1.396   0.998  0.5095 -0.1254 -0.9925
  325TIP3   OH2  980   4.295   1.612   1.855 -0.7092 -0.0322  0.2746
  325TIP3    H1  981   4.346   1.539   1.892 -0.8501  0.5600  1.7177
  325TIP3    H2  982   4.360   1.679   1.836 -0.4716 -0.7727 -1.8217
  326TIP3   OH2  983   1.115   4.263   3.814 -0.2232 -0.0753  0.1679
  326TIP3    H1  984   1.049   4.225   3.872  1.6483 -2.0041  1.1781
  326TIP3    H2  985   1.126   4.199   3.744 -0.0983  0.6844 -0.5229
  327TIP3   OH2  986   4.257   2.445   0.104 -0.7140  0.7198  0.1030
  327TIP3    H1  987   4.185   2.424   0.045 -1.0483  0.5668  0.5623
  327TIP3    H2  988   4.265   2.369   0.161  0.5324  0.2642 -0.6365
  328TIP3   OH2  989   1.323   3.599   3.577  0.8183  0.1094  0.0223
  328TIP3    H1  990   1.406   3.625   3.536  1.4081 -0.8622  0.5598
  328TIP3    H2  991   1.290   3.529   3.520  0.3967  0.4520 -0.1547
  329TIP3   OH2  992   5.056   3.020   2.337  0.5592  0.1810  0.5600
  329TIP3    H1  993   5.041   2.939   2.385  0.0898  0.3077  0.6303
  329TIP3    H2  994   4.996   3.083   2.377 -1.0097 -0.1024 -1.2170
  330TIP3   OH2  995   3.065   0.902   2.114 -0.1852 -0.2153 -0.1302
  330TIP3    H1  996   3.060   0.996   2.099 -0.5492 -0.3312 -0.7232
  330TIP3    H2  997   3.078   0.864   2.027 -1.6529 -0.8303 -0.0955
  331TIP3   OH2  998   0.089   5.156   3.858 -0.1366 -0.6555 -0.0368
  331TIP3    H1  999   0.044   5.145   3.774 -0.2354 -0.0698 -0.0705
  331TIP3    H2 1000   0.022   5.141   3.924 -0.2474 -0.3520 -0.0783
  332TIP3   OH2 1001   1.806   3.501   3.009 -0.1029  0.5915  0.3720
  332TIP3    H1 1002   1.805   3.583   2.961  1.5627 -0.1362 -1.0012
  332TIP3    H2 1003   1.747   3.443   2.959  1.4420 -0.0902 -0.7377
  333TIP3   OH2 1004   5.406   2.030   2.082  0.6386  0.2190 -0.0406
  333TIP3    H1 1005   5.378   2.112   2.043  1.3954  0.3476 -0.3280
  333TIP3    H2 1006   5.345   1.965   2.047 -0.7600  0.8189  1.1685
  334TIP3   OH2 1007   4.527   3.680   2.118 -0.5237 -0.1258  0.4822
  334TIP3    H1 1008   4.574   3.763   2.112 -1.7585  0.5420 -0.7449
  334TIP3    H2 1009   4.437   3.705   2.138 -1.6517 -0.8494 -3.0340
  335TIP3   OH2 1010   4.502   4.474   3.102 -0.4082  0.0843  0.3640
  335TIP3    H1 1011   4.535   4.499   3.016  0.2871 -1.2368  0.2240
  335TIP3    H2 1012   4.560   4.519   3.164  0.2461 -0.4191  0.1252
  336TIP3   OH2 1013   2.959   4.383   0.885 -0.1348  0.0602  0.0366
  336TIP3    H1 1014   3.013   4.311   0.917  1.4773  1.1147 -0.1769
  336TIP3    H2 1015   2.902   4.404   0.959 -0.1432 -0.9619  0.3363
  337TIP3   OH2 1016   1.883   3.049   0.532  0.0787  0.2466 -0.8597
  337TIP3    H1 1017   1.925   2.964   0.544  1.3192  0.3182 -3.8022
  337TIP3    H2 1018   1.789   3.030   0.528  0.0415 -0.4603  1.8273
  338TIP3   OH2 1019   0.850   3.440   4.508 -0.0698  0.7323  0.2080
  338TIP3    H1 1020   0.897   3.387   4.572  0.8410  0.4379 -0.6875
  338TIP3    H2 1021   0.813   3.377   4.447 -1.1837  0.9962  0.5907
  339TIP3   OH2 1022   0.565   5.697   0.077 -0.3882  0.2747  0.0301
  339TIP3    H1 1023   0.609   5.737   0.151  0.0002  0.7933 -0.4772
  339TIP3    H2 1024   0.506   5.765   0.044 -0.5929  0.0327 -0.1093
  340TIP3   OH2 1025   1.208   4.587   2.044 -0.5081  0.1311 -0.2151
  340TIP3    H1 1026   1.154   4.656   2.081 -1.6542  0.4740 -2.3497
  340TIP3    H2 1027   1.247   4.626   1.966 -1.4995 -1.6705 -1.7026
  341TIP3   OH2 1028   2.537   1.546   4.183  0.0322  0.0350  0.5453
  341TIP3    H1 1029   2.477   1.494   4.237 -1.9265  2.3569  0.7556
  341TIP3    H2 1030   2.554   1.491   4.106  0.3583 -2.0381  2.0094
  342TIP3   OH2 1031   5.179   4.530   2.078  0.0401 -0.1312 -0.0538
  342TIP3    H1 1032   5.176   4.470   2.004 -0.3951 -1.0255  0.6753
  342TIP3    H2 1033   5.251   4.589   2.057 -1.3354  0.9377 -2.1525
  343TIP3   OH2 1034   6.108   2.272   0.561  0.3841 -0.3484 -0.4927
  343TIP3    H1 1035   6.123   2.180   0.578  1.4890 -0.2039 -0.6640
  343TIP3    H2 1036   6.132   2.285   0.469 -1.8570 -0.3198 -1.1536
  344TIP3   OH2 1037   2.743   4.580   1.246  0.4510 -0.0284  0.1801
  344TIP3    H1 1038   2.693   4.604   1.324  0.2933  1.6679 -0.4150
  344TIP3    H2 1039   2.812   4.645   1.241  0.2466  0.0991 -1.2855
  345TIP3   OH2 1040   0.441   2.192   2.771 -1.3578 -0.3865 -0.2953
  345TIP3    H1 1041   0.476   2.196   2.682  0.7638  0.5949  0.5188
  345TIP3    H2 1042   0.475   2.110   2.807  1.0198  0.9571  0.7743
  346TIP3   OH2 1043   1.870   1.111   0.833 -0.0664 -0.7065 -0.2033
  346TIP3    H1 1044   1.922   1.094   0.911 -1.0931 -1.2248  0.3814
  346TIP3    H2 1045   1.929   1.090   0.760  0.9614 -0.0441  0.4001
  347TIP3   OH2 1046   1.870   3.939   2.676 -0.1293  0.4083  0.4239
  347TIP3    H1 1047   1.948   3.913   2.627  1.2839  1.7328  1.8543
  347TIP3    H2 1048   1.813   3.980   2.611  1.6658  2.0645 -0.2022
  348TIP3   OH2 1049   2.454   4.473   3.069 -0.1592  0.5001 -0.6345
  348TIP3    H1 1050   2.361   4.457   3.051 -0.2732  1.5886 -1.0866
  348TIP3    H2 1051   2.474   4.415   3.143 -1.4287  0.8699  0.0315
  349TIP3   OH2 1052   2.984   5.486   0.209  0.1344  0.3886 -0.1076
  349TIP3    H1 1053   3.027   5.401   0.198  0.1383  0.1159  1.7156
  349TIP3    H2 1054   2.893   5.470   0.186  0.2476  0.0288 -0.3159
  350TIP3   OH2 1055   2.098   5.488   4.978 -0.2081  0.1004 -0.5810
  350TIP3    H1 1056   2.084   5.429   5.052 -2.6018 -0.2225 -1.1861
  350TIP3    H2 1057   2.041   5.563   4.996  1.4137  1.4146 -0.7070
  351TIP3   OH2 1058   5.902   5.015   5.061 -0.1388  0.2186 -0.0908
  351TIP3    H1 1059   5.877   5.063   5.139 -0.9351 -0.9259  0.3856
  351TIP3    H2 1060   5.842   4.940   5.058 -1.1580  1.0265 -2.6276
  352TIP3   OH2 1061   3.656   0.448   0.648 -0.0296  0.0913 -0.0386
  352TIP3    H1 1062   3.682   0.440   0.740 -0.7295 -0.9273  0.1004
  352TIP3    H2 1063   3.580   0.390   0.640 -0.3112  0.5790 -1.1397
  353TIP3   OH2 1064   0.331   4.262   4.094  0.1620  0.0064  0.2852
  353TIP3    H1 1065   0.341   4.243   4.187 -0.0220 -0.8628  0.1321
  353TIP3    H2 1066   0.380   4.344   4.081 -0.4672  0.5571  1.2854
  354TIP3   OH2 1067   3.983   2.621   3.330 -0.0155  0.4471  0.3625
  354TIP3    H1 1068   4.005   2.713   3.347 -0.6529  0.8099 -0.6626
  354TIP3    H2 1069   4.058   2.588   3.281 -0.6041  0.9784 -0.9400
  355TIP3   OH2 1070   1.173   0.558   0.627  0.1059  0.4940  0.1678
  355TIP3    H1 1071   1.124   0.499   0.569 -1.2950  1.5709  0.2031
  355TIP3    H2 1072   1.159   0.645   0.590 -1.4544  1.3152  2.4794
  356TIP3   OH2 1073   5.854   0.164   1.499  0.3812 -0.0141  0.1250
  356TIP3    H1 1074   5.836   0.123   1.584 -0.4927  0.8511  0.3716
  356TIP3    H2 1075   5.899   0.096   1.450 -1.9444 -1.6950  0.1510
  357TIP3   OH2 1076   6.161   2.767   4.303 -0.2447  0.3670  0.1997
  357TIP3    H1 1077   6.117   2.851   4.307 -1.3954 -0.2198  0.3765
  357TIP3    H2 1078   6.246   2.786   4.264 -0.4016  1.6339  0.4476
  358TIP3   OH2 1079   1.312   4.762   1.464  0.1413  0.0583 -0.0479
  358TIP3    H1 1080   1.265   4.716   1.394  0.5885 -2.1141  0.9743
  358TIP3    H2 1081   1.262   4.741   1.543  0.3553  1.4177  0.4708
  359TIP3   OH2 1082   2.954   0.316   3.764  0.5833  0.0114  0.8252
  359TIP3    H1 1083   2.954   0.314   3.669 -0.5828 -1.3664  0.8345
  359TIP3    H2 1084   2.932   0.407   3.786  2.8732  0.8909 -0.1600
  360TIP3   OH2 1085   4.892   2.355   4.935  0.0183  0.7498  0.0067
  360TIP3    H1 1086   4.973   2.404   4.951  0.0884  1.3144 -1.9005
  360TIP3    H2 1087   4.920   2.264   4.929  0.3259  0.8049  0.5094
  361TIP3   OH2 1088   2.893   0.001   4.848  0.5867  0.1455  0.2571
  361TIP3    H1 1089   2.826   0.060   4.813 -1.1809 -1.4071  0.8289
  361TIP3    H2 1090   2.955  -0.011   4.776 -1.0181 -0.1722 -1.1493
  362TIP3   OH2 1091   5.254   1.063   3.278 -0.6903 -0.4679 -0.0539
  362TIP3    H1 1092   5.286   1.048   3.189 -0.1408  0.5017 -0.0366
  362TIP3    H2 1093   5.186   1.130   3.269  0.5906  0.9592  0.4218
  363TIP3   OH2 1094   0.158   0.034   0.726  0.1755  0.0833  0.0573
  363TIP3    H1 1095   0.156   0.068   0.816 -2.2511  0.5525 -0.1138
  363TIP3    H2 1096   0.250   0.043   0.700  1.1994 -1.0762  2.8305
  364TIP3   OH2 1097   4.613   3.801   4.101  0.5916 -0.1657 -0.1327
  364TIP3    H1 1098   4.629   3.829   4.191 -0.0152  0.6923 -0.2766
  364TIP3    H2 1099   4.633   3.878   4.048 -0.4790 -0.1955 -0.6037
  365TIP3   OH2 1100   3.299   0.973   3.285  0.4073 -0.2270  0.4731
  365TIP3    H1 1101   3.276   1.066   3.292 -0.9955 -0.4821 -0.3680
  365TIP3    H2 1102   3.368   0.970   3.218  2.2423  0.4306  2.2300
  366TIP3   OH2 1103   3.502   5.247   1.891 -0.1216  0.2483 -0.3135
  366TIP3    H1 1104   3.513   5.224   1.983  1.7703 -1.9483 -0.9705
  366TIP3    H2 1105   3.590   5.273   1.862 -0.7057  1.0087 -1.4643
  367TIP3   OH2 1106   1.819   4.156   1.504 -0.2926  0.2486  0.5577
  367TIP3    H1 1107   1.890   4.179   1.564 -0.0446 -0.7113  0.6490
  367TIP3    H2 1108   1.739   4.183   1.549  0.0508  2.3745 -0.0236
  368TIP3   OH2 1109   2.159   2.083   3.258  0.4383 -0.9714 -0.1502
  368TIP3    H1 1110   2.208   2.073   3.177  1.0784 -1.2702  0.2688
  368TIP3    H2 1111   2.217   2.132   3.316 -0.1907 -0.3617 -0.0224
  369TIP3   OH2 1112   6.254   5.940   5.007 -0.1744  0.0301  0.1443
  369TIP3    H1 1113   6.202   5.938   5.087  0.2509  1.8911  0.4992
  369TIP3    H2 1114   6.222   6.017   4.960 -1.2486 -1.6650 -2.0878
  370TIP3   OH2 1115   5.410   5.833   1.392 -0.1255 -0.3193  0.0459
  370TIP3    H1 1116   5.320   5.803   1.388 -0.4841  0.7206  0.1603
  370TIP3    H2 1117   5.407   5.925   1.366  0.6070  0.2928  1.9299
  371TIP3   OH2 1118   5.663   4.187   4.143 -0.3253  0.2301 -0.0388
  371TIP3    H1 1119   5.654   4.202   4.237  0.7437  1.5940 -0.1144
  371TIP3    H2 1120   5.574   4.183   4.110 -0.7138 -0.4117  1.0459
  372TIP3   OH2 1121   6.256   3.120   3.634  0.4862 -0.7389  0.1865
  372TIP3    H1 1122   6.177   3.173   3.619  0.0254 -1.2759  0.6580
  372TIP3    H2 1123   6.299   3.116   3.549  0.0548 -0.3565 -0.0566
  373TIP3   OH2 1124   5.056   1.582   4.595  0.0966 -0.2356 -0.2981
  373TIP3    H1 1125   5.028   1.655   4.540  1.4823  0.1875 -0.4853
  373TIP3    H2 1126   5.088   1.624   4.675  0.7376 -0.6429 -0.3370
  374TIP3   OH2 1127   1.379   3.951   3.712 -0.0082 -0.3115 -0.7094
  374TIP3    H1 1128   1.360   3.863   3.743  1.1081 -0.2754  0.1239
  374TIP3    H2 1129   1.451   3.940   3.649  1.8135  0.1977  1.1695
  375TIP3   OH2 1130   5.202   2.998   4.066 -0.8658  0.2773  0.3282
  375TIP3    H1 1131   5.116   3.039   4.064 -0.4095  1.2343  0.1603
  375TIP3    H2 1132   5.203   2.950   4.149 -1.6219  0.0996  0.2505
  376TIP3   OH2 1133   2.098   1.985   2.545 -0.5492 -0.0367 -0.1086
  376TIP3    H1 1134   2.174   2.026   2.503  0.4926 -1.8338 -0.0940
  376TIP3    H2 1135   2.039   2.058   2.564  0.2822  1.2062 -1.9182
  377TIP3   OH2 1136   2.772   3.889   1.560  0.0437  0.5468 -0.4695
  377TIP3    H1 1137   2.843   3.902   1.498 -0.8709  0.2687 -1.6196
  377TIP3    H2 1138   2.813   3.847   1.635  1.3656  1.8120 -0.4475
  378TIP3   OH2 1139   1.206   4.444   5.109 -0.3255  0.7535 -0.4131
  378TIP3    H1 1140   1.257   4.406   5.181 -1.0864 -0.3001 -0.4018
  378TIP3    H2 1141   1.265   4.440   5.033 -0.0858  0.3237 -0.2102
  379TIP3   OH2 1142   0.108   2.085   0.760  0.1835  0.4166 -0.2640
  379TIP3    H1 1143   0.197   2.091   0.794  0.5960 -0.3888 -1.1386
  379TIP3    H2 1144   0.053   2.072   0.837  0.7804  1.2381  0.3131
  380TIP3   OH2 1145   0.334   3.766   4.771  0.2680 -0.2829 -0.4601
  380TIP3    H1 1146   0.250   3.802   4.801  0.1638  0.2525 -1.3455
  380TIP3    H2 1147   0.322   3.671   4.774  0.3671 -0.2659  1.4231
  381TIP3   OH2 1148   5.188   1.259   3.031 -0.2316 -0.6761 -0.2633
  381TIP3    H1 1149   5.245   1.183   3.033 -0.3780 -0.7686  0.3804
  381TIP3    H2 1150   5.111   1.230   2.983 -1.2500 -1.6211  1.8228
  382TIP3   OH2 1151   0.890   0.590   1.144 -0.3540 -0.4502  0.1524
  382TIP3    H1 1152   0.798   0.566   1.159 -0.0752 -1.7445 -0.0909
  382TIP3    H2 1153   0.940   0.531   1.201  0.4018 -1.0896 -1.1214
  383TIP3   OH2 1154   0.501   3.602   4.042 -0.1348  0.9908  0.2705
  383TIP3    H1 1155   0.440   3.622   3.971  0.3088 -2.3032 -1.2357
  383TIP3    H2 1156   0.588   3.615   4.005  0.1210 -1.4416 -0.1727
  384TIP3   OH2 1157   0.641   3.759   4.249 -0.0315  0.4683  0.2362
  384TIP3    H1 1158   0.589   3.810   4.312  0.3447  2.1828 -0.7746
  384TIP3    H2 1159   0.585   3.686   4.225 -0.8099  0.6716  1.3593
  385TIP3   OH2 1160   3.911   3.613   2.062 -0.5301  0.0007 -0.1733
  385TIP3    H1 1161   3.834   3.669   2.048 -0.5857  0.1247  0.6027
  385TIP3    H2 1162   3.952   3.648   2.141 -0.7553 -1.2664  0.5212
  386TIP3   OH2 1163   2.193   4.410   1.398  0.2270 -0.2406  0.5442
  386TIP3    H1 1164   2.147   4.475   1.451 -1.3180 -0.5414 -0.3534
  386TIP3    H2 1165   2.133   4.335   1.394  1.3551 -1.1742  0.3812
  387TIP3   OH2 1166   1.416   0.054   2.267  0.3156 -0.0425  0.7385
  387TIP3    H1 1167   1.415   0.124   2.202  0.4975  0.3563  1.1575
  387TIP3    H2 1168   1.348  -0.007   2.238 -0.1607  0.5379  0.6189
  388TIP3   OH2 1169   0.983   1.788   4.002 -0.0265 -0.4338  0.2484
  388TIP3    H1 1170   1.043   1.760   3.933  0.7362 -2.0455  1.4932
  388TIP3    H2 1171   0.999   1.726   4.074 -3.0913 -0.8551  0.6968
  389TIP3   OH2 1172   0.035   3.211   3.153 -0.3342 -0.4717 -0.1330
  389TIP3    H1 1173   0.121   3.242   3.181 -0.7089  0.2439  0.2376
  389TIP3    H2 1174  -0.021   3.222   3.229 -0.5978 -1.6603 -0.1267
  390TIP3   OH2 1175   0.152   1.470   4.238  0.0989  0.1572 -0.0081
  390TIP3    H1 1176   0.179   1.386   4.272  0.1927 -0.8717 -2.3931
  390TIP3    H2 1177   0.137   1.454   4.144  0.7387  2.9143 -0.6778
  391TIP3   OH2 1178   5.668   2.924   4.028  0.1712 -0.4230  0.8820
  391TIP3    H1 1179   5.642   3.016   4.022  0.7856 -0.1993  1.5257
  391TIP3    H2 1180   5.606   2.885   4.090  0.4701 -0.2238  1.3129
  392TIP3   OH2 1181   1.816   1.573   1.126  0.2558  0.1629 -0.0321
  392TIP3    H1 1182   1.795   1.525   1.206 -1.2448 -0.9741 -1.0595
  392TIP3    H2 1183   1.731   1.595   1.088  0.8884  2.9920 -0.0306
  393TIP3   OH2 1184   2.551   1.894   3.849  0.3768  0.0110  0.4463
  393TIP3    H1 1185   2.607   1.934   3.783  0.0171 -1.1980 -0.6328
  393TIP3    H2 1186   2.519   1.813   3.809 -1.5837  0.2957  1.2807
  394TIP3   OH2 1187   0.630   5.088   1.995 -0.1316  0.2800  0.1723
  394TIP3    H1 1188   0.642   5.179   1.968 -0.3779  0.3349  0.2420
  394TIP3    H2 1189   0.554   5.058   1.944 -0.8942  0.5265  1.1429
  395TIP3   OH2 1190   4.176   0.854   3.805  0.2942  0.1406 -0.3567
  395TIP3    H1 1191   4.094   0.893   3.775 -0.3487 -1.5398 -0.8906
  395TIP3    H2 1192   4.152   0.806   3.884  0.4344 -1.5397 -1.2977
  396TIP3   OH2 1193   0.530   1.371   2.852  0.1540 -0.3341  0.5092
  396TIP3    H1 1194   0.611   1.363   2.801  0.2515  2.0383  0.2018
  396TIP3    H2 1195   0.460   1.367   2.788  0.1239 -0.3848  0.5450
  397TIP3   OH2 1196   6.274   1.050   1.747 -0.1350  0.2296 -0.1546
  397TIP3    H1 1197   6.210   1.033   1.816  1.0699 -1.4056  0.6286
  397TIP3    H2 1198   6.223   1.050   1.666 -1.0652 -1.6698  0.3753
  398TIP3   OH2 1199   4.707   0.314   2.798 -0.0013 -0.0146 -0.1460
  398TIP3    H1 1200   4.641   0.256   2.836 -1.5643  0.7269 -1.5727
  398TIP3    H2 1201   4.737   0.268   2.719 -1.5144  1.1739 -1.4884
  399TIP3   OH2 1202   0.587   2.369   4.139 -0.1552  0.5889  0.2292
  399TIP3    H1 1203   0.521   2.325   4.192  0.8207 -0.4638  0.6228
  399TIP3    H2 1204   0.647   2.299   4.113  0.6186  1.4581 -0.3797
  400TIP3   OH2 1205   1.315   3.607   2.521 -0.0688  0.1477  0.1694
  400TIP3    H1 1206   1.346   3.540   2.460  2.1668  0.4778  0.8192
  400TIP3    H2 1207   1.394   3.657   2.542 -1.4356  2.2393  0.6456
  401TIP3   OH2 1208   5.247   5.063   0.766  0.3496 -0.6355 -0.3533
  401TIP3    H1 1209   5.330   5.080   0.723  1.2629 -2.3505  0.5872
  401TIP3    H2 1210   5.203   5.148   0.770  2.4268  0.4945 -0.1240
  402TIP3   OH2 1211   6.390   3.300   1.877 -0.5889 -0.5181  0.2631
  402TIP3    H1 1212   6.361   3.348   1.955 -1.2469 -0.2985 -0.1093
  402TIP3    H2 1213   6.309   3.277   1.832 -0.1765  0.6577 -1.1431
  403TIP3   OH2 1214   6.192   2.472   0.283  0.2167  0.0858 -0.1865
  403TIP3    H1 1215   6.105   2.510   0.287  0.2598  0.1483  0.1892
  403TIP3    H2 1216   6.178   2.382   0.255  0.2121  0.7193 -2.4338
  404TIP3   OH2 1217   3.805   2.040   3.495  0.4424  0.0464  0.2759
  404TIP3    H1 1218   3.728   2.000   3.536 -0.0013 -0.6535 -1.1710
  404TIP3    H2 1219   3.847   1.967   3.448  0.9684  0.8075 -0.4493
  405TIP3   OH2 1220   0.687   1.389   3.400 -0.4722 -0.5430 -0.4191
  405TIP3    H1 1221   0.654   1.469   3.359  2.6010  0.8876 -0.4074
  405TIP3    H2 1222   0.611   1.331   3.405 -3.0113  2.5480  0.0948
  406TIP3   OH2 1223   5.119   1.200   2.103  0.2588  0.3865  0.3477
  406TIP3    H1 1224   5.160   1.178   2.019 -0.1012 -2.2558  0.7570
  406TIP3    H2 1225   5.127   1.120   2.155 -1.6590  1.1535  1.9671
  407TIP3   OH2 1226   2.115   3.692   0.949 -0.3155 -0.9056  0.2999
  407TIP3    H1 1227   2.102   3.621   0.887 -1.6253 -0.0438 -0.4514
  407TIP3    H2 1228   2.055   3.761   0.921 -0.5373 -0.2582  2.1779
  408TIP3   OH2 1229   1.590   2.517   3.582 -0.1736  0.3495  0.3841
  408TIP3    H1 1230   1.571   2.430   3.547 -2.0096  1.8025 -2.6247
  408TIP3    H2 1231   1.669   2.545   3.535 -0.3592  0.8258  0.3514
  409TIP3   OH2 1232   5.668   4.215   2.819 -0.6702  0.6239 -0.2591
  409TIP3    H1 1233   5.678   4.295   2.767  0.7741 -1.4768 -3.5036
  409TIP3    H2 1234   5.721   4.231   2.897  1.2167  2.1408 -1.7544
  410TIP3   OH2 1235   4.026   5.151   0.806  0.2039  0.3569  0.3608
  410TIP3    H1 1236   4.032   5.058   0.781  1.8006  0.5546 -0.1240
  410TIP3    H2 1237   3.979   5.192   0.734  1.3813  0.2612 -0.4958
  411TIP3   OH2 1238   4.873   4.278   3.132 -0.2861 -0.7201  0.2435
  411TIP3    H1 1239   4.780   4.270   3.150 -0.8342  2.1900 -0.7474
  411TIP3    H2 1240   4.888   4.222   3.056 -1.5635 -0.0918 -0.4970
  412TIP3   OH2 1241   0.932   5.717   4.784  0.1897 -0.0214  0.2499
  412TIP3    H1 1242   0.839   5.735   4.795  0.1329  0.2187 -0.5647
  412TIP3    H2 1243   0.961   5.684   4.869 -0.7084 -0.3961  0.4094
  413TIP3   OH2 1244   3.982   4.023   1.920  0.4428 -0.2417  0.8925
  413TIP3    H1 1245   4.069   4.017   1.881  0.7815 -0.3258  1.6573
  413TIP3    H2 1246   3.930   3.959   1.871  0.4643  0.7056 -0.4358
  414TIP3   OH2 1247   2.010   4.080   0.312 -0.1712 -0.2236  0.3331
  414TIP3    H1 1248   1.947   4.007   0.312 -1.6587  1.0055  0.1861
  414TIP3    H2 1249   2.049   4.078   0.225 -0.9370 -0.2586 -0.0170
  415TIP3   OH2 1250   5.233   1.318   0.318 -0.3988 -0.8839  0.3964
  415TIP3    H1 1251   5.220   1.375   0.393 -0.7874 -0.1379 -0.2286
  415TIP3    H2 1252   5.317   1.274   0.336  1.4962  2.0819 -0.4503
  416TIP3   OH2 1253   4.192   2.750   1.737 -0.5252 -0.0613 -0.2687
  416TIP3    H1 1254   4.141   2.764   1.658  0.5854  0.2742 -0.9402
  416TIP3    H2 1255   4.166   2.821   1.796 -1.4676 -0.4036 -0.2600
  417TIP3   OH2 1256   4.499   3.213   5.112  0.1216  0.1852  0.1249
  417TIP3    H1 1257   4.545   3.280   5.162 -1.3762 -0.6442  2.7992
  417TIP3    H2 1258   4.407   3.228   5.132 -0.3173 -2.0074 -0.0309
  418TIP3   OH2 1259   4.664   5.181   4.386 -0.1978  0.5151 -0.0517
  418TIP3    H1 1260   4.692   5.177   4.478 -2.3442 -0.1024  0.6128
  418TIP3    H2 1261   4.632   5.093   4.367 -1.6890  1.1866 -0.7490
  419TIP3   OH2 1262   2.503   0.107   2.053  0.5461 -0.5043 -0.0735
  419TIP3    H1 1263   2.466   0.164   2.120  0.9512  0.2793 -0.4967
  419TIP3    H2 1264   2.576   0.063   2.096  0.4425 -0.4511  0.1605
  420TIP3   OH2 1265   5.800   5.218   2.444 -1.0077  0.8193  0.2733
  420TIP3    H1 1266   5.800   5.139   2.497  0.4573  0.4788 -0.1898
  420TIP3    H2 1267   5.778   5.189   2.355  0.5209  0.7231 -0.1136
  421TIP3   OH2 1268   4.734   5.328   0.838 -0.6640  0.3073 -0.4912
  421TIP3    H1 1269   4.655   5.332   0.892 -0.6881 -2.6937 -0.1318
  421TIP3    H2 1270   4.789   5.264   0.882  0.6923  0.1320 -2.3645
  422TIP3   OH2 1271   3.792   4.038   3.632  0.2750  0.2696 -0.0060
  422TIP3    H1 1272   3.720   4.047   3.569 -0.3437 -2.3284  0.2028
  422TIP3    H2 1273   3.867   4.012   3.578  0.5804  1.1319 -0.0065
  423TIP3   OH2 1274   3.371   2.148   3.898  0.0592 -0.6415 -0.1163
  423TIP3    H1 1275   3.332   2.231   3.872 -1.2786 -1.3452 -0.4393
  423TIP3    H2 1276   3.398   2.162   3.989  0.6071  0.3870 -0.4149
  424TIP3   OH2 1277   4.137   0.497   2.160  0.5543  0.6636  0.1837
  424TIP3    H1 1278   4.203   0.457   2.217  0.1615 -2.4924 -1.3899
  424TIP3    H2 1279   4.187   0.529   2.085  0.3952 -2.4471 -1.3937
  425TIP3   OH2 1280   4.662   2.847   0.999 -0.0059  0.3373 -0.0040
  425TIP3    H1 1281   4.620   2.763   0.981 -0.9822  0.4707  1.4781
  425TIP3    H2 1282   4.612   2.910   0.947 -0.3549  0.2109  0.1706
  426TIP3   OH2 1283   3.533   1.702   1.472  0.2535 -0.3372 -0.4342
  426TIP3    H1 1284   3.534   1.797   1.468  0.2095 -0.3809 -1.6864
  426TIP3    H2 1285   3.446   1.677   1.441  0.3248 -0.7914 -0.2802
  427TIP3   OH2 1286   2.084   2.865   1.794 -0.0452  0.9061 -0.0032
  427TIP3    H1 1287   2.163   2.852   1.742 -1.4867  1.2067 -2.4125
  427TIP3    H2 1288   2.055   2.776   1.815  1.5217  0.7870  2.0137
  428TIP3   OH2 1289   5.734   2.950   4.366 -0.2280 -0.2446 -0.4953
  428TIP3    H1 1290   5.686   3.013   4.312  2.1940  0.0590 -2.4612
  428TIP3    H2 1291   5.788   2.901   4.304  0.9988 -1.4864  1.4400
  429TIP3   OH2 1292   4.963   0.147   2.870 -0.4844 -0.1978 -0.0015
  429TIP3    H1 1293   5.028   0.186   2.813 -1.3863 -0.5611 -1.3308
  429TIP3    H2 1294   4.985   0.054   2.871 -1.8123 -0.5915 -1.7080
  430TIP3   OH2 1295   4.002   5.033   2.340 -0.5148 -0.0282 -0.1805
  430TIP3    H1 1296   4.075   5.083   2.305  0.7709 -1.5995  0.1039
  430TIP3    H2 1297   3.960   4.994   2.264 -1.5465  1.4364 -0.4061
  431TIP3   OH2 1298   2.638   1.940   0.196 -0.1978  0.2048 -0.0341
  431TIP3    H1 1299   2.658   2.006   0.262 -0.8633  1.3227 -0.9138
  431TIP3    H2 1300   2.614   1.990   0.118 -0.2609 -1.0804 -0.8735
  432TIP3   OH2 1301   5.063   3.236   4.615  0.3005 -0.2079 -0.1990
  432TIP3    H1 1302   5.092   3.170   4.677 -1.1754 -1.0757 -0.3625
  432TIP3    H2 1303   5.139   3.292   4.600  1.1793 -1.0462  1.0114
  433TIP3   OH2 1304   3.231   2.966   3.873 -0.3432 -0.2645  0.0805
  433TIP3    H1 1305   3.138   2.955   3.890 -0.2928 -0.9003 -0.0326
  433TIP3    H2 1306   3.260   3.030   3.938 -0.9738  0.3748 -0.2545
  434TIP3   OH2 1307   1.125   3.081   1.290  0.3719 -0.1519 -0.1809
  434TIP3    H1 1308   1.132   3.030   1.209  0.8136 -1.0250  0.3871
  434TIP3    H2 1309   1.042   3.127   1.282  0.0020 -0.8920 -0.7683
  435TIP3   OH2 1310   4.437   1.326   4.980 -0.4452 -0.6735 -0.2455
  435TIP3    H1 1311   4.365   1.262   4.978 -0.5023 -0.6065 -0.3499
  435TIP3    H2 1312   4.478   1.319   4.894 -0.6091 -0.3913 -0.3470
  436TIP3   OH2 1313   2.981   4.746   3.637 -0.4942 -0.1767 -0.0214
  436TIP3    H1 1314   2.902   4.799   3.634  0.2672  1.0239  0.6131
  436TIP3    H2 1315   2.979   4.696   3.555 -1.6441  0.2073 -0.2408
  437TIP3   OH2 1316   5.988   2.055   3.831 -0.0030  0.0783  0.0159
  437TIP3    H1 1317   5.947   1.976   3.864 -0.0088 -1.0127 -2.3916
  437TIP3    H2 1318   6.047   2.025   3.762 -0.2099  2.1716 -1.1759
  438TIP3   OH2 1319   1.310   2.788   1.753  0.1505 -0.4396 -0.2220
  438TIP3    H1 1320   1.236   2.807   1.811  1.0343  1.0905  0.4701
  438TIP3    H2 1321   1.387   2.809   1.805  1.0714 -1.6509 -1.0596
  439TIP3   OH2 1322   3.444   1.523   1.855  0.1771 -0.3181 -0.0666
  439TIP3    H1 1323   3.516   1.487   1.802  0.3291  0.9347 -0.7648
  439TIP3    H2 1324   3.390   1.571   1.792 -0.9159 -0.7013  0.5630
  440TIP3   OH2 1325   4.796   0.933   2.490 -0.0890 -0.0924 -0.0206
  440TIP3    H1 1326   4.815   0.984   2.568 -0.5443  0.5084 -0.2884
  440TIP3    H2 1327   4.865   0.956   2.428 -2.1049  2.9740 -1.4079
  441TIP3   OH2 1328   2.538   3.652   0.358  0.2524  0.2597  0.1931
  441TIP3    H1 1329   2.542   3.727   0.298 -0.1806  0.8122  0.8340
  441TIP3    H2 1330   2.498   3.582   0.306 -1.5716  1.1806  0.2520
  442TIP3   OH2 1331   5.547   4.248   0.727 -0.6107 -0.0853 -0.5944
  442TIP3    H1 1332   5.556   4.233   0.821 -0.0425 -1.1685 -0.8079
  442TIP3    H2 1333   5.593   4.174   0.686 -0.7390  0.4359 -1.7215
  443TIP3   OH2 1334   4.094   3.654   4.808 -0.4417  0.0469  0.4935
  443TIP3    H1 1335   4.051   3.602   4.741 -0.8395 -0.9394  1.4869
  443TIP3    H2 1336   4.034   3.726   4.825 -0.1624  0.5197 -0.4680
  444TIP3   OH2 1337   5.764   5.966   3.625 -0.2388  0.0845 -0.0004
  444TIP3    H1 1338   5.826   5.915   3.573 -0.2029 -0.7250  0.8174
  444TIP3    H2 1339   5.684   5.914   3.626 -0.8337  0.9316 -0.6996
  445TIP3   OH2 1340   2.772   5.341   4.989 -0.7172  0.1340  0.5635
  445TIP3    H1 1341   2.767   5.295   4.905 -0.9732  0.6723  0.2812
  445TIP3    H2 1342   2.736   5.428   4.971  0.1640  0.6009  0.9830
  446TIP3   OH2 1343   0.284   2.677   4.925 -0.4802 -0.3427  0.0132
  446TIP3    H1 1344   0.273   2.721   5.009 -1.7672 -1.1858  0.3212
  446TIP3    H2 1345   0.322   2.592   4.948  2.0986  0.5654 -0.5845
  447TIP3   OH2 1346   1.879   2.646   2.456  0.2315  0.1069  0.2174
  447TIP3    H1 1347   1.825   2.652   2.378 -0.4604  1.2514  0.7487
  447TIP3    H2 1348   1.954   2.593   2.430 -0.0402  0.3802 -1.1873
  448TIP3   OH2 1349   5.120   1.509   1.204 -0.3226 -0.5675 -0.1430
  448TIP3    H1 1350   5.153   1.464   1.126 -1.0667 -0.7250 -0.3702
  448TIP3    H2 1351   5.058   1.447   1.243  0.7710 -0.9211  1.1377
  449TIP3   OH2 1352   0.357   5.117   3.927 -0.4909  0.2174  0.3968
  449TIP3    H1 1353   0.270   5.152   3.909 -0.6006 -0.0963  0.3090
  449TIP3    H2 1354   0.383   5.156   4.010 -0.8218  0.1164  0.5491
  450TIP3   OH2 1355   4.312   2.848   5.018  0.6348  0.1584  0.1372
  450TIP3    H1 1356   4.254   2.922   4.998  0.6410 -0.1145 -0.9691
  450TIP3    H2 1357   4.382   2.854   4.953  1.3648 -0.0422  0.8928
  451TIP3   OH2 1358   0.672   1.698   1.123  0.5749  0.5893  0.1246
  451TIP3    H1 1359   0.760   1.702   1.086  0.7166 -1.3509  0.1870
  451TIP3    H2 1360   0.617   1.668   1.051  0.0961  1.0136  0.3071
  452TIP3   OH2 1361   1.847   3.567   4.908 -0.4646  0.0097  0.5449
  452TIP3    H1 1362   1.929   3.609   4.934  0.3708 -1.5426  0.5281
  452TIP3    H2 1363   1.793   3.570   4.987 -0.4453  1.1105  0.5364
  453TIP3   OH2 1364   3.649   2.868   0.847  0.1098  0.0745  0.1769
  453TIP3    H1 1365   3.617   2.786   0.810 -0.3536  1.2060 -2.0966
  453TIP3    H2 1366   3.744   2.857   0.850 -0.0203 -0.9541  0.9919
  454TIP3   OH2 1367   2.755   2.649   1.870  0.3548 -0.1462 -0.3301
  454TIP3    H1 1368   2.700   2.598   1.928  3.1203 -2.2624  0.6751
  454TIP3    H2 1369   2.800   2.711   1.928 -0.0657  0.7381 -0.9331
  455TIP3   OH2 1370   3.317   3.621   0.105  0.2931  0.5357 -0.7268
  455TIP3    H1 1371   3.310   3.618   0.010  0.3942 -0.0591 -0.7233
  455TIP3    H2 1372   3.315   3.529   0.132 -0.2203  0.7132 -0.1172
  456TIP3   OH2 1373   0.643   4.304   3.001  0.2652 -0.6337 -0.2329
  456TIP3    H1 1374   0.567   4.362   3.009  0.5217 -0.5119  1.8699
  456TIP3    H2 1375   0.718   4.363   3.004  0.5025 -0.9559  1.2353
  457TIP3   OH2 1376   1.219   2.950   4.049  0.4169 -0.2618 -0.2388
  457TIP3    H1 1377   1.297   2.919   4.097  0.9770  0.2827 -0.7732
  457TIP3    H2 1378   1.231   2.917   3.960 -0.1130 -0.4184 -0.2521
  458TIP3   OH2 1379   0.898   1.283   4.800 -0.0233  0.7624 -0.0523
  458TIP3    H1 1380   0.873   1.240   4.882  0.6672 -0.1383 -0.2952
  458TIP3    H2 1381   0.993   1.268   4.794 -0.3830 -1.1353 -2.1125
  459TIP3   OH2 1382   5.079   1.695   1.592  0.1296  0.0510  0.0846
  459TIP3    H1 1383   5.038   1.622   1.638  0.9818 -0.5479 -0.0863
  459TIP3    H2 1384   5.061   1.678   1.500  1.7505 -0.8776 -0.0992
  460TIP3   OH2 1385   0.454   0.220   4.074 -0.2773  0.6111  0.0557
  460TIP3    H1 1386   0.513   0.185   4.007  0.9420  0.9583  0.9294
  460TIP3    H2 1387   0.374   0.169   4.063  0.4280 -0.3838 -0.6694
  461TIP3   OH2 1388   4.914   1.491   1.523  0.2530  0.1766  0.0029
  461TIP3    H1 1389   4.847   1.472   1.589 -0.2272 -1.7149 -0.9461
  461TIP3    H2 1390   4.871   1.549   1.460 -0.2378 -0.3689 -0.1702
  462TIP3   OH2 1391   3.337   3.348   0.098  0.1104 -0.1036 -0.3770
  462TIP3    H1 1392   3.255   3.341   0.050  0.0281 -0.5815 -0.1780
  462TIP3    H2 1393   3.364   3.257   0.113 -0.2723  0.0024  1.1758
  463TIP3   OH2 1394   5.105   3.753   1.171 -0.0537 -0.0073  0.1563
  463TIP3    H1 1395   5.134   3.834   1.213  0.5663 -0.9080  1.5462
  463TIP3    H2 1396   5.022   3.732   1.215 -0.4597  0.1030 -0.5365
  464TIP3   OH2 1397   5.419   1.304   2.100 -0.2525 -0.3440  0.0822
  464TIP3    H1 1398   5.438   1.229   2.044 -2.9562  0.3157 -1.9166
  464TIP3    H2 1399   5.385   1.266   2.181 -2.8406 -1.3882 -1.3932
  465TIP3   OH2 1400   0.664   4.754   3.757  0.4314  0.4916  0.0559
  465TIP3    H1 1401   0.635   4.666   3.733 -0.0432 -0.0105  2.2316
  465TIP3    H2 1402   0.743   4.769   3.704  0.0697 -0.9000 -0.9323
  466TIP3   OH2 1403   0.290   2.055   4.870 -0.5733  0.4347  0.0248
  466TIP3    H1 1404   0.255   2.132   4.914 -1.1781  0.5456 -0.6224
  466TIP3    H2 1405   0.375   2.083   4.836 -1.1279  1.0736 -0.8824
  467TIP3   OH2 1406   2.327   1.775   1.534  0.0829  0.3535 -0.3745
  467TIP3    H1 1407   2.264   1.792   1.464  0.0673  0.6292 -0.2953
  467TIP3    H2 1408   2.410   1.761   1.489 -0.3045 -1.5305 -0.5931
  468TIP3   OH2 1409   4.320   3.706   3.200 -0.4867 -0.7105  0.5594
  468TIP3    H1 1410   4.291   3.726   3.111 -1.5897 -3.5854  0.1828
  468TIP3    H2 1411   4.414   3.691   3.192 -0.4946 -0.4828 -0.0147
  469TIP3   OH2 1412   2.689   5.334   2.919  0.3232  0.2505  0.3382
  469TIP3    H1 1413   2.684   5.250   2.872  0.0902  0.1205  0.5931
  469TIP3    H2 1414   2.705   5.399   2.851 -0.8107  0.1671 -0.0144
  470TIP3   OH2 1415   4.821   0.157   4.289 -0.7652  0.0527 -0.1552
  470TIP3    H1 1416   4.753   0.156   4.356 -1.0427  0.8782 -0.4113
  470TIP3    H2 1417   4.893   0.206   4.328 -0.7467  0.1325 -0.2884
  471TIP3   OH2 1418   3.112   2.247   4.537 -0.2149 -0.0553  0.2596
  471TIP3    H1 1419   3.050   2.229   4.608 -1.4865 -0.8824 -1.0048
  471TIP3    H2 1420   3.059   2.286   4.468  0.7382 -0.4461 -0.7208
  472TIP3   OH2 1421   5.749   0.077   4.304 -0.1236 -0.2054 -0.1752
  472TIP3    H1 1422   5.726   0.018   4.232  2.6005 -2.3880  0.5801
  472TIP3    H2 1423   5.804   0.144   4.264  0.8769 -1.0704 -0.3070
  473TIP3   OH2 1424   0.358   0.559   0.660 -0.1267  0.0597 -0.0721
  473TIP3    H1 1425   0.336   0.506   0.584  1.0605  1.0457 -1.1513
  473TIP3    H2 1426   0.440   0.602   0.637 -1.2263  2.7220  0.5298
  474TIP3   OH2 1427   4.791   1.001   1.943 -0.8129  0.0309 -0.4347
  474TIP3    H1 1428   4.737   0.952   2.006 -0.5978 -0.5078 -0.6619
  474TIP3    H2 1429   4.804   0.940   1.870 -0.0594  0.2227 -0.4699
  475TIP3   OH2 1430   1.229   5.846   3.814  0.4417 -0.3100  0.3189
  475TIP3    H1 1431   1.208   5.907   3.744 -0.0774 -0.6766  0.1508
  475TIP3    H2 1432   1.145   5.828   3.857  0.1323 -2.7348 -1.1150
  476TIP3   OH2 1433   4.529   3.557   4.629 -0.4750  0.1496 -0.5279
  476TIP3    H1 1434   4.468   3.546   4.702  0.7235 -0.6777  0.4048
  476TIP3    H2 1435   4.615   3.560   4.671  0.5878 -3.4431 -2.0336
  477TIP3   OH2 1436   0.094   3.581   3.021  0.5676  0.2321 -0.1769
  477TIP3    H1 1437   0.177   3.536   3.038  0.2469 -0.4250 -0.3336
  477TIP3    H2 1438   0.119   3.673   3.009  1.2109  0.1260  0.2854
  478TIP3   OH2 1439   5.641   4.917   2.293  0.3891 -0.3730  0.5788
  478TIP3    H1 1440   5.681   4.841   2.249  1.8199  0.1626  0.9127
  478TIP3    H2 1441   5.614   4.884   2.378  0.6463 -0.6167  0.5690
  479TIP3   OH2 1442   3.045   3.162   3.065  0.3714  0.4352  0.0695
  479TIP3    H1 1443   3.067   3.172   2.973  0.4854  2.2611  0.2494
  479TIP3    H2 1444   3.125   3.132   3.106  1.0692  1.9621 -0.0906
  480TIP3   OH2 1445   0.717   4.329   0.939 -0.0654 -0.0594 -0.0922
  480TIP3    H1 1446   0.763   4.267   0.996 -1.2773 -1.8301 -0.9356
  480TIP3    H2 1447   0.640   4.356   0.990  0.2124  0.3805  0.0943
  481TIP3   OH2 1448   3.469   5.391   0.646 -0.2448 -0.1120  0.2512
  481TIP3    H1 1449   3.430   5.315   0.602  0.1225  0.2946 -0.8116
  481TIP3    H2 1450   3.495   5.449   0.575 -0.2683  0.8961  1.0425
  482TIP3   OH2 1451   1.725   3.086   2.121  0.1102 -0.4062  0.3452
  482TIP3    H1 1452   1.751   3.084   2.213  2.5515  1.2891 -0.2042
  482TIP3    H2 1453   1.684   3.001   2.106  0.7638 -1.2286  2.6707
  483TIP3   OH2 1454   1.468   2.689   0.423 -0.3750 -0.0241  0.5288
  483TIP3    H1 1455   1.414   2.761   0.388 -0.9042 -0.6861 -0.0590
  483TIP3    H2 1456   1.523   2.663   0.350 -0.8714 -0.8484  0.4385
  484TIP3   OH2 1457   5.738   1.888   2.860  0.3427  0.0076 -0.4034
  484TIP3    H1 1458   5.682   1.818   2.894  0.9073 -0.2171  0.0794
  484TIP3    H2 1459   5.761   1.940   2.937 -1.7629  1.9997 -1.0198
  485TIP3   OH2 1460   1.293   3.880   3.301  0.4653 -0.0801  0.7611
  485TIP3    H1 1461   1.308   3.925   3.218  0.3843 -0.8802  0.3069
  485TIP3    H2 1462   1.326   3.792   3.287  1.2511  0.0209  1.8666
  486TIP3   OH2 1463   2.944   1.141   2.336  0.3858 -0.0492 -0.1360
  486TIP3    H1 1464   2.999   1.133   2.258 -0.8369 -0.7809 -0.9748
  486TIP3    H2 1465   2.861   1.100   2.310  0.0367 -0.5400  1.6571
  487TIP3   OH2 1466   0.331   2.059   1.541  0.1172 -0.7923 -0.0879
  487TIP3    H1 1467   0.278   2.084   1.465 -1.1168 -0.9665  0.6909
  487TIP3    H2 1468   0.297   1.973   1.566  2.8692 -2.4246 -1.4504
  488TIP3   OH2 1469   0.535   5.899   2.402 -0.5062 -0.1455  0.5156
  488TIP3    H1 1470   0.558   5.966   2.338  1.9225  1.8515  3.2171
  488TIP3    H2 1471   0.618   5.879   2.446 -2.1146 -0.9160  3.4517
  489TIP3   OH2 1472   5.439   5.796   4.408  0.5910 -0.2656 -0.2587
  489TIP3    H1 1473   5.447   5.764   4.318  0.6858 -0.8173 -0.0582
  489TIP3    H2 1474   5.345   5.794   4.426  0.7345 -5.2288  1.4037
  490TIP3   OH2 1475   4.109   5.845   0.305  0.3487  0.3033 -0.2063
  490TIP3    H1 1476   4.122   5.837   0.210  0.6284  0.6049 -0.1918
  490TIP3    H2 1477   4.033   5.788   0.323 -0.4551  1.1666 -0.7902
  491TIP3   OH2 1478   2.383   2.344   2.336  0.1105  0.4321  0.5029
  491TIP3    H1 1479   2.467   2.333   2.292 -0.4069 -2.2921  0.0419
  491TIP3    H2 1480   2.325   2.377   2.268  0.3112  0.3044  0.2684
  492TIP3   OH2 1481   5.081   4.888   0.874 -0.2022  0.7226 -0.0551
  492TIP3    H1 1482   5.137   4.958   0.842  1.2483  0.5019  1.8245
  492TIP3    H2 1483   5.117   4.865   0.959 -0.2620 -2.7006 -0.7930
  493TIP3   OH2 1484   4.731   1.530   0.030  0.6386 -0.2775  0.0572
  493TIP3    H1 1485   4.822   1.503   0.030  0.3419 -1.4250 -1.8727
  493TIP3    H2 1486   4.734   1.625   0.018  1.5538 -0.2096  0.6812
  494TIP3   OH2 1487   0.840   3.285   0.418  0.2672  0.5510 -0.8601
  494TIP3    H1 1488   0.882   3.360   0.375 -1.6424  2.5140  0.4501
  494TIP3    H2 1489   0.806   3.321   0.500 -0.7527 -1.7821 -0.1754
  495TIP3   OH2 1490   1.160   5.934   5.094 -0.0576  0.6519 -0.1425
  495TIP3    H1 1491   1.068   5.911   5.107  0.5637 -3.0298 -1.1296
  495TIP3    H2 1492   1.167   5.955   5.001  0.4217 -1.3671 -0.6050
  496TIP3   OH2 1493   2.606   4.124   1.597 -0.0506 -0.6004 -0.1909
  496TIP3    H1 1494   2.602   4.134   1.502 -2.2265 -0.9425 -0.1694
  496TIP3    H2 1495   2.677   4.062   1.612  0.9702  0.2020 -1.5087
  497TIP3   OH2 1496   1.189   0.967   0.215 -0.0452 -0.2838 -0.1858
  497TIP3    H1 1497   1.179   0.873   0.201  1.5420 -0.3564 -1.1036
  497TIP3    H2 1498   1.250   0.974   0.289  2.0580 -0.0850 -1.8176
  498TIP3   OH2 1499   4.449   2.997   4.298  0.2148  0.0673  0.3534
  498TIP3    H1 1500   4.389   3.061   4.336  1.8167  1.9977 -0.1986
  498TIP3    H2 1501   4.426   2.914   4.340 -0.4152  1.4243  2.8670
  499TIP3   OH2 1502   5.820   1.286   0.425 -0.0644 -0.4878  0.0454
  499TIP3    H1 1503   5.738   1.245   0.453 -0.2526 -0.7684 -0.8730
  499TIP3    H2 1504   5.794   1.371   0.389  0.3571  0.6272  2.2083
  500TIP3   OH2 1505   6.193   4.591   4.169  0.1857  0.9175 -0.0810
  500TIP3    H1 1506   6.271   4.608   4.117  0.7265  0.2685  0.4871
  500TIP3    H2 1507   6.173   4.498   4.154 -0.4984  1.0838 -0.2462
  501TIP3   OH2 1508   4.775   2.669   4.293  0.1315  0.4894  0.3831
  501TIP3    H1 1509   4.685   2.691   4.266  0.4781 -0.4101 -1.6753
  501TIP3    H2 1510   4.789   2.581   4.260  2.1052  0.9802 -0.2096
  502TIP3   OH2 1511   5.151   2.182   2.556 -0.1457  0.6848 -0.2233
  502TIP3    H1 1512   5.113   2.162   2.470 -0.9349  3.1417 -0.5305
  502TIP3    H2 1513   5.183   2.098   2.588 -3.5118 -1.1145 -1.0922
  503TIP3   OH2 1514   4.605   4.868   2.911 -0.8955  0.2875 -0.2384
  503TIP3    H1 1515   4.641   4.956   2.914 -1.3138  0.4261  0.8346
  503TIP3    H2 1516   4.529   4.870   2.969  0.7853 -1.5336  2.2609
  504TIP3   OH2 1517   0.935   3.667   3.040  0.0522 -0.0953  0.0200
  504TIP3    H1 1518   0.898   3.657   2.953  0.5161 -0.7404 -0.1145
  504TIP3    H2 1519   0.860   3.671   3.099 -0.3000  1.5367 -0.5118
  505TIP3   OH2 1520   0.874   1.112   3.694  0.4299 -0.4356  0.0410
  505TIP3    H1 1521   0.794   1.091   3.742  0.1894 -0.1006 -0.2141
  505TIP3    H2 1522   0.904   1.028   3.660  1.6746 -1.0337  2.4000
  506TIP3   OH2 1523   1.640   1.061   0.615  0.6037  0.1254  0.5545
  506TIP3    H1 1524   1.695   1.132   0.646 -2.3534  2.9671 -0.1758
  506TIP3    H2 1525   1.619   1.011   0.693 -1.3147  3.1918  2.1925
  507TIP3   OH2 1526   1.294   4.939   1.830 -0.0938  0.5567  0.0256
  507TIP3    H1 1527   1.357   4.906   1.894  0.2904  0.1778 -0.5370
  507TIP3    H2 1528   1.327   4.907   1.746 -0.0916  1.7860 -0.4617
  508TIP3   OH2 1529   1.432   1.322   1.206  0.5276 -0.3054  0.0196
  508TIP3    H1 1530   1.486   1.267   1.263 -0.6607 -1.9002 -0.3290
  508TIP3    H2 1531   1.466   1.306   1.118  0.6120  0.0574 -0.0161
  509TIP3   OH2 1532   4.133   5.635   1.586  0.0811 -0.2051  0.2348
  509TIP3    H1 1533   4.052   5.663   1.544  0.1304 -0.2205  0.1299
  509TIP3    H2 1534   4.187   5.713   1.590  1.2105 -0.7504 -2.2817
  510TIP3   OH2 1535   0.772   2.390   2.561  0.0150 -0.0398  0.2908
  510TIP3    H1 1536   0.830   2.370   2.487 -1.1082  0.3979 -0.7456
  510TIP3    H2 1537   0.686   2.362   2.532 -0.7516  1.7108  0.7498
  511TIP3   OH2 1538   5.124   5.344   1.217  0.3838  0.0296 -0.3969
  511TIP3    H1 1539   5.044   5.294   1.232  0.4616  0.1184  0.3434
  511TIP3    H2 1540   5.143   5.385   1.301  1.2733 -0.0917 -0.5257
  512TIP3   OH2 1541   2.556   1.352   3.984  0.3174  0.3552 -0.2428
  512TIP3    H1 1542   2.496   1.302   4.040 -0.0087  1.6922  0.6524
  512TIP3    H2 1543   2.556   1.305   3.901  1.3116 -2.0966  1.0228
  513TIP3   OH2 1544   5.186   4.912   1.189  0.6071 -0.1052  0.4971
  513TIP3    H1 1545   5.250   4.975   1.156  0.3077  0.0346  0.1729
  513TIP3    H2 1546   5.223   4.826   1.170  0.0885 -0.0439 -0.9474
  514TIP3   OH2 1547   2.023   3.197   2.114  0.0366  0.2856  0.2616
  514TIP3    H1 1548   2.009   3.105   2.136 -2.7047  0.2010 -1.3249
  514TIP3    H2 1549   2.032   3.240   2.199  0.8010 -1.3482  1.0573
  515TIP3   OH2 1550   5.346   3.637   0.713 -0.7680  0.4455  0.4231
  515TIP3    H1 1551   5.336   3.662   0.805 -0.3388 -0.5752  0.7728
  515TIP3    H2 1552   5.437   3.606   0.707 -0.8465  0.3382 -0.3009
  516TIP3   OH2 1553   0.618   2.919   2.625 -0.1179 -0.0001  0.1361
  516TIP3    H1 1554   0.614   2.851   2.558 -1.0466  1.1528 -1.0336
  516TIP3    H2 1555   0.532   2.959   2.623 -0.0549  0.2851  1.8241
  517TIP3   OH2 1556   5.402   5.175   1.283 -0.1695 -0.2380  0.4888
  517TIP3    H1 1557   5.456   5.237   1.332 -0.8091  1.5459 -0.9404
  517TIP3    H2 1558   5.328   5.156   1.340 -0.1435  0.6161  0.8245
  518TIP3   OH2 1559   3.560   0.278   5.048 -0.2360  0.6025  0.1076
  518TIP3    H1 1560   3.466   0.280   5.065 -0.3087  2.5940 -0.3429
  518TIP3    H2 1561   3.568   0.224   4.969 -0.9414  0.0171  0.4242
  519TIP3   OH2 1562   5.196   4.656   0.196 -0.1477 -0.1270  0.5436
  519TIP3    H1 1563   5.148   4.735   0.222 -0.0494  0.1471 -0.0872
  519TIP3    H2 1564   5.186   4.596   0.270 -1.9218 -0.2933  0.2073
  520TIP3   OH2 1565   4.555   3.760   5.094  0.1572  0.0204 -0.0618
  520TIP3    H1 1566   4.561   3.670   5.062  1.0738 -0.0857  0.3810
  520TIP3    H2 1567   4.503   3.806   5.027  0.9503 -0.4949 -1.0610
  521TIP3   OH2 1568   1.199   0.298   3.484  0.5516  0.4087  0.0017
  521TIP3    H1 1569   1.119   0.338   3.451  0.6271 -1.2484 -2.4338
  521TIP3    H2 1570   1.170   0.235   3.550 -0.2070 -0.3203 -1.0034
  522TIP3   OH2 1571   3.512   1.736   0.166  0.2535 -0.3334 -0.3602
  522TIP3    H1 1572   3.568   1.658   0.169 -0.3726 -0.7915 -0.0936
  522TIP3    H2 1573   3.436   1.711   0.219 -0.6414 -0.0879 -1.4966
  523TIP3   OH2 1574   3.519   2.607   0.900  0.2795 -0.1022 -0.1540
  523TIP3    H1 1575   3.579   2.640   0.967  1.5479 -0.5408 -1.0523
  523TIP3    H2 1576   3.460   2.549   0.948  0.8843 -0.0550  0.6701
  524TIP3   OH2 1577   0.334   0.229   2.418 -0.2907 -0.5282  0.2443
  524TIP3    H1 1578   0.309   0.137   2.413 -0.5756 -0.5743  2.0512
  524TIP3    H2 1579   0.299   0.259   2.501  1.6303  0.6591  0.6863
  525TIP3   OH2 1580   5.203   0.535   2.076 -0.4679  0.1139 -0.2214
  525TIP3    H1 1581   5.285   0.486   2.065 -0.4475  0.2628 -0.7652
  525TIP3    H2 1582   5.152   0.512   1.998 -1.1672 -0.4039  0.3779
  526TIP3   OH2 1583   3.574   2.930   3.804  0.4182  0.2620  0.7076
  526TIP3    H1 1584   3.505   2.917   3.739  0.2719 -1.2018  1.1380
  526TIP3    H2 1585   3.531   2.977   3.875 -0.5557 -1.8946  1.6131
  527TIP3   OH2 1586   1.407   4.532   2.821 -0.9379  0.2777  0.1103
  527TIP3    H1 1587   1.341   4.483   2.869  0.1751  0.3065  1.7400
  527TIP3    H2 1588   1.376   4.530   2.730 -1.5012 -2.5239  0.2500
  528TIP3   OH2 1589   2.258   4.719   0.418  0.5720  0.5899 -0.1446
  528TIP3    H1 1590   2.303   4.693   0.337  1.3306  3.0197 -0.5998
  528TIP3    H2 1591   2.286   4.810   0.432 -1.5623  1.0758  1.4585
  529TIP3   OH2 1592   3.417   0.296   2.810  0.2967 -0.6585  0.1371
  529TIP3    H1 1593   3.481   0.368   2.813  0.9978 -1.2635 -0.0504
  529TIP3    H2 1594   3.426   0.252   2.894 -0.8568  0.0634  0.6701
  530TIP3   OH2 1595   2.135   3.850   3.780  1.2160  0.2821 -0.0138
  530TIP3    H1 1596   2.162   3.940   3.763  0.1913  0.3548 -1.4561
  530TIP3    H2 1597   2.102   3.818   3.695 -1.1430 -0.4799  1.0955
  531TIP3   OH2 1598   1.295   4.044   1.596 -0.1943 -0.2310 -0.2454
  531TIP3    H1 1599   1.224   4.005   1.646  0.0198 -0.1264  0.1468
  531TIP3    H2 1600   1.350   3.970   1.570  0.1724 -0.2093  0.4370
  532TIP3   OH2 1601   3.953   5.703   1.191  0.1778 -0.0232 -0.2336
  532TIP3    H1 1602   3.941   5.759   1.268 -0.4988  1.1585 -1.1587
  532TIP3    H2 1603   3.872   5.712   1.142  1.3845  1.0077 -2.1746
  533TIP3   OH2 1604   2.868   5.144   4.472  0.8137 -0.2791 -0.2013
  533TIP3    H1 1605   2.858   5.063   4.422  2.2243 -0.9717  0.5741
  533TIP3    H2 1606   2.900   5.208   4.408  1.7750 -0.9274 -0.3859
  534TIP3   OH2 1607   6.308   5.218   2.795  0.6688  0.3958  0.0727
  534TIP3    H1 1608   6.251   5.141   2.787  1.1069 -0.1161  1.5324
  534TIP3    H2 1609   6.251   5.292   2.776  0.2281 -0.2707 -1.3364
  535TIP3   OH2 1610   5.195   5.066   4.297  0.5830 -0.1216 -0.0579
  535TIP3    H1 1611   5.199   5.115   4.379  0.6134  1.6960 -1.1004
  535TIP3    H2 1612   5.281   5.080   4.256  0.7881 -1.5034 -0.1635
  536TIP3   OH2 1613   3.299   3.423   1.330 -0.1570 -0.6238 -0.1095
  536TIP3    H1 1614   3.219   3.470   1.353 -0.9849 -1.5294 -0.9845
  536TIP3    H2 1615   3.319   3.453   1.241 -1.6696 -3.0386 -1.3864
  537TIP3   OH2 1616   0.285   4.693   4.895  0.1454 -0.1153 -0.5414
  537TIP3    H1 1617   0.283   4.633   4.970  1.8882  1.5301  0.9315
  537TIP3    H2 1618   0.194   4.703   4.869 -0.4216 -1.3576  0.8508
  538TIP3   OH2 1619   5.979   4.560   5.214  0.1898  0.2363  0.0197
  538TIP3    H1 1620   6.012   4.647   5.191 -1.5089  0.9245  0.0998
  538TIP3    H2 1621   5.934   4.530   5.135  0.2142 -0.3144  0.2130
  539TIP3   OH2 1622   3.781   4.865   0.980  0.4336 -0.2064 -0.5297
  539TIP3    H1 1623   3.735   4.796   1.029 -0.1720  0.0716 -0.6997
  539TIP3    H2 1624   3.873   4.841   0.987  0.2943 -0.6006  0.0883
  540TIP3   OH2 1625   5.819   1.544   5.136 -0.4605  0.2210 -0.1985
  540TIP3    H1 1626   5.755   1.472   5.131  0.9911 -1.2105  0.7380
  540TIP3    H2 1627   5.868   1.538   5.054  0.1396 -0.3629  0.1914
  541TIP3   OH2 1628   4.131   1.692   0.133  0.3830  0.1792  0.1682
  541TIP3    H1 1629   4.158   1.652   0.216 -0.0120 -1.0790 -0.2836
  541TIP3    H2 1630   4.037   1.708   0.143  0.2823 -0.2012 -0.1013
  542TIP3   OH2 1631   2.732   5.815   2.687 -0.3053  0.7045  0.2696
  542TIP3    H1 1632   2.650   5.864   2.684  0.5799  2.2373  0.0471
  542TIP3    H2 1633   2.797   5.874   2.649  0.7212 -0.8829 -0.5786
  543TIP3   OH2 1634   3.176   3.544   2.595 -0.3310  0.2561  0.3871
  543TIP3    H1 1635   3.161   3.527   2.502  1.8954 -2.8921  0.4647
  543TIP3    H2 1636   3.251   3.604   2.596  0.3797 -0.6004  0.0992
  544TIP3   OH2 1637   2.993   3.982   1.386  0.9230  0.6584 -0.2959
  544TIP3    H1 1638   3.040   4.061   1.413 -0.4443  1.4594 -0.1484
  544TIP3    H2 1639   2.987   3.990   1.291 -2.1655  2.6013 -0.1080
  545TIP3   OH2 1640   0.327   3.610   5.076  0.6923 -0.0227  0.0577
  545TIP3    H1 1641   0.286   3.667   5.141  1.5311 -1.1735  1.6846
  545TIP3    H2 1642   0.402   3.660   5.044  0.3158  0.5353  0.0463
  546TIP3   OH2 1643   4.341   5.120   0.654 -0.4194  0.3018  0.4931
  546TIP3    H1 1644   4.393   5.196   0.627  0.2839 -0.3144  0.0824
  546TIP3    H2 1645   4.340   5.125   0.750 -1.3134  1.4356  0.4463
  547TIP3   OH2 1646   4.057   4.777   1.056  0.5876  0.0250 -0.4454
  547TIP3    H1 1647   4.129   4.727   1.016  0.9411  0.4781 -0.3798
  547TIP3    H2 1648   4.091   4.866   1.065  0.6980 -0.1624  1.3266
  548TIP3   OH2 1649   5.644   1.563   2.672 -0.0754  0.0212  0.0109
  548TIP3    H1 1650   5.682   1.625   2.610 -0.5955 -0.0257 -0.3548
  548TIP3    H2 1651   5.643   1.610   2.756 -0.7341  0.6172 -0.3206
  549TIP3   OH2 1652   4.369   0.084   4.551  0.1160  0.7792  0.4348
  549TIP3    H1 1653   4.452   0.088   4.504 -0.2536  1.5011 -0.1861
  549TIP3    H2 1654   4.369  -0.001   4.594  0.9105  0.5314 -0.0439
  550TIP3   OH2 1655   6.250   4.996   1.840 -0.7248 -0.0411 -0.4667
  550TIP3    H1 1656   6.294   5.078   1.861 -0.2880 -0.1563 -0.9399
  550TIP3    H2 1657   6.164   5.023   1.808 -1.5183  0.1456  1.6367
  551TIP3   OH2 1658   1.225   5.253   4.688  0.0214 -0.1160 -0.1251
  551TIP3    H1 1659   1.307   5.267   4.734  0.2539  1.2006 -0.8743
  551TIP3    H2 1660   1.226   5.161   4.664 -1.5467 -1.8472  5.1127
  552TIP3   OH2 1661   2.397   5.860   4.010 -0.4576 -0.3745  0.3527
  552TIP3    H1 1662   2.460   5.893   3.946 -0.3575  1.3417  1.2771
  552TIP3    H2 1663   2.314   5.860   3.963 -0.5034  1.4768  0.3520
  553TIP3   OH2 1664   6.101   5.150   2.547 -0.6282  0.1888  0.3119
  553TIP3    H1 1665   6.159   5.074   2.544  0.8367  1.2946 -1.2249
  553TIP3    H2 1666   6.023   5.119   2.592 -0.3669 -2.4174 -0.8660
  554TIP3   OH2 1667   5.530   0.232   2.162  0.0557  0.5833 -0.4376
  554TIP3    H1 1668   5.520   0.313   2.113  0.3395 -0.3646 -2.1414
  554TIP3    H2 1669   5.560   0.168   2.097 -1.9910 -1.3693  0.4026
  555TIP3   OH2 1670   3.648   1.636   3.240 -0.0667  0.0226 -0.3113
  555TIP3    H1 1671   3.666   1.620   3.147 -0.3285 -0.6119 -0.2550
  555TIP3    H2 1672   3.563   1.682   3.239 -1.4128 -2.3281 -0.2714
  556TIP3   OH2 1673   4.097   3.951   4.997 -0.0579  0.2200 -0.6599
  556TIP3    H1 1674   4.034   3.913   5.058 -0.4012 -2.2987 -2.4401
  556TIP3    H2 1675   4.179   3.956   5.047 -0.8365  0.3110  0.6432
  557TIP3   OH2 1676   0.289   4.956   2.201  0.3184 -0.3561 -0.5406
  557TIP3    H1 1677   0.306   5.022   2.134  0.3987 -2.2423 -2.5068
  557TIP3    H2 1678   0.370   4.952   2.252  1.3627 -0.8176 -2.1631
  558TIP3   OH2 1679   6.165   4.984   2.864  0.4775 -0.4814  0.0156
  558TIP3    H1 1680   6.141   4.929   2.790 -0.4152 -1.4311  0.9673
  558TIP3    H2 1681   6.199   4.922   2.929  1.0452  0.3013  0.4742
  559TIP3   OH2 1682   1.951   0.219   5.008 -0.6851 -0.3157 -0.0352
  559TIP3    H1 1683   1.886   0.229   4.938 -2.7501 -0.7307  1.7114
  559TIP3    H2 1684   1.927   0.286   5.071  0.1289 -0.9899  1.0083
  560TIP3   OH2 1685   0.133   2.464   4.465  0.1755  0.4978  0.0918
  560TIP3    H1 1686   0.111   2.471   4.558  0.2495  1.2271  0.0629
  560TIP3    H2 1687   0.179   2.545   4.445 -1.1769  1.0618 -0.9396
  561TIP3   OH2 1688   3.361   2.294   4.367  0.0029  0.3942 -0.3730
  561TIP3    H1 1689   3.279   2.246   4.377  0.1126  0.3174  0.1671
  561TIP3    H2 1690   3.381   2.327   4.454  0.7096  0.1419 -0.4345
  562TIP3   OH2 1691   3.842   4.547   0.623 -0.1901 -0.2253 -0.6012
  562TIP3    H1 1692   3.854   4.538   0.718 -0.0221  0.7352 -0.5206
  562TIP3    H2 1693   3.907   4.488   0.585  0.6986  0.4215 -0.1259
  563TIP3   OH2 1694   3.029   4.521   0.365  0.5846  0.0237 -0.4640
  563TIP3    H1 1695   3.001   4.608   0.393 -1.0620 -0.5036 -0.3942
  563TIP3    H2 1696   3.011   4.518   0.271 -1.1132 -0.8293 -0.1581
  564TIP3   OH2 1697   3.432   5.199   0.436  0.0064  0.8478  0.0358
  564TIP3    H1 1698   3.524   5.176   0.434 -0.0286  0.7374 -0.5304
  564TIP3    H2 1699   3.394   5.143   0.503  0.3340  0.8404  0.2155
  565TIP3   OH2 1700   1.638   4.708   4.570 -0.1072 -0.5547  0.8096
  565TIP3    H1 1701   1.611   4.799   4.583 -1.7102 -0.6302 -1.5222
  565TIP3    H2 1702   1.556   4.659   4.562  0.7345 -2.0762  1.0705
  566TIP3   OH2 1703   4.681   0.911   1.248 -0.1388  0.5674 -0.4158
  566TIP3    H1 1704   4.701   0.954   1.165 -1.7848  0.4299 -0.9095
  566TIP3    H2 1705   4.680   0.982   1.312  1.6967  0.6002 -0.3726
  567TIP3   OH2 1706   3.272   1.938   4.221  0.2032 -0.0376 -0.5982
  567TIP3    H1 1707   3.334   1.997   4.178 -2.4076  0.8797 -3.4656
  567TIP3    H2 1708   3.297   1.851   4.190  0.6701  0.1863 -0.8646
  568TIP3   OH2 1709   4.642   5.045   0.747  0.2901  0.7100  0.4679
  568TIP3    H1 1710   4.596   5.064   0.665  0.4991 -0.1593  0.1399
  568TIP3    H2 1711   4.573   5.044   0.814  0.1235  1.4455  0.3154
  569TIP3   OH2 1712   1.290   3.979   3.045 -0.0623 -0.1407 -0.3510
  569TIP3    H1 1713   1.274   3.902   2.990 -1.1648 -1.3664  1.5813
  569TIP3    H2 1714   1.211   4.032   3.035 -0.3192 -0.4266  0.1119
  570TIP3   OH2 1715   6.297   0.900   0.696 -0.4501 -0.2953  0.5283
  570TIP3    H1 1716   6.217   0.857   0.667 -0.4175 -0.5703  0.8421
  570TIP3    H2 1717   6.274   0.993   0.698 -0.0772 -0.0924 -1.6206
  571TIP3   OH2 1718   1.834   0.879   4.117 -0.0669  0.3054 -0.0938
  571TIP3    H1 1719   1.869   0.917   4.198  2.8837 -3.0838  0.5473
  571TIP3    H2 1720   1.892   0.912   4.048  0.8953 -0.8833  0.0974
  572TIP3   OH2 1721   1.003   3.250   5.087  0.0625  0.1759 -0.0896
  572TIP3    H1 1722   1.031   3.329   5.041 -1.5808  1.0768  0.3714
  572TIP3    H2 1723   0.956   3.282   5.163 -0.4568 -1.2631  0.2276
  573TIP3   OH2 1724   0.851   3.207   1.324 -0.3819 -0.1836  0.2820
  573TIP3    H1 1725   0.809   3.123   1.306 -1.4397  0.1171  1.2323
  573TIP3    H2 1726   0.876   3.240   1.238 -1.0456 -0.9079 -0.2024
  574TIP3   OH2 1727   0.417   1.812   4.694 -0.7619 -0.2564  0.1718
  574TIP3    H1 1728   0.441   1.886   4.750 -0.0824  0.2397 -0.7381
  574TIP3    H2 1729   0.335   1.839   4.652 -0.3492  0.1257 -0.3998
  575TIP3   OH2 1730   4.856   5.533   0.689  0.4753 -0.6031  0.0410
  575TIP3    H1 1731   4.819   5.469   0.750 -1.5314  0.3638 -0.0764
  575TIP3    H2 1732   4.888   5.481   0.616  0.5095 -1.5860  0.7412
  576TIP3   OH2 1733   1.662   5.114   3.179  0.1807  0.0392 -0.3248
  576TIP3    H1 1734   1.738   5.058   3.165 -1.1934 -1.9257 -0.5045
  576TIP3    H2 1735   1.616   5.114   3.095 -0.9848 -0.4380  0.2791
  577TIP3   OH2 1736   0.511   3.510   1.181  0.0233 -0.4311  0.2166
  577TIP3    H1 1737   0.424   3.521   1.220 -0.2547  0.4407 -0.5824
  577TIP3    H2 1738   0.552   3.440   1.231 -0.1778  0.8530  2.2915
  578TIP3   OH2 1739   3.647   2.114   4.940  0.0393  0.5520  0.1378
  578TIP3    H1 1740   3.557   2.142   4.920  0.2264  2.1674  1.2962
  578TIP3    H2 1741   3.636   2.048   5.009 -0.2693  0.7770  0.3114
  579TIP3   OH2 1742   4.200   1.490   0.351 -0.0187 -0.2833 -0.0181
  579TIP3    H1 1743   4.115   1.515   0.388  1.0944  0.4091  2.3164
  579TIP3    H2 1744   4.221   1.407   0.393 -0.0891 -1.1319 -1.5934
  580TIP3   OH2 1745   4.694   3.624   3.591  0.7001  0.3935 -0.0791
  580TIP3    H1 1746   4.606   3.590   3.606  0.8935 -0.3533 -0.5819
  580TIP3    H2 1747   4.711   3.681   3.666  0.2658 -0.4171  0.6462
  581TIP3   OH2 1748   5.253   1.042   3.908 -0.1426 -0.1962  0.0345
  581TIP3    H1 1749   5.191   0.975   3.938 -2.9479  0.3748 -3.7323
  581TIP3    H2 1750   5.327   0.992   3.873 -1.3469 -1.2828 -1.0465
  582TIP3   OH2 1751   3.106   3.186   0.384  0.5553  0.1717  0.6510
  582TIP3    H1 1752   3.062   3.222   0.308  0.5316 -1.7996 -0.3296
  582TIP3    H2 1753   3.138   3.263   0.432  0.0199  1.4742 -0.9892
  583TIP3   OH2 1754   3.896   0.068   1.986  0.0128  0.7465 -0.0977
  583TIP3    H1 1755   3.973   0.012   1.981 -1.1327 -0.8275 -0.7395
  583TIP3    H2 1756   3.887   0.087   2.080 -0.3551 -1.3101  0.3217
  584TIP3   OH2 1757   1.616   3.500   3.931 -0.6956 -0.6824 -0.0933
  584TIP3    H1 1758   1.685   3.443   3.964 -1.3670 -1.4578 -0.0171
  584TIP3    H2 1759   1.614   3.483   3.837  0.1285  0.3551 -0.3291
  585TIP3   OH2 1760   3.509   5.172   3.161 -0.0671 -0.2347  0.2274
  585TIP3    H1 1761   3.413   5.177   3.162 -0.0423  0.2397  0.3750
  585TIP3    H2 1762   3.538   5.254   3.201  0.3874 -0.9452  1.4077
  586TIP3   OH2 1763   1.685   2.321   1.189  0.7962 -0.1190 -0.2779
  586TIP3    H1 1764   1.756   2.322   1.125  0.4379 -0.2136 -0.6810
  586TIP3    H2 1765   1.702   2.245   1.244 -0.9130 -2.3550 -2.5833
  587TIP3   OH2 1766   0.119   0.784   3.474  0.2309 -0.4929  0.5128
  587TIP3    H1 1767   0.065   0.705   3.468  0.3284 -0.5119 -0.2168
  587TIP3    H2 1768   0.124   0.816   3.384 -0.4096  0.7617  0.9063
  588TIP3   OH2 1769   2.483   2.568   3.311 -0.5737  0.3837 -0.2486
  588TIP3    H1 1770   2.576   2.582   3.330 -0.8294  3.4727 -0.8368
  588TIP3    H2 1771   2.444   2.550   3.396  0.2583  1.0976  0.2994
  589TIP3   OH2 1772   0.994   3.840   0.358  0.5441 -0.4750 -0.2531
  589TIP3    H1 1773   1.057   3.831   0.429  1.3683 -2.0279 -1.1412
  589TIP3    H2 1774   1.046   3.869   0.283 -0.6155  3.2431  0.1658
  590TIP3   OH2 1775   5.760   2.348   3.305 -0.5913 -0.5721 -0.4380
  590TIP3    H1 1776   5.851   2.317   3.314 -0.6292 -1.4300 -2.4781
  590TIP3    H2 1777   5.707   2.269   3.308 -1.1863 -0.1742 -0.3011
  591TIP3   OH2 1778   6.303   3.885   3.146  0.5214 -0.4156 -0.0584
  591TIP3    H1 1779   6.324   3.978   3.143  1.3620 -0.6043 -0.4353
  591TIP3    H2 1780   6.388   3.841   3.156  0.0902 -1.1157  0.6749
  592TIP3   OH2 1781   0.333   4.087   1.813  0.1815 -0.5099 -0.1928
  592TIP3    H1 1782   0.309   4.173   1.776 -0.6396 -0.1470  1.1265
  592TIP3    H2 1783   0.249   4.043   1.826  0.6069 -1.6317 -1.0672
  593TIP3   OH2 1784   3.095   5.034   5.103 -0.0364 -0.2461  0.0689
  593TIP3    H1 1785   3.013   5.033   5.054  0.6421 -1.1589 -1.0952
  593TIP3    H2 1786   3.112   4.942   5.123  0.4063 -0.0091  0.8193
  594TIP3   OH2 1787   2.473   2.379   0.112 -0.3470  0.2958  0.3292
  594TIP3    H1 1788   2.380   2.374   0.131 -0.8617  0.1889 -1.8886
  594TIP3    H2 1789   2.489   2.472   0.096  0.7562  0.8978  3.9659
  595TIP3   OH2 1790   5.069   4.808   4.018  0.3060  0.1527  0.9155
  595TIP3    H1 1791   5.045   4.715   4.028  2.5423 -0.5368  0.4174
  595TIP3    H2 1792   5.081   4.839   4.108 -1.7217  0.3861  1.1616
  596TIP3   OH2 1793   0.769   5.242   4.811 -0.2162  0.0766 -0.1760
  596TIP3    H1 1794   0.706   5.314   4.805  0.3417  1.0091  2.9650
  596TIP3    H2 1795   0.854   5.284   4.800  0.0848 -0.1178  1.1662
  597TIP3   OH2 1796   1.537   4.993   4.659 -0.2345 -0.4957  0.3311
  597TIP3    H1 1797   1.602   5.058   4.631  0.0809 -1.5485 -1.5326
  597TIP3    H2 1798   1.550   4.985   4.753  1.1846  0.5485  0.2535
  598TIP3   OH2 1799   1.544   4.867   1.718  0.4536  0.0770  0.2074
  598TIP3    H1 1800   1.565   4.810   1.792 -0.4030  0.1209  0.4937
  598TIP3    H2 1801   1.598   4.834   1.646 -0.9975 -1.9723 -0.0063
  599TIP3   OH2 1802   4.172   5.945   1.312  0.4398  0.1339 -0.2575
  599TIP3    H1 1803   4.258   5.904   1.306  0.2296 -0.2273 -0.8986
  599TIP3    H2 1804   4.189   6.038   1.294  0.9818  0.4396  1.6909
  600TIP3   OH2 1805   1.383   1.312   4.964 -0.1588  0.2847  0.2003
  600TIP3    H1 1806   1.357   1.225   4.994 -1.4510  0.6289  0.1510
  600TIP3    H2 1807   1.436   1.347   5.035 -0.2533 -0.2496  0.5462
  601TIP3   OH2 1808   0.371   2.157   3.061 -0.6095 -0.2474 -0.0545
  601TIP3    H1 1809   0.313   2.232   3.071 -1.3510 -0.7532 -0.5134
  601TIP3    H2 1810   0.409   2.167   2.973 -0.3213 -0.1388  0.0820
  602TIP3   OH2 1811   4.237   0.089   3.167  0.2684  0.4868  0.7717
  602TIP3    H1 1812   4.310   0.041   3.207  1.0375  1.2559  0.3197
  602TIP3    H2 1813   4.256   0.088   3.073 -1.6866 -1.5722  0.3360
  603TIP3   OH2 1814   1.534   1.414   0.507  0.0508  0.3676 -0.1055
  603TIP3    H1 1815   1.464   1.394   0.570  0.6076  1.0069  0.7424
  603TIP3    H2 1816   1.488   1.443   0.428 -0.7009 -1.7477 -0.5009
  604TIP3   OH2 1817   2.947   3.222   2.774  0.1140  0.5331 -0.2695
  604TIP3    H1 1818   3.034   3.183   2.769 -0.2382 -0.1053 -1.8477
  604TIP3    H2 1819   2.963   3.317   2.774  0.8312  0.4225  0.4693
  605TIP3   OH2 1820   4.152   5.378   4.817 -0.2330  0.0993 -0.2146
  605TIP3    H1 1821   4.134   5.472   4.818 -0.9546 -0.0287 -0.1753
  605TIP3    H2 1822   4.201   5.362   4.898  0.5150  0.5459 -0.5649
  606TIP3   OH2 1823   3.253   2.112   2.372 -0.0142  0.5148  0.5238
  606TIP3    H1 1824   3.344   2.116   2.401  0.6073 -0.0233 -1.2197
  606TIP3    H2 1825   3.232   2.018   2.373  0.1734  0.4313 -1.0797
  607TIP3   OH2 1826   6.167   5.956   1.127 -0.3576 -0.0629 -0.0319
  607TIP3    H1 1827   6.248   5.975   1.175 -0.0305 -1.5098  0.0147
  607TIP3    H2 1828   6.102   5.940   1.196 -0.7271  1.1126 -0.0689
  608TIP3   OH2 1829   4.950   1.841   0.549  0.1006  0.5958 -0.4943
  608TIP3    H1 1830   4.996   1.759   0.531  0.9271  0.8055  0.5721
  608TIP3    H2 1831   5.011   1.892   0.603 -2.0412  0.0817  2.6770
  609TIP3   OH2 1832   5.827   5.981   4.750  0.0050  0.1496 -0.6553
  609TIP3    H1 1833   5.781   6.018   4.825  0.7046  0.3870 -0.3301
  609TIP3    H2 1834   5.758   5.952   4.691 -0.5884 -1.2770  0.6709
  610TIP3   OH2 1835   4.616   0.256   1.189 -0.3123 -0.2704  0.4894
  610TIP3    H1 1836   4.635   0.296   1.104 -0.5608 -0.8427  0.1581
  610TIP3    H2 1837   4.648   0.166   1.180 -2.7086 -1.1385  0.0654
  611TIP3   OH2 1838   3.232   1.939   2.691  0.1284 -0.3043 -0.0668
  611TIP3    H1 1839   3.317   1.923   2.650  0.1844  2.8561 -1.4806
  611TIP3    H2 1840   3.253   1.988   2.770 -0.3445  1.5184 -1.0181
  612TIP3   OH2 1841   6.160   4.124   2.870 -0.0404 -0.1142  0.0809
  612TIP3    H1 1842   6.068   4.123   2.842  0.5043 -0.0605 -1.8534
  612TIP3    H2 1843   6.179   4.033   2.891 -0.1632 -0.3820 -0.9128
  613TIP3   OH2 1844   4.501   0.382   0.442 -0.0676  0.5953  0.3314
  613TIP3    H1 1845   4.505   0.452   0.377  0.7129  0.6788  0.4495
  613TIP3    H2 1846   4.592   0.373   0.472  0.8222 -3.2295 -2.6140
  614TIP3   OH2 1847   1.638   4.994   0.852 -0.4894 -0.0500 -0.1230
  614TIP3    H1 1848   1.575   4.925   0.873  1.2852 -0.9005  3.0096
  614TIP3    H2 1849   1.673   4.968   0.766 -2.3509 -1.0630 -0.6392
  615TIP3   OH2 1850   4.077   2.899   3.375 -0.0374 -0.1955 -0.7200
  615TIP3    H1 1851   4.109   2.973   3.426 -0.6397 -1.5476  1.8095
  615TIP3    H2 1852   4.156   2.857   3.341  0.3916  0.6319 -0.7562
  616TIP3   OH2 1853   2.655   5.742   2.364 -0.1895 -0.2311  0.4524
  616TIP3    H1 1854   2.631   5.793   2.286  0.7488  0.5234  0.6418
  616TIP3    H2 1855   2.643   5.651   2.338 -1.5510  0.0532 -0.0172
  617TIP3   OH2 1856   5.887   0.815   1.237  0.2358 -0.0919 -0.2836
  617TIP3    H1 1857   5.928   0.731   1.217 -0.6476 -0.4547 -0.6337
  617TIP3    H2 1858   5.811   0.819   1.178 -1.3358 -0.3128  1.6470
  618TIP3   OH2 1859   1.665   4.928   2.740 -0.3811 -0.2934  0.0111
  618TIP3    H1 1860   1.759   4.945   2.735 -0.3260  0.3195  2.1013
  618TIP3    H2 1861   1.629   5.003   2.787 -2.0839 -0.0769 -1.5108
  619TIP3   OH2 1862   1.156   0.872   2.021  0.3087  0.4597 -0.1941
  619TIP3    H1 1863   1.114   0.897   1.939 -0.6170  2.2472  0.7605
  619TIP3    H2 1864   1.172   0.955   2.066  0.1323 -0.4879  1.7332
  620TIP3   OH2 1865   0.897   0.450   3.478 -0.1054  0.2229  0.3733
  620TIP3    H1 1866   0.867   0.387   3.544  1.9989  0.2801  1.4514
  620TIP3    H2 1867   0.844   0.430   3.400 -0.4131 -1.9995  1.0886
  621TIP3   OH2 1868   6.171   5.706   4.054  0.0534 -0.1448  0.2169
  621TIP3    H1 1869   6.088   5.743   4.025  0.8975  1.9058  0.2036
  621TIP3    H2 1870   6.206   5.661   3.977 -2.0118 -3.1268  0.8382
  622TIP3   OH2 1871   3.024   1.486   3.510  0.3844 -0.5161  0.1492
  622TIP3    H1 1872   3.029   1.458   3.602 -1.3549 -1.2783  0.0581
  622TIP3    H2 1873   3.002   1.406   3.462  1.2296 -0.1193 -0.9547
  623TIP3   OH2 1874   3.487   0.964   4.694  0.2132 -0.5648 -0.4418
  623TIP3    H1 1875   3.546   0.890   4.706  0.5647 -0.1565  0.4298
  623TIP3    H2 1876   3.441   0.972   4.778  2.0070  1.7636  0.4185
  624TIP3   OH2 1877   6.303   2.818   4.743  0.1637 -0.5314 -0.2569
  624TIP3    H1 1878   6.387   2.805   4.699 -0.1007 -1.0592 -0.6208
  624TIP3    H2 1879   6.324   2.820   4.836  0.6011 -0.4907 -0.3585
  625TIP3   OH2 1880   5.985   4.934   0.659  0.1120 -0.4061  0.1585
  625TIP3    H1 1881   5.889   4.927   0.658 -0.0234  1.0505 -1.7027
  625TIP3    H2 1882   6.014   4.861   0.604 -0.0336  0.1401 -0.6522
  626TIP3   OH2 1883   1.298   5.089   2.701 -0.3028  0.0781  0.4049
  626TIP3    H1 1884   1.274   5.154   2.767  0.1592  0.2267  0.4317
  626TIP3    H2 1885   1.223   5.030   2.697  0.0432 -0.4721  1.7325
  627TIP3   OH2 1886   4.876   5.118   0.495  0.3277  0.0376 -0.3828
  627TIP3    H1 1887   4.849   5.112   0.586  0.0998  0.2659 -0.4355
  627TIP3    H2 1888   4.961   5.073   0.492  1.2415  1.6340  0.3324
  628TIP3   OH2 1889   2.897   2.820   2.044  0.5103 -0.2087  0.1281
  628TIP3    H1 1890   2.949   2.899   2.030  1.7999 -0.6864  1.8541
  628TIP3    H2 1891   2.882   2.818   2.139  0.3558 -1.9260  0.0972
  629TIP3   OH2 1892   3.970   4.418   0.080 -0.0488  0.3397  0.2049
  629TIP3    H1 1893   3.989   4.506   0.047 -0.0370  0.6626  1.0464
  629TIP3    H2 1894   3.997   4.359   0.009 -1.4565  1.0690 -0.9950
  630TIP3   OH2 1895   6.202   4.900   3.566 -0.3057 -0.1641 -0.3392
  630TIP3    H1 1896   6.176   4.866   3.652 -1.3974  0.1504 -0.5312
  630TIP3    H2 1897   6.293   4.874   3.557 -0.4825 -1.1220  0.4622
  631TIP3   OH2 1898   2.934   2.391   2.034 -0.0743  0.6390  0.2174
  631TIP3    H1 1899   2.992   2.324   2.070 -0.5466 -0.2942 -0.7005
  631TIP3    H2 1900   2.901   2.353   1.953 -0.0595  2.1465 -0.5398
  632TIP3   OH2 1901   1.863   5.693   2.646  0.5930 -0.6540  0.2167
  632TIP3    H1 1902   1.928   5.763   2.654  0.0017 -0.2408  2.1397
  632TIP3    H2 1903   1.914   5.612   2.652  1.0967 -0.3636 -0.0480
  633TIP3   OH2 1904   1.155   3.506   2.758 -0.2585  0.1283 -0.0515
  633TIP3    H1 1905   1.231   3.517   2.700  0.3362  0.9691  0.8455
  633TIP3    H2 1906   1.181   3.551   2.839 -1.8863  0.8076  0.1236
  634TIP3   OH2 1907   2.872   1.788   4.534  0.2833 -0.1715  0.1455
  634TIP3    H1 1908   2.816   1.848   4.485  0.0006 -0.9137 -0.4633
  634TIP3    H2 1909   2.810   1.732   4.582  0.4057 -2.0029 -1.7159
  635TIP3   OH2 1910   1.344   4.752   0.336  0.1898  1.0192  0.6746
  635TIP3    H1 1911   1.277   4.763   0.403  0.8542  2.5499  1.1253
  635TIP3    H2 1912   1.322   4.816   0.268  2.1501  2.8949  1.6724
  636TIP3   OH2 1913   4.999   0.923   2.165  0.2731 -0.2956  0.7213
  636TIP3    H1 1914   4.989   0.969   2.249 -0.2323  0.2502  0.3734
  636TIP3    H2 1915   4.909   0.902   2.139  0.3863  0.1091  0.0061
  637TIP3   OH2 1916   4.688   5.899   4.110  0.4454 -0.1255  0.4298
  637TIP3    H1 1917   4.684   5.832   4.042 -0.9805  0.2862  0.0880
  637TIP3    H2 1918   4.757   5.868   4.169 -0.4123 -2.0945  0.4946
  638TIP3   OH2 1919   0.238   0.245   4.568  0.9387  0.0787 -0.0831
  638TIP3    H1 1920   0.304   0.190   4.526  1.0606 -0.1265  0.3685
  638TIP3    H2 1921   0.175   0.182   4.604  2.9580 -0.0690  3.7039
  639TIP3   OH2 1922   3.982   0.599   3.631 -1.0331 -0.1629 -0.1241
  639TIP3    H1 1923   3.933   0.526   3.595  0.3281 -1.7465  1.0981
  639TIP3    H2 1924   3.962   0.598   3.725  0.1232  0.1063  0.1437
  640TIP3   OH2 1925   3.910   5.436   3.108  0.3666 -0.1645  0.4923
  640TIP3    H1 1926   3.970   5.476   3.045  0.0075 -2.0642 -1.1567
  640TIP3    H2 1927   3.857   5.510   3.141  2.0402  1.1878  0.2759
  641TIP3   OH2 1928   2.324   4.692   1.234 -0.0949 -0.0571  0.0894
  641TIP3    H1 1929   2.398   4.698   1.173 -0.0862 -0.8949  0.0161
  641TIP3    H2 1930   2.255   4.743   1.192  0.5100  0.9468  0.2757
  642TIP3   OH2 1931   0.102   5.135   4.189  0.3584  0.1637 -0.2350
  642TIP3    H1 1932   0.093   5.156   4.282 -2.4938  0.6385 -0.5264
  642TIP3    H2 1933   0.125   5.218   4.148  0.3710  0.2232 -0.1088
  643TIP3   OH2 1934   3.412   2.250   5.001  0.0695  0.0794 -0.1431
  643TIP3    H1 1935   3.376   2.338   4.991 -0.0382  0.1577  0.8314
  643TIP3    H2 1936   3.466   2.255   5.080  2.2760 -0.0355 -1.5572
  644TIP3   OH2 1937   0.883   5.534   0.467  0.4173 -0.4444  0.0068
  644TIP3    H1 1938   0.795   5.519   0.502 -0.4104  0.3601 -1.5773
  644TIP3    H2 1939   0.906   5.451   0.425 -0.4343 -0.1121 -1.1989
  645TIP3   OH2 1940   2.739   3.074   2.862  0.4161  0.0178  0.6558
  645TIP3    H1 1941   2.827   3.107   2.842  0.5391 -0.7671 -0.1776
  645TIP3    H2 1942   2.753   2.981   2.878 -0.5885 -0.6789 -2.0536
  646TIP3   OH2 1943   2.863   0.482   0.869 -0.1002  0.3397 -0.6540
  646TIP3    H1 1944   2.901   0.409   0.917  0.2129  0.9902  0.1172
  646TIP3    H2 1945   2.938   0.526   0.829 -0.2051  0.6597 -0.5040
  647TIP3   OH2 1946   4.889   5.084   2.706 -0.3753  0.4233  0.2824
  647TIP3    H1 1947   4.887   5.006   2.651 -1.5781 -0.5871  1.6913
  647TIP3    H2 1948   4.944   5.146   2.657  0.5462 -1.2518 -0.9074
  648TIP3   OH2 1949   5.466   0.969   3.692  0.2039 -0.5654  0.4260
  648TIP3    H1 1950   5.482   1.049   3.641  1.3029 -0.9047  0.2129
  648TIP3    H2 1951   5.511   0.900   3.643  0.1778 -1.1284  1.1771
  649TIP3   OH2 1952   0.082   2.329   1.414  0.3117  0.1125 -0.6853
  649TIP3    H1 1953   0.030   2.350   1.337  0.9682  0.7356 -0.9709
  649TIP3    H2 1954   0.160   2.285   1.379 -0.5623 -1.9649 -0.1789
  650TIP3   OH2 1955   0.633   0.435   0.791  0.1861  0.1442 -0.1877
  650TIP3    H1 1956   0.587   0.506   0.835 -0.6779  1.7195 -3.3439
  650TIP3    H2 1957   0.615   0.357   0.844 -1.0851  1.7742  1.9167
  651TIP3   OH2 1958   3.849   0.610   4.263  0.0544  0.1743 -0.6951
  651TIP3    H1 1959   3.806   0.671   4.204  1.5226  1.1576 -0.8064
  651TIP3    H2 1960   3.871   0.662   4.340  0.7331 -0.3759 -0.5022
  652TIP3   OH2 1961   1.020   3.780   0.798  0.8363 -0.1153  0.3995
  652TIP3    H1 1962   1.081   3.712   0.827  1.0821 -0.0573  0.0215
  652TIP3    H2 1963   0.960   3.735   0.739 -0.3551 -0.4823  1.8327
  653TIP3   OH2 1964   0.478   3.061   1.071  0.1692 -0.0048  0.5164
  653TIP3    H1 1965   0.384   3.051   1.087  0.2543  0.2296  1.1988
  653TIP3    H2 1966   0.518   3.041   1.155  0.6231  1.5736  0.6996
  654TIP3   OH2 1967   2.316   1.537   1.694  0.5815  0.1779  0.3827
  654TIP3    H1 1968   2.276   1.558   1.778 -0.7357 -1.6659  0.2765
  654TIP3    H2 1969   2.317   1.620   1.646 -1.7569  0.6106  0.9636
  655TIP3   OH2 1970   4.416   4.227   4.408  0.3809  0.0031  0.0510
  655TIP3    H1 1971   4.370   4.298   4.363 -0.1692 -0.3570  0.0321
  655TIP3    H2 1972   4.502   4.264   4.430  0.0901  0.6844  0.0756
  656TIP3   OH2 1973   3.572   5.343   4.131  0.4271  0.6458  0.1047
  656TIP3    H1 1974   3.579   5.406   4.203 -0.8163 -0.6506  1.4435
  656TIP3    H2 1975   3.659   5.341   4.092  1.5027  0.5742  2.3292
  657TIP3   OH2 1976   3.345   1.614   0.333 -0.2222 -0.0024 -0.4417
  657TIP3    H1 1977   3.405   1.564   0.388 -1.1664  0.2028  0.8218
  657TIP3    H2 1978   3.265   1.560   0.330 -0.2489  0.0727 -1.4843
  658TIP3   OH2 1979   4.783   1.543   0.426  0.4163  0.0789 -0.0121
  658TIP3    H1 1980   4.697   1.584   0.424  0.3970  0.0514  0.2315
  658TIP3    H2 1981   4.833   1.588   0.359  0.5463  0.8334  0.5833
  659TIP3   OH2 1982   0.541   2.722   1.147 -0.1906 -0.3706 -0.4086
  659TIP3    H1 1983   0.509   2.749   1.233  0.2317  0.5090 -0.5179
  659TIP3    H2 1984   0.464   2.685   1.104 -0.9071  0.9937 -0.3733
  660TIP3   OH2 1985   3.896   3.518   4.236 -0.7742  0.5267  0.8429
  660TIP3    H1 1986   3.808   3.514   4.199 -0.3502 -0.1053 -0.1273
  660TIP3    H2 1987   3.882   3.530   4.330 -1.9186 -0.8467  0.8828
  661TIP3   OH2 1988   0.332   2.421   0.561  0.5408 -0.1632  0.7459
  661TIP3    H1 1989   0.239   2.420   0.540  0.8162 -0.0515 -0.5988
  661TIP3    H2 1990   0.336   2.431   0.656 -0.8082  3.3770  0.5846
  662TIP3   OH2 1991   4.097   3.019   1.825 -0.1688  0.2086  0.1317
  662TIP3    H1 1992   4.178   3.069   1.835  0.3983 -0.5001 -0.7793
  662TIP3    H2 1993   4.090   2.970   1.907 -0.3381  1.2034  0.7221
  663TIP3   OH2 1994   2.589   1.220   3.731  0.0576  0.5176 -0.5333
  663TIP3    H1 1995   2.662   1.263   3.686 -0.6971  0.2156 -2.1285
  663TIP3    H2 1996   2.611   1.127   3.729 -0.1496  0.4695 -0.6139
  664TIP3   OH2 1997   2.353   2.945   4.126  0.2799 -0.6786 -0.0278
  664TIP3    H1 1998   2.429   2.907   4.169  0.3420 -0.4345  0.0786
  664TIP3    H2 1999   2.313   2.871   4.079  0.3075 -0.9057  0.3049
  665TIP3   OH2 2000   6.334   4.092   4.230  0.3976 -0.3100  0.4846
  665TIP3    H1 2001   6.280   4.165   4.199 -0.6596 -0.7476  1.2169
  665TIP3    H2 2002   6.419   4.130   4.248  0.1141  0.5627  0.0369
  666TIP3   OH2 2003   3.173   3.785   1.492  0.6944 -0.5421  0.0029
  666TIP3    H1 2004   3.157   3.706   1.441 -1.1878 -0.1162 -0.1185
  666TIP3    H2 2005   3.147   3.857   1.435 -1.0431 -0.0354  1.3603
  667TIP3   OH2 2006   0.781   3.236   4.828 -0.4479 -0.2358  0.4562
  667TIP3    H1 2007   0.733   3.317   4.811 -0.9074 -0.6911 -0.4896
  667TIP3    H2 2008   0.738   3.171   4.772  0.7558 -0.8406  0.2118
  668TIP3   OH2 2009   0.339   2.456   1.970  0.3632 -0.1103  0.4594
  668TIP3    H1 2010   0.283   2.503   2.031 -0.2025 -0.1782  0.0023
  668TIP3    H2 2011   0.424   2.499   1.977  0.7961 -1.1870  2.5264
  669TIP3   OH2 2012   4.237   3.245   0.112  0.2815  0.0831  0.1177
  669TIP3    H1 2013   4.142   3.255   0.118  0.0933 -1.9572  1.2720
  669TIP3    H2 2014   4.272   3.331   0.134 -1.2876  1.0428 -0.9782
  670TIP3   OH2 2015   1.330   1.361   1.717 -0.4296  0.1454 -0.3861
  670TIP3    H1 2016   1.366   1.391   1.801 -0.8372  0.0134 -0.1638
  670TIP3    H2 2017   1.407   1.343   1.663 -0.1584  1.8068 -0.6039
  671TIP3   OH2 2018   3.282   3.857   4.390  0.3339 -0.2562 -0.0153
  671TIP3    H1 2019   3.293   3.848   4.295  1.9260 -0.8197  0.1951
  671TIP3    H2 2020   3.242   3.943   4.401 -0.5137 -0.4577 -1.2182
  672TIP3   OH2 2021   1.136   3.934   1.936  0.9259 -0.3907  0.2238
  672TIP3    H1 2022   1.073   3.869   1.904  1.2192 -1.1763  1.2025
  672TIP3    H2 2023   1.108   3.953   2.026  1.0271  0.6243  0.0570
  673TIP3   OH2 2024   5.200   1.763   1.276  0.0849 -0.2441  0.2658
  673TIP3    H1 2025   5.183   1.803   1.191 -0.7585 -0.0431  0.5192
  673TIP3    H2 2026   5.170   1.672   1.265 -0.4610 -0.0968  0.4748
  674TIP3   OH2 2027   3.336   5.224   3.750 -0.1097  0.3073 -0.3011
  674TIP3    H1 2028   3.409   5.250   3.694  0.1495  0.3962  0.0798
  674TIP3    H2 2029   3.346   5.276   3.829  2.4837 -3.3166  2.0423
  675TIP3   OH2 2030   5.250   0.139   2.714 -0.1014  0.2697  0.0129
  675TIP3    H1 2031   5.342   0.164   2.707 -0.0489 -0.2195 -1.1775
  675TIP3    H2 2032   5.201   0.218   2.690 -0.0111  0.5386  0.6745
  676TIP3   OH2 2033   1.863   3.436   1.603  0.0069 -0.1494  0.4644
  676TIP3    H1 2034   1.953   3.461   1.585  0.0111 -0.5609 -0.0819
  676TIP3    H2 2035   1.869   3.346   1.636 -0.2441 -0.3423 -0.0134
  677TIP3   OH2 2036   2.597   3.781   0.121 -0.1857  0.1260  0.2998
  677TIP3    H1 2037   2.541   3.845   0.076 -0.4022 -0.5753 -0.4534
  677TIP3    H2 2038   2.659   3.753   0.054  0.5220  0.2543  0.8970
  678TIP3   OH2 2039   2.381   0.854   2.593 -0.5629 -0.7580  0.0218
  678TIP3    H1 2040   2.458   0.884   2.546 -1.0785  2.0978  0.8122
  678TIP3    H2 2041   2.404   0.766   2.623  1.5450 -0.8097 -1.5223
  679TIP3   OH2 2042   4.155   3.629   1.362 -0.1609 -0.3174  0.0909
  679TIP3    H1 2043   4.146   3.588   1.448  0.8520 -1.7824 -0.4590
  679TIP3    H2 2044   4.088   3.587   1.308 -1.5643  1.4016  0.3857
  680TIP3   OH2 2045   0.810   1.945   0.751  0.5527  0.1649  0.1834
  680TIP3    H1 2046   0.799   1.859   0.791 -1.8911  0.8524  1.1374
  680TIP3    H2 2047   0.869   1.930   0.677 -1.4801 -2.7365 -1.0022
  681TIP3   OH2 2048   0.935   4.424   1.169  0.0898  0.2393 -0.2137
  681TIP3    H1 2049   0.849   4.390   1.191  0.3082 -0.4978 -0.4800
  681TIP3    H2 2050   0.995   4.377   1.228  0.2869  0.9501  0.1703
  682TIP3   OH2 2051   2.042   1.598   2.646  0.4878  0.1270  0.4354
  682TIP3    H1 2052   2.058   1.674   2.702  1.1401  0.9191 -0.7817
  682TIP3    H2 2053   1.954   1.613   2.610  0.8351  0.6080 -0.2358
  683TIP3   OH2 2054   2.511   0.348   2.642  0.5028 -0.1562 -0.4413
  683TIP3    H1 2055   2.494   0.263   2.603 -2.7832 -0.3815  1.1642
  683TIP3    H2 2056   2.577   0.331   2.709  3.5500 -0.3797 -3.2028
  684TIP3   OH2 2057   5.004   4.208   0.789  0.2608 -0.1874 -0.5805
  684TIP3    H1 2058   5.000   4.177   0.879 -0.7904  0.8271 -0.2524
  684TIP3    H2 2059   5.058   4.287   0.794  0.5708 -0.3755 -0.9213
  685TIP3   OH2 2060   6.138   1.294   4.112  0.0337 -0.0333  0.1378
  685TIP3    H1 2061   6.197   1.365   4.136  0.7814 -0.9047  0.9822
  685TIP3    H2 2062   6.052   1.334   4.109  0.5570  1.0954 -0.3229
  686TIP3   OH2 2063   4.453   0.879   3.926  0.3390  0.4709  0.4781
  686TIP3    H1 2064   4.397   0.917   3.858  1.9315 -0.1032 -1.2501
  686TIP3    H2 2065   4.498   0.955   3.964 -1.0468  0.8646  1.4125
  687TIP3   OH2 2066   2.224   0.579   0.860 -0.3917  0.1707  0.7608
  687TIP3    H1 2067   2.177   0.603   0.780  0.4193 -0.6095  0.0281
  687TIP3    H2 2068   2.218   0.483   0.864  1.0430  0.0577  0.6895
  688TIP3   OH2 2069   5.118   2.404   3.669 -0.3269 -0.6281  0.5604
  688TIP3    H1 2070   5.054   2.390   3.601 -0.9296 -1.1194  1.2132
  688TIP3    H2 2071   5.203   2.403   3.624 -0.7698 -0.0073 -0.2940
  689TIP3   OH2 2072   5.592   3.776   2.237 -0.1067  0.2671  0.1905
  689TIP3    H1 2073   5.596   3.684   2.214  1.0875  0.1822  0.6337
  689TIP3    H2 2074   5.548   3.778   2.322 -1.2946  0.2434 -0.4096
  690TIP3   OH2 2075   4.636   0.296   0.915  0.3242  0.5502  0.3219
  690TIP3    H1 2076   4.728   0.290   0.890  0.1464 -0.3868 -0.1547
  690TIP3    H2 2077   4.605   0.377   0.875  0.2404 -0.5238 -1.9162
  691TIP3   OH2 2078   0.079   5.260   1.705 -0.1809 -0.0057 -0.0505
  691TIP3    H1 2079   0.042   5.281   1.791 -0.7703 -0.5435 -0.1627
  691TIP3    H2 2080   0.003   5.235   1.652  0.4387 -2.6567  0.1419
  692TIP3   OH2 2081   1.765   2.146   1.385  0.2267  0.0097 -0.5487
  692TIP3    H1 2082   1.832   2.079   1.369  0.9591  0.6874 -0.4013
  692TIP3    H2 2083   1.812   2.215   1.433 -0.5159  0.6122 -0.6785
  693TIP3   OH2 2084   4.690   3.055   0.123  0.0467  0.0846  0.5261
  693TIP3    H1 2085   4.657   3.021   0.039 -0.4424 -0.5554  0.9634
  693TIP3    H2 2086   4.619   3.038   0.185  0.2450  0.9242  0.9935
  694TIP3   OH2 2087   5.359   1.075   1.420  0.4455 -0.1749 -0.2296
  694TIP3    H1 2088   5.407   1.156   1.400 -1.4170  1.1020  0.2437
  694TIP3    H2 2089   5.270   1.104   1.437 -0.3207 -2.3823 -0.2356
  695TIP3   OH2 2090   4.947   3.076   4.058  0.4511  0.1386  0.1173
  695TIP3    H1 2091   4.877   3.098   4.120 -0.7480 -1.0377 -0.7763
  695TIP3    H2 2092   4.903   3.027   3.989  1.8120  1.1217 -1.5191
  696TIP3   OH2 2093   5.714   4.398   0.980  0.2076 -0.3349  0.0778
  696TIP3    H1 2094   5.773   4.420   0.907  1.1831 -1.1796  0.5802
  696TIP3    H2 2095   5.735   4.462   1.048 -0.5195  0.2907 -0.2767
  697TIP3   OH2 2096   6.037   1.004   3.408 -0.1895 -0.2408 -0.0192
  697TIP3    H1 2097   5.942   1.007   3.399 -0.0267  1.4147 -1.9274
  697TIP3    H2 2098   6.068   0.962   3.329  0.6779 -0.9873  0.6971
  698TIP3   OH2 2099   0.111   4.820   2.358 -0.3219  0.0169  0.4460
  698TIP3    H1 2100   0.149   4.863   2.281 -1.1547 -1.2896 -0.7416
  698TIP3    H2 2101   0.186   4.795   2.411  0.3445 -0.0723 -0.5021
  699TIP3   OH2 2102   1.183   1.342   4.789  0.0250  0.4357  0.2238
  699TIP3    H1 2103   1.202   1.255   4.755 -0.4268 -0.1383  1.3834
  699TIP3    H2 2104   1.257   1.363   4.846 -0.4181  0.2793  0.8817
  700TIP3   OH2 2105   0.846   0.198   1.444 -0.0712  0.2746  0.3256
  700TIP3    H1 2106   0.851   0.103   1.437 -0.2093  0.2796  0.1576
  700TIP3    H2 2107   0.883   0.217   1.531 -2.7165 -0.1792  1.6607
  701TIP3   OH2 2108   1.592   5.050   4.233  0.1150  0.1949  0.2016
  701TIP3    H1 2109   1.565   4.974   4.285  1.7652  1.1078  2.5817
  701TIP3    H2 2110   1.663   5.017   4.177  0.0514 -0.2766  0.3974
  702TIP3   OH2 2111   5.962   0.080   3.822 -0.3913  0.1696  0.1241
  702TIP3    H1 2112   5.909   0.120   3.754 -1.4599 -0.3922  0.6011
  702TIP3    H2 2113   6.053   0.096   3.795 -0.7968  0.4580 -1.1157
  703TIP3   OH2 2114   1.678   0.155   4.349  0.1634 -0.5349  0.1533
  703TIP3    H1 2115   1.586   0.155   4.375  0.5482 -0.4086  1.6268
  703TIP3    H2 2116   1.676   0.152   4.254 -1.3584 -3.4451  0.1451
  704TIP3   OH2 2117   3.952   4.554   1.172 -0.2730 -0.1456 -0.4490
  704TIP3    H1 2118   3.984   4.644   1.172 -0.9384  0.0975 -0.0336
  704TIP3    H2 2119   4.027   4.502   1.200 -0.3307  0.4514  0.8777
  705TIP3   OH2 2120   5.435   5.512   4.814 -0.2152 -0.4047 -0.3188
  705TIP3    H1 2121   5.499   5.549   4.753 -0.3537 -0.3818 -0.4512
  705TIP3    H2 2122   5.471   5.426   4.838  0.6172  0.2352  0.7871
  706TIP3   OH2 2123   2.515   2.118   0.011 -0.5671  0.2850 -0.1526
  706TIP3    H1 2124   2.421   2.134   0.015 -0.7941 -0.7040 -0.9466
  706TIP3    H2 2125   2.555   2.202   0.032 -1.6245  0.6775  0.3593
  707TIP3   OH2 2126   5.861   3.553   2.260 -0.0837  0.1043 -0.3817
  707TIP3    H1 2127   5.912   3.505   2.195 -2.0296 -0.2837 -1.7397
  707TIP3    H2 2128   5.844   3.638   2.219 -1.2179 -0.0917 -0.3536
  708TIP3   OH2 2129   5.866   2.120   4.910  0.4946  0.0482  0.1465
  708TIP3    H1 2130   5.918   2.194   4.879 -0.0083  0.4798  0.3176
  708TIP3    H2 2131   5.795   2.159   4.960 -0.3292 -0.4888 -0.5596
  709TIP3   OH2 2132   1.505   2.952   2.793 -0.1953 -1.0583  0.2638
  709TIP3    H1 2133   1.416   2.981   2.812 -0.4566 -0.6993 -1.3165
  709TIP3    H2 2134   1.502   2.924   2.701  1.3598 -0.8324  0.1105
  710TIP3   OH2 2135   5.110   0.507   1.812  0.0453 -0.8289 -0.3259
  710TIP3    H1 2136   5.078   0.418   1.800  0.0607 -0.7723 -0.8044
  710TIP3    H2 2137   5.189   0.513   1.758 -0.4467 -0.2709 -1.0223
  711TIP3   OH2 2138   2.179   0.766   0.035  0.0225 -0.3262  0.2231
  711TIP3    H1 2139   2.268   0.734   0.020  0.7032  2.1368 -1.4668
  711TIP3    H2 2140   2.184   0.860   0.023 -2.4442  0.1756  2.1585
  712TIP3   OH2 2141   3.361   0.950   4.397 -0.1635 -0.2600 -0.1033
  712TIP3    H1 2142   3.401   0.868   4.427 -1.0879 -0.0488  1.8953
  712TIP3    H2 2143   3.288   0.964   4.457  0.0913  2.1440 -0.2701
  713TIP3   OH2 2144   5.400   4.844   4.371 -0.7534 -0.2066 -0.6227
  713TIP3    H1 2145   5.349   4.847   4.452  0.0435 -0.7630 -0.0853
  713TIP3    H2 2146   5.361   4.911   4.316 -0.7725  0.7887  0.5515
  714TIP3   OH2 2147   0.513   3.166   3.162 -0.2762  0.2908 -0.3174
  714TIP3    H1 2148   0.553   3.110   3.229 -1.3511  0.1085  0.1813
  714TIP3    H2 2149   0.574   3.240   3.154 -0.4725  0.6766  1.3747
  715TIP3   OH2 2150   6.233   4.039   3.860  0.0337 -0.7269  0.1625
  715TIP3    H1 2151   6.231   4.045   3.765 -0.7169 -0.3548  0.1904
  715TIP3    H2 2152   6.156   4.088   3.889 -0.2233 -1.5391  0.9204
  716TIP3   OH2 2153   0.293   3.274   2.392 -0.0682  0.0757 -0.1100
  716TIP3    H1 2154   0.342   3.193   2.407 -0.7082 -0.2625  0.1984
  716TIP3    H2 2155   0.345   3.321   2.327  0.8547 -0.1073  0.4704
  717TIP3   OH2 2156   1.540   4.109   0.700  0.1358 -0.5019 -0.5926
  717TIP3    H1 2157   1.507   4.019   0.693  1.4135 -1.1082  0.7391
  717TIP3    H2 2158   1.461   4.162   0.715 -0.3765 -1.8083  1.7521
  718TIP3   OH2 2159   2.290   5.157   3.327 -0.0047 -0.0975 -0.2978
  718TIP3    H1 2160   2.291   5.077   3.275 -0.8953  0.1136 -0.6561
  718TIP3    H2 2161   2.359   5.144   3.393  0.1908 -0.9443 -0.6591
  719TIP3   OH2 2162   4.356   4.833   3.816  0.4374 -0.3766 -0.3429
  719TIP3    H1 2163   4.450   4.815   3.813  0.2716 -1.2349 -0.7286
  719TIP3    H2 2164   4.348   4.922   3.779  1.1786  0.1025  0.6095
  720TIP3   OH2 2165   2.455   5.669   1.356  0.3925 -0.1828 -0.0437
  720TIP3    H1 2166   2.374   5.673   1.304 -1.1241 -1.2916  2.0607
  720TIP3    H2 2167   2.495   5.585   1.333 -0.7847 -1.1264  1.1910
  721TIP3   OH2 2168   1.560   3.675   3.456 -0.1367  0.0692  0.1225
  721TIP3    H1 2169   1.552   3.770   3.455  0.7983  0.1489 -0.2462
  721TIP3    H2 2170   1.594   3.652   3.370  0.4019 -0.5298  0.4856
  722TIP3   OH2 2171   5.200   4.162   4.367 -0.1831 -0.5022 -0.2587
  722TIP3    H1 2172   5.268   4.203   4.312  0.3330 -1.7501 -0.5902
  722TIP3    H2 2173   5.158   4.235   4.411  2.5922  0.2737  1.3983
  723TIP3   OH2 2174   5.913   5.576   0.931 -0.0852 -0.4941 -0.1119
  723TIP3    H1 2175   5.857   5.646   0.898  1.6014  0.5665 -0.8737
  723TIP3    H2 2176   5.864   5.539   1.004  0.1220  3.4391  2.3260
  724TIP3   OH2 2177   1.550   2.681   3.197  0.0298  0.0004 -0.1350
  724TIP3    H1 2178   1.620   2.622   3.169  0.1067  0.7091 -1.5356
  724TIP3    H2 2179   1.470   2.641   3.163  0.0510  0.5263 -0.8247
  725TIP3   OH2 2180   0.231   2.634   3.455 -0.2115  0.3071  0.2919
  725TIP3    H1 2181   0.141   2.621   3.425 -0.3360  2.3380 -0.3594
  725TIP3    H2 2182   0.277   2.554   3.427 -0.8784  0.9936 -3.2209
  726TIP3   OH2 2183   5.064   3.803   5.080 -0.0829  0.9336 -0.3347
  726TIP3    H1 2184   5.110   3.755   5.012 -1.0523 -0.0531 -0.3302
  726TIP3    H2 2185   5.078   3.896   5.058 -0.1507  0.6366 -1.7230
  727TIP3   OH2 2186   1.444   4.489   3.625 -0.1253 -0.6356  0.3915
  727TIP3    H1 2187   1.365   4.544   3.627  1.4887  1.9493 -0.7767
  727TIP3    H2 2188   1.488   4.507   3.708 -0.0350 -0.8726  0.3946
  728TIP3   OH2 2189   0.733   5.730   0.310  0.6828 -0.5469 -0.0370
  728TIP3    H1 2190   0.693   5.804   0.356  2.0200  1.2611 -1.5950
  728TIP3    H2 2191   0.777   5.679   0.378 -0.6585 -0.2080  1.1346
  729TIP3   OH2 2192   6.258   1.708   3.760 -0.0444  0.3193 -0.5078
  729TIP3    H1 2193   6.341   1.669   3.787 -1.3015 -0.9128  1.8415
  729TIP3    H2 2194   6.208   1.636   3.723 -1.6083  0.0260  1.9746
  730TIP3   OH2 2195   0.318   4.175   1.025 -0.2614  0.1169  0.3712
  730TIP3    H1 2196   0.282   4.207   0.942 -0.3400  0.1154  0.4047
  730TIP3    H2 2197   0.255   4.109   1.055  0.9727 -1.6845 -0.7748
  731TIP3   OH2 2198   1.536   0.212   3.755  0.6525 -0.3292 -0.2591
  731TIP3    H1 2199   1.557   0.273   3.684 -0.1969 -0.9647 -1.0905
  731TIP3    H2 2200   1.550   0.125   3.717 -2.9757 -0.8213 -0.8257
  732TIP3   OH2 2201   0.609   1.594   2.574  0.3194 -0.1140  0.2567
  732TIP3    H1 2202   0.576   1.683   2.558  2.9536  1.0163  0.5647
  732TIP3    H2 2203   0.600   1.550   2.490 -1.0354  0.4231  0.1004
  733TIP3   OH2 2204   2.859   1.406   1.284 -0.0717 -0.1104 -0.7360
  733TIP3    H1 2205   2.785   1.360   1.245 -1.2663  0.9437  0.1832
  733TIP3    H2 2206   2.844   1.498   1.261 -0.3879  0.4362  1.4750
  734TIP3   OH2 2207   2.690   3.468   0.729  0.0946  0.4277  0.1470
  734TIP3    H1 2208   2.618   3.516   0.688  1.2564  0.5036 -1.9472
  734TIP3    H2 2209   2.707   3.394   0.670  2.3355  0.9601  0.0297
  735TIP3   OH2 2210   2.991   2.310   3.715  0.3313  0.2832 -0.6653
  735TIP3    H1 2211   3.061   2.264   3.761 -2.0636 -3.1113  0.0151
  735TIP3    H2 2212   2.967   2.382   3.774  2.6335  1.0454 -0.5796
  736TIP3   OH2 2213   1.060   4.678   1.739  0.2728 -0.0550  0.0435
  736TIP3    H1 2214   1.135   4.624   1.765  0.9419  0.9386  0.2465
  736TIP3    H2 2215   1.099   4.761   1.713 -0.7631  0.4538  0.0826
  737TIP3   OH2 2216   4.159   2.804   2.010  0.3533 -0.1370 -0.2051
  737TIP3    H1 2217   4.241   2.768   1.978  0.6866 -0.2889  0.8047
  737TIP3    H2 2218   4.110   2.728   2.043  0.0835  0.0368 -0.1990
  738TIP3   OH2 2219   3.956   5.774   2.176  0.8599 -0.9808  0.4114
  738TIP3    H1 2220   3.903   5.851   2.155  2.2178  0.5604  2.2724
  738TIP3    H2 2221   3.894   5.701   2.175 -0.4525  0.0861 -1.5142
  739TIP3   OH2 2222   1.234   2.707   3.090  0.5151 -0.4017  0.1733
  739TIP3    H1 2223   1.261   2.787   3.136 -0.6047 -0.2093  0.5237
  739TIP3    H2 2224   1.237   2.731   2.997 -0.2471  0.1934  0.2941
  740TIP3   OH2 2225   0.186   1.157   1.983 -0.6911 -0.0244 -0.6511
  740TIP3    H1 2226   0.142   1.104   2.050 -0.8188  0.2941 -0.4760
  740TIP3    H2 2227   0.212   1.095   1.916  0.7362 -0.5868  0.3610
  741TIP3   OH2 2228   5.705   1.354   2.072 -0.1822 -0.0305 -0.2754
  741TIP3    H1 2229   5.685   1.379   1.982 -1.1389 -2.0718 -0.6753
  741TIP3    H2 2230   5.621   1.331   2.111  0.2704  0.3877  1.0211
  742TIP3   OH2 2231   5.788   3.692   4.594  0.0906 -0.2928 -0.3174
  742TIP3    H1 2232   5.733   3.769   4.604  0.6019  0.2007 -1.1629
  742TIP3    H2 2233   5.731   3.625   4.557 -0.0487  0.0858 -0.7907
  743TIP3   OH2 2234   6.307   3.790   3.489  0.4104 -0.2854 -0.0563
  743TIP3    H1 2235   6.291   3.738   3.569 -2.2895  0.0024 -0.3311
  743TIP3    H2 2236   6.327   3.725   3.422  0.2246 -0.7161  0.3021
  744TIP3   OH2 2237   0.474   1.612   0.918 -0.0227  0.2196 -0.4899
  744TIP3    H1 2238   0.380   1.632   0.912 -0.2148 -0.6396 -0.4841
  744TIP3    H2 2239   0.511   1.649   0.838 -0.3586  0.6111 -0.4687
  745TIP3   OH2 2240   4.011   0.642   1.460 -0.1695  0.5332 -0.2604
  745TIP3    H1 2241   4.067   0.663   1.385 -3.9936  1.6050 -3.1251
  745TIP3    H2 2242   3.981   0.727   1.492 -1.1477 -0.0156  0.3440
  746TIP3   OH2 2243   3.179   4.470   2.555  0.2215 -0.3321 -0.0569
  746TIP3    H1 2244   3.158   4.560   2.581 -1.3564 -0.8202  0.4719
  746TIP3    H2 2245   3.101   4.439   2.509  1.2461 -1.0117 -1.4244
  747TIP3   OH2 2246   1.350   2.847   0.910 -0.0858 -0.6406 -0.2443
  747TIP3    H1 2247   1.390   2.764   0.939  1.5561 -0.4731 -1.8922
  747TIP3    H2 2248   1.299   2.824   0.832 -0.4178 -0.2395 -0.1530
  748TIP3   OH2 2249   2.231   3.763   4.146  0.2572  0.5469 -0.0977
  748TIP3    H1 2250   2.291   3.803   4.210 -1.0715  0.9481  0.9534
  748TIP3    H2 2251   2.155   3.821   4.146 -0.6107 -0.5700 -0.5353
  749TIP3   OH2 2252   0.485   1.227   2.414 -0.3036  0.6532 -0.3663
  749TIP3    H1 2253   0.563   1.278   2.393  0.4322 -0.3331 -0.1206
  749TIP3    H2 2254   0.500   1.142   2.372 -1.9933  0.9605 -1.7012
  750TIP3   OH2 2255   3.774   2.679   4.730 -0.9473  0.0427 -0.0800
  750TIP3    H1 2256   3.723   2.601   4.754 -1.6284  0.8107  1.0677
  750TIP3    H2 2257   3.713   2.733   4.679 -0.4111 -0.2544 -1.0579
  751TIP3   OH2 2258   3.092   2.507   2.630  0.2904  0.2374 -0.5261
  751TIP3    H1 2259   3.065   2.430   2.580  1.2768  0.8148 -1.9969
  751TIP3    H2 2260   3.088   2.479   2.721  0.2799 -1.4347 -1.0178
  752TIP3   OH2 2261   4.611   4.326   1.533 -0.4414 -0.6139  0.1598
  752TIP3    H1 2262   4.681   4.347   1.595 -1.6846  1.0670  1.0806
  752TIP3    H2 2263   4.551   4.400   1.539 -1.0213 -0.7797 -2.4973
  753TIP3   OH2 2264   4.614   0.589   1.807  0.1294  0.4204  0.0531
  753TIP3    H1 2265   4.619   0.531   1.883  1.7941  0.0630 -0.2803
  753TIP3    H2 2266   4.634   0.533   1.732  0.5261  1.1599 -0.4093
  754TIP3   OH2 2267   4.444   2.745   0.532  0.1288 -0.6570 -0.3739
  754TIP3    H1 2268   4.444   2.652   0.555  1.4919 -0.8109 -0.9190
  754TIP3    H2 2269   4.533   2.774   0.550 -0.1540  0.4420 -0.6681
  755TIP3   OH2 2270   4.074   5.378   1.506 -0.2624  0.3819  0.0801
  755TIP3    H1 2271   4.127   5.317   1.557 -0.5809  0.1760  0.1681
  755TIP3    H2 2272   4.102   5.465   1.536  0.1295  0.2785  0.0151
  756TIP3   OH2 2273   2.911   0.776   4.521 -0.5338  0.4865 -0.5079
  756TIP3    H1 2274   2.970   0.852   4.522 -1.3385  1.1172 -0.2316
  756TIP3    H2 2275   2.871   0.775   4.607  0.4857 -1.0896 -0.0165
  757TIP3   OH2 2276   5.841   3.966   5.173 -0.0630 -0.0088 -0.9631
  757TIP3    H1 2277   5.799   3.990   5.091  0.8700 -1.7105 -2.0188
  757TIP3    H2 2278   5.903   4.037   5.190 -0.9293  0.8237 -1.1971
  758TIP3   OH2 2279   2.947   5.771   3.169 -0.1554  0.4063 -0.4355
  758TIP3    H1 2280   2.866   5.753   3.121 -0.1347  0.9565 -0.6802
  758TIP3    H2 2281   3.011   5.711   3.132  0.1994  1.7177 -2.0183
  759TIP3   OH2 2282   2.691   2.638   4.732  0.2202 -0.2362 -0.8008
  759TIP3    H1 2283   2.703   2.730   4.755  0.0363 -0.6354  1.0001
  759TIP3    H2 2284   2.752   2.623   4.659  0.7211  1.1457 -0.6862
  760TIP3   OH2 2285   5.672   0.664   0.021  0.0748 -0.1242  0.0898
  760TIP3    H1 2286   5.629   0.589   0.063 -0.5096  1.0901  1.7965
  760TIP3    H2 2287   5.602   0.708  -0.028 -0.0020  0.2806  0.5533
  761TIP3   OH2 2288   4.055   4.052   0.565  0.7149  0.3033  0.5711
  761TIP3    H1 2289   4.068   4.031   0.657  0.6142  0.6974  0.6750
  761TIP3    H2 2290   4.138   4.027   0.523  0.4609 -0.6500  0.6288
  762TIP3   OH2 2291   5.013   0.061   5.189 -0.3833 -0.2511 -0.3779
  762TIP3    H1 2292   5.061  -0.007   5.141  0.0076  0.9203 -1.7514
  762TIP3    H2 2293   5.082   0.111   5.233 -0.5813 -0.1962 -0.1328
  763TIP3   OH2 2294   5.543   3.383   2.859  0.4284  0.2172 -0.2460
  763TIP3    H1 2295   5.564   3.367   2.951  2.1951  1.0835 -0.4676
  763TIP3    H2 2296   5.625   3.371   2.813 -0.0414  1.4779 -1.4943
  764TIP3   OH2 2297   0.352   3.842   3.925 -0.5442  0.7614  0.4090
  764TIP3    H1 2298   0.299   3.921   3.923 -2.1647 -0.2438  1.2583
  764TIP3    H2 2299   0.352   3.815   4.017  2.6959  1.4633  0.7376
  765TIP3   OH2 2300   1.684   3.299   1.943 -0.1211  0.0653  0.0280
  765TIP3    H1 2301   1.695   3.221   1.998  2.0506 -0.6381 -1.2832
  765TIP3    H2 2302   1.647   3.265   1.861 -0.7736  0.6947  0.0519
  766TIP3   OH2 2303   3.311   0.787   0.478 -0.2898 -0.6356  0.1405
  766TIP3    H1 2304   3.308   0.859   0.415  0.7440  0.9213  1.7491
  766TIP3    H2 2305   3.219   0.762   0.490 -0.5301 -0.7642 -1.6828
  767TIP3   OH2 2306   2.507   3.843   3.035  0.3721  0.6398 -0.1377
  767TIP3    H1 2307   2.523   3.936   3.023  0.9175  0.6878  0.8311
  767TIP3    H2 2308   2.590   3.808   3.065 -0.3967  0.2654  1.7057
  768TIP3   OH2 2309   3.776   1.149   2.297 -0.4201  0.6653 -0.1335
  768TIP3    H1 2310   3.785   1.240   2.269  0.7722  0.1180 -1.6481
  768TIP3    H2 2311   3.820   1.145   2.382  0.0918  1.3756 -0.3580
  769TIP3   OH2 2312   2.207   4.130   4.355 -0.1653  0.4976 -0.2909
  769TIP3    H1 2313   2.199   4.079   4.436  0.0039  0.4879 -0.2800
  769TIP3    H2 2314   2.144   4.202   4.366 -0.1245  0.5106 -0.1390
  770TIP3   OH2 2315   4.847   1.710   0.995  0.3684 -0.1241  0.3993
  770TIP3    H1 2316   4.817   1.786   1.044 -0.1345 -1.6154  2.5800
  770TIP3    H2 2317   4.771   1.651   0.995  0.3148 -0.1848 -2.3334
  771TIP3   OH2 2318   4.601   5.230   4.675  0.3727  0.1981  0.2730
  771TIP3    H1 2319   4.516   5.249   4.635  0.0167 -2.1558 -0.2165
  771TIP3    H2 2320   4.580   5.210   4.767  0.2317 -1.3301 -0.0710
  772TIP3   OH2 2321   3.856   0.198   2.246 -0.3769 -0.1596  0.0929
  772TIP3    H1 2322   3.862   0.262   2.317  1.3161  0.1626 -0.2780
  772TIP3    H2 2323   3.870   0.114   2.289  0.1550 -0.0121  0.2171
  773TIP3   OH2 2324   3.495   1.402   0.446 -0.5379 -0.0391 -0.4221
  773TIP3    H1 2325   3.446   1.328   0.411 -0.3045  0.4733 -1.9084
  773TIP3    H2 2326   3.487   1.394   0.541  0.2932 -2.5229 -0.4868
  774TIP3   OH2 2327   4.880   4.337   0.235  0.5739  0.1514  0.0247
  774TIP3    H1 2328   4.862   4.371   0.323 -0.2980 -1.4550  0.5095
  774TIP3    H2 2329   4.821   4.385   0.178  2.4682  2.6144 -0.0663
  775TIP3   OH2 2330   4.674   0.431   3.493  0.8019 -0.0939 -0.1085
  775TIP3    H1 2331   4.673   0.450   3.587  0.6053  0.3820 -0.2036
  775TIP3    H2 2332   4.718   0.347   3.486 -0.2349 -0.7155  0.5177
  776TIP3   OH2 2333   3.192   5.950   2.461 -0.0532  0.0613  0.2065
  776TIP3    H1 2334   3.199   6.002   2.541 -0.7073  1.0048 -0.3227
  776TIP3    H2 2335   3.250   5.993   2.399 -0.4850  0.0779 -0.1948
  777TIP3   OH2 2336   2.014   3.429   1.959  0.2319  0.6785  0.5281
  777TIP3    H1 2337   1.996   3.345   2.001 -0.9325  1.2910  1.3095
  777TIP3    H2 2338   1.928   3.460   1.929  0.2986  2.5100  2.0366
  778TIP3   OH2 2339   5.192   3.333   0.307 -0.0139 -0.3775  0.3007
  778TIP3    H1 2340   5.240   3.362   0.385  0.8495 -0.4519 -0.1970
  778TIP3    H2 2341   5.220   3.243   0.293 -1.1864 -0.8218  0.6721
  779TIP3   OH2 2342   0.251   4.341   0.785 -0.4238 -0.2805 -0.3663
  779TIP3    H1 2343   0.277   4.431   0.762  0.4670 -0.0248  1.5082
  779TIP3    H2 2344   0.287   4.288   0.714 -0.6312  0.7792 -1.3068
  780TIP3   OH2 2345   3.658   4.977   0.744 -0.3003 -0.1438 -0.0659
  780TIP3    H1 2346   3.662   4.914   0.672  0.8625  0.3109 -0.4124
  780TIP3    H2 2347   3.680   4.924   0.822  1.0050 -0.1344 -0.3978
  781TIP3   OH2 2348   1.128   3.077   2.104  0.7338 -0.6455  1.2003
  781TIP3    H1 2349   1.190   3.130   2.054  0.6471 -1.0366  0.6680
  781TIP3    H2 2350   1.091   3.137   2.168 -0.7554  0.4423 -0.5966
  782TIP3   OH2 2351   0.903   4.224   0.381  0.1501  0.2243 -0.1720
  782TIP3    H1 2352   0.931   4.299   0.433 -0.8226  0.2317  0.3606
  782TIP3    H2 2353   0.925   4.148   0.435 -0.6214  0.2190  0.1337
  783TIP3   OH2 2354   2.905   5.367   0.789  0.4692 -0.2408  0.1946
  783TIP3    H1 2355   2.902   5.352   0.883 -0.1044  1.7514  0.5479
  783TIP3    H2 2356   2.861   5.292   0.751 -0.9427 -0.2079  1.6631
  784TIP3   OH2 2357   0.813   4.530   1.773  0.3295  0.1670  0.4099
  784TIP3    H1 2358   0.875   4.600   1.750  1.1031 -0.6533 -0.0345
  784TIP3    H2 2359   0.866   4.466   1.820  0.2441 -1.4634 -1.6355
  785TIP3   OH2 2360   3.432   5.507   2.078  0.2827 -0.0840  0.5084
  785TIP3    H1 2361   3.486   5.430   2.059 -0.2363 -0.4486  0.4995
  785TIP3    H2 2362   3.346   5.471   2.103 -0.6402  0.5366 -1.5989
  786TIP3   OH2 2363   4.860   4.937   4.395 -0.4107  0.4659 -0.1036
  786TIP3    H1 2364   4.842   4.982   4.478 -1.9886  1.6990 -1.0514
  786TIP3    H2 2365   4.805   4.859   4.398 -0.9645  0.8480 -0.2576
  787TIP3   OH2 2366   4.769   4.085   0.275  0.3056 -0.2169 -0.3835
  787TIP3    H1 2367   4.820   4.010   0.307 -0.1829 -0.4658 -0.1744
  787TIP3    H2 2368   4.824   4.161   0.294 -0.4813 -0.2155  2.2861
  788TIP3   OH2 2369   5.162   0.826   1.054  0.6171 -0.0151  0.3429
  788TIP3    H1 2370   5.197   0.915   1.048  0.9169 -0.1800 -0.4434
  788TIP3    H2 2371   5.150   0.812   1.148 -0.9367  1.4301  0.4035
  789TIP3   OH2 2372   2.868   5.638   5.116 -0.5721  0.0811  0.2917
  789TIP3    H1 2373   2.914   5.554   5.126  0.4215  0.5212 -0.4067
  789TIP3    H2 2374   2.811   5.643   5.193 -0.0269 -0.8543  0.7849
  790TIP3   OH2 2375   2.125   2.415   4.651 -0.3439 -0.0789  0.0461
  790TIP3    H1 2376   2.175   2.485   4.692  0.5920 -0.9256  0.3773
  790TIP3    H2 2377   2.095   2.361   4.724  1.0358 -1.4013 -0.3212
  791TIP3   OH2 2378   2.007   4.604   0.390 -0.0444  0.2924  0.0433
  791TIP3    H1 2379   2.018   4.511   0.412  0.2292  0.5174  0.9060
  791TIP3    H2 2380   2.083   4.646   0.430 -0.5987  1.0014  0.3555
  792TIP3   OH2 2381   5.885   2.521   4.278 -0.1588 -0.2207  0.2951
  792TIP3    H1 2382   5.874   2.616   4.264 -0.4455 -0.2127  0.5569
  792TIP3    H2 2383   5.976   2.504   4.255 -0.1454  0.0944  0.1015
  793TIP3   OH2 2384   1.446   1.673   2.880 -0.8812 -0.2186  0.0022
  793TIP3    H1 2385   1.488   1.740   2.825  0.4110  1.7914  3.1403
  793TIP3    H2 2386   1.353   1.683   2.863 -0.7133  2.3000  0.1535
  794TIP3   OH2 2387   4.014   2.809   1.524 -0.0023 -0.3479  0.8408
  794TIP3    H1 2388   4.048   2.874   1.463  0.1561  0.0364  1.3412
  794TIP3    H2 2389   3.919   2.811   1.511  0.0409 -0.3852  0.4954
  795TIP3   OH2 2390   0.427   0.018   3.382  0.0289 -0.7166  0.5187
  795TIP3    H1 2391   0.342   0.042   3.417 -0.1625 -0.5055 -0.0702
  795TIP3    H2 2392   0.422   0.041   3.289  0.0079 -2.5653  0.0213
  796TIP3   OH2 2393   1.504   2.362   4.907  0.5738  0.2222 -1.2845
  796TIP3    H1 2394   1.464   2.420   4.971 -0.6823  0.3530 -2.1505
  796TIP3    H2 2395   1.591   2.397   4.893  0.9578  0.0524  0.5130
  797TIP3   OH2 2396   0.861   3.061   3.496 -0.1459 -0.2981 -0.0196
  797TIP3    H1 2397   0.797   3.067   3.426 -0.2087 -0.2168  0.0440
  797TIP3    H2 2398   0.865   3.150   3.532  0.0918 -0.2751 -0.1022
  798TIP3   OH2 2399   5.615   4.121   3.242 -0.2386  0.0140 -0.0298
  798TIP3    H1 2400   5.669   4.054   3.201  2.6750  0.8219  2.1749
  798TIP3    H2 2401   5.639   4.202   3.198  0.8640  0.4576  1.3045
  799TIP3   OH2 2402   0.757   2.765   3.232 -0.6608  0.1760 -0.6315
  799TIP3    H1 2403   0.774   2.706   3.306 -0.0057  0.8021 -0.2776
  799TIP3    H2 2404   0.826   2.744   3.169  1.0817  2.1816  0.4863
  800TIP3   OH2 2405   0.081   1.035   0.933  0.0563 -0.7179 -0.2380
  800TIP3    H1 2406   0.158   1.074   0.891 -0.0445 -0.4400 -0.1621
  800TIP3    H2 2407   0.065   0.955   0.883 -1.0914  0.4510 -1.8183
  801TIP3   OH2 2408   5.682   1.314   5.035  0.6277  0.4100 -0.4044
  801TIP3    H1 2409   5.706   1.229   5.072 -1.2369  0.1399  0.2838
  801TIP3    H2 2410   5.700   1.305   4.941  0.8268 -0.6072 -0.2808
  802TIP3   OH2 2411   6.287   4.319   0.132 -0.3831 -0.0873  0.2317
  802TIP3    H1 2412   6.238   4.263   0.071  0.7842 -1.8157  0.7938
  802TIP3    H2 2413   6.329   4.257   0.192 -0.0993  1.4875  1.7288
  803TIP3   OH2 2414   4.529   1.328   1.298 -0.8388  0.8400 -0.1732
  803TIP3    H1 2415   4.548   1.386   1.372  0.7599 -1.1106  1.0506
  803TIP3    H2 2416   4.614   1.312   1.258 -0.7222 -2.6368  1.1371
  804TIP3   OH2 2417   1.600   4.568   3.835 -0.1045 -0.8167 -0.1265
  804TIP3    H1 2418   1.629   4.659   3.834 -0.7438 -0.5003  2.2802
  804TIP3    H2 2419   1.675   4.520   3.869  0.2393 -1.2103 -1.4165
  805TIP3   OH2 2420   5.619   3.986   0.938 -0.0077 -0.5919 -0.1874
  805TIP3    H1 2421   5.523   3.991   0.938  0.0619  1.8265 -0.5657
  805TIP3    H2 2422   5.645   4.021   0.852  1.2259 -1.5210 -0.2202
  806TIP3   OH2 2423   3.793   5.322   1.431 -0.2004 -0.3169 -0.1252
  806TIP3    H1 2424   3.880   5.361   1.434 -0.5867  0.5329  0.3537
  806TIP3    H2 2425   3.738   5.387   1.387 -0.6266 -0.7709 -0.2747
  807TIP3   OH2 2426   2.804   1.678   4.018  0.6006 -0.1469 -0.1976
  807TIP3    H1 2427   2.870   1.679   4.087  0.2880  0.0431  0.0978
  807TIP3    H2 2428   2.779   1.770   4.007  1.3992 -0.0449 -1.2804
  808TIP3   OH2 2429   6.277   5.174   3.636 -0.1621  0.4835  0.4802
  808TIP3    H1 2430   6.191   5.217   3.636 -0.3424  0.5060 -3.9226
  808TIP3    H2 2431   6.259   5.084   3.611  1.0181  0.0581  1.0837
  809TIP3   OH2 2432   5.710   0.991   4.091 -0.0649  0.1311  0.2924
  809TIP3    H1 2433   5.719   0.930   4.018 -2.0385 -0.3668  0.4030
  809TIP3    H2 2434   5.799   1.002   4.124  0.7609 -0.2738 -1.6558
  810TIP3   OH2 2435   3.900   2.337   4.261  0.1023 -0.0920  0.3904
  810TIP3    H1 2436   3.836   2.267   4.275  1.4190 -1.1768  1.0912
  810TIP3    H2 2437   3.879   2.402   4.328 -1.6755  0.6448 -0.8003
  811TIP3   OH2 2438   2.957   2.255   2.789  0.2274 -0.1118 -0.6015
  811TIP3    H1 2439   2.959   2.249   2.694  0.8721  0.7349 -0.6539
  811TIP3    H2 2440   2.865   2.255   2.812  0.0683 -0.2406 -1.2309
  812TIP3   OH2 2441   3.763   4.764   3.642  0.5068 -0.4299 -0.0384
  812TIP3    H1 2442   3.707   4.831   3.681  1.1331  0.1438 -0.1069
  812TIP3    H2 2443   3.703   4.693   3.618 -0.5642  1.1385 -2.3314
  813TIP3   OH2 2444   0.637   2.191   5.023 -0.5083  0.2734  0.2085
  813TIP3    H1 2445   0.602   2.262   5.076 -4.2059  0.5358 -2.1998
  813TIP3    H2 2446   0.615   2.112   5.072  0.9498  0.6208  1.4928
  814TIP3   OH2 2447   6.008   4.952   1.648 -0.2451 -0.5230  0.0361
  814TIP3    H1 2448   5.976   5.037   1.616 -0.1309 -0.1072  1.0129
  814TIP3    H2 2449   6.080   4.931   1.589 -1.2653 -0.7117 -1.2017
  815TIP3   OH2 2450   3.337   4.898   1.753 -0.2070 -0.6265  0.2054
  815TIP3    H1 2451   3.277   4.964   1.719 -0.9788 -1.1040  0.6291
  815TIP3    H2 2452   3.311   4.817   1.711 -0.5889 -1.0526  1.2332
  816TIP3   OH2 2453   1.291   2.855   3.810  0.1623  0.0584  0.6177
  816TIP3    H1 2454   1.278   2.880   3.718 -1.9471 -0.0497  0.8371
  816TIP3    H2 2455   1.230   2.783   3.825 -2.8250  2.7967  3.1539
  817TIP3   OH2 2456   1.054   5.934   0.817 -0.4584 -0.3794  0.2327
  817TIP3    H1 2457   1.030   5.853   0.772  4.7856 -1.7289 -0.9218
  817TIP3    H2 2458   1.076   5.995   0.746  0.1281  0.3835  1.0389
  818TIP3   OH2 2459   4.934   0.708   4.869 -0.1667  0.2499  0.8278
  818TIP3    H1 2460   5.022   0.714   4.834 -0.6889 -1.5715 -0.9524
  818TIP3    H2 2461   4.930   0.621   4.909 -1.4546 -0.1195 -0.0553
  819TIP3   OH2 2462   2.293   4.016   1.306 -0.3890 -0.2502  0.0913
  819TIP3    H1 2463   2.223   4.077   1.284 -1.7982 -1.6483  0.5054
  819TIP3    H2 2464   2.260   3.968   1.382  1.4660 -0.2528  0.9559
  820TIP3   OH2 2465   2.863   4.351   3.749  0.0594  0.3836 -0.3460
  820TIP3    H1 2466   2.939   4.368   3.806  0.0662 -0.9880  0.0862
  820TIP3    H2 2467   2.829   4.266   3.779  0.3817 -0.6596 -2.7458
  821TIP3   OH2 2468   0.370   3.233   2.731  0.0470  0.1797  0.1100
  821TIP3    H1 2469   0.377   3.152   2.681 -3.1918  0.3004 -0.7254
  821TIP3    H2 2470   0.405   3.301   2.673  0.7567 -0.3007 -0.0343
  822TIP3   OH2 2471   5.835   0.223   1.996 -0.2404  0.0466  0.2813
  822TIP3    H1 2472   5.787   0.259   1.921  2.8628  0.8256 -1.4883
  822TIP3    H2 2473   5.832   0.292   2.061 -1.1559  0.2179  0.0823
  823TIP3   OH2 2474   1.513   2.107   0.143  0.3724  0.6504  0.1372
  823TIP3    H1 2475   1.524   2.052   0.065  0.1136  0.2812  0.3550
  823TIP3    H2 2476   1.485   2.046   0.211  1.2999  0.8575  0.7102
  824TIP3   OH2 2477   2.334   5.476   4.333  0.0332  0.2542 -0.2816
  824TIP3    H1 2478   2.352   5.509   4.420  0.7218 -0.1349 -0.2644
  824TIP3    H2 2479   2.355   5.549   4.274  1.0848  0.0332 -0.2139
  825TIP3   OH2 2480   1.442   1.150   3.767 -0.3597 -0.1247  0.2332
  825TIP3    H1 2481   1.489   1.078   3.809  0.0100 -0.9694 -1.5315
  825TIP3    H2 2482   1.355   1.149   3.808  0.7140  0.7205  2.7194
  826TIP3   OH2 2483   3.436   1.990   1.733  0.2429 -0.0209 -0.0410
  826TIP3    H1 2484   3.385   1.917   1.696 -0.5299  1.9057 -3.1772
  826TIP3    H2 2485   3.391   2.012   1.814 -0.0974 -2.3301  0.4785
  827TIP3   OH2 2486   0.441   3.501   4.504 -0.0303  0.4354  0.1084
  827TIP3    H1 2487   0.356   3.503   4.460  1.1830  1.3011 -2.4141
  827TIP3    H2 2488   0.475   3.413   4.487  0.8547  1.0724 -1.6991
  828TIP3   OH2 2489   2.905   5.085   2.007  0.1471 -0.4108  0.6068
  828TIP3    H1 2490   2.834   5.096   2.070  1.0350  0.2409  1.5341
  828TIP3    H2 2491   2.871   5.123   1.926 -1.5289 -2.5265  0.2431
  829TIP3   OH2 2492   3.534   3.099   2.046  0.4078  0.1392  0.2152
  829TIP3    H1 2493   3.471   3.143   1.990  1.1764  0.2463 -0.5931
  829TIP3    H2 2494   3.564   3.167   2.107 -1.8262 -0.4195  2.0917
  830TIP3   OH2 2495   4.882   4.611   2.839  0.0511  0.0700 -0.1400
  830TIP3    H1 2496   4.920   4.582   2.921 -0.8995  0.0336  0.2978
  830TIP3    H2 2497   4.831   4.536   2.807  0.5062  0.0405 -0.8241
  831TIP3   OH2 2498   1.495   3.399   2.701  0.3210  0.2485  0.2177
  831TIP3    H1 2499   1.513   3.385   2.793 -0.7804 -0.6059  0.3190
  831TIP3    H2 2500   1.512   3.314   2.660  1.6285  0.8325 -0.5253
  832TIP3   OH2 2501   5.746   1.360   2.809 -0.2193  0.2158 -0.6178
  832TIP3    H1 2502   5.829   1.398   2.839 -0.5062  0.0132  0.4812
  832TIP3    H2 2503   5.700   1.433   2.767  0.2099  0.5136 -0.5738
  833TIP3   OH2 2504   4.171   2.645   0.254  0.3818  0.5452 -0.0301
  833TIP3    H1 2505   4.116   2.593   0.313  0.8746  1.7913  1.6016
  833TIP3    H2 2506   4.220   2.580   0.203  0.0751 -0.5796  1.0663
  834TIP3   OH2 2507   3.044   2.268   4.818  1.3643  0.5988  0.1414
  834TIP3    H1 2508   2.973   2.208   4.796  0.1267  1.3944  1.7164
  834TIP3    H2 2509   3.124   2.220   4.798  0.3929 -0.5942 -1.0162
  835TIP3   OH2 2510   5.120   3.166   4.337 -0.6210 -0.0712 -0.5124
  835TIP3    H1 2511   5.057   3.210   4.281 -1.8331 -1.2805 -0.1589
  835TIP3    H2 2512   5.094   3.189   4.426 -1.2151 -1.3654 -0.3275
  836TIP3   OH2 2513   5.587   5.636   1.350 -0.0321  0.0052  1.0499
  836TIP3    H1 2514   5.630   5.692   1.286 -0.2080  0.1440  1.0482
  836TIP3    H2 2515   5.514   5.690   1.383 -1.6940 -1.0598 -0.6810
  837TIP3   OH2 2516   3.593   1.278   2.548 -0.0489 -0.0372  0.0033
  837TIP3    H1 2517   3.630   1.364   2.531  0.1165 -0.1645 -0.2886
  837TIP3    H2 2518   3.565   1.282   2.639 -0.0426  0.3249 -0.0083
  838TIP3   OH2 2519   4.299   0.106  -0.007 -0.0648 -0.0758 -0.0386
  838TIP3    H1 2520   4.209   0.137   0.005 -0.1971 -0.7375  0.7834
  838TIP3    H2 2521   4.351   0.159   0.054 -0.1450 -0.7724  0.6501
  839TIP3   OH2 2522   0.383   3.598   3.784 -0.1431 -0.3934  0.4104
  839TIP3    H1 2523   0.344   3.681   3.808  0.6478  1.1055 -2.9032
  839TIP3    H2 2524   0.311   3.535   3.787 -0.8928  0.4939  2.2990
  840TIP3   OH2 2525   2.756   2.687   3.258 -0.2950  0.3970  0.1786
  840TIP3    H1 2526   2.843   2.666   3.292 -0.1992  1.0449  0.3467
  840TIP3    H2 2527   2.752   2.644   3.173  0.2482  0.4925  0.1050
  841TIP3   OH2 2528   2.218   2.490   2.155 -0.0373  0.3257 -0.1953
  841TIP3    H1 2529   2.208   2.585   2.162  0.3513  0.2365  2.8988
  841TIP3    H2 2530   2.144   2.462   2.101 -0.0912  2.3824 -1.2640
  842TIP3   OH2 2531   1.692   5.672   4.284 -0.5857  0.1300  0.0176
  842TIP3    H1 2532   1.667   5.582   4.262 -0.7961  0.2619 -0.2987
  842TIP3    H2 2533   1.773   5.687   4.236  0.5462 -0.5441  1.6175
  843TIP3   OH2 2534   6.146   0.222   0.237 -0.5139 -0.0969  0.6139
  843TIP3    H1 2535   6.064   0.195   0.196 -0.2157 -1.7725  1.0213
  843TIP3    H2 2536   6.132   0.207   0.331  0.4851 -1.1350  0.6231
  844TIP3   OH2 2537   5.389   3.119   0.619  0.1860 -0.5248  0.3923
  844TIP3    H1 2538   5.432   3.066   0.552  0.9439  0.0358  0.4207
  844TIP3    H2 2539   5.415   3.079   0.702 -0.0790 -0.7229  0.3803
  845TIP3   OH2 2540   6.283   0.168  -0.009  0.1370 -0.1216 -0.5873
  845TIP3    H1 2541   6.212   0.228  -0.030  0.0286 -0.0257  0.0559
  845TIP3    H2 2542   6.298   0.178   0.085  1.3623  0.2490 -0.7994
  846TIP3   OH2 2543   0.304   2.258   1.741  0.1397  0.0629  0.1170
  846TIP3    H1 2544   0.262   2.323   1.686 -0.5836  1.0088  1.7110
  846TIP3    H2 2545   0.311   2.180   1.686 -1.4851  0.6413 -0.9747
  847TIP3   OH2 2546   4.737   4.978   3.260  0.0921  0.4496 -0.0038
  847TIP3    H1 2547   4.819   5.027   3.264 -0.4237  1.3702 -0.3724
  847TIP3    H2 2548   4.670   5.045   3.247 -0.6488 -0.3513 -0.3857
  848TIP3   OH2 2549   3.266   4.311   5.029 -0.0954  0.1215 -0.3069
  848TIP3    H1 2550   3.332   4.267   5.083 -1.2562 -0.1026  0.9758
  848TIP3    H2 2551   3.188   4.314   5.084 -0.8283  1.4117 -1.3685
  849TIP3   OH2 2552   0.087   3.728   2.738  0.2602 -0.0387  0.3408
  849TIP3    H1 2553   0.003   3.751   2.697  0.0503 -0.0245  0.7704
  849TIP3    H2 2554   0.117   3.652   2.690  0.5773  0.6546 -0.5943
  850TIP3   OH2 2555   3.250   0.979   0.076  0.4710  0.2288  0.1877
  850TIP3    H1 2556   3.282   0.909   0.133 -0.2357  0.1257  0.4735
  850TIP3    H2 2557   3.240   0.938  -0.010  0.0567 -0.0262  0.3542
  851TIP3   OH2 2558   2.566   5.416   0.841 -0.4689 -0.3454  0.5776
  851TIP3    H1 2559   2.487   5.363   0.850 -0.6442 -0.1241  0.3877
  851TIP3    H2 2560   2.553   5.490   0.901  0.2161 -1.0202  1.5854
  852TIP3   OH2 2561   1.923   5.450   1.006  0.3824 -0.5642 -0.1001
  852TIP3    H1 2562   1.887   5.453   1.094  0.2600  0.7708 -0.1644
  852TIP3    H2 2563   1.908   5.538   0.971 -3.6664 -2.1252 -3.1116
  853TIP3   OH2 2564   3.827   2.018   1.258  0.5539 -0.2359  0.2476
  853TIP3    H1 2565   3.826   2.105   1.298  1.0475  0.3536 -0.9878
  853TIP3    H2 2566   3.887   2.025   1.185 -0.0392 -1.3957 -0.3914
  854TIP3   OH2 2567   1.589   5.420   2.279  0.6332  0.0597 -0.3317
  854TIP3    H1 2568   1.637   5.442   2.199  0.5113 -0.6785 -0.6226
  854TIP3    H2 2569   1.497   5.434   2.256  0.5852 -0.3230 -0.3839
  855TIP3   OH2 2570   3.760   1.481   3.447  0.5272 -0.1474 -0.4114
  855TIP3    H1 2571   3.721   1.536   3.380  0.7270 -2.1785 -2.3150
  855TIP3    H2 2572   3.686   1.451   3.500 -0.2275 -1.6795 -2.2293
  856TIP3   OH2 2573   1.868   4.768   0.885  0.2495 -0.1973  0.0162
  856TIP3    H1 2574   1.864   4.778   0.981  0.7901  0.2175 -0.0022
  856TIP3    H2 2575   1.953   4.729   0.868 -0.4366 -1.6706 -0.1970
  857TIP3   OH2 2576   1.569   3.280   0.305 -0.0701 -0.3893  0.2709
  857TIP3    H1 2577   1.502   3.332   0.260 -0.2442 -0.9782 -0.1669
  857TIP3    H2 2578   1.520   3.221   0.361 -0.0142 -1.6914 -0.9776
  858TIP3   OH2 2579   3.577   4.714   1.651  0.3306  0.3966 -0.7916
  858TIP3    H1 2580   3.572   4.736   1.558  1.9931  1.2461 -0.7181
  858TIP3    H2 2581   3.632   4.636   1.654  0.8603  0.7742 -0.4878
  859TIP3   OH2 2582   2.434   3.119   0.326  0.6510 -0.3059  0.1193
  859TIP3    H1 2583   2.359   3.067   0.297 -0.6153  1.6796 -0.4274
  859TIP3    H2 2584   2.506   3.057   0.333 -0.8591 -2.1606 -0.0892
  860TIP3   OH2 2585   5.414   5.303   0.226 -0.2999  0.4273  0.3132
  860TIP3    H1 2586   5.487   5.361   0.246  0.0234 -0.5728  2.2739
  860TIP3    H2 2587   5.337   5.359   0.228  0.3397  1.4923 -1.7779
  861TIP3   OH2 2588   4.246   4.993   1.112  0.1557  0.1031  0.0532
  861TIP3    H1 2589   4.272   4.951   1.194  0.1995 -0.7904 -0.4043
  861TIP3    H2 2590   4.213   5.079   1.139  0.4182 -0.0679  0.9765
  862TIP3   OH2 2591   1.078   3.736   1.357  0.2927  0.0239  0.3715
  862TIP3    H1 2592   1.079   3.815   1.303  0.2073  1.1288  1.9248
  862TIP3    H2 2593   1.136   3.675   1.311  1.7150  1.5910 -0.0185
  863TIP3   OH2 2594   1.909   2.063   4.750  0.1232 -0.2395 -0.3147
  863TIP3    H1 2595   1.965   2.071   4.673  0.3721  1.9083  0.0330
  863TIP3    H2 2596   1.829   2.110   4.727 -0.6773 -1.4263 -0.0197
  864TIP3   OH2 2597   3.533   3.613   0.305 -0.1780 -0.2625  0.0777
  864TIP3    H1 2598   3.509   3.668   0.231 -1.1957 -1.0255 -0.1762
  864TIP3    H2 2599   3.599   3.665   0.353 -0.7071  0.9293 -0.4487
  865TIP3   OH2 2600   5.788   5.647   2.209 -0.1860  0.1528 -0.5914
  865TIP3    H1 2601   5.743   5.697   2.277  0.3958 -0.0364 -0.0518
  865TIP3    H2 2602   5.737   5.566   2.201 -0.4146  0.2967 -0.5743
  866TIP3   OH2 2603   3.624   0.127   3.918  0.4708  0.2226  0.2361
  866TIP3    H1 2604   3.635   0.033   3.933  1.2188  0.5129  1.7673
  866TIP3    H2 2605   3.572   0.134   3.838  0.0765 -1.4898  0.3248
  867TIP3   OH2 2606   3.390   3.203   4.034 -0.0330 -0.3524  0.5889
  867TIP3    H1 2607   3.462   3.228   3.975  0.0021  1.8509  1.4875
  867TIP3    H2 2608   3.425   3.128   4.083  1.2525 -0.0013  0.2559
  868TIP3   OH2 2609   1.173   3.507   2.004 -0.1778 -0.3311  0.2857
  868TIP3    H1 2610   1.086   3.477   1.978 -0.6648  0.1530  1.2884
  868TIP3    H2 2611   1.188   3.586   1.952  0.3726 -1.3071 -1.0848
  869TIP3   OH2 2612   1.255   4.078   2.450 -0.0359 -0.4489 -0.0009
  869TIP3    H1 2613   1.216   3.996   2.483  0.2840 -0.3330  0.6920
  869TIP3    H2 2614   1.349   4.063   2.455  0.0304  0.1277  0.5624
  870TIP3   OH2 2615   2.458   2.105   3.597  0.1474 -0.0515 -0.4554
  870TIP3    H1 2616   2.498   2.136   3.679  3.4166 -2.7955 -0.7954
  870TIP3    H2 2617   2.377   2.062   3.625 -1.0358  2.6531  0.7125
  871TIP3   OH2 2618   4.728   5.357   4.944  0.2830  0.1305  0.1125
  871TIP3    H1 2619   4.674   5.436   4.938 -0.9278 -0.4582  2.1842
  871TIP3    H2 2620   4.670   5.292   4.984  2.3612 -0.7067  1.9544
  872TIP3   OH2 2621   2.046   5.220   0.525  0.0771 -0.5665 -0.2222
  872TIP3    H1 2622   1.981   5.279   0.487  0.9060  0.7941  0.4218
  872TIP3    H2 2623   2.098   5.191   0.450  0.4897  0.5669 -0.3941
  873TIP3   OH2 2624   1.792   4.607   3.511 -0.1325 -0.2812  0.4365
  873TIP3    H1 2625   1.775   4.529   3.563 -1.7397  0.3817  0.9438
  873TIP3    H2 2626   1.724   4.606   3.443 -0.7149  1.0971  0.9598
  874TIP3   OH2 2627   2.875   4.273   0.178  0.7939  0.0818  0.0266
  874TIP3    H1 2628   2.947   4.303   0.124  1.7831 -0.3895  1.0408
  874TIP3    H2 2629   2.877   4.329   0.255  0.6338 -0.5136  0.4694
  875TIP3   OH2 2630   3.534   4.565   1.903  0.4927  0.0046  0.2689
  875TIP3    H1 2631   3.626   4.552   1.923  0.4972  0.9170  0.9084
  875TIP3    H2 2632   3.529   4.652   1.865  0.1268 -0.7562 -1.5015
  876TIP3   OH2 2633   2.584   5.159   0.097  0.3347 -0.1746 -0.5927
  876TIP3    H1 2634   2.574   5.066   0.118  0.8246 -0.7518 -2.6741
  876TIP3    H2 2635   2.650   5.190   0.158 -0.2976 -1.0062  0.5728
  877TIP3   OH2 2636   3.312   3.629   4.550  0.1957 -0.3744 -0.6591
  877TIP3    H1 2637   3.283   3.694   4.485  0.7537 -0.5378 -1.0746
  877TIP3    H2 2638   3.236   3.619   4.608 -0.7261 -1.0383 -1.9200
  878TIP3   OH2 2639   1.150   2.381   4.150 -0.5015 -0.6017 -0.1588
  878TIP3    H1 2640   1.184   2.459   4.193 -1.8342  0.0946 -0.3459
  878TIP3    H2 2641   1.134   2.319   4.222 -0.3963 -0.3480  0.0857
  879TIP3   OH2 2642   4.088   1.224   0.504 -0.0506  0.2103 -0.4033
  879TIP3    H1 2643   4.077   1.134   0.475  0.8100 -0.4909  1.2872
  879TIP3    H2 2644   4.182   1.233   0.519 -0.0698  1.5358 -0.9617
  880TIP3   OH2 2645   1.195   4.430   0.148  0.3186 -0.2602 -0.1379
  880TIP3    H1 2646   1.196   4.343   0.107  0.5357 -0.3220 -0.0030
  880TIP3    H2 2647   1.133   4.481   0.095  0.8544 -0.2348 -0.7530
  881TIP3   OH2 2648   3.343   4.939   3.943 -0.1382  0.0770 -0.3733
  881TIP3    H1 2649   3.258   4.969   3.910 -0.2653  0.9927  0.7025
  881TIP3    H2 2650   3.360   4.996   4.018  1.0568 -0.6291 -0.0891
  882TIP3   OH2 2651   5.142   2.372   1.233 -0.0317  0.0623  0.3937
  882TIP3    H1 2652   5.052   2.392   1.259  0.3287  1.9144  0.3636
  882TIP3    H2 2653   5.184   2.340   1.312 -1.1995 -2.9061 -0.0447
  883TIP3   OH2 2654   0.741   1.544   0.100 -0.4788  0.6956 -0.3469
  883TIP3    H1 2655   0.835   1.529   0.087 -1.1166 -1.5471 -3.3833
  883TIP3    H2 2656   0.729   1.537   0.195  2.2398 -0.2208  0.0276
  884TIP3   OH2 2657   2.592   5.409   4.595  0.0254 -0.3642  0.3675
  884TIP3    H1 2658   2.686   5.418   4.605  0.1010  0.1374 -0.6308
  884TIP3    H2 2659   2.556   5.488   4.636  0.1666  0.3544 -0.8472
  885TIP3   OH2 2660   0.774   1.731   2.783  0.5230 -0.3959  0.2728
  885TIP3    H1 2661   0.769   1.709   2.876 -1.4183 -0.2596  0.2370
  885TIP3    H2 2662   0.733   1.657   2.739  1.1947 -0.3385 -0.4772
  886TIP3   OH2 2663   1.576   3.957   3.458 -0.3738  0.0106 -0.0399
  886TIP3    H1 2664   1.671   3.953   3.464 -0.3997 -1.5422 -0.3359
  886TIP3    H2 2665   1.559   4.016   3.384  0.3390  0.5048  0.1822
  887TIP3   OH2 2666   3.563   2.845   2.566 -0.6323 -0.3194  0.7642
  887TIP3    H1 2667   3.588   2.831   2.658  0.2065 -0.6749  0.4896
  887TIP3    H2 2668   3.634   2.805   2.516 -0.6519  0.6358 -0.0428
  888TIP3   OH2 2669   2.808   5.218   1.769  0.2351 -0.1911  0.2226
  888TIP3    H1 2670   2.853   5.245   1.689  2.6672 -0.5054  1.4220
  888TIP3    H2 2671   2.760   5.139   1.743  2.3517 -1.2915 -0.5976
  889TIP3   OH2 2672   5.588   2.749   4.586 -0.0688  0.1971  0.2631
  889TIP3    H1 2673   5.660   2.686   4.578 -0.7646 -0.4918 -0.9494
  889TIP3    H2 2674   5.626   2.825   4.630  1.3317 -0.2541 -0.1326
  890TIP3   OH2 2675   0.036   4.754   4.810  0.3997 -0.2684  0.3985
  890TIP3    H1 2676  -0.051   4.773   4.775 -0.2067 -0.7735  1.5754
  890TIP3    H2 2677   0.066   4.837   4.846  0.4536 -0.0734 -0.0841
  891TIP3   OH2 2678   0.657   3.007   4.261  0.0253  0.2843 -0.6035
  891TIP3    H1 2679   0.711   3.049   4.194  0.1667  1.9648  0.5032
  891TIP3    H2 2680   0.567   3.014   4.228  0.1859  0.1281 -1.0881
  892TIP3   OH2 2681   2.700   2.930   4.855  0.2883 -0.6335 -0.1932
  892TIP3    H1 2682   2.703   3.024   4.872 -1.5700 -0.2337 -1.6732
  892TIP3    H2 2683   2.675   2.890   4.938 -0.8887  0.4055 -0.0256
  893TIP3   OH2 2684   1.988   2.203   3.049  0.1458 -0.5133  0.0783
  893TIP3    H1 2685   1.992   2.288   3.004  0.9230 -0.8312 -0.4909
  893TIP3    H2 2686   2.037   2.217   3.130 -1.2571  0.0634  0.8562
  894TIP3   OH2 2687   0.527   4.273   4.989 -0.0239 -0.2068  0.6757
  894TIP3    H1 2688   0.545   4.196   5.043  0.2505 -1.1840 -0.7550
  894TIP3    H2 2689   0.447   4.251   4.941 -0.7128  0.9599  1.2334
  895TIP3   OH2 2690   5.989   2.224   3.587  0.7660  0.4058  0.2645
  895TIP3    H1 2691   5.933   2.294   3.555  3.5828  2.7774  0.1261
  895TIP3    H2 2692   5.971   2.220   3.681  0.3285  1.0718  0.2130
  896TIP3   OH2 2693   3.777   2.605   2.733 -0.3645  0.4873  0.1377
  896TIP3    H1 2694   3.762   2.610   2.828 -1.7195 -1.8744  0.1091
  896TIP3    H2 2695   3.750   2.517   2.709  1.1515  0.5973 -2.2802
  897TIP3   OH2 2696   4.506   1.078   0.077 -0.4360  0.5440 -0.5750
  897TIP3    H1 2697   4.570   1.130   0.126 -0.7854  0.3318  0.1106
  897TIP3    H2 2698   4.440   1.141   0.048  0.4473  0.8986 -1.9414
  898TIP3   OH2 2699   1.619   5.710   2.965  0.2876  0.1283 -0.0343
  898TIP3    H1 2700   1.530   5.684   2.989  0.6226 -0.3450  0.7032
  898TIP3    H2 2701   1.645   5.646   2.898  1.1779 -1.6554  1.8996
  899TIP3   OH2 2702  -0.016   1.991   1.430  0.2338  0.1685 -0.8952
  899TIP3    H1 2703   0.015   2.081   1.420  0.1606  0.1723 -1.0875
  899TIP3    H2 2704   0.002   1.949   1.346  1.3877 -0.3402 -0.4140
  900TIP3   OH2 2705   3.091   3.223   0.723 -0.2575  0.1052 -0.3518
  900TIP3    H1 2706   3.091   3.293   0.657  0.5187 -0.2477 -0.7502
  900TIP3    H2 2707   3.184   3.201   0.733 -0.4316 -0.3323  0.3466
  901TIP3   OH2 2708   5.715   2.125   2.422 -0.5275  0.6599 -0.2276
  901TIP3    H1 2709   5.799   2.148   2.460 -0.9311 -0.9429  1.8246
  901TIP3    H2 2710   5.654   2.189   2.459 -0.5828  0.3406  0.2478
  902TIP3   OH2 2711   2.482   0.414   4.952 -0.9985 -0.0757 -0.1189
  902TIP3    H1 2712   2.461   0.475   4.881 -0.6298  0.7834  0.4989
  902TIP3    H2 2713   2.399   0.372   4.973 -1.0519 -0.5700 -1.2659
  903TIP3   OH2 2714   1.094   1.721   4.713  0.0333 -0.0222  0.0471
  903TIP3    H1 2715   1.022   1.698   4.654 -0.2249  0.8224  0.0226
  903TIP3    H2 2716   1.171   1.725   4.655  0.1921 -1.3255  0.1420
  904TIP3   OH2 2717   2.927   0.353   3.507  0.1062 -0.1533 -0.3557
  904TIP3    H1 2718   2.967   0.357   3.420  1.5873  0.1732  0.3041
  904TIP3    H2 2719   2.880   0.270   3.508  2.2078 -1.4314 -0.6179
  905TIP3   OH2 2720   2.803   3.823   1.937 -0.3744 -0.3546  0.3104
  905TIP3    H1 2721   2.823   3.909   1.901  0.3304 -0.5269  0.2933
  905TIP3    H2 2722   2.820   3.762   1.866  2.4777 -0.8588  1.3030
  906TIP3   OH2 2723   5.173   5.728   1.616 -0.0255  0.7287  0.3842
  906TIP3    H1 2724   5.176   5.654   1.556  1.8933  0.6820  0.4701
  906TIP3    H2 2725   5.087   5.723   1.657 -0.1706 -1.0758 -0.0727
  907TIP3   OH2 2726   1.333   3.595   3.182 -0.2941 -0.2712  0.0291
  907TIP3    H1 2727   1.392   3.565   3.252 -1.3298 -0.2447  0.9300
  907TIP3    H2 2728   1.391   3.607   3.107  1.3567  2.2875  1.5654
  908TIP3   OH2 2729   2.138   3.245   0.128  0.0928  0.0849  0.2898
  908TIP3    H1 2730   2.117   3.295   0.207  1.4100 -0.5781  1.0940
  908TIP3    H2 2731   2.233   3.240   0.127  0.0722 -0.3843 -1.0624
  909TIP3   OH2 2732   1.337   5.567   3.648  0.6392  0.0860  0.2606
  909TIP3    H1 2733   1.354   5.660   3.636 -0.2681 -0.0863 -3.6164
  909TIP3    H2 2734   1.423   5.530   3.671  1.1873  1.7384  1.0152
  910TIP3   OH2 2735   3.642   5.300   2.129 -0.0725  0.1474 -0.1026
  910TIP3    H1 2736   3.724   5.343   2.105 -1.2761  1.8494 -1.3646
  910TIP3    H2 2737   3.652   5.279   2.222  1.7240  0.4544 -0.1987
  911TIP3   OH2 2738   2.063   5.219   1.529  0.0947  0.4023 -0.0793
  911TIP3    H1 2739   2.062   5.161   1.453  0.2025  1.2869 -0.7702
  911TIP3    H2 2740   1.971   5.224   1.556  0.1695 -0.6219  0.4138
  912TIP3   OH2 2741   1.245   2.122   1.342 -0.0685 -0.3397 -0.1157
  912TIP3    H1 2742   1.294   2.193   1.384 -3.0649  1.3368  0.8669
  912TIP3    H2 2743   1.216   2.159   1.259  0.2971 -1.2811 -0.6709
  913TIP3   OH2 2744   3.509   3.887   3.734 -0.0241  0.2080  0.1747
  913TIP3    H1 2745   3.543   3.954   3.675  2.5990 -1.4123 -0.3170
  913TIP3    H2 2746   3.501   3.932   3.819  3.4640  0.7881  0.3188
  914TIP3   OH2 2747   4.556   4.455   0.840  0.1611 -0.2278 -0.1497
  914TIP3    H1 2748   4.568   4.544   0.872 -0.4170  0.5337 -1.8909
  914TIP3    H2 2749   4.645   4.420   0.833  0.3408 -0.1791  1.4831
  915TIP3   OH2 2750   1.377   2.023   0.756  0.0110 -0.1464  0.3687
  915TIP3    H1 2751   1.406   2.108   0.723  1.6195 -0.4373  0.9141
  915TIP3    H2 2752   1.351   2.040   0.846  3.9164 -0.7527  1.8044
  916TIP3   OH2 2753   1.543   0.760   3.776 -0.4911  0.2521  0.2810
  916TIP3    H1 2754   1.594   0.834   3.809 -2.5133  1.3726  1.0970
  916TIP3    H2 2755   1.483   0.799   3.712  0.0405 -1.1163 -1.1298
  917TIP3   OH2 2756   4.182   4.032   3.908  0.1894 -0.2876  0.4789
  917TIP3    H1 2757   4.131   3.988   3.976 -0.2694 -1.0557 -0.3284
  917TIP3    H2 2758   4.261   3.978   3.900 -0.6089 -1.3271 -0.8748
  918TIP3   OH2 2759   1.872   1.388   1.553  0.1527  0.1337 -0.0035
  918TIP3    H1 2760   1.903   1.356   1.468  0.3243 -0.1168  0.1526
  918TIP3    H2 2761   1.952   1.413   1.599  0.1386 -0.6855  0.4725
  919TIP3   OH2 2762   1.905   3.636   3.684 -0.4242  0.6770 -0.1621
  919TIP3    H1 2763   1.892   3.649   3.778 -2.5154  2.0407 -0.5737
  919TIP3    H2 2764   1.828   3.586   3.656 -0.8004  1.9016 -1.4309
  920TIP3   OH2 2765   5.896   0.699   1.825 -0.4021  0.0609  0.5375
  920TIP3    H1 2766   5.906   0.777   1.770  0.0726 -0.0279  0.4917
  920TIP3    H2 2767   5.983   0.658   1.825 -0.0963  0.6266  2.2088
  921TIP3   OH2 2768   0.328   0.811   0.181 -0.4735 -0.3382 -0.3061
  921TIP3    H1 2769   0.347   0.866   0.256  0.2575  0.3015 -0.9435
  921TIP3    H2 2770   0.314   0.724   0.218 -1.5489  0.2222  0.7071
  922TIP3   OH2 2771   0.722   4.915   4.460 -0.2473  0.4558  0.0305
  922TIP3    H1 2772   0.695   4.823   4.462 -1.7639  0.8777  1.2800
  922TIP3    H2 2773   0.702   4.948   4.548  2.3675  1.4457  0.3769
  923TIP3   OH2 2774   3.351   4.693   0.713  0.4463  0.4344  0.3324
  923TIP3    H1 2775   3.320   4.710   0.802  1.7711 -2.9214  1.5740
  923TIP3    H2 2776   3.273   4.663   0.665 -0.1296  1.6278  0.4651
  924TIP3   OH2 2777   0.099   5.404   3.728  0.5380  0.4755  0.2238
  924TIP3    H1 2778   0.084   5.321   3.775  1.7177  0.5889  0.8203
  924TIP3    H2 2779   0.019   5.416   3.677 -0.7878  0.2943  2.1310
  925TIP3   OH2 2780   2.246   3.303   2.536 -0.2864 -0.1261  0.0491
  925TIP3    H1 2781   2.234   3.393   2.507  0.6713  0.3091  0.9607
  925TIP3    H2 2782   2.287   3.259   2.461  0.7610  0.6132  0.1639
  926TIP3   OH2 2783   2.166   0.441   4.178 -0.0774 -0.6808  0.1177
  926TIP3    H1 2784   2.091   0.495   4.153 -0.3590 -1.6443 -1.2579
  926TIP3    H2 2785   2.242   0.487   4.143 -0.1727 -0.4395  0.2302
  927TIP3   OH2 2786   4.923   1.657   2.661  0.4635  0.3283 -0.0787
  927TIP3    H1 2787   4.962   1.598   2.596  1.2489  2.2964 -1.4805
  927TIP3    H2 2788   4.851   1.607   2.699  1.6849 -1.8765 -0.4851
  928TIP3   OH2 2789   2.521   3.035   2.421  0.0481 -0.0722  0.4717
  928TIP3    H1 2790   2.504   2.956   2.471  3.1016 -0.6589  0.7482
  928TIP3    H2 2791   2.516   3.008   2.330 -3.3263  0.5240  0.3340
  929TIP3   OH2 2792   5.216   1.916   2.712  0.0714  0.1775  0.1068
  929TIP3    H1 2793   5.286   1.952   2.766  0.9410 -1.9541  0.4786
  929TIP3    H2 2794   5.135   1.939   2.758  0.7954 -1.8435  2.5913
  930TIP3   OH2 2795   3.145   3.685   2.034  0.2356  0.3569  0.7448
  930TIP3    H1 2796   3.171   3.771   2.002 -0.8890  0.7182  0.7487
  930TIP3    H2 2797   3.118   3.700   2.125 -0.4065  0.1011  0.6070
  931TIP3   OH2 2798   5.952   3.601   3.840 -0.2302 -0.1083  0.6231
  931TIP3    H1 2799   5.966   3.601   3.934 -1.8509 -1.7701  0.9377
  931TIP3    H2 2800   5.895   3.676   3.823  0.4969  0.5068  0.8664
  932TIP3   OH2 2801   5.679   2.634   2.728 -0.1094  0.6018  0.1473
  932TIP3    H1 2802   5.691   2.544   2.758  0.4016  0.3082 -0.8849
  932TIP3    H2 2803   5.723   2.637   2.643 -0.4161  1.7364  0.0109
  933TIP3   OH2 2804   1.954   1.372   4.225 -0.4736  0.1293 -0.3675
  933TIP3    H1 2805   1.952   1.413   4.139 -0.8244 -0.8040 -0.8118
  933TIP3    H2 2806   1.919   1.440   4.284 -0.2402  0.7687 -0.9509
  934TIP3   OH2 2807   5.098   1.985   4.588  0.0378 -0.7532 -0.0763
  934TIP3    H1 2808   5.081   1.973   4.494 -0.1315 -0.8948 -0.0297
  934TIP3    H2 2809   5.191   1.965   4.598  0.5961  1.3427 -0.5536
  935TIP3   OH2 2810   0.960   2.229   3.287 -0.2091  0.3179 -0.1899
  935TIP3    H1 2811   0.918   2.314   3.274 -0.2010  0.4961  0.8588
  935TIP3    H2 2812   1.002   2.236   3.373 -1.0557 -1.0800  0.3695
  936TIP3   OH2 2813   4.309   2.812   3.310  0.0697 -0.0525 -0.0257
  936TIP3    H1 2814   4.391   2.797   3.358 -0.4061  0.7946  1.1118
  936TIP3    H2 2815   4.299   2.735   3.255  1.0112 -0.7506  0.7409
  937TIP3   OH2 2816   6.332   1.353   1.416  0.2779 -0.5425  0.6133
  937TIP3    H1 2817   6.284   1.343   1.498 -0.5124 -1.0495  0.0941
  937TIP3    H2 2818   6.283   1.419   1.367  1.4080  0.6400  1.0122
  938TIP3   OH2 2819   1.487   5.623   3.300 -0.3612 -0.1529 -0.3222
  938TIP3    H1 2820   1.582   5.618   3.308 -0.4693  0.2698  2.2048
  938TIP3    H2 2821   1.455   5.541   3.336 -0.9686  0.2621  0.1133
  939TIP3   OH2 2822   5.458   3.865   0.482  0.2124  0.1859  0.0010
  939TIP3    H1 2823   5.472   3.812   0.403 -0.3280 -0.9435  0.6362
  939TIP3    H2 2824   5.434   3.801   0.549  0.5596  1.1407  1.0573
  940TIP3   OH2 2825   3.427   3.791   0.867 -0.0211  0.1974  0.2532
  940TIP3    H1 2826   3.357   3.824   0.810 -0.5645  0.1219  0.8518
  940TIP3    H2 2827   3.389   3.797   0.955 -0.9789 -3.9226  0.3011
  941TIP3   OH2 2828   3.055   1.664   2.229 -0.0966  0.3491  0.2094
  941TIP3    H1 2829   3.070   1.724   2.156  0.1948  1.0073  0.7989
  941TIP3    H2 2830   3.142   1.644   2.263 -0.0991 -1.2806 -0.6427
  942TIP3   OH2 2831   4.787   4.720   0.271  0.0772 -0.1622  0.0957
  942TIP3    H1 2832   4.840   4.683   0.200 -1.2238  0.0843 -1.0365
  942TIP3    H2 2833   4.697   4.702   0.245 -0.4550  0.7702  1.2381
  943TIP3   OH2 2834   3.837   4.543   1.915 -0.1714 -0.2893 -0.3792
  943TIP3    H1 2835   3.889   4.466   1.937  0.9510  0.2329 -1.1353
  943TIP3    H2 2836   3.890   4.617   1.944 -0.6951  0.2453 -0.7515
  944TIP3   OH2 2837   0.213   4.826   4.549 -0.0505 -0.1398 -0.1981
  944TIP3    H1 2838   0.208   4.920   4.567 -0.0188  0.3425 -2.3925
  944TIP3    H2 2839   0.207   4.785   4.635 -1.2369  1.8219  0.7431
  945TIP3   OH2 2840   4.559   1.756   0.282 -0.0086  0.2592  0.4829
  945TIP3    H1 2841   4.646   1.796   0.283  0.1593  0.0139 -1.6365
  945TIP3    H2 2842   4.530   1.762   0.191 -1.3128 -1.6233  0.7186
  946TIP3   OH2 2843   0.591   0.590   1.007  0.0729 -0.2376  0.3207
  946TIP3    H1 2844   0.523   0.658   1.004  1.2197  0.9750  0.9416
  946TIP3    H2 2845   0.565   0.535   1.081 -0.4173  0.0021  0.3354
  947TIP3   OH2 2846   3.688   2.707   1.681 -0.1314 -0.3247  0.0443
  947TIP3    H1 2847   3.597   2.698   1.709 -0.5221 -1.6786 -1.5089
  947TIP3    H2 2848   3.739   2.696   1.761 -1.3024 -0.1041  0.8409
  948TIP3   OH2 2849   5.155   1.861   1.022  0.0055  0.0027  0.2335
  948TIP3    H1 2850   5.126   1.780   0.980  1.0857 -0.4338  0.3071
  948TIP3    H2 2851   5.088   1.926   0.998 -0.7536 -0.8447 -0.0093
  949TIP3   OH2 2852   2.751   1.698   1.307  0.1714  0.3072  0.8515
  949TIP3    H1 2853   2.810   1.769   1.333 -0.4098  2.3897 -2.7727
  949TIP3    H2 2854   2.672   1.743   1.275 -1.1979 -2.1307  0.5455
  950TIP3   OH2 2855   2.217   4.378   3.952  0.0496 -0.1998  0.2879
  950TIP3    H1 2856   2.273   4.333   4.015  2.6155 -1.7489 -2.7926
  950TIP3    H2 2857   2.264   4.459   3.931 -0.4814  0.0228 -0.0694
  951TIP3   OH2 2858   3.031   0.058   4.608  0.0939 -0.2917  0.0369
  951TIP3    H1 2859   2.943   0.078   4.575 -0.6070 -0.7971  1.5339
  951TIP3    H2 2860   3.053  -0.025   4.564 -0.2279 -0.2232 -0.2645
  952TIP3   OH2 2861   4.206   5.816   2.803 -0.1383 -1.1839  0.4571
  952TIP3    H1 2862   4.190   5.765   2.882 -0.5906 -1.6188  0.0963
  952TIP3    H2 2863   4.271   5.764   2.755  1.6858  0.0679  1.4469
  953TIP3   OH2 2864   6.326   3.557   1.067 -0.1453  0.0098 -0.6914
  953TIP3    H1 2865   6.241   3.561   1.021 -0.6056 -0.4281  0.1051
  953TIP3    H2 2866   6.361   3.646   1.059 -1.5243  0.7205  0.5193
  954TIP3   OH2 2867   2.326   5.806   4.446 -0.0901 -0.7355  0.5370
  954TIP3    H1 2868   2.270   5.744   4.492 -0.1256  0.1825  1.8068
  954TIP3    H2 2869   2.268   5.847   4.382 -0.4443 -0.9864  0.6903
  955TIP3   OH2 2870   3.618   4.814   1.364  0.3087 -0.4177  0.1848
  955TIP3    H1 2871   3.647   4.904   1.353 -1.3844  0.0163 -1.1815
  955TIP3    H2 2872   3.632   4.773   1.279 -0.8912 -0.8079  0.1471
  956TIP3   OH2 2873   1.845   4.534   2.090 -0.2777 -0.3017 -0.2898
  956TIP3    H1 2874   1.928   4.564   2.127  0.0941 -1.8842  0.2592
  956TIP3    H2 2875   1.782   4.602   2.114  0.8578  0.9617 -0.7818
  957TIP3   OH2 2876   4.995   2.866   4.768  0.2785  1.0422 -0.0178
  957TIP3    H1 2877   4.948   2.891   4.688 -1.3084  0.4495  0.6808
  957TIP3    H2 2878   4.932   2.812   4.816  1.6384  0.3713  1.0713
  958TIP3   OH2 2879   3.694   2.271   0.490 -0.6369 -0.2030 -0.2649
  958TIP3    H1 2880   3.637   2.343   0.462 -0.0201  0.8405  1.0471
  958TIP3    H2 2881   3.774   2.282   0.438  1.2485  2.8368  2.8553
  959TIP3   OH2 2882   3.066   4.296   3.399 -0.0531 -0.3272  0.2556
  959TIP3    H1 2883   2.970   4.293   3.406 -0.0833  0.4094  0.2548
  959TIP3    H2 2884   3.097   4.237   3.469 -0.4939  0.2539  0.9616
  960TIP3   OH2 2885   2.628   3.213   3.098  0.4706  0.0888  0.7053
  960TIP3    H1 2886   2.539   3.178   3.101 -0.9200  3.0833 -1.2207
  960TIP3    H2 2887   2.669   3.166   3.025 -0.1266 -0.0262  0.4347
  961TIP3   OH2 2888   3.093   3.113   1.676 -0.0621  0.2672 -0.6432
  961TIP3    H1 2889   3.177   3.132   1.719 -0.7210  1.0659  0.3501
  961TIP3    H2 2890   3.062   3.033   1.719  0.6285 -0.5996 -1.7043
  962TIP3   OH2 2891   4.221   4.528   2.172 -0.1540 -0.5401 -0.1439
  962TIP3    H1 2892   4.222   4.598   2.237  0.4716 -1.6341  1.0750
  962TIP3    H2 2893   4.311   4.526   2.138 -0.3316 -0.3480 -0.6314
  963TIP3   OH2 2894   2.190   4.676   3.482 -0.5621  0.2992 -0.6941
  963TIP3    H1 2895   2.247   4.733   3.533 -1.2314  0.2316  0.1525
  963TIP3    H2 2896   2.118   4.654   3.542  0.7182 -3.2098 -0.2530
  964TIP3   OH2 2897   5.590   2.320   4.779 -0.2163  0.1870 -0.0930
  964TIP3    H1 2898   5.656   2.357   4.837  0.3568  0.0257 -0.6270
  964TIP3    H2 2899   5.637   2.304   4.696 -0.9402  0.1437 -0.5044
  965TIP3   OH2 2900   2.164   4.087   3.980  0.5731 -0.1885 -0.1921
  965TIP3    H1 2901   2.187   4.176   3.954  2.9759 -0.5240  0.5105
  965TIP3    H2 2902   2.246   4.038   3.970  0.0742 -1.6519  2.1470
  966TIP3   OH2 2903   5.059   3.524   3.299 -0.4956  0.5849  0.2472
  966TIP3    H1 2904   5.109   3.448   3.331  0.1000  1.8809  2.6371
  966TIP3    H2 2905   4.970   3.492   3.291 -0.1752 -0.5063  0.7941
  967TIP3   OH2 2906   4.267   3.151   4.419 -0.2430  0.1756  0.4872
  967TIP3    H1 2907   4.190   3.104   4.385 -0.3211  0.4742  0.2458
  967TIP3    H2 2908   4.256   3.241   4.388  0.5117  0.0889 -0.0655
  968TIP3   OH2 2909   2.946   5.345   1.571 -0.1809 -0.5376  0.0007
  968TIP3    H1 2910   3.001   5.334   1.493  1.0876  0.2615  0.7474
  968TIP3    H2 2911   2.934   5.439   1.579  0.5469 -0.5246  1.2993
  969TIP3   OH2 2912   3.332   1.591   2.348  0.3995  0.0458 -0.3649
  969TIP3    H1 2913   3.278   1.513   2.343  0.2207  0.2223 -1.3562
  969TIP3    H2 2914   3.302   1.636   2.427  0.7030 -1.0148  0.3845
  970TIP3   OH2 2915   5.154   4.430   0.747 -0.4979  0.6033 -0.5604
  970TIP3    H1 2916   5.120   4.514   0.715  0.2109  1.2105  0.2126
  970TIP3    H2 2917   5.202   4.393   0.673 -0.3555  1.1412 -0.7404
  971TIP3   OH2 2918   6.112   1.253   2.601 -0.4083  0.0013  0.3501
  971TIP3    H1 2919   6.019   1.231   2.610 -1.4378  3.0849 -1.4061
  971TIP3    H2 2920   6.121   1.286   2.512  2.3853  0.0281  0.5476
  972TIP3   OH2 2921   4.052   1.372   0.106 -0.0203  0.2516 -0.5303
  972TIP3    H1 2922   3.987   1.435   0.074 -3.3154 -1.4558  2.1271
  972TIP3    H2 2923   4.105   1.422   0.168  0.2603  1.3393 -1.6046
  973TIP3   OH2 2924   3.602   4.153   0.626  0.7338 -0.3118  0.3836
  973TIP3    H1 2925   3.551   4.092   0.573 -0.8399  0.0166  1.4501
  973TIP3    H2 2926   3.638   4.216   0.563 -1.7295  0.5370 -0.2805
  974TIP3   OH2 2927   0.118   1.541   3.899 -0.2548 -0.2517  0.6466
  974TIP3    H1 2928   0.205   1.531   3.937 -0.0471  1.4637  0.6966
  974TIP3    H2 2929   0.100   1.456   3.857  0.9922 -0.9697  1.5050
  975TIP3   OH2 2930   0.667   4.890   2.978 -0.0910 -0.7416  0.0052
  975TIP3    H1 2931   0.746   4.845   2.947  1.2033  1.2886  0.1433
  975TIP3    H2 2932   0.695   4.936   3.057 -1.5074 -0.2739  0.2574
  976TIP3   OH2 2933   0.930   2.460   3.984 -0.0913  0.5680  0.2847
  976TIP3    H1 2934   0.862   2.439   4.049  0.5920  2.2227  1.6056
  976TIP3    H2 2935   1.012   2.441   4.029  0.4427  2.8184  0.3843
  977TIP3   OH2 2936   0.257   3.260   4.049 -0.2695  0.0077  0.0879
  977TIP3    H1 2937   0.298   3.342   4.076  0.3190 -0.4395  0.5843
  977TIP3    H2 2938   0.227   3.220   4.130 -0.9995 -0.0408 -0.2008
  978TIP3   OH2 2939   4.954   1.162   3.672 -0.0408  1.0443 -0.1200
  978TIP3    H1 2940   4.926   1.071   3.680 -1.0537  1.3509 -0.0963
  978TIP3    H2 2941   5.049   1.157   3.660 -0.0916 -0.0105 -0.1350
  979TIP3   OH2 2942   2.968   5.787   3.438  0.2516  0.3107 -0.1386
  979TIP3    H1 2943   2.963   5.804   3.344  0.7406  0.1888 -0.1913
  979TIP3    H2 2944   2.929   5.700   3.449  0.7704  0.0491 -0.3198
  980TIP3   OH2 2945   1.314   0.803   3.109 -0.3081 -0.0682  0.0562
  980TIP3    H1 2946   1.341   0.753   3.032  0.3631 -0.2151  0.3836
  980TIP3    H2 2947   1.247   0.749   3.151  0.1138 -0.5000  0.1793
  981TIP3   OH2 2948   3.439   0.108   1.100  0.2197 -1.0073  0.2238
  981TIP3    H1 2949   3.461   0.121   1.007 -1.2965  1.2660  0.1279
  981TIP3    H2 2950   3.460   0.192   1.141 -1.2266 -1.2455  1.5023
  982TIP3   OH2 2951   2.126   5.498   0.542  0.0263 -0.3245  0.1376
  982TIP3    H1 2952   2.102   5.407   0.557  0.3004 -0.2062  1.4087
  982TIP3    H2 2953   2.159   5.529   0.627  2.4202  0.2098 -0.9058
  983TIP3   OH2 2954   5.513   3.506   3.984 -0.2574 -0.5607 -0.0221
  983TIP3    H1 2955   5.546   3.482   3.897 -1.0284 -0.2937 -0.3952
  983TIP3    H2 2956   5.425   3.541   3.968  0.4121  1.5490  0.6143
  984TIP3   OH2 2957   4.354   5.110   1.977  0.3366  0.4707  0.2299
  984TIP3    H1 2958   4.443   5.137   1.996  0.1644 -0.2689  2.3577
  984TIP3    H2 2959   4.341   5.029   2.027 -1.3079  0.1587 -0.5882
  985TIP3   OH2 2960   1.260   5.682   1.731 -0.1179 -0.1454 -0.4232
  985TIP3    H1 2961   1.326   5.686   1.801  0.3649  0.0390 -0.8819
  985TIP3    H2 2962   1.311   5.677   1.651 -0.6713 -0.7623 -0.7450
  986TIP3   OH2 2963   5.734   2.172   3.815  0.3455 -0.2459 -0.0413
  986TIP3    H1 2964   5.811   2.119   3.794 -0.2077 -1.2777  0.4027
  986TIP3    H2 2965   5.760   2.224   3.891  0.2743 -1.4166  0.8126
  987TIP3   OH2 2966   3.471   0.459   3.104 -0.2118  0.2491 -0.3175
  987TIP3    H1 2967   3.556   0.433   3.068  1.2880  0.9125  2.4516
  987TIP3    H2 2968   3.434   0.517   3.038  2.0058  0.8136 -1.1768
  988TIP3   OH2 2969   3.782   2.461   3.237 -0.0401  0.3858 -0.0250
  988TIP3    H1 2970   3.723   2.451   3.311  0.5170  0.5456  0.4516
  988TIP3    H2 2971   3.850   2.521   3.269  0.9859 -0.6515 -0.1869
  989TIP3   OH2 2972   1.992   2.783   0.666 -0.6530  0.2149 -0.5232
  989TIP3    H1 2973   1.990   2.691   0.641  0.0584 -0.2496  0.9947
  989TIP3    H2 2974   2.084   2.799   0.688 -1.0597  0.8154  0.8289
  990TIP3   OH2 2975   3.957   1.898   4.433 -0.0160 -0.0234 -0.0395
  990TIP3    H1 2976   3.998   1.864   4.512 -0.7614 -1.9927 -0.4222
  990TIP3    H2 2977   3.891   1.832   4.411  0.1418  0.4789 -2.2658
  991TIP3   OH2 2978   4.276   0.474   1.515  0.7368 -0.3091  0.3278
  991TIP3    H1 2979   4.238   0.409   1.576 -0.8725 -0.6256 -0.9408
  991TIP3    H2 2980   4.289   0.425   1.434  1.8121  0.3905  0.0602
  992TIP3   OH2 2981   5.347   2.300   1.915 -0.7591  0.1360 -0.0486
  992TIP3    H1 2982   5.384   2.378   1.955  1.3684  0.4553 -2.3540
  992TIP3    H2 2983   5.263   2.328   1.879 -0.6179  0.9961  0.2828
  993TIP3   OH2 2984   0.253   1.361   2.195 -0.4329  0.0842  0.0827
  993TIP3    H1 2985   0.318   1.406   2.141 -0.2498 -0.0648  0.1750
  993TIP3    H2 2986   0.220   1.291   2.138  0.0023 -0.2836  0.2669
  994TIP3   OH2 2987   4.973   2.614   3.986 -0.4194 -0.4816 -0.0009
  994TIP3    H1 2988   4.903   2.579   3.930  0.0603 -0.6518 -0.5017
  994TIP3    H2 2989   4.927   2.654   4.059 -1.0163 -1.7055  0.3276
  995TIP3   OH2 2990   0.135   1.776   0.095  0.1954  0.0614  0.1526
  995TIP3    H1 2991   0.226   1.774   0.066  0.4335  0.2434  0.8645
  995TIP3    H2 2992   0.122   1.692   0.140  1.0293  1.2926  2.9645
  996TIP3   OH2 2993   6.161   5.509   3.726  0.0135 -0.5369  0.0485
  996TIP3    H1 2994   6.197   5.490   3.813  1.8805 -0.5453 -0.6819
  996TIP3    H2 2995   6.118   5.428   3.700 -0.5782 -0.5336  0.9506
  997TIP3   OH2 2996   5.361   3.695   0.042 -0.5514  0.4218 -0.3445
  997TIP3    H1 2997   5.321   3.779   0.024  0.5408  1.3115  1.1221
  997TIP3    H2 2998   5.320   3.666   0.124 -0.9835 -0.5230 -0.8837
  998TIP3   OH2 2999   0.544   0.953   0.095 -0.4101 -0.3186 -0.2657
  998TIP3    H1 3000   0.466   0.912   0.058  0.0839 -2.0908  0.5464
  998TIP3    H2 3001   0.617   0.898   0.065  0.5007  1.0023 -0.5925
  999TIP3   OH2 3002   4.300   5.948   5.133 -0.0778  0.4560 -0.3933
  999TIP3    H1 3003   4.391   5.938   5.103 -0.2191  0.1970 -0.7522
  999TIP3    H2 3004   4.283   5.871   5.186 -0.4415 -0.0848 -1.2654
 1000TIP3   OH2 3005   4.062   3.539   1.845 -0.1862  0.0255 -0.3793
 1000TIP3    H1 3006   3.995   3.560   1.779 -0.5080  3.0035  0.6941
 1000TIP3    H2 3007   4.023   3.569   1.927  1.8206  0.2708  0.5308
 1001TIP3   OH2 3008   6.364   2.349   1.699  0.2346 -0.2611 -0.6011
 1001TIP3    H1 3009   6.359   2.337   1.604 -0.4532  1.2018 -0.7722
 1001TIP3    H2 3010   6.289   2.302   1.734 -0.4277  0.5338 -0.9350
 1002TIP3   OH2 3011   1.466   4.070   2.785  0.1244 -0.7002 -0.0995
 1002TIP3    H1 3012   1.370   4.071   2.791  0.1378  1.7096  0.7221
 1002TIP3    H2 3013   1.496   4.116   2.863  1.8707  0.1293 -1.1869
 1003TIP3   OH2 3014   5.811   4.491   2.394 -0.2279 -0.1073 -0.1735
 1003TIP3    H1 3015   5.895   4.452   2.417 -0.5773 -0.3436  0.7714
 1003TIP3    H2 3016   5.759   4.418   2.360  0.2137  0.1996 -1.5562
 1004TIP3   OH2 3017   5.707   2.508   1.404 -0.2561  0.4953  0.0329
 1004TIP3    H1 3018   5.683   2.485   1.494 -0.0791  1.6921  0.4086
 1004TIP3    H2 3019   5.725   2.602   1.408 -1.9264  0.9481 -1.6108
 1005TIP3   OH2 3020   0.767   2.489   0.605  0.4933 -0.2569  0.4875
 1005TIP3    H1 3021   0.697   2.504   0.542 -1.7355  1.2114  3.1081
 1005TIP3    H2 3022   0.790   2.396   0.594 -0.7376 -0.3672 -1.5165
 1006TIP3   OH2 3023   4.741   5.484   1.784 -0.0639 -0.4289 -0.7375
 1006TIP3    H1 3024   4.667   5.522   1.737 -0.4830 -2.4677 -1.8609
 1006TIP3    H2 3025   4.786   5.430   1.718  4.6416  3.3315 -1.1994
 1007TIP3   OH2 3026   6.170   2.000   0.855 -0.0874  0.4863 -0.7220
 1007TIP3    H1 3027   6.090   2.006   0.908  0.4860 -1.6270  0.4709
 1007TIP3    H2 3028   6.236   2.046   0.906  0.7104 -2.3832  1.0612
 1008TIP3   OH2 3029   3.206   4.580   3.707 -0.7099  0.2969 -0.1037
 1008TIP3    H1 3030   3.216   4.498   3.755 -0.5295  0.1986 -0.3062
 1008TIP3    H2 3031   3.112   4.597   3.708 -0.9041 -0.6246 -1.2257
 1009TIP3   OH2 3032   4.144   1.407   3.344 -0.0765  0.3770  0.2871
 1009TIP3    H1 3033   4.073   1.348   3.370  0.6653 -0.2238  0.9972
 1009TIP3    H2 3034   4.115   1.444   3.260 -0.6494 -0.8440 -0.0725
 1010TIP3   OH2 3035   6.211   5.401   0.091 -0.0160  0.5161 -0.0984
 1010TIP3    H1 3036   6.198   5.429   0.000  0.1504 -1.9696 -0.9515
 1010TIP3    H2 3037   6.171   5.471   0.143  0.8760  2.5614 -2.0051
 1011TIP3   OH2 3038   0.229   0.956   2.224  0.2201 -0.2956 -0.0814
 1011TIP3    H1 3039   0.290   0.946   2.297  2.0210 -1.8718 -1.7070
 1011TIP3    H2 3040   0.271   0.911   2.151 -0.8791  2.3036 -2.5050
 1012TIP3   OH2 3041   2.266   4.181   1.657  0.7905 -0.6892 -0.0348
 1012TIP3    H1 3042   2.284   4.139   1.573  2.2376  0.6410 -0.4384
 1012TIP3    H2 3043   2.170   4.180   1.664  0.5946 -0.1657 -2.0701
 1013TIP3   OH2 3044   4.222   0.969   0.256 -0.0357 -0.3242  0.2912
 1013TIP3    H1 3045   4.182   0.966   0.343  0.3492 -1.7208  0.4527
 1013TIP3    H2 3046   4.316   0.959   0.272  0.3999  2.3353 -0.1289
 1014TIP3   OH2 3047   0.448   3.234   1.392  0.3316  0.1374 -0.2883
 1014TIP3    H1 3048   0.518   3.299   1.395 -1.3103  1.9323  0.5722
 1014TIP3    H2 3049   0.370   3.283   1.365 -0.6249 -1.8073 -1.2786
 1015TIP3   OH2 3050   3.720   0.360   3.037  0.4196 -0.1946 -0.0296
 1015TIP3    H1 3051   3.732   0.398   2.950  1.2006  1.6373  0.8109
 1015TIP3    H2 3052   3.801   0.313   3.054  0.5235 -0.0235 -0.0479
 1016TIP3   OH2 3053   0.990   1.161   2.428  0.3417 -0.2351 -0.0357
 1016TIP3    H1 3054   1.034   1.076   2.426  0.9606  0.0605 -3.1726
 1016TIP3    H2 3055   0.941   1.165   2.346 -1.7868  1.4229  1.2043
 1017TIP3   OH2 3056   2.650   2.714   4.419  0.0113  0.5382 -0.4905
 1017TIP3    H1 3057   2.734   2.705   4.464 -0.4656 -1.6294  0.0963
 1017TIP3    H2 3058   2.584   2.693   4.485 -0.9398  0.9887 -1.2554
 1018TIP3   OH2 3059   0.288   0.965   3.639 -0.0866  0.5563 -0.6689
 1018TIP3    H1 3060   0.229   0.896   3.606 -1.4875  1.0288  0.7268
 1018TIP3    H2 3061   0.376   0.931   3.623 -0.7334 -1.3157 -0.5384
 1019TIP3   OH2 3062   1.910   0.523   3.448 -0.1891 -0.0126  0.0359
 1019TIP3    H1 3063   1.846   0.581   3.490  0.3068 -0.5371  1.5940
 1019TIP3    H2 3064   1.865   0.488   3.372 -0.8926  1.5256 -0.2984
 1020TIP3   OH2 3065   1.104   0.785   0.511  0.0682  0.2524 -0.2870
 1020TIP3    H1 3066   1.084   0.853   0.574  1.5982  1.2847 -0.8708
 1020TIP3    H2 3067   1.029   0.785   0.450  0.4932  2.1076 -0.8538
 1021TIP3   OH2 3068   2.856   0.596   4.328  0.5389  0.4385 -0.7657
 1021TIP3    H1 3069   2.860   0.661   4.398  1.0039 -0.9000  0.5023
 1021TIP3    H2 3070   2.853   0.512   4.374 -0.1511 -0.4357 -2.3530
 1022TIP3   OH2 3071   2.591   1.589   2.584 -0.2327 -0.1793 -0.1855
 1022TIP3    H1 3072   2.643   1.601   2.504  0.2195 -0.2988  0.0902
 1022TIP3    H2 3073   2.655   1.564   2.651 -0.5166  0.5317  0.3657
 1023TIP3   OH2 3074   3.794   1.705   4.342 -0.3810  0.0665 -0.7462
 1023TIP3    H1 3075   3.878   1.680   4.306  0.5172  2.7188 -0.7462
 1023TIP3    H2 3076   3.733   1.698   4.269  0.0627 -0.8207 -1.0400
 1024TIP3   OH2 3077   0.866   3.844   2.430  0.2304 -0.1256 -0.5080
 1024TIP3    H1 3078   0.879   3.922   2.484  1.8077  0.1377 -1.2384
 1024TIP3    H2 3079   0.850   3.879   2.342 -0.8179 -0.6038 -0.5264
 1025TIP3   OH2 3080   0.720   5.229   3.923 -0.2487  0.3378 -0.3782
 1025TIP3    H1 3081   0.786   5.224   3.992  0.1071  1.5820 -0.6058
 1025TIP3    H2 3082   0.698   5.138   3.905  0.9391 -0.0790  0.1433
 1026TIP3   OH2 3083   2.641   4.744   2.643  0.3108 -0.0444  0.0449
 1026TIP3    H1 3084   2.676   4.832   2.659 -0.3069 -0.1566  2.3156
 1026TIP3    H2 3085   2.546   4.757   2.638  0.0283 -0.7431  2.3209
 1027TIP3   OH2 3086   0.107   0.839   5.120  0.3414 -0.0629  0.2172
 1027TIP3    H1 3087   0.127   0.746   5.108 -0.9133 -0.2129 -1.0783
 1027TIP3    H2 3088   0.062   0.864   5.039  1.4972  1.9314  0.1070
 1028TIP3   OH2 3089   3.168   5.554   3.416  0.4824  0.2655  0.4547
 1028TIP3    H1 3090   3.213   5.523   3.494  1.3386  0.7828  0.1800
 1028TIP3    H2 3091   3.084   5.507   3.416  1.0151 -0.7056  0.9704
 1029TIP3   OH2 3092   6.166   3.556   1.998 -0.0345  0.8195  0.2447
 1029TIP3    H1 3093   6.213   3.521   2.074  0.3896  0.7871 -0.0253
 1029TIP3    H2 3094   6.127   3.638   2.029  0.8792  1.2610  0.2621
 1030TIP3   OH2 3095   5.073   3.771   2.111 -0.0187  0.0148 -0.4048
 1030TIP3    H1 3096   5.088   3.772   2.206  0.4579  0.4805 -0.4832
 1030TIP3    H2 3097   5.147   3.722   2.076 -0.0461  0.0914 -0.5671
 1031TIP3   OH2 3098   1.230   2.159   0.016 -0.0817  0.2465  0.4876
 1031TIP3    H1 3099   1.147   2.116  -0.008  1.9683 -3.7787 -0.3623
 1031TIP3    H2 3100   1.248   2.127   0.104 -0.7470  3.5864  1.9694
 1032TIP3   OH2 3101   2.191   5.719   1.873  0.0768  0.3619 -0.1054
 1032TIP3    H1 3102   2.270   5.666   1.870 -0.0957  0.1321 -2.2479
 1032TIP3    H2 3103   2.223   5.808   1.890  0.4622 -0.1579  2.2798
 1033TIP3   OH2 3104   1.393   4.150   0.362  0.1012 -0.1965 -0.2874
 1033TIP3    H1 3105   1.439   4.211   0.305  0.6515 -1.6083 -1.4115
 1033TIP3    H2 3106   1.309   4.193   0.380 -0.3266  0.0938 -2.6299
 1034TIP3   OH2 3107   0.041   2.088   4.668 -0.2809 -0.0759 -0.0286
 1034TIP3    H1 3108   0.083   2.003   4.652 -2.2849 -1.4854  1.6138
 1034TIP3    H2 3109   0.005   2.113   4.583 -1.4978 -1.9931 -0.1520
 1035TIP3   OH2 3110   5.285   0.714   3.615 -0.4521  0.1769  0.4128
 1035TIP3    H1 3111   5.364   0.666   3.639 -0.1269  1.3799  1.8631
 1035TIP3    H2 3112   5.218   0.647   3.603  0.1544 -0.6838  1.7219
 1036TIP3   OH2 3113   6.164   2.598   4.647 -0.2488 -0.2143  0.2915
 1036TIP3    H1 3114   6.233   2.656   4.680  0.8138 -0.3373 -1.5737
 1036TIP3    H2 3115   6.083   2.632   4.686  0.7520  0.4136  1.9145
 1037TIP3   OH2 3116   4.394   4.447   5.095  0.0117  0.1425 -0.3794
 1037TIP3    H1 3117   4.469   4.390   5.114  0.0938  0.7781  1.4012
 1037TIP3    H2 3118   4.420   4.495   5.016 -0.0237 -2.1574 -1.8700
 1038TIP3   OH2 3119   4.747   2.407   2.139 -0.0233  0.4817  0.3545
 1038TIP3    H1 3120   4.808   2.345   2.100  0.9023  1.4298  0.2346
 1038TIP3    H2 3121   4.741   2.479   2.075  0.5353  1.4644  1.3612
 1039TIP3   OH2 3122   1.981   4.796   3.364 -0.3951 -0.5943  0.8528
 1039TIP3    H1 3123   1.928   4.739   3.420  1.2023 -0.4731  2.6005
 1039TIP3    H2 3124   2.068   4.755   3.364  0.1700  0.5669  0.1653
 1040TIP3   OH2 3125   1.719   4.652   4.242  1.0192  0.4827 -0.4999
 1040TIP3    H1 3126   1.699   4.631   4.150 -1.2510  3.2243 -0.7542
 1040TIP3    H2 3127   1.783   4.723   4.236 -0.6770  2.1266 -0.1268
 1041TIP3   OH2 3128   5.293   5.787   3.040  0.2656  0.5422 -0.2487
 1041TIP3    H1 3129   5.292   5.874   3.000  1.8699  0.5263 -0.3944
 1041TIP3    H2 3130   5.386   5.766   3.049 -0.0957 -1.1489 -0.1698
 1042TIP3   OH2 3131   5.127   2.699   2.154 -0.5473 -0.0846 -0.0211
 1042TIP3    H1 3132   5.183   2.763   2.197 -0.5630  0.1718 -0.3743
 1042TIP3    H2 3133   5.166   2.686   2.068 -1.4023  0.6282 -0.5404
 1043TIP3   OH2 3134   4.043   4.315   1.936  0.4362  0.2129  0.4044
 1043TIP3    H1 3135   4.026   4.230   1.897  2.2870  0.2808 -0.6732
 1043TIP3    H2 3136   4.051   4.298   2.029  2.3741 -1.1238  0.0504
 1044TIP3   OH2 3137   4.805   3.665   4.528 -0.3068 -0.0092  0.4791
 1044TIP3    H1 3138   4.837   3.621   4.606 -1.8032  2.5662  2.7033
 1044TIP3    H2 3139   4.875   3.652   4.463 -0.2847 -4.7848  1.0874
 1045TIP3   OH2 3140   5.517   1.288   3.299  0.5288 -0.3528 -0.1208
 1045TIP3    H1 3141   5.466   1.226   3.247 -1.0860  1.4289 -0.7644
 1045TIP3    H2 3142   5.583   1.322   3.239 -0.5677  0.8047 -0.7225
 1046TIP3   OH2 3143   1.875   4.381   2.377 -0.1277 -0.0188  0.1032
 1046TIP3    H1 3144   1.970   4.385   2.365 -0.1962 -0.9907 -1.0296
 1046TIP3    H2 3145   1.860   4.410   2.467  1.1877  0.6312  0.1369
 1047TIP3   OH2 3146   0.526   4.751   0.513  0.3069 -0.3281  0.4730
 1047TIP3    H1 3147   0.527   4.828   0.570  0.6547 -0.8094  1.1298
 1047TIP3    H2 3148   0.618   4.737   0.491  0.2172 -0.4080  0.1451
 1048TIP3   OH2 3149   3.588   3.277   3.021  0.4552  0.6015  0.2667
 1048TIP3    H1 3150   3.627   3.223   3.090 -0.4618  0.4350  0.6705
 1048TIP3    H2 3151   3.631   3.247   2.940 -0.7896 -1.5167  0.3199
 1049TIP3   OH2 3152   0.438   0.130   0.708  0.0142 -0.2344 -0.0387
 1049TIP3    H1 3153   0.488   0.050   0.693  1.0586  0.3658  0.1295
 1049TIP3    H2 3154   0.476   0.168   0.787 -0.3127  0.5493 -0.2477
 1050TIP3   OH2 3155   3.602   2.557   1.185  0.3539 -0.0168 -0.4762
 1050TIP3    H1 3156   3.698   2.558   1.185  0.4587 -0.0948  2.7672
 1050TIP3    H2 3157   3.579   2.466   1.167  0.9695 -0.3256  0.2153
 1051TIP3   OH2 3158   5.705   5.971   0.699 -0.0567 -0.0685  0.2176
 1051TIP3    H1 3159   5.721   6.003   0.611  0.2570 -1.0543 -0.0969
 1051TIP3    H2 3160   5.612   5.947   0.700 -0.3401  1.0094  0.5151
 1052TIP3   OH2 3161   5.367   4.524   4.784 -0.0904  0.1013  0.2628
 1052TIP3    H1 3162   5.359   4.538   4.878 -1.0605  1.0445  0.0610
 1052TIP3    H2 3163   5.297   4.462   4.763  0.5902 -0.6827  0.2634
 1053TIP3   OH2 3164   5.089   2.921   4.443 -0.4034 -0.3213  0.6356
 1053TIP3    H1 3165   5.183   2.917   4.463 -0.3142  0.0786  0.3155
 1053TIP3    H2 3166   5.078   3.003   4.395 -0.7526 -0.8541 -0.2168
 1054TIP3   OH2 3167   1.522   3.082   3.461 -0.7209  0.2701  0.3316
 1054TIP3    H1 3168   1.490   3.032   3.386  2.1619 -1.3050  0.0276
 1054TIP3    H2 3169   1.532   3.017   3.531  2.5751  0.3811  0.0953
 1055TIP3   OH2 3170   5.092   5.890   5.074 -0.3811  0.2023 -0.2883
 1055TIP3    H1 3171   5.181   5.914   5.047  0.3131 -0.2549  1.4392
 1055TIP3    H2 3172   5.036   5.955   5.032  1.1332  2.8885  1.5218
 1056TIP3   OH2 3173   4.354   3.301   2.331 -0.4954 -0.1285  0.1492
 1056TIP3    H1 3174   4.284   3.353   2.292 -1.0275 -1.7207 -1.1321
 1056TIP3    H2 3175   4.360   3.333   2.421 -0.6851  2.2123 -0.6065
 1057TIP3   OH2 3176   5.737   4.427   2.978 -0.3130  0.3170 -0.2512
 1057TIP3    H1 3177   5.721   4.484   3.053 -1.9312  0.5890 -0.7818
 1057TIP3    H2 3178   5.798   4.477   2.923  1.8519 -0.3709  1.3806
 1058TIP3   OH2 3179   1.250   2.609   2.110 -0.9359 -0.2171 -0.5279
 1058TIP3    H1 3180   1.316   2.589   2.044 -0.6498  0.7634 -0.5590
 1058TIP3    H2 3181   1.217   2.695   2.085  0.5946  1.1131  1.6807
 1059TIP3   OH2 3182   4.988   0.275   0.250  0.2436 -0.4382 -0.6474
 1059TIP3    H1 3183   5.001   0.299   0.158  0.6774 -0.0329 -0.4850
 1059TIP3    H2 3184   5.001   0.357   0.298 -0.6860 -0.5029 -0.2799
 1060TIP3   OH2 3185   5.357   1.502   2.644 -0.6246 -0.3127 -0.6759
 1060TIP3    H1 3186   5.337   1.553   2.565 -0.9024 -1.5467 -1.4366
 1060TIP3    H2 3187   5.449   1.520   2.661 -0.3382 -0.6421 -1.7760
 1061TIP3   OH2 3188   5.706   0.979   2.469 -0.0086  0.1080 -0.2488
 1061TIP3    H1 3189   5.613   0.959   2.469 -0.2384  0.9640  1.4825
 1061TIP3    H2 3190   5.747   0.906   2.422 -1.3749 -1.1773  0.4852
 1062TIP3   OH2 3191   5.507   3.187   2.561  0.0717 -0.2750  0.3931
 1062TIP3    H1 3192   5.466   3.273   2.563  0.0918 -0.2510 -0.2221
 1062TIP3    H2 3193   5.442   3.129   2.602 -0.0693 -0.0286  0.5223
 1063TIP3   OH2 3194   5.620   0.037   2.349  0.8510 -0.1106 -0.0017
 1063TIP3    H1 3195   5.615  -0.048   2.306  2.4049 -0.0961 -0.2838
 1063TIP3    H2 3196   5.610   0.101   2.278  0.1619 -0.0527  0.1417
 1064TIP3   OH2 3197   4.566   0.798   2.544  0.4289 -0.3601  0.4288
 1064TIP3    H1 3198   4.646   0.846   2.526  0.2202 -0.5654 -1.1530
 1064TIP3    H2 3199   4.596   0.714   2.580  0.9068 -0.2861  0.2043
 1065TIP3   OH2 3200   0.131   1.883   2.984  0.0460  0.0414 -0.4626
 1065TIP3    H1 3201   0.080   1.964   2.983  0.0442  0.0611  0.6381
 1065TIP3    H2 3202   0.069   1.816   2.955  0.5392  0.6650 -3.2778
 1066TIP3   OH2 3203   4.951   0.946   5.087 -0.2888 -0.3006 -0.4339
 1066TIP3    H1 3204   4.898   0.909   5.017 -0.1913 -2.0687  0.3860
 1066TIP3    H2 3205   4.891   0.952   5.162  0.1416 -0.4340 -0.0699
 1067TIP3   OH2 3206   0.607   2.033   3.163 -0.0078  0.1475 -0.3168
 1067TIP3    H1 3207   0.563   1.950   3.181  1.2011 -0.3229  0.5802
 1067TIP3    H2 3208   0.536   2.098   3.159 -0.9912 -0.9311 -1.2496
 1068TIP3   OH2 3209   4.068   0.492   5.138 -0.0773 -0.1131  0.0684
 1068TIP3    H1 3210   3.984   0.449   5.157  0.1560 -0.5324  0.1543
 1068TIP3    H2 3211   4.109   0.504   5.223  1.8203 -3.6997 -0.1331
 1069TIP3   OH2 3212   0.768   4.417   5.195 -0.2667 -0.2587  0.1944
 1069TIP3    H1 3213   0.755   4.431   5.101 -1.0990 -0.6966  0.2324
 1069TIP3    H2 3214   0.856   4.380   5.202 -0.6777 -1.4739 -0.5620
 1070TIP3   OH2 3215   4.071   5.034   4.992  0.2529 -0.3790  0.3653
 1070TIP3    H1 3216   4.151   5.029   4.939  0.7827 -0.3978  1.1553
 1070TIP3    H2 3217   4.039   4.944   4.995 -1.5768  0.0284 -2.5704
 1071TIP3   OH2 3218   2.950   3.385   1.977 -0.6785 -0.4161  0.2102
 1071TIP3    H1 3219   3.004   3.322   1.929 -1.4911  0.4002 -1.9385
 1071TIP3    H2 3220   3.006   3.462   1.987 -0.3134 -0.7922  1.1339
 1072TIP3   OH2 3221   2.047   2.944   1.399 -0.4593  0.6736 -0.2143
 1072TIP3    H1 3222   2.011   2.856   1.398 -0.0381  0.4475 -2.6000
 1072TIP3    H2 3223   1.986   2.995   1.452  0.6104 -1.4576  3.4597
 1073TIP3   OH2 3224   3.419   1.808   3.675  0.0088 -0.0659 -0.5581
 1073TIP3    H1 3225   3.505   1.825   3.636 -0.1918 -0.9208 -1.3977
 1073TIP3    H2 3226   3.385   1.733   3.627 -0.8544 -0.2657  0.3333
 1074TIP3   OH2 3227   5.860   3.639   1.601  0.1320 -0.1535 -0.7739
 1074TIP3    H1 3228   5.826   3.674   1.518  1.0631 -1.2337 -1.6421
 1074TIP3    H2 3229   5.818   3.554   1.610 -2.0089  1.0164  1.2567
 1075TIP3   OH2 3230   0.204   4.108   3.412 -0.5521 -0.1864 -0.4848
 1075TIP3    H1 3231   0.236   4.173   3.349  0.0918 -0.9506 -0.9617
 1075TIP3    H2 3232   0.155   4.160   3.476  2.3667  1.2088  0.8039
 1076TIP3   OH2 3233   1.063   4.311   0.578 -1.3481 -0.2648 -0.2980
 1076TIP3    H1 3234   1.122   4.235   0.581 -0.7362  0.2305  1.7036
 1076TIP3    H2 3235   1.031   4.320   0.667 -1.2007  1.9732 -0.4064
 1077TIP3   OH2 3236   2.952   2.919   4.673  0.0240 -0.0317  0.1426
 1077TIP3    H1 3237   2.875   2.976   4.675  0.2908  0.2977  1.7742
 1077TIP3    H2 3238   3.024   2.977   4.650  0.3911  0.4672  2.3533
 1078TIP3   OH2 3239   0.958   4.074   1.529 -0.5584 -0.4602 -0.0689
 1078TIP3    H1 3240   0.871   4.081   1.489 -0.3090 -0.7383 -0.6857
 1078TIP3    H2 3241   1.016   4.115   1.466 -0.2149 -0.4755  0.2381
 1079TIP3   OH2 3242   3.286   5.540   1.597  0.0289 -0.4431  0.0676
 1079TIP3    H1 3243   3.365   5.569   1.643 -0.9246 -0.0600  1.5456
 1079TIP3    H2 3244   3.274   5.450   1.626 -2.0198  0.5791  2.7985
 1080TIP3   OH2 3245   0.777   1.418   1.693  0.1512  0.5131  0.0469
 1080TIP3    H1 3246   0.852   1.422   1.633 -1.7827 -1.7595 -2.8455
 1080TIP3    H2 3247   0.713   1.479   1.655 -0.5944  0.0890  0.5860
 1081TIP3   OH2 3248   0.805   4.074   1.096  0.7749  0.6162 -0.3932
 1081TIP3    H1 3249   0.833   3.983   1.085 -2.3885 -0.4564 -0.7229
 1081TIP3    H2 3250   0.828   4.095   1.187 -0.3823 -1.3523  0.4310
 1082TIP3   OH2 3251   0.362   5.404   4.977  0.2634  0.6525 -0.2900
 1082TIP3    H1 3252   0.331   5.487   5.014  1.8555  0.5933  1.3385
 1082TIP3    H2 3253   0.383   5.351   5.054 -1.0060 -1.4045 -1.2841
 1083TIP3   OH2 3254   5.340   5.476   2.835 -0.0083 -0.6416  0.3199
 1083TIP3    H1 3255   5.254   5.461   2.796  0.3862 -0.2824 -0.7329
 1083TIP3    H2 3256   5.388   5.527   2.769  0.5357  0.4194  1.4860
 1084TIP3   OH2 3257   3.510   4.437   1.296 -0.4567 -0.8958 -0.0045
 1084TIP3    H1 3258   3.604   4.455   1.306 -0.7330 -0.1073  1.4944
 1084TIP3    H2 3259   3.496   4.437   1.201  0.7876  0.4250 -0.2241
 1085TIP3   OH2 3260   1.277   2.565   3.347 -0.2103 -0.1992  0.2375
 1085TIP3    H1 3261   1.274   2.606   3.261 -1.1418 -0.0486  0.3327
 1085TIP3    H2 3262   1.290   2.472   3.328 -2.1826 -0.4328 -0.1692
 1086TIP3   OH2 3263   4.753   2.080   4.170  0.1237  0.7365  0.7734
 1086TIP3    H1 3264   4.727   2.012   4.232 -0.3539 -1.7093 -1.8531
 1086TIP3    H2 3265   4.671   2.123   4.146 -0.2423 -0.5967 -0.5340
 1087TIP3   OH2 3266   4.954   1.692   0.268 -0.2672 -0.3364  0.7014
 1087TIP3    H1 3267   4.971   1.664   0.178  0.9590  0.4265  0.6744
 1087TIP3    H2 3268   5.036   1.733   0.297 -0.7389 -0.2903  2.0650
 1088TIP3   OH2 3269   4.420   2.473   0.579  0.1217 -0.0737  0.1860
 1088TIP3    H1 3270   4.456   2.458   0.491 -1.2287 -0.0227 -0.3995
 1088TIP3    H2 3271   4.342   2.418   0.583 -0.7792  1.1742  0.7174
 1089TIP3   OH2 3272   2.112   2.866   3.246 -0.2065  0.1373 -0.2316
 1089TIP3    H1 3273   2.102   2.911   3.330  0.7324 -1.3678  0.7283
 1089TIP3    H2 3274   2.023   2.861   3.212 -0.5075  1.4657  0.2756
 1090TIP3   OH2 3275   4.811   1.390   1.779  0.0863 -0.3130 -0.0892
 1090TIP3    H1 3276   4.859   1.338   1.715  1.6939  0.1407  0.6963
 1090TIP3    H2 3277   4.805   1.333   1.856 -1.1866 -0.5816 -0.3656
 1091TIP3   OH2 3278   6.248   0.545   1.048  0.1779 -0.1792  0.7663
 1091TIP3    H1 3279   6.300   0.466   1.057  1.2905  0.3232 -0.7698
 1091TIP3    H2 3280   6.223   0.547   0.955 -1.1866  0.4578  1.1148
 1092TIP3   OH2 3281   3.430   4.642   2.541  0.0188 -0.1189 -0.3214
 1092TIP3    H1 3282   3.414   4.706   2.471 -1.4671  1.0175  0.9599
 1092TIP3    H2 3283   3.352   4.586   2.539  0.7064 -1.0735 -0.5807
 1093TIP3   OH2 3284   1.966   4.381   1.101  0.5109 -0.2821 -0.0495
 1093TIP3    H1 3285   1.909   4.375   1.178  0.2097  0.4926 -0.2113
 1093TIP3    H2 3286   2.024   4.455   1.119 -1.0713  1.4009 -1.5467
 1094TIP3   OH2 3287   4.849   1.394   3.746  0.0472 -0.0859  0.4524
 1094TIP3    H1 3288   4.876   1.303   3.734 -0.6056 -0.3463  0.8848
 1094TIP3    H2 3289   4.926   1.446   3.723  0.8941 -0.8058  1.5545
 1095TIP3   OH2 3290   5.433   3.679   2.785  0.5654  0.1198 -0.0767
 1095TIP3    H1 3291   5.374   3.652   2.855 -0.2006  0.2586 -0.6524
 1095TIP3    H2 3292   5.469   3.597   2.751 -0.7041 -0.1220 -0.9143
 1096TIP3   OH2 3293   5.045   3.374   1.410 -0.1017 -0.4376 -0.1412
 1096TIP3    H1 3294   5.108   3.312   1.448  0.3918  0.0158 -0.1965
 1096TIP3    H2 3295   5.092   3.414   1.337  0.4946  1.7142  1.3060
 1097TIP3   OH2 3296   0.052   3.776   1.380 -0.3847  0.0449 -0.6859
 1097TIP3    H1 3297   0.142   3.788   1.351  0.5023 -1.2231  1.3068
 1097TIP3    H2 3298   0.050   3.812   1.469 -1.6697 -0.5663 -0.4371
 1098TIP3   OH2 3299   1.462   1.763   1.633  0.2763  0.4876 -0.0530
 1098TIP3    H1 3300   1.470   1.858   1.645 -1.8446  0.6582  0.4305
 1098TIP3    H2 3301   1.425   1.731   1.715 -1.8536 -0.2870 -1.2233
 1099TIP3   OH2 3302   2.943   2.251   1.259  0.4653 -0.5689 -0.4713
 1099TIP3    H1 3303   2.974   2.326   1.207 -1.6030  0.0566 -0.8850
 1099TIP3    H2 3304   2.946   2.177   1.198 -0.4221 -0.1686 -1.0105
 1100TIP3   OH2 3305   0.083   2.373   0.813  0.0615 -0.1246  0.4130
 1100TIP3    H1 3306   0.059   2.311   0.744  0.1612  0.7727 -0.4527
 1100TIP3    H2 3307   0.142   2.324   0.870 -1.8515 -1.6198  1.2243
 1101TIP3   OH2 3308   2.831   3.803   0.328 -0.6950 -0.2235  0.0727
 1101TIP3    H1 3309   2.751   3.825   0.375 -2.0264 -2.1943 -1.1235
 1101TIP3    H2 3310   2.864   3.887   0.295 -1.5906  0.7631  1.5851
 1102TIP3   OH2 3311   2.496   2.625   2.891 -0.1604 -0.1969 -0.1490
 1102TIP3    H1 3312   2.546   2.580   2.823 -1.0450 -0.1015 -0.8839
 1102TIP3    H2 3313   2.537   2.712   2.897 -0.5086  0.0461 -1.0709
 1103TIP3   OH2 3314   0.744   0.118   4.105  0.5634 -0.3443  0.2656
 1103TIP3    H1 3315   0.685   0.057   4.148 -0.4001  0.1677 -0.2864
 1103TIP3    H2 3316   0.742   0.196   4.160  0.2372 -0.1095 -0.0693
 1104TIP3   OH2 3317   4.808   0.268   3.263  0.1049  0.6505 -0.1516
 1104TIP3    H1 3318   4.798   0.283   3.169  2.0200 -0.0034 -0.4975
 1104TIP3    H2 3319   4.729   0.219   3.287  0.9452 -1.8732 -2.0802
 1105TIP3   OH2 3320   6.147   1.961   1.638 -0.7091  0.4806  0.2657
 1105TIP3    H1 3321   6.180   1.946   1.550  3.4001 -1.3847  1.8550
 1105TIP3    H2 3322   6.123   1.874   1.669 -2.4434  1.1605  0.9487
 1106TIP3   OH2 3323   3.404   2.308   4.629  0.1367 -0.0977 -0.1699
 1106TIP3    H1 3324   3.476   2.255   4.594 -0.2137  0.2131 -1.4014
 1106TIP3    H2 3325   3.369   2.256   4.701  0.5529 -0.9990 -0.6017
 1107TIP3   OH2 3326   3.037   5.095   2.690  0.2045 -0.4529 -0.3395
 1107TIP3    H1 3327   2.948   5.064   2.708 -0.7668  1.8267 -0.8593
 1107TIP3    H2 3328   3.090   5.056   2.760 -0.6799 -3.7047 -1.2796
 1108TIP3   OH2 3329   4.005   0.646   3.329  0.5431 -0.3632 -0.0195
 1108TIP3    H1 3330   3.964   0.620   3.412 -0.4671 -3.6472 -1.3755
 1108TIP3    H2 3331   4.083   0.591   3.323  1.2685  0.7093 -0.7312
 1109TIP3   OH2 3332   6.146   1.073   3.650 -0.1862  0.1420  0.5721
 1109TIP3    H1 3333   6.120   1.061   3.559  0.7324  2.5477 -0.0748
 1109TIP3    H2 3334   6.069   1.108   3.694 -0.7421 -1.3636  0.8434
 1110TIP3   OH2 3335   5.137   3.291   1.686  0.2996  0.4114  0.1575
 1110TIP3    H1 3336   5.044   3.312   1.696  0.3145  0.0385  1.2415
 1110TIP3    H2 3337   5.141   3.195   1.693  0.9015  0.5174  1.4693
 1111TIP3   OH2 3338   0.792   4.971   4.712  0.0344 -0.1364 -0.2088
 1111TIP3    H1 3339   0.777   4.920   4.791 -0.9268  0.9091  0.3126
 1111TIP3    H2 3340   0.811   5.060   4.743  1.2902 -0.0511 -1.1025
 1112TIP3   OH2 3341   1.934   4.304   0.173 -0.2117 -0.2385 -0.2536
 1112TIP3    H1 3342   2.018   4.320   0.129 -0.6070 -0.0274 -0.9593
 1112TIP3    H2 3343   1.955   4.247   0.247  0.6045  0.1200 -0.2049
 1113TIP3   OH2 3344   2.035   5.104   2.955 -0.1432 -0.0023 -0.5306
 1113TIP3    H1 3345   2.109   5.101   2.894  1.4669 -0.5839  1.3320
 1113TIP3    H2 3346   1.996   5.190   2.941  2.2729  1.2687 -0.1209
 1114TIP3   OH2 3347   1.387   4.294   3.281  0.1656  0.1331  0.2880
 1114TIP3    H1 3348   1.410   4.266   3.370  2.0893 -0.3255 -0.3203
 1114TIP3    H2 3349   1.302   4.252   3.264  0.2018 -0.5146  1.5604
 1115TIP3   OH2 3350   2.447   5.478   1.588  0.4994  0.8952 -0.1982
 1115TIP3    H1 3351   2.481   5.449   1.503 -3.3385 -0.9261 -1.3240
 1115TIP3    H2 3352   2.374   5.536   1.566  0.1793  1.3829  1.9395
 1116TIP3   OH2 3353   5.426   1.920   0.690 -0.0115 -0.0013 -0.0529
 1116TIP3    H1 3354   5.443   1.920   0.784 -0.0264 -0.3175 -0.0497
 1116TIP3    H2 3355   5.498   1.870   0.653 -1.0071 -1.5224 -0.0224
 1117TIP3   OH2 3356   2.142   1.774   2.342 -0.1074 -0.0939  0.2613
 1117TIP3    H1 3357   2.108   1.820   2.419 -0.1146 -0.2481  0.3502
 1117TIP3    H2 3358   2.117   1.830   2.268 -0.3584 -0.0922  0.3443
 1118TIP3   OH2 3359   2.978   3.139   1.426  0.2461  0.8239 -0.5351
 1118TIP3    H1 3360   3.025   3.144   1.509  1.2658 -1.6727 -0.8949
 1118TIP3    H2 3361   3.046   3.145   1.359 -0.3865  1.0552 -1.1734
 1119TIP3   OH2 3362   2.853   5.875   3.703  0.0515  0.3685  0.1352
 1119TIP3    H1 3363   2.880   5.862   3.612  1.1000 -2.2144  0.7359
 1119TIP3    H2 3364   2.781   5.938   3.698  0.8667  1.2153 -2.3366
 1120TIP3   OH2 3365   1.085   5.159   2.268 -0.5034 -0.5879  0.6930
 1120TIP3    H1 3366   1.135   5.146   2.187 -0.7656 -1.1910  0.6235
 1120TIP3    H2 3367   1.002   5.112   2.253 -1.8839  1.8747  0.0913
 1121TIP3   OH2 3368   5.280   0.038   0.687  0.3318 -0.2287  0.3723
 1121TIP3    H1 3369   5.220  -0.013   0.633  1.2557  0.5724 -1.5019
 1121TIP3    H2 3370   5.252   0.020   0.777 -2.5364 -0.0792 -0.3847
 1122TIP3   OH2 3371   0.873   2.917   4.083 -0.0436 -0.1629 -0.0045
 1122TIP3    H1 3372   0.834   2.847   4.134 -2.6877  0.0433 -1.5934
 1122TIP3    H2 3373   0.822   2.921   4.002  1.0001  2.5377 -0.6679
 1123TIP3   OH2 3374   3.969   3.299   2.664  0.2468 -0.0694 -0.2963
 1123TIP3    H1 3375   3.892   3.250   2.695 -1.1026  1.6144 -0.8286
 1123TIP3    H2 3376   4.043   3.248   2.695 -1.0410 -0.5011  2.4278
 1124TIP3   OH2 3377   1.371   5.171   2.438  0.0335 -0.2520 -0.0178
 1124TIP3    H1 3378   1.329   5.127   2.512 -2.0090  0.5486 -0.6163
 1124TIP3    H2 3379   1.339   5.124   2.361 -0.7615  1.0825 -0.5555
 1125TIP3   OH2 3380   4.635   4.357   5.053 -0.6459 -0.3690 -0.2860
 1125TIP3    H1 3381   4.630   4.412   4.975  0.7416 -0.6182 -0.5811
 1125TIP3    H2 3382   4.725   4.370   5.085 -1.7243  1.2404  2.3818
 1126TIP3   OH2 3383   3.900   4.288   2.822  0.1749 -0.0164 -0.3587
 1126TIP3    H1 3384   3.914   4.381   2.806 -0.8097 -0.0466 -1.5312
 1126TIP3    H2 3385   3.868   4.283   2.912 -0.1514  0.8113 -0.4217
 1127TIP3   OH2 3386   0.054   1.847   2.680  0.5634 -0.2909 -0.1174
 1127TIP3    H1 3387  -0.036   1.869   2.657  0.7593  0.8556  0.1640
 1127TIP3    H2 3388   0.086   1.797   2.604 -0.4862 -1.2591  0.0526
 1128TIP3   OH2 3389   1.961   0.627   4.094 -0.1086 -0.2613  0.1031
 1128TIP3    H1 3390   1.922   0.713   4.113  0.5172  0.3068 -1.0569
 1128TIP3    H2 3391   1.931   0.607   4.005  0.0810 -1.0729  0.2152
 1129TIP3   OH2 3392   4.818   3.205   4.734  0.1572 -0.2433 -0.0086
 1129TIP3    H1 3393   4.803   3.203   4.828 -1.7965 -0.1558 -0.2770
 1129TIP3    H2 3394   4.904   3.246   4.724 -0.0093  0.5886  1.6942
 1130TIP3   OH2 3395   5.652   3.931   4.544  0.0251  0.2459  0.2511
 1130TIP3    H1 3396   5.624   3.952   4.633 -1.6133 -0.7284  0.0041
 1130TIP3    H2 3397   5.577   3.953   4.490  1.1290  1.1654 -0.9667
 1131TIP3   OH2 3398   6.329   4.423   2.471 -0.7252 -1.1718  0.0284
 1131TIP3    H1 3399   6.415   4.403   2.433  0.7585 -0.2576  2.6380
 1131TIP3    H2 3400   6.307   4.509   2.435  0.2671 -0.6759  0.5505
 1132TIP3   OH2 3401   2.169   4.361   2.338 -0.8429  0.1816  0.0128
 1132TIP3    H1 3402   2.146   4.323   2.423  0.3038  0.7292  0.5867
 1132TIP3    H2 3403   2.201   4.286   2.286 -1.3176 -0.1116  0.1340
 1133TIP3   OH2 3404   3.633   0.520   1.416  1.2415 -0.0742 -0.7303
 1133TIP3    H1 3405   3.685   0.599   1.400  1.2433  0.1154  0.1236
 1133TIP3    H2 3406   3.553   0.552   1.458  0.8835 -0.4593 -1.1076
 1134TIP3   OH2 3407   6.154   3.261   0.541  0.3758  0.6568  0.4963
 1134TIP3    H1 3408   6.168   3.167   0.531  0.6462  0.7824 -0.3702
 1134TIP3    H2 3409   6.224   3.289   0.601 -0.8452  0.0130  2.3250
 1135TIP3   OH2 3410   1.389   5.502   4.496 -0.2920  0.2486  0.0715
 1135TIP3    H1 3411   1.377   5.413   4.529 -1.8077  0.5016  0.2719
 1135TIP3    H2 3412   1.445   5.492   4.419 -2.3126 -1.2035 -1.3109
 1136TIP3   OH2 3413   5.580   2.245   0.454  0.3152 -0.1411 -0.2708
 1136TIP3    H1 3414   5.529   2.247   0.535  0.6584  0.3798 -0.0643
 1136TIP3    H2 3415   5.659   2.293   0.475 -0.8096  2.5534 -1.7485
 1137TIP3   OH2 3416   1.070   5.699   1.052 -0.7151  0.0612  0.0268
 1137TIP3    H1 3417   1.151   5.655   1.075 -1.9142 -1.1664  2.2567
 1137TIP3    H2 3418   1.048   5.667   0.965  0.7407 -0.2077 -0.2636
 1138TIP3   OH2 3419   0.416   3.923   3.568 -0.3933 -0.2812 -0.4971
 1138TIP3    H1 3420   0.360   3.992   3.531  0.5481  0.3685 -0.7571
 1138TIP3    H2 3421   0.392   3.844   3.519  0.3591  0.4261 -2.0710
 1139TIP3   OH2 3422   4.946   1.318   1.082  0.0829  0.4277 -0.0347
 1139TIP3    H1 3423   4.956   1.226   1.107 -0.2607  0.1736 -0.7969
 1139TIP3    H2 3424   4.982   1.321   0.993 -0.2326  0.9614 -0.1408
 1140TIP3   OH2 3425   4.302   4.391   1.509  0.3005 -0.1221  0.5282
 1140TIP3    H1 3426   4.329   4.300   1.499 -0.1570 -0.3914  1.5181
 1140TIP3    H2 3427   4.240   4.389   1.583 -0.6582  0.8014 -0.2168
 1141TIP3   OH2 3428   3.368   3.159   0.572 -0.1708  0.2041 -0.3560
 1141TIP3    H1 3429   3.388   3.232   0.513 -0.0284  1.1192  0.7875
 1141TIP3    H2 3430   3.453   3.119   0.590 -0.3592 -0.9226 -1.7908
 1142TIP3   OH2 3431   5.861   4.901   3.061 -0.4617  0.0234  0.3788
 1142TIP3    H1 3432   5.914   4.850   3.000 -1.0172 -0.0274 -0.0570
 1142TIP3    H2 3433   5.925   4.958   3.106 -0.1022  0.3440 -0.5169
 1143TIP3   OH2 3434   6.148   2.001   0.024  1.1112 -0.0323  0.4207
 1143TIP3    H1 3435   6.178   1.910   0.027  0.0004 -0.3949  1.4130
 1143TIP3    H2 3436   6.053   1.995   0.032  1.1867  1.3259  3.4432
 1144TIP3   OH2 3437   2.609   4.557   4.384  0.6950  0.3772 -0.2433
 1144TIP3    H1 3438   2.589   4.585   4.295 -2.1313 -0.7676 -0.0458
 1144TIP3    H2 3439   2.615   4.462   4.379  0.0571  0.2613  0.8525
 1145TIP3   OH2 3440   1.847   3.082   1.553 -0.0592  0.3662 -0.2649
 1145TIP3    H1 3441   1.804   3.118   1.476  2.5103  2.1479 -1.0092
 1145TIP3    H2 3442   1.794   3.006   1.577 -0.8498 -0.4327 -3.9258
 1146TIP3   OH2 3443   4.103   1.283   2.947 -0.0115 -0.4064 -0.0783
 1146TIP3    H1 3444   4.109   1.230   2.868 -0.3393 -0.9434  0.2502
 1146TIP3    H2 3445   4.193   1.288   2.979  0.0366 -0.6936 -0.1604
 1147TIP3   OH2 3446   5.904   4.252   1.162  0.0359  0.0549  0.3341
 1147TIP3    H1 3447   5.841   4.234   1.233 -1.2386 -2.3625 -1.2631
 1147TIP3    H2 3448   5.853   4.301   1.097  0.3860 -0.1745 -0.1150
 1148TIP3   OH2 3449   3.884   0.202   0.418  0.2675 -0.1945  0.6518
 1148TIP3    H1 3450   3.921   0.264   0.480  1.1180 -0.9935  0.9769
 1148TIP3    H2 3451   3.881   0.249   0.335  0.9482  0.2656  0.8820
 1149TIP3   OH2 3452   2.701   1.036   2.779  0.3421 -0.0033  0.1133
 1149TIP3    H1 3453   2.672   0.965   2.837  0.0956 -0.6874 -0.8052
 1149TIP3    H2 3454   2.748   1.096   2.836  0.1756 -0.6844  1.0044
 1150TIP3   OH2 3455   2.768   3.760   3.091 -0.4686  0.0186  0.0387
 1150TIP3    H1 3456   2.850   3.713   3.073 -0.6679 -0.8522  1.2803
 1150TIP3    H2 3457   2.792   3.826   3.156 -0.1097  1.9875 -1.9743
 1151TIP3   OH2 3458   3.287   0.423   5.161 -0.0344  0.3650  0.3571
 1151TIP3    H1 3459   3.250   0.403   5.076 -0.4773 -0.7029  0.7820
 1151TIP3    H2 3460   3.263   0.514   5.178  0.6598  0.8176 -0.9430
 1152TIP3   OH2 3461   0.859   2.491   1.714 -0.4048  0.2438  0.5208
 1152TIP3    H1 3462   0.859   2.499   1.809 -0.4435  0.3256  0.5138
 1152TIP3    H2 3463   0.772   2.520   1.687 -0.3160  0.4429  0.4414
 1153TIP3   OH2 3464   2.555   4.077   4.505 -0.5138  0.0535  0.1217
 1153TIP3    H1 3465   2.625   4.017   4.478  0.1525  0.8869 -0.0805
 1153TIP3    H2 3466   2.506   4.029   4.571  0.4928 -0.4269  0.5501
 1154TIP3   OH2 3467   5.555   2.982   5.161 -0.3844  0.1367  0.4215
 1154TIP3    H1 3468   5.514   2.939   5.085  1.0384 -0.4928 -0.0279
 1154TIP3    H2 3469   5.489   3.044   5.192 -1.3113 -0.1813 -0.8319
 1155TIP3   OH2 3470   1.427   0.380   4.137  0.3904  0.0068 -0.2935
 1155TIP3    H1 3471   1.521   0.383   4.153  0.2926  1.7893  0.1807
 1155TIP3    H2 3472   1.409   0.458   4.084 -1.0259  0.5665  0.9199
 1156TIP3   OH2 3473   1.027   1.047   3.430 -0.1417  0.2692  0.6666
 1156TIP3    H1 3474   1.018   0.985   3.502  1.2547  1.4806  1.9750
 1156TIP3    H2 3475   1.119   1.039   3.404  0.0874  1.8191  0.9232
 1157TIP3   OH2 3476   0.871   5.657   4.173  0.1263 -0.1112  0.3203
 1157TIP3    H1 3477   0.786   5.618   4.152  0.0282  0.6034 -0.6733
 1157TIP3    H2 3478   0.874   5.659   4.268 -0.8049 -0.5167  0.3616
 1158TIP3   OH2 3479   5.300   1.026   4.513  0.4645 -0.8029  0.2868
 1158TIP3    H1 3480   5.219   0.997   4.555  0.3393 -0.8638  0.0032
 1158TIP3    H2 3481   5.273   1.100   4.459  0.8850  0.2787  1.5054
 1159TIP3   OH2 3482   4.150   5.075   2.661  0.4282  0.1876 -0.2822
 1159TIP3    H1 3483   4.200   5.025   2.726 -0.1150 -0.3861 -0.2952
 1159TIP3    H2 3484   4.208   5.078   2.584  0.6477 -0.0486 -0.1276
 1160TIP3   OH2 3485   4.314   0.397   2.392 -0.1515 -0.2206 -0.4121
 1160TIP3    H1 3486   4.381   0.462   2.369  1.4278 -0.8080  2.0820
 1160TIP3    H2 3487   4.268   0.435   2.467 -1.6207 -0.4858 -1.1567
 1161TIP3   OH2 3488   4.061   1.239   2.180  0.0496  0.3610  0.2117
 1161TIP3    H1 3489   4.113   1.319   2.189  0.4605  0.2179 -0.7807
 1161TIP3    H2 3490   3.990   1.263   2.121  1.4828 -0.5779 -2.0288
 1162TIP3   OH2 3491   3.873   0.601   3.926  0.0062 -0.7341  0.3774
 1162TIP3    H1 3492   3.795   0.624   3.977 -1.3131  0.1852 -1.9423
 1162TIP3    H2 3493   3.945   0.613   3.987 -1.4857  0.2376  2.0552
 1163TIP3   OH2 3494   0.794   0.660   4.350  0.2232 -0.1350 -0.0007
 1163TIP3    H1 3495   0.718   0.687   4.298 -0.3119  1.8572  1.6627
 1163TIP3    H2 3496   0.856   0.733   4.339  0.3637  0.0099  1.5480
 1164TIP3   OH2 3497   0.488   2.970   2.970 -0.3578 -0.0432  0.1146
 1164TIP3    H1 3498   0.510   3.038   2.906  1.2750 -1.1885 -0.6046
 1164TIP3    H2 3499   0.502   3.012   3.055 -0.3613  0.8198 -0.3004
 1165TIP3   OH2 3500   4.948   0.481   2.837  0.3968 -0.8842  0.7386
 1165TIP3    H1 3501   4.965   0.448   2.926  0.1156 -1.0608  0.7274
 1165TIP3    H2 3502   4.863   0.444   2.814  0.9329 -1.6675 -0.0030
 1166TIP3   OH2 3503   3.020   4.885   0.196  0.2914 -0.2624 -0.3547
 1166TIP3    H1 3504   2.972   4.839   0.265  2.0857 -2.9208 -0.7325
 1166TIP3    H2 3505   3.098   4.918   0.240  0.1328  0.4333 -0.5849
 1167TIP3   OH2 3506   6.165   4.762   0.268  0.0234  0.0033  0.4756
 1167TIP3    H1 3507   6.233   4.694   0.264  0.4587  0.4700 -0.6374
 1167TIP3    H2 3508   6.162   4.797   0.179 -1.0616  0.6078  0.7370
 1168TIP3   OH2 3509   4.019   0.854   3.171  0.1522  0.2616  0.2075
 1168TIP3    H1 3510   4.062   0.926   3.216 -0.2008  0.6389 -0.0421
 1168TIP3    H2 3511   4.004   0.788   3.239  0.1246  0.5883  0.5205
 1169TIP3   OH2 3512   5.463   4.176   3.495 -0.1312  0.4374  0.4704
 1169TIP3    H1 3513   5.500   4.119   3.563 -3.6479 -1.9677  0.7066
 1169TIP3    H2 3514   5.517   4.161   3.418  1.0377 -0.6064  1.4502
 1170TIP3   OH2 3515   2.198   5.624   1.584 -0.6282 -0.2124 -0.2064
 1170TIP3    H1 3516   2.191   5.681   1.660  0.0067  0.0298 -0.3229
 1170TIP3    H2 3517   2.143   5.666   1.517  0.1555  0.4805 -0.4199
 1171TIP3   OH2 3518   0.841   5.264   4.167 -0.3851 -0.4892  0.8436
 1171TIP3    H1 3519   0.793   5.336   4.206 -0.1538 -0.2164  0.6317
 1171TIP3    H2 3520   0.789   5.186   4.186 -1.2269 -0.1272  0.0864
 1172TIP3   OH2 3521   0.916   2.322   5.064  0.1950 -0.2008  0.3740
 1172TIP3    H1 3522   0.838   2.274   5.038 -0.8540 -0.0243  2.8887
 1172TIP3    H2 3523   0.977   2.255   5.094  0.1389 -0.1988  0.4931
 1173TIP3   OH2 3524   6.160   2.184   0.247  0.1201 -0.3876  0.6163
 1173TIP3    H1 3525   6.209   2.105   0.222 -2.3350 -1.8957  0.2908
 1173TIP3    H2 3526   6.070   2.153   0.260 -1.0066  2.4350  0.0837
 1174TIP3   OH2 3527   4.080   3.470   3.987 -0.0572 -0.5400 -0.1633
 1174TIP3    H1 3528   4.077   3.560   3.954 -0.9556 -0.6406 -0.3635
 1174TIP3    H2 3529   4.087   3.480   4.082  0.8467 -0.2631 -0.2418
 1175TIP3   OH2 3530   4.710   3.462   4.842  0.3161  0.3755 -0.0144
 1175TIP3    H1 3531   4.704   3.393   4.776 -0.2157 -0.3472  0.7644
 1175TIP3    H2 3532   4.802   3.488   4.841  1.4040 -2.7236  1.9798
 1176TIP3   OH2 3533   0.324   1.520   3.118  0.2053 -0.5792  0.0790
 1176TIP3    H1 3534   0.308   1.614   3.113 -0.1975 -0.6715 -0.3860
 1176TIP3    H2 3535   0.393   1.511   3.184 -0.7943 -0.0767  1.2373
 1177TIP3   OH2 3536   5.077   2.386   1.861 -0.0420  0.7184 -0.0419
 1177TIP3    H1 3537   5.039   2.388   1.949  1.1602 -1.1460  0.5691
 1177TIP3    H2 3538   5.018   2.330   1.811 -0.1464  0.9261 -0.1568
 1178TIP3   OH2 3539   5.743   4.040   0.707 -0.1251 -0.8991  0.3360
 1178TIP3    H1 3540   5.751   4.081   0.622 -0.7631 -0.0426  0.6713
 1178TIP3    H2 3541   5.783   3.953   0.697 -0.1571 -0.7851 -0.8050
 1179TIP3   OH2 3542   0.710   5.496   3.734  0.2108 -0.3305  0.5467
 1179TIP3    H1 3543   0.694   5.441   3.811  1.4454  1.0015  1.8017
 1179TIP3    H2 3544   0.793   5.540   3.752 -0.5543  1.6969 -0.5442
 1180TIP3   OH2 3545   3.595   0.041   3.482 -0.3036  0.0423 -1.0447
 1180TIP3    H1 3546   3.683   0.076   3.494 -0.0686 -0.6981 -0.4548
 1180TIP3    H2 3547   3.570   0.068   3.394  1.6726 -2.1483 -2.4086
 1181TIP3   OH2 3548   4.855   4.799   0.519 -0.2758 -0.4771 -0.1728
 1181TIP3    H1 3549   4.844   4.766   0.430 -0.5897  0.0326 -0.3277
 1181TIP3    H2 3550   4.935   4.850   0.516 -0.9355  0.5641 -0.4786
 1182TIP3   OH2 3551   6.254   4.473   3.007  0.5610 -0.1484 -0.5993
 1182TIP3    H1 3552   6.283   4.472   3.098  1.4667 -0.0932 -0.8747
 1182TIP3    H2 3553   6.335   4.482   2.956 -0.0839  2.7150 -1.3121
 1183TIP3   OH2 3554   3.298   4.654   1.651  0.3310  0.0194 -0.5495
 1183TIP3    H1 3555   3.279   4.610   1.734 -0.5547 -0.4262 -0.9802
 1183TIP3    H2 3556   3.389   4.630   1.633  0.3158 -0.4417 -0.0527
 1184TIP3   OH2 3557   4.820   0.845   2.926  0.0372  1.1484 -0.1682
 1184TIP3    H1 3558   4.813   0.879   2.837 -2.0116  2.2172  0.3555
 1184TIP3    H2 3559   4.862   0.916   2.976 -2.4664  2.2466  0.5104
 1185TIP3   OH2 3560   1.232   1.944   4.802  0.5616  0.4710  0.6340
 1185TIP3    H1 3561   1.315   1.919   4.843  2.0571  0.4845 -2.1148
 1185TIP3    H2 3562   1.184   1.861   4.793  1.2981  0.0856  0.1750
 1186TIP3   OH2 3563   3.655   2.676   0.152 -0.1588 -0.6569  0.0517
 1186TIP3    H1 3564   3.590   2.658   0.084 -0.5906  0.5470  0.1249
 1186TIP3    H2 3565   3.608   2.729   0.217  0.8499  0.1392  0.1591
 1187TIP3   OH2 3566   2.230   2.109   0.020  0.1049  0.9052 -0.3362
 1187TIP3    H1 3567   2.203   2.147  -0.064  0.6906  0.5813 -0.6788
 1187TIP3    H2 3568   2.148   2.083   0.062 -0.1495  0.0347 -1.3146
 1188TIP3   OH2 3569   2.139   4.025   0.559 -0.1185  0.0759 -0.3173
 1188TIP3    H1 3570   2.090   4.033   0.477  0.9505 -0.4770 -1.0375
 1188TIP3    H2 3571   2.105   4.096   0.614 -1.7644 -0.3423 -0.7330
 1189TIP3   OH2 3572   5.555   2.236   1.746 -0.0936  0.1445  0.4582
 1189TIP3    H1 3573   5.497   2.245   1.822  0.9498 -0.0518  1.3033
 1189TIP3    H2 3574   5.561   2.324   1.710 -0.9646  0.1534  0.3157
 1190TIP3   OH2 3575   3.501   0.824   0.826 -0.5347 -0.0240 -0.2523
 1190TIP3    H1 3576   3.515   0.827   0.731 -2.0826 -0.6716 -0.5313
 1190TIP3    H2 3577   3.542   0.743   0.854 -1.6623 -0.7735 -0.6943
 1191TIP3   OH2 3578   0.065   5.036   4.896  0.0310  0.1393 -0.0341
 1191TIP3    H1 3579   0.004   5.082   4.953  0.4601  0.9915 -0.2551
 1191TIP3    H2 3580   0.121   5.104   4.860  0.8785 -0.5861 -0.1273
 1192TIP3   OH2 3581   4.024   5.652   3.690  0.2484 -0.6035 -0.0607
 1192TIP3    H1 3582   4.063   5.566   3.700 -0.2652 -0.9641 -1.0623
 1192TIP3    H2 3583   4.050   5.680   3.603  0.6862  0.4093  0.3734
 1193TIP3   OH2 3584   0.732   0.474   0.518 -0.2166  0.0378 -0.4040
 1193TIP3    H1 3585   0.702   0.559   0.549  0.5901  0.3040 -0.3323
 1193TIP3    H2 3586   0.719   0.415   0.592  0.8439  0.4775  0.1501
 1194TIP3   OH2 3587   6.309   0.951   3.874 -0.0360 -0.0110 -0.4686
 1194TIP3    H1 3588   6.256   0.981   3.799  0.0132  0.9658 -0.1308
 1194TIP3    H2 3589   6.247   0.947   3.947  0.4954  2.1004  0.1675
 1195TIP3   OH2 3590   2.432   3.934   1.688  0.1937  0.1890  0.0579
 1195TIP3    H1 3591   2.455   3.940   1.781  0.4023  1.2876 -0.0514
 1195TIP3    H2 3592   2.489   3.998   1.645  1.3629 -1.5216 -1.0855
 1196TIP3   OH2 3593   1.581   2.015   1.719 -0.0972 -0.3268  0.2579
 1196TIP3    H1 3594   1.657   2.039   1.667  0.0702  2.2285  1.5060
 1196TIP3    H2 3595   1.615   1.960   1.789  0.4055 -0.1633  0.1420
 1197TIP3   OH2 3596   5.372   4.924   0.436  0.2854 -0.2205  0.1352
 1197TIP3    H1 3597   5.455   4.947   0.394  1.0359 -0.4581  1.4059
 1197TIP3    H2 3598   5.374   4.829   0.442 -0.6178 -0.3108 -0.8517
 1198TIP3   OH2 3599   5.259   5.990   2.351 -0.5578  0.4287  0.0321
 1198TIP3    H1 3600   5.298   5.904   2.336 -3.3898 -1.0627  0.4085
 1198TIP3    H2 3601   5.256   6.030   2.264  0.5539  0.0518 -0.1889
 1199TIP3   OH2 3602   4.056   3.610   0.579 -0.2548 -0.3981  0.2869
 1199TIP3    H1 3603   4.129   3.655   0.534 -1.0230 -0.3891 -1.0151
 1199TIP3    H2 3604   4.086   3.520   0.588 -0.3987 -0.6169 -1.0820
 1200TIP3   OH2 3605   6.345   2.302   2.230 -0.2688 -1.0501  0.1801
 1200TIP3    H1 3606   6.330   2.214   2.266 -0.6937 -0.5577  1.2336
 1200TIP3    H2 3607   6.263   2.348   2.243  0.2552 -0.1943  0.4980
 1201TIP3   OH2 3608   1.223   0.515   2.980 -0.6455 -0.2881 -0.5476
 1201TIP3    H1 3609   1.165   0.439   2.987 -0.1941 -0.5359  0.8338
 1201TIP3    H2 3610   1.223   0.554   3.067 -1.8243  2.0627 -1.5212
 1202TIP3   OH2 3611   5.470   1.913   4.892 -0.3337 -0.3594 -0.6504
 1202TIP3    H1 3612   5.445   1.950   4.808  1.2351  1.1535 -0.4895
 1202TIP3    H2 3613   5.552   1.866   4.875 -0.4139 -0.7153 -0.1105
 1203TIP3   OH2 3614   0.639   1.828   1.571  0.0118 -0.3636  0.2256
 1203TIP3    H1 3615   0.592   1.890   1.626 -1.1628  0.7781 -1.9616
 1203TIP3    H2 3616   0.607   1.742   1.600 -3.2506  0.3300 -0.8431
 1204TIP3   OH2 3617   5.609   1.698   0.016  0.0254  0.1483  0.2782
 1204TIP3    H1 3618   5.534   1.752  -0.007  0.6801  1.3934  0.9746
 1204TIP3    H2 3619   5.586   1.659   0.100 -0.1044  0.0202  0.1825
 1205TIP3   OH2 3620   1.909   0.327   1.930  0.4065  0.2306  0.2268
 1205TIP3    H1 3621   1.920   0.276   2.010 -0.3356  0.4874  0.4999
 1205TIP3    H2 3622   1.828   0.376   1.943 -1.1707 -1.6287 -1.6571
 1206TIP3   OH2 3623   4.255   2.940   4.072  0.2738 -0.5271 -0.2899
 1206TIP3    H1 3624   4.326   2.988   4.115 -1.7084  2.2265  0.2707
 1206TIP3    H2 3625   4.220   2.883   4.141 -1.5404  2.3196  1.4074
 1207TIP3   OH2 3626   1.564   2.234   3.470 -0.2983  0.2080  0.1767
 1207TIP3    H1 3627   1.632   2.208   3.408  0.7879 -0.9402  1.7639
 1207TIP3    H2 3628   1.604   2.220   3.556 -1.9554  1.1857  1.1531
 1208TIP3   OH2 3629   0.530   5.052   3.724  0.1123  0.6824 -0.4716
 1208TIP3    H1 3630   0.490   5.092   3.646  0.6142  1.7543 -0.2049
 1208TIP3    H2 3631   0.473   5.078   3.796 -0.4849 -0.5098 -0.4897
 1209TIP3   OH2 3632   6.225   3.968   4.609 -0.5732  0.0260 -0.6620
 1209TIP3    H1 3633   6.188   3.990   4.524 -2.0820  0.3147  0.0357
 1209TIP3    H2 3634   6.150   3.943   4.662  0.1085  1.3353  1.0343
 1210TIP3   OH2 3635   1.759   0.741   0.641  0.3921 -0.1719 -0.1192
 1210TIP3    H1 3636   1.709   0.798   0.700  0.3799 -0.6895  0.3818
 1210TIP3    H2 3637   1.799   0.801   0.577 -1.1835  0.2339 -0.7830
 1211TIP3   OH2 3638   0.667   3.610   0.419 -0.0906  0.1808 -0.2988
 1211TIP3    H1 3639   0.598   3.546   0.401 -1.1334  0.4919  2.1520
 1211TIP3    H2 3640   0.744   3.576   0.374 -1.1288 -1.7286 -0.7321
 1212TIP3   OH2 3641   2.955   5.476   2.066  0.2354  0.2506  0.4775
 1212TIP3    H1 3642   2.997   5.468   1.980  1.6548  0.0476  1.1669
 1212TIP3    H2 3643   2.892   5.548   2.054  3.3492  3.2366  0.3292
 1213TIP3   OH2 3644   5.512   0.855   0.449  0.1030  0.1707  0.1012
 1213TIP3    H1 3645   5.564   0.901   0.515  0.1271  0.6048 -0.2103
 1213TIP3    H2 3646   5.422   0.881   0.467  0.3217  2.5398 -1.6920
 1214TIP3   OH2 3647   0.355   5.949   1.823  0.0119  0.2715  0.4794
 1214TIP3    H1 3648   0.379   6.000   1.901  0.8366  1.0602 -0.2646
 1214TIP3    H2 3649   0.290   6.003   1.778 -0.0246  0.0964  0.3211
 1215TIP3   OH2 3650   0.701   4.809   4.907 -0.3221 -0.2738 -0.1632
 1215TIP3    H1 3651   0.630   4.836   4.965 -0.5427  0.5790 -0.8221
 1215TIP3    H2 3652   0.658   4.755   4.840 -0.3756  0.3356 -0.6275
 1216TIP3   OH2 3653   3.129   0.118   1.361  0.1239  0.0087  0.2840
 1216TIP3    H1 3654   3.052   0.084   1.408 -0.4363  0.9493  0.0664
 1216TIP3    H2 3655   3.169   0.040   1.322 -1.1537 -0.4110 -0.2417
 1217TIP3   OH2 3656   2.626   0.505   2.092 -0.0376 -0.2395 -0.1075
 1217TIP3    H1 3657   2.659   0.594   2.100 -0.0209 -0.1938 -0.6431
 1217TIP3    H2 3658   2.533   0.516   2.070 -0.3626 -0.3639  1.1044
 1218TIP3   OH2 3659   1.412   5.822   4.327 -0.1175 -0.2005 -0.0949
 1218TIP3    H1 3660   1.350   5.749   4.327 -0.4296  0.0617 -0.5647
 1218TIP3    H2 3661   1.365   5.893   4.283 -0.3366  0.7240  1.5271
 1219TIP3   OH2 3662   2.334   3.803   1.148 -0.4662  0.1934  0.7173
 1219TIP3    H1 3663   2.320   3.870   1.215 -0.5668 -0.2944  1.1907
 1219TIP3    H2 3664   2.337   3.720   1.197  3.3602  0.1174  0.6734
 1220TIP3   OH2 3665   4.135   5.091   4.345  0.0591 -0.1374 -0.5430
 1220TIP3    H1 3666   4.101   5.002   4.339 -1.6370  0.3914  0.5208
 1220TIP3    H2 3667   4.058   5.145   4.365  0.7329  1.8181 -2.7630
 1221TIP3   OH2 3668   5.085   1.335   0.833  0.2843 -0.0654 -0.4915
 1221TIP3    H1 3669   5.027   1.373   0.767  0.6416  0.4939 -0.4901
 1221TIP3    H2 3670   5.166   1.384   0.824  0.2051  0.2864  0.6394
 1222TIP3   OH2 3671   2.582   1.472   1.432  0.6574 -0.0246 -0.4389
 1222TIP3    H1 3672   2.550   1.464   1.341 -2.3140  1.4621  0.3394
 1222TIP3    H2 3673   2.633   1.552   1.433 -1.1726  1.2040 -0.4258
 1223TIP3   OH2 3674   4.799   0.810   4.072  0.0223  0.3834 -0.7606
 1223TIP3    H1 3675   4.797   0.716   4.092 -0.2215  0.3784 -0.7998
 1223TIP3    H2 3676   4.768   0.852   4.153 -2.8534  0.2657 -1.6726
 1224TIP3   OH2 3677   0.636   2.284   1.753 -0.4843  0.1047 -0.0086
 1224TIP3    H1 3678   0.612   2.375   1.737 -0.3555  0.2849  0.7859
 1224TIP3    H2 3679   0.575   2.255   1.821  0.2839 -0.0070  0.6498
 1225TIP3   OH2 3680   3.046   4.828   4.153  0.1842 -0.0808  0.4609
 1225TIP3    H1 3681   2.957   4.795   4.160 -0.6406  1.8519 -0.2165
 1225TIP3    H2 3682   3.059   4.840   4.059  0.9117  0.2986  0.6045
 1226TIP3   OH2 3683   4.717   5.611   4.610  0.3343 -0.5609 -0.2577
 1226TIP3    H1 3684   4.667   5.579   4.535 -2.1327 -1.1923  1.4954
 1226TIP3    H2 3685   4.763   5.535   4.643  1.4581 -0.2723 -1.1176
 1227TIP3   OH2 3686   2.973   4.361   4.417  0.0096 -0.4341 -0.9718
 1227TIP3    H1 3687   3.060   4.401   4.418 -0.3715  0.3925 -0.5773
 1227TIP3    H2 3688   2.939   4.382   4.330  0.2236 -0.8090 -1.1482
 1228TIP3   OH2 3689   1.920   2.304   3.756  0.2539 -0.2567  0.3518
 1228TIP3    H1 3690   1.930   2.359   3.679  1.3944 -0.9867 -0.0571
 1228TIP3    H2 3691   1.840   2.253   3.739 -1.3648  1.8585  1.1638
 1229TIP3   OH2 3692   1.173   5.382   0.897  0.2636 -0.1222  0.4256
 1229TIP3    H1 3693   1.196   5.291   0.913  2.2742  0.1754 -0.3885
 1229TIP3    H2 3694   1.103   5.401   0.958  0.0982 -2.0941  0.8914
 1230TIP3   OH2 3695   1.267   2.299   5.148  0.6078 -0.1030 -0.1905
 1230TIP3    H1 3696   1.251   2.205   5.161 -0.0397  0.1011  0.6231
 1230TIP3    H2 3697   1.198   2.342   5.200  2.7142  0.8262  2.0249
 1231TIP3   OH2 3698   2.381   1.073   1.477  0.3386  0.2341  0.2492
 1231TIP3    H1 3699   2.389   1.167   1.489 -0.4356  0.2190  0.9198
 1231TIP3    H2 3700   2.287   1.056   1.477  0.4421 -0.4270 -0.7955
 1232TIP3   OH2 3701   2.822   4.517   4.885 -0.1197  0.0410  0.1750
 1232TIP3    H1 3702   2.834   4.467   4.805  1.5311  0.1024  0.3407
 1232TIP3    H2 3703   2.902   4.501   4.936 -0.9483  0.3172  1.6307
 1233TIP3   OH2 3704   1.391   5.807   2.549 -0.0332 -0.2219  0.5658
 1233TIP3    H1 3705   1.357   5.807   2.639  0.5535  2.0737  0.8307
 1233TIP3    H2 3706   1.336   5.869   2.502  2.0643  1.5969  0.3584
 1234TIP3   OH2 3707   6.110   4.422   2.192  0.3800  0.0317  0.2052
 1234TIP3    H1 3708   6.180   4.368   2.157 -0.3565 -0.0214 -1.2659
 1234TIP3    H2 3709   6.153   4.503   2.219  0.8178  0.7912 -2.4518
 1235TIP3   OH2 3710   6.066   2.935   4.638 -0.0086  0.4877  0.3519
 1235TIP3    H1 3711   6.126   2.891   4.698 -0.8107 -0.5537  0.4102
 1235TIP3    H2 3712   6.109   3.019   4.619  0.7045  0.4353  1.6249
 1236TIP3   OH2 3713   2.492   2.715   0.761  0.5198  0.6788 -0.3034
 1236TIP3    H1 3714   2.478   2.620   0.760 -0.0165  0.7618 -1.2094
 1236TIP3    H2 3715   2.503   2.739   0.670 -1.3118  1.7609 -0.2899
 1237TIP3   OH2 3716   0.832   1.178   1.900 -0.4190  1.3181 -0.0303
 1237TIP3    H1 3717   0.918   1.197   1.862 -0.5379  1.1083 -0.3985
 1237TIP3    H2 3718   0.780   1.257   1.883 -0.7071  0.9341 -0.9773
 1238TIP3   OH2 3719   0.944   2.928   3.078 -0.2173 -0.3805  0.1045
 1238TIP3    H1 3720   0.941   2.872   3.001  2.0975 -1.1841  0.5010
 1238TIP3    H2 3721   0.905   3.010   3.050  1.1119 -0.4350 -2.1453
 1239TIP3   OH2 3722   4.679   1.989   4.706 -0.0449 -0.2428  0.0311
 1239TIP3    H1 3723   4.670   2.058   4.771 -0.5958 -0.7542  0.5114
 1239TIP3    H2 3724   4.709   2.034   4.627 -0.3690  0.5401  0.3419
 1240TIP3   OH2 3725   5.873   5.392   4.376  0.2011  0.4274 -1.2568
 1240TIP3    H1 3726   5.781   5.369   4.389  0.2672  1.1789  1.0502
 1240TIP3    H2 3727   5.883   5.399   4.282 -2.3592  1.2396 -1.5526
 1241TIP3   OH2 3728   4.349   2.091   5.042  0.0421  0.0538 -0.4883
 1241TIP3    H1 3729   4.408   2.071   4.970 -1.1597 -0.8233 -1.2593
 1241TIP3    H2 3730   4.329   2.184   5.030  0.2455  0.0400 -0.9840
 1242TIP3   OH2 3731   0.391   1.458   1.158 -0.9509 -0.2268  0.0783
 1242TIP3    H1 3732   0.358   1.519   1.224 -0.2339  2.3539 -1.8262
 1242TIP3    H2 3733   0.439   1.512   1.096  2.4253 -3.1099 -0.1609
 1243TIP3   OH2 3734   5.893   4.331   2.062 -0.3255  0.1201  0.4504
 1243TIP3    H1 3735   5.813   4.316   2.112 -1.5652  0.9586 -1.1930
 1243TIP3    H2 3736   5.963   4.330   2.127 -1.7630  0.2764  2.0535
 1244TIP3   OH2 3737   2.409   5.786   2.511 -0.1731  0.0907 -0.2183
 1244TIP3    H1 3738   2.384   5.864   2.461  4.6300  2.5528  0.6285
 1244TIP3    H2 3739   2.490   5.756   2.469  0.6778 -1.5101  2.3597
 1245TIP3   OH2 3740   1.039   2.369   2.449  0.3469  1.0382  0.1108
 1245TIP3    H1 3741   1.022   2.296   2.509  0.7061  0.7080 -0.1871
 1245TIP3    H2 3742   1.117   2.343   2.401  0.1522  1.3736 -0.3962
 1246TIP3   OH2 3743   3.889   5.263   3.521 -0.2761  0.2053  0.4915
 1246TIP3    H1 3744   3.917   5.268   3.430  0.0875  1.0857  0.6392
 1246TIP3    H2 3745   3.897   5.171   3.544 -0.7649 -0.0877 -0.4842
 1247TIP3   OH2 3746   4.156   3.575   5.069  0.6501  0.9007 -0.6547
 1247TIP3    H1 3747   4.115   3.605   4.988  0.4408  1.3551 -0.3795
 1247TIP3    H2 3748   4.230   3.635   5.083 -0.0067  1.5508  0.1093
 1248TIP3   OH2 3749   1.824   4.605   1.417 -0.1251  0.1791 -0.0085
 1248TIP3    H1 3750   1.736   4.625   1.449 -0.0473  1.5808 -0.5691
 1248TIP3    H2 3751   1.825   4.511   1.404 -0.5979 -0.3091  2.7797
 1249TIP3   OH2 3752   3.145   3.801   2.887 -0.5095  0.3878  0.2030
 1249TIP3    H1 3753   3.222   3.845   2.851 -0.8101  0.4953 -0.3167
 1249TIP3    H2 3754   3.126   3.849   2.968 -0.5480  0.9202 -0.1118
 1250TIP3   OH2 3755   3.228   3.428   3.687  0.2578 -0.0562  0.1635
 1250TIP3    H1 3756   3.306   3.377   3.666 -1.4608 -2.3202 -1.1020
 1250TIP3    H2 3757   3.179   3.374   3.749 -0.8229  0.8254  0.1154
 1251TIP3   OH2 3758   5.584   4.119   5.063 -0.2868  0.0990 -0.6102
 1251TIP3    H1 3759   5.505   4.069   5.083 -0.3266 -0.3704 -1.8652
 1251TIP3    H2 3760   5.553   4.197   5.018 -0.0852  0.3269 -0.3604
 1252TIP3   OH2 3761   2.442  -0.017   4.554 -0.0554 -0.1448  0.2392
 1252TIP3    H1 3762   2.480   0.062   4.592 -2.6211  0.3200  2.1346
 1252TIP3    H2 3763   2.357   0.011   4.520 -0.1464 -1.7050 -0.9152
 1253TIP3   OH2 3764   2.852   1.265   2.884 -0.2382 -0.3164 -0.3140
 1253TIP3    H1 3765   2.833   1.310   2.966  0.4118  0.3579 -0.5212
 1253TIP3    H2 3766   2.837   1.330   2.816  0.1289 -0.5928 -0.6651
 1254TIP3   OH2 3767   2.518   2.326   1.708 -0.3601 -0.0953  0.1356
 1254TIP3    H1 3768   2.542   2.394   1.644  0.3561  0.4787  0.9926
 1254TIP3    H2 3769   2.435   2.291   1.676 -0.0573  0.2428 -1.0603
 1255TIP3   OH2 3770   3.086   4.648   4.383 -0.5580  0.2897  0.5144
 1255TIP3    H1 3771   3.083   4.707   4.308  0.3684 -1.3711 -0.9202
 1255TIP3    H2 3772   3.163   4.677   4.433  0.7481 -0.4938 -0.9378
 1256TIP3   OH2 3773   5.464   2.443   1.287 -0.1639 -0.6198 -0.2415
 1256TIP3    H1 3774   5.555   2.437   1.315 -0.2995  0.1611  0.4083
 1256TIP3    H2 3775   5.457   2.531   1.250 -0.6503 -0.6875 -0.3166
 1257TIP3   OH2 3776   3.820   4.083   3.249 -0.1250 -0.0080  0.5576
 1257TIP3    H1 3777   3.892   4.099   3.309 -1.1295  1.5918  1.4407
 1257TIP3    H2 3778   3.763   4.022   3.296 -0.8115  1.0890  1.2103
 1258TIP3   OH2 3779   1.720   5.224   5.148  0.0021  0.4069  0.2998
 1258TIP3    H1 3780   1.654   5.272   5.198  0.0485  1.8698 -0.9797
 1258TIP3    H2 3781   1.803   5.265   5.173  0.0926  0.6779 -0.4366
 1259TIP3   OH2 3782   1.609   0.617   5.152  0.0424 -0.9212  0.0366
 1259TIP3    H1 3783   1.565   0.578   5.076 -0.4869  0.3218 -0.3324
 1259TIP3    H2 3784   1.602   0.551   5.221 -0.8524 -1.4581 -0.5389
 1260TIP3   OH2 3785   5.312   2.346   1.479  0.6588  0.4897 -0.9468
 1260TIP3    H1 3786   5.351   2.368   1.564  0.8683 -0.4486 -0.7918
 1260TIP3    H2 3787   5.373   2.383   1.415  2.6285 -2.1108 -0.7383
 1261TIP3   OH2 3788   5.258   5.692   1.934 -0.0249  0.4802  0.4421
 1261TIP3    H1 3789   5.257   5.673   1.840 -1.5242 -1.4070  0.7768
 1261TIP3    H2 3790   5.348   5.672   1.961  0.1131 -0.0844 -0.3827
 1262TIP3   OH2 3791   0.797   0.433   2.397  0.8374  0.7774  0.7376
 1262TIP3    H1 3792   0.740   0.356   2.388  0.8781  0.8206  0.0557
 1262TIP3    H2 3793   0.880   0.398   2.428  0.4894  0.6958  1.6024
 1263TIP3   OH2 3794   3.485   2.476   2.735 -0.4132  0.4827 -0.7362
 1263TIP3    H1 3795   3.571   2.440   2.757 -0.0099  2.2821  0.8758
 1263TIP3    H2 3796   3.455   2.423   2.661  1.3222 -1.2784 -0.2555
 1264TIP3   OH2 3797   3.323   0.375   3.339  0.1841  0.1654  0.0420
 1264TIP3    H1 3798   3.324   0.279   3.333 -0.0080 -0.0156  2.1008
 1264TIP3    H2 3799   3.375   0.404   3.265 -0.0685 -1.5072 -0.8567
 1265TIP3   OH2 3800   1.737   0.751   3.053  0.4964 -0.0108 -0.3332
 1265TIP3    H1 3801   1.692   0.835   3.067  0.8116  0.0175  0.5242
 1265TIP3    H2 3802   1.756   0.750   2.959 -1.7751 -0.2629 -0.8416
 1266TIP3   OH2 3803   2.863   4.718   4.526  0.5933  0.5385 -0.3765
 1266TIP3    H1 3804   2.806   4.644   4.505 -1.9449  2.4513 -0.6015
 1266TIP3    H2 3805   2.948   4.694   4.488  0.2938 -2.7826  0.6751
 1267TIP3   OH2 3806   1.188   0.554   0.219  0.4499  0.5718  0.3117
 1267TIP3    H1 3807   1.246   0.489   0.259 -0.8208 -1.6648 -1.2331
 1267TIP3    H2 3808   1.245   0.607   0.164  1.3689 -0.0707  0.6266
 1268TIP3   OH2 3809   0.430   3.883   4.439  0.3301  0.2136  0.7854
 1268TIP3    H1 3810   0.490   3.949   4.473  2.3330 -1.2218  0.2078
 1268TIP3    H2 3811   0.407   3.830   4.516  1.5417 -0.5023  0.6886
 1269TIP3   OH2 3812   5.581   0.827   4.851  0.0960  0.0585 -0.1098
 1269TIP3    H1 3813   5.516   0.763   4.822 -0.9391 -0.3468  2.7571
 1269TIP3    H2 3814   5.547   0.911   4.824 -1.0598 -0.2488  0.3505
 1270TIP3   OH2 3815   5.091   4.525   0.434  0.0222  0.4206  0.1279
 1270TIP3    H1 3816   5.119   4.436   0.453  0.2817  0.6369  0.7435
 1270TIP3    H2 3817   5.001   4.529   0.466  0.6716  0.9864  1.9873
 1271TIP3   OH2 3818   2.050   1.238   2.278  0.0127 -0.1788 -0.0198
 1271TIP3    H1 3819   2.082   1.152   2.305  0.0477 -0.2945 -0.4223
 1271TIP3    H2 3820   2.076   1.297   2.349 -2.7505 -1.0197  1.8659
 1272TIP3   OH2 3821   3.639   0.456   0.050 -0.4648  0.4490 -0.0377
 1272TIP3    H1 3822   3.667   0.537   0.009 -1.9937  0.2925 -1.4511
 1272TIP3    H2 3823   3.705   0.440   0.118 -0.2497  2.9535  0.4240
 1273TIP3   OH2 3824   2.812   4.905   4.743 -0.5196 -0.2164 -0.3634
 1273TIP3    H1 3825   2.890   4.946   4.707 -0.9573  0.6875 -0.2976
 1273TIP3    H2 3826   2.790   4.835   4.681 -0.1422  0.0658 -0.8156
 1274TIP3   OH2 3827   2.438   3.648   4.513 -0.0356  0.4763 -0.0648
 1274TIP3    H1 3828   2.463   3.712   4.446  1.4386  0.0778  0.0555
 1274TIP3    H2 3829   2.343   3.654   4.519 -0.0810  1.3323 -1.3734
 1275TIP3   OH2 3830   1.289   2.560   1.593  0.4056 -0.1127 -0.4277
 1275TIP3    H1 3831   1.285   2.481   1.647  2.6896  0.7295  1.1698
 1275TIP3    H2 3832   1.279   2.632   1.655  0.8813  0.8678 -1.4538
 1276TIP3   OH2 3833   5.415   4.949   3.209 -0.4429 -0.1065 -0.2815
 1276TIP3    H1 3834   5.508   4.969   3.197 -0.2448 -0.3663  0.7411
 1276TIP3    H2 3835   5.399   4.961   3.303 -1.1712 -1.1972 -0.2509
 1277TIP3   OH2 3836   2.278   3.451   3.272 -0.4137  0.2283 -0.1596
 1277TIP3    H1 3837   2.354   3.470   3.217  0.2619  1.8084  1.2114
 1277TIP3    H2 3838   2.246   3.367   3.241  3.5047 -1.9365  0.8644
 1278TIP3   OH2 3839   4.391   0.505   0.746 -0.0129 -0.1405 -0.3759
 1278TIP3    H1 3840   4.340   0.459   0.813 -0.6858  1.1680  0.0521
 1278TIP3    H2 3841   4.468   0.537   0.794  0.3630 -0.6345 -0.6334
 1279TIP3   OH2 3842   5.393   2.597   2.524  0.5324  0.0288  0.1220
 1279TIP3    H1 3843   5.387   2.668   2.461 -0.9157 -0.5855 -0.4729
 1279TIP3    H2 3844   5.310   2.598   2.570  0.7205 -0.8990  0.5167
 1280TIP3   OH2 3845   1.739   2.123   3.650 -0.4665 -0.1509  0.2717
 1280TIP3    H1 3846   1.730   2.037   3.693  0.1074 -0.7087 -0.6860
 1280TIP3    H2 3847   1.805   2.109   3.582 -0.9598  0.8481 -0.4433
 1281TIP3   OH2 3848   2.191   5.552   0.293 -0.2792 -0.0228 -0.3704
 1281TIP3    H1 3849   2.153   5.571   0.379 -0.5003  1.9977 -0.8674
 1281TIP3    H2 3850   2.238   5.469   0.306 -0.4552  0.1290  1.6475
 1282TIP3   OH2 3851   4.306   1.670   2.956 -0.3360  0.4438 -0.4187
 1282TIP3    H1 3852   4.326   1.737   2.890 -0.7425  0.8031 -0.1844
 1282TIP3    H2 3853   4.219   1.693   2.988 -0.1357  0.2899  0.2644
 1283TIP3   OH2 3854   4.321   0.447   0.139 -0.4004 -0.7269 -0.5326
 1283TIP3    H1 3855   4.293   0.438   0.048  2.2352 -0.7574 -1.4218
 1283TIP3    H2 3856   4.378   0.372   0.155  0.9917  0.4644  0.3939
 1284TIP3   OH2 3857   2.518   4.552   2.474  0.2893  0.2350 -0.2860
 1284TIP3    H1 3858   2.571   4.626   2.501  0.6395  0.1934 -0.8350
 1284TIP3    H2 3859   2.512   4.496   2.552 -0.7686  1.2880  0.4106
 1285TIP3   OH2 3860   1.432   0.185   3.332  0.2119  0.3417  0.5654
 1285TIP3    H1 3861   1.358   0.214   3.384  0.8960 -0.3506  1.9721
 1285TIP3    H2 3862   1.504   0.243   3.359  0.1088  1.3341 -1.1371
 1286TIP3   OH2 3863   4.978   2.312   3.132  0.5089 -0.2358  0.1232
 1286TIP3    H1 3864   4.959   2.291   3.041 -2.2263  1.0298  0.3085
 1286TIP3    H2 3865   4.917   2.258   3.183  1.8975 -0.8310  1.2356
 1287TIP3   OH2 3866   4.448   1.081   1.999 -0.1494 -0.5110 -0.3918
 1287TIP3    H1 3867   4.501   1.082   2.079  1.5143 -1.5842 -1.4288
 1287TIP3    H2 3868   4.472   1.000   1.954 -0.4173  0.4506 -2.3922
 1288TIP3   OH2 3869   5.292   5.756   0.926 -0.1258 -0.2174  0.0475
 1288TIP3    H1 3870   5.275   5.839   0.971 -1.5622 -0.8872  0.8075
 1288TIP3    H2 3871   5.313   5.695   0.997  0.7759 -0.5557 -0.4925
 1289TIP3   OH2 3872   0.709   0.079   4.947 -0.1904 -0.0406  0.2477
 1289TIP3    H1 3873   0.705   0.076   4.852  0.6964  1.7674  0.1125
 1289TIP3    H2 3874   0.628   0.124   4.973 -0.2157 -0.1274  0.3203
 1290TIP3   OH2 3875   2.277   2.326   4.010  0.4926  0.3425 -0.0079
 1290TIP3    H1 3876   2.341   2.397   4.005  0.4252  0.3536 -1.0928
 1290TIP3    H2 3877   2.194   2.370   4.026  0.4866  0.4973 -0.4454
 1291TIP3   OH2 3878   2.971   0.324   2.486 -0.2401 -0.2948  0.5940
 1291TIP3    H1 3879   3.025   0.340   2.563  3.2049 -0.1042 -1.6595
 1291TIP3    H2 3880   2.945   0.411   2.455 -0.0272 -0.2710  0.4837
 1292TIP3   OH2 3881   5.827   3.014   1.434 -0.2703 -0.2389  0.2817
 1292TIP3    H1 3882   5.794   3.039   1.348 -0.0692 -0.5618  0.1057
 1292TIP3    H2 3883   5.758   3.039   1.495  0.4913  2.0666  0.2965
 1293TIP3   OH2 3884   5.660   1.540   1.160  0.6181 -0.3969 -0.1407
 1293TIP3    H1 3885   5.674   1.452   1.196 -1.1783  0.0632  1.9280
 1293TIP3    H2 3886   5.598   1.581   1.221  0.6761  1.9907 -1.5599
 1294TIP3   OH2 3887   4.117   2.775   2.298  0.4009 -0.5936 -0.4884
 1294TIP3    H1 3888   4.125   2.836   2.372 -0.1322  0.3389 -1.1724
 1294TIP3    H2 3889   4.148   2.826   2.222 -2.8749 -0.0414 -1.6206
 1295TIP3   OH2 3890   4.400   5.457   3.727  0.0787  0.0917  0.1754
 1295TIP3    H1 3891   4.375   5.365   3.721  0.4655 -0.0737  0.9882
 1295TIP3    H2 3892   4.376   5.494   3.642 -0.1630 -0.7362 -0.1244
 1296TIP3   OH2 3893   1.471   3.099   0.476 -0.3126  0.2304 -0.0242
 1296TIP3    H1 3894   1.502   3.038   0.543  0.9145  0.1459 -0.6296
 1296TIP3    H2 3895   1.385   3.127   0.506 -0.2470 -0.6412  1.0271
 1297TIP3   OH2 3896   5.210   4.042   3.581 -0.2174  0.3467 -0.3646
 1297TIP3    H1 3897   5.250   4.072   3.663 -0.0341  0.0191 -0.3304
 1297TIP3    H2 3898   5.259   4.088   3.513  0.0358  0.1544 -0.3126
 1298TIP3   OH2 3899   3.252   2.409   2.116 -0.4726  0.4039  0.3201
 1298TIP3    H1 3900   3.207   2.484   2.075  2.4850  2.4701  0.5512
 1298TIP3    H2 3901   3.268   2.438   2.206  0.7415 -0.5033  0.4077
 1299TIP3   OH2 3902   2.320   0.200   3.970  0.3366  0.3917  0.1608
 1299TIP3    H1 3903   2.358   0.154   4.046  0.3869  0.9409  0.4723
 1299TIP3    H2 3904   2.230   0.169   3.967 -0.0509  1.3491  1.2492
 1300TIP3   OH2 3905   4.937   5.665   4.958 -0.4601 -0.4438 -0.0947
 1300TIP3    H1 3906   4.964   5.737   5.015 -1.4502  0.0746 -0.2668
 1300TIP3    H2 3907   5.018   5.639   4.913 -0.0378  0.3815  0.1655
 1301TIP3   OH2 3908   3.401   5.749   0.909  0.1935  0.3046  0.1317
 1301TIP3    H1 3909   3.342   5.740   0.984 -0.6637  2.1433 -0.2716
 1301TIP3    H2 3910   3.347   5.726   0.834  0.1271  1.4764 -0.1907
 1302TIP3   OH2 3911   3.020   1.761   3.461 -0.1969 -0.2466  0.0237
 1302TIP3    H1 3912   3.115   1.768   3.451 -0.2465 -0.3362 -0.5353
 1302TIP3    H2 3913   3.005   1.668   3.477 -0.1583 -0.1698  0.5419
 1303TIP3   OH2 3914   5.873   0.270   1.050 -0.0090  0.2571 -0.1724
 1303TIP3    H1 3915   5.945   0.262   0.987 -0.3130  1.2892 -0.6646
 1303TIP3    H2 3916   5.816   0.195   1.030 -0.5750  1.0669 -1.7618
 1304TIP3   OH2 3917   2.669   0.262   1.557  0.3840  0.2330 -0.4149
 1304TIP3    H1 3918   2.632   0.272   1.645  1.7534  0.4663  0.1621
 1304TIP3    H2 3919   2.664   0.349   1.518 -0.5482  0.0540 -0.7159
 1305TIP3   OH2 3920   2.689   0.037   3.227  0.3913 -0.1858 -0.1694
 1305TIP3    H1 3921   2.715   0.127   3.206  1.2420 -0.1620  0.8826
 1305TIP3    H2 3922   2.738  -0.018   3.166  0.6313  0.0276 -0.1721
 1306TIP3   OH2 3923   3.996   2.354   1.621  0.6772 -0.3717  0.3474
 1306TIP3    H1 3924   4.065   2.390   1.565  0.7199  0.0871  0.6856
 1306TIP3    H2 3925   3.945   2.298   1.564  0.2047  0.7591 -0.3605
 1307TIP3   OH2 3926   2.575   2.514   4.196  0.1171 -0.3051 -0.2867
 1307TIP3    H1 3927   2.589   2.567   4.275  0.0259  0.9810 -1.1080
 1307TIP3    H2 3928   2.655   2.526   4.144 -0.0878 -0.6190 -0.6807
 1308TIP3   OH2 3929   5.948   0.461   4.404 -0.3369  0.0146  0.3638
 1308TIP3    H1 3930   5.949   0.390   4.469 -1.0364 -0.7218 -0.3989
 1308TIP3    H2 3931   5.907   0.422   4.327  0.6232  0.8258 -0.5846
 1309TIP3   OH2 3932   3.278   2.135   4.806 -0.1283 -0.0765  0.0226
 1309TIP3    H1 3933   3.337   2.152   4.879  0.0854 -0.5660 -0.0319
 1309TIP3    H2 3934   3.283   2.040   4.792  1.0499  0.1704 -1.6303
 1310TIP3   OH2 3935   4.233   3.121   3.738  0.6394  0.0337 -0.1990
 1310TIP3    H1 3936   4.155   3.165   3.773  0.6738  0.1270 -0.2372
 1310TIP3    H2 3937   4.243   3.043   3.792 -0.4875 -0.9032 -1.2906
 1311TIP3   OH2 3938   0.713   0.033   0.917  0.0766 -0.0655  0.3128
 1311TIP3    H1 3939   0.645   0.086   0.958 -0.4230 -0.4376 -0.0141
 1311TIP3    H2 3940   0.675  -0.055   0.913  0.9509 -0.4901  0.9957
 1312TIP3   OH2 3941   6.371   5.195   4.463 -0.3698 -0.3014 -0.4622
 1312TIP3    H1 3942   6.350   5.263   4.527  0.4312  0.8313 -1.3476
 1312TIP3    H2 3943   6.291   5.145   4.453 -0.4611 -0.6404  1.5634
 1313TIP3   OH2 3944   2.134   5.942   5.035 -0.2176  0.4283  0.2470
 1313TIP3    H1 3945   2.158   5.917   4.946  0.5109 -1.1042  0.8589
 1313TIP3    H2 3946   2.171   6.030   5.045  0.7366  0.1442 -0.5652
 1314TIP3   OH2 3947   5.379   0.294   4.794 -0.1885  0.0004  0.2501
 1314TIP3    H1 3948   5.389   0.219   4.852  1.2387  0.8400  1.1350
 1314TIP3    H2 3949   5.468   0.326   4.781 -0.4468 -0.1625 -2.4551
 1315TIP3   OH2 3950   5.536   2.985   2.378  0.1362  0.2513  0.2255
 1315TIP3    H1 3951   5.618   2.949   2.412  0.0146  1.6118  2.1162
 1315TIP3    H2 3952   5.509   3.049   2.443 -1.9286  0.5707 -0.8557
 1316TIP3   OH2 3953   3.889   5.708   1.490 -0.4516  0.2241 -0.0491
 1316TIP3    H1 3954   3.826   5.778   1.507 -0.3318 -0.0131  1.4884
 1316TIP3    H2 3955   3.845   5.652   1.426 -0.7915  1.3610 -0.8506
 1317TIP3   OH2 3956   4.715   2.574   4.877  0.1370  0.0894  0.7328
 1317TIP3    H1 3957   4.636   2.604   4.832  0.1059  0.4145  0.9999
 1317TIP3    H2 3958   4.738   2.492   4.834 -0.2744  0.0600  0.5702
 1318TIP3   OH2 3959   2.310   2.187   1.590 -0.4684  0.0918  0.5122
 1318TIP3    H1 3960   2.269   2.232   1.516 -2.0549 -2.5755 -0.3554
 1318TIP3    H2 3961   2.380   2.135   1.550  0.2946  0.5335  1.2588
 1319TIP3   OH2 3962   4.156   1.026   1.989  0.5050 -0.4520  0.3314
 1319TIP3    H1 3963   4.245   1.059   1.985  0.1323  0.6094  0.3107
 1319TIP3    H2 3964   4.104   1.102   2.019 -0.6538 -0.4792 -1.4848
 1320TIP3   OH2 3965   1.180   1.414   3.344 -0.1546  0.2722  0.5977
 1320TIP3    H1 3966   1.097   1.462   3.336  0.5366  1.8389  2.2351
 1320TIP3    H2 3967   1.191   1.399   3.438  1.5629  0.3984  0.4583
 1321TIP3   OH2 3968   3.874   1.413   4.025 -0.4557  0.0149 -0.4985
 1321TIP3    H1 3969   3.884   1.326   4.063 -1.9307  0.2335  0.4646
 1321TIP3    H2 3970   3.841   1.397   3.936 -2.7024 -0.4328  0.3470
 1322TIP3   OH2 3971   0.346   0.832   2.013 -0.4874  0.3121 -0.3347
 1322TIP3    H1 3972   0.370   0.902   1.953 -1.9408 -0.0465 -1.4022
 1322TIP3    H2 3973   0.295   0.771   1.959  0.0386 -1.1573  0.7517
 1323TIP3   OH2 3974   4.678   2.999   3.002 -0.4493  0.0583 -0.2436
 1323TIP3    H1 3975   4.718   2.915   2.982  0.6631  0.6294 -0.4865
 1323TIP3    H2 3976   4.748   3.063   2.989 -1.2097  1.0010  0.1621
 1324TIP3   OH2 3977   3.271   4.084   0.606  0.2018  0.0671 -1.0039
 1324TIP3    H1 3978   3.351   4.044   0.572  0.5593  0.4792 -0.6636
 1324TIP3    H2 3979   3.301   4.165   0.649 -0.2081 -0.5466  0.4920
 1325TIP3   OH2 3980   5.219   5.534   5.102 -0.1604  0.0607 -0.6245
 1325TIP3    H1 3981   5.286   5.469   5.118 -0.1495 -0.3740 -2.2240
 1325TIP3    H2 3982   5.140   5.484   5.083 -0.1958  0.4820 -1.7006
 1326TIP3   OH2 3983   3.775   5.108   2.513 -0.3941 -0.1286 -0.1608
 1326TIP3    H1 3984   3.847   5.089   2.453 -2.0089  1.6647 -2.8881
 1326TIP3    H2 3985   3.708   5.044   2.490 -1.8832  1.9565 -2.0433
 1327TIP3   OH2 3986   3.075   4.922   3.034 -0.0795  0.5918 -0.8197
 1327TIP3    H1 3987   3.101   5.004   3.076 -1.8860  1.7011 -1.7372
 1327TIP3    H2 3988   3.043   4.867   3.105 -1.3524  1.7296 -0.4804
 1328TIP3   OH2 3989   2.935   2.045   1.054  0.1248  0.1951 -0.2496
 1328TIP3    H1 3990   2.858   2.031   1.109  1.2383 -2.4110  0.8316
 1328TIP3    H2 3991   2.945   1.963   1.005  1.4724  0.9567 -1.3372
 1329TIP3   OH2 3992   1.985   1.728   1.913 -0.4012 -0.6901 -0.2111
 1329TIP3    H1 3993   1.936   1.651   1.884 -0.6938 -0.6389  0.1343
 1329TIP3    H2 3994   2.067   1.692   1.948 -0.4127 -0.8217 -0.3204
 1330TIP3   OH2 3995   1.667   2.302   4.301 -0.1054  0.3765 -0.4468
 1330TIP3    H1 3996   1.743   2.304   4.360 -0.7024 -1.0691  0.4333
 1330TIP3    H2 3997   1.607   2.366   4.339  0.8488  1.9454 -1.4670
 1331TIP3   OH2 3998   6.235   0.040   0.707 -0.2459 -0.2024 -0.3145
 1331TIP3    H1 3999   6.319   0.087   0.702 -0.4274  0.2905  0.9959
 1331TIP3    H2 4000   6.259  -0.052   0.704  0.1689 -0.0800 -2.2414
 1332TIP3   OH2 4001   4.821   2.209   1.308  0.4188  0.1379 -0.1198
 1332TIP3    H1 4002   4.847   2.297   1.337 -0.1113  1.1411 -2.4160
 1332TIP3    H2 4003   4.729   2.219   1.282 -0.6769 -1.9218  2.4315
 1333TIP3   OH2 4004   1.395   4.463   4.290  0.1198  0.2958 -0.6233
 1333TIP3    H1 4005   1.410   4.514   4.210 -2.3533  1.6725 -0.2935
 1333TIP3    H2 4006   1.386   4.528   4.359  1.0808 -0.8283  0.6242
 1334TIP3   OH2 4007   2.953   1.063   3.114 -0.2866 -0.2356  0.6928
 1334TIP3    H1 4008   2.977   1.151   3.084  2.6032 -0.8632  0.8449
 1334TIP3    H2 4009   3.018   1.005   3.074 -1.0566 -2.0845  1.9561
 1335TIP3   OH2 4010   5.171   0.910   2.587  0.1347  0.3689  0.5389
 1335TIP3    H1 4011   5.168   0.911   2.683  1.8357  0.4228  0.6203
 1335TIP3    H2 4012   5.129   0.827   2.563 -0.4981  0.4505  1.3072
 1336TIP3   OH2 4013   3.342   4.804   2.331 -0.1846 -0.1425 -0.2716
 1336TIP3    H1 4014   3.324   4.850   2.414 -0.8800 -0.8290 -0.0351
 1336TIP3    H2 4015   3.341   4.873   2.265  2.1850  0.7279  0.4890
 1337TIP3   OH2 4016   0.033   0.286   3.886 -0.2617 -0.3360  0.6573
 1337TIP3    H1 4017   0.076   0.364   3.851  0.1582 -0.5581  0.6766
 1337TIP3    H2 4018   0.087   0.213   3.856 -2.4649 -0.9635 -2.2824
 1338TIP3   OH2 4019   2.683   2.038   2.105  0.7865  0.0647  0.8087
 1338TIP3    H1 4020   2.617   2.042   2.037  1.1752  0.5294  0.4489
 1338TIP3    H2 4021   2.759   1.997   2.064  1.5863  1.7814  0.4492
 1339TIP3   OH2 4022   1.250   4.352   0.973 -0.1822  0.1123 -0.2395
 1339TIP3    H1 4023   1.339   4.361   1.007 -0.4994 -3.8224  2.2648
 1339TIP3    H2 4024   1.261   4.343   0.879  1.9963  0.3711 -0.0560
 1340TIP3   OH2 4025   1.128   4.187   4.512 -0.2511 -0.5147 -0.0402
 1340TIP3    H1 4026   1.170   4.186   4.598 -0.4092  0.5486  0.0672
 1340TIP3    H2 4027   1.162   4.110   4.467  1.3476 -0.0110  0.2633
 1341TIP3   OH2 4028   1.311   0.265   1.534 -0.1161 -0.4390  0.4781
 1341TIP3    H1 4029   1.382   0.315   1.494  0.4801  0.5225  2.5920
 1341TIP3    H2 4030   1.353   0.219   1.607 -1.3110 -1.4285  0.5703
 1342TIP3   OH2 4031   0.222   4.185   4.407 -0.4038 -0.1840 -0.4097
 1342TIP3    H1 4032   0.297   4.180   4.467 -0.0116  0.5422 -0.8318
 1342TIP3    H2 4033   0.168   4.256   4.443  0.5199  1.1924 -1.6712
 1343TIP3   OH2 4034   0.430   4.554   3.474 -0.8640  0.4438  0.1585
 1343TIP3    H1 4035   0.409   4.645   3.497 -0.1540  1.1875 -1.9108
 1343TIP3    H2 4036   0.498   4.529   3.536 -0.1482  1.7955 -0.0339
 1344TIP3   OH2 4037   4.612   3.324   2.807 -0.3643  0.6232 -0.6202
 1344TIP3    H1 4038   4.607   3.352   2.898  0.9335  1.9251 -0.9000
 1344TIP3    H2 4039   4.538   3.265   2.795 -0.4275  0.2615  1.3259
 1345TIP3   OH2 4040   6.111   5.603   4.733  0.5937  0.4618  0.2203
 1345TIP3    H1 4041   6.201   5.571   4.730  0.2391 -0.6372  0.9052
 1345TIP3    H2 4042   6.081   5.600   4.643  0.8039 -0.4785  0.1746
 1346TIP3   OH2 4043   6.342   3.727   4.627  0.0313  0.1299  0.3811
 1346TIP3    H1 4044   6.258   3.688   4.602  0.0495  0.1959  0.2131
 1346TIP3    H2 4045   6.326   3.822   4.624  0.4352  0.1755 -0.8077
 1347TIP3   OH2 4046   5.367   2.210   0.863  0.8203 -0.4430  0.0371
 1347TIP3    H1 4047   5.330   2.245   0.944  1.6582 -1.4013  0.8792
 1347TIP3    H2 4048   5.303   2.230   0.796  1.0989  2.4137  0.4796
 1348TIP3   OH2 4049   2.975   5.949   4.330 -0.4200  0.0286  0.0156
 1348TIP3    H1 4050   2.940   5.979   4.247  0.2146  0.4810 -0.0948
 1348TIP3    H2 4051   3.046   5.890   4.306  0.6185  1.1672  0.2185
 1349TIP3   OH2 4052   1.356   0.057   0.988 -0.2179 -0.4680 -0.1588
 1349TIP3    H1 4053   1.276   0.110   0.995  1.1413  1.9120 -1.5507
 1349TIP3    H2 4054   1.362   0.035   0.895  2.2142  1.9770 -0.6907
 1350TIP3   OH2 4055   5.695   1.487   3.752 -0.5038 -0.8151  0.1254
 1350TIP3    H1 4056   5.730   1.411   3.705  0.5518  0.5320 -1.3844
 1350TIP3    H2 4057   5.762   1.554   3.744 -2.4504  1.1608 -0.9514
 1351TIP3   OH2 4058   2.328   1.089   4.874 -0.0581  0.4671  0.1332
 1351TIP3    H1 4059   2.239   1.092   4.840 -0.0445 -1.4192 -0.2009
 1351TIP3    H2 4060   2.321   1.039   4.956  0.7232 -0.0439 -0.0975
 1352TIP3   OH2 4061   4.421   5.400   0.225 -0.1400 -0.6597 -0.0040
 1352TIP3    H1 4062   4.493   5.343   0.253 -0.4744 -0.3418  1.6036
 1352TIP3    H2 4063   4.348   5.340   0.211 -0.0341 -0.7933  0.0014
 1353TIP3   OH2 4064   4.344   0.364   1.922  0.4840  0.1311 -0.0421
 1353TIP3    H1 4065   4.320   0.454   1.944  0.6094  0.7876 -2.3706
 1353TIP3    H2 4066   4.282   0.339   1.854  2.1560 -0.5575 -1.3688
 1354TIP3   OH2 4067   1.225   1.090   4.714  0.7655 -0.2070 -0.2401
 1354TIP3    H1 4068   1.244   1.047   4.797  0.1912 -0.1619 -0.0798
 1354TIP3    H2 4069   1.273   1.040   4.649  0.4696 -0.8171  0.0064
 1355TIP3   OH2 4070   6.129   3.542   1.596  0.1780  0.0348  0.9820
 1355TIP3    H1 4071   6.119   3.531   1.502  1.1644 -2.2753  1.0988
 1355TIP3    H2 4072   6.047   3.585   1.624 -1.2090 -1.4494 -0.5973
 1356TIP3   OH2 4073   5.623   5.222   0.439  0.3676 -0.4381  0.0724
 1356TIP3    H1 4074   5.534   5.215   0.472 -0.1757  0.3826 -1.1504
 1356TIP3    H2 4075   5.678   5.204   0.515 -0.8341 -0.0169  1.0798
 1357TIP3   OH2 4076   1.433   2.840   4.210  0.0139  0.4197  0.9913
 1357TIP3    H1 4077   1.379   2.858   4.286  1.4047  1.2368  1.8310
 1357TIP3    H2 4078   1.504   2.904   4.215  0.5846 -0.0299 -0.5544
 1358TIP3   OH2 4079   4.003   1.460   3.619 -0.0503 -0.7969  0.1656
 1358TIP3    H1 4080   3.928   1.469   3.561 -0.1360 -1.0742  0.2325
 1358TIP3    H2 4081   4.018   1.548   3.653 -0.3873 -0.7517  0.2015
 1359TIP3   OH2 4082   5.551   3.338   0.869  0.1368  0.4682 -0.5819
 1359TIP3    H1 4083   5.521   3.356   0.958  1.9477 -0.0017  0.1791
 1359TIP3    H2 4084   5.547   3.243   0.861 -0.5791  0.5483 -1.2209
 1360TIP3   OH2 4085   5.874   1.138   3.755  0.2856 -0.1431 -0.5718
 1360TIP3    H1 4086   5.872   1.045   3.731  1.4543 -0.3144 -0.0424
 1360TIP3    H2 4087   5.841   1.183   3.677 -0.2526 -0.9954 -0.8475
 1361TIP3   OH2 4088   4.994   5.233   4.540  0.0155  0.0096  0.2961
 1361TIP3    H1 4089   5.010   5.276   4.456 -1.1727 -1.8876 -0.9684
 1361TIP3    H2 4090   4.960   5.302   4.596  1.3495  1.4450 -0.5720
 1362TIP3   OH2 4091   2.572   2.340   1.276  0.8024  0.0312 -0.2218
 1362TIP3    H1 4092   2.664   2.313   1.280  0.4567 -1.6046 -1.8658
 1362TIP3    H2 4093   2.524   2.266   1.314  0.1224  0.7936  0.4530
 1363TIP3   OH2 4094   4.411   5.454   2.918 -0.0605  0.1924  0.0153
 1363TIP3    H1 4095   4.451   5.455   2.831  0.8613  1.3056  0.4245
 1363TIP3    H2 4096   4.484   5.439   2.978 -0.9596 -2.7710  0.5296
 1364TIP3   OH2 4097   2.726   5.138   5.186  0.3875 -0.0832  0.0084
 1364TIP3    H1 4098   2.725   5.209   5.122  1.1924 -0.1551 -0.0931
 1364TIP3    H2 4099   2.758   5.062   5.138  0.2929 -0.3230  0.3150
 1365TIP3   OH2 4100   3.781   0.864   2.612 -0.0059 -0.1372 -0.3850
 1365TIP3    H1 4101   3.822   0.951   2.617 -0.8409  0.2127  0.7930
 1365TIP3    H2 4102   3.852   0.806   2.584  0.4883  0.9549 -1.4986
 1366TIP3   OH2 4103   3.510   3.618   4.774  0.2851  0.3529 -0.5423
 1366TIP3    H1 4104   3.446   3.620   4.703 -1.7265 -0.1685  1.1523
 1366TIP3    H2 4105   3.544   3.529   4.774 -3.7918 -1.4899  2.3939
 1367TIP3   OH2 4106   3.468   2.139   0.647 -0.1721 -0.0740 -0.1406
 1367TIP3    H1 4107   3.491   2.223   0.688  0.1296  0.2153 -0.8862
 1367TIP3    H2 4108   3.385   2.156   0.602  0.3780  0.1094 -1.1131
 1368TIP3   OH2 4109   2.745   2.390   2.451 -0.2133 -0.4293  0.1930
 1368TIP3    H1 4110   2.839   2.372   2.453 -0.4714 -2.0369 -0.5701
 1368TIP3    H2 4111   2.726   2.407   2.359 -0.6479  0.1032  0.3746
 1369TIP3   OH2 4112   6.028   0.779   0.566  0.2310 -0.4166 -0.6290
 1369TIP3    H1 4113   6.022   0.711   0.499  0.6916 -0.2607 -0.8320
 1369TIP3    H2 4114   5.946   0.828   0.558 -0.5675 -1.5693  0.2045
 1370TIP3   OH2 4115   1.060   2.366   0.500 -0.0117  0.0585  0.3269
 1370TIP3    H1 4116   0.988   2.303   0.501 -0.1480  0.2079  0.0291
 1370TIP3    H2 4117   1.138   2.313   0.488 -0.0039 -0.1652  1.2720
 1371TIP3   OH2 4118   4.903   1.824   4.737 -0.2416 -0.2126  0.1450
 1371TIP3    H1 4119   4.955   1.869   4.671  1.0098 -0.3714  0.9841
 1371TIP3    H2 4120   4.816   1.861   4.729  0.2445  0.8012 -0.6195
 1372TIP3   OH2 4121   4.193   4.301   3.888  0.2408 -0.6134 -0.1159
 1372TIP3    H1 4122   4.103   4.333   3.885  0.4556  0.0953  0.5955
 1372TIP3    H2 4123   4.185   4.206   3.891 -0.6013 -0.5503  2.4856
 1373TIP3   OH2 4124   0.316   2.779   2.320 -0.0588 -0.4364  0.0325
 1373TIP3    H1 4125   0.351   2.704   2.368 -0.4406 -0.8712 -0.3508
 1373TIP3    H2 4126   0.255   2.740   2.257  1.6329 -0.0519 -1.9468
 1374TIP3   OH2 4127   1.709   3.414   4.739  0.1352  0.3000  0.2510
 1374TIP3    H1 4128   1.746   3.476   4.802 -0.0585 -1.7277  2.5412
 1374TIP3    H2 4129   1.768   3.339   4.741  0.2736  0.2805 -2.2888
 1375TIP3   OH2 4130   6.119   2.749   1.957  0.0426  0.1313 -0.1447
 1375TIP3    H1 4131   6.052   2.789   1.901  0.5445 -0.8225 -1.4972
 1375TIP3    H2 4132   6.086   2.660   1.973  1.7594 -1.0227 -2.3948
 1376TIP3   OH2 4133   1.927   0.503   2.328 -0.2071  0.3123  0.1110
 1376TIP3    H1 4134   1.974   0.545   2.256  0.5066  2.6040  1.7829
 1376TIP3    H2 4135   1.977   0.423   2.346 -0.8807 -0.7566 -2.3806
 1377TIP3   OH2 4136   4.462   1.679   0.033  0.2644 -0.0752  0.1592
 1377TIP3    H1 4137   4.395   1.623   0.071 -0.1540 -0.6184 -1.3215
 1377TIP3    H2 4138   4.534   1.619   0.011  1.1490  0.4556  1.4544
 1378TIP3   OH2 4139   6.194   5.395   2.441  0.0144 -0.4511  0.5928
 1378TIP3    H1 4140   6.281   5.377   2.477 -0.0529 -0.6062  0.6766
 1378TIP3    H2 4141   6.133   5.359   2.505 -0.0951 -1.5810 -0.1242
 1379TIP3   OH2 4142   2.916   0.940   4.797  0.0479  0.1564  0.6254
 1379TIP3    H1 4143   2.827   0.911   4.782 -0.1800  0.8497  0.5887
 1379TIP3    H2 4144   2.907   1.029   4.833  0.7691  1.4845 -2.2001
 1380TIP3   OH2 4145   5.009   1.071   2.372 -0.0465 -0.0608  0.0162
 1380TIP3    H1 4146   5.087   1.072   2.427 -0.3172  0.2164  0.3953
 1380TIP3    H2 4147   4.985   1.164   2.363 -1.4862 -0.2566  1.5445
 1381TIP3   OH2 4148   2.254   0.254   5.030  0.0234 -0.0437  0.1147
 1381TIP3    H1 4149   2.298   0.174   5.059 -0.2177 -0.6027 -0.9930
 1381TIP3    H2 4150   2.179   0.263   5.090  0.3603 -0.3440  0.5837
 1382TIP3   OH2 4151   1.508   2.831   4.983 -0.3295 -0.2965  0.8728
 1382TIP3    H1 4152   1.483   2.923   4.994 -1.4859 -0.3296 -0.9566
 1382TIP3    H2 4153   1.587   2.835   4.929 -1.4065 -0.3576 -0.7927
 1383TIP3   OH2 4154   4.605   2.303   3.003  0.3507  0.9297 -0.1705
 1383TIP3    H1 4155   4.533   2.287   2.943 -0.0036  2.8761 -0.3464
 1383TIP3    H2 4156   4.683   2.310   2.947  0.6351 -0.7675 -0.0203
 1384TIP3   OH2 4157   3.771   4.111   1.470  0.5833 -0.3446 -0.1834
 1384TIP3    H1 4158   3.854   4.094   1.516  0.2775 -1.5203 -0.0409
 1384TIP3    H2 4159   3.731   4.025   1.460 -0.2836  0.1286 -0.9198
 1385TIP3   OH2 4160   0.531   4.646   0.098 -0.1511 -0.2589 -0.1751
 1385TIP3    H1 4161   0.508   4.589   0.171  0.7888 -2.4383 -1.4751
 1385TIP3    H2 4162   0.547   4.731   0.138  0.1966 -1.3331  2.1380
 1386TIP3   OH2 4163   3.786   4.565   0.274 -0.9515 -0.2221  0.1793
 1386TIP3    H1 4164   3.858   4.551   0.213 -0.4567  1.1044  0.4253
 1386TIP3    H2 4165   3.818   4.530   0.357 -0.5843  0.3814  0.2921
 1387TIP3   OH2 4166   4.212   1.942   0.317 -0.1591  0.2809 -0.8117
 1387TIP3    H1 4167   4.297   1.949   0.274 -0.2220  3.4913 -0.6501
 1387TIP3    H2 4168   4.223   1.989   0.400 -1.6258 -0.7970  0.0502
 1388TIP3   OH2 4169   1.124   5.275   5.032  0.1551 -0.5808  0.2112
 1388TIP3    H1 4170   1.204   5.234   4.999  1.4265  1.0079  1.1722
 1388TIP3    H2 4171   1.109   5.348   4.972  0.5385  0.2627  1.1177
 1389TIP3   OH2 4172   3.147   0.232   1.659  0.1965  0.0611 -0.2053
 1389TIP3    H1 4173   3.206   0.248   1.586  1.0132  0.4015  0.5168
 1389TIP3    H2 4174   3.083   0.169   1.624  0.3515  0.4900 -1.3091
 1390TIP3   OH2 4175   2.029   3.937   4.840 -0.4331  0.0343 -0.1333
 1390TIP3    H1 4176   1.960   4.000   4.863  0.3205  0.7571  0.1861
 1390TIP3    H2 4177   2.015   3.864   4.900 -0.0712  0.7958  0.9109
 1391TIP3   OH2 4178   2.339   5.606   4.068 -0.4362 -0.5479  0.4481
 1391TIP3    H1 4179   2.389   5.681   4.034 -0.9915  0.1306  1.0813
 1391TIP3    H2 4180   2.257   5.607   4.019 -1.1081  0.2439  1.5323
 1392TIP3   OH2 4181   4.139   2.541   2.455 -0.1466 -0.3665  0.3930
 1392TIP3    H1 4182   4.104   2.572   2.538 -0.0755  0.1374  0.2382
 1392TIP3    H2 4183   4.128   2.615   2.395  0.7621 -0.3557  0.2232
 1393TIP3   OH2 4184   1.446   1.427   2.701 -0.5106 -0.2660  0.3246
 1393TIP3    H1 4185   1.419   1.454   2.789 -0.3498  0.0194  0.2857
 1393TIP3    H2 4186   1.417   1.335   2.695 -1.8082  0.1307  0.1485
 1394TIP3   OH2 4187   0.565   3.331   4.149 -0.1895  0.3843 -0.1011
 1394TIP3    H1 4188   0.508   3.408   4.140  0.4841  0.7705 -1.3188
 1394TIP3    H2 4189   0.590   3.310   4.059  1.0588 -0.1780  0.3608
 1395TIP3   OH2 4190   2.037   1.398   0.550  0.6300 -0.0268 -0.1367
 1395TIP3    H1 4191   1.946   1.426   0.547  0.9070  1.1034  1.0976
 1395TIP3    H2 4192   2.088   1.479   0.544  1.5034 -0.3844  1.7332
 1396TIP3   OH2 4193   0.896   1.536   1.924 -0.2036  0.2273 -0.0991
 1396TIP3    H1 4194   0.967   1.579   1.877  1.0828 -1.5851  0.0947
 1396TIP3    H2 4195   0.851   1.484   1.857  0.2422 -0.6077  0.2404
 1397TIP3   OH2 4196   0.533   2.827   3.438  0.0286 -0.4539  0.1784
 1397TIP3    H1 4197   0.525   2.792   3.349  2.7154  0.4148 -0.5032
 1397TIP3    H2 4198   0.573   2.756   3.488 -0.0367 -0.3957  0.3130
 1398TIP3   OH2 4199   3.295   2.519   4.968  0.7305 -0.2601  0.0290
 1398TIP3    H1 4200   3.311   2.613   4.981  2.0940 -0.4311 -0.2377
 1398TIP3    H2 4201   3.222   2.499   5.026  1.4199  0.6555  1.2576
 1399TIP3   OH2 4202   4.702   0.730   4.751  0.4071 -0.4262 -0.4747
 1399TIP3    H1 4203   4.788   0.706   4.784 -0.7854 -0.3293  3.1837
 1399TIP3    H2 4204   4.719   0.792   4.680  3.3211 -0.0086  0.4838
 1400TIP3   OH2 4205   2.790   1.919   2.720 -0.1495 -0.1334 -0.1810
 1400TIP3    H1 4206   2.749   1.984   2.663  0.6218 -1.2906 -2.1785
 1400TIP3    H2 4207   2.723   1.897   2.784 -0.6623  2.0537  0.1068
 1401TIP3   OH2 4208   0.172   1.495   2.419  0.1195  0.8192  0.5359
 1401TIP3    H1 4209   0.175   1.586   2.391 -0.9326  0.9991  0.9861
 1401TIP3    H2 4210   0.201   1.446   2.342 -0.6025  1.4570 -0.1596
 1402TIP3   OH2 4211   6.213   5.352   3.297  0.2387  0.2771 -0.5570
 1402TIP3    H1 4212   6.149   5.379   3.231  0.7687 -0.0868 -1.2337
 1402TIP3    H2 4213   6.197   5.258   3.309  0.4760  0.2377 -0.5432
 1403TIP3   OH2 4214   5.934   0.507   2.074 -0.4406  0.3491 -0.4779
 1403TIP3    H1 4215   5.990   0.546   2.007 -1.5708  2.7921 -0.1169
 1403TIP3    H2 4216   5.885   0.581   2.111 -2.0588 -1.3195  0.9571
 1404TIP3   OH2 4217   3.257   2.934   0.075  0.2635  0.4662 -0.1153
 1404TIP3    H1 4218   3.265   2.896  -0.013 -1.6183 -0.6956  0.1584
 1404TIP3    H2 4219   3.253   3.029   0.060 -0.3057  0.2688 -1.3202
 1405TIP3   OH2 4220   4.749   1.820   0.054 -0.6971 -0.3340 -0.2616
 1405TIP3    H1 4221   4.725   1.867  -0.025 -0.4068  1.4700  0.6748
 1405TIP3    H2 4222   4.798   1.883   0.106  0.3355 -1.8987  0.7580
 1406TIP3   OH2 4223   2.172   0.750   1.878  0.1271 -0.0099  0.3283
 1406TIP3    H1 4224   2.248   0.761   1.822 -0.3719  1.3668 -0.1225
 1406TIP3    H2 4225   2.141   0.661   1.860  1.6157 -0.5893  0.5378
 1407TIP3   OH2 4226   0.517   4.635   4.783  0.1581 -0.2317  0.6237
 1407TIP3    H1 4227   0.444   4.675   4.830  1.1901  1.2002  1.1009
 1407TIP3    H2 4228   0.482   4.612   4.697 -0.3094  2.6655 -0.0728
 1408TIP3   OH2 4229   2.824   0.216   4.261  0.7371  0.1709  0.4092
 1408TIP3    H1 4230   2.821   0.125   4.291  1.7580  0.7269  2.3252
 1408TIP3    H2 4231   2.807   0.268   4.339 -1.6019  1.6670 -0.9652
 1409TIP3   OH2 4232   1.079   4.599   4.828 -0.2286 -0.0280 -0.4384
 1409TIP3    H1 4233   1.161   4.647   4.820 -0.4207  0.6828  1.4276
 1409TIP3    H2 4234   1.015   4.653   4.781  0.1527 -0.0403 -0.9802
 1410TIP3   OH2 4235   1.268   0.112   3.103 -0.4069  0.1299  0.2687
 1410TIP3    H1 4236   1.327   0.057   3.053 -1.3181 -0.0457 -0.6504
 1410TIP3    H2 4237   1.325   0.159   3.165  0.4484 -1.3625  0.6514
 1411TIP3   OH2 4238   0.009   0.757   1.943 -0.0357  0.1673  0.4307
 1411TIP3    H1 4239   0.067   0.684   1.921 -0.3502 -0.2780  1.0461
 1411TIP3    H2 4240   0.045   0.832   1.896  0.5136 -0.3040  0.0954
 1412TIP3   OH2 4241   5.142   4.456   2.325  0.2331  0.0471  0.1853
 1412TIP3    H1 4242   5.161   4.485   2.235 -2.1989  0.4223 -0.2759
 1412TIP3    H2 4243   5.219   4.404   2.350  1.7048  1.3005 -1.4768
 1413TIP3   OH2 4244   0.461   3.820   2.411  0.0584  0.4661 -0.2279
 1413TIP3    H1 4245   0.537   3.800   2.466 -0.1513 -0.4322 -0.2408
 1413TIP3    H2 4246   0.409   3.881   2.463 -0.0076 -0.1687  0.4708
 1414TIP3   OH2 4247   4.627   4.425   3.627 -0.1166  0.2280 -0.1778
 1414TIP3    H1 4248   4.673   4.461   3.702 -0.3559 -1.8148  1.0270
 1414TIP3    H2 4249   4.696   4.392   3.570  0.0700  1.8526 -0.9491
 1415TIP3   OH2 4250   2.432   3.631   2.582  0.2266 -0.0611  0.6891
 1415TIP3    H1 4251   2.527   3.630   2.597  0.5733  0.3898 -1.1341
 1415TIP3    H2 4252   2.402   3.713   2.620  0.1270 -1.2187  3.3061
 1416TIP3   OH2 4253   5.087   3.195   5.013  0.2616  0.6352  0.1647
 1416TIP3    H1 4254   4.993   3.179   5.027 -0.0938  1.3562 -1.2456
 1416TIP3    H2 4255   5.119   3.114   4.973  0.0665  0.6563 -0.0404
 1417TIP3   OH2 4256   2.665   0.506   1.386 -0.7682 -0.3066  0.0623
 1417TIP3    H1 4257   2.692   0.587   1.430  0.0569 -1.6340  2.1155
 1417TIP3    H2 4258   2.701   0.515   1.297  0.9873  0.7564  0.8141
 1418TIP3   OH2 4259   0.936   4.375   4.802 -0.2424 -0.0573  0.0834
 1418TIP3    H1 4260   0.852   4.420   4.812 -1.1780 -1.7100  0.0371
 1418TIP3    H2 4261   1.001   4.442   4.823 -1.5371  1.3804 -0.2678
 1419TIP3   OH2 4262   5.504   1.299   2.903 -0.6925  0.6879  0.1085
 1419TIP3    H1 4263   5.453   1.380   2.909 -0.4134  0.7694  2.3295
 1419TIP3    H2 4264   5.589   1.328   2.869 -0.6732  1.3202  0.6613
 1420TIP3   OH2 4265   3.545   1.181   4.536 -0.0154  0.1547 -0.6124
 1420TIP3    H1 4266   3.525   1.100   4.583  2.4573 -0.6257 -0.7536
 1420TIP3    H2 4267   3.528   1.251   4.599 -1.1937 -0.5302 -0.1493
 1421TIP3   OH2 4268   4.194   0.937   4.608 -0.5444 -0.6140 -0.1068
 1421TIP3    H1 4269   4.128   0.873   4.580 -1.4601 -0.3247  1.2986
 1421TIP3    H2 4270   4.248   0.950   4.530 -3.9688  1.4883 -2.4189
 1422TIP3   OH2 4271   5.404   3.888   4.135  0.1233  0.7158  0.0457
 1422TIP3    H1 4272   5.317   3.897   4.095  0.1627  2.7035  0.3347
 1422TIP3    H2 4273   5.388   3.900   4.228  0.5314 -0.4081  0.2746
 1423TIP3   OH2 4274   1.021   5.363   2.447  1.2890  0.6092  0.0090
 1423TIP3    H1 4275   1.043   5.295   2.384  1.0288 -0.5796  1.1756
 1423TIP3    H2 4276   1.047   5.445   2.403 -1.3355  0.1226 -2.7830
 1424TIP3   OH2 4277   3.046   2.678   2.417  0.2524  0.1660 -0.5976
 1424TIP3    H1 4278   3.064   2.613   2.485 -1.7471 -0.1872 -0.3670
 1424TIP3    H2 4279   3.132   2.714   2.396  1.0036 -0.0515  1.7719
 1425TIP3   OH2 4280   1.809   4.983   0.361  0.5346  0.7835 -0.1171
 1425TIP3    H1 4281   1.846   4.942   0.440  1.8292 -0.1971 -1.1761
 1425TIP3    H2 4282   1.714   4.972   0.370  0.7708 -1.3180  0.2787
 1426TIP3   OH2 4283   3.264   5.607   4.114 -0.2488 -0.1501  0.4787
 1426TIP3    H1 4284   3.350   5.579   4.143  0.3106 -0.8298 -1.6263
 1426TIP3    H2 4285   3.254   5.696   4.149  1.6428  0.2279  0.1276
 1427TIP3   OH2 4286   2.626   4.585   1.491  0.6990  0.3271  0.1992
 1427TIP3    H1 4287   2.562   4.523   1.524  1.5835 -0.0733  1.2458
 1427TIP3    H2 4288   2.627   4.655   1.556  3.3167 -1.0336  1.8300
 1428TIP3   OH2 4289   2.609   4.492   0.535  0.4877 -0.1994  0.5472
 1428TIP3    H1 4290   2.688   4.492   0.589  1.8569 -1.3614 -1.3211
 1428TIP3    H2 4291   2.560   4.415   0.564  1.3003 -0.9200  0.0375
 1429TIP3   OH2 4292   4.827   3.966  -0.010 -0.1402 -0.0480 -0.3828
 1429TIP3    H1 4293   4.817   3.914   0.070  0.9334 -1.7129 -1.2798
 1429TIP3    H2 4294   4.877   4.043   0.019  1.0425 -1.0598  0.4226
 1430TIP3   OH2 4295   5.153   1.927   2.398 -0.0880 -0.4327  0.0580
 1430TIP3    H1 4296   5.147   1.972   2.313 -0.7583  0.5514  0.6019
 1430TIP3    H2 4297   5.238   1.884   2.397  0.7040  1.0792 -0.3915
 1431TIP3   OH2 4298   1.210   4.901   4.772  0.0003  0.3883 -0.2861
 1431TIP3    H1 4299   1.143   4.850   4.727  0.6679  0.2230 -1.1241
 1431TIP3    H2 4300   1.261   4.941   4.702  0.6117  0.7323  0.3380
 1432TIP3   OH2 4301   2.079   2.451   2.421  0.0996  0.3925  0.1429
 1432TIP3    H1 4302   2.146   2.469   2.355 -0.1011  1.3461  0.1709
 1432TIP3    H2 4303   2.080   2.356   2.432  1.2585  0.3639 -0.0513
 1433TIP3   OH2 4304   2.649   3.248   2.541 -0.0154 -0.5439 -0.1408
 1433TIP3    H1 4305   2.614   3.167   2.505 -0.7585 -0.5970  0.6601
 1433TIP3    H2 4306   2.634   3.313   2.472 -0.9286 -0.7504 -0.1557
 1434TIP3   OH2 4307   6.312   5.882   0.082 -0.3893  0.0854  0.3052
 1434TIP3    H1 4308   6.352   5.846   0.002  0.9869 -0.5105  1.2251
 1434TIP3    H2 4309   6.224   5.908   0.054  0.0825 -0.0026 -1.4297
 1435TIP3   OH2 4310   4.276   2.401   2.249  0.0016 -0.1368  0.3966
 1435TIP3    H1 4311   4.189   2.374   2.278  0.0783  0.3071  1.0845
 1435TIP3    H2 4312   4.291   2.484   2.295  0.4984  0.1429 -0.2650
 1436TIP3   OH2 4313   2.521   1.802   4.720 -0.2039 -0.3205 -0.4271
 1436TIP3    H1 4314   2.435   1.760   4.721  0.3695 -1.6089 -1.8357
 1436TIP3    H2 4315   2.558   1.779   4.635  0.9853  1.3792 -0.4038
 1437TIP3   OH2 4316   4.760   0.377   4.892 -0.2023  0.1316 -0.0634
 1437TIP3    H1 4317   4.672   0.385   4.854  0.1904  0.4882 -0.9188
 1437TIP3    H2 4318   4.819   0.400   4.820  0.5298  3.9908  1.5346
 1438TIP3   OH2 4319   2.805   2.048   5.007 -0.1539  0.0639 -0.1914
 1438TIP3    H1 4320   2.716   2.057   4.973 -1.8190 -2.6249  2.9983
 1438TIP3    H2 4321   2.805   2.099   5.088  1.5247  0.6120 -0.4904
 1439TIP3   OH2 4322   5.780   4.775   5.097 -0.1813  0.0889 -0.0196
 1439TIP3    H1 4323   5.720   4.762   5.170 -2.2966  0.0165 -1.6697
 1439TIP3    H2 4324   5.766   4.699   5.040 -0.0321  1.0665 -1.4254
 1440TIP3   OH2 4325   4.209   4.733   1.747 -0.1799  0.2881 -0.2122
 1440TIP3    H1 4326   4.213   4.638   1.755 -0.8925  0.0065 -2.3946
 1440TIP3    H2 4327   4.300   4.761   1.755  0.3857 -0.8743 -1.8859
 1441TIP3   OH2 4328   0.682   4.397   1.299  0.6786 -0.0599 -0.3793
 1441TIP3    H1 4329   0.660   4.470   1.357 -0.2337  0.8593 -1.8155
 1441TIP3    H2 4330   0.607   4.389   1.240  1.2156 -1.4966 -0.9191
 1442TIP3   OH2 4331   6.157   1.371   1.918 -0.2145  0.3553  0.6116
 1442TIP3    H1 4332   6.252   1.376   1.932 -0.3332  0.3204  1.5333
 1442TIP3    H2 4333   6.140   1.277   1.907 -0.0064  0.4604 -0.6830
 1443TIP3   OH2 4334   0.656   1.230   3.994  0.1267 -0.6777  0.1277
 1443TIP3    H1 4335   0.570   1.230   4.037  0.2260  0.1320  0.3315
 1443TIP3    H2 4336   0.636   1.212   3.902 -0.6423  2.8560 -0.5269
 1444TIP3   OH2 4337   1.849   2.105   1.686  0.2958  0.0908  0.7437
 1444TIP3    H1 4338   1.862   2.063   1.771  2.1968 -0.4087  0.2592
 1444TIP3    H2 4339   1.936   2.134   1.660 -0.6295  2.5360  0.0864
 1445TIP3   OH2 4340   3.317   5.129   0.727  0.3202 -0.2159 -0.0310
 1445TIP3    H1 4341   3.268   5.204   0.760 -1.4437 -0.8724 -1.0273
 1445TIP3    H2 4342   3.405   5.139   0.765 -0.9902  0.0655  3.2972
 1446TIP3   OH2 4343   0.181   5.635   1.351  0.0614  0.4545  0.4175
 1446TIP3    H1 4344   0.168   5.604   1.261 -0.8085  1.8418  0.0283
 1446TIP3    H2 4345   0.199   5.556   1.401 -2.1192 -0.7118 -0.5091
 1447TIP3   OH2 4346   5.431   2.510   1.688 -0.1746 -0.1789  0.5681
 1447TIP3    H1 4347   5.517   2.552   1.698 -0.8934  1.4202  0.4734
 1447TIP3    H2 4348   5.373   2.564   1.742 -1.5396  0.2108 -1.2036
 1448TIP3   OH2 4349   0.414   1.003   1.117 -0.0249  0.3007  1.0636
 1448TIP3    H1 4350   0.385   1.076   1.063 -2.4881 -0.0202  1.8346
 1448TIP3    H2 4351   0.480   0.959   1.063  0.0048  1.8668 -0.2751
 1449TIP3   OH2 4352   2.816   1.412   3.992 -0.1955  0.2654  0.6824
 1449TIP3    H1 4353   2.825   1.507   3.984  1.7513  0.4778  3.8689
 1449TIP3    H2 4354   2.722   1.396   3.980 -0.7409  2.7030  1.1025
 1450TIP3   OH2 4355   2.674   4.072   0.669 -0.5557  0.8082  0.3744
 1450TIP3    H1 4356   2.687   3.988   0.624 -0.1281  0.3142  1.3728
 1450TIP3    H2 4357   2.633   4.047   0.752 -1.2171  1.6822  0.3183
 1451TIP3   OH2 4358   5.654   0.488   1.076  0.4132  0.4767 -0.2230
 1451TIP3    H1 4359   5.600   0.448   1.009 -0.6661 -0.4763  1.1676
 1451TIP3    H2 4360   5.711   0.418   1.108  0.8647  0.8968 -0.0752
 1452TIP3   OH2 4361   1.634   3.436   1.298  0.5003  0.0715  0.3922
 1452TIP3    H1 4362   1.618   3.488   1.377  0.9669  0.1026  0.4715
 1452TIP3    H2 4363   1.547   3.411   1.268  0.3525 -1.2032  1.7573
 1453TIP3   OH2 4364   1.979   5.317   2.361  0.2277  0.2517 -0.5548
 1453TIP3    H1 4365   1.936   5.239   2.397  0.4895  0.1986 -0.3515
 1453TIP3    H2 4366   2.049   5.282   2.306  1.2925  0.3359  0.6930
 1454TIP3   OH2 4367   3.464   0.226   4.764  0.3144 -0.1742 -0.1294
 1454TIP3    H1 4368   3.403   0.230   4.690  0.4526  1.6196 -0.1904
 1454TIP3    H2 4369   3.540   0.275   4.734  0.4784  0.3522  1.1054
 1455TIP3   OH2 4370   0.872   5.006   2.156 -0.2417 -0.0079 -0.2287
 1455TIP3    H1 4371   0.850   4.959   2.237 -1.0695  2.3299  1.0130
 1455TIP3    H2 4372   0.804   5.072   2.148  1.1326  1.3256 -1.5623
 1456TIP3   OH2 4373   6.261   2.225   3.789 -0.0577 -0.0179 -0.0508
 1456TIP3    H1 4374   6.256   2.133   3.816 -1.9445  0.4149  1.2840
 1456TIP3    H2 4375   6.336   2.260   3.837  1.8965 -1.2468 -2.0441
 1457TIP3   OH2 4376   6.138   2.001   0.569  0.2426  0.2648  0.4539
 1457TIP3    H1 4377   6.157   1.986   0.662 -0.0489  2.0761  0.8509
 1457TIP3    H2 4378   6.206   1.953   0.523 -0.0352 -1.2693  1.5712
 1458TIP3   OH2 4379   1.504   0.580   1.648 -0.0571  0.3525  0.0879
 1458TIP3    H1 4380   1.449   0.545   1.719 -0.3985  1.1758  0.2440
 1458TIP3    H2 4381   1.513   0.507   1.587  0.1205 -0.3280  0.9044
 1459TIP3   OH2 4382   2.751   4.136   3.844  0.0785  0.0539  0.2344
 1459TIP3    H1 4383   2.753   4.099   3.932  3.7613  1.4358  0.9007
 1459TIP3    H2 4384   2.790   4.067   3.789 -1.7181 -0.5930 -0.2948
 1460TIP3   OH2 4385   1.960   2.488   2.993  0.0764 -0.2850  0.4412
 1460TIP3    H1 4386   1.954   2.524   2.905 -1.9746  0.6019  0.8688
 1460TIP3    H2 4387   2.027   2.541   3.036  0.1270  0.1885 -0.1944
 1461TIP3   OH2 4388   5.794   0.920   1.460 -0.1214 -0.0461 -0.3323
 1461TIP3    H1 4389   5.709   0.940   1.423 -0.6798  0.4118  1.1220
 1461TIP3    H2 4390   5.846   0.887   1.387 -1.2094  0.6728 -1.4499
 1462TIP3   OH2 4391   1.771   0.190   2.502  0.1356  0.2483 -0.3373
 1462TIP3    H1 4392   1.690   0.236   2.481 -0.7551 -0.7501  0.7834
 1462TIP3    H2 4393   1.775   0.118   2.440 -0.4982 -0.4296  0.3873
 1463TIP3   OH2 4394   3.065   3.473   2.329  0.2091  0.1284 -0.0756
 1463TIP3    H1 4395   3.147   3.500   2.287  0.1543 -0.5757 -0.6606
 1463TIP3    H2 4396   2.997   3.514   2.276  0.1520 -0.3837 -0.4020
 1464TIP3   OH2 4397   2.016   5.531   4.341 -0.0600  0.2376 -0.2813
 1464TIP3    H1 4398   2.078   5.525   4.414 -0.8820 -0.0355  0.4076
 1464TIP3    H2 4399   2.021   5.623   4.314 -0.2118  0.5018  0.5435
 1465TIP3   OH2 4400   2.624   1.639   4.486 -0.0157  0.1929  0.0222
 1465TIP3    H1 4401   2.710   1.604   4.508  0.9809  1.0726 -2.1677
 1465TIP3    H2 4402   2.583   1.571   4.432 -1.1435 -0.6289  1.8282
 1466TIP3   OH2 4403   4.268   1.273   4.038  0.1407  0.3719  0.0574
 1466TIP3    H1 4404   4.209   1.199   4.019  1.1408 -0.1764 -1.0171
 1466TIP3    H2 4405   4.245   1.340   3.974  2.2863 -0.7894 -2.0947
 1467TIP3   OH2 4406   0.922   2.096   0.184  0.0325  0.3643  0.0528
 1467TIP3    H1 4407   0.915   2.100   0.089  0.2383 -0.1303  0.0185
 1467TIP3    H2 4408   1.011   2.125   0.203 -0.2134  1.1088  0.1448
 1468TIP3   OH2 4409   4.926   2.219   1.699  0.2173  0.2923  0.4904
 1468TIP3    H1 4410   4.836   2.188   1.694 -0.4280  2.0184  0.5420
 1468TIP3    H2 4411   4.975   2.160   1.642 -0.7615 -1.2327  1.1752
 1469TIP3   OH2 4412   1.747   5.405   2.537 -0.1451  0.1656 -0.4829
 1469TIP3    H1 4413   1.715   5.329   2.488 -0.2039  0.2749 -0.6128
 1469TIP3    H2 4414   1.745   5.477   2.474  2.2307 -0.2179 -1.0908
 1470TIP3   OH2 4415   2.589   1.349   4.666  0.0117  0.1361  0.0175
 1470TIP3    H1 4416   2.567   1.264   4.627  1.5833 -0.0608 -0.5151
 1470TIP3    H2 4417   2.509   1.377   4.710 -0.5321 -1.6332  0.2167
 1471TIP3   OH2 4418   1.759   4.354   1.276 -0.3443  0.2207  0.0003
 1471TIP3    H1 4419   1.673   4.359   1.233 -0.2819  1.1111 -0.0395
 1471TIP3    H2 4420   1.752   4.281   1.336 -0.0470 -1.9353 -2.3925
 1472TIP3   OH2 4421   1.326   5.484   2.267  0.3455 -0.0530  0.1681
 1472TIP3    H1 4422   1.295   5.539   2.195  1.8939 -0.4451 -0.8591
 1472TIP3    H2 4423   1.273   5.510   2.342 -0.6560  1.0642 -0.8828
 1473TIP3   OH2 4424   5.339   5.375   2.395 -0.5383 -0.6403 -0.8723
 1473TIP3    H1 4425   5.285   5.379   2.474 -0.2688  4.0041 -0.6069
 1473TIP3    H2 4426   5.282   5.339   2.328 -1.4367 -2.7748  0.9383
 1474TIP3   OH2 4427   3.315   5.966   3.927  0.6169 -0.1828  0.2013
 1474TIP3    H1 4428   3.220   5.972   3.928  0.6472  0.4482  1.4910
 1474TIP3    H2 4429   3.334   5.887   3.876 -0.6020 -0.5046  0.2296
 1475TIP3   OH2 4430   3.725   5.234   1.691 -0.3274 -0.6475  0.1320
 1475TIP3    H1 4431   3.689   5.146   1.695 -0.9315 -0.5356 -1.6463
 1475TIP3    H2 4432   3.767   5.239   1.605 -0.3293  0.7914  0.1891
 1476TIP3   OH2 4433   1.140   4.708   2.459  0.6669 -0.1060 -0.9391
 1476TIP3    H1 4434   1.225   4.721   2.417  0.6754 -1.0912 -1.2593
 1476TIP3    H2 4435   1.080   4.689   2.387  0.4837 -0.8600 -0.5984
 1477TIP3   OH2 4436   0.562   2.272   0.681  0.1325 -0.2886 -0.5781
 1477TIP3    H1 4437   0.654   2.246   0.686 -0.0133 -0.6917  0.1156
 1477TIP3    H2 4438   0.560   2.358   0.723  0.0013 -0.8137  0.5302
 1478TIP3   OH2 4439   4.366   1.700   2.154  0.2048 -0.4753  0.4460
 1478TIP3    H1 4440   4.447   1.694   2.204  0.4050 -2.5667 -0.0189
 1478TIP3    H2 4441   4.379   1.776   2.097  2.4783 -1.5702 -0.6280
 1479TIP3   OH2 4442   0.393   0.763   1.614 -0.0963  0.0569  0.3617
 1479TIP3    H1 4443   0.342   0.844   1.614 -2.5782 -1.3995 -0.7090
 1479TIP3    H2 4444   0.482   0.791   1.593 -1.0589  2.4083 -1.0132
 1480TIP3   OH2 4445   0.145   5.137   3.404 -0.0993 -0.2760  0.3375
 1480TIP3    H1 4446   0.084   5.114   3.333  0.5468 -0.4739 -0.1593
 1480TIP3    H2 4447   0.088   5.165   3.476 -0.8643 -2.1061  0.4979
 1481TIP3   OH2 4448   1.332   0.104   4.175 -0.7890 -0.0537  0.5552
 1481TIP3    H1 4449   1.362   0.114   4.265 -1.1848 -0.2711  0.7155
 1481TIP3    H2 4450   1.308   0.192   4.147 -1.1711 -0.0654  0.8443
 1482TIP3   OH2 4451   5.332   4.023   0.877 -0.3753 -0.0860  0.1962
 1482TIP3    H1 4452   5.308   4.032   0.785  0.7357 -0.4934 -0.1371
 1482TIP3    H2 4453   5.343   4.113   0.908 -1.4616  0.0832  0.1406
 1483TIP3   OH2 4454   3.853   5.461   2.024  0.0374 -0.2116  0.0183
 1483TIP3    H1 4455   3.926   5.474   1.964 -0.4185  0.6699 -0.3643
 1483TIP3    H2 4456   3.777   5.495   1.977 -0.0933  1.9714  1.6243
 1484TIP3   OH2 4457   5.822   3.889   4.338  0.2348 -0.7027 -0.3994
 1484TIP3    H1 4458   5.748   3.851   4.291 -0.9690  1.1035 -0.0414
 1484TIP3    H2 4459   5.800   3.880   4.430  0.2806  0.1640 -0.2964
 1485TIP3   OH2 4460   1.897   1.665   5.127 -0.1571 -0.4670 -0.0504
 1485TIP3    H1 4461   1.870   1.755   5.109 -1.8422 -1.1320 -1.0880
 1485TIP3    H2 4462   1.993   1.669   5.132  0.0747  0.8781 -3.2648
 1486TIP3   OH2 4463   1.444   0.963   0.419 -0.5284  0.3017  0.4281
 1486TIP3    H1 4464   1.405   1.036   0.467 -0.6089 -0.7515  2.0631
 1486TIP3    H2 4465   1.523   0.941   0.468 -0.2467 -0.4026 -0.3026
 1487TIP3   OH2 4466   5.145   1.536   2.795 -0.7337 -0.3146  0.7601
 1487TIP3    H1 4467   5.085   1.599   2.755  0.0820  1.7762  2.6242
 1487TIP3    H2 4468   5.199   1.504   2.722 -2.2211 -0.1044 -0.4794
 1488TIP3   OH2 4469   1.384   4.054   1.979 -0.1077 -0.2345 -0.3623
 1488TIP3    H1 4470   1.294   4.035   1.952 -0.3432  0.1370  0.1345
 1488TIP3    H2 4471   1.427   3.969   1.983 -0.6398 -0.4826  0.0985
 1489TIP3   OH2 4472   4.972   2.179   2.846  0.0058 -0.3725  0.2872
 1489TIP3    H1 4473   4.976   2.085   2.864  0.8341 -0.2253  0.9256
 1489TIP3    H2 4474   4.913   2.187   2.771 -1.3518 -1.2453  1.2259
 1490TIP3   OH2 4475   2.167   0.244   4.770  0.0231  0.1848  0.2149
 1490TIP3    H1 4476   2.183   0.257   4.864  1.4899  1.6662 -0.1959
 1490TIP3    H2 4477   2.236   0.184   4.742  0.3863  0.7749 -0.1621
 1491TIP3   OH2 4478   2.052   3.785   2.455  0.2286  0.4594  0.2238
 1491TIP3    H1 4479   2.108   3.710   2.436  0.3204  0.9768 -1.8644
 1491TIP3    H2 4480   1.964   3.757   2.431  0.1048  0.6761  0.4179
 1492TIP3   OH2 4481   1.781   0.165   2.833  0.1082 -0.2622 -0.4608
 1492TIP3    H1 4482   1.697   0.143   2.791 -0.7588  1.4904  0.2302
 1492TIP3    H2 4483   1.846   0.149   2.765 -0.8041 -1.3986 -1.1204
 1493TIP3   OH2 4484   2.348   2.518   4.838 -0.7352 -0.0870 -0.2947
 1493TIP3    H1 4485   2.389   2.591   4.791 -1.3733  0.1347 -0.5082
 1493TIP3    H2 4486   2.375   2.531   4.929  1.6097 -1.2554 -0.7335
 1494TIP3   OH2 4487   3.594   0.947   3.184 -0.3281 -0.9610 -0.3866
 1494TIP3    H1 4488   3.646   0.971   3.261  0.2301  1.7233 -1.5078
 1494TIP3    H2 4489   3.597   0.851   3.183  0.0599 -1.1004  2.6049
 1495TIP3   OH2 4490   0.591   5.705   0.836 -0.6385  0.1122 -0.1151
 1495TIP3    H1 4491   0.549   5.683   0.919 -1.0568  0.3970 -0.2495
 1495TIP3    H2 4492   0.662   5.764   0.860 -0.1226 -0.6023  0.1447
 1496TIP3   OH2 4493   0.456   5.696   5.150 -0.6277 -0.1545 -0.5532
 1496TIP3    H1 4494   0.499   5.714   5.234 -2.0131  1.3818 -0.1381
 1496TIP3    H2 4495   0.372   5.657   5.174 -1.1358  0.5200 -1.2029
 1497TIP3   OH2 4496   6.215   1.577   4.051 -0.7024  0.4376 -0.4928
 1497TIP3    H1 4497   6.300   1.575   4.005 -0.4220 -0.5539  0.0391
 1497TIP3    H2 4498   6.224   1.648   4.114 -0.1658  0.1811 -0.2722
 1498TIP3   OH2 4499   6.118   1.747   1.149 -0.1210 -0.0132 -0.1501
 1498TIP3    H1 4500   6.100   1.764   1.057 -0.8018  0.6335  0.0901
 1498TIP3    H2 4501   6.053   1.800   1.197  0.1901 -0.3686  0.6962
 1499TIP3   OH2 4502   5.077   3.337   2.899  0.0484  0.1542 -0.3339
 1499TIP3    H1 4503   5.062   3.260   2.844 -1.6722  0.9705 -1.0568
 1499TIP3    H2 4504   5.104   3.406   2.838 -0.5034  0.6932  0.0140
 1500TIP3   OH2 4505   4.445   3.853   4.871 -0.1712 -0.8762  0.1335
 1500TIP3    H1 4506   4.521   3.835   4.816 -0.3101 -0.3072 -0.2424
 1500TIP3    H2 4507   4.417   3.941   4.847 -0.0900 -0.5199  1.2808
 1501TIP3   OH2 4508   3.226   1.195   4.783  0.1886  0.0295  0.8004
 1501TIP3    H1 4509   3.262   1.148   4.858  1.4665  1.0027  0.8321
 1501TIP3    H2 4510   3.302   1.237   4.743 -0.5016 -0.2762 -0.9101
 1502TIP3   OH2 4511   5.700   5.371   5.110  0.1736 -0.0353 -0.3703
 1502TIP3    H1 4512   5.746   5.454   5.101 -1.0976  0.7690  0.2594
 1502TIP3    H2 4513   5.767   5.309   5.137  1.0294  0.9241 -0.2314
 1503TIP3   OH2 4514   1.425   5.321   1.844 -0.6574 -0.5441 -0.3117
 1503TIP3    H1 4515   1.514   5.323   1.880 -0.0026 -0.6812 -1.8381
 1503TIP3    H2 4516   1.379   5.257   1.898  0.4285 -1.1267 -0.0393
 1504TIP3   OH2 4517   0.417   5.156   0.801 -0.1047  0.4414 -0.1273
 1504TIP3    H1 4518   0.355   5.205   0.856  0.1280  0.8186 -0.2011
 1504TIP3    H2 4519   0.366   5.084   0.766 -0.3452  0.3923  0.3176
 1505TIP3   OH2 4520   4.759   5.468   0.100 -0.1131  0.0736  0.0454
 1505TIP3    H1 4521   4.816   5.400   0.064  0.6448  0.2529  0.8720
 1505TIP3    H2 4522   4.671   5.433   0.091  0.2343 -0.8151  0.0241
 1506TIP3   OH2 4523   0.175   0.523   2.072  0.0583  0.1500  0.0277
 1506TIP3    H1 4524   0.232   0.466   2.020  0.3127  1.1254 -0.7904
 1506TIP3    H2 4525   0.087   0.504   2.040  0.0498 -0.3735  0.3427
 1507TIP3   OH2 4526   1.207   0.496   0.928  0.4135 -0.0258 -0.1684
 1507TIP3    H1 4527   1.233   0.503   1.020  0.2435 -0.3981 -0.0926
 1507TIP3    H2 4528   1.149   0.571   0.914 -2.3805 -1.8495  0.9750
 1508TIP3   OH2 4529   1.151   0.171   0.478  0.6653  0.5607  0.1589
 1508TIP3    H1 4530   1.093   0.247   0.474  1.1238  0.9559  0.7691
 1508TIP3    H2 4531   1.158   0.151   0.572 -0.3808 -0.9769 -0.0587
 1509TIP3   OH2 4532   2.636   5.996   5.067  0.2024 -0.0765 -0.0505
 1509TIP3    H1 4533   2.723   6.012   5.106  1.1842 -0.0846 -2.1088
 1509TIP3    H2 4534   2.607   5.914   5.106  0.7487  0.3124  1.2495
 1510TIP3   OH2 4535   2.908   2.837   0.187  0.0473 -0.0167  0.1131
 1510TIP3    H1 4536   2.970   2.888   0.240 -0.2392 -0.0385  0.4692
 1510TIP3    H2 4537   2.933   2.857   0.096  1.1956 -0.7618  0.2400
 1511TIP3   OH2 4538   2.575   1.033   4.152 -0.2482  0.0419 -0.1662
 1511TIP3    H1 4539   2.617   1.118   4.166 -0.8615  0.1613  1.0669
 1511TIP3    H2 4540   2.598   1.010   4.062  2.5382  0.0431  0.4656
 1512TIP3   OH2 4541   0.244   1.250   1.064 -0.0491  0.9352 -0.2546
 1512TIP3    H1 4542   0.180   1.293   1.007  0.0249  0.0055 -1.0554
 1512TIP3    H2 4543   0.320   1.308   1.063  0.1197  0.7107 -1.4695
 1513TIP3   OH2 4544   1.797   3.135   3.309  0.1274 -0.3177 -0.0630
 1513TIP3    H1 4545   1.767   3.052   3.347  0.7813  0.2250  1.7796
 1513TIP3    H2 4546   1.718   3.189   3.304  0.3085  0.3859  2.8169
 1514TIP3   OH2 4547   3.075   1.305   3.103 -0.5145 -0.0105  0.2279
 1514TIP3    H1 4548   3.138   1.345   3.163 -1.6366  1.9690  0.1858
 1514TIP3    H2 4549   3.108   1.328   3.016 -0.0113 -1.0678  0.1323
 1515TIP3   OH2 4550   2.106   2.606   0.334  0.1516  0.1916  0.3620
 1515TIP3    H1 4551   2.158   2.594   0.413 -0.1496 -0.3137  0.4884
 1515TIP3    H2 4552   2.029   2.655   0.363  0.2613  0.4084  0.2910
 1516TIP3   OH2 4553   4.139   2.174   4.705 -0.2330  0.2369  0.1452
 1516TIP3    H1 4554   4.174   2.087   4.726  0.2349  0.5622  0.7129
 1516TIP3    H2 4555   4.185   2.234   4.764 -1.0474  0.7916  0.2226
 1517TIP3   OH2 4556   5.275   1.320   4.450  0.1518  0.2986 -0.1012
 1517TIP3    H1 4557   5.317   1.391   4.402 -0.7257  1.4180  0.7333
 1517TIP3    H2 4558   5.181   1.333   4.435 -0.0843  0.0923  1.0954
 1518TIP3   OH2 4559   6.040   3.080   0.919 -0.2400  0.0048 -0.2363
 1518TIP3    H1 4560   6.115   3.133   0.892 -1.1473  0.7562 -1.4240
 1518TIP3    H2 4561   6.078   3.003   0.961  1.1758  0.4064 -0.7292
 1519TIP3   OH2 4562   4.255   2.061   4.014 -0.8415  0.2752  0.0633
 1519TIP3    H1 4563   4.178   2.117   4.017 -2.3638 -1.6066 -1.4977
 1519TIP3    H2 4564   4.246   2.004   4.090 -0.5508  0.5602  0.3165
 1520TIP3   OH2 4565   3.821   1.856   2.821  0.0423  0.0658 -0.3162
 1520TIP3    H1 4566   3.801   1.936   2.869 -1.5130  2.2505 -4.1891
 1520TIP3    H2 4567   3.916   1.851   2.819  0.1532  0.7054  1.5357
 1521TIP3   OH2 4568   2.857   0.393   1.180 -0.6005 -0.3914 -0.3061
 1521TIP3    H1 4569   2.920   0.352   1.120  0.5603  3.2494 -1.8448
 1521TIP3    H2 4570   2.910   0.447   1.237 -2.1177  0.1494  0.6387
 1522TIP3   OH2 4571   0.779   0.925   4.789  0.1128 -0.2143  0.5358
 1522TIP3    H1 4572   0.803   0.920   4.696  1.3640  0.0097  0.8405
 1522TIP3    H2 4573   0.692   0.965   4.788 -0.5872 -1.6475 -0.6232
 1523TIP3   OH2 4574   3.438   5.777   5.140  0.2547  0.1997  0.0963
 1523TIP3    H1 4575   3.475   5.864   5.129  1.0546 -0.0176  0.9035
 1523TIP3    H2 4576   3.383   5.783   5.218 -1.3163  0.4689 -0.9822
 1524TIP3   OH2 4577   4.972   2.701   1.883  0.1812 -0.1143 -0.1516
 1524TIP3    H1 4578   5.034   2.630   1.869 -0.5860 -0.4327 -2.3006
 1524TIP3    H2 4579   5.026   2.775   1.910  1.1099 -1.1899  1.0934
 1525TIP3   OH2 4580   4.021   4.028   1.050  0.0837 -0.1366  0.1799
 1525TIP3    H1 4581   4.103   4.061   1.089 -0.7279 -0.0686  1.9604
 1525TIP3    H2 4582   3.956   4.094   1.075 -0.9654 -1.4436  1.0091
 1526TIP3   OH2 4583   4.357   0.118   2.887 -0.3166 -0.0686  0.2186
 1526TIP3    H1 4584   4.307   0.197   2.866 -0.1600 -0.1653 -0.5463
 1526TIP3    H2 4585   4.421   0.147   2.952 -1.3687  0.0495  1.2470
 1527TIP3   OH2 4586   5.820   2.504   2.507 -0.0639  0.1450 -0.1692
 1527TIP3    H1 4587   5.795   2.421   2.550 -0.8282  0.5358  0.1592
 1527TIP3    H2 4588   5.848   2.478   2.419  1.5056 -0.6745  0.5226
 1528TIP3   OH2 4589   3.916   5.902   0.064  0.3375 -0.0326  0.2682
 1528TIP3    H1 4590   3.878   5.989   0.057 -0.4284 -0.3064  0.9262
 1528TIP3    H2 4591   4.003   5.910   0.023 -0.4828  0.5480 -1.4489
 1529TIP3   OH2 4592   0.871   2.709   1.415  0.4671 -0.2586  0.2667
 1529TIP3    H1 4593   0.953   2.665   1.394  0.1781 -1.1529  0.9499
 1529TIP3    H2 4594   0.869   2.712   1.511  0.0767  0.4795  0.2440
 1530TIP3   OH2 4595   2.332   5.613   3.660  0.2368  0.3044  0.0767
 1530TIP3    H1 4596   2.392   5.616   3.736 -0.9560  0.0068  1.0568
 1530TIP3    H2 4597   2.390   5.603   3.585  1.4914  1.0332  0.9022
 1531TIP3   OH2 4598   2.310   5.060   2.491 -0.0575 -0.2189 -0.7113
 1531TIP3    H1 4599   2.283   4.971   2.512  1.5611 -0.5917 -0.0396
 1531TIP3    H2 4600   2.330   5.100   2.576 -1.1550  0.9371 -0.9674
 1532TIP3   OH2 4601   2.064   0.681   0.654 -0.2692 -0.2100 -0.2429
 1532TIP3    H1 4602   2.041   0.636   0.572 -1.5133 -3.2277  1.5983
 1532TIP3    H2 4603   1.983   0.682   0.705  0.5972  1.1155  1.2067
 1533TIP3   OH2 4604   3.554   0.520   4.302 -0.6195 -0.3272  0.4526
 1533TIP3    H1 4605   3.614   0.504   4.229  0.0589 -2.8775  1.4629
 1533TIP3    H2 4606   3.468   0.497   4.267 -0.2842 -1.6436  0.4331
 1534TIP3   OH2 4607   3.678   3.792   3.377 -0.5377 -0.1796  0.3899
 1534TIP3    H1 4608   3.700   3.749   3.294  1.7131  1.8647 -0.1789
 1534TIP3    H2 4609   3.720   3.737   3.444  0.1111 -0.2907 -0.0974
 1535TIP3   OH2 4610   4.620   5.447   3.912  0.1906 -0.3330  0.1931
 1535TIP3    H1 4611   4.547   5.434   3.851  0.7901 -0.4390 -0.5161
 1535TIP3    H2 4612   4.624   5.366   3.962  1.4705 -1.4092 -1.5695
 1536TIP3   OH2 4613   2.741   3.290   4.021  0.7319  1.0399  0.0024
 1536TIP3    H1 4614   2.691   3.347   3.963  2.7009  1.4317 -1.4127
 1536TIP3    H2 4615   2.703   3.203   4.009 -1.4277  1.7488  1.1732
 1537TIP3   OH2 4616   3.044   3.427   1.652  0.3292 -0.0837  0.2680
 1537TIP3    H1 4617   3.105   3.354   1.655 -1.0822 -1.3005  1.3403
 1537TIP3    H2 4618   2.958   3.386   1.644 -0.5351  1.4270  1.2463
 1538TIP3   OH2 4619   6.014   2.238   3.226  0.3860  0.4676  0.3513
 1538TIP3    H1 4620   5.977   2.258   3.140  0.4403  0.2636  0.2791
 1538TIP3    H2 4621   6.101   2.277   3.225  0.6998 -0.2281  0.0132
 1539TIP3   OH2 4622   3.138   1.825   3.007 -0.4623 -0.0246  0.2920
 1539TIP3    H1 4623   3.132   1.734   2.977 -1.5744  0.2313 -0.3154
 1539TIP3    H2 4624   3.204   1.823   3.076  1.0898 -0.9203 -1.1390
 1540TIP3   OH2 4625   1.056   5.207   1.702  0.1369 -0.4781  0.8651
 1540TIP3    H1 4626   0.969   5.204   1.742  0.9355 -2.5326  2.7017
 1540TIP3    H2 4627   1.097   5.285   1.738 -0.9530  0.5781 -0.1183
 1541TIP3   OH2 4628   0.555   3.672   2.223 -0.2949  0.2001  0.6976
 1541TIP3    H1 4629   0.506   3.737   2.273 -1.7726  1.7559 -2.4149
 1541TIP3    H2 4630   0.641   3.712   2.209  0.0819 -0.1930  1.8532
 1542TIP3   OH2 4631   3.876   3.978   2.809 -0.5661  0.1376  0.7499
 1542TIP3    H1 4632   3.927   4.057   2.823 -1.4198  0.3489  3.3471
 1542TIP3    H2 4633   3.904   3.918   2.879  1.6392 -2.8566 -2.3626
 1543TIP3   OH2 4634   4.209   0.327   2.795 -0.3559  0.2527  0.1568
 1543TIP3    H1 4635   4.246   0.414   2.807 -2.1955  0.9202  1.3648
 1543TIP3    H2 4636   4.130   0.341   2.743 -1.1390 -0.5512  1.0900
 1544TIP3   OH2 4637   1.299   5.625   0.781  0.0572  0.0075  0.0775
 1544TIP3    H1 4638   1.256   5.552   0.826 -1.2382  0.6299 -0.0939
 1544TIP3    H2 4639   1.391   5.600   0.777 -0.1858 -1.1234  0.9769
 1545TIP3   OH2 4640   3.200   4.734   0.976  0.3040 -0.2527 -0.0638
 1545TIP3    H1 4641   3.190   4.827   0.997 -0.0596 -0.1241 -0.7765
 1545TIP3    H2 4642   3.235   4.695   1.056  2.5948  0.8651 -0.4568
 1546TIP3   OH2 4643   4.379   0.240   3.490 -0.3279 -0.7570  0.2476
 1546TIP3    H1 4644   4.398   0.296   3.566  0.5306 -2.2114  1.1492
 1546TIP3    H2 4645   4.287   0.255   3.471  0.3460  2.7047 -1.0350
 1547TIP3   OH2 4646   3.575   3.296   3.829 -0.3292 -0.1639  0.6470
 1547TIP3    H1 4647   3.524   3.293   3.748 -0.8163 -1.7771  0.9762
 1547TIP3    H2 4648   3.653   3.347   3.806 -0.8473  0.1085 -0.6017
 1548TIP3   OH2 4649   3.234   1.722   0.600  0.1107 -0.6187  0.1671
 1548TIP3    H1 4650   3.310   1.746   0.546  0.5494 -0.9836  0.6058
 1548TIP3    H2 4651   3.239   1.781   0.675  0.1302 -0.8419  0.3414
 1549TIP3   OH2 4652   0.247   3.654   0.116 -0.5810  0.9333 -0.1120
 1549TIP3    H1 4653   0.192   3.714   0.065 -0.8212 -0.2107 -1.2434
 1549TIP3    H2 4654   0.189   3.620   0.184 -0.4885  1.8292  0.4349
 1550TIP3   OH2 4655   0.281   2.751   0.735  0.3030 -0.0595  0.4157
 1550TIP3    H1 4656   0.323   2.835   0.715  0.4049 -0.4740 -1.2659
 1550TIP3    H2 4657   0.354   2.690   0.743  0.1164 -0.8456 -2.8212
 1551TIP3   OH2 4658   2.957   2.903   3.808  0.5318  0.4405 -0.3432
 1551TIP3    H1 4659   2.940   2.861   3.724  1.1737  0.1746 -0.3485
 1551TIP3    H2 4660   2.919   2.845   3.874 -0.1258  0.7372 -0.4588
 1552TIP3   OH2 4661   5.727   3.254   2.696  0.9964  0.1242  0.3157
 1552TIP3    H1 4662   5.643   3.245   2.651  0.6347  3.1151  0.1410
 1552TIP3    H2 4663   5.718   3.199   2.774 -0.6197 -0.6144 -0.3317
 1553TIP3   OH2 4664   2.669   0.764   4.086  0.3413 -0.5837 -0.1320
 1553TIP3    H1 4665   2.761   0.742   4.103  0.1677 -1.1087  0.1460
 1553TIP3    H2 4666   2.648   0.830   4.152  1.1535  1.2285 -1.6041
 1554TIP3   OH2 4667   4.139   0.227   4.556  0.0014 -0.1026  0.4204
 1554TIP3    H1 4668   4.119   0.210   4.648 -0.9786  0.4014  0.3194
 1554TIP3    H2 4669   4.220   0.179   4.540 -0.6681 -1.5538  1.1112
 1555TIP3   OH2 4670   0.632   5.062   4.219 -0.0518  0.0985  0.2941
 1555TIP3    H1 4671   0.623   5.012   4.300 -0.6024  1.2505  0.9599
 1555TIP3    H2 4672   0.556   5.120   4.218  0.3343  0.6045 -0.6838
 1556TIP3   OH2 4673   1.506   0.316   2.151 -1.0564 -0.1182  0.6166
 1556TIP3    H1 4674   1.552   0.322   2.235  1.5313  0.7951 -0.7732
 1556TIP3    H2 4675   1.560   0.256   2.099 -1.4241  0.9680 -1.0799
 1557TIP3   OH2 4676   2.004   3.810   1.677  0.2110 -0.3617 -0.9796
 1557TIP3    H1 4677   1.918   3.833   1.643  0.3208  0.1912 -0.8945
 1557TIP3    H2 4678   1.988   3.785   1.768  0.0466 -0.9369 -1.1638
 1558TIP3   OH2 4679   2.021   3.303   2.916  0.3330 -0.5921 -0.3748
 1558TIP3    H1 4680   2.045   3.396   2.915 -1.2430 -0.1380 -2.4366
 1558TIP3    H2 4681   2.086   3.261   2.860 -0.3008 -0.2851 -1.3841
 1559TIP3   OH2 4682   2.432   5.933   0.507 -0.0476 -0.0817  0.5815
 1559TIP3    H1 4683   2.418   5.878   0.429  0.5900 -1.6965  1.5577
 1559TIP3    H2 4684   2.527   5.945   0.510 -0.1469  0.6870  0.6413
 1560TIP3   OH2 4685   3.052   2.913   0.395 -0.1911  0.7207 -0.4696
 1560TIP3    H1 4686   3.128   2.878   0.441 -0.6991  0.8223  0.4521
 1560TIP3    H2 4687   3.069   3.007   0.390 -0.5936  0.8439  0.3849
 1561TIP3   OH2 4688   4.274   4.445   0.599  0.4958  0.2040 -0.0929
 1561TIP3    H1 4689   4.182   4.423   0.584  0.2852  1.5950 -1.0842
 1561TIP3    H2 4690   4.272   4.533   0.637  1.4474  1.0260 -1.8256
 1562TIP3   OH2 4691   5.426   2.115   0.220 -0.0726 -0.2683  0.1515
 1562TIP3    H1 4692   5.479   2.112   0.300  2.2278  1.3467 -1.1746
 1562TIP3    H2 4693   5.355   2.175   0.242  1.3994  1.4289  0.6093
 1563TIP3   OH2 4694   0.762   5.002   0.363 -0.1478  0.5146  0.0564
 1563TIP3    H1 4695   0.817   4.941   0.314 -2.0874 -1.0726 -0.2457
 1563TIP3    H2 4696   0.810   5.085   0.359  0.9811 -0.1708 -2.3660
 1564TIP3   OH2 4697   1.830   4.489   4.418 -0.5165 -0.2472  0.2724
 1564TIP3    H1 4698   1.828   4.517   4.509 -1.7820 -0.2743  0.2746
 1564TIP3    H2 4699   1.768   4.547   4.373  0.8598  0.4405 -0.7838
 1565TIP3   OH2 4700   3.362   4.257   2.339 -0.3494 -0.2724  0.2953
 1565TIP3    H1 4701   3.340   4.261   2.432  2.2165  1.5074  0.9401
 1565TIP3    H2 4702   3.348   4.346   2.306 -0.0421 -0.5712 -0.7089
 1566TIP3   OH2 4703   4.975   1.175   3.343 -0.2551 -0.4888 -0.2219
 1566TIP3    H1 4704   4.970   1.156   3.437 -0.3472 -1.9589 -0.4918
 1566TIP3    H2 4705   4.896   1.225   3.323 -1.6072 -2.4230  0.0312
 1567TIP3   OH2 4706   4.777   1.726   2.175 -0.2000  0.5231 -0.0860
 1567TIP3    H1 4707   4.831   1.686   2.243 -0.1241  0.9707  0.1172
 1567TIP3    H2 4708   4.749   1.652   2.120  0.3816  0.2572 -0.0282
 1568TIP3   OH2 4709   2.434   4.397   1.584 -0.0800 -0.5305 -0.0945
 1568TIP3    H1 4710   2.339   4.404   1.592 -0.0066  0.3875  0.0821
 1568TIP3    H2 4711   2.452   4.303   1.587 -0.9814 -0.7102 -0.1493
 1569TIP3   OH2 4712   1.388   3.587   4.230 -0.2371  0.4211  0.0712
 1569TIP3    H1 4713   1.436   3.582   4.312  2.8070  1.2304 -1.4812
 1569TIP3    H2 4714   1.439   3.648   4.176 -1.9686 -0.2037 -2.4793
 1570TIP3   OH2 4715   6.330   3.395   2.132  0.4189  0.1400  0.0953
 1570TIP3    H1 4716   6.387   3.452   2.184 -1.6851  0.9907  1.5774
 1570TIP3    H2 4717   6.292   3.334   2.196 -1.2978  0.4120 -0.6148
 1571TIP3   OH2 4718   0.310   4.008   2.212  0.0039  0.2235  0.5181
 1571TIP3    H1 4719   0.349   3.960   2.285  0.0440 -0.4016  0.0941
 1571TIP3    H2 4720   0.362   3.982   2.136  0.6292  1.6616  0.4114
 1572TIP3   OH2 4721   4.091   4.078   1.388  0.2829  0.3603 -0.4734
 1572TIP3    H1 4722   4.159   4.028   1.342 -0.9967 -1.1043 -0.8864
 1572TIP3    H2 4723   4.075   4.154   1.333  0.5570 -0.0488 -1.1262
 1573TIP3   OH2 4724   0.242   5.854   3.012  0.4236 -0.5011  0.1645
 1573TIP3    H1 4725   0.284   5.794   3.074 -0.2282  0.2676  1.3871
 1573TIP3    H2 4726   0.162   5.809   2.985  0.0724 -0.3159  0.8700
 1574TIP3   OH2 4727   2.256   0.058   4.296 -0.3361 -0.2840  0.7805
 1574TIP3    H1 4728   2.200   0.109   4.354 -0.7339  0.1181  0.0674
 1574TIP3    H2 4729   2.197  -0.007   4.258 -0.4821  0.5091 -0.4161
 1575TIP3   OH2 4730   4.155   1.913   5.160 -0.1897 -0.0173  0.1856
 1575TIP3    H1 4731   4.222   1.980   5.174  0.7994 -1.1036  0.9143
 1575TIP3    H2 4732   4.074   1.953   5.190  0.7004  0.2168  2.5682
 1576TIP3   OH2 4733   5.070   5.366   3.710 -0.3895 -0.5730  0.1878
 1576TIP3    H1 4734   5.092   5.337   3.798 -1.1624  0.4946  0.7472
 1576TIP3    H2 4735   4.976   5.383   3.712 -0.1332  1.1397 -0.3282
 1577TIP3   OH2 4736   0.310   1.584   1.377  0.2121 -0.0289 -0.2279
 1577TIP3    H1 4737   0.327   1.676   1.400  0.8649 -0.1881 -0.0508
 1577TIP3    H2 4738   0.215   1.577   1.377  0.1106  0.9628 -1.4773
 1578TIP3   OH2 4739   0.256   3.000   3.919  0.1972  0.1476  0.7097
 1578TIP3    H1 4740   0.341   2.956   3.922  1.2645  1.9578 -0.5684
 1578TIP3    H2 4741   0.266   3.074   3.979 -0.0653  1.0132 -0.2978
 1579TIP3   OH2 4742   2.094   5.035   0.728 -0.2222 -0.0956  0.0050
 1579TIP3    H1 4743   2.094   5.086   0.809 -1.0178  0.5576 -0.3860
 1579TIP3    H2 4744   2.078   5.099   0.659  0.9675 -0.5673 -0.7442
 1580TIP3   OH2 4745   2.278   1.863   1.794 -0.3998 -0.0363  0.0296
 1580TIP3    H1 4746   2.308   1.866   1.703 -0.6922 -1.0504 -0.1164
 1580TIP3    H2 4747   2.342   1.807   1.838  0.5544  1.5905  0.7957
 1581TIP3   OH2 4748   5.941   4.080   1.769 -0.2375 -0.3676 -0.1119
 1581TIP3    H1 4749   5.853   4.075   1.805 -1.3233  1.5088 -2.2356
 1581TIP3    H2 4750   5.994   4.115   1.841 -1.6692  0.4258  0.6044
 1582TIP3   OH2 4751   5.940   4.662   1.387 -0.5996  0.0559  0.0834
 1582TIP3    H1 4752   5.879   4.609   1.439 -3.9864  2.7849 -0.7595
 1582TIP3    H2 4753   5.941   4.620   1.301  0.6310 -1.2865  0.7052
 1583TIP3   OH2 4754   0.626   4.636   1.434  0.3030 -0.2459 -0.5531
 1583TIP3    H1 4755   0.650   4.675   1.518  1.0878  0.2214 -0.9870
 1583TIP3    H2 4756   0.531   4.626   1.438  0.2032  0.8406 -0.0676
 1584TIP3   OH2 4757   6.004   4.405   0.800 -0.0159  0.4866 -0.1938
 1584TIP3    H1 4758   6.037   4.324   0.762  1.3911  0.7745  0.3601
 1584TIP3    H2 4759   5.929   4.429   0.744  0.8564 -0.0555 -1.6564
 1585TIP3   OH2 4760   5.914   5.762   1.937 -0.0351  0.3780  0.3509
 1585TIP3    H1 4761   5.852   5.814   1.885  0.2886 -0.7755 -1.2699
 1585TIP3    H2 4762   5.865   5.740   2.016 -0.9353  1.3086  0.0815
 1586TIP3   OH2 4763   1.792   1.949   5.097 -0.5406 -0.3616 -0.0504
 1586TIP3    H1 4764   1.718   1.975   5.151 -1.0947 -0.7545 -0.6168
 1586TIP3    H2 4765   1.862   2.011   5.121 -0.6536 -0.7551  1.3754
 1587TIP3   OH2 4766   5.713   2.624   3.220 -0.7835 -0.0015  0.2829
 1587TIP3    H1 4767   5.802   2.659   3.226 -0.9474  0.4285  0.3019
 1587TIP3    H2 4768   5.722   2.531   3.239 -0.3157  0.0080  0.1171
 1588TIP3   OH2 4769   2.464   1.015   3.022  0.1240 -0.0592 -0.3764
 1588TIP3    H1 4770   2.409   1.045   2.949 -0.2539  0.8795  0.2708
 1588TIP3    H2 4771   2.502   1.096   3.057 -2.2058 -0.0332  2.4682
 1589TIP3   OH2 4772   2.996   3.526   3.417 -0.2505  0.1933 -0.5553
 1589TIP3    H1 4773   3.011   3.492   3.328 -0.2523 -1.3798  0.0161
 1589TIP3    H2 4774   2.934   3.464   3.456  0.9403 -0.0352  1.0607
 1590TIP3   OH2 4775   1.777   0.261   3.319 -0.1156  0.1068  0.5250
 1590TIP3    H1 4776   1.773   0.345   3.273 -1.5526  0.4682  1.2565
 1590TIP3    H2 4777   1.779   0.195   3.250 -2.0595  0.6477 -0.1123
 1591TIP3   OH2 4778   1.474   4.617   4.086 -0.8754 -0.0030  0.3474
 1591TIP3    H1 4779   1.504   4.590   3.999 -1.2625  0.2763  0.1213
 1591TIP3    H2 4780   1.387   4.654   4.070 -2.1148 -2.3267  1.2052
 1592TIP3   OH2 4781   0.982   4.289   0.856 -0.1913  0.1198  0.0689
 1592TIP3    H1 4782   0.959   4.381   0.866 -1.8317 -0.2802  0.2352
 1592TIP3    H2 4783   1.017   4.264   0.942  1.2360  0.8220 -0.2855
 1593TIP3   OH2 4784   4.608   3.185   0.565  0.1558  0.2655 -0.1542
 1593TIP3    H1 4785   4.696   3.151   0.546  0.6582  0.3302  1.7905
 1593TIP3    H2 4786   4.563   3.184   0.481  1.4314 -1.4823 -0.8724
 1594TIP3   OH2 4787   2.646   0.785   1.276 -0.1419 -0.0116 -0.2574
 1594TIP3    H1 4788   2.658   0.752   1.187 -0.2753  0.5729 -0.4965
 1594TIP3    H2 4789   2.649   0.880   1.268  0.0410  0.0458  0.3933
 1595TIP3   OH2 4790   2.702   2.328   2.853  0.4595  0.4802  0.5551
 1595TIP3    H1 4791   2.662   2.304   2.769  0.3626  0.4058  0.6225
 1595TIP3    H2 4792   2.657   2.274   2.918 -0.0391  1.1326  0.7635
 1596TIP3   OH2 4793   0.563   1.343   0.413  0.5504  0.7521  0.2965
 1596TIP3    H1 4794   0.625   1.284   0.370 -0.4098  0.3080 -0.5390
 1596TIP3    H2 4795   0.529   1.398   0.342  2.0768  2.9834  1.1778
 1597TIP3   OH2 4796   2.576   0.764   3.519 -0.6206 -0.0667 -0.2707
 1597TIP3    H1 4797   2.563   0.678   3.558 -1.0092 -0.1886 -0.6649
 1597TIP3    H2 4798   2.665   0.760   3.482 -0.0144  0.2451  1.0717
 1598TIP3   OH2 4799   5.488   0.565   3.716  0.1336 -0.2217 -0.0077
 1598TIP3    H1 4800   5.469   0.496   3.653 -0.6375 -0.1772  0.1713
 1598TIP3    H2 4801   5.548   0.524   3.778  1.0614 -0.2062 -0.8619
 1599TIP3   OH2 4802   3.930   1.792   2.493  0.2345 -0.2576 -0.0782
 1599TIP3    H1 4803   3.906   1.830   2.578  1.8813  1.6688 -0.4177
 1599TIP3    H2 4804   4.023   1.772   2.502  0.6722  0.8923 -1.7276
 1600TIP3   OH2 4805   4.563   1.615   4.610  0.2226 -0.9941 -0.0344
 1600TIP3    H1 4806   4.641   1.590   4.561  0.3459  1.2066 -1.0793
 1600TIP3    H2 4807   4.516   1.674   4.552 -0.5807  0.2690  1.8074
 1601TIP3   OH2 4808   2.646   5.212   1.029  0.2816  0.3162 -0.1193
 1601TIP3    H1 4809   2.639   5.278   0.960 -1.2736  1.6214  1.1899
 1601TIP3    H2 4810   2.689   5.138   0.987 -0.6060  1.0406 -2.4866
 1602TIP3   OH2 4811   1.170   1.348   3.600  0.2123 -0.3783  0.2064
 1602TIP3    H1 4812   1.078   1.346   3.626  0.2921  1.0471  0.6835
 1602TIP3    H2 4813   1.215   1.297   3.668  0.1949  1.8679  2.0298
 1603TIP3   OH2 4814   4.155   3.115   2.801 -0.4602 -0.1769  0.1628
 1603TIP3    H1 4815   4.153   3.117   2.897  1.0197 -2.4927  0.3178
 1603TIP3    H2 4816   4.137   3.024   2.778  1.4098 -0.1606 -1.6248
 1604TIP3   OH2 4817   3.417   5.242   4.950  0.0612  0.3104  0.1839
 1604TIP3    H1 4818   3.398   5.154   4.918  1.0017 -0.0610  0.6046
 1604TIP3    H2 4819   3.399   5.238   5.044 -0.9019  0.8782  0.0445
 1605TIP3   OH2 4820   2.314   1.147   4.493 -0.3585 -0.4634  0.2615
 1605TIP3    H1 4821   2.283   1.229   4.531  0.1366 -1.0690  2.0413
 1605TIP3    H2 4822   2.248   1.082   4.518 -0.8781 -0.6135 -1.3432
 1606TIP3   OH2 4823   5.283   3.302   4.157  0.1198  0.1508  0.3495
 1606TIP3    H1 4824   5.243   3.299   4.070  0.3181 -0.7143  0.2803
 1606TIP3    H2 4825   5.217   3.262   4.214  1.1348 -1.9709  0.1180
 1607TIP3   OH2 4826   6.026   3.903   4.783  0.3893 -0.3125 -0.0777
 1607TIP3    H1 4827   5.951   3.938   4.831  0.6844  0.5974 -0.2599
 1607TIP3    H2 4828   6.082   3.866   4.850  0.1108 -0.3490  0.1345
 1608TIP3   OH2 4829   2.299   4.664   2.660 -0.3279  0.1676  0.0845
 1608TIP3    H1 4830   2.272   4.711   2.738 -0.1110 -0.7035  0.6973
 1608TIP3    H2 4831   2.330   4.579   2.692  5.0675  1.6604 -0.2356
 1609TIP3   OH2 4832   0.537   3.018   3.951 -0.6519  0.3526 -0.8825
 1609TIP3    H1 4833   0.606   2.957   3.924 -1.0726 -0.9258  0.7487
 1609TIP3    H2 4834   0.564   3.102   3.914  1.9557 -0.0335 -0.0892
 1610TIP3   OH2 4835   5.346   3.160   2.844 -0.6323 -0.5847 -0.0171
 1610TIP3    H1 4836   5.331   3.131   2.934 -1.6279 -0.3793 -0.1041
 1610TIP3    H2 4837   5.384   3.247   2.853  0.0236 -0.8841  0.2059
 1611TIP3   OH2 4838   3.930   5.631   0.312 -0.3011 -0.0782  0.5415
 1611TIP3    H1 4839   3.936   5.555   0.370  0.7755 -0.9270 -0.6086
 1611TIP3    H2 4840   4.005   5.621   0.253  0.4466  2.4218  0.9674
 1612TIP3   OH2 4841   1.566   3.624   0.847  0.0844 -0.1375  0.1159
 1612TIP3    H1 4842   1.609   3.646   0.765  0.7341 -1.0702  0.1954
 1612TIP3    H2 4843   1.633   3.640   0.914 -0.2395  0.0255  0.4035
 1613TIP3   OH2 4844   2.277   2.300   1.884 -0.5520 -0.3894 -0.1387
 1613TIP3    H1 4845   2.220   2.283   1.810 -1.6354  0.0906  0.5591
 1613TIP3    H2 4846   2.225   2.274   1.961 -0.6158  1.8934  0.6519
 1614TIP3   OH2 4847   0.352   1.707   3.690 -0.3204 -0.5612 -0.1660
 1614TIP3    H1 4848   0.349   1.612   3.683 -0.4379 -0.7441  1.7989
 1614TIP3    H2 4849   0.446   1.728   3.686 -0.3218 -0.6843 -1.1232
 1615TIP3   OH2 4850   5.749   4.391   1.389  0.0221 -0.0123  0.0343
 1615TIP3    H1 4851   5.772   4.434   1.472  0.4951  1.4279 -0.7963
 1615TIP3    H2 4852   5.694   4.455   1.344  1.5802  0.2151 -1.6892
 1616TIP3   OH2 4853   1.966   2.954   2.847 -0.5377 -0.2482 -0.2710
 1616TIP3    H1 4854   1.995   3.043   2.826 -0.3695 -0.3865 -0.6359
 1616TIP3    H2 4855   2.046   2.909   2.876 -0.2256 -0.8033 -1.8533
 1617TIP3   OH2 4856   3.267   2.363   0.784 -0.2015  0.1366 -0.2181
 1617TIP3    H1 4857   3.286   2.405   0.867 -0.6806 -0.7938  0.3832
 1617TIP3    H2 4858   3.208   2.422   0.739  0.7416  1.0593 -0.2867
 1618TIP3   OH2 4859   0.541   5.514   1.216 -0.2910 -0.1805  0.5177
 1618TIP3    H1 4860   0.510   5.492   1.304  2.4226 -1.5885  1.2166
 1618TIP3    H2 4861   0.633   5.536   1.227  0.3243 -1.0511 -2.0474
 1619TIP3   OH2 4862   0.703   4.451   4.935 -0.0612  0.0168  0.3859
 1619TIP3    H1 4863   0.625   4.396   4.934  0.2290 -0.4627  1.7196
 1619TIP3    H2 4864   0.679   4.526   4.881 -1.4205 -0.1694  0.6716
 1620TIP3   OH2 4865   0.372   4.876   1.570  0.2855 -0.4253  0.0469
 1620TIP3    H1 4866   0.357   4.942   1.502 -2.7634 -0.3332  0.6413
 1620TIP3    H2 4867   0.352   4.793   1.528 -1.1106 -0.4138  0.6233
 1621TIP3   OH2 4868   1.739   3.074   4.934 -0.2260  0.0281 -0.2557
 1621TIP3    H1 4869   1.698   3.051   4.850 -0.6849 -4.5388  0.9247
 1621TIP3    H2 4870   1.666   3.096   4.991 -0.1302  0.8813 -0.4564
 1622TIP3   OH2 4871   4.611   0.583   0.905  0.3682  0.4825 -0.0459
 1622TIP3    H1 4872   4.681   0.600   0.841  2.5076 -0.4527  1.9208
 1622TIP3    H2 4873   4.652   0.597   0.990 -2.1699  0.9119  1.2211
 1623TIP3   OH2 4874   2.584   3.443   2.343 -0.3536  0.1160  0.1860
 1623TIP3    H1 4875   2.634   3.383   2.288  0.0193  1.0708 -0.5428
 1623TIP3    H2 4876   2.501   3.454   2.296 -0.3329  0.3412  0.2029
 1624TIP3   OH2 4877   5.509   2.621   1.044 -0.2795  0.1222 -0.1870
 1624TIP3    H1 4878   5.535   2.544   0.994  0.4727  0.0001  0.3676
 1624TIP3    H2 4879   5.562   2.692   1.008 -0.4388  0.2296 -0.2097
 1625TIP3   OH2 4880   1.561   0.979   1.953 -0.6314 -0.1496 -0.7370
 1625TIP3    H1 4881   1.506   1.032   1.894  1.5178  1.7874 -1.1418
 1625TIP3    H2 4882   1.630   0.945   1.896  0.3741  0.1118  0.3046
 1626TIP3   OH2 4883   6.198   4.201   2.389  0.8047 -0.1688 -0.0762
 1626TIP3    H1 4884   6.214   4.296   2.397  0.1635 -0.0305 -0.3508
 1626TIP3    H2 4885   6.260   4.161   2.449  0.3811  0.4933  0.8198
 1627TIP3   OH2 4886   2.195   1.236   1.772  0.2541  0.4704  0.3887
 1627TIP3    H1 4887   2.221   1.319   1.731 -0.8226  1.5196  1.7474
 1627TIP3    H2 4888   2.195   1.255   1.866  0.7513 -1.3105  0.7837
 1628TIP3   OH2 4889   6.123   4.962   1.405  0.4496  1.2964 -0.7068
 1628TIP3    H1 4890   6.148   4.870   1.399  2.7756  1.9187 -1.7916
 1628TIP3    H2 4891   6.086   4.983   1.320 -1.7929  0.9663  0.1370
 1629TIP3   OH2 4892   6.178   4.401   2.724  0.0080 -0.1522  0.7708
 1629TIP3    H1 4893   6.230   4.382   2.647  0.2504  2.5569  0.1545
 1629TIP3    H2 4894   6.204   4.334   2.788  0.3391 -2.0074 -1.1945
 1630TIP3   OH2 4895   3.539   5.747   0.619  0.0916 -0.2514 -0.3524
 1630TIP3    H1 4896   3.447   5.747   0.643 -0.0537 -0.9180 -0.8690
 1630TIP3    H2 4897   3.546   5.681   0.550  0.9700 -0.2817 -0.2522
 1631TIP3   OH2 4898   6.319   1.173   3.220  0.1088 -0.1873 -0.6195
 1631TIP3    H1 4899   6.330   1.181   3.315  0.5273  1.5198 -0.7686
 1631TIP3    H2 4900   6.340   1.082   3.201 -0.2736 -0.6368  0.9582
 1632TIP3   OH2 4901   0.430   0.784   0.876  0.4301 -0.3067 -0.3544
 1632TIP3    H1 4902   0.449   0.867   0.832 -1.1094  0.3910  0.2021
 1632TIP3    H2 4903   0.353   0.750   0.831  0.5089 -0.9748  0.0033
 1633TIP3   OH2 4904   5.427   5.119   1.570  0.0867  0.2787 -0.1866
 1633TIP3    H1 4905   5.422   5.052   1.503 -1.9345  0.0535  0.1326
 1633TIP3    H2 4906   5.508   5.099   1.618  0.4606 -0.8075 -1.2226
 1634TIP3   OH2 4907   3.817   4.404   3.481  0.4869  0.2902  0.2940
 1634TIP3    H1 4908   3.757   4.356   3.538  2.2548 -1.0583  1.1335
 1634TIP3    H2 4909   3.763   4.470   3.439 -1.0246  1.0221  3.1447
 1635TIP3   OH2 4910   1.958   1.959   2.189 -0.3905  0.0620  0.5216
 1635TIP3    H1 4911   1.892   1.940   2.122 -0.0171 -0.7287  0.3685
 1635TIP3    H2 4912   2.041   1.955   2.142  0.0672 -2.7014  1.4252
 1636TIP3   OH2 4913   3.034   0.686   2.983  0.4467 -0.2323 -0.2052
 1636TIP3    H1 4914   3.050   0.629   3.059 -1.3490  0.7826  0.9909
 1636TIP3    H2 4915   2.979   0.633   2.925 -1.9507  0.4625  1.2926
 1637TIP3   OH2 4916   6.278   4.811   3.026  0.3663  0.2146  0.3625
 1637TIP3    H1 4917   6.299   4.771   3.111  0.1252 -0.5914  0.0491
 1637TIP3    H2 4918   6.334   4.764   2.964  0.0013  0.2989 -0.0283
 1638TIP3   OH2 4919   3.781   3.275   3.304 -0.5647  0.5204  0.1472
 1638TIP3    H1 4920   3.734   3.359   3.309 -1.6311 -0.0250 -0.5153
 1638TIP3    H2 4921   3.841   3.278   3.379 -0.6487  1.8348  0.1961
 1639TIP3   OH2 4922   5.604   5.706   3.532  0.1490 -0.0278 -0.0889
 1639TIP3    H1 4923   5.629   5.767   3.463  0.1696  0.3260  0.2302
 1639TIP3    H2 4924   5.541   5.754   3.585  0.7145 -0.0248  0.5897
 1640TIP3   OH2 4925   0.657   5.485   4.134 -0.2153 -0.7646 -0.4724
 1640TIP3    H1 4926   0.635   5.397   4.102 -1.3367 -1.0074  0.8855
 1640TIP3    H2 4927   0.573   5.529   4.143  0.2923  0.2238 -0.4632
 1641TIP3   OH2 4928   1.215   2.977   2.580 -0.0128 -0.0989  0.0924
 1641TIP3    H1 4929   1.239   2.886   2.600 -0.6206 -0.7813 -1.9825
 1641TIP3    H2 4930   1.166   3.006   2.657 -0.3121 -1.7455  0.5654
 1642TIP3   OH2 4931   6.232   0.666   1.306 -0.2141  0.3420  0.2006
 1642TIP3    H1 4932   6.262   0.627   1.224  0.2428 -1.4480  1.1601
 1642TIP3    H2 4933   6.279   0.749   1.312 -1.8164  1.5233 -2.3015
 1643TIP3   OH2 4934   0.978   3.920   4.881  0.0029 -0.3340  0.0176
 1643TIP3    H1 4935   1.028   3.861   4.825 -0.2627 -0.9506  0.4181
 1643TIP3    H2 4936   0.949   3.990   4.823 -1.3413 -1.6099 -0.9054
 1644TIP3   OH2 4937   5.982   1.492   2.438  0.0089  0.4810  0.4714
 1644TIP3    H1 4938   6.057   1.550   2.422  0.2073  0.4388  1.2377
 1644TIP3    H2 4939   5.978   1.437   2.360  2.1312 -1.0048  1.3217
 1645TIP3   OH2 4940   3.501   2.553   4.516 -0.1135  0.5233  0.3033
 1645TIP3    H1 4941   3.460   2.627   4.471 -1.6965 -0.5783 -0.1579
 1645TIP3    H2 4942   3.461   2.553   4.603 -1.8585 -1.0746 -0.4338
 1646TIP3   OH2 4943   5.682   4.278   4.659  0.4490  0.4817  0.3311
 1646TIP3    H1 4944   5.763   4.306   4.701  0.3871 -2.0888  2.3894
 1646TIP3    H2 4945   5.711   4.235   4.578  1.0002  0.8920  0.3054
 1647TIP3   OH2 4946   2.892   1.593   0.918 -0.2321 -0.4163  0.1045
 1647TIP3    H1 4947   2.830   1.532   0.878 -1.9007 -0.0893  2.0712
 1647TIP3    H2 4948   2.930   1.544   0.991 -3.2533  1.3733  3.1758
 1648TIP3   OH2 4949   3.628   5.957   4.043  0.0233 -0.2121 -0.1455
 1648TIP3    H1 4950   3.601   5.870   4.013 -0.9954  0.1738 -0.3599
 1648TIP3    H2 4951   3.704   5.979   3.988 -1.1755  0.0383 -1.7578
 1649TIP3   OH2 4952   2.837   5.343   2.500  0.2567 -0.3652 -0.5407
 1649TIP3    H1 4953   2.802   5.384   2.579 -0.9511  0.8131 -1.6320
 1649TIP3    H2 4954   2.909   5.400   2.473  0.0462 -0.2254 -0.8112
 1650TIP3   OH2 4955   5.020   2.870   3.537 -0.4636 -0.0592  0.3330
 1650TIP3    H1 4956   5.105   2.828   3.553 -0.8223 -0.6223  0.8297
 1650TIP3    H2 4957   4.999   2.849   3.446 -0.1550 -0.0830  0.2678
 1651TIP3   OH2 4958   2.945   3.657   0.548 -0.3527  0.5652  0.2825
 1651TIP3    H1 4959   2.998   3.725   0.589  1.6835  0.0694 -1.3706
 1651TIP3    H2 4960   2.889   3.705   0.486 -1.5099  1.0385  1.6484
 1652TIP3   OH2 4961   3.090   3.856   2.280 -0.2556  0.1853  0.0326
 1652TIP3    H1 4962   3.162   3.920   2.283 -0.7245  0.7508 -0.4350
 1652TIP3    H2 4963   3.041   3.872   2.360  0.2552 -0.3466  0.4572
 1653TIP3   OH2 4964   1.976   1.540   2.266  0.4149 -0.1213  0.1315
 1653TIP3    H1 4965   1.923   1.517   2.343 -0.1268  0.5115 -0.0425
 1653TIP3    H2 4966   2.027   1.617   2.294  1.4639 -0.8892  0.3858
 1654TIP3   OH2 4967   0.061   5.882   1.208 -0.2686  0.1691 -0.6620
 1654TIP3    H1 4968   0.070   5.841   1.122  0.0899  0.2497 -0.6642
 1654TIP3    H2 4969   0.076   5.811   1.271  1.4891  0.5083 -0.6573
 1655TIP3   OH2 4970   5.695   3.736   3.179 -0.2531 -0.3022  0.5280
 1655TIP3    H1 4971   5.664   3.792   3.250  2.7363  1.2981  0.7657
 1655TIP3    H2 4972   5.682   3.788   3.100  1.8685  0.5587  0.6702
 1656TIP3   OH2 4973   2.305   5.805   0.283  0.4597  0.0162  0.3222
 1656TIP3    H1 4974   2.291   5.711   0.270  0.4149  0.1262 -0.4236
 1656TIP3    H2 4975   2.222   5.845   0.257  0.8440  0.3530 -0.3836
 1657TIP3   OH2 4976   4.375   3.585   4.872 -0.1404  0.3040  0.2213
 1657TIP3    H1 4977   4.396   3.677   4.885 -0.4615  0.4857 -0.5347
 1657TIP3    H2 4978   4.281   3.584   4.852  0.0593 -0.0974 -0.7025
 1658TIP3   OH2 4979   2.297   3.643   3.824 -0.1940  0.3262 -0.5060
 1658TIP3    H1 4980   2.358   3.618   3.754 -0.4002 -1.5015 -0.0847
 1658TIP3    H2 4981   2.252   3.721   3.790  1.7107  1.1802 -1.1919
 1659TIP3   OH2 4982   2.841   1.475   2.711 -0.4799 -0.3254  0.5582
 1659TIP3    H1 4983   2.843   1.449   2.619 -3.3443 -0.9575  0.5552
 1659TIP3    H2 4984   2.926   1.515   2.727  0.4087 -0.9159 -2.1318
 1660TIP3   OH2 4985   3.617   0.195   0.397  0.2841  0.0003 -0.3407
 1660TIP3    H1 4986   3.634   0.285   0.370 -0.3753 -0.1820 -1.4096
 1660TIP3    H2 4987   3.702   0.162   0.425  0.8181  0.5102 -1.3061
 1661TIP3   OH2 4988   3.557   4.460   4.309 -0.6130 -0.1731  0.3335
 1661TIP3    H1 4989   3.586   4.527   4.246 -0.7330 -0.1591  0.2936
 1661TIP3    H2 4990   3.599   4.486   4.391 -0.6854 -0.0306  0.3251
 1662TIP3   OH2 4991   0.238   3.669   2.018 -0.1938  0.7106 -0.3608
 1662TIP3    H1 4992   0.221   3.611   2.092 -1.0701  0.3694 -0.7996
 1662TIP3    H2 4993   0.200   3.753   2.043  2.4656  1.6201  0.9260
 1663TIP3   OH2 4994   4.794   1.360   4.947 -0.2843  0.2272 -0.3206
 1663TIP3    H1 4995   4.723   1.423   4.941  0.5404  1.3191  0.7891
 1663TIP3    H2 4996   4.861   1.393   4.886 -0.1124  0.0661 -0.2222
 1664TIP3   OH2 4997   2.222   1.845   2.767 -0.2078  0.2478  0.3811
 1664TIP3    H1 4998   2.217   1.870   2.675  0.2042  0.2934  0.3704
 1664TIP3    H2 4999   2.152   1.895   2.810  0.3408  1.1153  0.2935
 1665TIP3   OH2 5000   0.091   5.590   4.588  0.5102 -0.0481  0.0172
 1665TIP3    H1 5001   0.082   5.558   4.678  1.0264  1.1740  0.5373
 1665TIP3    H2 5002   0.076   5.684   4.595 -0.2903 -0.0586 -1.3318
 1666TIP3   OH2 5003   3.458   1.649   4.565  0.0711 -0.3735  0.1670
 1666TIP3    H1 5004   3.551   1.623   4.570  0.2659 -0.0089 -1.1173
 1666TIP3    H2 5005   3.459   1.744   4.577  0.0215 -0.2004 -1.0273
 1667TIP3   OH2 5006   6.093   4.751   5.025  0.3198  0.0205 -0.5016
 1667TIP3    H1 5007   6.146   4.773   4.948 -1.7862 -0.9566 -2.3601
 1667TIP3    H2 5008   6.017   4.809   5.020 -0.5492 -1.0271 -0.0033
 1668TIP3   OH2 5009   0.872   5.509   1.551 -0.3821 -0.6064 -0.2054
 1668TIP3    H1 5010   0.831   5.430   1.515 -0.7421 -0.7126  0.4160
 1668TIP3    H2 5011   0.834   5.518   1.639  0.5998 -0.4479  0.2165
 1669TIP3   OH2 5012   3.390   5.214   1.439 -0.7775  0.1458 -0.9381
 1669TIP3    H1 5013   3.410   5.299   1.398 -1.0698  0.3507 -0.6597
 1669TIP3    H2 5014   3.394   5.231   1.533 -0.6613 -0.1937 -0.8789
 1670TIP3   OH2 5015   0.259   4.092   3.907  0.1084 -0.3467  0.1593
 1670TIP3    H1 5016   0.165   4.107   3.917  0.1473 -0.0111  0.0485
 1670TIP3    H2 5017   0.298   4.135   3.983  0.3031  1.0808 -0.7054
 1671TIP3   OH2 5018   2.329   0.456   3.375 -0.2558  0.2376  0.0499
 1671TIP3    H1 5019   2.282   0.527   3.331  0.7391  1.1640  0.4100
 1671TIP3    H2 5020   2.265   0.387   3.386 -0.8490  0.4688 -1.7277
 1672TIP3   OH2 5021   3.434   5.849   2.666  0.2172 -0.1259 -0.3389
 1672TIP3    H1 5022   3.379   5.801   2.728  0.8038 -0.6671 -0.2280
 1672TIP3    H2 5023   3.401   5.939   2.670 -0.8964 -0.5074 -0.5509
 1673TIP3   OH2 5024   1.354   2.353   0.706 -0.1014 -0.5150 -0.2476
 1673TIP3    H1 5025   1.276   2.400   0.736  0.4870  1.0826 -1.1243
 1673TIP3    H2 5026   1.422   2.420   0.698  1.3105 -1.8174  0.2092
 1674TIP3   OH2 5027   4.362   0.119   2.047 -0.3904 -0.2012 -0.2109
 1674TIP3    H1 5028   4.327   0.132   2.135 -0.4835  2.6018 -0.5761
 1674TIP3    H2 5029   4.369   0.207   2.010  2.2367 -1.0389 -2.0326
 1675TIP3   OH2 5030   2.271   5.001   1.374 -0.1030  0.2984 -0.3756
 1675TIP3    H1 5031   2.191   4.994   1.322  0.3281 -2.1126 -0.8072
 1675TIP3    H2 5032   2.333   5.047   1.317 -0.6120  0.5287 -0.7481
 1676TIP3   OH2 5033   4.169   3.145   3.475  0.1616  0.3547 -0.1368
 1676TIP3    H1 5034   4.189   3.140   3.568 -1.8166  1.6761  0.4238
 1676TIP3    H2 5035   4.253   3.130   3.431  1.0996 -0.4298  1.8315
 1677TIP3   OH2 5036   2.563   1.238   3.169  0.6442  0.1274  0.4942
 1677TIP3    H1 5037   2.644   1.289   3.166  0.8672 -0.1509  1.4328
 1677TIP3    H2 5038   2.509   1.274   3.099 -0.4010  3.6597  2.8605
 1678TIP3   OH2 5039   2.089   0.915   3.968  0.1772  0.3031 -0.0519
 1678TIP3    H1 5040   2.134   0.916   3.883 -1.8036  0.9968 -1.1791
 1678TIP3    H2 5041   2.099   1.004   4.001  0.6416  0.1291  0.2868
 1679TIP3   OH2 5042   2.304   1.264   4.075 -0.3183 -0.8383  0.4285
 1679TIP3    H1 5043   2.262   1.323   4.012 -1.0214 -0.9277  0.8003
 1679TIP3    H2 5044   2.304   1.179   4.032  0.3823 -0.6510  0.0329
 1680TIP3   OH2 5045   5.938   0.254   4.203 -0.2503 -0.2479  0.2533
 1680TIP3    H1 5046   5.971   0.301   4.127  1.5388  2.4304  2.5069
 1680TIP3    H2 5047   6.002   0.185   4.218  1.1731  1.2180  1.1304
 1681TIP3   OH2 5048   3.046   2.541   1.791  0.1902 -0.3981 -0.1730
 1681TIP3    H1 5049   3.079   2.533   1.880  1.2374  0.4129 -0.4693
 1681TIP3    H2 5050   2.953   2.561   1.801 -0.1638 -2.2830  0.6835
 1682TIP3   OH2 5051   1.276   3.160   3.715  0.2389  0.0650 -0.2097
 1682TIP3    H1 5052   1.210   3.218   3.752  1.2258  0.7443  0.5273
 1682TIP3    H2 5053   1.337   3.143   3.787  0.2957 -1.4248 -0.5743
 1683TIP3   OH2 5054   6.127   0.848   4.171  0.0243  0.9229  0.1055
 1683TIP3    H1 5055   6.055   0.811   4.223 -0.3315  0.6641 -0.5583
 1683TIP3    H2 5056   6.089   0.925   4.129  0.1936  0.9028 -0.0864
 1684TIP3   OH2 5057   1.835   5.694   3.990 -0.6677 -0.2768 -0.0909
 1684TIP3    H1 5058   1.849   5.627   3.923 -0.8433 -1.8930  1.3869
 1684TIP3    H2 5059   1.923   5.718   4.019 -0.6070  0.0043 -0.5098
 1685TIP3   OH2 5060   0.354   0.850   3.287 -0.1569  0.0981 -0.3280
 1685TIP3    H1 5061   0.298   0.780   3.254  1.0071 -0.3408 -1.4743
 1685TIP3    H2 5062   0.442   0.812   3.285  0.7372  2.0778 -2.5267
 1686TIP3   OH2 5063   0.039   2.496   4.168 -0.7452 -0.0384 -0.3607
 1686TIP3    H1 5064   0.130   2.472   4.152 -0.8639  0.5736 -2.1005
 1686TIP3    H2 5065   0.023   2.469   4.259  0.8585 -1.0714 -0.3448
 1687TIP3   OH2 5066   2.716   4.814   3.647 -0.1292 -0.1399  0.0631
 1687TIP3    H1 5067   2.625   4.802   3.619 -0.8329 -0.2559  2.2112
 1687TIP3    H2 5068   2.713   4.890   3.705  1.4558  0.8024 -0.9989
 1688TIP3   OH2 5069   1.746   4.524   0.263  0.4275  0.4156  0.3430
 1688TIP3    H1 5070   1.790   4.441   0.280 -1.7981 -0.6080  1.5833
 1688TIP3    H2 5071   1.767   4.544   0.172  0.5761 -1.7993 -0.1649
 1689TIP3   OH2 5072   2.854   0.211   5.100  0.0985 -0.0395 -0.2799
 1689TIP3    H1 5073   2.794   0.258   5.157 -0.8445 -1.5109  0.0134
 1689TIP3    H2 5074   2.877   0.273   5.031  0.3940  1.4160  1.0831
 1690TIP3   OH2 5075   3.077   1.365   4.978  0.0444  0.0035  0.0436
 1690TIP3    H1 5076   3.025   1.445   4.975 -1.5267 -0.9253  0.9882
 1690TIP3    H2 5077   3.095   1.345   4.887 -0.7505  0.6871 -0.2808
 1691TIP3   OH2 5078   3.617   0.168   4.249  0.0798 -0.5075 -0.5012
 1691TIP3    H1 5079   3.526   0.166   4.277  0.1775  1.3203  0.1067
 1691TIP3    H2 5080   3.613   0.184   4.154 -0.2506 -0.2137 -0.4392
 1692TIP3   OH2 5081   1.670   5.627   0.900  0.2899 -0.4402  0.2727
 1692TIP3    H1 5082   1.632   5.711   0.926  1.7863 -0.0844  1.4052
 1692TIP3    H2 5083   1.759   5.649   0.871  0.6316 -1.6059  0.4152
 1693TIP3   OH2 5084   1.932   4.938   1.603 -0.3458 -0.1171  0.2652
 1693TIP3    H1 5085   1.991   4.872   1.567  0.9623  0.5644  1.0796
 1693TIP3    H2 5086   1.904   4.989   1.527 -1.7248 -1.8009 -0.4475
 1694TIP3   OH2 5087   2.774   5.684   3.898  0.4287  0.2112  0.2036
 1694TIP3    H1 5088   2.811   5.716   3.980 -1.6892 -0.4095  1.4864
 1694TIP3    H2 5089   2.806   5.745   3.831  2.6691  0.3974  1.3637
 1695TIP3   OH2 5090   3.619   2.140   4.553  0.0585  0.9805  0.2299
 1695TIP3    H1 5091   3.699   2.177   4.589  0.5668  0.4109 -0.3087
 1695TIP3    H2 5092   3.639   2.122   4.462 -0.6726  0.8073  0.0965
 1696TIP3   OH2 5093   2.430   1.111   1.153 -0.0400  0.2600 -0.0191
 1696TIP3    H1 5094   2.355   1.099   1.094 -0.1081  0.3099  0.0576
 1696TIP3    H2 5095   2.422   1.042   1.218  0.7908 -0.6478 -0.8513
 1697TIP3   OH2 5096   1.786   2.949   0.986  0.1629 -0.6780 -0.0575
 1697TIP3    H1 5097   1.874   2.976   0.957 -0.0582  0.3202  0.1684
 1697TIP3    H2 5098   1.764   2.876   0.929  0.5966 -0.0740 -1.0302
 1698TIP3   OH2 5099   4.189   3.618   2.454 -0.6744  0.1589  0.4314
 1698TIP3    H1 5100   4.202   3.598   2.362 -3.4611  1.2438 -0.3012
 1698TIP3    H2 5101   4.191   3.532   2.498  2.4815 -0.2499 -0.2266
 1699TIP3   OH2 5102   2.708   5.961   0.494 -0.1605 -0.1857  0.6534
 1699TIP3    H1 5103   2.733   5.968   0.401 -1.0231  0.8323  0.4847
 1699TIP3    H2 5104   2.787   5.989   0.541 -0.1370  0.5522  0.1918
 1700TIP3   OH2 5105   3.023   1.172   0.147 -0.3760  0.1561 -0.5076
 1700TIP3    H1 5106   2.931   1.147   0.136 -0.4777 -0.0394  0.6633
 1700TIP3    H2 5107   3.072   1.092   0.131 -0.5088 -0.0971  0.3536
 1701TIP3   OH2 5108   2.431   5.209   3.822  0.7398  0.2079 -0.0747
 1701TIP3    H1 5109   2.365   5.279   3.814 -0.7396 -1.1528 -0.1602
 1701TIP3    H2 5110   2.449   5.205   3.916 -0.9449 -0.8348  0.2446
 1702TIP3   OH2 5111   0.383   5.841   4.232 -0.3659 -0.5177  0.7219
 1702TIP3    H1 5112   0.326   5.883   4.169 -0.8702 -0.8329  0.9611
 1702TIP3    H2 5113   0.324   5.808   4.300  0.2718  1.1839  2.1886
 1703TIP3   OH2 5114   4.506   3.030   3.598  0.4650  0.0189 -0.5963
 1703TIP3    H1 5115   4.581   2.976   3.624  0.8471  0.7953 -0.0605
 1703TIP3    H2 5116   4.431   2.984   3.635  0.8626  0.2635  0.5761
 1704TIP3   OH2 5117   3.350   2.778   4.971 -0.2911 -0.0487  0.1873
 1704TIP3    H1 5118   3.350   2.798   5.065 -1.2598  0.3380  0.1220
 1704TIP3    H2 5119   3.428   2.823   4.937 -1.4999  2.3314  0.3409
 1705TIP3   OH2 5120   2.923   3.578   0.160 -0.2668 -0.5515  0.0008
 1705TIP3    H1 5121   2.890   3.636   0.229 -1.2657 -0.8975 -0.1647
 1705TIP3    H2 5122   2.927   3.634   0.082 -3.0903 -1.0851 -0.6448
 1706TIP3   OH2 5123   4.342   4.296   3.531  0.5377  0.2730  0.9299
 1706TIP3    H1 5124   4.277   4.231   3.559  1.3238 -0.0715  2.0856
 1706TIP3    H2 5125   4.368   4.268   3.443 -1.0933  0.6182  0.3128
 1707TIP3   OH2 5126   4.541   3.630   3.024  0.0265 -0.7358 -0.4956
 1707TIP3    H1 5127   4.589   3.651   2.943 -0.6372 -1.4100 -1.0692
 1707TIP3    H2 5128   4.563   3.539   3.042  0.4520 -0.4895  0.2972
 1708TIP3   OH2 5129   3.951   0.478   2.366  0.1627 -0.0244  0.2082
 1708TIP3    H1 5130   3.982   0.568   2.371 -3.3993  1.3712  0.5523
 1708TIP3    H2 5131   4.000   0.439   2.294  1.2268  2.4753 -0.5256
 1709TIP3   OH2 5132   3.911   3.206   1.874 -0.3870  0.6587  0.0968
 1709TIP3    H1 5133   3.958   3.284   1.903  0.4440  1.1898 -2.4071
 1709TIP3    H2 5134   3.979   3.147   1.843 -1.1831  0.1415 -0.7070
 1710TIP3   OH2 5135   3.877   3.828   4.415 -0.3415 -0.7278 -0.0467
 1710TIP3    H1 5136   3.870   3.870   4.329  0.2148 -0.6919 -0.0809
 1710TIP3    H2 5137   3.798   3.774   4.422  0.5774 -2.3774 -1.4767
 1711TIP3   OH2 5138   4.614   3.353   3.073 -0.2283 -0.2365 -0.3530
 1711TIP3    H1 5139   4.681   3.287   3.053  0.3197  0.1889  0.0438
 1711TIP3    H2 5140   4.601   3.345   3.168  0.5317  0.8557 -0.1390
 1712TIP3   OH2 5141   3.553   2.293   1.125  0.1813  0.2200 -0.0192
 1712TIP3    H1 5142   3.607   2.282   1.047  2.2120 -1.1706  1.4733
 1712TIP3    H2 5143   3.527   2.204   1.149  0.6885  0.4843  1.5907
 1713TIP3   OH2 5144   3.423   1.421   5.022  0.2753 -0.5781 -0.1270
 1713TIP3    H1 5145   3.471   1.455   5.098  0.4247 -0.0121 -0.4649
 1713TIP3    H2 5146   3.376   1.497   4.988 -1.1610 -1.1993  0.4086
 1714TIP3   OH2 5147   1.892   3.608   0.241  0.0231 -0.4467 -0.3562
 1714TIP3    H1 5148   1.959   3.601   0.173 -0.5172 -0.6361 -0.8790
 1714TIP3    H2 5149   1.860   3.519   0.253 -2.1728 -0.0071 -2.2236
 1715TIP3   OH2 5150   5.439   3.913   1.338 -0.0712  0.1579  0.3447
 1715TIP3    H1 5151   5.493   3.957   1.272 -0.1361 -1.3057 -0.7175
 1715TIP3    H2 5152   5.473   3.824   1.341 -2.0301 -0.6251  0.1065
 1716TIP3   OH2 5153   6.045   1.353   3.439 -0.0783 -0.1293 -0.7376
 1716TIP3    H1 5154   6.033   1.311   3.354  0.9440 -1.7724 -0.1229
 1716TIP3    H2 5155   6.121   1.409   3.427 -0.1786 -0.0461 -1.0061
 1717TIP3   OH2 5156   5.917   2.333   1.335 -0.2576  0.4909  0.2907
 1717TIP3    H1 5157   5.965   2.415   1.333 -1.8558  1.4950  1.0629
 1717TIP3    H2 5158   5.830   2.357   1.366 -0.5225 -1.6239  1.3724
 1718TIP3   OH2 5159   2.128   3.483   1.431  0.1234  0.0246  0.0570
 1718TIP3    H1 5160   2.072   3.421   1.384  2.1670 -2.6542  0.9260
 1718TIP3    H2 5161   2.203   3.497   1.374  0.1199  1.0378  0.2743
 1719TIP3   OH2 5162   4.692   1.953   2.308 -0.0960 -0.2081 -0.4717
 1719TIP3    H1 5163   4.769   1.966   2.364  0.0180  0.3349 -0.7448
 1719TIP3    H2 5164   4.721   1.891   2.241  0.4846  0.8930 -1.2736
 1720TIP3   OH2 5165   3.817   1.053   4.575  0.0735 -0.8314 -0.1936
 1720TIP3    H1 5166   3.740   1.095   4.537  1.3949  0.4139 -1.5998
 1720TIP3    H2 5167   3.891   1.101   4.539  1.5059 -0.2172  3.1375
 1721TIP3   OH2 5168   3.668   1.963   2.341  0.0022 -0.0524  0.0414
 1721TIP3    H1 5169   3.761   1.943   2.333  0.1607 -0.3423  2.0433
 1721TIP3    H2 5170   3.624   1.898   2.286  0.8252 -2.2357  1.8107
 1722TIP3   OH2 5171   3.620   2.282   3.060 -0.4666  0.5131 -0.2891
 1722TIP3    H1 5172   3.534   2.324   3.065 -0.3602  0.7976 -0.7594
 1722TIP3    H2 5173   3.681   2.349   3.092 -0.3604  0.5082 -0.4797
 1723TIP3   OH2 5174   0.598   0.702   0.297  0.0880  0.1030  0.8080
 1723TIP3    H1 5175   0.634   0.709   0.208 -0.1397  0.4143  0.7376
 1723TIP3    H2 5176   0.518   0.753   0.294  0.2124  0.3301  1.2686
 1724TIP3   OH2 5177   2.852   2.026   3.920 -0.2533  0.7454 -0.2200
 1724TIP3    H1 5178   2.884   1.996   3.834 -1.9881  0.0487 -0.6622
 1724TIP3    H2 5179   2.931   2.046   3.969  0.9230 -1.5720 -1.0072
 1725TIP3   OH2 5180   1.062   2.683   3.879 -0.2396  0.6326 -0.4137
 1725TIP3    H1 5181   1.010   2.605   3.897  0.0062  0.5389 -0.1026
 1725TIP3    H2 5182   1.009   2.733   3.817 -0.2662  0.0861 -0.8403
 1726TIP3   OH2 5183   0.496   0.683   4.272  0.1279 -0.1519  0.4983
 1726TIP3    H1 5184   0.502   0.759   4.330  2.6625  0.1316 -0.0141
 1726TIP3    H2 5185   0.451   0.717   4.194  0.6933  0.6765  0.5167
 1727TIP3   OH2 5186   1.602   0.894   0.830  0.0935  0.6542 -0.6785
 1727TIP3    H1 5187   1.526   0.851   0.870  1.0042 -0.4160 -0.0407
 1727TIP3    H2 5188   1.651   0.929   0.905  1.9892 -1.6485 -0.7372
 1728TIP3   OH2 5189   6.319   4.162   3.135 -0.3765 -0.1317  0.3638
 1728TIP3    H1 5190   6.265   4.177   3.058  0.6044  0.0614 -0.3113
 1728TIP3    H2 5191   6.273   4.205   3.206 -1.8703 -1.2556  0.1293
 1729TIP3   OH2 5192   0.016   2.578   1.017  0.2215 -0.0302  0.2157
 1729TIP3    H1 5193  -0.023   2.643   0.959  0.2929  0.4577  0.7032
 1729TIP3    H2 5194   0.035   2.503   0.960 -1.7337 -0.4238  0.0312
 1730TIP3   OH2 5195   5.458   1.091   4.144  0.3887 -0.3519  0.0210
 1730TIP3    H1 5196   5.543   1.049   4.133  0.2002 -1.3672  1.9290
 1730TIP3    H2 5197   5.395   1.031   4.102  0.1861 -1.8327  2.2548
 1731TIP3   OH2 5198   0.646   0.257   2.688  0.2250  0.1533  0.0498
 1731TIP3    H1 5199   0.553   0.276   2.672  0.6118  1.3835 -0.9571
 1731TIP3    H2 5200   0.684   0.247   2.600  1.1546  0.3128  0.4191
 1732TIP3   OH2 5201   3.935   5.837   2.994  0.0758  0.6679  0.2353
 1732TIP3    H1 5202   3.881   5.765   2.965  0.4504 -0.1084  1.3809
 1732TIP3    H2 5203   4.023   5.800   3.004  0.2515  1.2289  0.9565
 1733TIP3   OH2 5204   1.284   1.846   0.158 -0.0552 -0.3017  0.3641
 1733TIP3    H1 5205   1.354   1.835   0.094  1.4995  1.9791  1.5467
 1733TIP3    H2 5206   1.329   1.871   0.239 -2.0640 -1.4865  1.9459
 1734TIP3   OH2 5207   5.571   5.688   3.094  0.2133  0.7892  0.4031
 1734TIP3    H1 5208   5.601   5.641   3.172 -0.2404  0.4557  0.3829
 1734TIP3    H2 5209   5.652   5.714   3.049  0.4742  0.5985  0.7540
 1735TIP3   OH2 5210   3.521   0.184   0.789 -0.3586 -0.6881  0.1624
 1735TIP3    H1 5211   3.603   0.148   0.822  0.7656  0.6308 -1.0445
 1735TIP3    H2 5212   3.500   0.130   0.713  0.3381  0.0089 -0.5467
 1736TIP3   OH2 5213   5.654   5.919   1.237  0.9155  0.3392  0.2199
 1736TIP3    H1 5214   5.574   5.948   1.282  1.4525  0.5175  1.0967
 1736TIP3    H2 5215   5.639   5.941   1.145 -0.6863 -1.0282  0.0913
 1737TIP3   OH2 5216   2.127   5.597   3.219 -0.1853  0.0175 -0.2037
 1737TIP3    H1 5217   2.091   5.561   3.300  0.5928 -1.1005 -0.3452
 1737TIP3    H2 5218   2.203   5.543   3.200  0.1191  0.7880 -1.2497
 1738TIP3   OH2 5219   6.096   5.199   4.434 -0.3009 -0.0042 -0.3541
 1738TIP3    H1 5220   6.017   5.253   4.434 -0.3506  0.0485  2.7139
 1738TIP3    H2 5221   6.167   5.260   4.454  0.5392 -0.1647 -2.4807
 1739TIP3   OH2 5222   1.855   1.091   0.126  0.1976  0.4886 -0.0824
 1739TIP3    H1 5223   1.904   1.144   0.190  1.6375  0.9484 -1.5005
 1739TIP3    H2 5224   1.921   1.059   0.065 -0.8541 -1.7295 -0.1573
 1740TIP3   OH2 5225   2.821   4.641   0.659 -0.4280  0.0157  0.0541
 1740TIP3    H1 5226   2.874   4.671   0.733  0.1136 -0.9728  0.0947
 1740TIP3    H2 5227   2.735   4.623   0.696 -0.5037  0.6427  0.1969
 1741TIP3   OH2 5228   5.761   3.430   0.236  0.1526 -0.0669  0.1352
 1741TIP3    H1 5229   5.675   3.391   0.222  0.7826 -1.1541 -0.8292
 1741TIP3    H2 5230   5.792   3.393   0.319  0.9768 -2.1248 -1.0325
 1742TIP3   OH2 5231   3.110   2.440   0.228  0.5652  0.1233  0.0884
 1742TIP3    H1 5232   3.146   2.519   0.189  2.1016 -0.5062  0.1579
 1742TIP3    H2 5233   3.168   2.370   0.199 -1.1456 -1.1190 -0.5507
 1743TIP3   OH2 5234   5.429   2.855   4.220 -0.2556  0.3511 -0.5651
 1743TIP3    H1 5235   5.349   2.805   4.233 -0.7504  1.4124  0.6127
 1743TIP3    H2 5236   5.487   2.825   4.290  0.1807  0.0195 -1.0551
 1744TIP3   OH2 5237   4.604   3.656   0.388 -0.0743  0.0039  0.1180
 1744TIP3    H1 5238   4.635   3.632   0.475  0.2444  2.1090  0.6197
 1744TIP3    H2 5239   4.509   3.645   0.393  0.1463 -4.1403 -0.7051
 1745TIP3   OH2 5240   1.705   2.810   2.046 -0.2615  0.0383 -0.5176
 1745TIP3    H1 5241   1.695   2.721   2.081 -0.6418 -0.5059 -1.9293
 1745TIP3    H2 5242   1.794   2.835   2.069  0.2264 -1.1541 -1.0228
 1746TIP3   OH2 5243   2.613   0.386   2.388 -0.9339 -0.0248  0.2430
 1746TIP3    H1 5244   2.565   0.436   2.323 -0.0971  0.2980 -0.1433
 1746TIP3    H2 5245   2.555   0.382   2.464 -1.3446  0.8198 -0.0223
 1747TIP3   OH2 5246   3.675   1.283   0.013 -0.0551  0.0100 -0.2149
 1747TIP3    H1 5247   3.673   1.213   0.079  1.0095  0.6332  0.5141
 1747TIP3    H2 5248   3.584   1.296  -0.011 -0.5168  0.0131  1.4224
 1748TIP3   OH2 5249   0.174   5.191   2.950 -0.1896 -0.0120 -0.0960
 1748TIP3    H1 5250   0.211   5.106   2.926 -0.8497  0.2575 -2.3047
 1748TIP3    H2 5251   0.118   5.215   2.876  0.6651  2.7655  0.0234
 1749TIP3   OH2 5252   6.072   3.880   5.044 -0.2612  0.4120  0.1957
 1749TIP3    H1 5253   6.138   3.914   5.104 -0.3668 -1.2541  1.2977
 1749TIP3    H2 5254   5.995   3.935   5.059 -0.3463 -0.1007  1.7533
 1750TIP3   OH2 5255   2.214   2.831   2.991 -0.2248  0.3306 -0.4608
 1750TIP3    H1 5256   2.216   2.736   2.994 -0.9952  0.2444 -1.5773
 1750TIP3    H2 5257   2.178   2.858   3.076 -1.8711 -0.4991 -0.8518
 1751TIP3   OH2 5258   2.815   2.621   1.531  0.0984 -0.0191  0.4731
 1751TIP3    H1 5259   2.796   2.594   1.621 -2.0158 -0.7885 -0.1389
 1751TIP3    H2 5260   2.861   2.704   1.540  0.7589 -0.5388  2.2784
 1752TIP3   OH2 5261   4.570   3.520   1.917 -0.2216  0.0341 -0.2574
 1752TIP3    H1 5262   4.565   3.572   1.997  2.3005  0.8512 -0.5603
 1752TIP3    H2 5263   4.610   3.578   1.853 -2.6881 -0.3945 -2.3768
 1753TIP3   OH2 5264   4.462   0.902   0.378 -0.0783  0.2859 -0.5154
 1753TIP3    H1 5265   4.460   0.834   0.445  1.3749 -1.3511 -2.0512
 1753TIP3    H2 5266   4.515   0.972   0.416  0.8452 -0.6805  0.0019
 1754TIP3   OH2 5267   2.750   3.567   2.517 -0.2617 -0.0605 -0.1788
 1754TIP3    H1 5268   2.676   3.540   2.462  1.0149 -0.9627 -1.5548
 1754TIP3    H2 5269   2.820   3.584   2.454  1.0237 -0.3449  1.1458
 1755TIP3   OH2 5270   0.944   5.340   4.482 -0.4805 -0.1082  0.5122
 1755TIP3    H1 5271   0.862   5.319   4.438 -0.4716 -0.4656  0.6692
 1755TIP3    H2 5272   1.012   5.293   4.433 -0.3490  0.2892  0.3030
 1756TIP3   OH2 5273   0.874   3.739   2.712 -0.5005 -0.5508  0.1513
 1756TIP3    H1 5274   0.883   3.829   2.743 -0.5606 -0.9360  1.3196
 1756TIP3    H2 5275   0.872   3.747   2.617 -3.0411  0.9430  0.2201
 1757TIP3   OH2 5276   2.409   1.888   3.417 -0.4628  0.0599 -0.2663
 1757TIP3    H1 5277   2.323   1.881   3.457 -0.1265 -0.9954  0.3211
 1757TIP3    H2 5278   2.451   1.961   3.463 -1.3871  1.2703 -1.2704
 1758TIP3   OH2 5279   2.515   5.989   1.263 -0.3418 -0.1967 -0.2644
 1758TIP3    H1 5280   2.508   6.032   1.349 -0.2203  1.4018 -1.0075
 1758TIP3    H2 5281   2.432   5.943   1.252 -0.0511 -1.0965  1.0272
 1759TIP3   OH2 5282   0.263   5.395   0.345  0.3388 -0.4705 -0.0872
 1759TIP3    H1 5283   0.331   5.328   0.351  0.8878  0.2002  1.7708
 1759TIP3    H2 5284   0.182   5.346   0.330  1.1128 -1.3148 -1.7829
 1760TIP3   OH2 5285   5.934   5.225   1.542 -0.4078  0.0283 -0.4234
 1760TIP3    H1 5286   5.931   5.248   1.449  1.0812 -0.3843 -0.6020
 1760TIP3    H2 5287   5.904   5.303   1.587 -0.5933  0.4347 -1.2291
 1761TIP3   OH2 5288   4.574   5.223   4.099  0.1604  0.0822 -0.6488
 1761TIP3    H1 5289   4.500   5.164   4.117 -1.0640  1.7043 -0.0223
 1761TIP3    H2 5290   4.607   5.245   4.186 -0.2417  1.2934 -0.7874
 1762TIP3   OH2 5291   0.870   5.484   0.802  0.3155 -0.3724  0.5026
 1762TIP3    H1 5292   0.777   5.479   0.779 -0.0666  0.8003  1.6764
 1762TIP3    H2 5293   0.899   5.393   0.802 -0.9279 -0.7962  0.5061
 1763TIP3   OH2 5294   6.242   1.129   4.726 -0.3457 -0.0789  0.1416
 1763TIP3    H1 5295   6.332   1.109   4.700  0.3043  1.2055  1.3254
 1763TIP3    H2 5296   6.191   1.118   4.645  1.0072  0.0763 -0.7603
 1764TIP3   OH2 5297   4.190   2.499   1.820 -0.6734  0.0431 -0.9944
 1764TIP3    H1 5298   4.198   2.588   1.785  0.5338  0.5937  0.5917
 1764TIP3    H2 5299   4.097   2.491   1.841 -0.5664  1.5662  0.3304
 1765TIP3   OH2 5300   2.422   1.337   4.307 -0.1581 -0.0182  0.0807
 1765TIP3    H1 5301   2.363   1.322   4.233 -0.7566 -0.2855  0.6044
 1765TIP3    H2 5302   2.402   1.266   4.368  0.9648 -0.3378  0.1154
 1766TIP3   OH2 5303   0.848   1.726   1.340  0.4567 -0.1425  0.1722
 1766TIP3    H1 5304   0.904   1.799   1.367 -0.5614  0.1741  1.5338
 1766TIP3    H2 5305   0.786   1.765   1.278  0.4202 -0.0243  0.2823
 1767TIP3   OH2 5306   4.406   1.089   0.744  0.0240  0.1598 -0.3621
 1767TIP3    H1 5307   4.444   1.091   0.832  0.0329  2.2443 -0.3679
 1767TIP3    H2 5308   4.443   1.010   0.703  1.4070  0.1281  0.8878
 1768TIP3   OH2 5309   3.974   1.468   1.168 -0.4978  0.4173 -0.1364
 1768TIP3    H1 5310   4.063   1.468   1.134 -0.3138  1.2472  0.3046
 1768TIP3    H2 5311   3.969   1.548   1.221 -1.5206  0.4208 -0.2135
 1769TIP3   OH2 5312   5.697   5.964   2.972 -0.0750 -0.3728  0.6345
 1769TIP3    H1 5313   5.718   6.018   2.896 -2.1503 -1.9404 -1.2109
 1769TIP3    H2 5314   5.763   5.895   2.972 -0.5755 -0.8789 -0.3682
 1770TIP3   OH2 5315   0.183   3.451   3.401 -0.0656  0.3207 -0.1317
 1770TIP3    H1 5316   0.221   3.404   3.476 -2.0872 -1.1233  0.0435
 1770TIP3    H2 5317   0.191   3.391   3.328 -2.1569 -0.1300 -0.0402
 1771TIP3   OH2 5318   3.833   4.601   3.137 -0.4077  0.2229  0.0499
 1771TIP3    H1 5319   3.892   4.525   3.142 -2.9205 -1.8654 -0.1176
 1771TIP3    H2 5320   3.814   4.610   3.044 -2.6857 -1.1647  0.2964
 1772TIP3   OH2 5321   4.401   3.894   1.575 -0.0690  0.3812 -0.0495
 1772TIP3    H1 5322   4.438   3.812   1.607  2.2915  0.0768 -3.0265
 1772TIP3    H2 5323   4.359   3.870   1.492  0.8641  2.1195 -1.0986
 1773TIP3   OH2 5324   0.092   5.103   1.160 -0.3144  0.0767 -0.0455
 1773TIP3    H1 5325   0.134   5.047   1.226 -0.8166  1.0638  1.1578
 1773TIP3    H2 5326   0.056   5.176   1.210  1.0769  1.9586 -1.6354
 1774TIP3   OH2 5327   5.434   0.622   5.070 -0.1208  0.0093  0.3306
 1774TIP3    H1 5328   5.425   0.626   5.166 -0.6960  2.5114  0.2457
 1774TIP3    H2 5329   5.350   0.656   5.037  0.0100 -0.9630 -1.0821
 1775TIP3   OH2 5330   4.193   1.725   0.919 -0.1397  0.5291 -0.1520
 1775TIP3    H1 5331   4.186   1.720   0.824  1.8573 -0.8097 -0.2799
 1775TIP3    H2 5332   4.157   1.642   0.951 -1.4452  1.2542  0.3441
 1776TIP3   OH2 5333   5.924   3.251   1.502 -0.3945  0.3301  0.5392
 1776TIP3    H1 5334   5.884   3.264   1.588 -2.6616  1.6548 -0.6258
 1776TIP3    H2 5335   5.913   3.157   1.485 -1.8564  0.4242  0.8205
 1777TIP3   OH2 5336   4.476   5.779   3.148  0.6041 -0.3947 -0.1202
 1777TIP3    H1 5337   4.472   5.756   3.055  0.3369 -1.4908  0.1611
 1777TIP3    H2 5338   4.429   5.863   3.153  0.1174 -0.6075 -0.8763
 1778TIP3   OH2 5339   2.839   3.751   3.476 -0.1259  0.3597 -0.2830
 1778TIP3    H1 5340   2.754   3.723   3.509 -0.4430  1.3355 -0.2358
 1778TIP3    H2 5341   2.878   3.672   3.439 -2.0052  0.3338 -2.4096
 1779TIP3   OH2 5342   4.638   3.054   2.363 -0.0460  0.2610 -0.3619
 1779TIP3    H1 5343   4.650   2.976   2.308 -0.9794  0.4085 -0.8015
 1779TIP3    H2 5344   4.607   3.020   2.447 -2.3986  0.2193 -1.1653
 1780TIP3   OH2 5345   5.184   0.507   1.221  0.0390  0.0214 -0.0168
 1780TIP3    H1 5346   5.182   0.421   1.262  0.9643  0.8702  1.9406
 1780TIP3    H2 5347   5.276   0.531   1.217 -0.2148  1.0518 -0.2410
 1781TIP3   OH2 5348   4.985   1.093   4.198  0.4818 -0.8395  0.1022
 1781TIP3    H1 5349   4.936   1.029   4.249  0.2708 -0.2282  0.6756
 1781TIP3    H2 5350   5.077   1.066   4.207  0.4575 -0.6914  0.8912
 1782TIP3   OH2 5351   1.988   5.446   2.653  0.4559 -0.0006  0.7869
 1782TIP3    H1 5352   2.053   5.444   2.582  0.4413 -0.8807  0.7874
 1782TIP3    H2 5353   1.907   5.419   2.611  0.0054  1.3579  0.7280
 1783TIP3   OH2 5354   3.722   5.827   2.662 -0.6497  0.0697 -0.1852
 1783TIP3    H1 5355   3.684   5.765   2.600 -1.4074  1.1796 -0.8645
 1783TIP3    H2 5356   3.648   5.861   2.711 -0.4538  1.5319 -0.8444
 1784TIP3   OH2 5357   2.205   2.748   0.853  0.5363 -0.2367  0.1035
 1784TIP3    H1 5358   2.285   2.720   0.810  0.2990  1.2143 -1.4023
 1784TIP3    H2 5359   2.151   2.669   0.858  2.0767 -1.2634  1.2749
 1785TIP3   OH2 5360   4.105   0.088   4.816  0.1620  0.2652  0.2573
 1785TIP3    H1 5361   4.014   0.064   4.796  0.4193  0.0403 -0.6993
 1785TIP3    H2 5362   4.156   0.011   4.790  0.4905 -0.2732  2.3229
 1786TIP3   OH2 5363   1.551   0.277   1.124 -0.1998 -0.0271 -0.3212
 1786TIP3    H1 5364   1.503   0.202   1.089 -2.2671  0.7372  0.7295
 1786TIP3    H2 5365   1.644   0.253   1.113 -0.7172 -0.9117 -3.7936
 1787TIP3   OH2 5366   0.387   1.672   1.945  0.3887  0.1211  0.4548
 1787TIP3    H1 5367   0.291   1.665   1.950 -0.0115  0.1532 -3.7301
 1787TIP3    H2 5368   0.405   1.764   1.965 -0.4456  0.1407  1.1851
 1788TIP3   OH2 5369   1.262   1.123   2.092  0.1275  0.5183 -0.5406
 1788TIP3    H1 5370   1.295   1.092   2.177 -0.3430 -0.1252 -0.5835
 1788TIP3    H2 5371   1.245   1.216   2.105  0.1642  0.4471  0.0399
 1789TIP3   OH2 5372   2.181   0.920   4.555  0.5132  0.0055  0.4142
 1789TIP3    H1 5373   2.249   0.863   4.591 -0.3421 -2.1914 -1.2389
 1789TIP3    H2 5374   2.116   0.926   4.625  1.0257 -0.3453  0.9349
 1790TIP3   OH2 5375   1.643   3.943   1.824  0.0874  0.2765  0.0099
 1790TIP3    H1 5376   1.726   3.899   1.842  0.2287  0.9147  0.9972
 1790TIP3    H2 5377   1.578   3.893   1.874  0.1679  0.8492  0.7058
 1791TIP3   OH2 5378   6.321   3.792   3.939 -0.4302 -0.3946 -0.2255
 1791TIP3    H1 5379   6.290   3.878   3.910  0.8743  0.5305  0.9598
 1791TIP3    H2 5380   6.316   3.795   4.035  0.9972 -1.0741 -0.0997
 1792TIP3   OH2 5381   5.667   4.479   4.064 -0.0097 -0.1051 -0.1654
 1792TIP3    H1 5382   5.664   4.389   4.098 -1.1331 -0.2967 -0.7101
 1792TIP3    H2 5383   5.607   4.528   4.120 -0.1079  0.0890 -0.4383
 1793TIP3   OH2 5384   2.036   5.056   3.524  0.1602  0.0536 -0.2363
 1793TIP3    H1 5385   2.068   5.119   3.459 -1.2402  0.0237 -0.9843
 1793TIP3    H2 5386   2.011   4.980   3.472 -2.6673  0.6733  0.0642
 1794TIP3   OH2 5387   0.258   0.709   4.064 -0.4709  0.1969 -0.1898
 1794TIP3    H1 5388   0.261   0.788   4.009 -0.2875  0.3105 -0.0179
 1794TIP3    H2 5389   0.179   0.721   4.118 -0.7570 -0.0030 -0.5541
 1795TIP3   OH2 5390   2.592   0.826   4.961 -0.6841  0.0933  0.3272
 1795TIP3    H1 5391   2.643   0.751   4.991 -0.0125  0.2645 -0.3564
 1795TIP3    H2 5392   2.621   0.899   5.018  1.4282  0.6896 -1.3589
 1796TIP3   OH2 5393   5.839   3.213   0.771 -0.5914 -0.0480 -0.2410
 1796TIP3    H1 5394   5.812   3.290   0.821 -1.2269 -0.6381  0.3359
 1796TIP3    H2 5395   5.926   3.192   0.805  0.0201  0.9927 -1.0947
 1797TIP3   OH2 5396   3.983   1.179   4.421 -0.3165  0.0071 -0.4504
 1797TIP3    H1 5397   4.069   1.222   4.423 -0.5596  0.4980 -0.6101
 1797TIP3    H2 5398   3.934   1.226   4.354 -0.9337  0.1543  0.0953
 1798TIP3   OH2 5399   2.926   1.229   3.386 -0.1772 -0.0223 -0.3985
 1798TIP3    H1 5400   2.917   1.195   3.297  2.7116  0.6218 -1.0401
 1798TIP3    H2 5401   2.926   1.152   3.442 -0.8605 -0.5109 -1.0603
 1799TIP3   OH2 5402   4.688   0.008   3.813  0.5492 -0.0556  0.2740
 1799TIP3    H1 5403   4.768   0.046   3.849  0.6122  0.8024 -0.7233
 1799TIP3    H2 5404   4.706  -0.002   3.720  0.5147 -2.5580  0.4805
 1800TIP3   OH2 5405   4.039   0.184   0.064 -0.2165 -0.0024 -0.2936
 1800TIP3    H1 5406   4.040   0.272   0.101  0.9311  0.0705 -0.4795
 1800TIP3    H2 5407   3.959   0.144   0.099  0.8546  0.0034  2.4020
 1801TIP3   OH2 5408   0.070   1.545   1.718 -0.1602 -0.3063  0.2883
 1801TIP3    H1 5409  -0.014   1.517   1.681 -0.6327 -0.1770  1.2359
 1801TIP3    H2 5410   0.103   1.610   1.656 -1.0135  0.0323  0.1815
 1802TIP3   OH2 5411   4.952   5.379   0.490 -0.1972 -1.1307  0.5150
 1802TIP3    H1 5412   4.943   5.443   0.420 -1.2052 -1.9164 -0.0954
 1802TIP3    H2 5413   4.909   5.301   0.457  1.5649 -2.3646  0.9721
 1803TIP3   OH2 5414   5.230   3.301   1.981  0.0515 -0.2517 -0.0458
 1803TIP3    H1 5415   5.201   3.354   1.907 -2.3821  0.6130  1.4256
 1803TIP3    H2 5416   5.165   3.318   2.049  1.6427 -1.8051  1.9522
 1804TIP3   OH2 5417   5.051   2.567   4.831  0.1466  0.5915  0.1561
 1804TIP3    H1 5418   4.991   2.615   4.889 -0.8924 -0.9032  0.3845
 1804TIP3    H2 5419   5.079   2.631   4.767 -0.6787  1.6597  0.8289
 1805TIP3   OH2 5420   5.051   1.079   1.203  0.2656 -0.1725  0.6639
 1805TIP3    H1 5421   5.114   1.150   1.192  1.1109 -0.8676  0.8446
 1805TIP3    H2 5422   5.074   1.039   1.287  0.0967 -0.9287  0.3649
 1806TIP3   OH2 5423   6.061   2.930   4.035  0.4360 -0.0660 -0.0803
 1806TIP3    H1 5424   6.150   2.933   4.000  0.5609  3.0713  0.1811
 1806TIP3    H2 5425   6.008   2.900   3.962  1.1929  2.7137 -1.9627
 1807TIP3   OH2 5426   3.015   0.420   4.957  0.8368  0.1631 -0.1746
 1807TIP3    H1 5427   3.094   0.418   4.903  0.6980  1.7572 -0.4883
 1807TIP3    H2 5428   2.991   0.512   4.961 -1.5659 -0.3592 -0.8895
 1808TIP3   OH2 5429   3.112   1.768   1.934 -0.3032 -0.0873  0.1005
 1808TIP3    H1 5430   3.190   1.718   1.910  0.9035  1.0719  1.3940
 1808TIP3    H2 5431   3.050   1.752   1.863  1.3269 -0.5787 -1.2735
 1809TIP3   OH2 5432   2.018   1.764   3.062 -0.7447 -0.1739  0.4924
 1809TIP3    H1 5433   2.061   1.817   2.996  1.2298 -0.4441  1.4743
 1809TIP3    H2 5434   1.926   1.789   3.058 -0.6276  0.1034 -2.0350
 1810TIP3   OH2 5435   2.816   3.334   0.152 -0.6222 -0.9445 -0.4959
 1810TIP3    H1 5436   2.762   3.348   0.075 -1.5486  0.2258  0.3344
 1810TIP3    H2 5437   2.852   3.420   0.172  0.6966 -1.5007 -0.3979
 1811TIP3   OH2 5438   4.278   1.620   4.300  0.0700  0.6429 -0.1026
 1811TIP3    H1 5439   4.249   1.643   4.388  3.2782  1.5542  0.8484
 1811TIP3    H2 5440   4.349   1.557   4.313  0.0647  0.1537 -2.0823
 1812TIP3   OH2 5441   2.029   0.488   0.412  0.3166 -0.2549  0.1982
 1812TIP3    H1 5442   2.014   0.493   0.318 -0.6572 -2.5645  0.1386
 1812TIP3    H2 5443   2.118   0.518   0.425  0.8369 -0.9000 -1.6266
 1813TIP3   OH2 5444   0.286   0.557   2.324 -0.3090  0.3724  0.2789
 1813TIP3    H1 5445   0.354   0.496   2.297 -1.4568 -0.6024 -0.5145
 1813TIP3    H2 5446   0.237   0.576   2.244 -2.2989 -0.6650  1.1784
 1814TIP3   OH2 5447   0.426   4.837   3.953 -0.1351  0.0784  0.3251
 1814TIP3    H1 5448   0.365   4.875   4.017 -0.8468 -0.0511 -0.2521
 1814TIP3    H2 5449   0.441   4.907   3.890  0.2137  0.0650  0.3923
 1815TIP3   OH2 5450   4.271   2.195   1.975 -0.5341 -0.0343 -0.2663
 1815TIP3    H1 5451   4.316   2.118   2.010  0.9802  0.4394 -1.1110
 1815TIP3    H2 5452   4.335   2.266   1.984 -1.2842  0.7605 -1.0565
 1816TIP3   OH2 5453   3.083   3.377   0.983 -0.1087 -0.3012  0.2149
 1816TIP3    H1 5454   3.039   3.315   0.925  2.3774  0.1085 -2.3688
 1816TIP3    H2 5455   3.077   3.461   0.938  0.8276  0.3210  1.1939
 1817TIP3   OH2 5456   4.985   2.110   0.748 -0.6748 -0.0849  0.3951
 1817TIP3    H1 5457   5.050   2.046   0.720 -0.3924 -0.0843  1.0166
 1817TIP3    H2 5458   4.972   2.092   0.841 -0.2223  1.0548  0.7063
 1818TIP3   OH2 5459   2.825   4.330   1.432 -0.7398 -0.5053 -0.3740
 1818TIP3    H1 5460   2.758   4.385   1.472  0.9431  0.3962  1.4308
 1818TIP3    H2 5461   2.817   4.345   1.338 -1.8633  1.0030 -0.0652
 1819TIP3   OH2 5462   3.256   1.518   2.737 -0.1360  0.2850 -0.2638
 1819TIP3    H1 5463   3.205   1.438   2.738 -0.5585  0.5416  0.9542
 1819TIP3    H2 5464   3.195   1.585   2.705  0.3060  0.0819 -1.5753
 1820TIP3   OH2 5465   0.445   5.620   3.699 -0.3086 -0.1270  0.7471
 1820TIP3    H1 5466   0.397   5.539   3.683 -1.7240  0.8835 -0.3942
 1820TIP3    H2 5467   0.537   5.594   3.698 -0.6348 -1.4680 -1.4072
 1821TIP3   OH2 5468   5.997   1.299   1.287  0.6294  0.5630  0.0586
 1821TIP3    H1 5469   5.904   1.281   1.304  0.9816 -0.5772  0.9537
 1821TIP3    H2 5470   6.039   1.213   1.290  1.6276  0.9817 -1.0348
 1822TIP3   OH2 5471   5.876   5.320   0.356  0.6252 -0.5684  0.2741
 1822TIP3    H1 5472   5.902   5.229   0.340  1.0922 -0.3876 -0.0232
 1822TIP3    H2 5473   5.780   5.316   0.363  0.6833 -1.1706  0.8719
 1823TIP3   OH2 5474   1.889   5.073   2.493  0.0811 -0.2411 -0.2240
 1823TIP3    H1 5475   1.795   5.082   2.511  0.0495 -0.5111 -0.2546
 1823TIP3    H2 5476   1.927   5.046   2.576  0.2291  0.5003 -0.0396
 1824TIP3   OH2 5477   3.904   4.933   0.253  0.4868  0.0414 -0.3640
 1824TIP3    H1 5478   3.896   4.845   0.215  0.2944  0.3045 -0.9387
 1824TIP3    H2 5479   3.849   4.988   0.198  2.4207  0.9880 -1.4522
 1825TIP3   OH2 5480   6.042   3.804   4.239 -0.1540 -0.2177 -0.4791
 1825TIP3    H1 5481   6.005   3.747   4.172  0.1057 -0.4617 -0.4174
 1825TIP3    H2 5482   5.968   3.827   4.295  0.1887 -2.8696  1.2364
 1826TIP3   OH2 5483   0.166   1.756   2.300  0.0449 -0.4421 -0.3100
 1826TIP3    H1 5484   0.107   1.735   2.228  0.3205  0.4926 -0.8224
 1826TIP3    H2 5485   0.231   1.815   2.262 -1.1965  2.0715  1.2000
 1827TIP3   OH2 5486   2.301   0.563   0.457  0.0402  0.0809 -0.4564
 1827TIP3    H1 5487   2.359   0.607   0.395  0.6580  0.6579  0.4957
 1827TIP3    H2 5488   2.346   0.571   0.541  0.1062 -2.2537 -0.2019
 1828TIP3   OH2 5489   3.925   4.496   1.627  0.2454  0.1334 -0.0176
 1828TIP3    H1 5490   3.895   4.526   1.713  0.6587  0.4357  0.0234
 1828TIP3    H2 5491   3.978   4.419   1.645  0.6355  0.4091  0.0375
 1829TIP3   OH2 5492   5.648   2.517   3.985 -0.3502  0.1500  0.2486
 1829TIP3    H1 5493   5.652   2.581   3.914 -1.3642  0.5621  0.5427
 1829TIP3    H2 5494   5.556   2.494   3.992  0.0010 -1.3201  0.1926
 1830TIP3   OH2 5495   3.073   1.371   0.791  0.2613  0.3848 -0.4872
 1830TIP3    H1 5496   3.035   1.363   0.878 -0.9168 -1.9973 -1.1241
 1830TIP3    H2 5497   3.168   1.374   0.806  0.1160 -0.7605  0.8645
 1831TIP3   OH2 5498   5.687   4.892   4.111  0.1092  0.2173 -0.3486
 1831TIP3    H1 5499   5.755   4.951   4.144  0.6961 -0.2433 -0.6991
 1831TIP3    H2 5500   5.718   4.804   4.133 -0.8740  0.0426  0.3850
 1832TIP3   OH2 5501   2.390   2.269   3.381 -0.4984 -0.2558  0.6172
 1832TIP3    H1 5502   2.452   2.269   3.308 -1.6199  0.2430 -0.3799
 1832TIP3    H2 5503   2.409   2.189   3.429 -0.5528 -1.2608 -0.9644
 1833TIP3   OH2 5504   2.082   1.319   0.955  0.0959 -0.2404  0.5097
 1833TIP3    H1 5505   2.058   1.244   1.010 -0.3656  0.1062  0.7811
 1833TIP3    H2 5506   2.133   1.280   0.883 -1.0169 -0.9533  0.0791
 1834TIP3   OH2 5507   6.049   2.443   2.782 -0.9151  0.2627  0.9810
 1834TIP3    H1 5508   6.023   2.525   2.824  0.2131  0.4167  1.4272
 1834TIP3    H2 5509   6.085   2.470   2.697 -3.0932 -0.0392 -0.0877
 1835TIP3   OH2 5510   2.619   2.539   2.667 -0.3615 -0.2810 -0.0733
 1835TIP3    H1 5511   2.669   2.510   2.591 -1.1318 -1.2475 -0.2396
 1835TIP3    H2 5512   2.530   2.507   2.651 -0.6238 -0.1679  1.0479
 1836TIP3   OH2 5513   4.632   4.013   5.171 -0.3000 -0.0101 -0.3536
 1836TIP3    H1 5514   4.656   4.056   5.089 -0.1845  0.6012 -0.0043
 1836TIP3    H2 5515   4.606   3.925   5.145 -0.2281  0.1663 -1.0432
 1837TIP3   OH2 5516   2.614   2.168   3.836  0.1946  0.3184 -0.5576
 1837TIP3    H1 5517   2.627   2.256   3.873  1.5669 -0.3282  0.5762
 1837TIP3    H2 5518   2.689   2.117   3.867 -1.1614 -1.5851 -0.2422
 1838TIP3   OH2 5519   3.045   4.096   4.147 -0.2174 -0.2004  0.0568
 1838TIP3    H1 5520   3.078   4.185   4.157  0.3515 -0.5717  1.7316
 1838TIP3    H2 5521   3.104   4.055   4.084  1.0079 -0.0804  1.0826
 1839TIP3   OH2 5522   1.735   1.363   2.956  0.0163  0.0336 -0.2920
 1839TIP3    H1 5523   1.737   1.321   3.042  1.1666 -1.0468 -0.8172
 1839TIP3    H2 5524   1.726   1.290   2.894  1.2333  0.6053 -1.1931
 1840TIP3   OH2 5525   4.407   4.582   3.442  0.0436  0.1584  0.7653
 1840TIP3    H1 5526   4.425   4.674   3.424  0.3294  0.3280  1.8496
 1840TIP3    H2 5527   4.346   4.555   3.374  0.1759  1.0750  0.2790
 1841TIP3   OH2 5528   4.853   2.656   2.233  0.6165 -0.5800 -0.1160
 1841TIP3    H1 5529   4.947   2.663   2.248  0.5164 -1.2777  0.8986
 1841TIP3    H2 5530   4.837   2.562   2.223  0.4363 -0.3308 -3.3117
 1842TIP3   OH2 5531   5.336   4.240   3.186 -0.2343  0.5992  0.3132
 1842TIP3    H1 5532   5.243   4.217   3.198 -0.0405  0.1250  0.9832
 1842TIP3    H2 5533   5.378   4.210   3.267  0.3343  1.7370  0.4520
 1843TIP3   OH2 5534   4.072   3.302   2.404 -0.3493 -0.3543 -0.0607
 1843TIP3    H1 5535   4.062   3.280   2.496 -1.7904  0.5153  0.0196
 1843TIP3    H2 5536   4.073   3.217   2.359  0.6623 -0.7918  0.7536
 1844TIP3   OH2 5537   4.335   0.544   4.995  0.1266  0.1781 -0.0894
 1844TIP3    H1 5538   4.268   0.477   4.983  0.1406  0.1112  0.1904
 1844TIP3    H2 5539   4.370   0.528   5.083  1.2511 -0.4452 -0.6338
 1845TIP3   OH2 5540   0.912   3.889   4.209  0.2016  0.3161 -0.1013
 1845TIP3    H1 5541   0.955   3.806   4.231  2.4349  1.1293 -1.1240
 1845TIP3    H2 5542   0.822   3.878   4.240  0.8071 -1.9363  1.0835
 1846TIP3   OH2 5543   3.391   0.324   0.124 -0.1472  0.1963 -0.1643
 1846TIP3    H1 5544   3.466   0.315   0.065  0.2466 -1.3516  0.5049
 1846TIP3    H2 5545   3.351   0.237   0.125 -0.6353  0.4092  1.1907
 1847TIP3   OH2 5546   3.668   4.798   4.856  0.5230 -0.4093  0.4602
 1847TIP3    H1 5547   3.650   4.858   4.784  1.4592 -0.5809  0.0691
 1847TIP3    H2 5548   3.619   4.719   4.835 -1.3362  0.4459  1.3576
 1848TIP3   OH2 5549   3.387   5.709   3.785  0.1389  0.1555  0.6079
 1848TIP3    H1 5550   3.418   5.704   3.694  1.4037 -1.1161  1.0699
 1848TIP3    H2 5551   3.312   5.650   3.788  1.2825 -1.3483  0.7983
 1849TIP3   OH2 5552   4.428   1.375   3.223  0.6117 -0.4459  0.0337
 1849TIP3    H1 5553   4.435   1.371   3.127  0.3270 -1.7363  0.0454
 1849TIP3    H2 5554   4.334   1.366   3.240  0.8080 -1.9508  0.4729
 1850TIP3   OH2 5555   1.883   2.099   0.713  0.2497 -0.0928  0.6419
 1850TIP3    H1 5556   1.855   2.052   0.792 -0.9624  0.0552  0.3158
 1850TIP3    H2 5557   1.837   2.055   0.641 -0.1091  0.9340  0.2289
 1851TIP3   OH2 5558   1.816   5.407   4.055 -0.4235  0.0304  0.2812
 1851TIP3    H1 5559   1.822   5.448   3.969  1.1732  1.4699  1.0245
 1851TIP3    H2 5560   1.733   5.439   4.091 -0.1275  1.0870  0.0673
 1852TIP3   OH2 5561   1.915   3.753   1.912 -0.1238 -0.0939  0.1971
 1852TIP3    H1 5562   1.954   3.832   1.949  1.1830 -0.4195 -0.4668
 1852TIP3    H2 5563   1.924   3.688   1.981  2.6344 -0.7982 -0.7083
 1853TIP3   OH2 5564   4.965   4.069   2.957  0.1874  0.2440  0.0573
 1853TIP3    H1 5565   4.925   4.017   3.027  2.1426  1.0429  1.9017
 1853TIP3    H2 5566   5.059   4.051   2.965  0.5090  0.7228 -2.1114
 1854TIP3   OH2 5567   2.946   0.981   1.465 -0.4824  0.4238  0.1844
 1854TIP3    H1 5568   2.935   0.998   1.371 -1.4798  0.5569  0.3172
 1854TIP3    H2 5569   2.857   0.970   1.498 -0.1561  0.6731  1.1755
 1855TIP3   OH2 5570   4.383   1.097   3.646 -0.7529  0.0382  0.2979
 1855TIP3    H1 5571   4.384   1.126   3.555  3.1722 -0.3326  0.0791
 1855TIP3    H2 5572   4.432   1.163   3.694  0.4806 -1.5793  1.4018
 1856TIP3   OH2 5573   4.613   1.623   1.260 -0.3043 -0.4207 -0.4779
 1856TIP3    H1 5574   4.642   1.542   1.219  1.7638 -0.0042  0.0227
 1856TIP3    H2 5575   4.598   1.683   1.187  0.3463 -0.5938 -0.7633
 1857TIP3   OH2 5576   3.021   1.776   1.661 -0.3686  0.2543 -0.2877
 1857TIP3    H1 5577   3.087   1.819   1.606  0.0123  1.2410  0.8847
 1857TIP3    H2 5578   3.025   1.684   1.636  0.5962  0.4991 -1.1062
 1858TIP3   OH2 5579   2.792   0.748   2.004  0.0030  0.2381  0.1593
 1858TIP3    H1 5580   2.833   0.677   1.956 -1.9938 -1.5287  0.8863
 1858TIP3    H2 5581   2.745   0.799   1.938 -0.8906 -0.8538 -0.0779
 1859TIP3   OH2 5582   5.536   1.200   3.556 -0.0111  0.0355  0.3085
 1859TIP3    H1 5583   5.619   1.243   3.577  0.1886 -0.8068  1.3454
 1859TIP3    H2 5584   5.515   1.231   3.468  1.2677  0.4729  0.1261
 1860TIP3   OH2 5585   4.326   4.931   0.028  0.3882  0.3518  0.1194
 1860TIP3    H1 5586   4.366   4.937   0.114  4.3898 -0.4971 -1.4670
 1860TIP3    H2 5587   4.297   4.840   0.021 -0.5177  0.5770  0.7171
 1861TIP3   OH2 5588   1.329   4.985   3.313  0.0029 -0.1737  0.0988
 1861TIP3    H1 5589   1.365   4.973   3.225 -1.2583  1.9036 -0.7678
 1861TIP3    H2 5590   1.242   5.022   3.299 -0.4319 -0.2354  2.2350
 1862TIP3   OH2 5591   5.391   2.020   4.622  0.3204  0.8681 -0.2629
 1862TIP3    H1 5592   5.471   2.001   4.571  0.1092 -0.2526 -0.1899
 1862TIP3    H2 5593   5.391   2.116   4.630  2.5662  0.8205  1.2009
 1863TIP3   OH2 5594   4.498   1.789   2.445  0.3204 -0.2979  0.0624
 1863TIP3    H1 5595   4.568   1.806   2.382  0.1414 -2.2242 -0.7547
 1863TIP3    H2 5596   4.511   1.854   2.514  3.3742 -1.0029  0.3075
 1864TIP3   OH2 5597   5.903   4.405   4.736 -0.1692  0.0727  0.1123
 1864TIP3    H1 5598   5.962   4.453   4.678 -1.2343  0.5308 -0.6223
 1864TIP3    H2 5599   5.958   4.381   4.811  0.9998  0.2781 -0.6450
 1865TIP3   OH2 5600   6.344   1.402   0.110 -1.0504 -0.0618 -0.0608
 1865TIP3    H1 5601   6.401   1.455   0.165  1.2341  0.1454 -2.4356
 1865TIP3    H2 5602   6.266   1.388   0.163  0.0182  2.0593  2.2785
 1866TIP3   OH2 5603   3.717   4.906   4.410  0.2094  0.3829  0.3100
 1866TIP3    H1 5604   3.654   4.850   4.364  1.7792 -0.2758 -1.1241
 1866TIP3    H2 5605   3.801   4.864   4.397  1.2018  2.1189  0.7528
 1867TIP3   OH2 5606   4.794   4.814   3.932  0.6269  0.2054  0.3579
 1867TIP3    H1 5607   4.762   4.876   3.997  1.9122  0.1781  1.0598
 1867TIP3    H2 5608   4.889   4.816   3.942  0.7032 -2.6344  1.1528
 1868TIP3   OH2 5609   1.161   5.497   1.506  0.4752  0.0514  0.4904
 1868TIP3    H1 5610   1.065   5.490   1.515  0.5162 -0.1353  0.8091
 1868TIP3    H2 5611   1.194   5.416   1.545  0.9371  1.5394  3.4779
 1869TIP3   OH2 5612   6.098   0.187   1.837  0.7992  0.1333  0.4759
 1869TIP3    H1 5613   6.057   0.246   1.775  0.4888  1.2334  1.6775
 1869TIP3    H2 5614   6.051   0.104   1.826 -0.0540  0.6532  0.0855
 1870TIP3   OH2 5615   0.709   3.672   3.186 -0.1554 -0.1174  0.7249
 1870TIP3    H1 5616   0.694   3.721   3.267 -0.4381 -0.2109  0.7304
 1870TIP3    H2 5617   0.627   3.681   3.137  0.1286  0.2154  0.3015
 1871TIP3   OH2 5618   3.084   0.762   3.327 -0.7292  0.7759  0.4528
 1871TIP3    H1 5619   3.131   0.708   3.390 -0.1790  0.4103 -0.2544
 1871TIP3    H2 5620   3.140   0.838   3.313 -0.5624  0.5665 -0.0393
 1872TIP3   OH2 5621   0.229   0.121   3.717  0.1811 -0.4841  0.6167
 1872TIP3    H1 5622   0.196   0.036   3.746 -0.3489 -0.3928  0.2920
 1872TIP3    H2 5623   0.293   0.146   3.784 -1.0166 -0.2789  1.7225
 1873TIP3   OH2 5624   3.254   2.981   2.490 -0.1045  0.4933  0.3897
 1873TIP3    H1 5625   3.263   2.893   2.527 -1.5852 -0.0506 -0.4955
 1873TIP3    H2 5626   3.328   2.989   2.430 -1.7392 -1.4923 -2.0714
 1874TIP3   OH2 5627   5.328   5.023   3.466 -0.3838 -0.1563  0.3062
 1874TIP3    H1 5628   5.237   5.052   3.464  0.0046  1.0613 -0.7238
 1874TIP3    H2 5629   5.367   5.072   3.538 -0.3793 -0.2005  0.3344
 1875TIP3   OH2 5630   2.449   5.123   1.609 -0.3272  0.0885  0.5631
 1875TIP3    H1 5631   2.404   5.065   1.548 -0.6123  0.3226  0.5460
 1875TIP3    H2 5632   2.456   5.206   1.562 -0.9804  0.4104  1.0268
 1876TIP3   OH2 5633   0.165   2.124   2.335 -0.4427 -0.0269  0.5079
 1876TIP3    H1 5634   0.226   2.188   2.296 -1.4338  0.3400 -0.5039
 1876TIP3    H2 5635   0.205   2.101   2.419  2.2994 -1.5489 -1.0574
 1877TIP3   OH2 5636   2.473   2.693   1.184 -0.4686  0.0366 -0.4134
 1877TIP3    H1 5637   2.551   2.719   1.234 -0.7466 -0.0494  0.0706
 1877TIP3    H2 5638   2.495   2.607   1.149 -0.6474 -0.3510  0.4008
 1878TIP3   OH2 5639   1.373   1.991   1.046  0.5120 -0.0447  0.5560
 1878TIP3    H1 5640   1.376   2.074   1.094  0.5795 -0.1791  0.7810
 1878TIP3    H2 5641   1.463   1.961   1.043  0.3313 -0.7137  1.5212
 1879TIP3   OH2 5642   2.440   4.633   4.973  0.6012 -0.2469  0.2011
 1879TIP3    H1 5643   2.487   4.669   5.048  0.0766  1.5232 -0.2572
 1879TIP3    H2 5644   2.360   4.596   5.010  0.4623  0.3892  0.5644
 1880TIP3   OH2 5645   1.105   0.139   4.641 -0.3401 -0.3271 -0.2642
 1880TIP3    H1 5646   1.068   0.224   4.664  0.0471 -0.5105  1.0839
 1880TIP3    H2 5647   1.032   0.078   4.651 -0.4305 -0.2663 -0.5306
 1881TIP3   OH2 5648   5.595   1.835   2.053  0.3687 -0.4621 -0.1838
 1881TIP3    H1 5649   5.550   1.915   2.080  0.9226  0.5871 -2.1735
 1881TIP3    H2 5650   5.525   1.775   2.029 -0.0451 -0.4674  0.9670
 1882TIP3   OH2 5651   4.092   3.043   1.366  0.2190 -0.4097  0.4329
 1882TIP3    H1 5652   3.998   3.027   1.353  0.2661 -0.3178 -0.0144
 1882TIP3    H2 5653   4.097   3.133   1.396  0.0795 -0.7396  1.4991
 1883TIP3   OH2 5654   4.333   2.508   2.820 -0.0050 -0.0819 -0.1881
 1883TIP3    H1 5655   4.371   2.422   2.839  0.4335  0.4045  1.3396
 1883TIP3    H2 5656   4.245   2.504   2.857 -0.4083 -0.2554 -1.1592
 1884TIP3   OH2 5657   4.434   4.837   2.123  1.1907  0.4003  0.3426
 1884TIP3    H1 5658   4.483   4.770   2.171  0.8525  0.0980  0.2709
 1884TIP3    H2 5659   4.483   4.918   2.138  0.8486  0.3935  1.5575
 1885TIP3   OH2 5660   5.666   0.383   2.418 -0.2414 -0.5091 -0.0320
 1885TIP3    H1 5661   5.615   0.448   2.466 -0.3134 -1.3571  1.0763
 1885TIP3    H2 5662   5.609   0.357   2.345  0.5500  2.0586 -1.7107
 1886TIP3   OH2 5663   0.333   2.767   1.777  0.2470  0.1212  0.2575
 1886TIP3    H1 5664   0.306   2.755   1.868 -0.3815  0.9772  0.2035
 1886TIP3    H2 5665   0.413   2.819   1.783  1.2983 -1.4633  0.3775
 1887TIP3   OH2 5666   3.701   1.057   1.713  0.5500 -0.6599  0.0432
 1887TIP3    H1 5667   3.686   0.966   1.740  0.5267 -0.4247  0.8389
 1887TIP3    H2 5668   3.779   1.083   1.761  1.3934 -0.6997 -1.2661
 1888TIP3   OH2 5669   2.218   2.913   3.568 -0.3067 -0.5214 -0.6234
 1888TIP3    H1 5670   2.188   2.976   3.503  1.3262  1.0577  0.0696
 1888TIP3    H2 5671   2.164   2.930   3.645  0.3160  0.2367 -0.3484
 1889TIP3   OH2 5672   0.548   4.941   0.180  0.2382  0.1105  0.4724
 1889TIP3    H1 5673   0.614   4.959   0.247  1.0888  0.7423 -0.4939
 1889TIP3    H2 5674   0.598   4.916   0.103 -0.7727 -2.0527  0.4387
 1890TIP3   OH2 5675   0.902   3.348   2.766 -0.0254  0.2137  0.2933
 1890TIP3    H1 5676   0.950   3.428   2.784  0.1209  0.0405  0.6817
 1890TIP3    H2 5677   0.825   3.377   2.717 -0.9751  0.8321  2.0602
 1891TIP3   OH2 5678   0.858   3.103   2.517 -0.1106  0.7280 -0.6176
 1891TIP3    H1 5679   0.806   3.028   2.545  1.3481 -0.0686  0.0658
 1891TIP3    H2 5680   0.794   3.168   2.489 -1.4407 -0.3282 -0.1074
 1892TIP3   OH2 5681   3.930   4.391   5.188  0.7277 -0.1056 -0.6100
 1892TIP3    H1 5682   3.998   4.341   5.233  1.2529  0.1116 -1.1527
 1892TIP3    H2 5683   3.949   4.380   5.095  0.6015  0.7615 -0.7456
 1893TIP3   OH2 5684   5.771   5.580   2.938 -0.1525 -0.2635  0.0273
 1893TIP3    H1 5685   5.753   5.490   2.965  1.2779 -0.4674  0.3925
 1893TIP3    H2 5686   5.781   5.575   2.842 -1.2459 -0.2635 -0.0961
 1894TIP3   OH2 5687   0.728   4.458   0.686 -0.4122 -0.0408 -0.4442
 1894TIP3    H1 5688   0.721   4.391   0.754 -1.4146  0.6921  0.1957
 1894TIP3    H2 5689   0.806   4.507   0.709 -2.1519  1.8976  1.8049
 1895TIP3   OH2 5690   1.402   0.652   0.465  0.1648 -0.3114 -0.8850
 1895TIP3    H1 5691   1.323   0.599   0.457 -0.4233  0.7437 -2.6835
 1895TIP3    H2 5692   1.369   0.742   0.472  1.1708  0.1735 -1.9849
 1896TIP3   OH2 5693   4.411   1.438   2.960 -0.2183  0.0498  0.1409
 1896TIP3    H1 5694   4.411   1.389   2.878  1.3634  0.9533 -0.4466
 1896TIP3    H2 5695   4.358   1.516   2.942  0.2077  0.2960 -0.0781
 1897TIP3   OH2 5696   5.495   4.876   1.420 -0.3063  0.0108  0.1533
 1897TIP3    H1 5697   5.587   4.885   1.444  0.0416 -1.0896 -0.6671
 1897TIP3    H2 5698   5.492   4.795   1.369 -1.9474 -0.6547  1.2334
 1898TIP3   OH2 5699   6.303   5.702   2.391 -0.2432 -0.3856 -0.0466
 1898TIP3    H1 5700   6.216   5.738   2.408  0.3708  0.4922  1.4807
 1898TIP3    H2 5701   6.292   5.608   2.401 -0.9049 -0.2367  0.7282
 1899TIP3   OH2 5702   5.797   2.949   4.627  0.1815  0.0553 -0.0316
 1899TIP3    H1 5703   5.890   2.927   4.628 -0.0037 -0.7768  0.4850
 1899TIP3    H2 5704   5.777   2.968   4.536  1.1065  1.3681  0.0215
 1900TIP3   OH2 5705   1.603   3.560   2.449  0.4859 -0.5995 -0.7234
 1900TIP3    H1 5706   1.583   3.523   2.535  1.5238 -0.9299 -0.6075
 1900TIP3    H2 5707   1.635   3.485   2.398  2.0512  0.0043 -0.6706
 1901TIP3   OH2 5708   0.214   1.566   4.543  0.0285  0.3544 -0.0475
 1901TIP3    H1 5709   0.195   1.545   4.452 -0.1880 -0.0878  0.0971
 1901TIP3    H2 5710   0.300   1.607   4.541  0.6768 -0.9753 -0.2951
 1902TIP3   OH2 5711   0.955   0.679   0.087 -0.4834  0.4123 -0.6116
 1902TIP3    H1 5712   1.008   0.710   0.014 -0.3200  0.3634 -0.5131
 1902TIP3    H2 5713   1.011   0.618   0.134 -0.9323 -0.3271 -1.0137
 1903TIP3   OH2 5714   2.188   5.540   2.855  0.3351 -0.1625 -0.2092
 1903TIP3    H1 5715   2.096   5.517   2.842  0.0366  1.6854 -1.8176
 1903TIP3    H2 5716   2.186   5.613   2.917  0.8072 -0.6814  0.4299
 1904TIP3   OH2 5717   0.968   2.263   1.866 -0.0632  0.5421 -0.4119
 1904TIP3    H1 5718   0.908   2.281   1.938  1.7876  0.9605  1.1034
 1904TIP3    H2 5719   0.912   2.258   1.789 -1.9476  1.6622  0.7999
 1905TIP3   OH2 5720   1.190   2.051   5.080  0.2583 -0.8408 -0.0836
 1905TIP3    H1 5721   1.170   1.971   5.130 -0.7403 -0.0280  0.8821
 1905TIP3    H2 5722   1.152   2.036   4.994 -1.1446 -0.9061  0.5107
 1906TIP3   OH2 5723   1.856   5.807   3.087  0.4100  0.6987  0.0316
 1906TIP3    H1 5724   1.769   5.783   3.057 -0.6620  1.7365  2.1177
 1906TIP3    H2 5725   1.904   5.829   3.008 -1.1244 -0.1655 -1.1846
 1907TIP3   OH2 5726   6.312   0.200   2.192  0.1022 -0.1541  0.6591
 1907TIP3    H1 5727   6.370   0.232   2.261 -1.3293  1.9204  0.9897
 1907TIP3    H2 5728   6.232   0.174   2.238 -0.1705 -0.5491 -0.0247
 1908TIP3   OH2 5729   1.539   4.625   3.406  0.3285 -0.6061 -0.7079
 1908TIP3    H1 5730   1.475   4.620   3.335 -0.7351 -0.5508  0.2333
 1908TIP3    H2 5731   1.511   4.559   3.469  0.5267  0.1907  0.2494
 1909TIP3   OH2 5732   4.386   2.447   4.239 -0.7608  0.7977 -0.1121
 1909TIP3    H1 5733   4.295   2.428   4.218 -0.3598 -1.5543  0.0586
 1909TIP3    H2 5734   4.399   2.408   4.326  0.8692 -0.6036 -0.9269
 1910TIP3   OH2 5735   5.209   5.013   2.063  0.5676 -0.4333  0.5964
 1910TIP3    H1 5736   5.239   5.068   1.990  3.7840  1.6531  3.1751
 1910TIP3    H2 5737   5.244   4.926   2.043  0.5919 -0.1439 -0.7438
 1911TIP3   OH2 5738   1.132   2.560   0.673  0.0241 -0.3814 -0.0063
 1911TIP3    H1 5739   1.097   2.490   0.618  0.8557 -1.4782  0.8108
 1911TIP3    H2 5740   1.075   2.561   0.749 -0.3340  0.2450 -0.2731
 1912TIP3   OH2 5741   3.993   4.364   4.931  0.5505  0.5771 -0.3539
 1912TIP3    H1 5742   3.922   4.325   4.880  0.2183  0.5678  0.1082
 1912TIP3    H2 5743   4.073   4.336   4.886  0.2979 -0.2342 -0.3088
 1913TIP3   OH2 5744   2.035   1.157   4.066  0.4526 -0.2249  0.4504
 1913TIP3    H1 5745   1.999   1.222   4.126 -2.7913 -1.0528 -0.3946
 1913TIP3    H2 5746   2.099   1.108   4.119 -1.2479 -0.0432  2.8502
 1914TIP3   OH2 5747   0.735   0.079   0.447 -0.3864 -0.3108  0.0326
 1914TIP3    H1 5748   0.690   0.040   0.522 -1.8322  0.2235 -0.5129
 1914TIP3    H2 5749   0.771   0.161   0.480 -1.1942  0.0201  0.1230
 1915TIP3   OH2 5750   2.339   3.477   4.778  0.5370 -0.2262 -0.6511
 1915TIP3    H1 5751   2.386   3.437   4.704  1.0498 -2.4976  0.8080
 1915TIP3    H2 5752   2.285   3.406   4.813  0.0158  0.8985  0.9294
 1916TIP3   OH2 5753   4.777   0.616   4.440  0.0881  0.3611  0.1608
 1916TIP3    H1 5754   4.693   0.574   4.457  1.0293 -1.9247 -0.3531
 1916TIP3    H2 5755   4.835   0.580   4.507  0.8606  1.2100 -0.0370
 1917TIP3   OH2 5756   3.138   4.208   3.135 -0.3482  0.1858 -0.6848
 1917TIP3    H1 5757   3.133   4.263   3.213  0.0885  0.6467 -0.9800
 1917TIP3    H2 5758   3.077   4.248   3.073  0.9797  1.1848 -1.4088
 1918TIP3   OH2 5759   5.542   1.525   4.483  0.6458  0.8591 -0.7423
 1918TIP3    H1 5760   5.510   1.440   4.451  2.3045  0.4409 -1.4302
 1918TIP3    H2 5761   5.484   1.589   4.443 -0.3961  0.0699 -0.5373
 1919TIP3   OH2 5762   2.865   5.644   0.623 -0.2217  0.0566  0.5121
 1919TIP3    H1 5763   2.785   5.633   0.572 -0.1486  1.5189  0.0389
 1919TIP3    H2 5764   2.839   5.622   0.713 -0.6076 -1.5001  0.0521
 1920TIP3   OH2 5765   0.347   1.874   2.810  0.5542 -0.4496 -0.0521
 1920TIP3    H1 5766   0.283   1.916   2.867  0.6550  1.9332 -1.5242
 1920TIP3    H2 5767   0.431   1.911   2.838  0.8154 -0.6944 -0.5068
 1921TIP3   OH2 5768   3.207   3.060   1.301 -0.0963  0.4805 -0.2990
 1921TIP3    H1 5769   3.297   3.083   1.280 -0.0873  1.5134  0.7636
 1921TIP3    H2 5770   3.213   3.005   1.379 -0.3253 -0.6788 -1.0593
 1922TIP3   OH2 5771   2.659   5.952   4.797 -0.2246 -0.1076 -0.2697
 1922TIP3    H1 5772   2.746   5.963   4.758  0.0342  0.8508  0.5106
 1922TIP3    H2 5773   2.673   5.969   4.890 -1.3668  0.7888 -0.2374
 1923TIP3   OH2 5774   4.401   2.222   2.820  0.4354 -0.1169  0.0071
 1923TIP3    H1 5775   4.325   2.173   2.853 -0.9983  1.8591 -0.1989
 1923TIP3    H2 5776   4.373   2.252   2.734  0.4068  2.7958  0.9505
 1924TIP3   OH2 5777   1.877   1.295   3.561  0.1065 -0.4981 -0.2215
 1924TIP3    H1 5778   1.950   1.322   3.505  1.9507 -2.4051  1.1186
 1924TIP3    H2 5779   1.917   1.282   3.647 -2.4382  1.3701  1.3800
 1925TIP3   OH2 5780   4.701   5.454   1.119 -0.3018  0.1278 -0.0490
 1925TIP3    H1 5781   4.712   5.507   1.198  0.1395 -0.5603  0.3590
 1925TIP3    H2 5782   4.770   5.484   1.060  0.4472 -0.5270  0.4818
 1926TIP3   OH2 5783   3.886   5.249   4.401  0.2039 -0.2707  0.0538
 1926TIP3    H1 5784   3.895   5.253   4.496  1.3825  0.4052 -0.0708
 1926TIP3    H2 5785   3.798   5.215   4.387 -0.4092  0.6808  1.3742
 1927TIP3   OH2 5786   6.142   5.376   5.050  0.5649 -0.0717 -0.2738
 1927TIP3    H1 5787   6.140   5.448   5.113  0.0102 -0.6827  0.4260
 1927TIP3    H2 5788   6.053   5.372   5.015  0.5093 -0.5891 -0.0936
 1928TIP3   OH2 5789   0.085   4.070   4.786  0.5058  0.0853  0.2032
 1928TIP3    H1 5790   0.020   4.071   4.715  0.4376  0.2953  0.2681
 1928TIP3    H2 5791   0.088   3.978   4.813 -1.4903  0.4069  1.7645
 1929TIP3   OH2 5792   2.545   4.672   0.795  0.4573  0.9935  0.0167
 1929TIP3    H1 5793   2.495   4.598   0.762  1.5086  1.3458 -2.6224
 1929TIP3    H2 5794   2.484   4.746   0.791  0.4000  0.9157 -0.6237
 1930TIP3   OH2 5795   1.284   4.322   1.574  0.3623 -0.3842 -0.0931
 1930TIP3    H1 5796   1.259   4.231   1.589  0.5440 -0.7561 -1.7970
 1930TIP3    H2 5797   1.204   4.372   1.594 -0.1778 -1.0576 -0.5141
 1931TIP3   OH2 5798   2.536   3.231   3.564 -0.4093 -0.2661 -0.1763
 1931TIP3    H1 5799   2.541   3.298   3.497 -0.4779 -1.2563 -1.1936
 1931TIP3    H2 5800   2.627   3.204   3.578 -0.4351 -0.3368 -0.1424
 1932TIP3   OH2 5801   0.988   2.604   0.389  0.1328  0.0135  0.3171
 1932TIP3    H1 5802   0.908   2.605   0.336  0.1221 -0.0673  0.3326
 1932TIP3    H2 5803   1.008   2.512   0.401  1.7662 -0.0281 -2.0186
 1933TIP3   OH2 5804   3.999   4.359   3.166  0.6640  0.2110 -0.3644
 1933TIP3    H1 5805   4.075   4.330   3.115 -0.3637 -2.7421 -0.4338
 1933TIP3    H2 5806   3.994   4.297   3.239 -1.4877  0.4865 -0.2112
 1934TIP3   OH2 5807   4.980   2.040   3.632 -0.1587  0.1250  0.1412
 1934TIP3    H1 5808   4.953   2.059   3.542  1.4708  0.7579 -0.2513
 1934TIP3    H2 5809   5.075   2.051   3.631 -0.1780  0.8580  2.1119
 1935TIP3   OH2 5810   4.341   1.897   1.269 -0.2359  0.5065 -0.1806
 1935TIP3    H1 5811   4.337   1.805   1.244 -0.8446  0.2537  0.7745
 1935TIP3    H2 5812   4.250   1.927   1.265 -0.2274  0.6979  0.7586
 1936TIP3   OH2 5813   3.390   5.725   2.396  0.0145 -0.4216  0.1631
 1936TIP3    H1 5814   3.404   5.632   2.417  0.7994 -0.1901  0.7153
 1936TIP3    H2 5815   3.418   5.771   2.475 -1.0025  0.2644  0.1469
 1937TIP3   OH2 5816   6.192   3.556   2.894  0.1290 -0.2627 -0.1282
 1937TIP3    H1 5817   6.241   3.543   2.813  0.2007  3.7774 -0.9217
 1937TIP3    H2 5818   6.252   3.602   2.952 -1.3500  1.0209  0.4620
 1938TIP3   OH2 5819   1.864   4.784   1.812  0.7049 -0.5229  0.1551
 1938TIP3    H1 5820   1.839   4.850   1.876  1.0780 -0.2751  0.0570
 1938TIP3    H2 5821   1.891   4.835   1.735 -0.2843 -0.8268 -0.4084
 1939TIP3   OH2 5822   4.948   2.013   0.071 -0.0384  0.2203 -0.2181
 1939TIP3    H1 5823   5.004   2.080   0.110  0.2404  0.7494 -1.4871
 1939TIP3    H2 5824   4.954   2.027  -0.023 -4.1136  1.8382 -0.4547
 1940TIP3   OH2 5825   1.913   0.942   2.180  0.2760 -0.3275  0.2736
 1940TIP3    H1 5826   1.881   1.009   2.119  0.7768 -0.3922 -0.0672
 1940TIP3    H2 5827   1.997   0.977   2.211  0.6897 -0.9309 -0.1368
 1941TIP3   OH2 5828   5.774   3.916   4.902 -0.1318 -0.4733 -0.1929
 1941TIP3    H1 5829   5.767   3.826   4.872 -1.5402 -0.7269  0.8382
 1941TIP3    H2 5830   5.684   3.948   4.907  0.3260  0.9460 -0.3772
 1942TIP3   OH2 5831   2.393   5.266   0.505 -0.2302  0.3100  0.3379
 1942TIP3    H1 5832   2.488   5.270   0.508 -0.0844  0.1526 -2.4044
 1942TIP3    H2 5833   2.367   5.252   0.597  2.4024 -0.7712  1.0010
 1943TIP3   OH2 5834   5.288   5.270   1.005  0.0854 -0.1272  0.5504
 1943TIP3    H1 5835   5.334   5.349   1.035 -0.9078  0.7510 -0.1522
 1943TIP3    H2 5836   5.234   5.245   1.079 -0.8582  0.8611  0.2204
 1944TIP3   OH2 5837   4.477   5.376   0.912 -0.6692  0.5335  0.2425
 1944TIP3    H1 5838   4.504   5.375   1.004 -0.9550  2.7614  0.4015
 1944TIP3    H2 5839   4.382   5.366   0.916 -0.8056  1.7675  0.2790
 1945TIP3   OH2 5840   4.644   1.363   4.061  0.4129  0.1764  0.0463
 1945TIP3    H1 5841   4.739   1.350   4.072  0.1666 -0.5505  1.4836
 1945TIP3    H2 5842   4.607   1.343   4.147 -0.9078  2.0257 -0.0439
 1946TIP3   OH2 5843   5.535   5.365   4.346 -0.2928 -0.4387 -0.1953
 1946TIP3    H1 5844   5.511   5.287   4.395  0.5718 -0.4350  0.2597
 1946TIP3    H2 5845   5.544   5.434   4.412 -0.5760 -0.0702 -0.5350
 1947TIP3   OH2 5846   1.799   0.074   3.099  0.0277  0.1246 -0.3142
 1947TIP3    H1 5847   1.787  -0.019   3.081  3.7634 -0.6372  0.3146
 1947TIP3    H2 5848   1.793   0.117   3.014 -0.3871 -0.8786 -0.7969
 1948TIP3   OH2 5849   5.228   0.276   4.574 -0.1137  0.3448  0.7231
 1948TIP3    H1 5850   5.265   0.281   4.662 -1.8922  1.6227  1.4729
 1948TIP3    H2 5851   5.293   0.319   4.518 -0.2697  2.2962  1.9406
 1949TIP3   OH2 5852   3.960   4.496   4.272 -0.3129 -0.4946  0.3113
 1949TIP3    H1 5853   3.968   4.587   4.301 -0.2459 -0.3130 -0.2610
 1949TIP3    H2 5854   3.878   4.493   4.224  1.0133 -0.0368 -2.1115
 1950TIP3   OH2 5855   4.166   4.823   0.580  0.8198 -0.1562  0.1389
 1950TIP3    H1 5856   4.074   4.845   0.565  1.3736  4.7160  1.9527
 1950TIP3    H2 5857   4.213   4.875   0.514  2.3203  1.0418  2.0685
 1951TIP3   OH2 5858   3.106   4.279   1.190  0.7655 -0.7566  0.2924
 1951TIP3    H1 5859   3.032   4.227   1.157  1.4047 -0.3991 -1.8345
 1951TIP3    H2 5860   3.183   4.236   1.154  1.6571 -1.1138  2.4796
 1952TIP3   OH2 5861   3.278   5.676   0.682  0.0925 -0.0385  0.3272
 1952TIP3    H1 5862   3.199   5.712   0.722  0.1923 -0.9443  1.3787
 1952TIP3    H2 5863   3.246   5.634   0.602 -0.3911  0.1505  0.4124
 1953TIP3   OH2 5864   4.269   4.727   1.373 -0.0070  0.1492 -0.0046
 1953TIP3    H1 5865   4.284   4.822   1.379  0.3053  0.0348  1.4247
 1953TIP3    H2 5866   4.178   4.715   1.399 -0.4968  0.1697 -1.6190
 1954TIP3   OH2 5867   5.918   2.089   0.242 -0.1766  0.2612  0.0063
 1954TIP3    H1 5868   5.839   2.126   0.203 -1.0369  0.2551  1.6300
 1954TIP3    H2 5869   5.937   2.011   0.190 -2.5677 -1.0072  0.8898
 1955TIP3   OH2 5870   5.288   5.883   3.379 -0.6550 -0.8604  0.3150
 1955TIP3    H1 5871   5.354   5.922   3.437 -0.8863 -0.3670  0.2439
 1955TIP3    H2 5872   5.313   5.790   3.374 -1.0046 -1.0510  1.7291
 1956TIP3   OH2 5873   1.320   2.028   3.693  0.2073  0.2549  0.5751
 1956TIP3    H1 5874   1.378   1.970   3.643 -1.6781 -0.9082 -0.3435
 1956TIP3    H2 5875   1.375   2.059   3.765  2.1121 -0.4146 -0.5123
 1957TIP3   OH2 5876   4.522   2.049   0.416  0.1846 -0.4945 -0.1097
 1957TIP3    H1 5877   4.565   1.974   0.374 -1.1577 -1.7369  0.6448
 1957TIP3    H2 5878   4.566   2.057   0.501  1.3001  0.5335 -0.7415
 1958TIP3   OH2 5879   2.702   1.796   3.627  0.1075 -0.4450 -0.6824
 1958TIP3    H1 5880   2.737   1.708   3.643 -0.5311 -0.4827  0.6323
 1958TIP3    H2 5881   2.769   1.855   3.660 -0.5545 -0.5054  0.8882
 1959TIP3   OH2 5882   2.872   0.141   2.721  0.2787  0.4583 -0.8236
 1959TIP3    H1 5883   2.868   0.198   2.644 -1.3820  0.4280 -0.7825
 1959TIP3    H2 5884   2.810   0.180   2.783 -0.9494 -1.3894 -0.8110
 1960TIP3   OH2 5885   4.107   3.942   0.804  0.8577 -0.1978  0.5076
 1960TIP3    H1 5886   4.183   3.884   0.804  0.7016 -0.4611  2.3128
 1960TIP3    H2 5887   4.096   3.967   0.896 -0.4983  0.8210  0.0990
 1961TIP3   OH2 5888   0.339   4.306   1.618 -0.1884 -0.1544 -0.0133
 1961TIP3    H1 5889   0.383   4.278   1.537  0.3750  0.5052  0.0582
 1961TIP3    H2 5890   0.401   4.366   1.659 -0.5083 -0.4183  0.8719
 1962TIP3   OH2 5891   3.665   3.166   1.498  0.5192 -0.4481 -1.0924
 1962TIP3    H1 5892   3.589   3.138   1.447 -1.9075  0.7421  1.6036
 1962TIP3    H2 5893   3.680   3.095   1.561  1.1424 -0.2959 -1.0578
 1963TIP3   OH2 5894   1.995   1.043   1.694 -0.1733  0.4271  0.1422
 1963TIP3    H1 5895   2.058   1.115   1.692  0.1720  0.1166 -0.3380
 1963TIP3    H2 5896   2.047   0.965   1.674 -0.4942  0.0063  0.9246
 1964TIP3   OH2 5897   2.540   3.749   1.469 -0.8318 -0.2362 -0.2016
 1964TIP3    H1 5898   2.630   3.780   1.482 -0.7134 -0.1464 -1.1455
 1964TIP3    H2 5899   2.492   3.784   1.544 -0.2386  0.3788 -0.0918
 1965TIP3   OH2 5900   3.791  -0.023   4.307  0.3828 -0.0096  0.0259
 1965TIP3    H1 5901   3.743   0.058   4.289 -0.0009 -0.5483 -1.4636
 1965TIP3    H2 5902   3.883   0.004   4.313  0.0576  0.8646  1.8558
 1966TIP3   OH2 5903   3.241   2.441   1.316 -0.2323  0.2218 -0.4535
 1966TIP3    H1 5904   3.170   2.393   1.273  0.1894 -1.8249  0.9988
 1966TIP3    H2 5905   3.217   2.443   1.408  0.5633  1.4789 -0.2388
 1967TIP3   OH2 5906   3.978   0.402   0.244  0.2980  0.1480  0.2590
 1967TIP3    H1 5907   3.996   0.425   0.336 -1.5707 -0.5090  0.8235
 1967TIP3    H2 5908   3.945   0.483   0.205  2.4461  0.8297 -0.2704
 1968TIP3   OH2 5909   6.170   5.992   2.050  0.5085  0.1445 -0.2304
 1968TIP3    H1 5910   6.258   6.008   2.082  0.5364 -0.1857 -0.1421
 1968TIP3    H2 5911   6.162   5.897   2.047  0.2903  0.1725 -0.6067
 1969TIP3   OH2 5912   5.387   1.192   5.180  0.1684  0.3736 -0.4978
 1969TIP3    H1 5913   5.380   1.199   5.085  2.7875 -0.6824 -0.8496
 1969TIP3    H2 5914   5.402   1.098   5.196  0.5189  0.6472  0.8775
 1970TIP3   OH2 5915   6.262   5.379   3.960  0.8036 -0.6153 -0.0462
 1970TIP3    H1 5916   6.214   5.321   4.019 -0.2979  1.3235  1.0713
 1970TIP3    H2 5917   6.354   5.357   3.974  0.4586 -4.2610 -2.0563
 1971TIP3   OH2 5918   0.236   0.890   2.872  0.2936  0.6322  0.2060
 1971TIP3    H1 5919   0.227   0.946   2.950 -0.2275  0.0291  0.5902
 1971TIP3    H2 5920   0.209   0.945   2.799 -1.3126  0.5491  0.7131
 1972TIP3   OH2 5921   2.687   2.842   1.326 -0.3857  0.2846 -0.0264
 1972TIP3    H1 5922   2.700   2.932   1.357  0.8776  0.1363 -0.0880
 1972TIP3    H2 5923   2.670   2.791   1.405  0.5127  0.3121  0.2022
 1973TIP3   OH2 5924   1.200   4.037   5.130  0.0080 -0.0252 -0.2486
 1973TIP3    H1 5925   1.230   3.956   5.172 -0.1122 -0.2481 -0.5878
 1973TIP3    H2 5926   1.111   4.049   5.162 -0.5745 -0.9174 -1.4549
 1974TIP3   OH2 5927   1.032   4.423   1.599 -0.4068 -0.1226 -0.2933
 1974TIP3    H1 5928   1.011   4.516   1.598 -1.5323 -0.3449  0.7148
 1974TIP3    H2 5929   0.955   4.380   1.563  0.1590 -0.6774 -0.8925
 1975TIP3   OH2 5930   1.426   5.099   3.540 -0.0089  0.1850  0.5040
 1975TIP3    H1 5931   1.482   5.041   3.591  0.6882  0.2359 -0.1834
 1975TIP3    H2 5932   1.406   5.048   3.461  0.1348  0.6592  0.1595
 1976TIP3   OH2 5933   2.340   5.347   4.810  0.5458 -0.2325 -0.3443
 1976TIP3    H1 5934   2.331   5.308   4.897  2.3532  0.1849  0.0711
 1976TIP3    H2 5935   2.413   5.300   4.770  1.3763  1.2353 -0.6394
 1977TIP3   OH2 5936   2.262   2.640   3.504 -0.1423  0.0459  0.0789
 1977TIP3    H1 5937   2.240   2.729   3.530 -2.1608 -0.8592  1.6772
 1977TIP3    H2 5938   2.268   2.591   3.586 -0.7773 -1.6569 -0.8452
 1978TIP3   OH2 5939   0.633   1.372   4.723  0.0830  0.4173 -0.4424
 1978TIP3    H1 5940   0.729   1.373   4.722  0.0706  0.6927 -1.8348
 1978TIP3    H2 5941   0.608   1.348   4.634 -1.1804  2.8285 -0.7965
 1979TIP3   OH2 5942   4.356   1.258   0.532 -0.0724 -0.2997 -0.4801
 1979TIP3    H1 5943   4.379   1.185   0.590 -0.9310 -0.5226 -0.4168
 1979TIP3    H2 5944   4.440   1.298   0.511  0.3981 -1.2038 -0.3815
 1980TIP3   OH2 5945   6.132   4.829   3.826 -0.0998 -0.3842 -0.7762
 1980TIP3    H1 5946   6.127   4.733   3.832 -1.8184 -0.2235  1.5133
 1980TIP3    H2 5947   6.196   4.853   3.893 -1.4073  0.1556  0.3241
 1981TIP3   OH2 5948   0.573   1.094   4.774  0.2649  0.1027 -0.1078
 1981TIP3    H1 5949   0.523   1.117   4.853  0.0966  1.7998 -0.6673
 1981TIP3    H2 5950   0.641   1.161   4.770  2.1328 -1.6816  0.1881
 1982TIP3   OH2 5951   5.339   1.496   2.986 -0.3406  0.0870 -0.1040
 1982TIP3    H1 5952   5.280   1.512   2.912 -1.3694  0.9196  0.8601
 1982TIP3    H2 5953   5.305   1.417   3.027 -0.4072  0.2140  0.0865
 1983TIP3   OH2 5954   5.676   0.405   3.855  0.4576 -0.3734 -0.8339
 1983TIP3    H1 5955   5.752   0.370   3.808  0.4325  0.4818 -1.5460
 1983TIP3    H2 5956   5.643   0.332   3.907  2.4910 -0.4646  0.4524
 1984TIP3   OH2 5957   3.911   4.832   1.736 -0.0399  0.4510 -0.1297
 1984TIP3    H1 5958   3.975   4.786   1.681  0.7790 -0.5115  1.5382
 1984TIP3    H2 5959   3.954   4.914   1.760  2.0553 -1.4422  3.4577
 1985TIP3   OH2 5960   4.645   2.167   1.664  0.3098  0.0580  0.1601
 1985TIP3    H1 5961   4.623   2.124   1.581  2.4448 -0.0348 -0.4078
 1985TIP3    H2 5962   4.601   2.252   1.658 -3.5468 -1.6394  1.0778
 1986TIP3   OH2 5963   5.142   0.803   3.086 -0.2713 -0.5771  0.3115
 1986TIP3    H1 5964   5.092   0.878   3.054 -0.9029 -0.4911  1.4278
 1986TIP3    H2 5965   5.077   0.746   3.126  0.5840 -0.0012  2.6828
 1987TIP3   OH2 5966   4.731   2.440   5.163  0.2102 -0.2800 -0.4864
 1987TIP3    H1 5967   4.788   2.449   5.087  2.4951 -0.9212  1.0471
 1987TIP3    H2 5968   4.732   2.527   5.204  2.2980 -0.9138  0.9489
 1988TIP3   OH2 5969   4.007   2.731   0.602 -0.1629 -0.2421 -0.2903
 1988TIP3    H1 5970   4.052   2.762   0.681  0.3805  0.2547 -0.7903
 1988TIP3    H2 5971   4.052   2.650   0.578 -1.0396 -1.0082  0.5272
 1989TIP3   OH2 5972   0.878   0.862   0.335 -0.0085  0.7192  0.1752
 1989TIP3    H1 5973   0.876   0.857   0.240  0.2433  1.2560  0.1402
 1989TIP3    H2 5974   0.792   0.830   0.363 -1.7107  4.3431 -0.3873
 1990TIP3   OH2 5975   4.911   1.897   2.512  0.2644 -0.1341  0.1143
 1990TIP3    H1 5976   4.920   1.829   2.578 -0.4982 -0.2161  0.1444
 1990TIP3    H2 5977   5.001   1.916   2.484  0.7605  0.8630  2.1433
 1991TIP3   OH2 5978   6.231   5.411   4.518 -0.2664 -0.5778  0.1961
 1991TIP3    H1 5979   6.306   5.468   4.530  0.5492 -1.4523 -0.5420
 1991TIP3    H2 5980   6.161   5.468   4.487  0.2487  0.1606  0.3800
 1992TIP3   OH2 5981   3.672   3.474   2.553 -0.6161 -0.2791 -0.0722
 1992TIP3    H1 5982   3.750   3.444   2.506 -0.2373  0.9771 -0.2614
 1992TIP3    H2 5983   3.698   3.472   2.646 -1.2176 -2.3164  0.1040
 1993TIP3   OH2 5984   4.646   2.918   0.364 -0.3077 -0.0254  0.4654
 1993TIP3    H1 5985   4.582   2.987   0.384 -0.7032 -0.0890 -0.5292
 1993TIP3    H2 5986   4.715   2.930   0.430  1.1371  3.2570 -1.4137
 1994TIP3   OH2 5987   3.957   2.877   4.767 -0.3021  0.0593 -0.3673
 1994TIP3    H1 5988   3.895   2.807   4.745  0.3819 -0.4046 -0.8951
 1994TIP3    H2 5989   3.996   2.901   4.683  1.7436 -1.1311  0.1755
 1995TIP3   OH2 5990   0.592   4.678   1.169 -0.1169 -0.3826 -0.2352
 1995TIP3    H1 5991   0.522   4.744   1.176  1.0286  0.9484 -0.7820
 1995TIP3    H2 5992   0.602   4.645   1.258 -0.0191  0.9498  0.2786
 1996TIP3   OH2 5993   5.404   2.453   0.525 -0.1173 -0.3854  0.2500
 1996TIP3    H1 5994   5.327   2.506   0.502 -0.2342 -0.2086  1.0485
 1996TIP3    H2 5995   5.416   2.395   0.449  0.2782  1.0697 -0.8608
 1997TIP3   OH2 5996   1.619   0.329   3.068  0.0147  0.2646  0.3020
 1997TIP3    H1 5997   1.637   0.235   3.072 -0.2789  0.2054  0.2045
 1997TIP3    H2 5998   1.703   0.370   3.090 -0.0354 -0.0223  1.0589
 1998TIP3   OH2 5999   6.149   3.314   4.170  0.1108  0.3628  0.1397
 1998TIP3    H1 6000   6.073   3.363   4.140  0.9923  2.0617  0.5516
 1998TIP3    H2 6001   6.176   3.262   4.093 -1.4530 -0.3102  0.0120
 1999TIP3   OH2 6002   1.828   5.722   4.732 -0.0714 -0.1440  0.1548
 1999TIP3    H1 6003   1.817   5.627   4.730 -0.7278 -0.0706  0.0261
 1999TIP3    H2 6004   1.857   5.740   4.822  0.7880 -0.5288 -0.0293
 2000TIP3   OH2 6005   4.669   5.249   2.356  0.0124  0.7543  1.1172
 2000TIP3    H1 6006   4.734   5.287   2.415  0.3829  1.6622  0.1684
 2000TIP3    H2 6007   4.705   5.265   2.268  0.0744 -1.6325  0.6535
 2001TIP3   OH2 6008   1.330   5.660   1.192 -0.4497  0.1417  0.1724
 2001TIP3    H1 6009   1.415   5.617   1.191 -0.9682 -0.9887  1.5553
 2001TIP3    H2 6010   1.333   5.721   1.118  1.2754 -0.3921 -0.2404
 2002TIP3   OH2 6011   4.237   4.597   4.415  0.4362 -0.3105 -0.2313
 2002TIP3    H1 6012   4.148   4.633   4.413  0.3024 -0.6398 -0.1924
 2002TIP3    H2 6013   4.226   4.507   4.446  0.6508 -0.7821 -1.4780
 2003TIP3   OH2 6014   1.423   2.423   2.293 -0.2777  0.1235  0.2393
 2003TIP3    H1 6015   1.396   2.514   2.281  0.6375  0.1037 -2.8344
 2003TIP3    H2 6016   1.517   2.424   2.278 -0.1054 -1.2289  1.0474
 2004TIP3   OH2 6017   0.882   4.587   4.035 -0.0247  0.2109 -0.1789
 2004TIP3    H1 6018   0.870   4.535   4.114  2.8810  0.3633  0.5036
 2004TIP3    H2 6019   0.895   4.676   4.066  0.1603  0.4440 -0.8966
 2005TIP3   OH2 6020   4.587   5.208   0.337  0.4860  0.9919 -0.5950
 2005TIP3    H1 6021   4.680   5.185   0.337 -0.1432 -2.3513  1.5030
 2005TIP3    H2 6022   4.567   5.225   0.429 -1.1907  0.3343 -0.8037
 2006TIP3   OH2 6023   4.866   3.585   5.132 -0.6711  0.2159 -0.4218
 2006TIP3    H1 6024   4.912   3.668   5.129 -1.4009  0.5982 -1.8690
 2006TIP3    H2 6025   4.885   3.543   5.048  1.1701 -1.9520  0.9502
 2007TIP3   OH2 6026   4.226   3.645   4.471  0.5259  0.6241 -0.1295
 2007TIP3    H1 6027   4.165   3.597   4.527  0.4645  0.9496  0.0853
 2007TIP3    H2 6028   4.310   3.603   4.487  0.5544  0.8777  0.3987
 2008TIP3   OH2 6029   5.141   4.420   3.429  0.0211 -0.3485  0.2065
 2008TIP3    H1 6030   5.140   4.412   3.525 -0.1081  1.1216  0.3476
 2008TIP3    H2 6031   5.133   4.330   3.398  0.5997 -0.9009  1.5746
 2009TIP3   OH2 6032   3.828   3.888   0.038  0.6189  0.6631 -0.0153
 2009TIP3    H1 6033   3.821   3.794   0.023  1.0010  0.8627 -1.6006
 2009TIP3    H2 6034   3.910   3.899   0.086  0.5638  0.1942  0.1896
 2010TIP3   OH2 6035   2.554   5.795   4.255  0.0914  0.2730 -0.5903
 2010TIP3    H1 6036   2.505   5.817   4.176 -0.4273  0.3998 -0.2400
 2010TIP3    H2 6037   2.488   5.794   4.324  0.5116 -0.0152 -0.1908
 2011TIP3   OH2 6038   5.980   1.643   4.323  0.1293  0.1760 -0.3153
 2011TIP3    H1 6039   5.916   1.572   4.327 -0.4449  0.5533 -2.1135
 2011TIP3    H2 6040   6.063   1.602   4.348 -0.4231 -0.8081 -0.0484
 2012TIP3   OH2 6041   1.985   1.074   1.071  0.7290  0.3028 -0.2384
 2012TIP3    H1 6042   2.066   1.034   1.101  0.2779  0.5798  1.4623
 2012TIP3    H2 6043   1.921   1.054   1.140  0.0859  2.5456 -0.0957
 2013TIP3   OH2 6044   2.511   2.462   1.036 -0.1199  0.4687 -0.4149
 2013TIP3    H1 6045   2.587   2.441   0.982 -0.7869  1.2571 -1.6972
 2013TIP3    H2 6046   2.519   2.404   1.112  0.8204 -0.7115 -1.3771
 2014TIP3   OH2 6047   0.713   1.781   2.107  0.3504  0.5135  0.0490
 2014TIP3    H1 6048   0.727   1.851   2.044 -0.6570  1.0539  0.4198
 2014TIP3    H2 6049   0.765   1.708   2.073  0.2680  0.9770 -1.1006
 2015TIP3   OH2 6050   0.284   4.450   5.057  0.0079 -0.0971 -0.2555
 2015TIP3    H1 6051   0.378   4.452   5.077 -0.4220  0.1397  2.0316
 2015TIP3    H2 6052   0.248   4.384   5.116 -1.4956  0.9486  0.0515
 2016TIP3   OH2 6053   2.502   4.363   3.519 -0.3694 -0.1208 -0.0636
 2016TIP3    H1 6054   2.460   4.304   3.582 -0.6737  0.2897  0.1203
 2016TIP3    H2 6055   2.524   4.441   3.570  2.8757 -1.2083  0.4849
 2017TIP3   OH2 6056   2.652   3.478   1.029  0.1200  0.1776 -0.4721
 2017TIP3    H1 6057   2.650   3.554   1.087  1.5227  0.1119 -0.2959
 2017TIP3    H2 6058   2.661   3.515   0.941 -1.5354  0.2613 -0.6406
 2018TIP3   OH2 6059   4.915   0.475   1.187 -0.5658 -0.6717  0.3512
 2018TIP3    H1 6060   5.007   0.497   1.171 -1.0316  2.7357  1.4936
 2018TIP3    H2 6061   4.918   0.398   1.243  1.6301 -0.4614  0.6078
 2019TIP3   OH2 6062   1.013   2.034   4.596  0.4042  0.6697  0.5547
 2019TIP3    H1 6063   1.089   1.997   4.642  1.2615  0.6919 -0.7904
 2019TIP3    H2 6064   0.978   1.961   4.545  0.7978  1.1550 -0.4372
 2020TIP3   OH2 6065   0.677   1.501   4.295  0.0017 -0.5851 -0.1965
 2020TIP3    H1 6066   0.628   1.533   4.219  0.1428 -3.3649 -1.5742
 2020TIP3    H2 6067   0.763   1.541   4.285 -1.0098  2.0513  0.6644
 2021TIP3   OH2 6068   2.902   2.178   1.559  0.0733  0.3049 -0.2326
 2021TIP3    H1 6069   2.820   2.134   1.536 -0.1667  0.0239  1.1242
 2021TIP3    H2 6070   2.919   2.236   1.484 -1.6607  0.7976 -0.2817
 2022TIP3   OH2 6071   0.865   4.355   3.510 -0.0787 -0.2089  0.4896
 2022TIP3    H1 6072   0.950   4.373   3.549  0.9680 -3.1091 -0.2511
 2022TIP3    H2 6073   0.842   4.437   3.464  1.9358  0.8700  1.2825
 2023TIP3   OH2 6074   0.849   1.551   3.796 -0.5289 -0.4880 -0.7994
 2023TIP3    H1 6075   0.875   1.500   3.719 -1.1375 -2.7278  0.4115
 2023TIP3    H2 6076   0.931   1.592   3.826  0.4731 -2.5346 -0.5651
 2024TIP3   OH2 6077   6.181   3.689   3.718  0.1061  0.3048 -0.1178
 2024TIP3    H1 6078   6.244   3.716   3.785  1.9710 -0.7807 -1.3168
 2024TIP3    H2 6079   6.119   3.632   3.764  1.6079 -0.7802  0.6581
 2025TIP3   OH2 6080   4.612   4.227   2.564 -0.2159  0.4396 -0.0339
 2025TIP3    H1 6081   4.533   4.246   2.615  0.3376 -1.2761  1.5970
 2025TIP3    H2 6082   4.661   4.164   2.618  0.1644 -1.9809 -2.9154
 2026TIP3   OH2 6083   1.963   5.236   1.220 -0.1618 -0.1936 -0.3137
 2026TIP3    H1 6084   1.998   5.318   1.255 -1.3480 -0.0967  0.6973
 2026TIP3    H2 6085   2.033   5.203   1.163  0.6993  1.0477 -0.0233
 2027TIP3   OH2 6086   4.536   4.862   2.376 -0.3083  0.4182 -0.4357
 2027TIP3    H1 6087   4.579   4.781   2.350  0.1516  0.5169  0.0109
 2027TIP3    H2 6088   4.574   4.884   2.460 -0.1120  1.3283 -0.7508
 2028TIP3   OH2 6089   0.581   1.804   3.367 -0.1789  0.1898 -0.0290
 2028TIP3    H1 6090   0.510   1.861   3.396 -0.1336 -0.1083  0.7199
 2028TIP3    H2 6091   0.660   1.842   3.406  0.1405  0.7625 -1.2128
 2029TIP3   OH2 6092   2.422   5.130   2.715  0.0949 -0.2125 -0.1243
 2029TIP3    H1 6093   2.515   5.113   2.730 -0.0366  0.2395  1.3296
 2029TIP3    H2 6094   2.398   5.193   2.782 -1.4431 -0.8999  0.0181
 2030TIP3   OH2 6095   3.901   0.191   1.737 -0.2130  0.3497  0.5815
 2030TIP3    H1 6096   3.839   0.264   1.731 -0.0648  0.6396  2.1258
 2030TIP3    H2 6097   3.889   0.158   1.826 -1.5603 -2.6900 -0.5969
 2031TIP3   OH2 6098   3.240   1.762   3.302 -0.6213 -0.5292 -0.1444
 2031TIP3    H1 6099   3.324   1.807   3.289 -0.2357 -1.2430 -0.1674
 2031TIP3    H2 6100   3.236   1.697   3.232 -1.2428 -0.4302 -0.2033
 2032TIP3   OH2 6101   4.685   0.266   2.491  0.1182  0.0974  0.2454
 2032TIP3    H1 6102   4.595   0.239   2.511  0.2353  0.1569  0.8663
 2032TIP3    H2 6103   4.736   0.185   2.494  0.3946  0.2978  1.6887
 2033TIP3   OH2 6104   2.772   2.432   0.947 -0.3787 -0.0446  0.2207
 2033TIP3    H1 6105   2.785   2.510   1.000 -0.4845 -1.0943  1.8876
 2033TIP3    H2 6106   2.761   2.464   0.858 -1.0723  1.8691  0.9514
 2034TIP3   OH2 6107   4.618   2.739   2.752  0.6565  0.3667  0.5236
 2034TIP3    H1 6108   4.712   2.756   2.754  1.5201 -2.8982 -1.9841
 2034TIP3    H2 6109   4.600   2.688   2.831  1.3936 -0.2832  0.2865
 2035TIP3   OH2 6110   3.410   1.148   2.806  0.7924  0.4821  0.2484
 2035TIP3    H1 6111   3.314   1.149   2.809  0.5980 -1.5429 -2.1239
 2035TIP3    H2 6112   3.435   1.239   2.821 -1.4455  0.9982  1.3676
 2036TIP3   OH2 6113   1.169   3.024   3.187 -0.4253  0.0568 -0.4904
 2036TIP3    H1 6114   1.083   2.990   3.162  0.0421 -2.1741  0.6927
 2036TIP3    H2 6115   1.163   3.038   3.281  0.2065  0.8679 -0.5620
 2037TIP3   OH2 6116   0.454   5.811   0.497  0.5699 -0.0340 -0.0504
 2037TIP3    H1 6117   0.517   5.882   0.515 -0.5896  1.0312 -0.0641
 2037TIP3    H2 6118   0.433   5.821   0.404  1.6074 -1.4424 -0.4731
 2038TIP3   OH2 6119   1.330   1.143   0.864  0.4298  0.3434 -0.0752
 2038TIP3    H1 6120   1.302   1.063   0.820  1.0516  0.4716 -0.7052
 2038TIP3    H2 6121   1.370   1.113   0.946  1.6120 -0.0719 -0.7829
 2039TIP3   OH2 6122   2.414   2.207   0.326  0.4966  0.1555 -0.6989
 2039TIP3    H1 6123   2.435   2.281   0.268 -0.1498  2.2616  1.5714
 2039TIP3    H2 6124   2.485   2.205   0.390  0.2480 -0.8862 -0.4371
 2040TIP3   OH2 6125   1.883   4.950   3.130 -0.0549  0.1981 -0.7527
 2040TIP3    H1 6126   1.954   4.981   3.074 -1.3869  0.7670 -2.1981
 2040TIP3    H2 6127   1.927   4.896   3.196  1.6706  0.2265 -1.8033
 2041TIP3   OH2 6128   1.420   2.300   1.453 -0.1324 -0.0608 -0.1239
 2041TIP3    H1 6129   1.511   2.279   1.474  0.3081 -0.7649 -2.4339
 2041TIP3    H2 6130   1.412   2.393   1.474  1.0213 -0.0552  0.3970
 2042TIP3   OH2 6131   3.378   1.620   3.079  0.3961 -0.5518 -0.0939
 2042TIP3    H1 6132   3.443   1.587   3.017  0.1349 -0.8306 -0.2252
 2042TIP3    H2 6133   3.365   1.548   3.141  0.1956 -0.5089 -0.0849
 2043TIP3   OH2 6134   0.154   2.849   0.099  0.1211  0.5577 -0.3125
 2043TIP3    H1 6135   0.101   2.773   0.126 -0.6067  0.6467 -1.4376
 2043TIP3    H2 6136   0.119   2.873   0.013  0.1813  2.3253  0.1248
 2044TIP3   OH2 6137   2.130   4.321   3.666  0.0476  0.3319  0.3576
 2044TIP3    H1 6138   2.080   4.349   3.743 -0.7874  1.8064 -0.6527
 2044TIP3    H2 6139   2.218   4.356   3.681  0.5375 -1.3381  1.6471
 2045TIP3   OH2 6140   2.786   1.553   3.697  0.2836 -0.5685 -0.2353
 2045TIP3    H1 6141   2.773   1.480   3.637 -3.0633 -2.2021  2.1519
 2045TIP3    H2 6142   2.830   1.514   3.773  0.4198  0.3999  0.1988
 2046TIP3   OH2 6143   0.221   5.683   1.829 -0.0756 -0.1747  0.5204
 2046TIP3    H1 6144   0.148   5.721   1.877 -0.2345 -0.5439  0.5698
 2046TIP3    H2 6145   0.277   5.758   1.809 -1.1693  0.3467 -0.7729
 2047TIP3   OH2 6146   2.923   5.625   1.104  0.3603 -0.0872  0.1500
 2047TIP3    H1 6147   2.843   5.650   1.057  0.6947 -1.2742 -1.0954
 2047TIP3    H2 6148   2.910   5.661   1.192 -1.1362  0.5293 -0.2819
 2048TIP3   OH2 6149   1.905   3.081   2.391  0.4526  0.0249  0.2393
 2048TIP3    H1 6150   1.896   3.176   2.402 -2.5216  0.1158 -1.8220
 2048TIP3    H2 6151   1.865   3.045   2.470 -0.6620  0.5447 -0.0593
 2049TIP3   OH2 6152   5.546   5.079   5.036  0.1952 -0.1255  0.2942
 2049TIP3    H1 6153   5.605   5.062   5.110 -2.3554  0.0344  2.5259
 2049TIP3    H2 6154   5.545   4.997   4.987  0.5727 -0.8834  1.4933
 2050TIP3   OH2 6155   0.849   2.200   0.591  0.0994  0.0575 -0.0940
 2050TIP3    H1 6156   0.852   2.171   0.682 -1.5398  0.4208  0.1015
 2050TIP3    H2 6157   0.777   2.151   0.553 -0.8178  1.6757 -0.5373
 2051TIP3   OH2 6158   4.895   0.684   3.150  0.4759  0.8120 -0.3421
 2051TIP3    H1 6159   4.834   0.729   3.092  0.7771 -0.1064 -1.3988
 2051TIP3    H2 6160   4.849   0.678   3.234 -1.1282 -0.3065 -1.2429
 2052TIP3   OH2 6161   1.588   0.474   4.578 -0.3265 -0.2455 -0.2117
 2052TIP3    H1 6162   1.528   0.450   4.507 -0.8449 -1.6195  0.6452
 2052TIP3    H2 6163   1.648   0.537   4.539 -0.8056 -0.7166 -1.7735
 2053TIP3   OH2 6164   1.467   0.928   3.546 -0.1855  0.0693 -0.4379
 2053TIP3    H1 6165   1.516   0.883   3.478 -0.1819  1.3661 -1.3272
 2053TIP3    H2 6166   1.385   0.954   3.504  0.2880  1.8897 -0.3248
 2054TIP3   OH2 6167   3.794   5.938   1.112  0.4314  0.0366  0.5629
 2054TIP3    H1 6168   3.702   5.950   1.090  0.5286 -0.0751  0.0846
 2054TIP3    H2 6169   3.837   5.919   1.028  1.0179  0.8361  0.6755
 2055TIP3   OH2 6170   5.749   5.420   1.873 -0.2275  0.1624  0.1316
 2055TIP3    H1 6171   5.703   5.339   1.893 -0.3979  0.0685 -0.5922
 2055TIP3    H2 6172   5.841   5.394   1.864 -0.4763 -0.2522 -1.6001
 2056TIP3   OH2 6173   0.210   4.925   2.846  0.1696 -0.2879 -0.5406
 2056TIP3    H1 6174   0.302   4.945   2.834 -0.5709  3.4754 -1.2217
 2056TIP3    H2 6175   0.175   4.916   2.757 -1.0413  4.3112 -0.7669
 2057TIP3   OH2 6176   6.030   3.358   3.044  0.3882  0.5253 -0.7766
 2057TIP3    H1 6177   5.946   3.382   3.083  0.4090  0.9215 -0.9677
 2057TIP3    H2 6178   6.056   3.436   2.994  0.8356  0.3798 -0.7718
 2058TIP3   OH2 6179   2.401   1.098   2.269 -1.2498  0.6736 -0.3275
 2058TIP3    H1 6180   2.482   1.117   2.316  0.2824 -1.6419 -1.7810
 2058TIP3    H2 6181   2.402   1.158   2.194 -1.9605  2.0114  0.6879
 2059TIP3   OH2 6182   1.271   3.372   4.011  0.3520  0.5839 -0.1891
 2059TIP3    H1 6183   1.351   3.326   4.037  1.1793  2.3372  0.5512
 2059TIP3    H2 6184   1.281   3.460   4.048 -1.7138  1.0016 -0.4971
 2060TIP3   OH2 6185   3.450   0.191   3.690  0.5314 -0.1338 -0.0024
 2060TIP3    H1 6186   3.356   0.178   3.677  0.4037  1.5818 -1.1656
 2060TIP3    H2 6187   3.489   0.164   3.607  0.6724  2.1937 -0.7918
 2061TIP3   OH2 6188   0.741   1.079   4.448  0.1322 -0.0576  0.0043
 2061TIP3    H1 6189   0.742   1.032   4.365 -1.5339 -1.3460  0.6468
 2061TIP3    H2 6190   0.815   1.044   4.498  0.9845  0.5404 -0.8187
 2062TIP3   OH2 6191   4.482   2.167   0.847 -0.1376  0.1249  0.4754
 2062TIP3    H1 6192   4.388   2.152   0.860 -0.1697 -1.0992 -0.9643
 2062TIP3    H2 6193   4.491   2.263   0.849 -1.2329  0.2451  1.6414
 2063TIP3   OH2 6194   1.298   1.038   5.000  0.0335  0.6872  0.0276
 2063TIP3    H1 6195   1.311   0.952   5.041  1.0629  1.2029  0.8274
 2063TIP3    H2 6196   1.207   1.061   5.020  0.3328  0.6505  1.5123
 2064TIP3   OH2 6197   5.104   5.170   5.039 -0.2164 -0.1674  0.3651
 2064TIP3    H1 6198   5.048   5.237   5.001 -0.9306  0.4323  2.3633
 2064TIP3    H2 6199   5.079   5.167   5.131  3.1428  0.2918  1.4539
 2065TIP3   OH2 6200   1.443   3.146   2.483  0.0086  0.1352  0.1761
 2065TIP3    H1 6201   1.492   3.066   2.501 -1.3622 -0.7526  0.1504
 2065TIP3    H2 6202   1.357   3.130   2.522 -0.9611  0.7446 -1.6070
 2066TIP3   OH2 6203   3.548   4.838   2.743 -0.0246 -0.1835 -0.4618
 2066TIP3    H1 6204   3.504   4.765   2.699 -0.3308 -1.0970  1.2378
 2066TIP3    H2 6205   3.558   4.904   2.676 -0.6026 -1.4320 -1.8417
 2067TIP3   OH2 6206   5.034   3.098   2.706 -0.4213  0.1515  0.3840
 2067TIP3    H1 6207   4.968   3.122   2.640 -0.9677  0.5405  1.0589
 2067TIP3    H2 6208   5.109   3.068   2.655 -1.5926 -1.6047 -0.4019
 2068TIP3   OH2 6209   0.242   0.947   3.926  0.8729 -0.0500 -0.4647
 2068TIP3    H1 6210   0.152   0.926   3.901  0.1756  2.9183 -0.7829
 2068TIP3    H2 6211   0.284   0.974   3.844  1.7558 -0.3652 -0.1314
 2069TIP3   OH2 6212   2.636   2.033   4.105  0.3087 -0.1566  0.3760
 2069TIP3    H1 6213   2.661   2.094   4.175 -0.2866  1.0182 -0.4002
 2069TIP3    H2 6214   2.710   2.034   4.045  0.4527 -0.4912  0.5459
 2070TIP3   OH2 6215   0.592   5.452   4.842 -0.2661  0.0109  0.3707
 2070TIP3    H1 6216   0.618   5.540   4.868 -1.8096  1.3364 -2.1533
 2070TIP3    H2 6217   0.504   5.441   4.878 -0.1951 -0.3824  0.4320
 2071TIP3   OH2 6218   3.638   0.939   4.236  0.1182 -0.0482  0.3977
 2071TIP3    H1 6219   3.564   0.963   4.292 -1.3389 -0.2829 -1.2967
 2071TIP3    H2 6220   3.632   1.000   4.162  0.8676 -0.8576 -0.3519
 2072TIP3   OH2 6221   3.517   3.016   2.869 -0.1061  0.1749  0.3779
 2072TIP3    H1 6222   3.449   3.028   2.935  0.3507  0.0896  0.8654
 2072TIP3    H2 6223   3.474   3.040   2.786 -0.3642  1.3410  0.8293
 2073TIP3   OH2 6224   0.424   4.531   4.547  0.2466  0.2648 -0.3213
 2073TIP3    H1 6225   0.366   4.537   4.471  0.7169  0.3515 -0.6779
 2073TIP3    H2 6226   0.412   4.442   4.579 -2.1815  1.0915  1.3122
 2074TIP3   OH2 6227   1.940   0.730   1.318 -0.0504 -0.0494  0.5403
 2074TIP3    H1 6228   2.016   0.695   1.272  0.0028 -0.9578  1.2935
 2074TIP3    H2 6229   1.872   0.736   1.251 -0.0724 -1.6455  0.3727
 2075TIP3   OH2 6230   0.606   5.909   1.718  0.6494  0.1390 -0.2113
 2075TIP3    H1 6231   0.523   5.901   1.765  0.9951 -2.7693  0.1194
 2075TIP3    H2 6232   0.664   5.954   1.780 -0.3246  1.0716  0.0437
 2076TIP3   OH2 6233   1.987   4.503   4.166  0.0439  0.3076 -0.0587
 2076TIP3    H1 6234   2.076   4.467   4.177 -0.9272 -2.8447 -1.3329
 2076TIP3    H2 6235   1.942   4.480   4.247 -0.0142  0.5922 -0.0093
 2077TIP3   OH2 6236   3.557   5.501   4.878  0.1754 -0.5529  0.0518
 2077TIP3    H1 6237   3.549   5.512   4.784  0.8161 -1.2929 -0.0983
 2077TIP3    H2 6238   3.532   5.410   4.893 -2.4404  0.2115  0.9194
 2078TIP3   OH2 6239   3.745   1.648   4.599  0.2462 -0.4594  0.1526
 2078TIP3    H1 6240   3.809   1.713   4.628 -1.2323  1.5019 -0.7349
 2078TIP3    H2 6241   3.754   1.647   4.503 -0.1171 -1.1592  0.1231
 2079TIP3   OH2 6242   3.660   0.688   3.279 -0.1194  0.4869  0.1514
 2079TIP3    H1 6243   3.596   0.717   3.344  0.6454  1.7212  0.3664
 2079TIP3    H2 6244   3.662   0.592   3.290 -1.1852  0.5181  0.8144
 2080TIP3   OH2 6245   5.003   1.224   5.049 -0.2772  0.5401 -0.5567
 2080TIP3    H1 6246   4.941   1.289   5.016 -1.0234  1.6414  2.6171
 2080TIP3    H2 6247   4.950   1.146   5.065  0.0961 -0.0174 -1.9696
 2081TIP3   OH2 6248   4.839   1.242   2.107  0.1826  0.2468  0.2466
 2081TIP3    H1 6249   4.847   1.172   2.043  0.5070 -0.8928  1.4844
 2081TIP3    H2 6250   4.925   1.245   2.150 -0.3499  0.2454  1.3466
 2082TIP3   OH2 6251   3.184   1.768   2.505  0.4133 -0.7518  0.7272
 2082TIP3    H1 6252   3.187   1.818   2.587  0.4858 -0.6242  0.6461
 2082TIP3    H2 6253   3.090   1.761   2.485  0.4504  2.1672 -0.9792
 2083TIP3   OH2 6254   5.740   2.581   1.971 -0.1193  0.0731  0.2207
 2083TIP3    H1 6255   5.701   2.554   2.055 -0.5605 -0.1473 -0.0528
 2083TIP3    H2 6256   5.832   2.596   1.992 -0.2989  0.3745  0.8265
 2084TIP3   OH2 6257   0.265   2.268   1.011  0.1123 -0.3274  1.8945
 2084TIP3    H1 6258   0.326   2.199   0.987 -2.0126 -2.1579  1.4703
 2084TIP3    H2 6259   0.317   2.330   1.062  3.0855 -0.0504 -1.1503
 2085TIP3   OH2 6260   1.996   1.221   4.449 -0.4045  0.2474 -0.6748
 2085TIP3    H1 6261   2.073   1.257   4.492  0.2170 -1.8253  0.0594
 2085TIP3    H2 6262   1.979   1.281   4.376  0.1846  2.2979  0.7802
 2086TIP3   OH2 6263   1.209   3.947   4.366 -0.3710  0.0974  0.3501
 2086TIP3    H1 6264   1.259   3.950   4.284 -0.4337 -0.4606  0.2853
 2086TIP3    H2 6265   1.139   3.884   4.349 -1.1343  0.9004  0.4227
 2087TIP3   OH2 6266   4.403   3.393   2.586  0.1683 -0.0019  0.0524
 2087TIP3    H1 6267   4.485   3.440   2.605 -0.2243  0.2151  1.2895
 2087TIP3    H2 6268   4.342   3.424   2.653 -0.9917 -0.0212 -0.9648
 2088TIP3   OH2 6269   1.149   3.832   2.527  0.1872  0.2989  0.0063
 2088TIP3    H1 6270   1.067   3.807   2.484 -1.0731  0.1511  2.3261
 2088TIP3    H2 6271   1.203   3.753   2.523  1.1648  0.9854 -3.3648
 2089TIP3   OH2 6272   1.105   0.663   3.215 -0.4520 -0.2391 -0.3492
 2089TIP3    H1 6273   1.020   0.706   3.207  0.6236  2.1996  0.5659
 2089TIP3    H2 6274   1.098   0.612   3.296 -1.0951 -0.2034 -0.3744
 2090TIP3   OH2 6275   4.717   2.608   0.352  0.1061  0.9052  0.1483
 2090TIP3    H1 6276   4.636   2.659   0.361  0.3963  1.2318  1.0729
 2090TIP3    H2 6277   4.687   2.520   0.332 -0.5008  0.9691  0.7226
 2091TIP3   OH2 6278   4.204   1.685   0.656  0.1590 -0.1298  0.2481
 2091TIP3    H1 6279   4.138   1.644   0.599  0.5779 -0.3403 -0.0862
 2091TIP3    H2 6280   4.285   1.640   0.635  0.2800 -0.3618  1.1726
 2092TIP3   OH2 6281   2.533   4.287   3.820  0.1025 -0.4454 -0.3107
 2092TIP3    H1 6282   2.555   4.371   3.780  0.3792  0.9053  2.4202
 2092TIP3    H2 6283   2.618   4.246   3.836  0.0441 -0.5658 -0.3131
 2093TIP3   OH2 6284   5.143   5.254   2.222  0.0355 -0.4105 -0.0483
 2093TIP3    H1 6285   5.174   5.180   2.170 -0.2712 -0.1373 -0.6256
 2093TIP3    H2 6286   5.078   5.297   2.167 -0.1693 -0.0137  0.4930
 2094TIP3   OH2 6287   4.087   4.414   4.554 -0.4125  0.2803  0.1783
 2094TIP3    H1 6288   4.080   4.342   4.492 -1.3056  1.4478 -1.1261
 2094TIP3    H2 6289   4.001   4.455   4.554  0.2656  1.7926  0.3218
 2095TIP3   OH2 6290   3.543   1.851   2.761  0.2305  0.1570 -0.5572
 2095TIP3    H1 6291   3.519   1.835   2.852 -0.4254  0.0765 -0.7396
 2095TIP3    H2 6292   3.639   1.851   2.761  0.2349  0.0185  0.1051
 2096TIP3   OH2 6293   3.314   4.312   2.937  0.0397 -0.5435  0.4387
 2096TIP3    H1 6294   3.223   4.297   2.965 -0.9385  2.0735 -1.0127
 2096TIP3    H2 6295   3.324   4.258   2.859 -0.4880 -0.3127  0.2103
 2097TIP3   OH2 6296   2.328   0.438   0.165 -0.3427 -0.1039  0.0657
 2097TIP3    H1 6297   2.414   0.464   0.199 -0.9779  1.1922  0.7623
 2097TIP3    H2 6298   2.317   0.489   0.085 -0.3811 -0.4334 -0.1416
 2098TIP3   OH2 6299   1.786   1.840   3.369 -0.7696  0.1950 -0.2327
 2098TIP3    H1 6300   1.711   1.878   3.322  0.7143  1.4578 -1.6942
 2098TIP3    H2 6301   1.799   1.755   3.327  0.2841  1.1396 -1.9275
 2099TIP3   OH2 6302   6.000   1.072   4.007 -0.2939  0.3240  0.3785
 2099TIP3    H1 6303   6.037   1.152   4.044  1.9102 -0.2571 -0.3919
 2099TIP3    H2 6304   5.944   1.102   3.936  0.9978  1.2117 -0.3136
 2100TIP3   OH2 6305   4.864   3.159   2.460  0.1136 -0.1650 -0.3746
 2100TIP3    H1 6306   4.835   3.239   2.503  0.3986 -0.3688  0.2063
 2100TIP3    H2 6307   4.783   3.117   2.431 -0.0020  0.7136 -1.3981
 2101TIP3   OH2 6308   0.090   0.017   3.079 -0.0749 -0.0678 -0.7598
 2101TIP3    H1 6309   0.134   0.061   3.006  1.2538 -1.0294 -0.5741
 2101TIP3    H2 6310   0.011   0.068   3.094 -0.0057  0.5748 -2.3972
 2102TIP3   OH2 6311   5.268   1.882   1.520 -0.3523  0.0188 -0.1916
 2102TIP3    H1 6312   5.279   1.853   1.430  1.1875 -0.7621  0.1962
 2102TIP3    H2 6313   5.224   1.809   1.564  1.2818 -0.7878  0.2267
 2103TIP3   OH2 6314   2.996   5.663   4.892 -0.1820 -0.3756  0.2783
 2103TIP3    H1 6315   2.953   5.646   4.976 -0.1747 -0.9485  0.1720
 2103TIP3    H2 6316   3.089   5.649   4.909  0.0416  1.3667  0.6353
 2104TIP3   OH2 6317   4.247   4.148   1.172  0.0925 -0.4300 -0.0733
 2104TIP3    H1 6318   4.301   4.120   1.097  0.5778  0.1253  0.0524
 2104TIP3    H2 6319   4.297   4.122   1.249 -0.2558 -0.7197  0.0543
 2105TIP3   OH2 6320   4.792   1.542   4.511 -0.0836  0.0149 -0.1881
 2105TIP3    H1 6321   4.809   1.543   4.417  0.8935  0.0098 -0.0225
 2105TIP3    H2 6322   4.879   1.536   4.551 -0.4240  0.9036  0.7324
 2106TIP3   OH2 6323   2.176   1.641   5.158  0.3213 -0.5728 -0.3124
 2106TIP3    H1 6324   2.243   1.626   5.092  0.6261 -2.0405  0.2786
 2106TIP3    H2 6325   2.192   1.573   5.223  0.1945  0.9767  1.4129
 2107TIP3   OH2 6326   1.348   5.412   2.551  0.7547 -0.2553 -0.2461
 2107TIP3    H1 6327   1.327   5.332   2.504 -2.7897  1.2960 -1.6356
 2107TIP3    H2 6328   1.413   5.456   2.495 -0.5064 -0.2193 -1.7343
 2108TIP3   OH2 6329   1.498   0.526   1.045  0.3095 -0.5652  0.4801
 2108TIP3    H1 6330   1.419   0.550   1.094  0.6676 -0.6594  1.1142
 2108TIP3    H2 6331   1.510   0.433   1.063  0.3998 -0.6207  0.1430
 2109TIP3   OH2 6332   3.257   2.700   0.228  0.6208 -0.1604  0.0787
 2109TIP3    H1 6333   3.286   2.746   0.307 -0.1955  0.3588  0.0801
 2109TIP3    H2 6334   3.220   2.768   0.173  0.0644 -0.7082 -0.2302
 2110TIP3   OH2 6335   3.301   3.753   4.135 -0.1615 -0.4674 -0.3356
 2110TIP3    H1 6336   3.390   3.760   4.100  0.5229 -2.1878  0.8977
 2110TIP3    H2 6337   3.283   3.659   4.136 -2.0288 -0.1602 -0.5471
 2111TIP3   OH2 6338   1.782   1.510   0.582 -0.0831  0.5097  0.9082
 2111TIP3    H1 6339   1.797   1.466   0.666  0.3604 -0.5494  0.2895
 2111TIP3    H2 6340   1.689   1.496   0.564 -0.0316  0.1473  0.9073
 2112TIP3   OH2 6341   5.646   4.430   2.669 -0.4922  0.5618  0.1862
 2112TIP3    H1 6342   5.740   4.445   2.657 -0.1072 -0.4971  1.6310
 2112TIP3    H2 6343   5.606   4.465   2.589  1.2773 -0.5368 -1.2575
 2113TIP3   OH2 6344   1.641   3.713   0.592  0.0207 -0.2111 -0.6166
 2113TIP3    H1 6345   1.716   3.772   0.578 -0.5627  0.1791 -2.3827
 2113TIP3    H2 6346   1.567   3.760   0.553 -0.7586 -1.4438 -0.6690
 2114TIP3   OH2 6347   2.917   5.130   3.565 -0.5927 -0.2996  0.6552
 2114TIP3    H1 6348   3.008   5.102   3.558 -0.7951 -0.7090 -0.9306
 2114TIP3    H2 6349   2.877   5.103   3.481 -1.4595  2.3596  0.1009
 2115TIP3   OH2 6350   3.057   5.897   1.493  0.8603 -0.0886  0.2339
 2115TIP3    H1 6351   3.138   5.898   1.544  0.3767 -0.6787  1.0356
 2115TIP3    H2 6352   3.036   5.804   1.481  0.0892  0.0559  0.3839
 2116TIP3   OH2 6353   4.513   3.650   3.829 -0.2054  0.2433  0.0059
 2116TIP3    H1 6354   4.523   3.675   3.921 -0.5929 -3.0743  1.0689
 2116TIP3    H2 6355   4.490   3.558   3.832  1.4684 -0.4352 -3.5209
 2117TIP3   OH2 6356   1.323   3.367   2.358  0.3512 -0.5599  0.3239
 2117TIP3    H1 6357   1.361   3.327   2.280 -0.7950  0.0181 -0.5647
 2117TIP3    H2 6358   1.362   3.319   2.431 -0.6070 -2.9751 -0.6574
 2118TIP3   OH2 6359   0.853   1.291   5.059 -0.0827 -0.0675 -0.2768
 2118TIP3    H1 6360   0.919   1.359   5.064  1.6691 -1.7584  1.2362
 2118TIP3    H2 6361   0.770   1.336   5.077  1.3702  1.2622  4.8511
 2119TIP3   OH2 6362   5.149   0.500   4.937 -0.3801 -0.7542  0.7549
 2119TIP3    H1 6363   5.123   0.410   4.918  0.0546 -0.8377  0.5379
 2119TIP3    H2 6364   5.230   0.512   4.886 -1.5132  0.4203 -0.8608
 2120TIP3   OH2 6365   1.530   5.529   0.692 -0.3405 -0.1555  0.1283
 2120TIP3    H1 6366   1.581   5.554   0.769 -0.5859  0.4573  0.1025
 2120TIP3    H2 6367   1.569   5.447   0.662  0.4561  0.1666  0.2604
 2121TIP3   OH2 6368   3.976   0.282   1.148 -0.4792 -0.0940 -0.2284
 2121TIP3    H1 6369   4.021   0.219   1.091  0.3675 -0.4395  0.7694
 2121TIP3    H2 6370   3.918   0.228   1.202 -0.1408  0.0207  0.2659
 2122TIP3   OH2 6371   2.365   0.988   5.116  0.2239  0.4034 -0.3351
 2122TIP3    H1 6372   2.402   0.907   5.150 -1.7925  0.5986  2.7140
 2122TIP3    H2 6373   2.425   1.057   5.145 -0.0255  0.3029  0.4414
 2123TIP3   OH2 6374   0.116   4.837   3.539  0.3124 -0.0743 -0.1285
 2123TIP3    H1 6375   0.162   4.919   3.520 -0.9910  0.9298  0.9037
 2123TIP3    H2 6376   0.172   4.793   3.603  1.4035 -0.3959 -1.2514
 2124TIP3   OH2 6377   4.660   5.342   2.043 -0.3258 -0.1903 -0.1174
 2124TIP3    H1 6378   4.680   5.404   1.972  0.7358 -0.3121  0.0616
 2124TIP3    H2 6379   4.630   5.263   1.998 -3.9266  1.1116 -0.3181
 2125TIP3   OH2 6380   5.040   0.555   3.597  0.0624  0.1452 -0.2944
 2125TIP3    H1 6381   4.960   0.524   3.640  0.5515 -0.4390  0.2203
 2125TIP3    H2 6382   5.019   0.555   3.504 -0.9560  1.2448 -0.0893
 2126TIP3   OH2 6383   1.355   5.638   3.008  0.3160 -0.2365 -0.2188
 2126TIP3    H1 6384   1.357   5.662   3.100 -1.4813  1.9060 -0.6611
 2126TIP3    H2 6385   1.262   5.627   2.988  0.4558  1.5856 -2.2578
 2127TIP3   OH2 6386   2.716   4.317   2.889 -0.1188 -0.4353  0.7052
 2127TIP3    H1 6387   2.661   4.392   2.864  1.5101  0.7805  0.6115
 2127TIP3    H2 6388   2.718   4.262   2.811 -0.4509 -0.0242  0.3995
 2128TIP3   OH2 6389   6.267   1.757   2.116 -0.6297 -0.5740  0.2441
 2128TIP3    H1 6390   6.176   1.728   2.114 -0.1612 -2.0575 -0.3624
 2128TIP3    H2 6391   6.261   1.848   2.147 -2.3417 -0.4536 -0.2991
 2129TIP3   OH2 6392   5.231   2.796   2.911 -0.1265  0.4379  0.0753
 2129TIP3    H1 6393   5.308   2.826   2.959  0.7877 -1.3813 -0.1668
 2129TIP3    H2 6394   5.157   2.826   2.963  0.7904  0.0737  1.6480
 2130TIP3   OH2 6395   3.657   1.099   2.945  0.1272  0.4724 -0.0002
 2130TIP3    H1 6396   3.584   1.069   2.891 -0.3629  0.5462  0.6045
 2130TIP3    H2 6397   3.671   1.028   3.007  1.5246 -0.1622 -1.0142
 2131TIP3   OH2 6398   0.941   1.485   1.203  0.1665 -0.1478  0.4603
 2131TIP3    H1 6399   0.905   1.557   1.256  2.4082 -0.0428  1.9668
 2131TIP3    H2 6400   1.027   1.517   1.176  1.3257 -2.3503  1.3749
 2132TIP3   OH2 6401   3.545   1.734   1.980  0.1140  0.5977  0.1231
 2132TIP3    H1 6402   3.492   1.655   1.969 -0.2874  0.5439  2.0763
 2132TIP3    H2 6403   3.543   1.776   1.894 -1.3886 -0.4587 -0.4015
 2133TIP3   OH2 6404   5.374   1.770   2.525 -0.1617  0.4146 -0.0449
 2133TIP3    H1 6405   5.299   1.808   2.571 -0.9719 -0.2864 -0.7417
 2133TIP3    H2 6406   5.449   1.820   2.555 -0.7916  0.5552  1.3575
 2134TIP3   OH2 6407   2.157   1.006   4.248 -0.0016 -0.2990 -0.0835
 2134TIP3    H1 6408   2.082   0.998   4.308  0.3204 -1.9861  0.1441
 2134TIP3    H2 6409   2.233   0.990   4.304  0.4800  0.5590 -0.4814
 2135TIP3   OH2 6410   3.918   1.281   3.308  0.4230 -0.4759 -0.3187
 2135TIP3    H1 6411   3.846   1.305   3.367 -0.0915 -1.1922 -0.6380
 2135TIP3    H2 6412   3.925   1.186   3.316  0.0105 -0.6517 -1.7730
 2136TIP3   OH2 6413   5.894   1.407   4.061 -0.0011 -0.1565  0.1157
 2136TIP3    H1 6414   5.807   1.404   4.021  0.4399  0.5842 -0.9561
 2136TIP3    H2 6415   5.915   1.501   4.065 -0.1743 -0.1499  2.4981
 2137TIP3   OH2 6416   3.070   3.840   0.914  0.1030  0.1465 -0.3789
 2137TIP3    H1 6417   3.042   3.750   0.927  1.2515 -0.3894 -1.3951
 2137TIP3    H2 6418   3.078   3.849   0.819  0.2308  1.2554 -0.2814
 2138TIP3   OH2 6419   0.000   2.807   5.000  0.1585 -0.1257 -0.3319
 2138TIP3    H1 6420  -0.035   2.780   5.085 -0.2903  0.2898 -0.3832
 2138TIP3    H2 6421   0.064   2.876   5.021  1.1557 -1.0648 -0.2176
 2139TIP3   OH2 6422   2.475   2.939   2.146  0.5963 -0.4621 -0.1575
 2139TIP3    H1 6423   2.502   2.849   2.130  0.7581 -0.4006 -0.2321
 2139TIP3    H2 6424   2.414   2.959   2.074  0.1233 -0.6954  0.1727
 2140TIP3   OH2 6425   0.653   1.911   5.049 -0.2396 -0.3747 -0.1588
 2140TIP3    H1 6426   0.724   1.955   5.002 -0.4558 -0.6640 -0.7779
 2140TIP3    H2 6427   0.660   1.819   5.021  0.9914 -1.0336  2.0677
 2141TIP3   OH2 6428   0.087   5.552   0.630  0.0616 -0.2244 -0.4121
 2141TIP3    H1 6429   0.005   5.525   0.588 -0.9064 -0.9187  1.7808
 2141TIP3    H2 6430   0.145   5.572   0.557 -1.4566 -1.4945 -2.0774
 2142TIP3   OH2 6431   5.733   0.716   2.359 -0.5952 -0.3900  0.1640
 2142TIP3    H1 6432   5.663   0.652   2.376 -0.6213 -0.2972  0.4088
 2142TIP3    H2 6433   5.731   0.729   2.264 -1.6546  0.4670  0.2849
 2143TIP3   OH2 6434   5.981   0.365   1.662 -0.1604 -0.3792  0.2239
 2143TIP3    H1 6435   5.903   0.369   1.717  0.7421 -0.2509  1.5203
 2143TIP3    H2 6436   5.954   0.312   1.586 -0.5641 -3.2263  2.2145
 2144TIP3   OH2 6437   1.374   0.721   2.863 -0.0704  0.1116  0.2303
 2144TIP3    H1 6438   1.397   0.710   2.771 -0.1171 -0.1049  0.2457
 2144TIP3    H2 6439   1.312   0.651   2.882 -0.3009  0.3433  0.3452
 2145TIP3   OH2 6440   2.352   2.990   1.440  0.2879 -0.4231 -0.2712
 2145TIP3    H1 6441   2.352   3.064   1.501  0.0784 -0.1082 -0.6466
 2145TIP3    H2 6442   2.360   2.913   1.496 -3.2956 -0.3957  0.4906
 2146TIP3   OH2 6443   0.306   0.383   4.809  0.3234  0.3899 -0.2010
 2146TIP3    H1 6444   0.292   0.332   4.729  0.0089  0.6231 -0.2968
 2146TIP3    H2 6445   0.230   0.440   4.815  0.0710 -0.0071  0.5582
 2147TIP3   OH2 6446   2.214   3.893   1.536  0.2305 -0.3919  0.0046
 2147TIP3    H1 6447   2.137   3.878   1.591 -0.9348 -0.8244 -1.6817
 2147TIP3    H2 6448   2.286   3.904   1.598 -1.2978  0.8353  1.6649
 2148TIP3   OH2 6449   4.935   4.673   3.279 -0.1186 -0.1436 -0.4017
 2148TIP3    H1 6450   4.966   4.705   3.363 -0.6173  0.2958 -0.3718
 2148TIP3    H2 6451   4.847   4.640   3.297 -0.2054 -0.1001 -0.7338
 2149TIP3   OH2 6452   5.489   4.555   2.485  0.0925  0.5604 -0.3520
 2149TIP3    H1 6453   5.437   4.496   2.540  0.1129  0.4450 -0.4570
 2149TIP3    H2 6454   5.427   4.589   2.421  0.1606  0.3695 -0.5206
 2150TIP3   OH2 6455   6.023   0.921   2.271  0.2701  0.1395  0.0701
 2150TIP3    H1 6456   6.106   0.889   2.235 -0.2661 -0.8808 -0.2799
 2150TIP3    H2 6457   6.038   0.926   2.365  1.2018  1.4169 -0.1066
 2151TIP3   OH2 6458   2.541   3.792   4.002  0.1130  0.2329 -0.4648
 2151TIP3    H1 6459   2.612   3.758   3.948  2.0556  1.2559  1.2658
 2151TIP3    H2 6460   2.501   3.860   3.949  1.5330  0.7682 -0.8963
 2152TIP3   OH2 6461   2.106   4.074   3.526  0.0291 -0.3003 -0.6313
 2152TIP3    H1 6462   2.058   4.103   3.448  1.7427  2.6916 -0.7268
 2152TIP3    H2 6463   2.121   4.154   3.576 -0.5393 -2.0449  2.5931
 2153TIP3   OH2 6464   2.676   1.248   1.157 -0.5818 -0.4671 -0.7567
 2153TIP3    H1 6465   2.712   1.195   1.086 -1.5626 -0.6406 -1.1308
 2153TIP3    H2 6466   2.590   1.210   1.175  0.1773 -1.2872  1.4602
 2154TIP3   OH2 6467   3.958   3.898   1.562 -0.2600  0.7691  0.4778
 2154TIP3    H1 6468   3.943   3.825   1.503 -0.9200  0.6551  0.7683
 2154TIP3    H2 6469   4.027   3.950   1.521 -0.0146  0.1569  0.1146
 2155TIP3   OH2 6470   1.483   0.196   2.785 -0.3693 -0.7854  0.2374
 2155TIP3    H1 6471   1.453   0.156   2.704 -2.5027 -0.4024  0.7785
 2155TIP3    H2 6472   1.434   0.278   2.791  0.7551 -0.1529  1.2573
 2156TIP3   OH2 6473   3.329   4.566   4.123  0.2945 -0.5006  0.3430
 2156TIP3    H1 6474   3.324   4.641   4.181  2.3900 -0.5389  0.6625
 2156TIP3    H2 6475   3.365   4.601   4.041 -3.2539 -0.3089 -1.3030
 2157TIP3   OH2 6476   0.429   5.232   4.177  0.6508  0.4209  0.6531
 2157TIP3    H1 6477   0.395   5.308   4.225 -1.1786  1.2170 -1.7088
 2157TIP3    H2 6478   0.376   5.159   4.208 -0.8849  1.0239 -0.4543
 2158TIP3   OH2 6479   5.559   0.939   1.287  0.6473 -0.5527 -0.2939
 2158TIP3    H1 6480   5.552   0.980   1.201  1.1339 -0.6716 -0.3912
 2158TIP3    H2 6481   5.474   0.955   1.328  0.1734 -1.0804 -1.0515
 2159TIP3   OH2 6482   1.878   0.836   3.288  0.2173  0.7223 -0.0024
 2159TIP3    H1 6483   1.919   0.921   3.270  0.3377  0.6742  0.0407
 2159TIP3    H2 6484   1.830   0.815   3.208 -0.8811  1.4341  0.4335
 2160TIP3   OH2 6485   2.714   3.151   4.353  0.4879  0.5071 -0.2083
 2160TIP3    H1 6486   2.743   3.240   4.330  0.3689  0.7413  0.5218
 2160TIP3    H2 6487   2.626   3.144   4.315  0.3203  0.8598  0.1107
 2161TIP3   OH2 6488   0.721   4.838   2.645 -0.3081 -0.1638  0.1646
 2161TIP3    H1 6489   0.639   4.866   2.686 -1.1758 -0.5875 -1.2149
 2161TIP3    H2 6490   0.776   4.810   2.718 -0.5273  2.2109  1.3343
 2162TIP3   OH2 6491   2.658   4.545   3.718  0.3787 -0.3889 -0.7545
 2162TIP3    H1 6492   2.730   4.490   3.751 -0.2314  0.2237  1.8667
 2162TIP3    H2 6493   2.700   4.627   3.695  0.8304 -0.8270 -1.5367
 2163TIP3   OH2 6494   0.289   1.283   2.995  0.2565  0.4718  0.1835
 2163TIP3    H1 6495   0.368   1.283   2.941  1.8120 -1.2465  2.2567
 2163TIP3    H2 6496   0.290   1.367   3.040  0.3565  0.8603 -0.5363
 2164TIP3   OH2 6497   0.102   1.735   1.929 -0.4044 -0.2802  0.0350
 2164TIP3    H1 6498   0.043   1.718   2.002  1.8556 -2.6112  1.5242
 2164TIP3    H2 6499   0.074   1.673   1.861  1.4767 -3.0305  1.5713
 2165TIP3   OH2 6500   0.082   1.561   0.502 -0.0702 -0.0718 -0.6259
 2165TIP3    H1 6501   0.111   1.489   0.558  2.6046  1.0892 -0.3464
 2165TIP3    H2 6502   0.104   1.640   0.552 -2.7746  1.0119 -0.9849
 2166TIP3   OH2 6503   1.342   3.416   1.335 -0.2792 -0.3449 -0.5426
 2166TIP3    H1 6504   1.360   3.322   1.344 -0.5220 -0.1724  3.0788
 2166TIP3    H2 6505   1.246   3.422   1.339 -0.2172  0.1548  2.6149
 2167TIP3   OH2 6506   3.814   1.381   2.136  0.7257  0.1212  0.0472
 2167TIP3    H1 6507   3.719   1.387   2.146  0.6036 -0.8660 -0.3894
 2167TIP3    H2 6508   3.834   1.436   2.060  0.4638  0.0658 -0.0613
 2168TIP3   OH2 6509   3.279   4.957   0.277 -0.0142  0.1639  0.7588
 2168TIP3    H1 6510   3.359   4.966   0.226 -0.7450 -1.8660 -0.9009
 2168TIP3    H2 6511   3.306   4.971   0.367  2.1453 -0.0909  0.2033
 2169TIP3   OH2 6512   2.664   3.714   1.234 -0.3496  0.2226 -0.2617
 2169TIP3    H1 6513   2.731   3.667   1.284  0.2348  0.3057 -0.9429
 2169TIP3    H2 6514   2.603   3.745   1.300  0.1006 -0.1496  0.3486
 2170TIP3   OH2 6515   5.877   3.948   1.339  0.5394 -0.0227  0.1518
 2170TIP3    H1 6516   5.805   3.950   1.276  0.1938 -0.9460  0.4880
 2170TIP3    H2 6517   5.860   4.021   1.398  0.0589 -0.0397  0.0366
 2171TIP3   OH2 6518   3.474   1.067   1.247 -0.6404 -0.0640 -0.2408
 2171TIP3    H1 6519   3.509   1.076   1.336 -0.9049  0.7830 -0.2161
 2171TIP3    H2 6520   3.380   1.084   1.257 -1.0503 -2.0165 -0.3505
 2172TIP3   OH2 6521   3.120   0.407   1.951  0.4667  0.1765  0.0442
 2172TIP3    H1 6522   3.170   0.375   1.876  2.0388  0.0019  1.1176
 2172TIP3    H2 6523   3.186   0.430   2.017 -0.8198  1.1168  1.0850
 2173TIP3   OH2 6524   5.503   3.457   1.124 -0.2270 -0.8077  0.2391
 2173TIP3    H1 6525   5.438   3.489   1.185 -0.7348  0.4059 -0.8967
 2173TIP3    H2 6526   5.489   3.508   1.044  1.7548 -0.8904 -0.2251
 2174TIP3   OH2 6527   5.743   3.389   1.670 -0.1424 -0.1104 -0.1488
 2174TIP3    H1 6528   5.653   3.405   1.644 -0.3398  0.0779  0.6144
 2174TIP3    H2 6529   5.744   3.406   1.765  0.5860 -0.5602 -0.0670
 2175TIP3   OH2 6530   0.568   2.848   0.862  0.7449 -0.1709  0.3199
 2175TIP3    H1 6531   0.557   2.820   0.953 -1.7020  0.8836  0.4339
 2175TIP3    H2 6532   0.511   2.925   0.853  1.6288  0.3090 -1.8649
 2176TIP3   OH2 6533   6.130   4.231   3.372 -0.2474  0.0267  0.0006
 2176TIP3    H1 6534   6.089   4.270   3.295 -0.1237 -0.5298 -0.3471
 2176TIP3    H2 6535   6.060   4.181   3.414 -0.3952  0.5790  0.4260
 2177TIP3   OH2 6536   4.318   2.611   1.225 -0.4723  0.5535 -0.3887
 2177TIP3    H1 6537   4.353   2.564   1.300  1.2552  1.9501 -0.2473
 2177TIP3    H2 6538   4.293   2.697   1.259 -0.3846  0.9392 -1.2558
 2178TIP3   OH2 6539   2.495   1.724   1.873 -0.0215  0.6059 -0.8046
 2178TIP3    H1 6540   2.501   1.718   1.968  0.6540 -0.5882 -0.9075
 2178TIP3    H2 6541   2.586   1.725   1.843 -0.1915  2.1209 -1.4044
 2179TIP3   OH2 6542   5.024   4.547   2.572 -0.1107 -0.5012 -0.2399
 2179TIP3    H1 6543   4.934   4.520   2.592 -0.7699  0.6434 -1.5468
 2179TIP3    H2 6544   5.061   4.473   2.525 -0.0707 -1.3088  0.9967
 2180TIP3   OH2 6545   2.452   2.422   3.096 -0.7674 -0.1033 -0.1228
 2180TIP3    H1 6546   2.486   2.496   3.045 -1.2816  0.6493  0.5978
 2180TIP3    H2 6547   2.452   2.454   3.186  0.5542 -1.5625  0.4418
 2181TIP3   OH2 6548   2.497   1.060   4.654 -0.0918  0.2566  0.0226
 2181TIP3    H1 6549   2.437   1.081   4.582  0.8573  0.5929 -0.6973
 2181TIP3    H2 6550   2.440   1.051   4.731 -1.0556  0.5878 -0.6293
 2182TIP3   OH2 6551   2.611   4.592   4.725  0.2323 -0.1244 -0.3305
 2182TIP3    H1 6552   2.628   4.527   4.656 -1.6393 -0.9082 -0.1210
 2182TIP3    H2 6553   2.689   4.588   4.780  1.5960  0.2227 -2.1398
 2183TIP3   OH2 6554   5.470   1.993   0.998 -0.4979 -0.2548 -1.0505
 2183TIP3    H1 6555   5.482   2.076   0.953  1.0597  0.3719  0.4124
 2183TIP3    H2 6556   5.399   2.009   1.060  0.1498  0.1551 -0.4075
 2184TIP3   OH2 6557   4.041   3.500   3.093  0.2434  0.5060  0.1492
 2184TIP3    H1 6558   4.134   3.491   3.112 -0.0813  1.4250  2.4408
 2184TIP3    H2 6559   4.036   3.499   2.997  2.4826 -0.4407 -0.0211
 2185TIP3   OH2 6560   4.840   4.540   1.256 -0.2980 -0.4924  0.8189
 2185TIP3    H1 6561   4.796   4.623   1.274 -0.4815 -0.1362 -1.0840
 2185TIP3    H2 6562   4.861   4.543   1.162 -0.8477 -2.8206  0.5468
 2186TIP3   OH2 6563   3.009   3.791   1.710  0.1694  1.3590  0.0532
 2186TIP3    H1 6564   3.054   3.822   1.788  1.7722  1.3923 -0.8157
 2186TIP3    H2 6565   3.080   3.757   1.654 -1.2847 -3.4179  0.6653
 2187TIP3   OH2 6566   2.522   5.368   1.334  0.1216 -0.5554  0.0367
 2187TIP3    H1 6567   2.448   5.355   1.276  0.4554 -2.2951 -0.0331
 2187TIP3    H2 6568   2.596   5.328   1.288  0.9411  0.4110  0.4779
 2188TIP3   OH2 6569   5.378   5.620   3.348 -0.1272  0.0632 -0.4092
 2188TIP3    H1 6570   5.465   5.597   3.379 -0.5157 -2.2148 -0.8190
 2188TIP3    H2 6571   5.360   5.558   3.277 -2.5517 -0.3631  0.4654
 2189TIP3   OH2 6572   1.586   0.937   1.350  0.6601  0.2948 -0.5083
 2189TIP3    H1 6573   1.547   0.936   1.437  0.2636  0.7574 -0.6781
 2189TIP3    H2 6574   1.577   0.847   1.318  2.5113 -0.3755  0.6683
 2190TIP3   OH2 6575   0.044   0.893   4.858 -0.2106  0.8286 -0.1899
 2190TIP3    H1 6576  -0.041   0.864   4.826 -0.8666  2.3267  0.0906
 2190TIP3    H2 6577   0.077   0.951   4.789  0.1369  1.0029  0.1199
 2191TIP3   OH2 6578   1.824   0.250   1.133 -0.1863 -1.1433  0.3813
 2191TIP3    H1 6579   1.904   0.303   1.129 -1.1711  0.3453 -2.1601
 2191TIP3    H2 6580   1.855   0.160   1.143  1.6426 -0.3795  2.2579
 2192TIP3   OH2 6581   1.424   2.908   1.509 -0.3504 -0.3767  0.3437
 2192TIP3    H1 6582   1.405   2.861   1.427  0.3714 -1.1022  0.5867
 2192TIP3    H2 6583   1.389   2.852   1.578  1.2339 -0.9787  0.6919
 2193TIP3   OH2 6584   5.318   5.949   4.122 -0.0442 -0.0656  0.1617
 2193TIP3    H1 6585   5.298   6.000   4.201 -2.0760  0.3111 -0.5534
 2193TIP3    H2 6586   5.414   5.943   4.122  0.3007  3.4712  0.4552
 2194TIP3   OH2 6587   0.462   0.363   2.196  0.9396  0.3931  0.1991
 2194TIP3    H1 6588   0.426   0.303   2.262  2.2040  1.1206  1.6196
 2194TIP3    H2 6589   0.504   0.305   2.132 -0.5440 -0.3462 -0.1420
 2195TIP3   OH2 6590   4.806   3.238   3.777  0.9317 -0.1213  0.3304
 2195TIP3    H1 6591   4.840   3.149   3.787 -0.9581 -0.9183  0.1047
 2195TIP3    H2 6592   4.745   3.248   3.850 -0.9830 -0.0820 -1.2091
 2196TIP3   OH2 6593   1.905   0.923   0.436 -0.0084  0.5688 -0.0519
 2196TIP3    H1 6594   1.869   0.986   0.373  0.6992  1.9138  0.8211
 2196TIP3    H2 6595   1.984   0.889   0.394 -0.1341  0.6299 -0.3380
 2197TIP3   OH2 6596   2.880   0.591   3.815 -0.3725 -0.4311  0.4010
 2197TIP3    H1 6597   2.872   0.553   3.903  0.2820  0.1534  0.7269
 2197TIP3    H2 6598   2.793   0.627   3.797 -0.9384 -1.8447  0.1735
 2198TIP3   OH2 6599   5.086   2.819   0.227  0.3098  0.0928 -0.0848
 2198TIP3    H1 6600   5.027   2.787   0.295 -0.1585  0.1107 -0.4694
 2198TIP3    H2 6601   5.051   2.905   0.203  0.2740 -0.0508 -0.5656
 2199TIP3   OH2 6602   5.175   5.790   2.603  0.1446  0.2097  0.0708
 2199TIP3    H1 6603   5.237   5.861   2.613 -0.3917  0.8580 -0.9975
 2199TIP3    H2 6604   5.102   5.828   2.555 -0.2557 -1.0052 -0.3326
 2200TIP3   OH2 6605   0.708   0.108   1.802  0.5842 -0.3739 -0.4757
 2200TIP3    H1 6606   0.802   0.109   1.788  0.7913 -1.1794  0.6568
 2200TIP3    H2 6607   0.692   0.026   1.850 -0.4523  0.5477  0.8387
 2201TIP3   OH2 6608   1.182   4.097   3.604  0.2540 -0.0106 -0.0911
 2201TIP3    H1 6609   1.253   4.045   3.641  0.8321  1.6731  1.3226
 2201TIP3    H2 6610   1.225   4.160   3.546 -0.2768 -0.1621 -0.6587
 2202TIP3   OH2 6611   0.670   5.229   0.052  0.0756 -1.2879 -0.2096
 2202TIP3    H1 6612   0.617   5.297   0.008 -0.2281 -1.8615 -0.7434
 2202TIP3    H2 6613   0.612   5.153   0.058 -0.8033 -0.5309  3.4673
 2203TIP3   OH2 6614   2.202   5.342   1.724  0.1217  0.0639 -0.4286
 2203TIP3    H1 6615   2.271   5.402   1.696 -0.9629  2.1403  0.9907
 2203TIP3    H2 6616   2.160   5.314   1.642  1.9529 -0.4153 -1.2414
 2204TIP3   OH2 6617   6.035   0.695   1.509 -0.2183 -0.3200 -0.2638
 2204TIP3    H1 6618   6.068   0.691   1.419 -0.7012  0.8677 -0.5155
 2204TIP3    H2 6619   6.111   0.721   1.561 -0.4213  1.1237 -0.6549
 2205TIP3   OH2 6620   4.023   5.819   3.903  0.0866 -0.8389 -0.3389
 2205TIP3    H1 6621   4.034   5.746   3.964 -0.4005 -0.4280  0.2613
 2205TIP3    H2 6622   4.014   5.778   3.817 -1.2313 -1.5662  0.1059
 2206TIP3   OH2 6623   3.845   2.181   3.253  0.6555  0.0778 -0.0695
 2206TIP3    H1 6624   3.801   2.264   3.239  1.0658  0.1540 -0.9489
 2206TIP3    H2 6625   3.817   2.154   3.341 -0.9459  0.2255 -0.5110
 2207TIP3   OH2 6626   4.175   4.311   4.194 -0.0080 -0.1136  0.1797
 2207TIP3    H1 6627   4.156   4.238   4.253 -1.6237 -0.9053 -1.2098
 2207TIP3    H2 6628   4.102   4.372   4.207  1.1863  1.1956  1.1298
 2208TIP3   OH2 6629   5.304   5.136   0.046 -0.3244  0.1315 -0.0295
 2208TIP3    H1 6630   5.372   5.194   0.080  0.9751  0.8665 -3.4274
 2208TIP3    H2 6631   5.350   5.054   0.025 -1.0630 -0.3258  0.1054
 2209TIP3   OH2 6632   3.620   3.719   2.776  0.4518  0.0573  0.2321
 2209TIP3    H1 6633   3.669   3.641   2.799  0.2420  0.6178  2.8154
 2209TIP3    H2 6634   3.615   3.770   2.857 -3.0349  0.7455 -0.2476
 2210TIP3   OH2 6635   2.966   5.889   0.542  0.2356  0.1157 -0.2615
 2210TIP3    H1 6636   2.927   5.823   0.599 -2.0858  0.4964 -1.3245
 2210TIP3    H2 6637   3.005   5.839   0.471 -1.2699 -0.1727 -0.9180
 2211TIP3   OH2 6638   3.334   4.784   4.412 -0.2383  0.3011 -0.6060
 2211TIP3    H1 6639   3.334   4.738   4.496 -1.2685 -0.7435 -1.1584
 2211TIP3    H2 6640   3.303   4.872   4.433  0.9063  0.5010  0.3248
 2212TIP3   OH2 6641   3.243   4.115   4.473  0.3831 -0.2774  0.1144
 2212TIP3    H1 6642   3.292   4.136   4.553  0.7470  1.1247 -0.4340
 2212TIP3    H2 6643   3.304   4.137   4.402 -1.0950  1.8387 -0.5943
 2213TIP3   OH2 6644   5.526   4.357   4.944  0.2995 -0.0977  0.3241
 2213TIP3    H1 6645   5.471   4.393   5.015 -0.3973  1.1994 -0.8347
 2213TIP3    H2 6646   5.525   4.424   4.876  0.5923 -1.4927 -1.1203
 2214TIP3   OH2 6647   2.762   4.408   3.155  0.2762 -0.0787  0.0934
 2214TIP3    H1 6648   2.702   4.341   3.187 -0.7356  0.3794 -0.8099
 2214TIP3    H2 6649   2.773   4.387   3.062 -1.7703  2.2141 -0.7595
 2215TIP3   OH2 6650   4.929   1.074   4.497 -0.4069  0.0282  0.3352
 2215TIP3    H1 6651   4.864   1.118   4.553  0.8521 -0.2941  2.1402
 2215TIP3    H2 6652   4.986   1.028   4.558  1.1917 -0.1686 -1.2237
 2216TIP3   OH2 6653   1.079   0.730   4.642  0.4379  0.0131  0.6062
 2216TIP3    H1 6654   1.149   0.698   4.700  0.3324  0.5682  1.0538
 2216TIP3    H2 6655   1.010   0.665   4.649  0.1275  0.4321  1.6900
 2217TIP3   OH2 6656   0.412   4.497   0.292 -0.0528  0.6754  0.0603
 2217TIP3    H1 6657   0.355   4.531   0.361  1.5528  3.0218  0.3129
 2217TIP3    H2 6658   0.360   4.428   0.250 -1.8957  0.6866  2.1779
 2218TIP3   OH2 6659   4.893   2.507   1.393  0.2320  0.2073 -0.1230
 2218TIP3    H1 6660   4.963   2.525   1.456  0.1356 -2.2958  0.8046
 2218TIP3    H2 6661   4.816   2.547   1.431  0.8458  1.7352 -0.4263
 2219TIP3   OH2 6662   3.394   0.511   0.314  0.1708  0.0926  0.2106
 2219TIP3    H1 6663   3.479   0.481   0.344 -0.1369 -0.7568  0.2536
 2219TIP3    H2 6664   3.374   0.457   0.238 -1.9992 -2.4510  2.3830
 2220TIP3   OH2 6665   4.436   1.834   4.440 -0.0305 -0.5592 -0.6548
 2220TIP3    H1 6666   4.433   1.930   4.438 -2.8403 -0.5214  0.5930
 2220TIP3    H2 6667   4.366   1.807   4.380  0.2266 -1.8356 -0.4055
 2221TIP3   OH2 6668   5.952   4.354   0.085  0.4559 -0.3401 -0.1715
 2221TIP3    H1 6669   6.008   4.372   0.010 -0.4242  0.4068 -0.6843
 2221TIP3    H2 6670   6.000   4.389   0.160  0.5017  0.7012 -0.6589
 2222TIP3   OH2 6671   0.108   2.805   2.735  0.1459 -0.0116  0.1263
 2222TIP3    H1 6672   0.022   2.783   2.772  0.7880 -0.2859  1.5179
 2222TIP3    H2 6673   0.118   2.745   2.661 -1.7558  1.4665 -1.4540
 2223TIP3   OH2 6674   5.865   1.131   2.659  0.0781 -0.7121 -0.0113
 2223TIP3    H1 6675   5.796   1.090   2.608  0.1270 -0.2060 -0.4901
 2223TIP3    H2 6676   5.831   1.217   2.682 -0.1732 -1.1292  1.3064
 2224TIP3   OH2 6677   1.306   5.363   3.147 -0.2745  0.4425  0.1304
 2224TIP3    H1 6678   1.366   5.329   3.212 -0.7045  1.0427  0.8528
 2224TIP3    H2 6679   1.348   5.343   3.063  0.0209 -0.8287  0.5513
 2225TIP3   OH2 6680   1.588   2.314   2.963  0.0629 -0.6896 -0.1141
 2225TIP3    H1 6681   1.590   2.221   2.940 -0.6654 -0.8878  0.5746
 2225TIP3    H2 6682   1.611   2.359   2.882  0.2117 -1.4623 -0.5121
 2226TIP3   OH2 6683   1.770   2.756   4.493  1.0456  0.1820  0.2641
 2226TIP3    H1 6684   1.749   2.699   4.419  1.1912  0.1543  0.2428
 2226TIP3    H2 6685   1.738   2.842   4.468  0.9950  0.1493  0.2159
 2227TIP3   OH2 6686   3.237   0.477   2.444 -0.1329  0.3605  0.2563
 2227TIP3    H1 6687   3.195   0.545   2.390  2.5848  2.2782  0.3677
 2227TIP3    H2 6688   3.294   0.525   2.504  1.6374 -2.0122  0.6310
 2228TIP3   OH2 6689   4.236   2.448   3.908 -0.6530 -0.0441  0.2951
 2228TIP3    H1 6690   4.181   2.474   3.982 -0.1802 -2.4880  1.5989
 2228TIP3    H2 6691   4.186   2.381   3.862 -0.6495  0.9683 -1.2666
 2229TIP3   OH2 6692   0.181   4.862   4.150 -0.0345  0.5270  0.0626
 2229TIP3    H1 6693   0.120   4.832   4.082 -0.2740 -0.4383  0.6806
 2229TIP3    H2 6694   0.152   4.951   4.171 -0.3844  0.5808 -0.6033
 2230TIP3   OH2 6695   4.441   4.628   1.165  0.3876 -0.2528  0.3817
 2230TIP3    H1 6696   4.373   4.632   1.232  0.5472  1.5953  0.4794
 2230TIP3    H2 6697   4.488   4.711   1.173  0.3588  0.0877 -2.0489
 2231TIP3   OH2 6698  -0.017   2.862   0.749  0.6000 -0.0042  0.0994
 2231TIP3    H1 6699  -0.044   2.852   0.658 -1.1064 -3.1598  0.7920
 2231TIP3    H2 6700   0.076   2.839   0.749  0.1089 -2.3010 -0.6461
 2232TIP3   OH2 6701   4.235   1.447   2.204 -0.2793 -0.0801 -0.3696
 2232TIP3    H1 6702   4.271   1.530   2.172 -1.7995  0.8356  0.1385
 2232TIP3    H2 6703   4.268   1.439   2.294 -1.4264  0.8625  0.1695
 2233TIP3   OH2 6704   0.061   4.036   1.844  0.5298 -0.0413 -0.0903
 2233TIP3    H1 6705   0.039   3.974   1.913  0.1763  1.0054  0.7797
 2233TIP3    H2 6706   0.010   4.115   1.866  1.4868  0.7917 -0.7620
 2234TIP3   OH2 6707   3.011   5.126   0.425 -0.0745 -0.2027  0.5053
 2234TIP3    H1 6708   3.003   5.208   0.472 -0.2219  0.3566 -0.4636
 2234TIP3    H2 6709   2.991   5.059   0.490  1.2764  0.4418  1.6175
 2235TIP3   OH2 6710   6.201   5.794   3.740 -0.0770 -0.2533 -0.1353
 2235TIP3    H1 6711   6.169   5.704   3.736  1.3102 -0.7996  0.2543
 2235TIP3    H2 6712   6.233   5.812   3.651  0.2563 -0.3953 -0.0466
 2236TIP3   OH2 6713   1.185   4.144   3.306 -0.0808 -0.0226 -0.4630
 2236TIP3    H1 6714   1.214   4.064   3.349 -0.5954 -0.5401 -1.0528
 2236TIP3    H2 6715   1.091   4.130   3.290  0.0443  0.2455 -1.5136
 2237TIP3   OH2 6716   0.859   6.003   1.576 -0.1147  0.1579 -0.1801
 2237TIP3    H1 6717   0.773   6.000   1.616  0.4845 -0.2592  1.1215
 2237TIP3    H2 6718   0.915   5.953   1.635  0.8953 -0.1017 -1.3202
 2238TIP3   OH2 6719   1.609   0.779   3.369 -0.0908 -0.2663  0.2796
 2238TIP3    H1 6720   1.698   0.811   3.357 -0.1601 -0.6172 -1.3458
 2238TIP3    H2 6721   1.561   0.812   3.293 -1.0250 -1.1926  0.4453
 2239TIP3   OH2 6722   1.252   1.992   2.205  0.0604  1.0843 -0.7075
 2239TIP3    H1 6723   1.212   1.910   2.236  2.8938 -0.4973 -0.8768
 2239TIP3    H2 6724   1.196   2.020   2.132 -0.7861 -0.9315 -0.8936
 2240TIP3   OH2 6725   1.871   2.843   3.094  0.1290 -0.2784 -0.3002
 2240TIP3    H1 6726   1.827   2.777   3.041  0.0847 -0.5349  0.0561
 2240TIP3    H2 6727   1.910   2.903   3.030  1.1623 -1.3000 -0.6558
 2241TIP3   OH2 6728   4.545   2.600   1.083  0.2078  0.1208  0.2464
 2241TIP3    H1 6729   4.543   2.536   1.012 -0.2837  1.8563 -1.3903
 2241TIP3    H2 6730   4.464   2.585   1.131  1.5497 -2.5497  1.9365
 2242TIP3   OH2 6731   5.138   1.400   3.920 -0.5456 -0.1183 -0.3150
 2242TIP3    H1 6732   5.229   1.375   3.938 -0.1437  1.6737  0.2934
 2242TIP3    H2 6733   5.131   1.395   3.825  0.5281  0.7620 -0.4614
 2243TIP3   OH2 6734   5.054   2.146   2.234 -0.2340 -0.0443 -0.3297
 2243TIP3    H1 6735   5.005   2.128   2.154  1.3677  1.0520 -1.6159
 2243TIP3    H2 6736   5.041   2.240   2.250 -0.7148 -0.2902  0.8436
 2244TIP3   OH2 6737   4.087   2.520   4.168 -0.1884 -0.0224 -0.1472
 2244TIP3    H1 6738   4.031   2.584   4.210 -0.9460 -1.3993  1.0204
 2244TIP3    H2 6739   4.041   2.437   4.179  1.0535 -0.8729 -1.0795
 2245TIP3   OH2 6740   0.958   3.477   3.532 -0.1190  0.2505 -0.1035
 2245TIP3    H1 6741   0.911   3.560   3.534 -2.3363 -0.9140 -0.4188
 2245TIP3    H2 6742   0.998   3.475   3.445  2.0778  1.9942  0.7615
 2246TIP3   OH2 6743   5.982   1.276   4.527 -0.6118 -0.4070  0.0440
 2246TIP3    H1 6744   5.940   1.272   4.613  0.6675  1.0395  0.7976
 2246TIP3    H2 6745   5.918   1.321   4.472  0.0991  2.4869  1.3751
 2247TIP3   OH2 6746   3.785   1.543   2.519  0.1454  0.0840  0.1911
 2247TIP3    H1 6747   3.820   1.620   2.476  0.1219  0.7605  1.3375
 2247TIP3    H2 6748   3.701   1.571   2.555 -0.2292 -0.6997 -0.0525
 2248TIP3   OH2 6749   0.614   1.050   3.767  0.0255  0.1691 -0.3617
 2248TIP3    H1 6750   0.595   0.960   3.795 -0.9421  0.3097 -0.5272
 2248TIP3    H2 6751   0.528   1.090   3.756  0.4515  1.3922  0.5723
 2249TIP3   OH2 6752   1.815   1.367   0.805  0.4752 -0.0735 -0.2404
 2249TIP3    H1 6753   1.852   1.286   0.772  0.3742  0.0560 -0.6740
 2249TIP3    H2 6754   1.850   1.375   0.894  0.4413 -0.6164 -0.1774
 2250TIP3   OH2 6755   5.167   2.428   4.100  0.5890 -0.5434 -0.5424
 2250TIP3    H1 6756   5.111   2.360   4.139  1.2127 -0.5706  0.3302
 2250TIP3    H2 6757   5.106   2.490   4.061 -0.0001 -1.5531 -1.2885
 2251TIP3   OH2 6758   5.546   2.921   0.497  0.3852 -0.6028  0.5074
 2251TIP3    H1 6759   5.510   2.850   0.444 -0.2373  0.5425 -0.6598
 2251TIP3    H2 6760   5.626   2.948   0.452  0.8585 -0.8282  1.1855
 2252TIP3   OH2 6761   2.189   1.431   3.904  0.4325  0.8071 -0.3670
 2252TIP3    H1 6762   2.196   1.443   3.809  0.5647 -0.1016 -0.4776
 2252TIP3    H2 6763   2.097   1.449   3.923  0.3731  0.8570 -0.6814
 2253TIP3   OH2 6764   2.789   0.299   3.175 -0.2976  0.2847 -0.5523
 2253TIP3    H1 6765   2.870   0.348   3.161  0.6483 -1.0906 -0.1310
 2253TIP3    H2 6766   2.755   0.331   3.258 -0.8524  1.7235 -1.3050
 2254TIP3   OH2 6767   2.207   4.931   1.943  0.0268  0.7053  0.5168
 2254TIP3    H1 6768   2.229   4.890   1.860  1.8495  2.0008  0.2815
 2254TIP3    H2 6769   2.139   4.875   1.981 -0.8729  0.1169 -1.8321
 2255TIP3   OH2 6770   3.515   2.701   2.136  0.6168  0.5350  0.3425
 2255TIP3    H1 6771   3.580   2.662   2.078 -0.4304  0.4508 -0.8383
 2255TIP3    H2 6772   3.554   2.698   2.223  1.9224 -0.0563 -0.2450
 2256TIP3   OH2 6773   2.291   3.928   0.809 -0.2254 -0.2645  0.3431
 2256TIP3    H1 6774   2.373   3.976   0.801 -0.5762  0.3322  0.3005
 2256TIP3    H2 6775   2.232   3.970   0.746 -0.2056 -1.4743 -0.5305
 2257TIP3   OH2 6776   5.651   4.431   4.362  0.5011 -0.1716 -0.1768
 2257TIP3    H1 6777   5.658   4.522   4.390  0.1686 -0.1983 -0.0104
 2257TIP3    H2 6778   5.722   4.387   4.409 -0.0923 -0.2271  0.6829
 2258TIP3   OH2 6779   0.330   5.741   4.730  0.1586 -0.7073  0.0249
 2258TIP3    H1 6780   0.334   5.809   4.662  1.1039 -0.3668  0.4117
 2258TIP3    H2 6781   0.244   5.754   4.770  0.5584  0.6696  0.4974
 2259TIP3   OH2 6782   5.501   4.280   1.241 -0.6485  0.4174 -0.4415
 2259TIP3    H1 6783   5.474   4.257   1.330  2.6669  0.6349  0.7416
 2259TIP3    H2 6784   5.510   4.376   1.242 -0.4349  0.4090 -0.9907
 2260TIP3   OH2 6785   4.190   5.545   1.161 -0.0272  0.0849 -0.1708
 2260TIP3    H1 6786   4.111   5.597   1.177  1.0705  1.7486  0.1310
 2260TIP3    H2 6787   4.174   5.502   1.077 -2.2954 -1.7572  1.0999
 2261TIP3   OH2 6788   3.090   0.817   3.738 -0.4855  0.0562 -0.1105
 2261TIP3    H1 6789   3.073   0.862   3.821 -0.9662  2.0022 -1.2186
 2261TIP3    H2 6790   3.044   0.733   3.748 -1.2925  0.6154  1.2530
 2262TIP3   OH2 6791   4.142   0.419   3.907 -0.1490 -0.1080 -0.0935
 2262TIP3    H1 6792   4.095   0.342   3.937 -0.4874  0.6683  1.5380
 2262TIP3    H2 6793   4.076   0.488   3.902 -0.3625 -0.4240 -4.0044
 2263TIP3   OH2 6794   2.847   0.511   4.063  0.5914 -0.3533  0.6832
 2263TIP3    H1 6795   2.823   0.419   4.065 -1.1039 -0.0683 -1.8932
 2263TIP3    H2 6796   2.858   0.535   4.155 -1.5722 -2.4660  1.5896
 2264TIP3   OH2 6797   3.763   0.410   0.904  0.5303 -0.3992 -0.2937
 2264TIP3    H1 6798   3.845   0.409   0.954 -0.9708 -1.5147  2.2897
 2264TIP3    H2 6799   3.757   0.321   0.868  0.1449 -0.5268  0.0809
 2265TIP3   OH2 6800   1.400   4.008   4.188  0.1113 -0.1324 -0.6562
 2265TIP3    H1 6801   1.449   3.927   4.173  1.5721  0.2143  1.7424
 2265TIP3    H2 6802   1.400   4.052   4.103  0.3574 -2.0634 -1.7108
 2266TIP3   OH2 6803   3.780   5.076   3.253  0.1344 -0.1139  0.2799
 2266TIP3    H1 6804   3.806   4.987   3.279  1.1101  0.1151  0.1173
 2266TIP3    H2 6805   3.858   5.129   3.268 -0.2901  0.6275 -0.0959
 2267TIP3   OH2 6806   3.646   0.345   3.320 -0.6099 -0.1226 -0.3078
 2267TIP3    H1 6807   3.554   0.356   3.340 -1.0294  0.4140 -2.2544
 2267TIP3    H2 6808   3.649   0.342   3.224  1.0393 -3.4374 -0.2847
 2268TIP3   OH2 6809   4.109   3.886   4.537 -0.1804  0.3264  0.6959
 2268TIP3    H1 6810   4.031   3.852   4.495  0.4111  0.8356 -0.8719
 2268TIP3    H2 6811   4.175   3.817   4.525 -0.2249  0.1317  1.5220
 2269TIP3   OH2 6812   4.402   1.679   4.053  0.1383  0.3196 -0.5884
 2269TIP3    H1 6813   4.415   1.660   4.146  2.6388 -1.0319 -1.1208
 2269TIP3    H2 6814   4.307   1.681   4.042 -0.2578  1.7773  2.1976
 2270TIP3   OH2 6815   0.954   4.095   2.498 -0.2624  0.4276  0.3497
 2270TIP3    H1 6816   0.993   4.160   2.556 -1.0292  0.4244  0.8801
 2270TIP3    H2 6817   0.950   4.138   2.413 -0.3311  0.9013  0.5907
 2271TIP3   OH2 6818   0.576   2.531   1.686 -0.3095 -0.2703 -0.1038
 2271TIP3    H1 6819   0.570   2.607   1.745  0.7203 -0.0404 -0.2697
 2271TIP3    H2 6820   0.494   2.531   1.637 -0.6325  0.2942  0.4256
 2272TIP3   OH2 6821   2.034   5.929   1.675  0.1031 -0.4317  0.0111
 2272TIP3    H1 6822   2.005   6.009   1.632 -0.8815 -0.5614  0.4036
 2272TIP3    H2 6823   2.126   5.944   1.696  0.2847  0.0780 -1.1005
 2273TIP3   OH2 6824   3.648   1.193   4.029  0.5325 -0.7427 -0.5723
 2273TIP3    H1 6825   3.574   1.253   4.025  1.0035 -0.0995  0.0777
 2273TIP3    H2 6826   3.667   1.172   3.938 -1.1716 -1.8523 -0.7184
 2274TIP3   OH2 6827   6.245   3.092   1.419 -0.4567 -0.0125 -0.0976
 2274TIP3    H1 6828   6.330   3.135   1.428 -0.6723  0.5538 -0.6883
 2274TIP3    H2 6829   6.244   3.027   1.489  0.0502  0.6551  0.5538
 2275TIP3   OH2 6830   0.820   5.601   1.233  0.6280 -0.7574  0.1758
 2275TIP3    H1 6831   0.856   5.651   1.160  0.3286 -0.1258  0.4575
 2275TIP3    H2 6832   0.886   5.534   1.251  1.3949  0.0223  0.3087
 2276TIP3   OH2 6833   4.626   2.628   1.540  0.4802 -0.0560 -0.0433
 2276TIP3    H1 6834   4.679   2.679   1.601  0.8766  2.3480 -2.1789
 2276TIP3    H2 6835   4.554   2.687   1.517 -0.9378 -1.7602 -0.2112
 2277TIP3   OH2 6836   2.344   0.627   3.792  0.2679  0.4016  0.1388
 2277TIP3    H1 6837   2.366   0.537   3.813 -0.0974  0.3292  0.2201
 2277TIP3    H2 6838   2.256   0.622   3.753  1.2859  0.4075 -2.3280
 2278TIP3   OH2 6839   1.531   1.423   2.239 -0.2898  0.1729 -0.1369
 2278TIP3    H1 6840   1.478   1.458   2.311 -0.7315 -0.3181 -0.2139
 2278TIP3    H2 6841   1.580   1.351   2.278  2.0004  1.9614  0.4656
 2279TIP3   OH2 6842   0.064   0.096   0.358  0.8617  0.4654 -0.0936
 2279TIP3    H1 6843   0.025   0.183   0.369  1.7275  1.0344 -1.3253
 2279TIP3    H2 6844  -0.004   0.045   0.313 -0.6971 -0.3585  2.9411
 2280TIP3   OH2 6845   2.977   0.321   0.129 -0.0660  0.6426  0.5233
 2280TIP3    H1 6846   3.043   0.382   0.095  2.0741 -1.0343  1.4681
 2280TIP3    H2 6847   2.966   0.257   0.059  0.7678 -0.1449  1.0977
 2281TIP3   OH2 6848   2.021   1.741   1.627  0.1476  0.2937 -0.3234
 2281TIP3    H1 6849   1.993   1.758   1.717  0.5530 -1.6115  0.2216
 2281TIP3    H2 6850   2.116   1.727   1.634 -0.0939 -1.9647 -0.6132
 2282TIP3   OH2 6851   2.042   4.162   3.193  0.2521  0.1683  0.3911
 2282TIP3    H1 6852   2.018   4.245   3.234 -0.6894  0.4041 -0.5735
 2282TIP3    H2 6853   2.004   4.167   3.105 -0.8528 -1.7599  0.6923
 2283TIP3   OH2 6854   4.573   1.476   3.410  0.4156  0.3696 -0.1681
 2283TIP3    H1 6855   4.528   1.434   3.337  0.5433  1.0912 -0.6787
 2283TIP3    H2 6856   4.508   1.534   3.448  0.2448 -0.2628  0.5215
 2284TIP3   OH2 6857   2.309   2.140   5.053  0.3984  0.3305 -0.7496
 2284TIP3    H1 6858   2.368   2.082   5.004 -0.2193 -0.6935 -0.3035
 2284TIP3    H2 6859   2.255   2.082   5.105 -1.6041  1.1804 -1.7647
 2285TIP3   OH2 6860   4.499   1.168   3.905 -0.0320 -0.5064  0.3386
 2285TIP3    H1 6861   4.417   1.200   3.943 -0.7855  1.3828 -2.4987
 2285TIP3    H2 6862   4.567   1.221   3.946 -0.1865 -1.9218  2.5438
 2286TIP3   OH2 6863   4.188   4.789   2.236  0.2970 -0.5227 -0.0782
 2286TIP3    H1 6864   4.121   4.814   2.172 -0.2106  0.6204  0.8618
 2286TIP3    H2 6865   4.270   4.802   2.190 -0.0617  0.2618 -0.5311
 2287TIP3   OH2 6866   0.774   2.945   1.288 -0.3825  0.2186  0.3087
 2287TIP3    H1 6867   0.816   2.866   1.322  1.2963  0.5618 -0.8656
 2287TIP3    H2 6868   0.681   2.932   1.307  0.0712 -1.1319  1.8889
 2288TIP3   OH2 6869   3.003   1.180   0.601 -0.2033 -0.0070  0.1872
 2288TIP3    H1 6870   3.081   1.170   0.547 -0.5233  0.0435 -0.2976
 2288TIP3    H2 6871   3.029   1.241   0.670 -0.1934  1.1086 -0.7586
 2289TIP3   OH2 6872   3.219   2.020   0.096 -0.1306 -0.1893 -0.5551
 2289TIP3    H1 6873   3.132   2.061   0.100  0.0741  0.1378  1.0382
 2289TIP3    H2 6874   3.277   2.091   0.068 -0.5238 -0.7371 -3.0096
 2290TIP3   OH2 6875   0.588   5.781   4.478 -0.5280 -0.3217 -0.2922
 2290TIP3    H1 6876   0.509   5.764   4.425 -0.4686  0.0485 -0.5120
 2290TIP3    H2 6877   0.556   5.835   4.551 -0.2208  1.3598 -1.3301
 2291TIP3   OH2 6878   2.035   5.244   5.155  0.1837 -0.0998 -0.2258
 2291TIP3    H1 6879   2.056   5.257   5.248  0.9477 -0.1742 -0.3767
 2291TIP3    H2 6880   1.990   5.159   5.152 -2.7260  1.2927  0.4591
 2292TIP3   OH2 6881   2.168   2.127   0.434  0.6785  0.7707 -0.5181
 2292TIP3    H1 6882   2.243   2.136   0.376 -0.1914 -0.2805 -1.8639
 2292TIP3    H2 6883   2.110   2.065   0.390  0.5319 -1.0903  2.0672
 2293TIP3   OH2 6884   3.770   3.467   3.834 -0.4275  0.5682 -0.0543
 2293TIP3    H1 6885   3.766   3.512   3.749  1.1551 -2.3555 -1.8369
 2293TIP3    H2 6886   3.864   3.458   3.852 -0.7359  0.6950  1.8157
 2294TIP3   OH2 6887   4.746   1.233   4.622 -0.0815 -0.2097 -0.4711
 2294TIP3    H1 6888   4.823   1.266   4.669  0.4670 -0.5690 -1.0945
 2294TIP3    H2 6889   4.685   1.306   4.621  0.0418 -0.0789  0.4799
 2295TIP3   OH2 6890   1.324   5.076   4.963  0.1037  0.1162  0.3513
 2295TIP3    H1 6891   1.306   5.001   4.907  4.1667 -2.3194  1.8730
 2295TIP3    H2 6892   1.318   5.040   5.052  2.6682  1.3474  1.1072
 2296TIP3   OH2 6893   0.118   3.605   2.279  0.1016 -0.8067  0.0474
 2296TIP3    H1 6894   0.150   3.630   2.366 -0.1198  2.3778 -0.6766
 2296TIP3    H2 6895   0.026   3.631   2.279  0.2719 -0.0978 -1.3402
 2297TIP3   OH2 6896   0.361   4.583   0.926 -0.2160 -0.1217 -0.1159
 2297TIP3    H1 6897   0.396   4.536   0.850  1.7915 -0.3114  0.8653
 2297TIP3    H2 6898   0.383   4.675   0.910  1.1306 -0.2845  0.6686
 2298TIP3   OH2 6899   0.500   0.252   0.988 -0.1251  0.0108  0.0746
 2298TIP3    H1 6900   0.516   0.267   1.081  0.1862  1.2575 -0.1502
 2298TIP3    H2 6901   0.429   0.313   0.966 -0.5419 -0.6328 -0.4052
 2299TIP3   OH2 6902   2.878   2.399   3.309  0.2007  0.4292  0.0889
 2299TIP3    H1 6903   2.863   2.315   3.265  1.7900 -1.2733  2.5439
 2299TIP3    H2 6904   2.821   2.396   3.386  1.6577  0.6956  1.2281
 2300TIP3   OH2 6905   2.363   0.830   2.066  0.3089 -0.3127 -0.3412
 2300TIP3    H1 6906   2.391   0.911   2.024  2.4318 -1.4413 -1.2705
 2300TIP3    H2 6907   2.286   0.803   2.016  1.7890 -0.7505 -2.5334
 2301TIP3   OH2 6908   6.317   4.662   2.786 -0.0750 -0.2235 -0.0044
 2301TIP3    H1 6909   6.242   4.703   2.742  0.3517 -0.7197 -1.2344
 2301TIP3    H2 6910   6.306   4.568   2.770  0.8521 -0.2977 -0.2749
 2302TIP3   OH2 6911   2.012   4.562   2.810 -0.2358 -0.6338 -0.8476
 2302TIP3    H1 6912   2.020   4.470   2.786  1.7393 -0.9058  0.6221
 2302TIP3    H2 6913   2.035   4.610   2.731  3.5653 -1.4794 -0.4166
 2303TIP3   OH2 6914   5.542   0.143   2.602 -0.0171 -0.3460  1.0767
 2303TIP3    H1 6915   5.600   0.216   2.621  0.1439 -0.5353  1.3106
 2303TIP3    H2 6916   5.580   0.101   2.525 -0.1327 -0.1605  0.9170
 2304TIP3   OH2 6917   4.681   1.811   0.625  0.6031 -0.0836 -0.0813
 2304TIP3    H1 6918   4.672   1.887   0.682 -1.1298  0.1644 -0.6220
 2304TIP3    H2 6919   4.769   1.819   0.587  0.4445  1.6724 -0.1619
 2305TIP3   OH2 6920   4.616   3.230   4.049 -0.1548 -0.0270 -0.6063
 2305TIP3    H1 6921   4.528   3.260   4.073 -0.4022 -1.6329  0.7001
 2305TIP3    H2 6922   4.633   3.157   4.108 -0.0400 -3.1129 -4.0726
 2306TIP3   OH2 6923   5.060   1.647   0.845  0.1118  0.0769  0.0956
 2306TIP3    H1 6924   5.039   1.611   0.758 -1.4617  1.8546 -0.3269
 2306TIP3    H2 6925   4.977   1.643   0.892  0.3877  1.2798  0.7052
 2307TIP3   OH2 6926   2.358   2.826   1.698  0.2980  0.5636  0.1610
 2307TIP3    H1 6927   2.448   2.844   1.723  0.1045 -0.8415  2.0761
 2307TIP3    H2 6928   2.350   2.730   1.702 -1.6748  0.7227  1.6373
 2308TIP3   OH2 6929   2.894   4.102   1.851  0.0415  0.1990  0.1746
 2308TIP3    H1 6930   2.965   4.042   1.875  0.0725  0.4842  0.8027
 2308TIP3    H2 6931   2.915   4.129   1.761  0.8936  0.5133  0.4604
 2309TIP3   OH2 6932   1.128   1.748   1.151 -0.1596  0.0349  0.1643
 2309TIP3    H1 6933   1.197   1.797   1.107  1.7375 -2.1163  0.5558
 2309TIP3    H2 6934   1.126   1.784   1.240 -0.0503  0.5816 -0.0488
 2310TIP3   OH2 6935   3.216   2.280   3.278 -0.5979  0.1306 -0.2110
 2310TIP3    H1 6936   3.125   2.308   3.286 -0.4531  0.4212  0.5560
 2310TIP3    H2 6937   3.249   2.281   3.368  0.3616  0.7231 -0.5564
 2311TIP3   OH2 6938   0.220   0.114   2.850 -0.0228 -0.3842  0.5279
 2311TIP3    H1 6939   0.147   0.172   2.828  1.9331  2.0625  0.0731
 2311TIP3    H2 6940   0.230   0.058   2.773 -0.4613  0.2830 -0.0277
 2312TIP3   OH2 6941   3.926   0.806   4.727 -0.1365 -0.1565  0.2964
 2312TIP3    H1 6942   3.971   0.805   4.811  0.0698 -0.5613  0.1852
 2312TIP3    H2 6943   3.931   0.897   4.698 -0.9191  0.1507  1.0901
 2313TIP3   OH2 6944   1.387   0.672   0.760 -0.0045  0.0358 -0.0096
 2313TIP3    H1 6945   1.428   0.609   0.820  0.1256  0.1459  0.0161
 2313TIP3    H2 6946   1.326   0.619   0.709  0.8461 -0.3011 -0.6973
 2314TIP3   OH2 6947   1.218   3.195   1.671  0.0236  0.1778  0.5387
 2314TIP3    H1 6948   1.141   3.157   1.630  0.9170 -1.3634  0.2166
 2314TIP3    H2 6949   1.290   3.175   1.611  1.0763 -0.6088  1.9894
 2315TIP3   OH2 6950   0.292   3.488   4.209 -0.4068 -0.6552  0.2322
 2315TIP3    H1 6951   0.351   3.559   4.182  0.2684 -1.2533  0.1236
 2315TIP3    H2 6952   0.241   3.527   4.280  0.7676 -0.4069  0.9760
 2316TIP3   OH2 6953   4.527   0.592   2.344 -0.2129 -0.0961  0.0865
 2316TIP3    H1 6954   4.541   0.629   2.431  2.0780  0.4465 -0.4479
 2316TIP3    H2 6955   4.614   0.572   2.312 -0.9371  0.3394 -2.3665
 2317TIP3   OH2 6956   0.620   5.855   2.099  0.0188  0.0157 -0.0773
 2317TIP3    H1 6957   0.651   5.909   2.027 -0.3082  3.4580  2.1139
 2317TIP3    H2 6958   0.699   5.830   2.147  0.1156 -0.8793 -0.6832
 2318TIP3   OH2 6959   5.783   3.963   2.359 -0.0682  0.1261 -0.0266
 2318TIP3    H1 6960   5.721   3.935   2.291 -0.6743 -0.4199  0.7242
 2318TIP3    H2 6961   5.763   3.906   2.433  0.7156  0.5836  0.5462
 2319TIP3   OH2 6962   3.265   2.821   2.223  0.4800 -0.2737  0.3298
 2319TIP3    H1 6963   3.332   2.758   2.197 -0.1806 -1.3943  1.2335
 2319TIP3    H2 6964   3.306   2.874   2.291  0.1588 -1.7116  1.7309
 2320TIP3   OH2 6965   3.066   3.897   0.614  0.1480 -0.6024  0.1006
 2320TIP3    H1 6966   3.140   3.956   0.599 -0.9330  0.8742  0.4056
 2320TIP3    H2 6967   3.004   3.917   0.544  0.1679 -2.0839 -0.3666
 2321TIP3   OH2 6968   3.366   3.193   1.738  0.1908  0.1342 -0.3326
 2321TIP3    H1 6969   3.461   3.199   1.751  0.2829 -0.8571 -0.4310
 2321TIP3    H2 6970   3.329   3.223   1.821  0.6330 -0.5264  0.1222
 2322TIP3   OH2 6971   0.941   5.205   3.381 -0.3104  0.3608  0.4322
 2322TIP3    H1 6972   1.014   5.264   3.400 -0.8997  0.8365  1.3122
 2322TIP3    H2 6973   0.907   5.181   3.467  0.2832 -1.7738  0.1412
 2323TIP3   OH2 6974   3.708   3.805   0.888 -0.0760  0.8775 -0.0440
 2323TIP3    H1 6975   3.752   3.800   0.803  1.0968 -0.7027  0.6196
 2323TIP3    H2 6976   3.617   3.783   0.868  0.2050  0.4333 -0.8913
 2324TIP3   OH2 6977   2.782   2.315   3.983 -0.1442 -0.7561  0.1163
 2324TIP3    H1 6978   2.850   2.381   3.995 -0.9085  0.3165 -1.1516
 2324TIP3    H2 6979   2.782   2.265   4.065 -0.5468  1.7707  1.7554
 2325TIP3   OH2 6980   1.944   1.204   0.374 -0.0369  0.0522  0.0572
 2325TIP3    H1 6981   1.976   1.218   0.464 -2.1786  0.5412  0.8197
 2325TIP3    H2 6982   1.897   1.285   0.353  0.2564 -0.1437 -1.4477
 2326TIP3   OH2 6983   5.814   1.211   2.335  0.2137 -0.5116 -0.6980
 2326TIP3    H1 6984   5.800   1.119   2.358  2.5493 -0.8614 -0.4600
 2326TIP3    H2 6985   5.744   1.258   2.379 -0.7726 -2.1226 -0.4676
 2327TIP3   OH2 6986   0.071   4.579   1.494  0.8300  0.0666 -0.1956
 2327TIP3    H1 6987   0.058   4.506   1.554 -0.4242  1.3286  1.1290
 2327TIP3    H2 6988  -0.006   4.634   1.505  2.7248  2.7529  0.5366
 2328TIP3   OH2 6989   4.472   5.728   2.219  0.4563  0.0847 -0.1963
 2328TIP3    H1 6990   4.391   5.733   2.167  0.2013  0.3041  0.2119
 2328TIP3    H2 6991   4.480   5.636   2.243 -0.0188  0.1662  0.2927
 2329TIP3   OH2 6992   5.479   0.606   2.291 -0.2389  0.0754 -0.1749
 2329TIP3    H1 6993   5.390   0.638   2.309 -0.0505  0.1304  0.7202
 2329TIP3    H2 6994   5.468   0.543   2.220 -0.7391  1.4429 -1.3405
 2330TIP3   OH2 6995   3.241   0.882   2.701  0.2770  0.0337 -0.0424
 2330TIP3    H1 6996   3.191   0.891   2.619  0.9233  1.4064 -0.3207
 2330TIP3    H2 6997   3.328   0.917   2.679  0.3441  0.7790  1.3296
 2331TIP3   OH2 6998   0.787   0.147   3.320  0.8698 -0.4331 -0.3259
 2331TIP3    H1 6999   0.855   0.149   3.252  0.7508 -0.2985 -0.4406
 2331TIP3    H2 7000   0.738   0.067   3.302 -0.8797  0.9478 -2.0771
 2332TIP3   OH2 7001   5.527   5.305   4.054 -0.1682  0.1714  0.5451
 2332TIP3    H1 7002   5.613   5.272   4.027 -0.0127  0.1856  1.0288
 2332TIP3    H2 7003   5.543   5.350   4.137 -0.4194  1.2733  0.0147
 2333TIP3   OH2 7004   1.417   4.218   5.024  0.1553 -0.5831  0.4174
 2333TIP3    H1 7005   1.465   4.237   5.105 -0.6648 -2.2522  1.3493
 2333TIP3    H2 7006   1.333   4.183   5.054 -0.0715 -1.4395 -1.1536
 2334TIP3   OH2 7007   5.349   3.420   2.564 -0.2129 -0.1735  0.3757
 2334TIP3    H1 7008   5.299   3.388   2.489 -2.0305  0.6586  1.1696
 2334TIP3    H2 7009   5.286   3.423   2.635  0.9925  0.9163  1.4507
 2335TIP3   OH2 7010   1.825   3.380   0.089 -0.3020  0.2858  0.5785
 2335TIP3    H1 7011   1.853   3.295   0.122  0.8006  0.7963  1.0282
 2335TIP3    H2 7012   1.906   3.420   0.055 -0.7004  1.3488  0.8312
 2336TIP3   OH2 7013   3.559   4.766   4.236 -0.3546 -0.3300 -0.6366
 2336TIP3    H1 7014   3.537   4.744   4.145  1.0624 -0.1122 -1.0498
 2336TIP3    H2 7015   3.475   4.764   4.282 -1.1554 -0.0129 -2.0361
 2337TIP3   OH2 7016   3.569   5.974   0.894  0.0820  0.3616  0.1595
 2337TIP3    H1 7017   3.506   5.904   0.879  0.6782 -0.0470 -0.5487
 2337TIP3    H2 7018   3.655   5.932   0.882  0.4468  1.2143 -0.3536
 2338TIP3   OH2 7019   2.605   5.470   2.290 -0.3902  0.0751 -0.5354
 2338TIP3    H1 7020   2.527   5.439   2.244 -1.4684  0.1510  1.1609
 2338TIP3    H2 7021   2.639   5.393   2.335  1.0926 -0.1693 -1.9998
 2339TIP3   OH2 7022   6.352   0.554   3.368  0.0885  0.1969  0.0251
 2339TIP3    H1 7023   6.289   0.567   3.296  0.1283 -0.8347 -0.2122
 2339TIP3    H2 7024   6.413   0.489   3.334  1.5687  1.4841  0.0909
 2340TIP3   OH2 7025   4.456   3.416   1.228 -0.1396 -0.3703  0.3003
 2340TIP3    H1 7026   4.370   3.457   1.217  0.5261  1.1133  0.3911
 2340TIP3    H2 7027   4.437   3.329   1.264 -1.6130 -0.1990 -0.0134
 2341TIP3   OH2 7028   4.687   3.157   1.030  0.5690  0.0864  0.3045
 2341TIP3    H1 7029   4.595   3.165   1.005  1.1323  0.4626 -1.8941
 2341TIP3    H2 7030   4.700   3.064   1.046 -0.1868  0.0326  0.6491
 2342TIP3   OH2 7031   6.313   3.482   0.206  0.0911  0.5467  0.6564
 2342TIP3    H1 7032   6.339   3.393   0.184  0.6852  0.9953 -0.5707
 2342TIP3    H2 7033   6.224   3.474   0.241  0.0687 -0.4917  0.3776
 2343TIP3   OH2 7034   3.041   4.216   5.198  0.3337 -0.0063 -0.2295
 2343TIP3    H1 7035   3.082   4.130   5.204 -0.1854 -0.1803  1.8498
 2343TIP3    H2 7036   2.972   4.206   5.132 -0.9858 -1.8064  1.2938
 2344TIP3   OH2 7037   0.845   4.492   3.096 -0.4555  0.0423 -0.0943
 2344TIP3    H1 7038   0.780   4.528   3.156  0.6438  0.3017  0.9962
 2344TIP3    H2 7039   0.895   4.569   3.067  1.3209 -0.4217  1.5289
 2345TIP3   OH2 7040   3.919   0.999   1.057  0.3337  0.5052  0.5866
 2345TIP3    H1 7041   3.876   0.968   1.137  0.4578 -3.7208 -0.7211
 2345TIP3    H2 7042   4.013   0.992   1.077  0.3635 -0.1796  0.2265
 2346TIP3   OH2 7043   6.025   0.105   2.279  0.3952 -0.0107  0.0247
 2346TIP3    H1 7044   6.020   0.200   2.268  0.3478 -0.1245 -1.0631
 2346TIP3    H2 7045   5.960   0.071   2.218 -0.1046 -0.7269  0.9312
 2347TIP3   OH2 7046   5.169   1.744   3.778 -0.1383 -0.8447 -0.1020
 2347TIP3    H1 7047   5.078   1.767   3.760  0.3364  1.0087 -0.4061
 2347TIP3    H2 7048   5.203   1.713   3.694 -0.4018 -1.2811 -0.0514
 2348TIP3   OH2 7049   0.547   5.350   2.975 -0.9226  0.0867  0.1881
 2348TIP3    H1 7050   0.608   5.284   2.941 -1.5928 -0.6268  0.3412
 2348TIP3    H2 7051   0.541   5.332   3.069  1.0305  2.1451  0.7842
 2349TIP3   OH2 7052   3.810   4.272   4.736 -0.0290  0.0572 -0.5328
 2349TIP3    H1 7053   3.810   4.319   4.653 -1.6836 -0.7274 -1.0161
 2349TIP3    H2 7054   3.881   4.208   4.727  0.4227  0.6145 -0.9647
 2350TIP3   OH2 7055   3.353   0.301   4.510  0.2437 -0.1103 -0.0735
 2350TIP3    H1 7056   3.418   0.371   4.511  0.9202 -0.7141  1.8224
 2350TIP3    H2 7057   3.332   0.289   4.417  0.2757  2.4184 -0.4693
 2351TIP3   OH2 7058   1.393   0.024   0.138 -0.1133 -0.1275 -0.5478
 2351TIP3    H1 7059   1.435  -0.053   0.100  1.5056  1.1058 -1.4064
 2351TIP3    H2 7060   1.360   0.073   0.063  0.5033  0.8885 -0.1927
 2352TIP3   OH2 7061   3.832   3.690   1.381 -0.0047 -0.4102  0.5366
 2352TIP3    H1 7062   3.758   3.742   1.413  1.3035  1.1494  1.1433
 2352TIP3    H2 7063   3.850   3.725   1.294  0.2865 -0.5143  0.5567
 2353TIP3   OH2 7064   5.336   4.561   3.966  0.1930 -0.6432 -0.5764
 2353TIP3    H1 7065   5.365   4.652   3.958 -0.3829 -0.5454 -1.6989
 2353TIP3    H2 7066   5.388   4.513   3.901 -0.6015 -0.8429 -1.0724
 2354TIP3   OH2 7067   0.834   1.832   2.358  0.5673  0.2876  0.0520
 2354TIP3    H1 7068   0.896   1.898   2.328 -0.4101  1.9941  1.5660
 2354TIP3    H2 7069   0.771   1.824   2.286  0.8991  0.7491 -0.2943
 2355TIP3   OH2 7070   3.610   3.561   0.749 -0.4681  0.2348 -0.2379
 2355TIP3    H1 7071   3.667   3.532   0.820  0.4430 -0.4457 -1.2183
 2355TIP3    H2 7072   3.522   3.538   0.779 -0.2518  1.2367  1.2635
 2356TIP3   OH2 7073   4.410   5.265   1.484  0.5689 -0.3324 -0.2940
 2356TIP3    H1 7074   4.469   5.306   1.548  0.0743 -0.1380  0.0448
 2356TIP3    H2 7075   4.363   5.338   1.445 -0.2543 -0.5590  0.2490
 2357TIP3   OH2 7076   2.005   4.243   1.699  0.5194 -0.1524  0.2491
 2357TIP3    H1 7077   1.989   4.217   1.789 -1.7872  0.8834  0.1985
 2357TIP3    H2 7078   2.005   4.339   1.701  0.5100 -0.1123 -0.8332
 2358TIP3   OH2 7079   4.297   4.759   2.594 -0.1561 -0.0234 -0.0347
 2358TIP3    H1 7080   4.209   4.770   2.556 -0.1887 -0.6356 -0.1385
 2358TIP3    H2 7081   4.291   4.802   2.680 -0.4493  0.2550 -0.1909
 2359TIP3   OH2 7082   5.448   5.900   2.690 -0.2455  0.4656 -0.2085
 2359TIP3    H1 7083   5.455   5.988   2.652  0.1054  0.1009 -1.0150
 2359TIP3    H2 7084   5.439   5.915   2.784  1.8333  1.3225 -0.0943
 2360TIP3   OH2 7085   0.211   5.676   4.335 -0.2151  0.1493  0.0386
 2360TIP3    H1 7086   0.147   5.733   4.293 -0.1168  0.9969  1.0034
 2360TIP3    H2 7087   0.160   5.624   4.396 -0.3231 -0.9198 -0.9285
 2361TIP3   OH2 7088   0.282   2.400   2.628 -0.4122 -0.2058 -0.4156
 2361TIP3    H1 7089   0.342   2.423   2.699 -0.1880  0.9863 -0.9630
 2361TIP3    H2 7090   0.338   2.366   2.558 -0.6171 -1.2406 -0.0887
 2362TIP3   OH2 7091   0.119   3.206   3.782  0.0289  0.3488  0.1692
 2362TIP3    H1 7092   0.178   3.143   3.824  0.3856 -0.0933 -0.9642
 2362TIP3    H2 7093   0.052   3.152   3.741 -0.8007  0.8191  0.8579
 2363TIP3   OH2 7094   4.009   0.874   5.176  0.1565  0.4481  0.4824
 2363TIP3    H1 7095   3.917   0.848   5.181 -0.0097  0.4139 -1.7127
 2363TIP3    H2 7096   4.007   0.970   5.177 -0.0195  0.4686 -0.6142
 2364TIP3   OH2 7097   3.084   4.492   4.924  0.6065 -0.3622 -0.1046
 2364TIP3    H1 7098   3.133   4.413   4.947  1.2173 -0.0199 -0.1974
 2364TIP3    H2 7099   3.152   4.556   4.901  0.1848  0.6436  1.3598
 2365TIP3   OH2 7100   1.640   2.301   1.626 -0.3609  0.1940 -0.0962
 2365TIP3    H1 7101   1.665   2.354   1.701 -1.1174  0.3266  0.0646
 2365TIP3    H2 7102   1.698   2.225   1.631  1.1634  1.2630 -0.6817
 2366TIP3   OH2 7103   0.472   4.526   0.677  0.3313  0.1325  0.2083
 2366TIP3    H1 7104   0.563   4.504   0.697  0.0954  1.3102  2.9790
 2366TIP3    H2 7105   0.478   4.590   0.607  1.6466  0.1913  0.3415
 2367TIP3   OH2 7106   2.197   2.852   1.174  0.5875 -0.4100  0.1703
 2367TIP3    H1 7107   2.277   2.803   1.155  0.1454 -0.3081 -2.2887
 2367TIP3    H2 7108   2.127   2.798   1.139  0.0139  1.4396 -1.7640
 2368TIP3   OH2 7109   0.182   2.386   3.021  0.2814  0.1700  0.3630
 2368TIP3    H1 7110   0.185   2.481   3.020  0.2421  0.2081  1.6039
 2368TIP3    H2 7111   0.101   2.363   2.977  1.2899  0.6027 -1.8420
 2369TIP3   OH2 7112   1.783   5.250   3.680  0.2573 -0.4460  0.0520
 2369TIP3    H1 7113   1.757   5.203   3.601 -0.7163 -0.2302  0.2407
 2369TIP3    H2 7114   1.846   5.191   3.723  0.4409 -0.7632 -0.6353
 2370TIP3   OH2 7115   2.272   0.599   5.155 -0.1457 -0.3254 -0.0826
 2370TIP3    H1 7116   2.267   0.668   5.089 -0.3681  0.5630  0.8512
 2370TIP3    H2 7117   2.346   0.624   5.211  0.4896 -1.4394 -0.3859
 2371TIP3   OH2 7118   1.959   5.103   1.956 -0.7278 -0.5825  0.5141
 2371TIP3    H1 7119   2.036   5.052   1.933  0.5465  1.7483 -0.7186
 2371TIP3    H2 7120   1.986   5.156   2.031 -1.1496  0.1341  0.1761
 2372TIP3   OH2 7121   2.871   0.304   4.753 -0.1853  0.0095  0.3395
 2372TIP3    H1 7122   2.919   0.321   4.835  0.1223 -0.2326  0.2086
 2372TIP3    H2 7123   2.934   0.323   4.684  0.2260 -1.7769  0.1779
 2373TIP3   OH2 7124   3.722   4.589   2.868  0.6914  0.0515 -0.2670
 2373TIP3    H1 7125   3.695   4.664   2.815 -2.9539  0.0114  1.2606
 2373TIP3    H2 7126   3.670   4.516   2.834  3.0400 -1.5209 -0.7122
 2374TIP3   OH2 7127   3.687   0.840   3.660  0.4927 -0.4970 -0.1436
 2374TIP3    H1 7128   3.623   0.897   3.703 -0.5356 -1.2920 -0.5621
 2374TIP3    H2 7129   3.692   0.873   3.571 -0.3170 -1.1993 -0.4661
 2375TIP3   OH2 7130   6.207   2.595   2.537  0.2100 -0.5612  0.0783
 2375TIP3    H1 7131   6.167   2.564   2.456  0.9470 -1.9991  0.2437
 2375TIP3    H2 7132   6.300   2.579   2.526  0.1944 -2.1656  1.7522
 2376TIP3   OH2 7133   4.053   5.642   4.759  0.0236  0.8409 -0.7288
 2376TIP3    H1 7134   4.080   5.705   4.693  0.2615 -2.1932 -3.7983
 2376TIP3    H2 7135   3.965   5.617   4.733 -0.5035  0.6946  1.0963
 2377TIP3   OH2 7136   2.827   2.015   0.395  0.2000 -0.4762 -0.1740
 2377TIP3    H1 7137   2.894   2.072   0.432 -0.1033 -0.4086  0.2666
 2377TIP3    H2 7138   2.857   1.926   0.414  0.4036 -0.4563 -0.3963
 2378TIP3   OH2 7139   0.273   5.456   0.824  0.0660  0.4832 -0.3488
 2378TIP3    H1 7140   0.339   5.524   0.811  0.4376 -0.0799 -1.5906
 2378TIP3    H2 7141   0.206   5.474   0.758  1.3261 -1.6785 -2.3844
 2379TIP3   OH2 7142   6.195   5.141   4.062 -0.5046 -0.2568 -0.2326
 2379TIP3    H1 7143   6.208   5.128   4.155  0.0880  0.6148 -0.1858
 2379TIP3    H2 7144   6.128   5.077   4.038 -0.6246 -0.5204  0.7743
 2380TIP3   OH2 7145   1.006   4.818   4.635 -0.2044  0.3749 -0.0176
 2380TIP3    H1 7146   0.997   4.794   4.543  1.0513 -0.3869  0.0480
 2380TIP3    H2 7147   0.924   4.864   4.655 -0.7251  0.0812 -1.3567
 2381TIP3   OH2 7148   0.858   4.714   1.113 -0.3676 -0.1203 -0.4693
 2381TIP3    H1 7149   0.764   4.718   1.127 -0.7142  0.8987 -2.5520
 2381TIP3    H2 7150   0.880   4.622   1.119 -1.2511 -0.2586  1.2429
 2382TIP3   OH2 7151   3.871   0.099   3.543  0.0627 -0.1306  0.1906
 2382TIP3    H1 7152   3.908   0.086   3.630  2.1765 -0.4840 -0.7115
 2382TIP3    H2 7153   3.918   0.038   3.487 -0.4160  0.9062 -1.4185
 2383TIP3   OH2 7154   6.194   3.059   0.118 -0.4760 -0.2517 -0.1473
 2383TIP3    H1 7155   6.152   3.059   0.032  0.7137  0.1397 -0.7586
 2383TIP3    H2 7156   6.280   3.099   0.102  0.1805 -1.1447  1.0148
 2384TIP3   OH2 7157   2.219   3.601   1.666 -0.1471  0.1390  0.2851
 2384TIP3    H1 7158   2.160   3.669   1.699 -1.9949 -1.6556  0.8382
 2384TIP3    H2 7159   2.190   3.586   1.576  0.4812  0.2951  0.0492
 2385TIP3   OH2 7160   2.908   5.844   2.123 -0.2459 -0.2714  0.0456
 2385TIP3    H1 7161   2.991   5.817   2.163 -0.3085  1.1300  1.1892
 2385TIP3    H2 7162   2.857   5.764   2.117  2.1152 -1.7486 -3.1439
 2386TIP3   OH2 7163   0.613   4.721   1.702 -0.7466 -0.4769 -0.7211
 2386TIP3    H1 7164   0.536   4.731   1.758  0.2816 -1.8920  1.0545
 2386TIP3    H2 7165   0.656   4.642   1.733  1.9547  0.7587 -0.9694
 2387TIP3   OH2 7166   5.583   0.113   0.349  0.2799 -0.2780 -0.1270
 2387TIP3    H1 7167   5.500   0.151   0.376  1.5361  2.5440  0.1338
 2387TIP3    H2 7168   5.625   0.087   0.430  0.2967 -0.2220 -0.1176
 2388TIP3   OH2 7169   6.062   3.525   0.256 -0.6065 -0.0966 -0.2391
 2388TIP3    H1 7170   5.996   3.562   0.198 -1.0258 -0.2752  0.1159
 2388TIP3    H2 7171   6.034   3.434   0.270 -2.1847  0.7085  2.5592
 2389TIP3   OH2 7172   5.844   4.801   4.767  0.1304  0.0941  0.1848
 2389TIP3    H1 7173   5.797   4.851   4.834  1.2794 -0.3621  1.3694
 2389TIP3    H2 7174   5.801   4.715   4.767  0.2240  0.0475  0.4469
 2390TIP3   OH2 7175   4.529   5.802   1.454  0.3290  0.7574  0.1271
 2390TIP3    H1 7176   4.480   5.870   1.500  0.1463 -0.3802  1.7006
 2390TIP3    H2 7177   4.491   5.799   1.366 -1.4899  0.8263  0.8806
 2391TIP3   OH2 7178   0.026   1.120   3.502  0.3697  0.0021 -0.0275
 2391TIP3    H1 7179   0.100   1.076   3.545  0.2271  0.6171  0.8890
 2391TIP3    H2 7180  -0.050   1.070   3.529  0.1508  1.0594  1.4317
 2392TIP3   OH2 7181   5.959   2.512   3.462 -0.1764 -0.6805 -0.3567
 2392TIP3    H1 7182   6.046   2.507   3.501 -0.7451 -2.0827  0.8285
 2392TIP3    H2 7183   5.975   2.515   3.367  1.1549 -1.0464 -0.1612
 2393TIP3   OH2 7184   0.808   5.683   3.416  0.1054 -0.0107 -0.5245
 2393TIP3    H1 7185   0.886   5.692   3.471  1.0121 -0.4819 -1.6771
 2393TIP3    H2 7186   0.826   5.739   3.340 -1.3950  1.1382 -0.0967
 2394TIP3   OH2 7187   0.600   3.228   2.176  0.0839  0.2876 -0.0971
 2394TIP3    H1 7188   0.556   3.144   2.189 -0.8137  0.5915 -1.0218
 2394TIP3    H2 7189   0.537   3.280   2.126 -0.4092  2.3766  2.4584
 2395TIP3   OH2 7190   4.877   1.613   3.486  0.0521  0.3217 -0.1588
 2395TIP3    H1 7191   4.850   1.642   3.573 -0.5128  0.1498 -0.2736
 2395TIP3    H2 7192   4.949   1.552   3.503  0.3742  0.7752  0.1478
 2396TIP3   OH2 7193   2.164   3.626   4.463 -0.4462 -0.3760 -0.8220
 2396TIP3    H1 7194   2.112   3.621   4.543 -1.6565 -0.0542 -1.5709
 2396TIP3    H2 7195   2.114   3.684   4.405  1.0573  0.4711 -1.3362
 2397TIP3   OH2 7196   4.605   0.990   4.606 -0.0766 -0.3738 -0.5035
 2397TIP3    H1 7197   4.602   1.078   4.644  1.5298 -1.1772  1.7326
 2397TIP3    H2 7198   4.513   0.967   4.591 -0.4812  2.4860 -3.3561
 2398TIP3   OH2 7199   0.267   0.384   4.216  0.3353  0.0835 -0.2554
 2398TIP3    H1 7200   0.340   0.359   4.159  2.1318  2.6021  0.7432
 2398TIP3    H2 7201   0.237   0.468   4.181 -3.1685 -1.5240 -1.4972
 2399TIP3   OH2 7202   4.475   3.335   3.301  0.1331  0.0513 -0.2688
 2399TIP3    H1 7203   4.532   3.324   3.377  2.5152  0.6280 -1.8504
 2399TIP3    H2 7204   4.420   3.257   3.300  1.4731 -0.9429  0.8878
 2400TIP3   OH2 7205   5.596   4.987   2.794  0.2366  0.2392 -0.1034
 2400TIP3    H1 7206   5.520   4.970   2.738 -0.3853 -0.3492  0.8914
 2400TIP3    H2 7207   5.588   5.079   2.817 -0.8760 -0.0994  0.9739
 2401TIP3   OH2 7208   3.082   3.950   3.086  0.3909 -0.0801  0.0034
 2401TIP3    H1 7209   3.002   3.966   3.136 -0.2232  0.0123 -0.9919
 2401TIP3    H2 7210   3.110   4.037   3.057  1.9287  0.1226  1.9249
 2402TIP3   OH2 7211   5.435   0.588   1.261  0.3241 -0.2043  0.1553
 2402TIP3    H1 7212   5.488   0.616   1.336 -0.6531  0.5080  0.5983
 2402TIP3    H2 7213   5.498   0.581   1.189  1.2977 -1.0008  1.0543
 2403TIP3   OH2 7214   1.972   3.911   0.867 -0.1167  0.4093 -0.1353
 2403TIP3    H1 7215   1.924   3.913   0.784 -0.7787 -0.4787  0.2091
 2403TIP3    H2 7216   1.930   3.979   0.920  1.1854  1.9374 -0.9554
 2404TIP3   OH2 7217   2.857   4.185   4.993 -0.4465  0.5240 -0.3099
 2404TIP3    H1 7218   2.768   4.218   4.989 -0.6630 -0.0929 -0.7101
 2404TIP3    H2 7219   2.868   4.132   4.914 -0.3123 -0.8157  0.5530
 2405TIP3   OH2 7220   3.158   2.036   0.714  0.2314  0.4673 -0.2249
 2405TIP3    H1 7221   3.211   2.022   0.792  1.0738  2.4687 -0.3711
 2405TIP3    H2 7222   3.070   2.009   0.739  0.7907 -0.3868  0.8939
 2406TIP3   OH2 7223   5.332   0.018   4.454 -0.3283 -0.7827 -0.3736
 2406TIP3    H1 7224   5.314   0.112   4.452 -0.0059 -0.7296 -1.4634
 2406TIP3    H2 7225   5.273  -0.017   4.521  0.7096  0.4217  1.2353
 2407TIP3   OH2 7226   4.866   4.187   4.320 -0.1283 -0.1156  0.6412
 2407TIP3    H1 7227   4.861   4.269   4.273  0.0416 -0.5708 -0.1873
 2407TIP3    H2 7228   4.776   4.165   4.342 -0.0338  1.3121  2.7010
 2408TIP3   OH2 7229   0.983   4.940   4.378  0.6792 -0.7102 -0.0260
 2408TIP3    H1 7230   1.009   5.031   4.371 -0.5345 -0.3149  0.4348
 2408TIP3    H2 7231   0.895   4.942   4.416  0.3882 -2.0357 -0.5539
 2409TIP3   OH2 7232   0.721   5.886   1.259  0.1578  0.1922 -0.0309
 2409TIP3    H1 7233   0.764   5.917   1.180 -1.2942 -0.6053 -1.1893
 2409TIP3    H2 7234   0.651   5.949   1.275 -0.7508 -0.6721 -0.5113
 2410TIP3   OH2 7235   6.358   5.849   4.584  0.0846  0.0393  0.0401
 2410TIP3    H1 7236   6.331   5.939   4.601  0.0208  0.4154 -1.8417
 2410TIP3    H2 7237   6.339   5.835   4.492 -0.4548 -2.1227  0.4237
 2411TIP3   OH2 7238   6.208   4.732   1.782 -0.0657  0.6706 -0.0930
 2411TIP3    H1 7239   6.245   4.805   1.831  0.5050  0.3904 -0.0962
 2411TIP3    H2 7240   6.227   4.655   1.835 -1.7738  0.6393  0.5366
 2412TIP3   OH2 7241   1.712   0.468   2.830  0.3430 -0.3041 -0.2469
 2412TIP3    H1 7242   1.683   0.394   2.883 -0.0062 -1.6241 -2.1682
 2412TIP3    H2 7243   1.804   0.482   2.855  0.2993 -1.1496  0.4089
 2413TIP3   OH2 7244   0.829   3.616   4.799  0.3796 -0.2021  0.1987
 2413TIP3    H1 7245   0.876   3.628   4.716 -0.3342 -1.8131 -0.4792
 2413TIP3    H2 7246   0.737   3.609   4.773 -0.0070  0.6188  1.2866
 2414TIP3   OH2 7247   1.417   3.778   0.303  0.2980 -0.2442  0.0890
 2414TIP3    H1 7248   1.457   3.851   0.350  1.0577 -0.1253 -0.7145
 2414TIP3    H2 7249   1.466   3.701   0.332 -0.0477 -0.3454  0.4139
 2415TIP3   OH2 7250   4.419   4.181   4.712 -0.1837 -0.4985 -0.1823
 2415TIP3    H1 7251   4.413   4.178   4.617 -0.3628 -0.5735 -0.1687
 2415TIP3    H2 7252   4.340   4.228   4.740  1.5244  2.7087 -0.2773
 2416TIP3   OH2 7253   6.091   2.975   1.697  0.3192 -0.3890  0.1627
 2416TIP3    H1 7254   6.182   3.000   1.713  0.0970 -0.5179  1.8553
 2416TIP3    H2 7255   6.039   3.042   1.743 -0.4522 -0.2161 -0.9243
 2417TIP3   OH2 7256   3.881   0.883   3.842 -0.3486 -0.0335  0.0159
 2417TIP3    H1 7257   3.854   0.818   3.907 -1.3580  0.1997 -0.1583
 2417TIP3    H2 7258   3.816   0.876   3.772  1.5715 -1.3525 -1.7281
 2418TIP3   OH2 7259   4.582   4.493   4.832  0.2979  0.4798 -0.1444
 2418TIP3    H1 7260   4.611   4.419   4.777  1.4108  0.6024  0.2518
 2418TIP3    H2 7261   4.575   4.566   4.771  0.8345  0.4451 -0.2493
 2419TIP3   OH2 7262   6.115   0.513   0.241 -0.1107  0.1937 -0.3185
 2419TIP3    H1 7263   6.024   0.485   0.250  0.1881 -0.2111  2.1518
 2419TIP3    H2 7264   6.165   0.433   0.231  0.0793  0.3396 -0.5548
 2420TIP3   OH2 7265   2.595   4.151   4.928 -0.3993 -0.1386  0.2409
 2420TIP3    H1 7266   2.539   4.158   4.851 -0.7884  1.5883  0.6532
 2420TIP3    H2 7267   2.540   4.179   5.001  1.3926  3.4299  0.4430
 2421TIP3   OH2 7268   4.503   2.366   2.514 -0.0333 -0.2958  0.7492
 2421TIP3    H1 7269   4.595   2.384   2.536  0.6982 -2.0524 -0.5577
 2421TIP3    H2 7270   4.467   2.451   2.492  1.3775  0.4137  1.0392
 2422TIP3   OH2 7271   2.083   0.314   3.390 -0.1226  0.0278  0.0506
 2422TIP3    H1 7272   2.024   0.388   3.406 -0.3071  0.0659 -0.7731
 2422TIP3    H2 7273   2.038   0.261   3.325  0.8696  0.2065 -0.8171
 2423TIP3   OH2 7274   0.767   2.584   1.116  0.5184 -0.4150  0.1338
 2423TIP3    H1 7275   0.693   2.645   1.117  0.3489 -0.6208  0.2225
 2423TIP3    H2 7276   0.764   2.541   1.202  0.0650 -1.2314 -0.2770
 2424TIP3   OH2 7277   2.465   2.640   0.044  0.1740 -0.1485  0.5084
 2424TIP3    H1 7278   2.482   2.668  -0.046  1.9417  0.2735  0.9317
 2424TIP3    H2 7279   2.551   2.642   0.087 -0.6591 -0.0664  2.2904
 2425TIP3   OH2 7280   3.977   3.405  -0.022  0.4742  0.0363 -0.3780
 2425TIP3    H1 7281   3.908   3.346   0.008 -1.1433  2.8551  1.9329
 2425TIP3    H2 7282   3.989   3.468   0.050  2.7719  1.9673 -2.2453
 2426TIP3   OH2 7283   1.668   3.624   1.511  0.4538  0.1769 -0.5188
 2426TIP3    H1 7284   1.705   3.697   1.561  1.7778 -0.5869 -0.3134
 2426TIP3    H2 7285   1.731   3.553   1.524  0.1448 -0.4426 -2.2215
 2427TIP3   OH2 7286   3.746   2.022   0.348  0.0411 -0.0318 -0.4665
 2427TIP3    H1 7287   3.699   2.087   0.400 -1.3699  0.9118 -2.7497
 2427TIP3    H2 7288   3.817   2.071   0.307 -0.1953 -0.2348 -1.1296
 2428TIP3   OH2 7289   4.907   0.743   0.134 -0.0136 -0.0851 -0.0546
 2428TIP3    H1 7290   4.926   0.828   0.173 -0.1238  0.9399 -2.1044
 2428TIP3    H2 7291   4.980   0.725   0.075 -0.2658 -1.1411 -0.0767
 2429TIP3   OH2 7292   5.895   4.085   0.213  0.1250 -0.0236 -0.2752
 2429TIP3    H1 7293   5.926   4.157   0.158  2.4232 -1.9178 -1.6858
 2429TIP3    H2 7294   5.809   4.063   0.178  1.2583 -0.7625 -2.7975
 2430TIP3   OH2 7295   5.277   1.465   4.923 -0.3529  0.1127 -0.3310
 2430TIP3    H1 7296   5.231   1.546   4.900 -1.2622 -0.5091 -0.7764
 2430TIP3    H2 7297   5.279   1.465   5.018 -0.1231  0.7725 -0.3287
 2431TIP3   OH2 7298   5.688   4.715   3.161  0.6250 -0.2924 -0.2018
 2431TIP3    H1 7299   5.734   4.798   3.176  1.9894 -1.1487  0.5400
 2431TIP3    H2 7300   5.682   4.708   3.066 -1.0224  1.4319 -0.2880
 2432TIP3   OH2 7301   3.963   1.800   4.741  0.3793 -0.0011  0.1702
 2432TIP3    H1 7302   4.000   1.875   4.788 -0.6787  1.2559 -0.9122
 2432TIP3    H2 7303   4.038   1.743   4.723  1.4916  1.5284 -0.2689
 2433TIP3   OH2 7304   3.533   1.465   2.176 -0.2101 -0.2283 -0.1987
 2433TIP3    H1 7305   3.464   1.474   2.241 -1.9133  0.2773 -1.9705
 2433TIP3    H2 7306   3.491   1.418   2.103  1.9028 -1.7013 -0.5631
 2434TIP3   OH2 7307   2.355   2.703   5.104 -0.5790 -0.3038 -0.1044
 2434TIP3    H1 7308   2.365   2.608   5.113 -1.5445 -0.4550 -0.4706
 2434TIP3    H2 7309   2.441   2.738   5.123  0.7214 -1.4715 -3.1434
 2435TIP3   OH2 7310   5.784   0.147   3.494  0.0297 -0.4292  0.3883
 2435TIP3    H1 7311   5.721   0.091   3.539  0.2050  0.6356  2.0612
 2435TIP3    H2 7312   5.751   0.154   3.404 -1.2295 -1.3556  0.7569
 2436TIP3   OH2 7313   4.043   4.704   5.144 -0.3637 -0.3745 -0.4071
 2436TIP3    H1 7314   4.019   4.625   5.192 -0.5660 -0.2065 -0.2285
 2436TIP3    H2 7315   3.986   4.704   5.067 -2.1326  0.8575  0.8230
 2437TIP3   OH2 7316   2.074   2.584   1.777 -0.6418 -0.4734  0.3178
 2437TIP3    H1 7317   2.041   2.544   1.858 -0.8125 -0.7268  0.1253
 2437TIP3    H2 7318   2.168   2.566   1.777 -0.6996 -0.7784  0.2888
 2438TIP3   OH2 7319   2.997   1.324   4.675 -0.2760  0.1072 -0.0349
 2438TIP3    H1 7320   3.058   1.257   4.643 -1.0548 -0.7430  0.2222
 2438TIP3    H2 7321   3.048   1.405   4.675 -0.0087  0.0220 -2.7463
 2439TIP3   OH2 7322   2.245   3.863   2.214  0.3697 -0.3599 -0.1466
 2439TIP3    H1 7323   2.175   3.828   2.160 -0.3717  0.1851  0.4539
 2439TIP3    H2 7324   2.317   3.879   2.153 -0.9792  1.7965 -1.2829
 2440TIP3   OH2 7325   1.929   2.696   1.329 -0.2165  1.0886 -0.1821
 2440TIP3    H1 7326   1.939   2.637   1.404  0.8930 -1.4872 -2.1704
 2440TIP3    H2 7327   1.834   2.708   1.321 -0.4074  0.5509  1.0116
 2441TIP3   OH2 7328   5.470   0.313   3.546  0.3268  0.0972 -0.2631
 2441TIP3    H1 7329   5.375   0.315   3.556  0.5641  0.9858  3.3292
 2441TIP3    H2 7330   5.495   0.222   3.567  0.3535  0.4586  1.4723
 2442TIP3   OH2 7331   5.513   1.051   4.690 -0.2703 -0.5669  0.1083
 2442TIP3    H1 7332   5.461   1.044   4.610  0.6374 -0.8565 -0.4715
 2442TIP3    H2 7333   5.501   1.142   4.719 -2.7788 -1.1616  1.1807
 2443TIP3   OH2 7334   5.016   0.856   0.626 -0.4553  0.3242 -0.0923
 2443TIP3    H1 7335   5.021   0.834   0.719 -0.4723 -0.2619 -0.2254
 2443TIP3    H2 7336   5.099   0.825   0.590  0.2679  2.0049  0.0077
 2444TIP3   OH2 7337   4.473   2.364   2.047  0.7629  0.0581  0.0583
 2444TIP3    H1 7338   4.553   2.395   2.090 -0.0001 -2.2279  3.5768
 2444TIP3    H2 7339   4.406   2.366   2.116 -1.1544 -2.0359 -1.5676
 2445TIP3   OH2 7340   6.244   4.400   3.601  0.2637  0.4191 -0.4858
 2445TIP3    H1 7341   6.223   4.480   3.553  2.5114  1.2803 -0.1784
 2445TIP3    H2 7342   6.213   4.329   3.545 -0.7588  1.4637 -1.3004
 2446TIP3   OH2 7343   1.841   3.205   0.283  0.3377  0.2031 -0.0321
 2446TIP3    H1 7344   1.754   3.244   0.298  0.2878 -0.0460  0.3356
 2446TIP3    H2 7345   1.860   3.157   0.363  1.5041  1.5539  0.5473
 2447TIP3   OH2 7346   4.611   4.240   3.166 -0.2130 -0.4343  0.0654
 2447TIP3    H1 7347   4.550   4.197   3.225 -0.6583 -1.5672 -1.1869
 2447TIP3    H2 7348   4.559   4.307   3.122  0.2411  0.7605  1.2885
 2448TIP3   OH2 7349   0.768   4.152   4.290  0.1871  0.0625  0.0244
 2448TIP3    H1 7350   0.836   4.086   4.274  0.0415 -0.2470  0.6249
 2448TIP3    H2 7351   0.702   4.135   4.224  0.8327  0.5730 -0.7741
 2449TIP3   OH2 7352   0.876   1.439   3.026 -0.2680 -0.5306  0.1872
 2449TIP3    H1 7353   0.971   1.428   3.022 -0.1038  0.3135  1.1806
 2449TIP3    H2 7354   0.849   1.451   2.935  0.8935  1.5385  0.0535
 2450TIP3   OH2 7355   3.173   0.155   0.608  0.2114  0.2796  0.3522
 2450TIP3    H1 7356   3.254   0.121   0.570  0.3419  1.7121 -0.7245
 2450TIP3    H2 7357   3.202   0.223   0.668 -0.1964  2.7685 -2.0764
 2451TIP3   OH2 7358   1.076   1.997   1.037  0.1757 -0.1030 -0.1407
 2451TIP3    H1 7359   1.022   1.979   0.960  0.3045  1.7581 -0.7023
 2451TIP3    H2 7360   1.166   1.990   1.004  0.2301  0.9632 -0.2512
 2452TIP3   OH2 7361   0.108   2.191   4.389 -0.4094  0.5413 -0.2541
 2452TIP3    H1 7362   0.071   2.263   4.440  1.7545 -0.1832  2.5970
 2452TIP3    H2 7363   0.196   2.222   4.365 -1.1449  0.6322 -3.2684
 2453TIP3   OH2 7364   5.800   3.764   1.859 -0.0408 -0.0955  0.0781
 2453TIP3    H1 7365   5.857   3.716   1.799 -1.9138 -3.2859  0.6176
 2453TIP3    H2 7366   5.712   3.754   1.823 -0.6845  1.9736  0.9176
 2454TIP3   OH2 7367   2.002   4.143   2.907  0.1580 -0.7254  0.5469
 2454TIP3    H1 7368   1.931   4.187   2.861  1.3235 -1.0720 -1.6930
 2454TIP3    H2 7369   1.984   4.050   2.895  0.5079 -0.8263  0.7766
 2455TIP3   OH2 7370   3.335   5.273   2.696  0.0755 -0.1840  0.1793
 2455TIP3    H1 7371   3.284   5.198   2.726  0.8337 -0.4790  0.7803
 2455TIP3    H2 7372   3.371   5.245   2.612 -1.1841  0.2398 -0.5237
 2456TIP3   OH2 7373   5.872   4.800   0.268 -0.1840 -0.0339 -0.3579
 2456TIP3    H1 7374   5.950   4.745   0.270  0.5120  0.8862 -0.8933
 2456TIP3    H2 7375   5.799   4.740   0.280  0.6175 -0.8894  0.4083
 2457TIP3   OH2 7376   5.090   5.956   1.289  0.3306 -0.4245  0.4387
 2457TIP3    H1 7377   5.139   5.983   1.211 -0.6353 -0.0098 -0.0537
 2457TIP3    H2 7378   5.115   5.865   1.303  2.3683  0.1956  1.1116
 2458TIP3   OH2 7379   1.107   4.492   2.683 -0.5381  0.1800 -0.3975
 2458TIP3    H1 7380   1.057   4.556   2.733 -4.2775  0.0832 -3.5448
 2458TIP3    H2 7381   1.154   4.543   2.618 -0.2869 -0.0666 -0.4145
 2459TIP3   OH2 7382   0.146   1.241   4.371 -0.3895  0.6409 -0.2163
 2459TIP3    H1 7383   0.212   1.229   4.439 -0.7533 -2.0126 -0.2215
 2459TIP3    H2 7384   0.146   1.158   4.323 -4.4165  0.0400  0.4640
 2460TIP3   OH2 7385   4.348   4.627   0.372  0.6353  0.6655  0.5074
 2460TIP3    H1 7386   4.293   4.653   0.446  0.7170  1.2265  0.3750
 2460TIP3    H2 7387   4.296   4.562   0.326 -0.2855  1.7772 -0.0822
 2461TIP3   OH2 7388   4.507  -0.021   4.849 -0.4877  0.0032  0.1157
 2461TIP3    H1 7389   4.600  -0.042   4.856 -0.7120 -0.6958  1.4222
 2461TIP3    H2 7390   4.504   0.064   4.806  0.6922 -0.5335 -1.0715
 2462TIP3   OH2 7391   4.601   1.589   4.888  0.2735  0.4106 -0.1646
 2462TIP3    H1 7392   4.517   1.560   4.925  1.0888 -3.9801 -1.1051
 2462TIP3    H2 7393   4.581   1.608   4.796  0.3432 -1.7493 -0.6928
 2463TIP3   OH2 7394   5.362   0.310   0.451  0.6110  0.5407 -0.3922
 2463TIP3    H1 7395   5.299   0.254   0.404 -0.3331  1.6888 -0.5463
 2463TIP3    H2 7396   5.308   0.363   0.509  1.6807 -0.1967  1.3686
 2464TIP3   OH2 7397   4.630   2.867   5.111 -0.1938  0.1747 -0.2978
 2464TIP3    H1 7398   4.592   2.869   5.023  1.1535 -1.5741 -0.9576
 2464TIP3    H2 7399   4.561   2.903   5.167 -1.5020  0.2923 -1.9035
 2465TIP3   OH2 7400   6.044   3.861   2.365 -0.6856 -0.0158 -0.5177
 2465TIP3    H1 7401   5.955   3.896   2.364 -0.7993 -0.1785  1.1407
 2465TIP3    H2 7402   6.058   3.830   2.276 -2.9204 -1.5328 -0.4254
 2466TIP3   OH2 7403   2.908   2.671   4.584  0.0704  0.1867 -0.0874
 2466TIP3    H1 7404   2.977   2.609   4.608  0.1567  0.0569 -0.6467
 2466TIP3    H2 7405   2.931   2.752   4.630 -0.0566 -0.1931  0.6653
 2467TIP3   OH2 7406   4.739   1.614   4.219  0.1708  0.2296 -0.3402
 2467TIP3    H1 7407   4.777   1.577   4.139  0.2156  1.4137 -0.9004
 2467TIP3    H2 7408   4.794   1.691   4.237 -0.4220  0.5106  0.2847
 2468TIP3   OH2 7409   5.545   0.769   3.509 -0.4704 -0.5220  0.2430
 2468TIP3    H1 7410   5.541   0.707   3.581 -0.1911 -1.0069 -0.1488
 2468TIP3    H2 7411   5.454   0.782   3.483 -0.4933 -1.3359 -0.1350
 2469TIP3   OH2 7412   2.761   4.446   4.097 -0.2237  0.1246  0.2731
 2469TIP3    H1 7413   2.717   4.361   4.101 -1.0681  0.5136 -0.4678
 2469TIP3    H2 7414   2.694   4.509   4.124 -0.3383  0.7962 -1.4696
 2470TIP3   OH2 7415   0.355   1.989   1.077 -0.3657 -0.7350  0.0441
 2470TIP3    H1 7416   0.430   1.935   1.105 -1.4654 -2.0734  0.5529
 2470TIP3    H2 7417   0.344   1.968   0.985 -1.3325 -2.1363  0.4410
 2471TIP3   OH2 7418   2.484   0.266   0.718 -0.0024 -0.3920 -0.1812
 2471TIP3    H1 7419   2.397   0.238   0.747 -0.0062 -0.1766  0.0144
 2471TIP3    H2 7420   2.471   0.294   0.627 -0.3863  0.7862  0.2202
 2472TIP3   OH2 7421   5.597   3.409   3.134  0.0839  0.9470  0.5650
 2472TIP3    H1 7422   5.558   3.496   3.144 -1.2549  0.3079  1.1721
 2472TIP3    H2 7423   5.612   3.378   3.223 -0.3716  0.1670  0.3837
 2473TIP3   OH2 7424   1.317   1.781   4.559  0.1812  0.5084 -0.3036
 2473TIP3    H1 7425   1.309   1.760   4.466 -0.5059  0.3867 -0.2228
 2473TIP3    H2 7426   1.396   1.834   4.565  0.5082  0.0938 -0.8817
 2474TIP3   OH2 7427   1.716   0.980   3.753 -0.3182  0.0579  0.0959
 2474TIP3    H1 7428   1.796   0.959   3.705  1.0076  2.0216  1.3022
 2474TIP3    H2 7429   1.648   0.988   3.685  0.6846 -0.7706 -1.0426
 2475TIP3   OH2 7430   1.231   3.237   4.391  0.3788 -0.0709  0.3460
 2475TIP3    H1 7431   1.259   3.165   4.447 -0.8197 -1.1257 -0.3393
 2475TIP3    H2 7432   1.215   3.310   4.450  1.1280 -0.5222  1.1214
 2476TIP3   OH2 7433   4.774   0.551   2.200 -0.5722  0.2555 -0.1257
 2476TIP3    H1 7434   4.827   0.508   2.133 -0.0701 -0.7833  0.8924
 2476TIP3    H2 7435   4.744   0.632   2.160 -0.6020 -0.5186 -1.7271
 2477TIP3   OH2 7436   5.562   2.914   2.103  0.4273  0.1654 -0.5587
 2477TIP3    H1 7437   5.550   2.940   2.195 -0.0274  0.8703 -0.8071
 2477TIP3    H2 7438   5.519   2.984   2.053  4.8222  2.5462 -1.5546
 2478TIP3   OH2 7439   3.329   0.455   1.383  0.5330 -0.5242 -0.0228
 2478TIP3    H1 7440   3.358   0.500   1.463  0.7335  1.0746 -0.9518
 2478TIP3    H2 7441   3.359   0.364   1.395  0.7593 -0.2715  1.6061
 2479TIP3   OH2 7442   0.808   1.761   4.763  0.0944  0.0990  0.5830
 2479TIP3    H1 7443   0.715   1.742   4.777  0.2666 -1.4105 -0.1441
 2479TIP3    H2 7444   0.842   1.684   4.718  1.8744  0.2961  1.4989
 2480TIP3   OH2 7445   5.517   1.698   2.941 -0.6784 -0.4128  0.3464
 2480TIP3    H1 7446   5.455   1.625   2.950 -0.8304 -0.3548 -0.1583
 2480TIP3    H2 7447   5.467   1.775   2.967 -1.0069 -0.2904 -0.6133
 2481TIP3   OH2 7448   6.197   3.140   2.212 -0.0017  0.4980 -0.4028
 2481TIP3    H1 7449   6.243   3.076   2.267  1.8284  1.6716 -0.4863
 2481TIP3    H2 7450   6.176   3.092   2.132  0.9057 -0.1407 -0.2696
 2482TIP3   OH2 7451   5.978   3.525   4.977  0.0569  0.1517 -0.1800
 2482TIP3    H1 7452   6.032   3.446   4.971 -0.8588 -0.4746 -0.4825
 2482TIP3    H2 7453   5.947   3.539   4.887  0.3164  0.9358 -0.1530
 2483TIP3   OH2 7454   3.166   1.154   2.518  0.3878 -0.1366  0.0194
 2483TIP3    H1 7455   3.112   1.075   2.516 -1.2601  0.9363  0.1630
 2483TIP3    H2 7456   3.123   1.214   2.457  0.5212  1.3192  1.3051
 2484TIP3   OH2 7457   3.509   2.742   3.437  0.1282  0.3292  0.4551
 2484TIP3    H1 7458   3.528   2.750   3.344  0.5299 -1.4031  0.3503
 2484TIP3    H2 7459   3.509   2.832   3.470  0.7444  0.9094 -1.0526
 2485TIP3   OH2 7460   4.788   5.806   2.698 -0.1980 -0.3095 -0.4514
 2485TIP3    H1 7461   4.822   5.782   2.784  0.1828 -0.0452 -0.5279
 2485TIP3    H2 7462   4.748   5.725   2.665  1.5342 -0.9980 -0.9397
 2486TIP3   OH2 7463   0.383   2.750   2.845  0.1415  0.2614  0.3782
 2486TIP3    H1 7464   0.309   2.792   2.802 -0.5404  1.0775  2.2676
 2486TIP3    H2 7465   0.417   2.816   2.906  1.3906 -0.6619  0.7433
 2487TIP3   OH2 7466   2.156   0.467   1.577  0.8588  0.3782 -0.4510
 2487TIP3    H1 7467   2.240   0.450   1.534 -0.0843 -1.9143 -1.5434
 2487TIP3    H2 7468   2.090   0.441   1.513 -0.8970  4.8592 -0.8027
 2488TIP3   OH2 7469   2.473   3.936   4.722 -0.4442 -0.0234  0.0690
 2488TIP3    H1 7470   2.393   3.891   4.749 -1.3438  1.2088 -0.4525
 2488TIP3    H2 7471   2.543   3.886   4.763 -1.4121 -1.6727 -0.1917
 2489TIP3   OH2 7472   1.083   4.553   3.853  0.1389  0.1969  0.2561
 2489TIP3    H1 7473   1.098   4.460   3.838 -0.7144  0.2067 -0.7876
 2489TIP3    H2 7474   1.009   4.556   3.913 -1.0222  0.1871 -1.1266
 2490TIP3   OH2 7475   4.051   2.542   2.066  0.5245  0.3608 -0.1486
 2490TIP3    H1 7476   4.131   2.495   2.045 -0.1946 -0.6129 -0.8045
 2490TIP3    H2 7477   4.006   2.487   2.129  0.1159  0.6349 -0.1953
 2491TIP3   OH2 7478   4.914   5.594   0.296  0.1246 -0.5356  0.2213
 2491TIP3    H1 7479   4.887   5.551   0.215  0.1579 -1.4126  0.6637
 2491TIP3    H2 7480   4.867   5.678   0.295  1.6852  0.3886 -1.6640
 2492TIP3   OH2 7481   1.042   1.262   0.970 -0.2865  0.3293  0.3164
 2492TIP3    H1 7482   1.080   1.344   1.003 -1.0268  1.5428 -1.6469
 2492TIP3    H2 7483   1.112   1.220   0.921  0.1388 -0.3266  1.4505
 2493TIP3   OH2 7484   2.126   1.966   1.421 -0.3178 -0.3305  0.3962
 2493TIP3    H1 7485   2.199   2.027   1.408 -0.2507  0.0660  2.2757
 2493TIP3    H2 7486   2.107   1.971   1.515 -1.6274 -1.7381  0.2544
 2494TIP3   OH2 7487   5.248   1.182   3.608 -0.1998 -0.3910 -0.5424
 2494TIP3    H1 7488   5.337   1.203   3.578  0.0354 -0.1002  0.3078
 2494TIP3    H2 7489   5.259   1.163   3.701 -1.4619  2.9708  0.4685
 2495TIP3   OH2 7490   2.697   0.973   3.680 -0.6565  0.1567  0.4627
 2495TIP3    H1 7491   2.685   0.886   3.718 -1.4287 -0.0052 -0.1311
 2495TIP3    H2 7492   2.644   0.972   3.601  1.1157  0.3880 -0.7940
 2496TIP3   OH2 7493   5.632   5.507   0.229 -0.7185  0.5308 -0.0961
 2496TIP3    H1 7494   5.722   5.539   0.214 -0.3842  0.8842  2.2898
 2496TIP3    H2 7495   5.588   5.581   0.272 -1.1777 -0.6955  1.6516
 2497TIP3   OH2 7496   3.291   3.210   2.003  0.2287 -0.3263 -0.0630
 2497TIP3    H1 7497   3.299   3.244   2.093 -3.0921  2.5896 -0.6500
 2497TIP3    H2 7498   3.222   3.144   2.008 -1.4703  1.3134 -0.6699
 2498TIP3   OH2 7499   3.622   0.037   4.884 -0.1873 -0.3174  0.1898
 2498TIP3    H1 7500   3.587  -0.052   4.883 -1.4719  0.1606 -0.1252
 2498TIP3    H2 7501   3.558   0.088   4.834  1.2911  0.5164 -0.9372
 2499TIP3   OH2 7502   2.839   3.174   4.716 -0.5170  0.8149 -0.3120
 2499TIP3    H1 7503   2.780   3.249   4.715 -0.4524  0.8623 -0.7795
 2499TIP3    H2 7504   2.925   3.210   4.696 -0.8066  0.3578 -2.6404
 2500TIP3   OH2 7505   0.565   4.779   2.303  0.1263 -0.3156  0.1129
 2500TIP3    H1 7506   0.654   4.786   2.338  0.1892 -2.3063  0.4420
 2500TIP3    H2 7507   0.576   4.788   2.208  0.3072  2.1289  0.3012
 2501TIP3   OH2 7508   2.242   3.743   3.021 -0.0530 -0.5298 -0.3642
 2501TIP3    H1 7509   2.331   3.758   3.053 -0.4112  0.2023  0.3190
 2501TIP3    H2 7510   2.186   3.786   3.085 -0.8222  0.4810 -1.6728
 2502TIP3   OH2 7511   5.298   3.607   2.112  0.3740 -0.2871 -0.1027
 2502TIP3    H1 7512   5.372   3.634   2.167  0.8594 -2.3525  0.3426
 2502TIP3    H2 7513   5.334   3.603   2.023  0.7000 -0.8943  0.0528
 2503TIP3   OH2 7514   0.917   2.394   4.496  0.2990 -0.8299  0.6450
 2503TIP3    H1 7515   0.949   2.484   4.510  0.2753 -0.7714  0.3231
 2503TIP3    H2 7516   0.823   2.401   4.509  0.2879 -0.7925  0.5477
 2504TIP3   OH2 7517   3.222   2.684   3.109 -0.7946  0.7890 -0.0203
 2504TIP3    H1 7518   3.203   2.778   3.114 -0.0821  0.9630 -0.4982
 2504TIP3    H2 7519   3.299   2.671   3.164 -1.0370  0.4438  0.2407
 2505TIP3   OH2 7520   0.589   4.202   2.641 -0.0641 -0.1062 -0.1477
 2505TIP3    H1 7521   0.605   4.145   2.565 -2.4700 -2.1232  0.6984
 2505TIP3    H2 7522   0.599   4.291   2.607  0.3471 -0.9673 -2.4760
 2506TIP3   OH2 7523   3.522   2.841   0.346  0.2475 -0.0315  0.2673
 2506TIP3    H1 7524   3.498   2.815   0.435 -1.3196 -1.4861 -0.5344
 2506TIP3    H2 7525   3.480   2.926   0.334  0.2848  0.0727  0.8380
 2507TIP3   OH2 7526   0.724   3.346   3.179 -0.2062 -0.0974  0.6021
 2507TIP3    H1 7527   0.810   3.324   3.214  0.2793 -0.3354 -0.6627
 2507TIP3    H2 7528   0.715   3.441   3.194  0.2679 -0.0760  0.7623
 2508TIP3   OH2 7529   5.061   3.795   3.342  0.0859 -0.2549 -0.0122
 2508TIP3    H1 7530   5.039   3.704   3.324 -0.1627  0.1390 -1.9316
 2508TIP3    H2 7531   5.157   3.798   3.338  0.0877 -0.4010 -0.0757
 2509TIP3   OH2 7532   2.341   1.331   1.493 -0.0820  0.6606  0.1809
 2509TIP3    H1 7533   2.375   1.373   1.414 -0.0026  0.5313  0.1454
 2509TIP3    H2 7534   2.328   1.403   1.555  0.1263  0.7277  0.1468
 2510TIP3   OH2 7535   1.989   0.589   0.158 -0.1166 -0.7116  0.1618
 2510TIP3    H1 7536   2.029   0.676   0.152  1.5764 -1.3850  1.0607
 2510TIP3    H2 7537   1.982   0.560   0.067  1.0550 -0.3607 -0.0660
 2511TIP3   OH2 7538   6.060   1.870   3.021  0.1485 -0.2496 -0.0339
 2511TIP3    H1 7539   6.104   1.954   3.017  0.2970 -0.3609 -0.7901
 2511TIP3    H2 7540   6.114   1.812   2.968 -0.9376 -0.3743 -1.0393
 2512TIP3   OH2 7541   6.123   3.858   2.869 -0.7606 -0.0493  0.4646
 2512TIP3    H1 7542   6.122   3.792   2.938 -0.2277 -1.9716 -1.2972
 2512TIP3    H2 7543   6.145   3.810   2.789 -0.0358  2.3126 -0.8499
 2513TIP3   OH2 7544   6.307   2.971   1.017 -0.0475 -0.5384 -0.3258
 2513TIP3    H1 7545   6.266   2.929   1.092 -0.2992  2.5793  1.4405
 2513TIP3    H2 7546   6.298   2.908   0.946 -3.3812 -2.0349  1.2363
 2514TIP3   OH2 7547   4.293   1.399   1.495  0.1130 -0.3630  0.1427
 2514TIP3    H1 7548   4.253   1.365   1.574  1.7264 -2.8798 -0.0107
 2514TIP3    H2 7549   4.289   1.326   1.432  4.5620 -0.8696  0.0691
 2515TIP3   OH2 7550   0.411   5.084   1.434 -0.8846 -0.0013  0.2722
 2515TIP3    H1 7551   0.372   5.171   1.429 -0.9349 -0.0393 -0.0107
 2515TIP3    H2 7552   0.501   5.099   1.464 -0.8728  0.1560  0.1571
 2516TIP3   OH2 7553   1.550   1.412   0.161  0.1743 -0.2599  0.2900
 2516TIP3    H1 7554   1.615   1.428   0.092  0.3407 -0.7212  0.3326
 2516TIP3    H2 7555   1.549   1.316   0.170 -2.0965 -0.4644 -1.2544
 2517TIP3   OH2 7556   1.133   2.253   2.137 -0.1312 -0.3829  0.2939
 2517TIP3    H1 7557   1.100   2.343   2.126  1.2142  0.1103 -0.0079
 2517TIP3    H2 7558   1.184   2.237   2.057  0.1951 -1.1600  0.6492
 2518TIP3   OH2 7559   0.029   2.261   2.612  0.0777  0.3672  0.9212
 2518TIP3    H1 7560   0.101   2.324   2.607 -0.3855  0.8857  0.6840
 2518TIP3    H2 7561   0.071   2.176   2.603  0.4749  0.7387 -1.3451
 2519TIP3   OH2 7562   1.972   5.648   0.163  0.1550  0.0187 -0.5382
 2519TIP3    H1 7563   2.052   5.613   0.201  0.1645  0.0298 -0.5477
 2519TIP3    H2 7564   1.987   5.743   0.156 -1.0304  0.5271  2.4219
 2520TIP3   OH2 7565   0.321   3.854   1.300  0.0759  0.2234 -0.0973
 2520TIP3    H1 7566   0.346   3.875   1.390 -0.2327 -1.1404  0.3402
 2520TIP3    H2 7567   0.401   3.869   1.250  0.2138  1.1399  0.3726
 2521TIP3   OH2 7568   2.679   2.121   2.542 -0.4663  0.4350 -0.2460
 2521TIP3    H1 7569   2.720   2.202   2.512  0.6069  0.8529  2.1147
 2521TIP3    H2 7570   2.605   2.150   2.596 -0.8195 -0.2123 -0.3657
 2522TIP3   OH2 7571   3.890   2.556   0.923 -0.1214  0.3879 -0.0306
 2522TIP3    H1 7572   3.839   2.496   0.868  0.0254 -0.2153  0.4845
 2522TIP3    H2 7573   3.928   2.618   0.861  0.0872 -0.3186 -0.6323
 2523TIP3   OH2 7574   0.264   4.792   0.353 -0.3342 -0.0239 -0.2533
 2523TIP3    H1 7575   0.250   4.741   0.274  0.7300 -1.2918  0.3183
 2523TIP3    H2 7576   0.356   4.775   0.376 -0.5176  0.6054  1.0365
 2524TIP3   OH2 7577   4.642   3.926   2.132 -0.7786  0.2869  0.0645
 2524TIP3    H1 7578   4.726   3.921   2.086 -0.5882  1.0204  0.3219
 2524TIP3    H2 7579   4.658   3.985   2.205 -1.5865  0.6214 -0.0216
 2525TIP3   OH2 7580   5.680   4.270   2.254  0.1163 -0.2450 -0.1879
 2525TIP3    H1 7581   5.592   4.248   2.286 -0.5904  1.8949 -0.5320
 2525TIP3    H2 7582   5.738   4.211   2.302 -1.5748 -2.7875 -1.0288
 2526TIP3   OH2 7583   2.941   4.054   4.731  0.1343 -0.0731 -0.0103
 2526TIP3    H1 7584   2.986   4.122   4.679 -0.9759 -0.3960 -1.4621
 2526TIP3    H2 7585   3.012   3.999   4.763  1.0402  1.5440  0.9094
 2527TIP3   OH2 7586   3.737   3.539   1.816  0.0940  0.5963  0.1845
 2527TIP3    H1 7587   3.718   3.452   1.853  1.5164  0.2594  0.1730
 2527TIP3    H2 7588   3.651   3.581   1.810 -0.4519 -0.2385  1.6002
 2528TIP3   OH2 7589   2.645   3.303   5.000 -0.0368  0.0251  0.1773
 2528TIP3    H1 7590   2.582   3.282   4.931  0.1713 -1.8697  0.5264
 2528TIP3    H2 7591   2.676   3.391   4.977 -3.1023  1.2384  0.2504
 2529TIP3   OH2 7592   4.812   2.651   3.569  0.6744  0.1512 -0.1232
 2529TIP3    H1 7593   4.875   2.722   3.560 -1.3719  1.9330 -1.5262
 2529TIP3    H2 7594   4.812   2.609   3.483  2.1559 -1.9294  0.8014
 2530TIP3   OH2 7595   2.619   5.364   4.301 -0.1090 -0.0985 -0.4547
 2530TIP3    H1 7596   2.604   5.354   4.395 -1.3544  0.6301 -0.5530
 2530TIP3    H2 7597   2.678   5.439   4.294 -0.1055 -0.0814 -0.2590
 2531TIP3   OH2 7598   3.404   3.726   2.586  0.2933 -0.2697  0.7061
 2531TIP3    H1 7599   3.458   3.715   2.664 -0.2350  0.2854  1.1609
 2531TIP3    H2 7600   3.463   3.707   2.513  1.2942  1.0000  1.1500
 2532TIP3   OH2 7601   1.027   2.616   2.302 -0.1162 -0.3015 -0.1676
 2532TIP3    H1 7602   1.046   2.534   2.348 -0.2164  0.7266  1.8134
 2532TIP3    H2 7603   1.105   2.634   2.250  0.9705 -0.4015  1.3471
 2533TIP3   OH2 7604   0.729   2.346   4.795  0.1991 -0.1863  0.2687
 2533TIP3    H1 7605   0.704   2.289   4.868  1.1214 -0.0384  0.7207
 2533TIP3    H2 7606   0.767   2.287   4.730 -0.6978 -0.3293 -0.1499
 2534TIP3   OH2 7607   3.792   3.099   3.887 -0.7971 -0.4431 -0.2729
 2534TIP3    H1 7608   3.723   3.166   3.885  0.2897  0.7675 -3.1421
 2534TIP3    H2 7609   3.760   3.031   3.828 -0.0560 -0.4037 -0.7335
 2535TIP3   OH2 7610   3.337   0.475   2.108 -0.2349 -0.2114  0.2289
 2535TIP3    H1 7611   3.380   0.390   2.119  0.9512  0.1386 -1.3487
 2535TIP3    H2 7612   3.387   0.534   2.164  0.2877 -0.1450 -0.2985
 2536TIP3   OH2 7613   3.614   4.572   3.349 -0.0512 -0.4715  0.1588
 2536TIP3    H1 7614   3.638   4.515   3.277  0.7364 -0.8421  0.6982
 2536TIP3    H2 7615   3.572   4.647   3.307 -0.1189 -0.9441 -0.6354
 2537TIP3   OH2 7616   3.430   4.806   0.100  0.1082 -0.1675  0.0171
 2537TIP3    H1 7617   3.490   4.735   0.075  1.1816  0.0486  1.8173
 2537TIP3    H2 7618   3.343   4.768   0.090  0.6727 -2.0091  1.5852
 2538TIP3   OH2 7619   1.736   2.452   1.845 -0.5450 -0.3932 -0.0320
 2538TIP3    H1 7620   1.800   2.471   1.914  1.3042  0.3870 -1.8425
 2538TIP3    H2 7621   1.676   2.389   1.885  0.8081 -0.4666  2.0749
 2539TIP3   OH2 7622   5.197   0.324   3.516 -0.2177 -0.1187  0.0343
 2539TIP3    H1 7623   5.125   0.382   3.491 -0.4523  0.2380  1.4413
 2539TIP3    H2 7624   5.192   0.319   3.611  2.0636  0.5134  0.2546
 2540TIP3   OH2 7625   5.703   4.833   4.450 -0.1905  0.2507 -0.5408
 2540TIP3    H1 7626   5.613   4.838   4.483  0.4518  2.0494  1.1229
 2540TIP3    H2 7627   5.745   4.766   4.503 -0.4888 -0.4894 -1.2222
 2541TIP3   OH2 7628   0.410   4.831   3.573 -0.6736 -0.0625 -0.1243
 2541TIP3    H1 7629   0.466   4.849   3.497  0.2416  0.1773  0.5914
 2541TIP3    H2 7630   0.464   4.854   3.649 -0.9344 -1.8906  0.6790
 2542TIP3   OH2 7631   0.073   0.452   2.933 -0.1038  0.3503 -0.6366
 2542TIP3    H1 7632   0.031   0.470   3.017  0.4363  1.3046 -0.5544
 2542TIP3    H2 7633   0.010   0.399   2.885 -0.4013 -0.2489  0.3837
 2543TIP3   OH2 7634   6.319   2.731   3.466  0.1896 -0.5446  0.6317
 2543TIP3    H1 7635   6.271   2.652   3.491  1.7760 -0.8579  3.0377
 2543TIP3    H2 7636   6.351   2.767   3.548  0.8335  1.7820 -0.5356
 2544TIP3   OH2 7637   0.514   3.779   5.016  0.0104 -0.1970 -0.1062
 2544TIP3    H1 7638   0.515   3.867   5.054 -2.5533 -0.2177  0.1601
 2544TIP3    H2 7639   0.475   3.791   4.929  0.0519 -1.0101 -0.2444
 2545TIP3   OH2 7640   2.158   5.452   1.999 -0.3094  0.0431 -0.1576
 2545TIP3    H1 7641   2.156   5.539   1.961 -0.2847 -0.2596 -0.8619
 2545TIP3    H2 7642   2.188   5.395   1.928 -1.9188 -0.7967 -0.2048
 2546TIP3   OH2 7643   1.842   1.005   1.307  0.1184  0.5964 -0.0163
 2546TIP3    H1 7644   1.746   1.010   1.311 -0.2761 -0.7082 -3.6544
 2546TIP3    H2 7645   1.864   0.925   1.354 -0.5514  1.0155  1.0295
 2547TIP3   OH2 7646   0.418   5.247   2.692 -0.1642 -0.0426  0.5470
 2547TIP3    H1 7647   0.470   5.299   2.631 -0.9644  0.0317 -0.0826
 2547TIP3    H2 7648   0.402   5.305   2.766  0.1821  0.1086  0.5078
 2548TIP3   OH2 7649   4.580   1.406   0.571  0.7483  0.6027 -0.2012
 2548TIP3    H1 7650   4.658   1.454   0.542 -0.2538  2.3985 -0.0791
 2548TIP3    H2 7651   4.510   1.471   0.569 -0.5493 -0.7083  0.6724
 2549TIP3   OH2 7652   4.203   4.050   3.063  0.1882  0.8492 -0.2714
 2549TIP3    H1 7653   4.234   4.136   3.034  1.8447 -0.1302 -1.5477
 2549TIP3    H2 7654   4.247   3.988   3.005 -2.0163 -0.8101 -0.2818
 2550TIP3   OH2 7655   2.733   4.659   3.029  0.0264 -0.3892 -0.2644
 2550TIP3    H1 7656   2.709   4.576   3.070 -1.5741  0.3456  0.3654
 2550TIP3    H2 7657   2.746   4.638   2.937 -1.7097 -1.1344 -0.3835
 2551TIP3   OH2 7658   5.189   4.106   4.726 -0.2210 -0.1595  0.0891
 2551TIP3    H1 7659   5.169   4.197   4.745 -0.0138  0.0497 -0.6784
 2551TIP3    H2 7660   5.113   4.075   4.675 -2.4110 -1.6502  3.8128
 2552TIP3   OH2 7661   4.146   4.383   1.276 -0.1934 -0.5619  0.1177
 2552TIP3    H1 7662   4.175   4.313   1.218 -1.0915 -0.4762 -0.4572
 2552TIP3    H2 7663   4.209   4.383   1.348  0.3365 -1.3532 -0.3368
 2553TIP3   OH2 7664   3.835   3.216   4.624  0.2746  0.0978  0.4268
 2553TIP3    H1 7665   3.889   3.186   4.698  0.4803 -0.5781  0.0145
 2553TIP3    H2 7666   3.763   3.264   4.665  1.0751  0.8512  0.9945
 2554TIP3   OH2 7667   4.267   2.197   1.163  0.0473  0.3985  0.2450
 2554TIP3    H1 7668   4.241   2.129   1.225 -0.5849  1.5559  1.3009
 2554TIP3    H2 7669   4.247   2.161   1.077 -3.3790  0.4546  0.8960
 2555TIP3   OH2 7670   3.259   3.819   5.054  0.1451  0.5721 -0.4636
 2555TIP3    H1 7671   3.335   3.833   4.998  0.5359  1.6673  0.3042
 2555TIP3    H2 7672   3.295   3.819   5.143 -0.7636  1.1913 -0.0893
 2556TIP3   OH2 7673   3.956   5.437   4.227 -0.1644  0.1819 -0.1328
 2556TIP3    H1 7674   3.898   5.414   4.155  0.6649 -0.2494 -0.6713
 2556TIP3    H2 7675   3.945   5.365   4.290  0.1125 -0.1196 -0.4281
 2557TIP3   OH2 7676   2.640   5.010   1.762 -0.2272 -0.1302  0.4254
 2557TIP3    H1 7677   2.573   5.061   1.717 -1.4348 -1.1554  0.9897
 2557TIP3    H2 7678   2.606   4.998   1.851  1.2566  0.3036  1.0863
 2558TIP3   OH2 7679   1.626   0.517   0.570 -0.0106  0.3838  0.1275
 2558TIP3    H1 7680   1.545   0.566   0.558  0.6162  0.9200 -2.6812
 2558TIP3    H2 7681   1.687   0.580   0.610  0.7044  2.0419 -3.1885
 2559TIP3   OH2 7682   4.369   3.321   4.103 -0.3644  0.4970 -0.3028
 2559TIP3    H1 7683   4.392   3.409   4.133  0.5605  0.6488 -1.3732
 2559TIP3    H2 7684   4.276   3.312   4.121  0.2574  0.1603  3.5741
 2560TIP3   OH2 7685   0.769   2.630   4.723 -0.3366 -0.4300 -0.2902
 2560TIP3    H1 7686   0.742   2.553   4.773  1.1141 -0.8180 -0.0670
 2560TIP3    H2 7687   0.687   2.677   4.705 -1.2621 -2.0655 -0.5215
 2561TIP3   OH2 7688   3.461   0.191   2.567  0.6644 -0.0378 -0.5765
 2561TIP3    H1 7689   3.429   0.237   2.645  0.4660 -0.0422 -0.6554
 2561TIP3    H2 7690   3.466   0.099   2.593 -0.1030 -0.1419 -0.7966
 2562TIP3   OH2 7691   3.423   1.811   0.835 -0.0985 -0.3081  0.1049
 2562TIP3    H1 7692   3.477   1.775   0.906 -0.9908  2.5360  2.4227
 2562TIP3    H2 7693   3.486   1.835   0.767  0.9809 -1.5254  0.6262
 2563TIP3   OH2 7694   4.469   0.579   4.271  0.1347 -0.1955  0.0651
 2563TIP3    H1 7695   4.379   0.611   4.276  0.6504  1.4159 -0.2222
 2563TIP3    H2 7696   4.477   0.519   4.345 -1.7209 -1.9465 -1.0738
 2564TIP3   OH2 7697   5.174   0.809   4.405 -0.0381  0.1891  0.0205
 2564TIP3    H1 7698   5.259   0.851   4.411 -0.1019  0.2419  0.6262
 2564TIP3    H2 7699   5.164   0.788   4.312  0.9140 -0.4142  0.0407
 2565TIP3   OH2 7700   5.024   2.356   0.282  0.0095  0.3077 -0.1208
 2565TIP3    H1 7701   4.943   2.305   0.289  1.7248 -2.7557 -0.8486
 2565TIP3    H2 7702   5.025   2.386   0.191  0.4068 -1.0194 -0.5731
 2566TIP3   OH2 7703   3.777   1.427   0.430  1.0885  0.1140 -0.0856
 2566TIP3    H1 7704   3.685   1.425   0.453  1.1762  0.2917  0.2910
 2566TIP3    H2 7705   3.808   1.337   0.444  0.9906  0.0725 -0.1400
 2567TIP3   OH2 7706   0.265   4.688   2.961  0.0628 -0.1014  0.0928
 2567TIP3    H1 7707   0.209   4.626   2.914 -1.9910  0.9334  1.0702
 2567TIP3    H2 7708   0.257   4.769   2.911  0.3408  0.1728  0.4947
 2568TIP3   OH2 7709   2.505   5.813   3.164 -0.1050  0.3203 -0.9029
 2568TIP3    H1 7710   2.555   5.893   3.148  1.9706 -0.6376  0.2868
 2568TIP3    H2 7711   2.522   5.758   3.088  0.4889  0.0939 -0.6147
 2569TIP3   OH2 7712   4.517   5.887   2.651 -0.0380  0.5180  0.0883
 2569TIP3    H1 7713   4.610   5.889   2.675 -0.1583  3.1575  0.6993
 2569TIP3    H2 7714   4.514   5.926   2.563 -0.4267 -1.2912 -0.7371
 2570TIP3   OH2 7715   1.043   3.313   4.728 -0.1193 -0.0464  0.3505
 2570TIP3    H1 7716   1.099   3.235   4.733  0.2882  0.1583 -0.8233
 2570TIP3    H2 7717   0.972   3.296   4.790 -0.6212 -1.8292 -0.6664
 2571TIP3   OH2 7718   6.123   2.427   0.805 -0.1834 -0.0892  0.2726
 2571TIP3    H1 7719   6.067   2.505   0.808 -2.1351 -1.3531 -1.3189
 2571TIP3    H2 7720   6.127   2.404   0.712  0.0262 -2.1044  0.7404
 2572TIP3   OH2 7721   0.582   2.880   1.806  0.3889 -0.1259 -0.0030
 2572TIP3    H1 7722   0.576   2.906   1.715 -2.3366  1.6662  0.5825
 2572TIP3    H2 7723   0.612   2.958   1.852  0.4232 -0.5985  0.8070
 2573TIP3   OH2 7724   0.205   5.104   2.606 -0.3789  0.1352 -0.0503
 2573TIP3    H1 7725   0.259   5.030   2.578  0.1923  0.9943 -1.3480
 2573TIP3    H2 7726   0.266   5.162   2.652 -0.8677 -0.2756  1.1532
 2574TIP3   OH2 7727   2.976   2.810   2.687  0.7160  0.4104  0.1410
 2574TIP3    H1 7728   3.031   2.815   2.765  0.1256 -1.5700  0.7467
 2574TIP3    H2 7729   3.019   2.745   2.631 -0.0039  0.2257 -0.2124
 2575TIP3   OH2 7730   5.127   3.271   3.907 -0.1390  0.9256 -0.5531
 2575TIP3    H1 7731   5.074   3.195   3.930  0.3649  1.2155  1.8139
 2575TIP3    H2 7732   5.205   3.234   3.865 -0.9986  0.3437 -1.7011
 2576TIP3   OH2 7733   3.686   0.488   0.359  0.2038 -0.2840 -0.3212
 2576TIP3    H1 7734   3.731   0.456   0.437 -0.2320  0.7826  0.3792
 2576TIP3    H2 7735   3.750   0.545   0.316  0.3742 -0.7150 -0.6459
 2577TIP3   OH2 7736   4.023   0.144   4.292 -0.0142  0.0743  0.2386
 2577TIP3    H1 7737   4.051   0.144   4.384 -1.2727  0.4937  0.6425
 2577TIP3    H2 7738   4.032   0.236   4.265 -0.4879  0.1133  0.2143
 2578TIP3   OH2 7739   6.260   5.790   0.642 -0.4591 -0.1645  0.7967
 2578TIP3    H1 7740   6.347   5.830   0.639  0.1350 -1.3079  1.8757
 2578TIP3    H2 7741   6.202   5.858   0.608  1.1959 -0.4678 -3.2213
 2579TIP3   OH2 7742   0.711   1.527   5.128 -1.2056 -0.1579 -0.8850
 2579TIP3    H1 7743   0.706   1.591   5.199  0.9942 -0.3250 -0.5153
 2579TIP3    H2 7744   0.698   1.578   5.048 -1.1507  0.4610 -0.5080
 2580TIP3   OH2 7745   5.609   1.990   1.345  0.0762 -0.2660  0.2713
 2580TIP3    H1 7746   5.592   1.904   1.385  0.7718 -0.2787  0.5452
 2580TIP3    H2 7747   5.628   2.048   1.418 -1.2987  0.3574  0.1653
 2581TIP3   OH2 7748   5.349   0.328   2.364 -0.4289  0.6171 -0.2321
 2581TIP3    H1 7749   5.398   0.283   2.295 -0.4120  1.5455 -0.8408
 2581TIP3    H2 7750   5.261   0.337   2.329 -0.1728  1.9936 -0.5810
 2582TIP3   OH2 7751   4.577   5.901   0.985  0.1006 -0.3127 -0.0236
 2582TIP3    H1 7752   4.591   5.826   0.928  0.8832  0.2158 -0.5416
 2582TIP3    H2 7753   4.660   5.914   1.030 -0.5048 -0.7222  1.2659
 2583TIP3   OH2 7754   1.709   1.588   1.467  0.0431 -0.2721  0.4905
 2583TIP3    H1 7755   1.757   1.531   1.526  0.0027  0.8327  1.6301
 2583TIP3    H2 7756   1.624   1.601   1.509 -0.5445 -0.6460 -0.5461
 2584TIP3   OH2 7757   6.246   2.075   3.027 -0.1646 -0.0257  0.0681
 2584TIP3    H1 7758   6.240   2.167   3.002 -2.3861 -0.1813 -0.1536
 2584TIP3    H2 7759   6.301   2.074   3.105  2.2092  1.1192 -1.4462
 2585TIP3   OH2 7760   4.258   0.283   4.947  0.5646 -0.2180 -0.9317
 2585TIP3    H1 7761   4.292   0.251   5.031 -2.0351  1.4896  0.9342
 2585TIP3    H2 7762   4.180   0.231   4.931  1.2967 -0.8739 -2.6542
 2586TIP3   OH2 7763   2.367   1.725   2.125  0.1025 -0.0443 -0.0641
 2586TIP3    H1 7764   2.437   1.683   2.174  0.0320 -2.0513 -1.5957
 2586TIP3    H2 7765   2.292   1.725   2.185  1.0186  1.0218  1.1407
 2587TIP3   OH2 7766   1.538   1.700   0.214  0.6665 -1.3608 -0.5752
 2587TIP3    H1 7767   1.541   1.661   0.127 -0.3083 -1.3320 -0.6343
 2587TIP3    H2 7768   1.457   1.666   0.253 -1.4666  2.1686 -1.4416
 2588TIP3   OH2 7769   4.583   5.410   2.677  0.0960 -0.2979 -0.5100
 2588TIP3    H1 7770   4.653   5.388   2.616 -0.3302  1.0380 -1.5551
 2588TIP3    H2 7771   4.503   5.384   2.631 -0.1608 -0.6396  0.1195
 2589TIP3   OH2 7772   5.270   0.054   3.390  0.2087 -0.1669  0.0032
 2589TIP3    H1 7773   5.177   0.072   3.373  0.3185  0.3910 -0.0240
 2589TIP3    H2 7774   5.277   0.052   3.485 -0.2009 -2.2235  0.0519
 2590TIP3   OH2 7775   4.150   3.356   1.142 -0.3866  0.1821  0.0814
 2590TIP3    H1 7776   4.075   3.414   1.131  0.7660  1.7918  0.1895
 2590TIP3    H2 7777   4.152   3.336   1.236 -1.0973 -0.4868 -0.0410
 2591TIP3   OH2 7778   4.914   2.723   2.794  0.4212 -0.1495 -0.3599
 2591TIP3    H1 7779   4.912   2.809   2.834 -1.2266 -0.2511 -0.1482
 2591TIP3    H2 7780   4.961   2.668   2.857 -0.6369  0.0676  0.6395
 2592TIP3   OH2 7781   6.335   1.922   1.182 -0.6231  0.2467  0.5160
 2592TIP3    H1 7782   6.242   1.900   1.190 -0.5894 -0.0741  0.0779
 2592TIP3    H2 7783   6.336   2.001   1.129 -0.5954 -0.4262 -0.5244
 2593TIP3   OH2 7784   1.830   5.495   3.787 -0.0603 -0.1085 -0.3218
 2593TIP3    H1 7785   1.812   5.408   3.751  0.4304 -0.0116 -0.8195
 2593TIP3    H2 7786   1.753   5.547   3.765  0.2310 -0.0484 -1.2687
 2594TIP3   OH2 7787   3.255   2.118   0.495  0.1908 -0.6678 -0.1881
 2594TIP3    H1 7788   3.220   2.061   0.563 -1.0226 -0.8995 -0.9763
 2594TIP3    H2 7789   3.250   2.065   0.415  0.7577 -0.0933 -0.6142
 2595TIP3   OH2 7790   3.567   2.066   0.074 -0.2894 -0.2391 -0.2495
 2595TIP3    H1 7791   3.627   2.122   0.124  3.1203 -1.6319 -2.3901
 2595TIP3    H2 7792   3.543   1.996   0.136  0.6461  0.1253  0.5552
 2596TIP3   OH2 7793   0.187   5.525   1.601  0.4660  0.3031  0.4703
 2596TIP3    H1 7794   0.194   5.584   1.676 -0.4392 -1.3247  1.9022
 2596TIP3    H2 7795   0.199   5.438   1.638  0.3638 -0.5367 -1.3619
 2597TIP3   OH2 7796   5.392   1.516   3.610 -0.0476 -0.1924  0.0690
 2597TIP3    H1 7797   5.438   1.600   3.609  0.7580 -0.6088  0.7919
 2597TIP3    H2 7798   5.440   1.463   3.674 -1.2876 -0.7948  0.5345
 2598TIP3   OH2 7799   4.878   5.385   4.728  0.2301 -0.2736  0.0440
 2598TIP3    H1 7800   4.969   5.378   4.756  0.2155 -0.7355 -0.0213
 2598TIP3    H2 7801   4.827   5.350   4.801  0.0643  0.5288  0.3270
 2599TIP3   OH2 7802   5.642   5.507   3.270 -0.0876  0.3874  0.1011
 2599TIP3    H1 7803   5.716   5.512   3.332  0.0960 -0.6989 -0.0123
 2599TIP3    H2 7804   5.601   5.423   3.289  0.0371 -0.0104 -1.3275
 2600TIP3   OH2 7805   3.886   3.255   4.907  0.2988  0.2506  0.2311
 2600TIP3    H1 7806   3.847   3.321   4.964  1.0783  1.9456 -1.1408
 2600TIP3    H2 7807   3.943   3.204   4.965 -0.7684  0.3721  1.4218
 2601TIP3   OH2 7808  -0.016   4.216   0.471 -0.3268 -0.5827  0.0695
 2601TIP3    H1 7809  -0.023   4.121   0.462 -0.9804 -0.4049 -1.7769
 2601TIP3    H2 7810   0.078   4.232   0.480 -0.1856 -1.3784  0.0936
 2602TIP3   OH2 7811   5.456   2.557   5.091  0.4759  0.4269 -0.1928
 2602TIP3    H1 7812   5.401   2.584   5.165  1.9108  2.5126  0.1895
 2602TIP3    H2 7813   5.538   2.604   5.104  1.7158 -1.1953 -1.7324
 2603TIP3   OH2 7814   1.159   2.011   3.364 -0.0301 -0.1100  0.2778
 2603TIP3    H1 7815   1.123   1.984   3.448  0.1548  0.3298  0.5003
 2603TIP3    H2 7816   1.194   1.930   3.326 -2.6911 -0.9063 -0.6939
 2604TIP3   OH2 7817   6.135   0.473   3.735  0.0092 -0.0376 -0.2716
 2604TIP3    H1 7818   6.071   0.416   3.691  1.3157 -1.2570 -0.6549
 2604TIP3    H2 7819   6.220   0.440   3.707  0.8401  0.8499  1.1031
 2605TIP3   OH2 7820   1.220   0.628   2.076 -0.2954  0.4978  0.0246
 2605TIP3    H1 7821   1.312   0.633   2.051 -0.3824 -0.4586 -0.5375
 2605TIP3    H2 7822   1.193   0.719   2.086  1.1406  0.7853  1.9126
 2606TIP3   OH2 7823   3.185   5.864   3.605  0.2693 -0.2683 -0.1658
 2606TIP3    H1 7824   3.117   5.831   3.547 -0.6317  1.0990  0.0637
 2606TIP3    H2 7825   3.169   5.820   3.688  0.8898 -1.4092 -0.6301
 2607TIP3   OH2 7826   4.898   0.192   3.813 -0.1045 -0.3493  0.0736
 2607TIP3    H1 7827   4.828   0.254   3.798 -0.2523 -0.3682  0.6718
 2607TIP3    H2 7828   4.952   0.232   3.881  0.8243 -0.0446 -0.8091
 2608TIP3   OH2 7829   0.830   0.587   4.623 -0.7908 -0.3111  0.5312
 2608TIP3    H1 7830   0.744   0.602   4.661 -0.2070  6.9470  0.4027
 2608TIP3    H2 7831   0.820   0.610   4.530  1.3808  2.5671  0.8769
 2609TIP3   OH2 7832   4.875   2.693   4.564 -0.7582  0.4547 -0.1004
 2609TIP3    H1 7833   4.909   2.780   4.583  1.1661 -0.1528 -0.5552
 2609TIP3    H2 7834   4.885   2.683   4.470  0.9903 -0.9766  0.1813
 2610TIP3   OH2 7835   2.377   1.674   3.822  0.0838 -0.1671  0.3720
 2610TIP3    H1 7836   2.383   1.687   3.917 -2.4016  0.8652  0.4654
 2610TIP3    H2 7837   2.331   1.591   3.812  0.4872 -0.3558  0.0617
 2611TIP3   OH2 7838   4.908   2.398   4.556  0.3805  0.5419 -0.2751
 2611TIP3    H1 7839   4.910   2.490   4.531 -0.9202  0.2551 -1.5463
 2611TIP3    H2 7840   4.953   2.396   4.641 -0.0295  2.4193  0.0458
 2612TIP3   OH2 7841   0.774   3.353   0.674  0.5157 -0.1212  0.1608
 2612TIP3    H1 7842   0.830   3.429   0.690 -1.5003  1.1428  1.6187
 2612TIP3    H2 7843   0.737   3.332   0.760 -0.9625 -1.1208 -0.6825
 2613TIP3   OH2 7844   4.707   5.905   4.536  0.1914 -0.5023  0.4832
 2613TIP3    H1 7845   4.625   5.892   4.489 -0.4668  1.3954  1.0108
 2613TIP3    H2 7846   4.718   5.826   4.588 -2.3042 -0.0832  1.8156
 2614TIP3   OH2 7847   0.911   3.308   1.085 -0.1824 -0.3672  0.5444
 2614TIP3    H1 7848   0.908   3.224   1.038  0.0746  0.9953 -2.0629
 2614TIP3    H2 7849   0.847   3.363   1.040  1.9228  1.8314  0.0331
 2615TIP3   OH2 7850   2.777   4.699   5.084 -0.9256  0.2405  0.2094
 2615TIP3    H1 7851   2.831   4.649   5.146  1.0252  0.6482 -1.0599
 2615TIP3    H2 7852   2.807   4.671   4.998 -2.2002  1.1239 -0.5559
 2616TIP3   OH2 7853   2.044   4.930   2.310  0.5017 -0.0913 -0.3787
 2616TIP3    H1 7854   2.083   4.996   2.253 -0.9226  0.0701 -1.2130
 2616TIP3    H2 7855   1.997   4.980   2.376 -1.1008 -0.2116 -1.3740
 2617TIP3   OH2 7856   5.665   4.037   1.203  0.6449  0.7607 -0.3904
 2617TIP3    H1 7857   5.668   4.033   1.107  0.0053 -1.2236 -0.3830
 2617TIP3    H2 7858   5.628   4.122   1.223 -0.6985  0.5935 -1.9718
 2618TIP3   OH2 7859   0.419   2.170   0.469  1.1974  0.3647  0.1446
 2618TIP3    H1 7860   0.349   2.211   0.419 -0.2962  0.7118  2.3917
 2618TIP3    H2 7861   0.445   2.236   0.533  2.5927 -0.2875  0.2945
 2619TIP3   OH2 7862   0.096   0.246   2.640  1.4190 -0.0200 -0.3789
 2619TIP3    H1 7863   0.079   0.225   2.548  1.8658 -1.8311 -0.0856
 2619TIP3    H2 7864   0.140   0.331   2.637  0.2810  0.5548 -1.7296
 2620TIP3   OH2 7865   3.081   3.195   3.475 -0.3980  0.0680  0.0661
 2620TIP3    H1 7866   2.996   3.179   3.432  0.4384  0.2016 -1.7459
 2620TIP3    H2 7867   3.129   3.113   3.464 -0.2745 -0.0080  1.0842
 2621TIP3   OH2 7868   4.819   0.317   0.471  0.3083 -0.3617 -0.1699
 2621TIP3    H1 7869   4.860   0.287   0.389 -1.5442  0.2281 -1.3650
 2621TIP3    H2 7870   4.827   0.412   0.468 -2.4790 -0.0750 -1.2618
 2622TIP3   OH2 7871   5.353   4.576   5.065 -0.1108 -0.1830 -0.3837
 2622TIP3    H1 7872   5.424   4.541   5.119  1.6567  0.8787 -1.8979
 2622TIP3    H2 7873   5.327   4.657   5.110  0.2654 -0.1062 -0.3019
 2623TIP3   OH2 7874   4.537   1.475   2.376  0.6647  0.5353  0.2110
 2623TIP3    H1 7875   4.452   1.483   2.419  0.3468 -0.2747 -0.2443
 2623TIP3    H2 7876   4.599   1.457   2.448  0.5317  1.4969  0.5878
 2624TIP3   OH2 7877   0.207   1.025   3.117 -0.0087 -0.2305  0.2177
 2624TIP3    H1 7878   0.257   0.995   3.192 -0.3432  0.2399  0.6408
 2624TIP3    H2 7879   0.241   1.113   3.098  0.9420 -0.8377 -0.9830
 2625TIP3   OH2 7880   5.430   3.650   2.429  0.1510  0.4927 -0.6730
 2625TIP3    H1 7881   5.412   3.579   2.491  2.2666  0.5484  0.0939
 2625TIP3    H2 7882   5.373   3.721   2.457 -1.0512 -0.4497 -0.6420
 2626TIP3   OH2 7883   3.183   3.530   2.992  0.2906 -0.6300  0.5105
 2626TIP3    H1 7884   3.186   3.620   2.960 -1.2181 -1.2726 -1.6817
 2626TIP3    H2 7885   3.264   3.491   2.962  0.2115 -0.4344  0.0450
 2627TIP3   OH2 7886   6.321   4.494   0.468  0.1813  0.4605  0.2951
 2627TIP3    H1 7887   6.318   4.399   0.476  0.6279  0.3637 -0.6140
 2627TIP3    H2 7888   6.304   4.511   0.376  0.0611  1.2718  0.4578
 2628TIP3   OH2 7889   0.461   3.723   1.035 -0.0266  0.6293  0.0760
 2628TIP3    H1 7890   0.497   3.651   1.087  0.5425  0.9480  0.1325
 2628TIP3    H2 7891   0.379   3.746   1.080 -0.5874 -0.4562 -0.3668
 2629TIP3   OH2 7892   5.395   1.284   3.953  0.2334 -0.2870  0.5450
 2629TIP3    H1 7893   5.365   1.207   4.001  2.7961 -0.7327  1.5746
 2629TIP3    H2 7894   5.482   1.260   3.921  0.7989  1.9154  0.2661
 2630TIP3   OH2 7895   2.500   2.077   1.891  0.2130 -0.1042  0.0991
 2630TIP3    H1 7896   2.415   2.034   1.904  0.4767 -0.1386  1.9924
 2630TIP3    H2 7897   2.479   2.171   1.892  0.2583 -0.0971  1.2182
 2631TIP3   OH2 7898   3.411   2.462   3.186  1.1316  0.5278  0.2862
 2631TIP3    H1 7899   3.439   2.519   3.258  0.0810  0.2540  0.9400
 2631TIP3    H2 7900   3.357   2.395   3.229 -0.3188  0.9109 -0.8658
 2632TIP3   OH2 7901   1.064   2.821   1.935  0.3495  0.2822 -0.0889
 2632TIP3    H1 7902   1.056   2.915   1.952  0.6061  0.2432  0.2549
 2632TIP3    H2 7903   1.004   2.781   1.997  0.6859  0.1847  0.1732
 2633TIP3   OH2 7904   5.309   2.044   3.663  0.3213  0.6376  0.1013
 2633TIP3    H1 7905   5.360   2.124   3.672  0.0990  0.6106  1.8919
 2633TIP3    H2 7906   5.365   1.976   3.700 -0.0235  0.1740 -0.2137
 2634TIP3   OH2 7907   5.623   4.739   1.954  0.0735 -0.0889  0.1510
 2634TIP3    H1 7908   5.619   4.655   1.908 -0.5575 -0.6477  1.1856
 2634TIP3    H2 7909   5.706   4.777   1.927 -1.4063  0.8984 -3.6253
 2635TIP3   OH2 7910   5.251   2.242   0.385 -0.5069  0.2668  0.2897
 2635TIP3    H1 7911   5.171   2.278   0.347 -1.3548 -1.0285  0.7870
 2635TIP3    H2 7912   5.244   2.262   0.479 -0.1072  0.3977  0.2928
 2636TIP3   OH2 7913   3.203   5.616   1.334  0.2365  0.5458 -0.1549
 2636TIP3    H1 7914   3.115   5.595   1.366  0.2383 -2.0828 -1.5635
 2636TIP3    H2 7915   3.259   5.613   1.411 -0.7374  1.2256  0.5979
 2637TIP3   OH2 7916   1.883   1.106   1.957  0.0619  0.5734 -0.1639
 2637TIP3    H1 7917   1.849   1.189   1.924 -2.8963 -0.1042  0.8272
 2637TIP3    H2 7918   1.913   1.060   1.879 -3.1191  0.5668 -1.5660
 2638TIP3   OH2 7919   1.141   5.902   4.808 -0.4844  0.3890 -0.1270
 2638TIP3    H1 7920   1.115   5.962   4.737  0.8232 -1.5130 -2.3743
 2638TIP3    H2 7921   1.117   5.816   4.775  1.6328 -0.7131  1.0454
 2639TIP3   OH2 7922   1.052   1.596   4.984  0.9455  0.3602  0.3630
 2639TIP3    H1 7923   1.145   1.621   4.982  1.1452 -0.3656  0.4165
 2639TIP3    H2 7924   1.026   1.592   4.892  1.2158 -0.3321  0.3123
 2640TIP3   OH2 7925   2.645   3.565   3.555  0.5875 -0.0144  0.0193
 2640TIP3    H1 7926   2.556   3.554   3.523  0.8658  0.4437 -0.9247
 2640TIP3    H2 7927   2.688   3.482   3.536  0.5128 -0.0435 -0.0213
 2641TIP3   OH2 7928   3.353   5.032   2.198 -0.2021 -0.0231  0.3906
 2641TIP3    H1 7929   3.288   5.029   2.128 -0.5521  1.8974  0.5908
 2641TIP3    H2 7930   3.437   5.030   2.152 -0.4200 -0.2501 -0.0026
 2642TIP3   OH2 7931   1.434   5.883   2.224  0.3712  0.2779  0.1573
 2642TIP3    H1 7932   1.497   5.905   2.156 -0.5490  3.7753  0.2908
 2642TIP3    H2 7933   1.488   5.851   2.297  1.5737 -0.7068 -1.1036
 2643TIP3   OH2 7934   4.816   2.130   4.522  0.4146 -0.1450 -0.4184
 2643TIP3    H1 7935   4.796   2.174   4.439 -0.8380  4.2344  1.9197
 2643TIP3    H2 7936   4.885   2.183   4.561  0.5491 -1.7141  1.6444
 2644TIP3   OH2 7937   1.080   1.778  -0.002  0.6793 -0.0777  0.1428
 2644TIP3    H1 7938   1.043   1.692   0.015 -0.5773  0.6563  1.3289
 2644TIP3    H2 7939   1.141   1.793   0.070 -2.1494  1.6413  2.4044
 2645TIP3   OH2 7940   2.783   5.592   1.426 -0.2627 -0.2500  0.4460
 2645TIP3    H1 7941   2.810   5.628   1.510 -0.2350 -0.5030  0.5465
 2645TIP3    H2 7942   2.775   5.498   1.441 -0.1075 -0.3183  0.1270
 2646TIP3   OH2 7943   0.976   0.993   4.556  0.0811 -0.0521  0.4552
 2646TIP3    H1 7944   1.017   0.908   4.572  0.0472  0.0177  0.9172
 2646TIP3    H2 7945   1.023   1.053   4.614 -0.0825  0.1950  0.3329
 2647TIP3   OH2 7946   3.014   1.707   4.230 -0.4507 -0.0335  0.2060
 2647TIP3    H1 7947   3.092   1.689   4.282  1.1473  1.1021 -1.6978
 2647TIP3    H2 7948   2.991   1.797   4.251  1.3811  1.1451 -2.3375
 2648TIP3   OH2 7949   1.698   0.027   0.847  0.1024  0.0513 -0.5434
 2648TIP3    H1 7950   1.612   0.047   0.810  0.3949  0.2206 -1.1457
 2648TIP3    H2 7951   1.753   0.008   0.770 -0.0416 -2.6563 -0.0785
 2649TIP3   OH2 7952   5.788   0.663   0.370 -0.0010  0.4091  0.0090
 2649TIP3    H1 7953   5.695   0.646   0.355  0.6498 -1.3423 -2.9540
 2649TIP3    H2 7954   5.792   0.754   0.398 -2.6991 -0.0188  2.1978
 2650TIP3   OH2 7955   2.016   4.261   4.735 -0.2773 -0.0759 -0.0981
 2650TIP3    H1 7956   1.934   4.251   4.783 -0.5659  0.1070 -0.5409
 2650TIP3    H2 7957   1.989   4.265   4.643  0.4404 -3.2544 -0.5699
 2651TIP3   OH2 7958   2.132   4.695   3.108 -0.1448 -0.0418 -0.5665
 2651TIP3    H1 7959   2.153   4.627   3.171 -0.0992  0.2699 -0.2397
 2651TIP3    H2 7960   2.039   4.681   3.088 -1.0813  1.7206  1.9481
 2652TIP3   OH2 7961   3.377   3.530   3.369 -0.1308 -0.0239  0.4483
 2652TIP3    H1 7962   3.323   3.572   3.437 -1.2792 -0.4455 -0.1699
 2652TIP3    H2 7963   3.351   3.437   3.373 -1.3526  0.1773 -1.5539
 2653TIP3   OH2 7964   1.646   2.496   2.747  0.4104  0.2214 -0.3866
 2653TIP3    H1 7965   1.725   2.493   2.692  0.5437 -2.8582 -0.1690
 2653TIP3    H2 7966   1.575   2.471   2.687  0.2461 -1.0597  0.3142
 2654TIP3   OH2 7967   2.249   4.495   4.299 -0.9220 -0.3432  0.2716
 2654TIP3    H1 7968   2.274   4.582   4.270 -2.1582  1.0099  2.9131
 2654TIP3    H2 7969   2.316   4.437   4.262  0.2401  1.7706 -1.1004
 2655TIP3   OH2 7970   3.012   5.378   3.012  0.0010 -0.1502 -0.0942
 2655TIP3    H1 7971   3.034   5.390   2.919 -2.0362  2.3163 -0.3492
 2655TIP3    H2 7972   2.940   5.316   3.012 -0.7335  0.6915 -0.2813
 2656TIP3   OH2 7973   2.630   2.416   1.934 -0.0001  0.4788 -0.0780
 2656TIP3    H1 7974   2.559   2.422   1.870 -0.0932 -0.4910 -0.0816
 2656TIP3    H2 7975   2.705   2.383   1.884 -0.2874 -1.0483  0.4346
 2657TIP3   OH2 7976   3.639   2.487   3.488 -0.0258  0.2316 -0.2437
 2657TIP3    H1 7977   3.612   2.456   3.574 -1.3442  0.4448 -0.5704
 2657TIP3    H2 7978   3.602   2.575   3.481  0.7566  0.5317 -0.7131
 2658TIP3   OH2 7979   2.937   3.449   4.453 -0.2217  0.0591 -0.4197
 2658TIP3    H1 7980   2.933   3.533   4.409 -2.1803  0.3623  0.2498
 2658TIP3    H2 7981   3.024   3.414   4.430  0.2743  1.8286 -1.4277
 2659TIP3   OH2 7982   4.568   3.326   3.556  0.1153 -0.1236 -0.1317
 2659TIP3    H1 7983   4.647   3.319   3.610  0.6494 -0.8063 -0.9761
 2659TIP3    H2 7984   4.514   3.252   3.583  0.4532 -0.5587 -0.6372
 2660TIP3   OH2 7985   2.268   0.498   2.990  0.8571  0.6835  0.0169
 2660TIP3    H1 7986   2.197   0.523   3.049  0.5511  0.8663 -0.4293
 2660TIP3    H2 7987   2.316   0.579   2.974  0.1195  0.9088 -1.0885
 2661TIP3   OH2 7988   5.618   4.587   4.642 -0.4058  0.0180  0.0108
 2661TIP3    H1 7989   5.526   4.587   4.669  0.2844 -0.5943  2.6565
 2661TIP3    H2 7990   5.645   4.495   4.649  0.8893  0.4532  1.2889
 2662TIP3   OH2 7991   5.239   4.807   5.114 -0.4645  0.6081 -0.3068
 2662TIP3    H1 7992   5.264   4.877   5.175 -0.0071 -0.0633  0.2863
 2662TIP3    H2 7993   5.172   4.757   5.160  0.7743 -0.6578  0.1811
 2663TIP3   OH2 7994   1.112   1.663   2.717  0.1512  0.1597 -0.0160
 2663TIP3    H1 7995   1.054   1.610   2.662 -0.2301  0.7777 -0.2121
 2663TIP3    H2 7996   1.081   1.647   2.806 -0.3566  0.5380 -0.1259
 2664TIP3   OH2 7997   4.465   2.244   3.282  0.8015  0.0047  0.3447
 2664TIP3    H1 7998   4.447   2.175   3.346  1.2212 -1.5588 -1.1121
 2664TIP3    H2 7999   4.398   2.310   3.298 -0.2022 -1.1718  1.2481
 2665TIP3   OH2 8000   3.694   3.560   1.017 -0.1730 -0.2327 -0.4800
 2665TIP3    H1 8001   3.787   3.540   1.028 -0.3959 -1.1831 -0.2774
 2665TIP3    H2 8002   3.691   3.655   1.007  0.9357 -0.3086 -1.7156
 2666TIP3   OH2 8003   0.459   5.533   1.477  0.3791  0.6480 -0.1302
 2666TIP3    H1 8004   0.470   5.440   1.496  2.1503  0.5165 -1.5349
 2666TIP3    H2 8005   0.364   5.547   1.482  0.1232 -1.0826  0.6683
 2667TIP3   OH2 8006   2.082   1.347   3.368  0.7319  0.2025 -0.5145
 2667TIP3    H1 8007   2.040   1.357   3.283 -0.0090 -1.4774 -0.3982
 2667TIP3    H2 8008   2.176   1.347   3.348  0.5592 -0.9849 -1.4636
 2668TIP3   OH2 8009   0.224   0.830   1.256 -0.3287 -0.5044  1.3140
 2668TIP3    H1 8010   0.136   0.866   1.267 -1.1058 -2.4178  1.7703
 2668TIP3    H2 8011   0.272   0.897   1.207 -2.2967  0.1996  0.2651
 2669TIP3   OH2 8012   6.020   5.580   0.436  0.4516 -0.2060  0.0483
 2669TIP3    H1 8013   5.955   5.647   0.415  1.2974  0.9521  0.9886
 2669TIP3    H2 8014   5.970   5.498   0.440 -1.0086  0.6767  0.9640
 2670TIP3   OH2 8015   3.391   4.333   1.821 -0.3644 -0.0904  0.1079
 2670TIP3    H1 8016   3.404   4.324   1.726  0.2419  0.3402  0.1404
 2670TIP3    H2 8017   3.452   4.402   1.847 -1.9153  1.1719  0.5076
 2671TIP3   OH2 8018   2.008   2.423   3.987 -0.3028 -0.3055 -0.2535
 2671TIP3    H1 8019   1.924   2.444   4.028 -0.4257 -1.9760  0.4297
 2671TIP3    H2 8020   1.983   2.376   3.907 -0.0764 -2.6211  0.9560
 2672TIP3   OH2 8021   0.867   0.812   1.372 -0.2842 -0.0069  0.0647
 2672TIP3    H1 8022   0.860   0.824   1.277  0.2473 -0.1849  0.0016
 2672TIP3    H2 8023   0.958   0.790   1.387  0.0097  1.5551  0.7829
 2673TIP3   OH2 8024   4.404   1.172   4.708 -0.6648 -0.0515 -0.6800
 2673TIP3    H1 8025   4.313   1.155   4.732 -0.4625  2.4373  2.6905
 2673TIP3    H2 8026   4.398   1.233   4.634 -1.8171  0.5171 -0.1524
 2674TIP3   OH2 8027   2.292   5.882   1.444  0.6896  0.5600 -0.4013
 2674TIP3    H1 8028   2.231   5.844   1.380 -0.3725 -0.5322  1.1872
 2674TIP3    H2 8029   2.358   5.813   1.458 -0.5010 -0.2750  1.4976
 2675TIP3   OH2 8030   6.289   2.342   3.247  0.1258 -0.3438 -0.2558
 2675TIP3    H1 8031   6.315   2.356   3.338  0.7209 -0.1156 -0.4505
 2675TIP3    H2 8032   6.372   2.344   3.198 -0.3543  1.8401 -1.1012
 2676TIP3   OH2 8033   5.977   2.018   1.991  0.4588  0.0297 -0.2010
 2676TIP3    H1 8034   5.938   1.948   2.044  0.7438 -1.0868 -1.4188
 2676TIP3    H2 8035   5.905   2.049   1.936  0.3305  0.7267  0.3448
 2677TIP3   OH2 8036   2.103   0.496   1.845 -0.1802 -0.0792  0.1665
 2677TIP3    H1 8037   2.094   0.490   1.750 -0.4664 -0.9139  0.2315
 2677TIP3    H2 8038   2.039   0.433   1.878 -0.7808  0.9196  0.9457
 2678TIP3   OH2 8039   1.792   5.132   4.617 -0.4724  0.1649 -0.4342
 2678TIP3    H1 8040   1.816   5.181   4.538 -0.0978  0.9659  0.1627
 2678TIP3    H2 8041   1.853   5.163   4.684 -2.0533  1.0044  0.6882
 2679TIP3   OH2 8042   4.228   4.455   1.778  0.7518 -0.3561  0.1382
 2679TIP3    H1 8043   4.157   4.406   1.819  0.0329 -0.1768 -0.8623
 2679TIP3    H2 8044   4.307   4.411   1.808  0.1979 -1.0315  0.6625
 2680TIP3   OH2 8045   4.213   3.542   0.163 -0.2019  0.7230  0.4472
 2680TIP3    H1 8046   4.175   3.628   0.183 -0.7190  0.2094  1.8310
 2680TIP3    H2 8047   4.272   3.558   0.090 -0.2062  2.2777  0.7505
 2681TIP3   OH2 8048   1.033   3.055   2.766  0.0271 -0.3921  0.0078
 2681TIP3    H1 8049   0.993   3.119   2.708 -1.0951  0.5533  1.7367
 2681TIP3    H2 8050   0.961   3.020   2.819  1.1516 -0.0385  1.9016
 2682TIP3   OH2 8051   4.869   4.642   5.088 -0.3005 -0.0718  0.1735
 2682TIP3    H1 8052   4.950   4.675   5.126  0.7634 -0.9439 -1.2003
 2682TIP3    H2 8053   4.801   4.699   5.122  0.7702  0.1587  2.0547
 2683TIP3   OH2 8054   3.372   2.035   2.026 -0.3908  0.2205 -0.5016
 2683TIP3    H1 8055   3.407   1.961   2.077 -1.3172 -0.2300 -0.4936
 2683TIP3    H2 8056   3.447   2.093   2.015  0.5616 -1.0588 -1.1285
 2684TIP3   OH2 8057   4.788   2.789   1.691  0.8500  0.3890 -0.2342
 2684TIP3    H1 8058   4.739   2.866   1.721  1.7517  0.3683  1.4049
 2684TIP3    H2 8059   4.837   2.761   1.768 -0.7128 -2.8662 -0.2644
 2685TIP3   OH2 8060   4.963   1.335   2.418  0.7266 -0.5132 -0.4297
 2685TIP3    H1 8061   5.034   1.335   2.481  1.1474  0.1676 -0.8911
 2685TIP3    H2 8062   4.883   1.330   2.471  1.0997 -0.6566  0.1161
 2686TIP3   OH2 8063   0.566   0.432   5.100  0.0540  0.5752 -0.3136
 2686TIP3    H1 8064   0.561   0.516   5.055 -0.4668  0.4567 -0.4919
 2686TIP3    H2 8065   0.525   0.370   5.039 -0.7588  0.4357  0.3543
 2687TIP3   OH2 8066   1.386   5.230   2.104 -0.4655  0.0557 -0.5003
 2687TIP3    H1 8067   1.304   5.189   2.078  0.0589 -0.5981 -1.1768
 2687TIP3    H2 8068   1.360   5.306   2.156 -1.4680 -1.5044  1.4101
 2688TIP3   OH2 8069   5.787   1.336   3.553  0.0976  0.2199 -0.0885
 2688TIP3    H1 8070   5.733   1.395   3.502 -1.2246 -0.1067  0.8780
 2688TIP3    H2 8071   5.874   1.342   3.513 -0.2633  1.9551 -0.6950
 2689TIP3   OH2 8072   3.248   2.413   3.902  0.0233  0.1209 -0.4647
 2689TIP3    H1 8073   3.222   2.500   3.872 -0.5946  0.6726  1.5577
 2689TIP3    H2 8074   3.201   2.400   3.984  1.8829 -1.1610  0.4832
 2690TIP3   OH2 8075   2.736   1.206   1.992  0.6624 -0.0768  0.2364
 2690TIP3    H1 8076   2.673   1.175   1.926  0.6485 -0.4202  0.4053
 2690TIP3    H2 8077   2.782   1.278   1.949  0.5039 -0.1548 -0.0739
 2691TIP3   OH2 8078   1.373   4.829   2.815 -0.6178  0.3558  0.1124
 2691TIP3    H1 8079   1.359   4.874   2.732 -0.5777  1.5637  0.7298
 2691TIP3    H2 8080   1.449   4.772   2.800  1.2439  2.6722  0.0670
 2692TIP3   OH2 8081   4.649   3.876   1.347 -0.2347 -0.7207 -0.4332
 2692TIP3    H1 8082   4.558   3.852   1.332 -0.1300 -0.0936 -2.3955
 2692TIP3    H2 8083   4.651   3.971   1.339  0.7530 -0.8169 -1.5895
 2693TIP3   OH2 8084   0.187   0.766   4.487 -0.1912  0.1938  0.5514
 2693TIP3    H1 8085   0.127   0.774   4.413 -2.2248 -0.1307  2.0729
 2693TIP3    H2 8086   0.206   0.672   4.492  0.3848  0.2794  0.1580
 2694TIP3   OH2 8087   0.701   0.652   3.549  0.3797  0.0274 -0.4805
 2694TIP3    H1 8088   0.738   0.644   3.638 -0.6115 -1.0699 -0.1406
 2694TIP3    H2 8089   0.777   0.645   3.491  1.2879  2.4906  0.2751
 2695TIP3   OH2 8090   2.133   0.620   3.275 -0.4961  0.3210  0.3150
 2695TIP3    H1 8091   2.059   0.646   3.331  0.1329  2.5370  0.1796
 2695TIP3    H2 8092   2.141   0.691   3.211  1.4460 -0.1331  0.0130
 2696TIP3   OH2 8093   2.753   0.144   0.388 -0.6170 -0.1476 -0.0628
 2696TIP3    H1 8094   2.707   0.170   0.467  0.2603  1.7578 -0.1387
 2696TIP3    H2 8095   2.845   0.154   0.409 -0.3478 -0.2539 -1.1195
 2697TIP3   OH2 8096   2.628   1.896   4.367  0.6775 -0.1634 -0.2129
 2697TIP3    H1 8097   2.570   1.902   4.291  1.1578  0.6355 -0.5444
 2697TIP3    H2 8098   2.598   1.820   4.416 -1.2961  0.8103  0.1833
 2698TIP3   OH2 8099   3.802   4.118   0.823  0.0425  0.0460 -0.5322
 2698TIP3    H1 8100   3.781   4.029   0.851  0.9795 -0.0338 -0.0450
 2698TIP3    H2 8101   3.739   4.137   0.754 -0.1205 -1.0204 -0.6886
 2699TIP3   OH2 8102   4.561   5.559   1.578  0.2220 -0.3413  0.1772
 2699TIP3    H1 8103   4.499   5.621   1.539  0.8692  0.4131  0.3301
 2699TIP3    H2 8104   4.645   5.580   1.537  0.5423 -0.7874  0.5971
 2700TIP3   OH2 8105   2.656   3.625   3.810  0.4447 -0.0903 -0.1143
 2700TIP3    H1 8106   2.613   3.546   3.841 -0.2741  0.2059 -0.3475
 2700TIP3    H2 8107   2.654   3.617   3.714 -0.7654  0.8045 -0.1764
 2701TIP3   OH2 8108   5.872   1.534   1.610 -0.0249 -0.6652 -0.2905
 2701TIP3    H1 8109   5.795   1.480   1.592 -0.9963  0.6339 -0.1628
 2701TIP3    H2 8110   5.847   1.622   1.582  1.3871 -0.1980 -0.1608
 2702TIP3   OH2 8111   1.342   1.093   1.812 -0.2180 -0.2841 -0.5088
 2702TIP3    H1 8112   1.348   1.184   1.782 -0.5762 -0.3667 -0.8562
 2702TIP3    H2 8113   1.340   1.099   1.907 -1.8380  0.2084 -0.5276
 2703TIP3   OH2 8114   3.235   5.281   2.005  0.1510 -0.1307 -0.6322
 2703TIP3    H1 8115   3.235   5.187   1.990  1.3741 -0.3990  0.8132
 2703TIP3    H2 8116   3.197   5.292   2.093  2.0963  0.4820  0.1962
 2704TIP3   OH2 8117   0.285   2.539   1.606 -0.2649  0.4904  0.2356
 2704TIP3    H1 8118   0.194   2.513   1.592 -0.4475  0.9961  0.4224
 2704TIP3    H2 8119   0.278   2.624   1.651  0.2948  1.3617 -1.2549
 2705TIP3   OH2 8120   6.153   3.084   4.328  0.3837 -0.2389  0.0292
 2705TIP3    H1 8121   6.164   3.166   4.281  1.9972 -0.7836 -0.6279
 2705TIP3    H2 8122   6.154   3.108   4.421  1.2415  0.4433 -0.1497
 2706TIP3   OH2 8123   3.123   3.565   4.731 -0.2561 -0.4453 -0.0806
 2706TIP3    H1 8124   3.120   3.471   4.718  2.3187 -0.9955  2.4224
 2706TIP3    H2 8125   3.044   3.585   4.781 -0.9354 -1.1904 -0.8188
 2707TIP3   OH2 8126   2.538   3.637   4.771 -0.6843  1.2809 -0.0278
 2707TIP3    H1 8127   2.530   3.633   4.675 -0.1858 -2.2735 -0.0439
 2707TIP3    H2 8128   2.470   3.578   4.803  2.8747 -2.5167  1.3851
 2708TIP3   OH2 8129   6.291   1.860   0.377  0.0923  0.1771 -0.0038
 2708TIP3    H1 8130   6.232   1.830   0.308 -1.7310  1.4943  0.8929
 2708TIP3    H2 8131   6.360   1.795   0.379 -0.6956 -0.8063 -1.9184
 2709TIP3   OH2 8132   0.585   0.511   1.447  0.2254  0.1381 -0.3456
 2709TIP3    H1 8133   0.597   0.604   1.465  0.9586 -0.0216  0.0605
 2709TIP3    H2 8134   0.553   0.475   1.530  0.6640 -0.0892 -0.2713
 2710TIP3   OH2 8135   3.268   2.579   3.488  0.3278  0.1970  0.0785
 2710TIP3    H1 8136   3.345   2.636   3.484  1.2269 -0.9676 -3.4408
 2710TIP3    H2 8137   3.300   2.497   3.523 -0.0848  0.5883  1.4524
 2711TIP3   OH2 8138   3.553   5.660   4.664 -0.0942  0.1970  0.0950
 2711TIP3    H1 8139   3.515   5.688   4.748 -0.4376  0.0634 -0.0151
 2711TIP3    H2 8140   3.545   5.738   4.608  2.5151  1.1939  0.9410
 2712TIP3   OH2 8141   2.883   5.515   4.652 -0.5605  0.2440  0.1024
 2712TIP3    H1 8142   2.868   5.430   4.694  0.5235  0.2816  0.5913
 2712TIP3    H2 8143   2.887   5.578   4.724 -1.1709  0.6886 -0.2436
 2713TIP3   OH2 8144   1.865   0.692   2.020 -0.0710  0.2689 -0.5692
 2713TIP3    H1 8145   1.879   0.765   2.080  0.5151  0.5701 -1.0557
 2713TIP3    H2 8146   1.799   0.724   1.958  0.0164  0.3091 -0.6432
 2714TIP3   OH2 8147   4.364   0.558   4.012  0.1806  0.2632 -0.1657
 2714TIP3    H1 8148   4.393   0.524   4.096  0.7389  0.8911 -0.0953
 2714TIP3    H2 8149   4.296   0.498   3.984  2.3482 -1.9836 -0.9160
 2715TIP3   OH2 8150   4.610   1.090   2.249 -0.3260  0.2147  0.1218
 2715TIP3    H1 8151   4.643   1.171   2.210  0.9448 -0.2979  0.0650
 2715TIP3    H2 8152   4.593   1.112   2.341 -0.8412  0.7637 -0.1015
 2716TIP3   OH2 8153   3.515   1.251   1.034  0.2285  0.3369 -0.1357
 2716TIP3    H1 8154   3.507   1.205   1.117 -0.5903  0.2562 -0.2579
 2716TIP3    H2 8155   3.609   1.267   1.025  0.3019  0.5695  0.9167
 2717TIP3   OH2 8156   5.892   4.786   1.856  0.1204  0.3436  0.4317
 2717TIP3    H1 8157   5.923   4.696   1.859  0.4865  0.4180 -0.5440
 2717TIP3    H2 8158   5.949   4.828   1.791 -1.4884  0.6811 -0.8337
 2718TIP3   OH2 8159   2.409   0.367   1.454 -0.1659  0.5573  0.6930
 2718TIP3    H1 8160   2.453   0.285   1.479 -1.4362 -0.6022 -0.6671
 2718TIP3    H2 8161   2.478   0.422   1.418  0.2998 -1.0397 -0.9864
 2719TIP3   OH2 8162   3.254   5.080   2.881  0.4224 -0.0818  0.0835
 2719TIP3    H1 8163   3.321   5.022   2.916 -1.3708 -1.8834  0.6756
 2719TIP3    H2 8164   3.251   5.153   2.943 -0.3606 -1.5875  1.9311
 2720TIP3   OH2 8165   1.144   1.496   4.537  0.3440 -0.2787 -0.1121
 2720TIP3    H1 8166   1.223   1.450   4.509  0.5900 -0.1093  0.2939
 2720TIP3    H2 8167   1.130   1.468   4.628 -0.3168 -0.6469 -0.3216
 2721TIP3   OH2 8168   3.155   4.236   0.397 -0.6384 -0.1281  0.2147
 2721TIP3    H1 8169   3.201   4.178   0.458  0.2660 -0.2587 -0.5755
 2721TIP3    H2 8170   3.113   4.302   0.453 -1.3605 -1.2962  1.1007
 2722TIP3   OH2 8171   4.081   2.514   2.925 -0.0267 -0.3548 -0.1389
 2722TIP3    H1 8172   4.040   2.431   2.948 -0.3713  0.3611  2.0298
 2722TIP3    H2 8173   4.012   2.580   2.938  0.4473  0.3688 -1.1195
 2723TIP3   OH2 8174   2.086   4.887   4.517 -0.4362 -0.5300 -0.8501
 2723TIP3    H1 8175   2.110   4.801   4.552 -0.9177 -0.8094 -1.1972
 2723TIP3    H2 8176   2.164   4.941   4.530 -0.6336 -0.5906  0.7666
 2724TIP3   OH2 8177   4.041   1.547   1.997 -0.8528 -0.0210  0.2900
 2724TIP3    H1 8178   4.059   1.567   2.089 -2.5621 -2.3050  1.2126
 2724TIP3    H2 8179   4.128   1.541   1.957  0.0211 -0.4673  2.1131
 2725TIP3   OH2 8180   1.417   2.534   1.909 -0.3847  0.2870 -0.4682
 2725TIP3    H1 8181   1.481   2.463   1.902 -0.2213  0.4597 -0.7958
 2725TIP3    H2 8182   1.339   2.501   1.865 -0.6726 -0.0876  0.3117
 2726TIP3   OH2 8183   5.423   5.912   0.732  0.2540  0.0234 -0.3654
 2726TIP3    H1 8184   5.350   5.973   0.715  1.4652  2.0156  1.1027
 2726TIP3    H2 8185   5.384   5.842   0.785 -0.4743  1.5290  1.1860
 2727TIP3   OH2 8186   1.148  -0.025   0.311 -0.3136 -0.8329 -0.1520
 2727TIP3    H1 8187   1.233   0.000   0.276 -0.3346  0.2099  0.5101
 2727TIP3    H2 8188   1.127   0.042   0.376 -2.0662 -0.5300 -0.9576
 2728TIP3   OH2 8189   4.536   4.638   1.532 -0.0186 -0.2061  0.4704
 2728TIP3    H1 8190   4.461   4.581   1.513 -1.0652  1.2261  0.2093
 2728TIP3    H2 8191   4.541   4.697   1.457  0.4648  0.6625  1.1719
 2729TIP3   OH2 8192   5.697   1.597   0.726 -0.2739  0.4059  0.3947
 2729TIP3    H1 8193   5.643   1.563   0.797 -0.4310 -1.0653 -0.3871
 2729TIP3    H2 8194   5.783   1.558   0.741 -0.4265 -0.2768 -0.4570
 2730TIP3   OH2 8195   5.271   4.739   3.635 -0.5753  0.8132  0.7907
 2730TIP3    H1 8196   5.324   4.741   3.555  0.8964 -2.4861  1.4656
 2730TIP3    H2 8197   5.333   4.761   3.705 -0.0516 -2.3040  1.5044
 2731TIP3   OH2 8198   4.559   5.076   2.158  0.2094  0.3518 -0.4500
 2731TIP3    H1 8199   4.554   5.136   2.233 -0.2813  0.1605 -0.3219
 2731TIP3    H2 8200   4.652   5.074   2.135  0.6392 -0.8372  1.1805
 2732TIP3   OH2 8201   3.869   4.638   3.865  0.2511  0.0786  0.5509
 2732TIP3    H1 8202   3.862   4.709   3.928 -0.2977  0.4847  0.0458
 2732TIP3    H2 8203   3.857   4.680   3.780  1.3754 -0.4027  0.1376
 2733TIP3   OH2 8204   5.643   0.376   0.566 -0.6038  0.5447 -0.6696
 2733TIP3    H1 8205   5.583   0.402   0.496 -1.5647  2.7254  0.8217
 2733TIP3    H2 8206   5.616   0.288   0.590 -2.2433  0.9144 -1.0509
 2734TIP3   OH2 8207   3.696   1.573   2.942  0.1018 -0.1506 -0.4125
 2734TIP3    H1 8208   3.745   1.493   2.962 -0.1050  0.0222  0.8330
 2734TIP3    H2 8209   3.764   1.638   2.921  0.4859  0.2327  1.8239
 2735TIP3   OH2 8210   4.296   2.965   2.460 -0.2048 -0.3734  0.1751
 2735TIP3    H1 8211   4.321   2.879   2.496  0.9392 -0.5938 -1.0701
 2735TIP3    H2 8212   4.332   3.028   2.522  1.9409 -0.7407 -0.6234
 2736TIP3   OH2 8213   2.256   3.786   4.833 -1.1772 -0.0621 -0.2648
 2736TIP3    H1 8214   2.184   3.845   4.851 -0.4739  0.0716  2.4984
 2736TIP3    H2 8215   2.218   3.698   4.839 -1.5782  0.0244 -1.3017
 2737TIP3   OH2 8216   3.299   5.711   2.951  0.1371 -0.4090 -0.2899
 2737TIP3    H1 8217   3.328   5.643   2.890 -1.7597  0.1584 -1.9127
 2737TIP3    H2 8218   3.263   5.662   3.026 -0.9671 -1.2269 -1.3121
 2738TIP3   OH2 8219   5.262   2.629   1.922  0.0362 -0.2707 -0.1120
 2738TIP3    H1 8220   5.317   2.586   1.987  0.8352  0.0188 -0.5765
 2738TIP3    H2 8221   5.310   2.710   1.899 -0.3111 -0.2780 -0.9136
 2739TIP3   OH2 8222   3.093   0.952   0.376 -0.3243  0.0552  0.2232
 2739TIP3    H1 8223   3.013   0.965   0.426  0.3484  0.9920  1.0942
 2739TIP3    H2 8224   3.064   0.916   0.292 -1.4452 -2.0570  1.4335
 2740TIP3   OH2 8225   0.526   1.845   2.363  0.0347 -0.4474 -0.0401
 2740TIP3    H1 8226   0.450   1.882   2.317  0.0015  0.7378  0.9024
 2740TIP3    H2 8227   0.561   1.780   2.303 -0.5283  0.4269 -1.3715
 2741TIP3   OH2 8228   6.189   1.135   2.833  0.2506 -0.3263  0.2375
 2741TIP3    H1 8229   6.151   1.181   2.758  2.3980  1.5809  0.2145
 2741TIP3    H2 8230   6.283   1.144   2.822  0.7179 -2.7520  1.5592
 2742TIP3   OH2 8231   6.292   2.400   1.211 -0.2024 -0.0104  0.7838
 2742TIP3    H1 8232   6.219   2.355   1.168 -0.6195  1.1850  0.2079
 2742TIP3    H2 8233   6.301   2.482   1.163  1.3762 -0.0280  0.9921
 2743TIP3   OH2 8234   3.836   0.057   4.697 -0.1651 -0.6143  0.0367
 2743TIP3    H1 8235   3.796   0.073   4.611 -0.6618 -2.5280 -0.1333
 2743TIP3    H2 8236   3.770   0.008   4.745  0.2112  0.2287  1.4630
 2744TIP3   OH2 8237   1.931   5.288   4.821  0.0190 -0.3369 -0.0116
 2744TIP3    H1 8238   2.001   5.330   4.871  0.0239 -1.0447  0.5750
 2744TIP3    H2 8239   1.878   5.361   4.788  0.6987  0.1779  0.0141
 2745TIP3   OH2 8240   5.821   0.918   0.459 -0.5581 -0.1790 -0.0845
 2745TIP3    H1 8241   5.838   0.992   0.400  1.1186 -0.1109  0.4375
 2745TIP3    H2 8242   5.763   0.954   0.525 -2.6316 -0.3071 -1.7293
 2746TIP3   OH2 8243   5.184   3.977   1.297  0.2379  0.2890  0.2053
 2746TIP3    H1 8244   5.273   3.973   1.333  0.4192 -1.7759 -0.3095
 2746TIP3    H2 8245   5.180   4.061   1.253  1.5796  0.8804  1.1226
 2747TIP3   OH2 8246   2.835   2.574   2.984 -0.3395  0.3367 -0.3373
 2747TIP3    H1 8247   2.779   2.507   2.946 -0.1335  0.8120 -1.5263
 2747TIP3    H2 8248   2.918   2.530   3.001 -0.0668  0.3810 -1.5093
 2748TIP3   OH2 8249   3.835   0.257   4.900 -0.1414  0.0205 -0.0348
 2748TIP3    H1 8250   3.844   0.352   4.896 -0.0078 -0.0139 -0.6329
 2748TIP3    H2 8251   3.817   0.231   4.809  0.3374 -0.5751  0.0393
 2749TIP3   OH2 8252   3.691   4.657   1.144 -0.5309  0.6871  0.0193
 2749TIP3    H1 8253   3.777   4.621   1.165 -0.7324 -0.2447 -0.7081
 2749TIP3    H2 8254   3.650   4.592   1.087 -2.2001  0.5580  1.2737
 2750TIP3   OH2 8255   1.122   1.882   1.393 -0.2878 -0.4691 -0.1569
 2750TIP3    H1 8256   1.065   1.909   1.466  1.4168  0.3147  0.9628
 2750TIP3    H2 8257   1.171   1.961   1.371  1.7463 -1.5271  0.2712
 2751TIP3   OH2 8258   1.457   1.254   3.486 -0.5608 -0.2325 -0.3909
 2751TIP3    H1 8259   1.363   1.272   3.485 -0.1577  3.3489  2.8746
 2751TIP3    H2 8260   1.469   1.195   3.560 -0.1787 -0.0036 -0.2674
 2752TIP3   OH2 8261   1.186   5.338   1.235 -0.1950 -0.3282 -0.1237
 2752TIP3    H1 8262   1.210   5.427   1.259  0.4550  0.1317 -2.2273
 2752TIP3    H2 8263   1.104   5.346   1.186 -0.5315 -0.9764  0.3165
 2753TIP3   OH2 8264   5.500   1.489   1.916 -0.2480  0.2181 -0.1785
 2753TIP3    H1 8265   5.415   1.484   1.873 -0.2554 -0.4377 -0.0961
 2753TIP3    H2 8266   5.484   1.451   2.003  0.2797 -0.5437 -0.4055
 2754TIP3   OH2 8267   6.288   1.953   3.867  0.4955 -0.6602 -0.6385
 2754TIP3    H1 8268   6.353   1.943   3.936 -0.4154  0.3240  0.4084
 2754TIP3    H2 8269   6.281   1.866   3.828 -0.0377 -1.6560  1.5087
 2755TIP3   OH2 8270   0.618   3.903   0.904 -0.3250  0.6395  0.2190
 2755TIP3    H1 8271   0.671   3.956   0.963  0.4515 -0.0416  0.1415
 2755TIP3    H2 8272   0.563   3.850   0.962  0.6421 -0.2412  0.3585
 2756TIP3   OH2 8273   2.700   0.138   2.281  0.0207  0.2536 -0.3348
 2756TIP3    H1 8274   2.664   0.214   2.327 -0.3405  0.5987 -1.1710
 2756TIP3    H2 8275   2.758   0.176   2.215  2.6032 -0.2873  1.4725
 2757TIP3   OH2 8276   1.008   1.344   0.342 -0.3508  0.2774  0.2597
 2757TIP3    H1 8277   0.914   1.327   0.332 -0.2897  0.1106 -0.0361
 2757TIP3    H2 8278   1.050   1.270   0.298 -0.0352 -1.5581  3.3371
 2758TIP3   OH2 8279   0.896   3.545   0.264 -0.2595  0.0223  0.3561
 2758TIP3    H1 8280   0.949   3.617   0.297  1.1308 -0.2874 -1.0793
 2758TIP3    H2 8281   0.904   3.551   0.169 -2.0572 -0.6215  0.1264
 2759TIP3   OH2 8282   0.575   5.034   0.991  0.3742  0.1420  0.0335
 2759TIP3    H1 8283   0.575   4.951   0.943  1.0434  0.5235 -0.6444
 2759TIP3    H2 8284   0.509   5.088   0.947 -0.8249 -0.3645  1.1207
 2760TIP3   OH2 8285   2.990   1.841   4.915  0.7924 -0.0688  0.1024
 2760TIP3    H1 8286   2.952   1.928   4.928 -0.8602 -0.8220  0.5704
 2760TIP3    H2 8287   3.045   1.851   4.837  1.3601  1.6010  0.6825
 2761TIP3   OH2 8288   5.749   1.812   4.842 -0.5133 -0.5788  0.0553
 2761TIP3    H1 8289   5.820   1.873   4.864 -1.1825  0.8405 -1.5306
 2761TIP3    H2 8290   5.759   1.796   4.748 -1.4859 -1.4726  0.0797
 2762TIP3   OH2 8291   5.360   0.458   2.962  0.2542  0.3985  0.0991
 2762TIP3    H1 8292   5.413   0.426   2.888 -0.7722  0.4359 -0.6809
 2762TIP3    H2 8293   5.353   0.552   2.947 -2.3034  0.0864 -1.4213
 2763TIP3   OH2 8294   1.607   2.157   4.719 -0.5555 -0.0964 -0.2345
 2763TIP3    H1 8295   1.587   2.168   4.812  0.6465  0.7509 -0.0525
 2763TIP3    H2 8296   1.552   2.222   4.675  0.6911  1.2662  0.1397
 2764TIP3   OH2 8297   1.396   5.023   1.489  0.9340  0.2857  0.7911
 2764TIP3    H1 8298   1.357   4.936   1.480  1.7156 -0.1532  1.4693
 2764TIP3    H2 8299   1.391   5.061   1.402  1.4783 -0.8333  0.2461
 2765TIP3   OH2 8300   4.108   2.900   4.536 -0.2421 -0.2647  0.3806
 2765TIP3    H1 8301   4.062   2.976   4.500  0.8151  0.6323  0.8752
 2765TIP3    H2 8302   4.171   2.875   4.469  0.1318 -0.0449  0.6467
 2766TIP3   OH2 8303   0.575   1.676   4.905 -0.0019 -0.1051 -0.1269
 2766TIP3    H1 8304   0.513   1.716   4.844 -0.9889 -0.2368  0.7586
 2766TIP3    H2 8305   0.531   1.596   4.935  1.0681 -0.7768 -0.3030
 2767TIP3   OH2 8306   2.690   6.017   2.463  0.2039 -0.0968 -0.1628
 2767TIP3    H1 8307   2.768   6.015   2.518  0.5003 -1.3173 -0.5920
 2767TIP3    H2 8308   2.687   5.930   2.422 -0.3828  0.5344 -1.5417
 2768TIP3   OH2 8309   1.110   3.908   0.054 -0.0779  0.0921 -0.3998
 2768TIP3    H1 8310   1.093   3.814   0.046 -1.7210  0.3092  0.1113
 2768TIP3    H2 8311   1.194   3.921   0.010  1.7039 -2.0838  2.0074
 2769TIP3   OH2 8312   0.924   5.728   0.667  0.0744  0.0881 -0.2601
 2769TIP3    H1 8313   0.954   5.702   0.580  1.3691 -0.9739  0.4566
 2769TIP3    H2 8314   0.874   5.653   0.699 -4.1272  2.0145 -1.6415
 2770TIP3   OH2 8315   1.895   5.813   3.713  0.0819  0.4520 -0.4274
 2770TIP3    H1 8316   1.825   5.764   3.670  0.5294  1.9846 -3.1236
 2770TIP3    H2 8317   1.850   5.870   3.775 -0.4644 -3.0199  2.7511
 2771TIP3   OH2 8318   5.193   3.997   0.594 -0.2779 -0.2677 -0.1218
 2771TIP3    H1 8319   5.125   3.931   0.605  0.2411 -0.9057 -0.6917
 2771TIP3    H2 8320   5.216   3.993   0.502  1.0270 -0.5599  0.1922
 2772TIP3   OH2 8321   3.923   0.915   1.871 -1.0679 -0.1659 -0.3472
 2772TIP3    H1 8322   3.998   0.952   1.917 -0.3904 -1.2637 -0.5202
 2772TIP3    H2 8323   3.855   0.908   1.938 -1.1338  1.0993 -0.2545
 2773TIP3   OH2 8324   2.958   4.443   2.024 -0.3923 -0.3062 -0.3400
 2773TIP3    H1 8325   2.896   4.434   1.952  0.2970  0.9559 -1.1197
 2773TIP3    H2 8326   3.039   4.473   1.983  0.4747 -1.0070  0.7759
 2774TIP3   OH2 8327   3.290   0.999   2.276 -0.6746 -0.6713 -0.1262
 2774TIP3    H1 8328   3.253   0.987   2.364 -2.5899 -0.6221 -0.8794
 2774TIP3    H2 8329   3.235   0.944   2.219  0.4903 -0.6514 -1.3150
 2775TIP3   OH2 8330   3.934   1.138   0.064 -0.8282 -0.1414  0.6656
 2775TIP3    H1 8331   3.946   1.231   0.083 -1.0264  0.0259 -0.0012
 2775TIP3    H2 8332   4.019   1.110   0.028 -1.5860  0.4710 -1.7874
 2776TIP3   OH2 8333   5.402   5.444   3.114 -0.2312 -0.0911 -0.2526
 2776TIP3    H1 8334   5.363   5.451   3.027  0.4244  0.4860 -0.5086
 2776TIP3    H2 8335   5.480   5.499   3.110  0.3759 -0.8781  0.3827
 2777TIP3   OH2 8336   1.513   1.855   2.650 -0.0358  0.1227  0.3053
 2777TIP3    H1 8337   1.524   1.944   2.616 -0.6104  0.2800  0.5292
 2777TIP3    H2 8338   1.435   1.821   2.606  0.4690 -0.4641 -0.1667
 2778TIP3   OH2 8339   0.948   1.860   4.970 -0.1599  0.2197 -0.3627
 2778TIP3    H1 8340   0.961   1.773   5.007  1.7430 -0.2585 -2.0250
 2778TIP3    H2 8341   0.926   1.844   4.878 -0.2032  1.4944 -0.5906
 2779TIP3   OH2 8342   1.695   2.732   2.903 -0.0880 -0.1085  0.2062
 2779TIP3    H1 8343   1.672   2.668   2.836 -0.5919 -1.0011  1.2120
 2779TIP3    H2 8344   1.659   2.815   2.870  0.2228 -0.4037 -0.9131
 2780TIP3   OH2 8345   2.744   3.835   4.729  0.3965 -0.1779  0.2127
 2780TIP3    H1 8346   2.703   3.818   4.643  0.2849 -2.1305  0.6011
 2780TIP3    H2 8347   2.797   3.913   4.715  0.7163 -0.6853 -1.7744
 2781TIP3   OH2 8348   2.125   3.437   0.798 -0.2558 -0.7412  0.5446
 2781TIP3    H1 8349   2.201   3.379   0.790  0.8404  0.6182  0.7166
 2781TIP3    H2 8350   2.093   3.447   0.709  1.6851  1.0992 -0.0170
 2782TIP3   OH2 8351   5.340   5.600   3.835 -0.3851 -0.3545 -0.1759
 2782TIP3    H1 8352   5.356   5.562   3.749  1.8481  0.1369 -0.0448
 2782TIP3    H2 8353   5.303   5.529   3.887  0.0482 -1.2046 -1.0072
 2783TIP3   OH2 8354   4.372   2.688   2.620 -0.0757  0.6093  0.2078
 2783TIP3    H1 8355   4.328   2.624   2.676 -0.8225  2.2355  1.5716
 2783TIP3    H2 8356   4.463   2.689   2.650  0.5144 -1.3295 -1.2960
 2784TIP3   OH2 8357   0.707   1.153   0.567  0.1654 -0.0455  0.4234
 2784TIP3    H1 8358   0.633   1.193   0.521 -0.1562  0.6911  1.5406
 2784TIP3    H2 8359   0.666   1.099   0.635  0.6346 -0.7817  0.1296
 2785TIP3   OH2 8360   1.237   4.534   3.343 -0.1371  0.3110 -0.0958
 2785TIP3    H1 8361   1.270   4.446   3.361 -1.0605 -0.3850 -1.5940
 2785TIP3    H2 8362   1.290   4.565   3.270 -0.3543  0.6835 -0.0981
 2786TIP3   OH2 8363   4.304   5.075   3.670 -0.0008  0.1406  0.2268
 2786TIP3    H1 8364   4.265   5.127   3.739  0.1811  1.5798 -0.7266
 2786TIP3    H2 8365   4.232   5.056   3.609  0.1487  0.1499  0.0460
 2787TIP3   OH2 8366   6.339   2.772   2.201 -0.0186 -0.0621  0.9754
 2787TIP3    H1 8367   6.323   2.840   2.267 -0.4948  0.3395  0.4666
 2787TIP3    H2 8368   6.261   2.775   2.146  0.2119 -0.6432  0.6140
 2788TIP3   OH2 8369   1.740   5.489   3.386  0.7411 -0.6538 -0.1785
 2788TIP3    H1 8370   1.722   5.398   3.408 -0.5928 -0.8244 -1.7394
 2788TIP3    H2 8371   1.797   5.484   3.309  1.3741 -0.1515  0.2474
 2789TIP3   OH2 8372   2.041   4.542   1.586 -0.3785 -0.0781  0.4582
 2789TIP3    H1 8373   1.972   4.604   1.563 -0.2993 -0.0464  0.3038
 2789TIP3    H2 8374   2.045   4.545   1.681  0.3431  0.9523  0.4187
 2790TIP3   OH2 8375   1.199   3.935   2.762  0.2111  0.2854  0.1288
 2790TIP3    H1 8376   1.219   3.854   2.809  0.6636  0.2319 -0.1519
 2790TIP3    H2 8377   1.179   3.906   2.673  0.3041  0.4785  0.0452
 2791TIP3   OH2 8378   3.012   1.242   1.488 -0.3437  0.1626  0.1301
 2791TIP3    H1 8379   2.938   1.276   1.438  0.4251 -0.0471 -1.2023
 2791TIP3    H2 8380   2.992   1.150   1.502  0.4639 -0.3649 -1.8537
 2792TIP3   OH2 8381   1.838   1.565   4.879 -0.2120  0.1109  0.0015
 2792TIP3    H1 8382   1.803   1.605   4.959 -0.4689  0.1974 -0.1519
 2792TIP3    H2 8383   1.832   1.634   4.813  0.7327  0.2867  0.0931
 2793TIP3   OH2 8384   5.334   4.142   2.549 -0.3395 -0.4630  0.1680
 2793TIP3    H1 8385   5.338   4.135   2.453 -1.1605 -0.8565  0.1562
 2793TIP3    H2 8386   5.418   4.105   2.578 -0.0753 -0.3312 -0.3997
 2794TIP3   OH2 8387   0.983   4.650   2.236 -0.0990 -0.4522 -0.0182
 2794TIP3    H1 8388   0.963   4.716   2.170  3.0732 -0.4287 -1.1025
 2794TIP3    H2 8389   0.992   4.569   2.187  0.5809 -0.7799  0.6316
 2795TIP3   OH2 8390   1.080   0.880   1.754  0.1706 -0.0799 -0.3117
 2795TIP3    H1 8391   1.147   0.819   1.722  0.8798  1.0913 -1.1417
 2795TIP3    H2 8392   0.997   0.834   1.740  0.7059 -0.9660 -0.6526
 2796TIP3   OH2 8393   3.383   4.737   3.557 -0.1485  0.4437  0.0716
 2796TIP3    H1 8394   3.318   4.700   3.617 -0.0400  0.0813 -0.0311
 2796TIP3    H2 8395   3.439   4.663   3.534 -1.4876  0.0533 -2.2217
 2797TIP3   OH2 8396   3.696   0.733   4.069 -0.5116 -0.7188 -0.0737
 2797TIP3    H1 8397   3.614   0.733   4.019 -0.4872  0.1622 -0.1344
 2797TIP3    H2 8398   3.682   0.799   4.137  1.0762  1.4322 -1.6936
 2798TIP3   OH2 8399   0.772   0.778   0.806  0.5430 -0.6170  1.0133
 2798TIP3    H1 8400   0.717   0.774   0.728  0.2456  0.9697  1.1144
 2798TIP3    H2 8401   0.723   0.728   0.872 -0.4078  0.1014  0.8706
 2799TIP3   OH2 8402   2.748   5.630   2.105 -0.2044 -0.0218 -0.0180
 2799TIP3    H1 8403   2.704   5.564   2.159 -1.1280  0.4693 -0.1524
 2799TIP3    H2 8404   2.679   5.665   2.049  0.7748 -0.6585 -1.6863
 2800TIP3   OH2 8405   6.205   3.791   2.600  0.1717  0.0905  0.2403
 2800TIP3    H1 8406   6.177   3.837   2.521  0.3963 -0.5503 -0.2203
 2800TIP3    H2 8407   6.161   3.707   2.597 -1.0786  0.6459  1.6224
 2801TIP3   OH2 8408   1.223   5.966   2.383  0.3325  0.4887 -0.8949
 2801TIP3    H1 8409   1.277   5.923   2.316  1.1422  0.0376  0.0271
 2801TIP3    H2 8410   1.270   6.047   2.403  0.1940  0.5283 -0.7297
 2802TIP3   OH2 8411   5.518   1.348   4.734  0.0168 -0.2009  0.2057
 2802TIP3    H1 8412   5.468   1.392   4.803 -0.3649 -1.8021  1.0073
 2802TIP3    H2 8413   5.532   1.415   4.667 -2.0351  0.6477  0.5752
 2803TIP3   OH2 8414   6.132   5.705   3.278 -0.0635  0.0737 -0.2183
 2803TIP3    H1 8415   6.073   5.629   3.278 -0.7187  0.5730 -0.5164
 2803TIP3    H2 8416   6.170   5.705   3.190  1.3376 -0.9572  0.3498
 2804TIP3   OH2 8417   3.752   5.819   0.293 -0.7155  0.0335  0.2985
 2804TIP3    H1 8418   3.815   5.754   0.323 -0.7784  0.7944  2.2378
 2804TIP3    H2 8419   3.777   5.837   0.202  1.8013  0.2299  0.9539
 2805TIP3   OH2 8420   3.936   2.280   0.330 -0.9339  0.1800 -0.3345
 2805TIP3    H1 8421   3.999   2.214   0.360 -2.6128 -0.7329  1.3546
 2805TIP3    H2 8422   3.954   2.357   0.383  1.3292  1.3661 -2.6167
 2806TIP3   OH2 8423   3.555   4.434   4.961 -0.0808  0.2369  0.3415
 2806TIP3    H1 8424   3.463   4.410   4.971  0.4006 -1.5267  0.9790
 2806TIP3    H2 8425   3.599   4.351   4.942  1.4711  0.9335  0.7596
 2807TIP3   OH2 8426   2.908   5.206   4.139 -0.1758 -0.2544  0.0468
 2807TIP3    H1 8427   3.002   5.189   4.147 -0.0454  0.5300  0.2615
 2807TIP3    H2 8428   2.876   5.136   4.082  0.2294 -1.5205  1.3021
 2808TIP3   OH2 8429   1.999   1.502   3.127  0.0824 -0.4252  0.7413
 2808TIP3    H1 8430   2.025   1.457   3.046  0.5499  0.6289  0.2903
 2808TIP3    H2 8431   2.017   1.594   3.110 -2.9215  0.2842  0.7873
 2809TIP3   OH2 8432   3.615   3.002   1.083  0.1982 -0.6108  0.1586
 2809TIP3    H1 8433   3.648   2.960   1.004  0.8339 -0.3790  0.2975
 2809TIP3    H2 8434   3.520   2.986   1.081 -0.2097  1.4408 -1.9263
 2810TIP3   OH2 8435   3.439   3.183   1.277 -0.5107  0.9314 -1.1249
 2810TIP3    H1 8436   3.388   3.261   1.298 -0.3982  1.1681 -1.7199
 2810TIP3    H2 8437   3.433   3.174   1.182  0.4380  0.8950 -1.1985
 2811TIP3   OH2 8438   5.693   2.529   0.633 -0.2181 -0.1528 -0.3111
 2811TIP3    H1 8439   5.696   2.616   0.593 -0.2299 -0.5108 -1.1213
 2811TIP3    H2 8440   5.605   2.497   0.613  0.6471 -1.4258 -2.4279
 2812TIP3   OH2 8441   5.329   5.722   2.309 -0.7722 -0.5092  0.5289
 2812TIP3    H1 8442   5.363   5.766   2.232 -1.1646  0.4578  0.8943
 2812TIP3    H2 8443   5.281   5.647   2.275 -0.2999 -0.5275 -0.1133
 2813TIP3   OH2 8444   0.512   2.662   3.822 -0.0619 -0.2702 -0.2800
 2813TIP3    H1 8445   0.432   2.697   3.783 -0.1256 -1.2389 -1.0723
 2813TIP3    H2 8446   0.544   2.598   3.758  1.0690 -0.2740  0.2589
 2814TIP3   OH2 8447   2.398   4.164   2.549  0.4819  0.3246  0.0386
 2814TIP3    H1 8448   2.308   4.135   2.537  0.8199  0.0400 -2.2595
 2814TIP3    H2 8449   2.440   4.092   2.595 -0.2018 -0.0421  0.1015
 2815TIP3   OH2 8450   4.779   4.315   4.706 -0.5190 -0.3270 -0.0304
 2815TIP3    H1 8451   4.832   4.389   4.735 -0.5737  0.8043 -2.5438
 2815TIP3    H2 8452   4.838   4.239   4.713 -0.2437  0.0098  1.9230
 2816TIP3   OH2 8453   2.177   0.886   3.144 -0.3058 -0.3031 -0.5240
 2816TIP3    H1 8454   2.119   0.936   3.087  0.8888  0.6961 -0.8780
 2816TIP3    H2 8455   2.186   0.940   3.223  1.6405  0.4707 -1.2364
 2817TIP3   OH2 8456   4.813   4.519   3.800  0.4087 -0.6161 -0.0260
 2817TIP3    H1 8457   4.782   4.610   3.804  1.8973 -0.0162 -1.2344
 2817TIP3    H2 8458   4.904   4.526   3.770  0.3861 -2.5444 -0.6416
 2818TIP3   OH2 8459   0.740   5.843   2.593  0.0778  0.4623  0.2791
 2818TIP3    H1 8460   0.681   5.880   2.659 -2.3048  0.9154 -1.9676
 2818TIP3    H2 8461   0.802   5.914   2.575  0.1038  0.6986  1.2183
 2819TIP3   OH2 8462   5.060   1.835   1.848 -0.1050  0.4064 -0.2143
 2819TIP3    H1 8463   5.037   1.802   1.762 -4.1087 -1.6892  1.3773
 2819TIP3    H2 8464   4.979   1.872   1.883  1.4759  1.7335  2.4702
 2820TIP3   OH2 8465   4.113   1.165   3.695  0.3563 -0.2389 -0.2767
 2820TIP3    H1 8466   4.201   1.131   3.710  0.3364  0.8233  3.1657
 2820TIP3    H2 8467   4.126   1.259   3.683 -0.1773 -0.3657 -2.1119
 2821TIP3   OH2 8468   2.057   4.024   0.033  0.3551  0.5452 -1.0029
 2821TIP3    H1 8469   2.077   4.106  -0.012 -0.1802 -0.4001 -3.0779
 2821TIP3    H2 8470   2.109   3.958  -0.014 -0.9395 -0.6254 -0.8428
 2822TIP3   OH2 8471   1.427   5.443   5.110  0.0537 -0.2493 -0.2956
 2822TIP3    H1 8472   1.337   5.466   5.086 -0.3546 -1.3927  0.0447
 2822TIP3    H2 8473   1.476   5.525   5.106 -1.4249  0.7972  1.4452
 2823TIP3   OH2 8474   2.409   5.831   0.859 -0.0016  0.0067  0.2202
 2823TIP3    H1 8475   2.330   5.853   0.810 -0.2911 -1.3664  0.0387
 2823TIP3    H2 8476   2.445   5.755   0.814  1.1677  0.3190  0.5900
 2824TIP3   OH2 8477   2.060   3.888   3.200 -0.1712  0.4150  0.5360
 2824TIP3    H1 8478   1.967   3.879   3.182  0.2798 -0.2201 -1.7883
 2824TIP3    H2 8479   2.074   3.981   3.213 -0.9498  0.6645 -0.3507
 2825TIP3   OH2 8480   3.609   0.725   2.789 -0.3969  0.1540 -0.6049
 2825TIP3    H1 8481   3.663   0.779   2.732  1.0787 -1.5825 -0.9456
 2825TIP3    H2 8482   3.642   0.742   2.877 -0.1334  0.0249 -0.6781
 2826TIP3   OH2 8483   2.904   1.994   2.972  0.1812 -0.7401 -0.1219
 2826TIP3    H1 8484   2.989   1.955   2.993  0.9680  0.1489 -1.4679
 2826TIP3    H2 8485   2.880   1.954   2.888  0.0414  0.1538 -0.5191
 2827TIP3   OH2 8486   1.340   1.648   5.009  0.2397 -0.2734 -0.0647
 2827TIP3    H1 8487   1.390   1.594   5.070 -0.6144  0.5041  1.3674
 2827TIP3    H2 8488   1.396   1.723   4.992 -0.7247  1.0908  2.3140
 2828TIP3   OH2 8489   0.939   2.774   2.549 -0.6541  0.2943 -0.0955
 2828TIP3    H1 8490   1.001   2.845   2.536 -0.5413  0.4083  0.9792
 2828TIP3    H2 8491   0.972   2.703   2.495 -0.1244  0.6818 -0.2856
 2829TIP3   OH2 8492   4.821   3.258   1.515  0.1119 -0.4523 -0.6274
 2829TIP3    H1 8493   4.902   3.285   1.472  0.1330  2.3265  0.9256
 2829TIP3    H2 8494   4.838   3.269   1.608 -1.7193 -0.8062 -0.2143
 2830TIP3   OH2 8495   6.205   0.111   1.081  0.3599 -0.0465 -0.0378
 2830TIP3    H1 8496   6.288   0.153   1.057  0.5588 -0.3809  0.0635
 2830TIP3    H2 8497   6.208   0.026   1.036 -0.3218  0.3020 -0.7646
 2831TIP3   OH2 8498   0.373   3.037   2.501  0.2825 -0.0475  0.0249
 2831TIP3    H1 8499   0.286   3.004   2.523 -0.2232  1.3706  0.2192
 2831TIP3    H2 8500   0.388   3.007   2.411 -0.4058 -0.2875 -0.0097
 2832TIP3   OH2 8501   3.488   2.415   3.706  0.1221 -0.4606  0.4551
 2832TIP3    H1 8502   3.561   2.436   3.764 -0.7268  2.2103  0.7154
 2832TIP3    H2 8503   3.411   2.418   3.764 -0.6417  1.3993 -0.5583
 2833TIP3   OH2 8504   4.502   2.326   0.337 -0.2791 -0.2845 -0.3419
 2833TIP3    H1 8505   4.445   2.323   0.261 -0.0778  0.6826 -0.5370
 2833TIP3    H2 8506   4.505   2.235   0.368  2.2094 -1.4086 -3.3649
 2834TIP3   OH2 8507   5.038   4.341   3.900  0.8167  0.1228  0.8503
 2834TIP3    H1 8508   4.950   4.327   3.864  0.6712 -0.5517  1.4580
 2834TIP3    H2 8509   5.026   4.407   3.968  0.6030 -0.6660  1.5966
 2835TIP3   OH2 8510   1.184   3.069   4.760 -0.3384 -0.3733  0.4379
 2835TIP3    H1 8511   1.213   3.023   4.681 -2.3521  0.4382 -0.8524
 2835TIP3    H2 8512   1.159   2.998   4.820  0.5119 -0.9901  0.0947
 2836TIP3   OH2 8513   3.347   2.687   2.844 -0.3585 -0.2635 -0.2446
 2836TIP3    H1 8514   3.311   2.663   2.930  1.0966 -1.4414  0.0905
 2836TIP3    H2 8515   3.418   2.624   2.830 -0.0112  0.4545 -1.9395
 2837TIP3   OH2 8516   4.879   4.143   0.564  0.4425 -0.4878  0.2490
 2837TIP3    H1 8517   4.802   4.088   0.575  0.1335  0.0063  0.5817
 2837TIP3    H2 8518   4.931   4.128   0.642  1.7504 -2.4470 -0.9000
 2838TIP3   OH2 8519   2.233   0.033   1.535  0.5598  0.2083 -0.1201
 2838TIP3    H1 8520   2.307  -0.026   1.520  0.7657  0.2878  0.5711
 2838TIP3    H2 8521   2.200   0.052   1.447  1.7667  0.6885 -0.4863
 2839TIP3   OH2 8522   5.402   3.268   1.522 -0.0161 -0.8204 -0.2038
 2839TIP3    H1 8523   5.340   3.301   1.587 -1.1338 -0.5774 -1.3518
 2839TIP3    H2 8524   5.347   3.222   1.458  1.1268 -1.6585 -0.6048
 2840TIP3   OH2 8525   2.853   3.242   0.854 -0.7196  0.1127 -0.0714
 2840TIP3    H1 8526   2.936   3.221   0.812 -1.1279 -2.4624  0.2301
 2840TIP3    H2 8527   2.827   3.326   0.816  1.1311  0.1167 -1.4839
 2841TIP3   OH2 8528   1.792   2.689   5.091  0.0038  0.1836  0.0068
 2841TIP3    H1 8529   1.820   2.610   5.139  0.4525  0.4777  0.2336
 2841TIP3    H2 8530   1.783   2.756   5.158  1.0190  0.7065 -0.3532
 2842TIP3   OH2 8531   0.748   5.295   1.421 -0.2334 -0.3741  0.0019
 2842TIP3    H1 8532   0.777   5.204   1.411 -1.9020 -0.9601  0.1274
 2842TIP3    H2 8533   0.682   5.291   1.490 -1.4839  0.6495 -1.0839
 2843TIP3   OH2 8534   3.640   1.213   3.502 -0.0426 -0.2925 -0.5277
 2843TIP3    H1 8535   3.587   1.292   3.498  0.2599 -0.1407 -3.1137
 2843TIP3    H2 8536   3.586   1.151   3.552 -1.0598  0.9654 -0.0081
 2844TIP3   OH2 8537   2.384   0.487   1.962  0.5756 -0.0326  0.2771
 2844TIP3    H1 8538   2.409   0.432   1.889  1.7648 -0.4240  0.9568
 2844TIP3    H2 8539   2.291   0.504   1.948  0.5409 -0.9554 -0.7540
 2845TIP3   OH2 8540   4.939   0.461   3.943  0.3317 -0.4334 -0.2035
 2845TIP3    H1 8541   5.012   0.521   3.928 -0.3967  0.1245 -1.7184
 2845TIP3    H2 8542   4.908   0.483   4.032  1.0024  0.4191 -0.1634
 2846TIP3   OH2 8543   3.706   2.096   2.892 -0.3707  0.2533  0.0514
 2846TIP3    H1 8544   3.682   2.163   2.956  0.0996  0.7783 -0.3064
 2846TIP3    H2 8545   3.623   2.070   2.852 -0.5032  1.0809 -0.2403
 2847TIP3   OH2 8546   4.623   4.197   0.072 -0.7763  0.0398 -0.0351
 2847TIP3    H1 8547   4.647   4.289   0.078 -1.1895  0.1327  0.2194
 2847TIP3    H2 8548   4.680   4.153   0.135 -1.0377  0.2117  0.3199
 2848TIP3   OH2 8549   0.944   2.310   1.159  0.0690 -0.1091 -0.3191
 2848TIP3    H1 8550   0.890   2.234   1.138 -0.8591  0.5193 -0.2817
 2848TIP3    H2 8551   0.918   2.335   1.247  1.1819 -0.4205  0.1059
 2849TIP3   OH2 8552   0.656   0.179   0.035 -0.3784  0.4590  0.2348
 2849TIP3    H1 8553   0.647   0.242   0.106  0.6877  0.0799  0.7303
 2849TIP3    H2 8554   0.648   0.232  -0.045  1.4142  1.4282  0.6295
 2850TIP3   OH2 8555   2.229   2.901   0.535 -0.3209  0.3289  0.1614
 2850TIP3    H1 8556   2.290   2.828   0.533 -2.1009 -1.2388 -0.7162
 2850TIP3    H2 8557   2.244   2.947   0.453 -0.2216  0.0141 -0.0006
 2851TIP3   OH2 8558   3.731   3.396   0.567  0.1351 -0.5815  0.2947
 2851TIP3    H1 8559   3.675   3.470   0.589  0.2241  0.0169 -1.3854
 2851TIP3    H2 8560   3.714   3.332   0.636 -1.2170  0.3210  0.8372
 2852TIP3   OH2 8561   6.090   3.853   1.680  0.6238 -0.0371  0.1051
 2852TIP3    H1 8562   6.056   3.936   1.713 -1.7505 -1.5974  1.9540
 2852TIP3    H2 8563   6.021   3.820   1.623  1.4110 -0.9027 -0.3677
 2853TIP3   OH2 8564   1.067   2.463   4.860 -0.6889  0.0060  0.4085
 2853TIP3    H1 8565   1.128   2.390   4.847  0.6005  0.9183  1.0436
 2853TIP3    H2 8566   1.007   2.433   4.928  0.7609  0.0340  1.7588
 2854TIP3   OH2 8567   2.115   0.331   2.409  0.4059  0.0982 -0.9887
 2854TIP3    H1 8568   2.164   0.411   2.428  2.5926 -1.2542 -0.5286
 2854TIP3    H2 8569   2.138   0.272   2.480  0.1513 -1.4776 -2.1638
 2855TIP3   OH2 8570   1.070   0.405   4.224 -0.8857 -0.2085  0.4423
 2855TIP3    H1 8571   1.066   0.341   4.295 -0.6823  0.3771  0.9948
 2855TIP3    H2 8572   1.158   0.393   4.187 -0.9066 -0.3559  0.4381
 2856TIP3   OH2 8573   4.285   2.086   1.714 -0.3538  0.0511 -0.4480
 2856TIP3    H1 8574   4.309   2.122   1.799  0.2349  0.3974 -0.7608
 2856TIP3    H2 8575   4.220   2.018   1.735  0.2269 -0.2906  0.3263
 2857TIP3   OH2 8576   1.909   4.884   4.754  0.4138  0.6235  0.4667
 2857TIP3    H1 8577   1.978   4.881   4.686 -1.8200 -0.6399 -1.9070
 2857TIP3    H2 8578   1.838   4.934   4.713 -1.0607 -0.2621  1.8460
 2858TIP3   OH2 8579   3.233   4.940   2.533 -0.3492  0.4192 -0.1696
 2858TIP3    H1 8580   3.161   4.997   2.562 -0.1406  0.5117  0.1788
 2858TIP3    H2 8581   3.224   4.861   2.586  1.0477  1.2616  1.4237
 2859TIP3   OH2 8582   3.737   0.770   5.162 -0.8711  0.7522  0.0111
 2859TIP3    H1 8583   3.715   0.705   5.096  0.0901  0.5884 -0.1554
 2859TIP3    H2 8584   3.736   0.721   5.245 -2.2505  0.9951  0.1672
 2860TIP3   OH2 8585   5.589   5.583   4.515 -0.6316 -0.9155 -0.0620
 2860TIP3    H1 8586   5.584   5.666   4.468  0.6029 -0.4921  0.5105
 2860TIP3    H2 8587   5.595   5.608   4.607 -1.7426 -1.6971  0.2354
 2861TIP3   OH2 8588   1.075   4.522   0.412  0.5260  0.5591  0.6215
 2861TIP3    H1 8589   1.080   4.445   0.469 -1.5878 -0.6822 -0.7420
 2861TIP3    H2 8590   1.109   4.492   0.328 -2.2426  0.3701 -0.5297
 2862TIP3   OH2 8591   4.987   5.685   4.575 -0.9308 -0.1793  0.0523
 2862TIP3    H1 8592   5.034   5.618   4.624 -1.5210  0.4571  1.5577
 2862TIP3    H2 8593   4.895   5.659   4.581 -1.1328  0.5830  0.3966
 2863TIP3   OH2 8594   4.609   4.086   4.143 -0.2391 -0.2932 -0.0332
 2863TIP3    H1 8595   4.676   4.103   4.077 -0.7420 -0.0581 -0.4928
 2863TIP3    H2 8596   4.538   4.147   4.121 -1.4588 -1.9054 -0.7872
 2864TIP3   OH2 8597   2.678   2.899   3.397  0.2411  0.3791 -0.1844
 2864TIP3    H1 8598   2.705   2.822   3.347  1.3870  0.7069 -0.1015
 2864TIP3    H2 8599   2.589   2.917   3.368  0.5431 -0.0081 -1.4009
 2865TIP3   OH2 8600   2.782   2.264   0.719 -0.3672  0.6990  0.0042
 2865TIP3    H1 8601   2.809   2.309   0.799 -0.3487  0.6601  0.0198
 2865TIP3    H2 8602   2.764   2.174   0.747  3.1040 -0.3389 -0.6418
 2866TIP3   OH2 8603   5.013   2.195   3.874 -0.0791 -0.5799  0.4097
 2866TIP3    H1 8604   5.003   2.287   3.850  0.2464 -0.7004 -0.2017
 2866TIP3    H2 8605   4.990   2.146   3.795 -0.6207 -1.0431  0.8415
 2867TIP3   OH2 8606   0.146   3.227   1.595  0.0526 -0.3689  0.7362
 2867TIP3    H1 8607   0.129   3.310   1.552 -1.1542 -1.8119 -1.7818
 2867TIP3    H2 8608   0.096   3.231   1.676  1.7109  2.1019  1.7607
 2868TIP3   OH2 8609   4.328   3.085   2.172 -0.0288  0.3132  0.1046
 2868TIP3    H1 8610   4.330   3.023   2.245 -1.0022  1.2813  0.9891
 2868TIP3    H2 8611   4.376   3.162   2.204  0.4283  0.3605 -0.6648
 2869TIP3   OH2 8612   5.092   0.895   3.486  0.1202  0.6737 -0.0506
 2869TIP3    H1 8613   5.162   0.839   3.520  0.1526  0.9269  0.2963
 2869TIP3    H2 8614   5.137   0.968   3.443  0.0872  1.8883  1.8799
 2870TIP3   OH2 8615   5.244   1.506   1.833  0.5850 -0.1386 -0.3725
 2870TIP3    H1 8616   5.171   1.521   1.893  1.0806 -0.3645  0.3010
 2870TIP3    H2 8617   5.203   1.498   1.747 -0.3418 -1.8184  0.1848
 2871TIP3   OH2 8618   0.506   4.030   5.146  0.1054 -0.1983 -0.4707
 2871TIP3    H1 8619   0.422   4.036   5.192  0.5997  2.4246  0.2719
 2871TIP3    H2 8620   0.572   4.028   5.216  0.7246 -1.4193 -1.0561
 2872TIP3   OH2 8621   3.178   0.617   4.443  0.1961  0.2861  0.1670
 2872TIP3    H1 8622   3.104   0.638   4.500  1.2429 -0.7365  1.9908
 2872TIP3    H2 8623   3.251   0.667   4.480  0.7684  0.1012 -0.6804
 2873TIP3   OH2 8624   4.975   4.247   2.254 -1.0673 -0.1847  0.1516
 2873TIP3    H1 8625   5.016   4.332   2.264  0.0344 -0.6824  0.0365
 2873TIP3    H2 8626   5.048   4.184   2.260 -1.4938 -0.9880 -2.1106
 2874TIP3   OH2 8627   2.763   0.111   3.539 -0.5476  0.3875  0.1291
 2874TIP3    H1 8628   2.690   0.064   3.497 -0.5964 -0.2933  0.9576
 2874TIP3    H2 8629   2.752   0.094   3.632  0.9664 -0.1539  0.2314
 2875TIP3   OH2 8630   5.316   2.787   2.374  0.4340 -0.0611  0.2474
 2875TIP3    H1 8631   5.358   2.873   2.372 -1.7679  1.0943 -2.2269
 2875TIP3    H2 8632   5.242   2.798   2.433 -0.5643  0.1713 -1.0086
 2876TIP3   OH2 8633   3.553   0.361   1.141  0.5911  0.3963 -0.1145
 2876TIP3    H1 8634   3.516   0.434   1.091  0.1650 -0.3256 -0.8714
 2876TIP3    H2 8635   3.576   0.399   1.226 -0.2804  1.2498 -0.2514
 2877TIP3   OH2 8636   0.600   5.466   0.287 -0.2343  0.0629  0.1377
 2877TIP3    H1 8637   0.548   5.455   0.208  3.1540  0.2037 -2.3307
 2877TIP3    H2 8638   0.615   5.560   0.293  1.3288 -0.1193 -0.4150
 2878TIP3   OH2 8639   0.092   4.047   0.168  0.4416 -0.5353  0.1269
 2878TIP3    H1 8640   0.093   3.981   0.098 -1.8326 -0.7355  0.2179
 2878TIP3    H2 8641   0.069   3.998   0.247  1.5398 -0.0665  0.7542
 2879TIP3   OH2 8642   0.100   2.380   3.873 -0.1364 -1.0692  0.4650
 2879TIP3    H1 8643   0.065   2.459   3.833 -1.4221 -1.6687  0.3180
 2879TIP3    H2 8644   0.126   2.407   3.961  0.8708 -0.1725 -0.0893
 2880TIP3   OH2 8645   2.246   0.067   3.144 -0.0490 -0.0300  0.0595
 2880TIP3    H1 8646   2.314   0.099   3.204  1.4827  0.1963 -1.7179
 2880TIP3    H2 8647   2.280  -0.016   3.111 -0.7163  0.0142 -0.7489
 2881TIP3   OH2 8648   0.979   4.999   2.991 -0.3404 -0.3254 -0.8199
 2881TIP3    H1 8649   0.915   5.004   3.062  0.4601  0.8763 -0.1434
 2881TIP3    H2 8650   0.964   4.914   2.950 -1.2050 -0.7865  0.4196
 2882TIP3   OH2 8651   5.604   1.423   0.931 -0.7346 -0.3525  0.3376
 2882TIP3    H1 8652   5.604   1.462   1.019  0.4421  0.1567  0.1392
 2882TIP3    H2 8653   5.692   1.386   0.921 -0.8686 -0.4526 -0.6003
 2883TIP3   OH2 8654   3.570   3.724   4.050 -0.3900  0.1802 -0.4748
 2883TIP3    H1 8655   3.638   3.766   3.998  0.2612  1.4585  1.3309
 2883TIP3    H2 8656   3.559   3.638   4.009  0.3678  0.9473 -2.4357
 2884TIP3   OH2 8657   1.631   4.142   0.974  0.3556  0.1000 -0.0462
 2884TIP3    H1 8658   1.662   4.108   1.058  0.5086  1.9309  0.6668
 2884TIP3    H2 8659   1.583   4.068   0.936 -0.4657 -0.5166  2.0169
 2885TIP3   OH2 8660   2.196   0.474   4.480  0.2836  0.0074 -0.1387
 2885TIP3    H1 8661   2.154   0.554   4.450  2.4624  0.6154 -1.8209
 2885TIP3    H2 8662   2.195   0.416   4.404  2.6548  0.1878 -0.4101
 2886TIP3   OH2 8663   4.014   2.207   4.052 -0.4070 -0.3642  0.6494
 2886TIP3    H1 8664   3.977   2.238   4.134 -1.5926  0.2222 -0.0927
 2886TIP3    H2 8665   3.978   2.265   3.985 -1.1198 -2.1073 -0.5420
 2887TIP3   OH2 8666   3.639   1.510   0.200 -0.0058  0.2514 -0.0819
 2887TIP3    H1 8667   3.706   1.464   0.149  1.1014 -0.0304  1.5546
 2887TIP3    H2 8668   3.662   1.493   0.291 -2.3461  0.1222  0.5469
 2888TIP3   OH2 8669   2.403   2.558   3.976 -0.4247  0.1104 -0.1220
 2888TIP3    H1 8670   2.445   2.582   4.059  2.7681 -0.2406 -1.4679
 2888TIP3    H2 8671   2.395   2.641   3.929  0.0244  0.0135 -0.3755
 2889TIP3   OH2 8672   2.096   5.794   3.524 -0.0678  0.1522  0.1006
 2889TIP3    H1 8673   2.180   5.775   3.566  0.9920  1.3619 -1.3592
 2889TIP3    H2 8674   2.034   5.800   3.596  1.6510  2.1245  1.5374
 2890TIP3   OH2 8675   2.770   4.706   0.127 -0.6531  0.0660 -0.0001
 2890TIP3    H1 8676   2.710   4.702   0.201  0.1082 -0.9987  0.5780
 2890TIP3    H2 8677   2.817   4.789   0.139 -1.6422  0.6714 -0.1946
 2891TIP3   OH2 8678   5.908   2.809   1.799  0.0216 -0.1817 -0.4739
 2891TIP3    H1 8679   5.816   2.810   1.772  0.2886 -0.2761 -1.4261
 2891TIP3    H2 8680   5.955   2.848   1.726  0.6043  1.1780  0.5834
 2892TIP3   OH2 8681   4.332   3.369   3.071 -0.4950 -0.2207  0.3081
 2892TIP3    H1 8682   4.382   3.379   3.153 -0.1615 -1.6292  0.3086
 2892TIP3    H2 8683   4.271   3.298   3.089  0.2714 -1.2410 -0.9743
 2893TIP3   OH2 8684   4.711   0.562   2.564 -0.2117 -0.6327 -0.4696
 2893TIP3    H1 8685   4.749   0.475   2.550  0.1883 -0.4217 -0.7044
 2893TIP3    H2 8686   4.695   0.566   2.659 -1.9344 -1.6548 -0.6753
 2894TIP3   OH2 8687   4.683   0.976   5.181  0.2926 -0.7013  0.1855
 2894TIP3    H1 8688   4.678   1.072   5.176  0.7225 -0.6126  1.1758
 2894TIP3    H2 8689   4.648   0.946   5.097  1.6862  0.3624 -0.8317
 2895TIP3   OH2 8690   0.933   3.416   1.937  0.5446 -0.1321  0.1337
 2895TIP3    H1 8691   0.844   3.425   1.972 -0.0751  1.1682 -1.5808
 2895TIP3    H2 8692   0.932   3.334   1.888 -0.1576  0.4799 -0.9314
 2896TIP3   OH2 8693   3.671   0.451   2.768 -0.3005 -0.0645 -0.0848
 2896TIP3    H1 8694   3.766   0.447   2.755 -0.0224  0.7233  1.4810
 2896TIP3    H2 8695   3.652   0.544   2.781 -1.5382 -0.0228 -1.8715
 2897TIP3   OH2 8696   1.804   3.329   4.358 -0.7304 -0.3184 -0.2178
 2897TIP3    H1 8697   1.819   3.422   4.374 -1.1229  0.1845 -2.4680
 2897TIP3    H2 8698   1.717   3.313   4.395 -1.3872  0.6530 -1.2524
 2898TIP3   OH2 8699   4.690   1.462   2.128  0.2340 -0.0200 -0.3746
 2898TIP3    H1 8700   4.738   1.380   2.122  0.8909  0.1777  1.6224
 2898TIP3    H2 8701   4.630   1.450   2.202 -1.5834  0.3765 -1.7123
 2899TIP3   OH2 8702   5.774   2.553   4.528  0.6808 -0.2465 -0.2270
 2899TIP3    H1 8703   5.794   2.475   4.580  0.1092 -0.0266  0.3299
 2899TIP3    H2 8704   5.812   2.534   4.442  1.1375 -0.8524  0.0978
 2900TIP3   OH2 8705   2.351   4.257   4.166 -0.6264 -0.5653 -0.0882
 2900TIP3    H1 8706   2.298   4.211   4.231 -0.5522 -0.0404  0.3537
 2900TIP3    H2 8707   2.422   4.196   4.144  0.4498 -0.0432  1.7505
 2901TIP3   OH2 8708   2.822   2.582   2.221  0.7246 -0.1024 -0.7793
 2901TIP3    H1 8709   2.890   2.601   2.285  0.3285  0.7320 -0.5989
 2901TIP3    H2 8710   2.869   2.544   2.146  1.6009  1.8682 -1.2809
 2902TIP3   OH2 8711   1.598   5.549   1.159  0.2429 -0.2377 -0.0068
 2902TIP3    H1 8712   1.653   5.541   1.236  1.0366  1.0473 -0.4025
 2902TIP3    H2 8713   1.652   5.596   1.095 -0.5585 -0.8288 -1.1761
 2903TIP3   OH2 8714   2.273   5.368   2.483  0.4501  0.1150 -0.1575
 2903TIP3    H1 8715   2.274   5.411   2.398 -0.6262 -1.5350 -1.0390
 2903TIP3    H2 8716   2.220   5.290   2.471 -1.2943  0.7636  2.4931
 2904TIP3   OH2 8717   3.252   0.331   0.775  0.4003 -0.2716  0.1471
 2904TIP3    H1 8718   3.343   0.316   0.801  0.8822  0.3645 -1.1402
 2904TIP3    H2 8719   3.245   0.426   0.765 -0.5809 -0.2573  0.8136
 2905TIP3   OH2 8720   6.178   4.257   1.289 -0.1077  0.0081 -0.4354
 2905TIP3    H1 8721   6.168   4.229   1.198  1.2132 -2.3827  0.0841
 2905TIP3    H2 8722   6.088   4.262   1.322 -0.6397  1.5611 -2.0119
 2906TIP3   OH2 8723   2.800   5.073   2.514 -0.0761  0.5585  0.1416
 2906TIP3    H1 8724   2.764   5.064   2.602  0.1435  0.0662  0.1856
 2906TIP3    H2 8725   2.806   5.167   2.500  0.0357  0.6411  0.7142
 2907TIP3   OH2 8726   1.610   1.208   1.019  0.0018 -0.3918 -0.2773
 2907TIP3    H1 8727   1.590   1.145   0.949 -2.1756  0.4818 -0.5127
 2907TIP3    H2 8728   1.672   1.269   0.979 -0.1979 -0.6536 -1.0171
 2908TIP3   OH2 8729   5.035   3.538   0.361  0.6916 -0.1075  0.1082
 2908TIP3    H1 8730   5.079   3.454   0.347  1.9451 -0.1549  3.3354
 2908TIP3    H2 8731   5.065   3.566   0.448 -1.0543  2.8519 -0.1106
 2909TIP3   OH2 8732   0.921   0.402   0.783  0.4778 -0.0927 -0.2844
 2909TIP3    H1 8733   0.848   0.426   0.840 -0.2025 -1.6986 -0.4084
 2909TIP3    H2 8734   0.993   0.459   0.810 -0.4450  0.6274  0.7355
 2910TIP3   OH2 8735   4.599   3.576   0.658 -0.4273 -0.0485 -0.0887
 2910TIP3    H1 8736   4.555   3.604   0.738  0.4250 -0.2807  0.4739
 2910TIP3    H2 8737   4.657   3.504   0.685 -1.1806 -1.1021 -1.1727
 2911TIP3   OH2 8738   3.093   4.553   3.437  0.0015  0.1344 -0.5599
 2911TIP3    H1 8739   3.100   4.462   3.410 -0.5419 -0.3088  0.6997
 2911TIP3    H2 8740   3.165   4.565   3.499  0.2303  0.6386 -0.9166
 2912TIP3   OH2 8741   2.172   0.883   1.077 -0.7315 -0.4345  0.4162
 2912TIP3    H1 8742   2.232   0.887   1.003 -1.3887  0.2268 -0.0938
 2912TIP3    H2 8743   2.137   0.794   1.076 -2.4029  0.1699 -1.4413
 2913TIP3   OH2 8744   0.209   2.047   2.613  0.2607 -0.2270  0.5944
 2913TIP3    H1 8745   0.297   2.021   2.640  0.7164 -0.5012 -1.0219
 2913TIP3    H2 8746   0.151   1.984   2.656  0.7277  0.5863  2.5112
 2914TIP3   OH2 8747   2.337   0.011   0.083  0.4295  0.2204 -0.2797
 2914TIP3    H1 8748   2.244   0.006   0.061  0.2814  1.2405  0.0530
 2914TIP3    H2 8749   2.367   0.090   0.039  0.3091  1.8884  2.4311
 2915TIP3   OH2 8750   4.512   4.360   1.157 -0.0346 -0.2331  0.2846
 2915TIP3    H1 8751   4.448   4.324   1.095  0.8569 -0.9728 -0.2300
 2915TIP3    H2 8752   4.496   4.455   1.155 -0.3196 -0.2882 -0.7448
 2916TIP3   OH2 8753   1.650   1.119   4.756 -0.6585  0.1701 -0.4475
 2916TIP3    H1 8754   1.602   1.200   4.739 -1.0992  0.1975  0.8018
 2916TIP3    H2 8755   1.677   1.127   4.848  1.2805 -0.0881 -0.9600
 2917TIP3   OH2 8756   0.627   2.154   1.069 -0.2657 -0.1920  0.4113
 2917TIP3    H1 8757   0.648   2.094   1.141 -0.8545 -0.7331  0.1330
 2917TIP3    H2 8758   0.532   2.164   1.073 -0.3204 -0.3355 -0.3696
 2918TIP3   OH2 8759   3.468   3.950   0.467 -0.0009 -0.5797 -0.3100
 2918TIP3    H1 8760   3.482   3.855   0.473  1.5991 -0.4130 -0.8731
 2918TIP3    H2 8761   3.474   3.969   0.373  0.0332  0.1127 -0.1736
 2919TIP3   OH2 8762   3.050   2.597   0.828  0.1982 -0.0239 -0.1939
 2919TIP3    H1 8763   2.962   2.622   0.854  0.0256 -1.4024  0.6251
 2919TIP3    H2 8764   3.051   2.606   0.733 -1.2816 -1.3211 -0.3656
 2920TIP3   OH2 8765   6.355   1.678   5.141  0.1251 -0.6640 -0.4866
 2920TIP3    H1 8766   6.386   1.768   5.130 -0.8977 -0.1803  0.3895
 2920TIP3    H2 8767   6.269   1.688   5.182 -0.2322 -2.0279 -0.8609
 2921TIP3   OH2 8768   2.138   4.852   1.110  0.3942 -0.2322  0.1719
 2921TIP3    H1 8769   2.056   4.858   1.159  0.6634  0.2111  0.5736
 2921TIP3    H2 8770   2.152   4.941   1.076 -0.0279 -0.6283 -1.1084
 2922TIP3   OH2 8771   6.244   0.312   4.396 -0.0374  0.0553 -0.0537
 2922TIP3    H1 8772   6.231   0.372   4.323  1.8082  0.7562  0.1502
 2922TIP3    H2 8773   6.297   0.241   4.359  0.2423  0.0146  0.4202
 2923TIP3   OH2 8774   2.329   3.220   1.586  0.4016 -0.0211 -0.2118
 2923TIP3    H1 8775   2.237   3.221   1.612  0.3460  0.4120 -0.4119
 2923TIP3    H2 8776   2.370   3.287   1.640  0.1671  1.3237 -1.6109
 2924TIP3   OH2 8777   1.749   4.536   0.556  0.0998  0.4528 -0.3652
 2924TIP3    H1 8778   1.843   4.555   0.551  0.3346  0.0663  1.7655
 2924TIP3    H2 8779   1.709   4.600   0.496  1.6774  0.9279 -0.9610
 2925TIP3   OH2 8780   6.009   4.353   4.975 -0.3444  0.6935 -0.1762
 2925TIP3    H1 8781   5.971   4.294   5.039 -0.4777 -0.2157 -1.0580
 2925TIP3    H2 8782   6.080   4.398   5.021  0.9791 -1.4938  0.0653
 2926TIP3   OH2 8783   1.515   1.215   2.548 -0.2074  0.4431 -0.1323
 2926TIP3    H1 8784   1.462   1.178   2.477 -0.9016 -1.5726  1.3306
 2926TIP3    H2 8785   1.604   1.214   2.515 -0.3786 -1.4332 -0.6360
 2927TIP3   OH2 8786   1.334   5.133   4.242  0.3573 -0.7879 -0.0359
 2927TIP3    H1 8787   1.399   5.067   4.268  0.5752 -1.6756 -2.5769
 2927TIP3    H2 8788   1.384   5.197   4.191 -0.1518  0.5702  1.0858
 2928TIP3   OH2 8789   2.624   1.767   2.933 -0.3642  0.2587  0.1131
 2928TIP3    H1 8790   2.601   1.753   3.024 -0.3279 -0.6340 -0.0074
 2928TIP3    H2 8791   2.543   1.747   2.885 -0.4290  0.8756 -0.0426
 2929TIP3   OH2 8792   2.796   2.601   1.170 -0.8805 -0.1180  0.0526
 2929TIP3    H1 8793   2.796   2.688   1.208 -0.0817 -0.2380  0.3520
 2929TIP3    H2 8794   2.804   2.542   1.244 -2.0206 -0.4876 -0.0985
 2930TIP3   OH2 8795   4.794   5.359   3.694 -0.0628 -0.6623 -0.3852
 2930TIP3    H1 8796   4.740   5.382   3.769  0.5172  0.5472 -0.3205
 2930TIP3    H2 8797   4.737   5.307   3.638 -0.6322 -1.2049  0.6802
 2931TIP3   OH2 8798   3.686   0.565   1.924 -0.0663  0.0776  0.3336
 2931TIP3    H1 8799   3.732   0.571   2.007  0.5739  1.6062 -0.0922
 2931TIP3    H2 8800   3.754   0.547   1.859  0.1582  2.9280 -0.3822
 2932TIP3   OH2 8801   1.358   4.394   4.724  0.7822  0.0824 -0.2833
 2932TIP3    H1 8802   1.356   4.455   4.798  0.5335 -0.4985  0.2073
 2932TIP3    H2 8803   1.299   4.323   4.751  0.7102 -0.1476 -1.0354
 2933TIP3   OH2 8804   1.314   1.333   0.640  0.1803 -0.0454  0.3858
 2933TIP3    H1 8805   1.349   1.295   0.720 -0.2873 -1.1465  0.0970
 2933TIP3    H2 8806   1.282   1.257   0.590 -1.2697  0.7708  0.0009
 2934TIP3   OH2 8807   0.498   4.368   1.098 -0.4834  0.5070 -0.5229
 2934TIP3    H1 8808   0.458   4.452   1.078 -0.8979  1.1519  2.4600
 2934TIP3    H2 8809   0.432   4.303   1.074 -1.9686  1.3424  1.0689
 2935TIP3   OH2 8810   0.926   4.959   0.941  0.1744  0.5372  0.0175
 2935TIP3    H1 8811   0.877   5.014   1.002  0.5936  0.8241  0.0991
 2935TIP3    H2 8812   0.953   4.884   0.993 -0.3515  0.2768 -0.0801
 2936TIP3   OH2 8813   5.093   0.310   2.226 -0.9205 -0.2984 -0.4211
 2936TIP3    H1 8814   5.069   0.392   2.183 -1.0529  1.9834  3.5425
 2936TIP3    H2 8815   5.017   0.253   2.215 -1.9272  1.1096 -0.9989
 2937TIP3   OH2 8816   2.056   4.251   0.742 -0.2796  0.4256  0.1615
 2937TIP3    H1 8817   1.971   4.251   0.786 -0.7609  1.5705 -0.7326
 2937TIP3    H2 8818   2.116   4.289   0.806 -0.8442  1.4825  0.0789
 2938TIP3   OH2 8819   0.494   1.828   0.265 -0.3916  0.1797 -0.6804
 2938TIP3    H1 8820   0.539   1.758   0.313  1.2569 -0.4319 -2.9520
 2938TIP3    H2 8821   0.561   1.896   0.255 -1.1925  0.9577 -0.7849
 2939TIP3   OH2 8822   1.989   2.979   4.982  0.4737 -0.2460  0.7026
 2939TIP3    H1 8823   1.896   2.992   4.961  0.2842 -0.2689  1.4940
 2939TIP3    H2 8824   2.014   3.058   5.030  0.9524 -0.1028  0.2294
 2940TIP3   OH2 8825   4.162   2.151   0.508 -0.3519  0.0869  0.0005
 2940TIP3    H1 8826   4.161   2.246   0.500 -0.2237  0.2370  1.4554
 2940TIP3    H2 8827   4.156   2.135   0.603 -1.6714 -1.3704 -0.2805
 2941TIP3   OH2 8828   1.097   4.938   1.626  0.6621  0.0887  0.1118
 2941TIP3    H1 8829   1.125   5.021   1.666  0.5129  0.1035  0.1864
 2941TIP3    H2 8830   1.104   4.952   1.532  1.3045 -0.0425  0.1308
 2942TIP3   OH2 8831   0.638   1.262   3.142 -0.6498 -0.5987  0.1089
 2942TIP3    H1 8832   0.726   1.280   3.110 -0.1639 -0.4429  1.4630
 2942TIP3    H2 8833   0.586   1.336   3.111  0.1153  0.2777  0.8731
 2943TIP3   OH2 8834   2.438   0.763   0.886  0.3304  0.6276  0.6858
 2943TIP3    H1 8835   2.517   0.728   0.927  0.0138  0.3619  1.0752
 2943TIP3    H2 8836   2.375   0.691   0.890 -0.3694  1.2708  1.5966
 2944TIP3   OH2 8837   2.962   2.721   4.896 -0.7012 -0.2136  0.1650
 2944TIP3    H1 8838   3.006   2.672   4.827 -1.6713  0.2691 -0.8263
 2944TIP3    H2 8839   2.962   2.812   4.865 -1.0039  0.0418  0.8822
 2945TIP3   OH2 8840   1.671   3.808   4.693  0.2728 -0.7653 -0.0349
 2945TIP3    H1 8841   1.607   3.835   4.628 -0.1123 -2.7307 -0.5422
 2945TIP3    H2 8842   1.619   3.771   4.764  0.8005 -1.5610 -0.0492
 2946TIP3   OH2 8843   5.619   3.720   3.704  0.3891  0.9370  0.7657
 2946TIP3    H1 8844   5.693   3.774   3.730 -0.3152  1.7868  1.0378
 2946TIP3    H2 8845   5.548   3.747   3.760  0.0098 -0.2954  0.9183
 2947TIP3   OH2 8846   5.883   1.786   2.134 -0.7332  0.7358 -0.1375
 2947TIP3    H1 8847   5.788   1.785   2.122 -0.8893 -0.2036  1.0012
 2947TIP3    H2 8848   5.910   1.695   2.123 -0.0613  0.8754  0.2944
 2948TIP3   OH2 8849   1.327   1.780   0.589  0.4233 -0.5078 -0.6632
 2948TIP3    H1 8850   1.358   1.737   0.669  2.2057  0.4347 -0.7939
 2948TIP3    H2 8851   1.342   1.874   0.605  0.9187 -0.3148 -2.1170
 2949TIP3   OH2 8852   1.411   3.081   4.956  0.0904  0.3921  0.4996
 2949TIP3    H1 8853   1.372   3.111   4.873  1.0305  3.4035  1.0309
 2949TIP3    H2 8854   1.341   3.091   5.020  0.3497  1.3539  0.6436
 2950TIP3   OH2 8855   5.833   3.346   0.483 -0.6035 -0.6749  0.0848
 2950TIP3    H1 8856   5.832   3.267   0.537  0.0466  0.2839  1.5384
 2950TIP3    H2 8857   5.915   3.389   0.504 -0.6551  0.0876 -1.1616
 2951TIP3   OH2 8858   0.408   5.460   4.329  0.8259  0.7911  0.5205
 2951TIP3    H1 8859   0.351   5.534   4.308  1.4387  1.4080  0.9807
 2951TIP3    H2 8860   0.412   5.459   4.425  0.4133 -0.1611  0.5343
 2952TIP3   OH2 8861   2.801   4.536   3.415  0.2663  0.1098  0.0292
 2952TIP3    H1 8862   2.796   4.475   3.341  0.0969 -1.1196  1.0198
 2952TIP3    H2 8863   2.881   4.510   3.462 -0.5802 -0.3383  1.2749
 2953TIP3   OH2 8864   1.591   2.044   2.883 -0.1711  0.4548  0.1048
 2953TIP3    H1 8865   1.649   1.969   2.899 -0.4078 -0.3951 -2.5363
 2953TIP3    H2 8866   1.503   2.006   2.884 -0.3673  0.8920 -0.2374
 2954TIP3   OH2 8867   4.947   1.895   5.168 -0.4581  0.3157  0.0812
 2954TIP3    H1 8868   4.927   1.827   5.103 -0.8398  1.3942 -0.9616
 2954TIP3    H2 8869   4.984   1.967   5.117 -0.9884  1.2828  1.0116
 2955TIP3   OH2 8870   1.717   5.096   3.464 -0.0072  0.0182 -0.1520
 2955TIP3    H1 8871   1.674   5.084   3.380 -0.9386  1.1864  0.1386
 2955TIP3    H2 8872   1.702   5.012   3.510  0.6528 -0.6830 -1.1867
 2956TIP3   OH2 8873   3.185   2.140   2.926 -0.4894  0.5164  0.2897
 2956TIP3    H1 8874   3.109   2.096   2.889 -0.3459 -0.4840  1.1484
 2956TIP3    H2 8875   3.154   2.229   2.944 -1.4251  0.1644  0.4947
 2957TIP3   OH2 8876   1.063   2.897   4.528  0.4252 -0.4245 -0.2837
 2957TIP3    H1 8877   1.067   2.806   4.559 -2.4965 -0.5686 -0.0867
 2957TIP3    H2 8878   0.970   2.917   4.523  0.9702  2.7920  0.2091
 2958TIP3   OH2 8879   5.109   4.085   4.998 -0.3841  0.1877  0.6189
 2958TIP3    H1 8880   5.134   4.089   4.905 -1.9017  2.0114  0.2261
 2958TIP3    H2 8881   5.150   4.162   5.037 -1.3632  0.5315  1.0003
 2959TIP3   OH2 8882   3.037   4.718   1.287  0.2297 -0.2252  0.9547
 2959TIP3    H1 8883   3.118   4.677   1.257  1.3610  1.5048  1.4967
 2959TIP3    H2 8884   3.029   4.691   1.379 -0.5927 -1.5308  0.5217
 2960TIP3   OH2 8885   1.884   4.032   2.021 -0.3805  0.4875  0.1001
 2960TIP3    H1 8886   1.876   4.124   2.045  0.6434 -0.1618  3.4965
 2960TIP3    H2 8887   1.978   4.019   2.008 -0.2680 -0.3753  1.4921
 2961TIP3   OH2 8888   1.523   3.625   4.467 -0.6047 -0.3314 -0.0939
 2961TIP3    H1 8889   1.615   3.604   4.451  0.1449  1.9776  0.7434
 2961TIP3    H2 8890   1.486   3.545   4.505  1.0807 -1.2609 -0.3183
 2962TIP3   OH2 8891   3.774   2.494   1.535  0.1826  0.5942  0.2575
 2962TIP3    H1 8892   3.840   2.460   1.596  0.0337  0.8218  0.5498
 2962TIP3    H2 8893   3.746   2.577   1.575  0.0609  0.7286 -0.1069
 2963TIP3   OH2 8894   6.298   5.228   1.981 -0.6233 -0.1579  0.1240
 2963TIP3    H1 8895   6.374   5.245   2.036 -1.0688  1.7093  0.2230
 2963TIP3    H2 8896   6.238   5.178   2.036 -1.3430  2.2364  1.6417
 2964TIP3   OH2 8897   3.088   2.344   5.072  0.3214 -0.0710  0.5608
 2964TIP3    H1 8898   3.100   2.331   4.978  0.3255  0.3665  0.5003
 2964TIP3    H2 8899   3.120   2.263   5.112  0.8576 -0.0292  0.2225
 2965TIP3   OH2 8900   5.094   0.449   0.043  0.3986 -0.4049  0.7901
 2965TIP3    H1 8901   5.154   0.518   0.074 -0.9369  0.4004  1.7101
 2965TIP3    H2 8902   5.035   0.494  -0.017  0.2989 -1.0362  0.4112
 2966TIP3   OH2 8903   6.029   4.733   2.099  0.5027  0.3419 -0.0277
 2966TIP3    H1 8904   6.106   4.767   2.145 -0.4204  1.1790  0.9276
 2966TIP3    H2 8905   6.027   4.782   2.017 -1.5483  3.7669  1.8468
 2967TIP3   OH2 8906   4.929   1.040   0.158  0.2622  0.2080 -0.7326
 2967TIP3    H1 8907   4.918   1.124   0.202  0.3223 -1.5897  3.0685
 2967TIP3    H2 8908   5.022   1.035   0.138  0.5729  0.3797  0.6030
 2968TIP3   OH2 8909   1.927   1.792   3.727 -0.2565 -0.6234 -0.0666
 2968TIP3    H1 8910   1.859   1.735   3.763 -0.2520 -0.2751  0.5169
 2968TIP3    H2 8911   1.964   1.743   3.654 -1.3587 -0.6852 -0.6106
 2969TIP3   OH2 8912   3.468   4.059   1.518  0.0925 -0.3066  0.6010
 2969TIP3    H1 8913   3.498   4.006   1.445  2.7094  0.8456  0.7376
 2969TIP3    H2 8914   3.511   4.021   1.595 -0.0264  0.4752  1.0637
 2970TIP3   OH2 8915   4.122   3.877   4.141  0.0280 -0.0498 -0.5586
 2970TIP3    H1 8916   4.141   3.783   4.131  0.4729  0.1371 -1.5399
 2970TIP3    H2 8917   4.191   3.908   4.200 -1.1951 -0.6772  1.2904
 2971TIP3   OH2 8918   0.054   2.601   0.613  0.2761 -0.6239 -0.7471
 2971TIP3    H1 8919   0.035   2.523   0.665  0.7143 -0.9816 -1.1126
 2971TIP3    H2 8920   0.132   2.638   0.653 -1.0511  0.7623  0.6641
 2972TIP3   OH2 8921   4.298   5.652   3.906  0.3131 -0.3263 -0.5014
 2972TIP3    H1 8922   4.247   5.617   3.979 -0.3783 -0.6901 -1.1439
 2972TIP3    H2 8923   4.322   5.575   3.855  2.1494 -0.2468  0.1682
 2973TIP3   OH2 8924   0.005   5.064   3.155 -0.3274  0.2662 -0.4334
 2973TIP3    H1 8925   0.037   5.120   3.085 -0.9228  1.0497 -0.0887
 2973TIP3    H2 8926  -0.016   4.981   3.112 -0.8688  0.7985 -1.2139
 2974TIP3   OH2 8927   4.613   5.137   1.165 -0.2425 -0.4462 -0.2021
 2974TIP3    H1 8928   4.706   5.155   1.173 -0.4946  1.1047 -0.5373
 2974TIP3    H2 8929   4.570   5.213   1.203 -1.3808 -0.4989 -1.3153
 2975TIP3   OH2 8930   5.323   0.773   3.313  1.1532  0.5324  0.1444
 2975TIP3    H1 8931   5.403   0.805   3.272  1.1190 -1.2041 -1.4136
 2975TIP3    H2 8932   5.253   0.811   3.261  1.0645 -0.2718 -0.3421
 2976TIP3   OH2 8933   2.073   0.142   4.529 -0.3466 -0.5724  0.2982
 2976TIP3    H1 8934   1.983   0.171   4.514 -0.1620 -0.9954 -2.1610
 2976TIP3    H2 8935   2.102   0.190   4.606 -1.6312  2.0495 -0.7446
 2977TIP3   OH2 8936   1.746   3.721   2.878  0.3644 -0.2035  1.0370
 2977TIP3    H1 8937   1.663   3.754   2.844  1.2382  0.8500 -0.1756
 2977TIP3    H2 8938   1.812   3.775   2.834  1.6228  0.3424  3.4744
 2978TIP3   OH2 8939   4.904   0.570   4.187  0.4842 -0.3562  0.5659
 2978TIP3    H1 8940   4.987   0.616   4.198  0.0038  0.8067 -0.3820
 2978TIP3    H2 8941   4.858   0.582   4.270  1.0869 -0.6558  0.9489
 2979TIP3   OH2 8942   5.633   1.987   4.504 -0.2926  0.0198  0.3027
 2979TIP3    H1 8943   5.710   2.044   4.501  0.5825 -1.1433 -1.3499
 2979TIP3    H2 8944   5.670   1.898   4.506 -1.5824 -0.5557 -0.2087
 2980TIP3   OH2 8945   2.847   2.355   0.293 -0.3740 -0.0757  0.4711
 2980TIP3    H1 8946   2.919   2.411   0.262 -0.3928 -0.0554  0.4643
 2980TIP3    H2 8947   2.885   2.306   0.366 -0.2531 -0.3082  0.2547
 2981TIP3   OH2 8948   0.151   1.365   0.659  0.6467 -0.7745  0.2527
 2981TIP3    H1 8949   0.242   1.390   0.649  0.4441  0.5841  1.4918
 2981TIP3    H2 8950   0.134   1.372   0.753 -0.4926 -1.9118  0.1628
 2982TIP3   OH2 8951   3.247   3.508   1.867 -0.1462  0.1588  0.3576
 2982TIP3    H1 8952   3.217   3.576   1.929 -0.5170  1.7858 -1.5068
 2982TIP3    H2 8953   3.189   3.517   1.792  0.6290 -1.3925 -0.4673
 2983TIP3   OH2 8954   6.315   5.801   4.285  0.0952 -0.1979  0.4489
 2983TIP3    H1 8955   6.274   5.760   4.209 -0.2171 -1.5587  1.3178
 2983TIP3    H2 8956   6.243   5.845   4.330  0.3281  0.8484 -0.1632
 2984TIP3   OH2 8957   1.791   1.538   1.843 -0.3099  0.2274  0.0559
 2984TIP3    H1 8958   1.724   1.483   1.801 -0.6068 -0.7948  1.7532
 2984TIP3    H2 8959   1.803   1.498   1.930  0.4750  2.0517  0.8364
 2985TIP3   OH2 8960   0.912   2.104   2.551  0.4528  0.5772 -0.5509
 2985TIP3    H1 8961   0.976   2.099   2.622  0.9709 -1.7244 -1.0854
 2985TIP3    H2 8962   0.828   2.119   2.595  1.0643  1.5644  0.3280
 2986TIP3   OH2 8963   1.382   4.446   2.560  0.6843  0.1500  0.0077
 2986TIP3    H1 8964   1.376   4.479   2.470  0.5862  0.2995  0.0687
 2986TIP3    H2 8965   1.420   4.358   2.551 -1.4427 -0.7875 -0.3759
 2987TIP3   OH2 8966   6.002   1.326  -0.017  0.9109  0.0817 -0.0733
 2987TIP3    H1 8967   6.077   1.288   0.028  0.4749  1.0814  1.5690
 2987TIP3    H2 8968   5.926   1.285   0.024  0.5308 -0.3744 -1.2069
 2988TIP3   OH2 8969   1.653   1.880   3.603 -0.4780 -0.2652  0.0109
 2988TIP3    H1 8970   1.737   1.850   3.568 -0.5784 -0.0828 -0.3898
 2988TIP3    H2 8971   1.599   1.896   3.525 -0.0134  2.2406  0.1155
 2989TIP3   OH2 8972   6.288   0.424   1.983 -0.1020  0.0261 -0.1058
 2989TIP3    H1 8973   6.244   0.340   1.972 -0.3085 -0.0613  1.2351
 2989TIP3    H2 8974   6.229   0.488   1.942 -1.3630 -0.1305  1.3732
 2990TIP3   OH2 8975   1.641   5.770   2.466 -0.5417 -0.1413 -0.2962
 2990TIP3    H1 8976   1.547   5.781   2.481 -0.6409 -0.3420 -0.7404
 2990TIP3    H2 8977   1.677   5.753   2.553 -1.1494 -1.6261 -0.2878
 2991TIP3   OH2 8978   0.056   0.659   0.855 -0.3636 -0.0874 -0.0793
 2991TIP3    H1 8979   0.009   0.644   0.937 -0.2122  0.1357  0.0470
 2991TIP3    H2 8980  -0.007   0.705   0.799 -0.9502 -1.4351 -0.5836
 2992TIP3   OH2 8981   2.550   2.637   2.181  0.0806 -0.5450 -0.0306
 2992TIP3    H1 8982   2.645   2.632   2.192 -0.0148 -0.7729  0.7391
 2992TIP3    H2 8983   2.522   2.545   2.180 -0.0573 -0.4995 -0.9859
 2993TIP3   OH2 8984   1.739   2.667   4.230  0.6238 -0.4413  0.1672
 2993TIP3    H1 8985   1.788   2.748   4.218 -0.5504  0.3818  0.7477
 2993TIP3    H2 8986   1.769   2.610   4.160  1.2646  0.5882 -0.4174
 2994TIP3   OH2 8987   0.633   4.128   0.521 -0.5767 -0.3850 -0.0330
 2994TIP3    H1 8988   0.662   4.040   0.495  0.3673  0.7547 -3.3657
 2994TIP3    H2 8989   0.687   4.149   0.597 -0.0482 -2.2722  0.1680
 2995TIP3   OH2 8990   5.279   5.473   4.296  0.3166  0.1070 -0.0734
 2995TIP3    H1 8991   5.266   5.414   4.222 -1.8998 -0.1868  0.4890
 2995TIP3    H2 8992   5.346   5.431   4.350 -1.3908 -2.1123  0.4551
 2996TIP3   OH2 8993   3.473   2.012   2.540 -0.5328  0.3243  0.3675
 2996TIP3    H1 8994   3.505   1.961   2.614 -3.0845 -1.0662  0.6217
 2996TIP3    H2 8995   3.531   1.988   2.467 -0.4682 -1.4550  0.9608
 2997TIP3   OH2 8996   0.869   4.793   3.581  0.6405  0.2878  0.4300
 2997TIP3    H1 8997   0.951   4.834   3.554  1.0910 -0.3128  0.8436
 2997TIP3    H2 8998   0.857   4.721   3.520  0.7093  0.0468  0.6957
 2998TIP3   OH2 8999   6.043   2.856   1.432 -0.0773  0.4002  0.4000
 2998TIP3    H1 9000   6.081   2.894   1.511 -0.6682 -0.5194  1.1411
 2998TIP3    H2 9001   5.955   2.894   1.427 -0.5656 -0.6237  0.9871
 2999TIP3   OH2 9002   0.506   1.180   5.040 -0.1198  0.7685 -0.3110
 2999TIP3    H1 9003   0.497   1.264   5.085 -0.6862 -0.4332  1.9743
 2999TIP3    H2 9004   0.572   1.133   5.090 -1.1970 -0.8567 -0.3422
 3000TIP3   OH2 9005   0.531   2.643   1.996  0.2157  0.0776 -0.1764
 3000TIP3    H1 9006   0.626   2.644   1.983 -0.0948 -0.0058 -3.1314
 3000TIP3    H2 9007   0.502   2.730   1.971 -0.5306  0.0540  0.5465
 3001TIP3   OH2 9008   3.932   0.698   0.666  0.2218 -0.0063  0.0052
 3001TIP3    H1 9009   3.889   0.733   0.744  0.4153  1.3042 -0.4501
 3001TIP3    H2 9010   3.898   0.752   0.595 -0.2079 -1.3973 -0.8848
 3002TIP3   OH2 9011   5.959   0.928   1.674 -0.1444  0.1440  0.2150
 3002TIP3    H1 9012   5.884   0.922   1.614 -0.3917 -1.3378  0.6486
 3002TIP3    H2 9013   6.026   0.975   1.623 -0.7082 -0.1509 -0.8371
 3003TIP3   OH2 9014   3.750   5.854   5.055 -0.2198 -0.2072  0.3922
 3003TIP3    H1 9015   3.699   5.789   5.006 -0.0680 -0.5618  0.7030
 3003TIP3    H2 9016   3.685   5.902   5.106 -0.5093  0.8149 -0.8638
 3004TIP3   OH2 9017   2.533   3.385   3.807 -0.3537  1.0288  0.3298
 3004TIP3    H1 9018   2.516   3.351   3.719  1.4545 -1.8247  0.9373
 3004TIP3    H2 9019   2.473   3.336   3.863  0.7618  0.3943  1.0030
 3005TIP3   OH2 9020   0.944   2.484   0.856  0.0648  0.4916 -0.0171
 3005TIP3    H1 9021   0.878   2.484   0.787 -0.1204  1.3182  0.1487
 3005TIP3    H2 9022   0.907   2.428   0.924 -0.7830  1.4733  0.3562
 3006TIP3   OH2 9023   2.204   1.671   1.311  0.3516 -0.1841  0.4300
 3006TIP3    H1 9024   2.199   1.666   1.216  1.2179  0.3774  0.3398
 3006TIP3    H2 9025   2.123   1.630   1.342  0.0383 -0.3238 -0.5432
 3007TIP3   OH2 9026   2.071   4.173   1.271 -0.0375 -0.4197 -0.2258
 3007TIP3    H1 9027   1.978   4.154   1.283 -0.1958  0.9161  0.8334
 3007TIP3    H2 9028   2.078   4.199   1.179 -1.0203  0.9961  0.0662
 3008TIP3   OH2 9029   2.624   5.590   0.423 -0.3282  0.7670  0.3623
 3008TIP3    H1 9030   2.642   5.505   0.465  0.4075  0.8573  0.2330
 3008TIP3    H2 9031   2.540   5.617   0.462 -0.9976 -0.3955 -0.1999
 3009TIP3   OH2 9032   2.041   2.090   1.177  0.1303  0.2395 -0.3558
 3009TIP3    H1 9033   2.017   2.006   1.140 -1.6870  0.5201  0.0871
 3009TIP3    H2 9034   2.080   2.069   1.262  0.6030 -0.1899 -0.6764
 3010TIP3   OH2 9035   4.830   2.362   0.765 -0.2338 -0.3140 -0.0969
 3010TIP3    H1 9036   4.855   2.278   0.803 -0.3411 -0.1477  0.3439
 3010TIP3    H2 9037   4.878   2.427   0.816 -0.7213 -0.0606  0.0447
 3011TIP3   OH2 9038   1.081   0.639   3.556  0.1691  0.3037  0.1814
 3011TIP3    H1 9039   1.163   0.597   3.531 -0.3027 -1.6099  1.5787
 3011TIP3    H2 9040   1.015   0.570   3.547 -1.1356  1.5178  0.0387
 3012TIP3   OH2 9041   1.868   3.857   0.344 -0.0977 -0.6362 -0.6025
 3012TIP3    H1 9042   1.821   3.865   0.261 -0.4543 -1.0811 -0.4514
 3012TIP3    H2 9043   1.902   3.767   0.344  0.3969 -0.4481 -0.5276
 3013TIP3   OH2 9044   5.713   0.824   3.884 -0.2541  0.0757  0.3296
 3013TIP3    H1 9045   5.753   0.742   3.912 -1.4821 -0.5832  0.2182
 3013TIP3    H2 9046   5.758   0.846   3.803 -2.0013 -2.2313 -1.4397
 3014TIP3   OH2 9047   5.566   1.078   1.056 -0.7016 -0.1418 -0.1208
 3014TIP3    H1 9048   5.546   1.154   1.001  2.0147  1.4022  0.7892
 3014TIP3    H2 9049   5.635   1.032   1.008  1.1032  0.7591  1.4474
 3015TIP3   OH2 9050   0.337   3.007   0.215 -0.1780  0.0379  0.5110
 3015TIP3    H1 9051   0.378   3.080   0.169  0.9075 -0.1727  1.1063
 3015TIP3    H2 9052   0.267   2.978   0.156  0.1854  0.7454 -0.2973
 3016TIP3   OH2 9053   3.746   3.476   4.464  0.2554 -0.0635  0.0117
 3016TIP3    H1 9054   3.716   3.446   4.550  0.3273 -1.3843 -0.4155
 3016TIP3    H2 9055   3.665   3.497   4.417  0.2008  0.2680  0.2414
 3017TIP3   OH2 9056   3.987   0.397   4.195 -0.1209  0.0361 -0.0528
 3017TIP3    H1 9057   3.944   0.477   4.224 -0.9088 -1.1765  2.3791
 3017TIP3    H2 9058   3.937   0.369   4.118  0.9008  2.4134 -1.7071
 3018TIP3   OH2 9059   3.273   0.434   4.854 -0.1137 -0.7692 -0.2180
 3018TIP3    H1 9060   3.294   0.395   4.769 -0.7711  1.3609 -1.4236
 3018TIP3    H2 9061   3.306   0.524   4.848 -0.8452 -0.3520  1.5117
 3019TIP3   OH2 9062   4.685   5.474   4.375  0.2852  0.3424 -0.3037
 3019TIP3    H1 9063   4.688   5.378   4.381 -1.4396  0.2801  0.1561
 3019TIP3    H2 9064   4.720   5.494   4.288  1.8394 -0.5984  0.0716
 3020TIP3   OH2 9065   1.339   5.266   1.570 -0.0879 -0.1752  0.8634
 3020TIP3    H1 9066   1.359   5.293   1.660 -1.9457 -0.7940  1.5169
 3020TIP3    H2 9067   1.375   5.177   1.563  0.5972  0.0996  0.7633
 3021TIP3   OH2 9068   5.818   4.038   3.069 -0.0944 -0.9417  0.5134
 3021TIP3    H1 9069   5.768   3.989   3.004 -1.3364 -1.0527  1.5115
 3021TIP3    H2 9070   5.900   3.989   3.078  0.8664 -0.0135 -2.1350
 3022TIP3   OH2 9071   5.089   3.076   3.170  0.8073 -0.1355 -0.0717
 3022TIP3    H1 9072   5.137   3.003   3.209 -0.7568 -1.5457 -0.6569
 3022TIP3    H2 9073   5.018   3.094   3.232 -0.7739 -1.3617 -1.4396
 3023TIP3   OH2 9074   1.256   1.758   4.274  0.1254 -0.0297 -0.3231
 3023TIP3    H1 9075   1.255   1.854   4.272  2.2818  0.0274 -0.4643
 3023TIP3    H2 9076   1.166   1.734   4.295 -0.8919  1.9567 -2.0759
 3024TIP3   OH2 9077   6.036   3.880   3.162  0.0596  0.2110  0.3445
 3024TIP3    H1 9078   6.019   3.808   3.224 -0.9614 -0.6070 -0.8330
 3024TIP3    H2 9079   6.131   3.879   3.150  0.0355 -1.2176  0.0623
 3025TIP3   OH2 9080   3.685   0.065   3.215 -0.0046 -0.6378 -0.2571
 3025TIP3    H1 9081   3.743   0.002   3.172  0.3910 -0.9927  0.7640
 3025TIP3    H2 9082   3.744   0.127   3.258 -0.3593 -1.0515  0.8665
 3026TIP3   OH2 9083   6.046   3.117   3.329  0.6193 -0.1299 -0.1118
 3026TIP3    H1 9084   6.067   3.198   3.283 -0.6331 -1.0156 -2.4472
 3026TIP3    H2 9085   6.110   3.054   3.297  0.2308 -0.5735 -0.0352
 3027TIP3   OH2 9086   4.325   3.379   0.443  0.5599  0.1406 -0.3346
 3027TIP3    H1 9087   4.261   3.371   0.373 -0.3928 -1.4988  0.6861
 3027TIP3    H2 9088   4.410   3.368   0.399  0.1922  1.9990 -1.6342
 3028TIP3   OH2 9089   6.370   5.326   1.330  0.5695 -0.9575  0.2392
 3028TIP3    H1 9090   6.313   5.382   1.279  1.7930 -0.7994 -1.0140
 3028TIP3    H2 9091   6.319   5.304   1.408  0.6097  3.1939  1.6570
 3029TIP3   OH2 9092   1.038   4.733   3.259 -0.7192 -0.3475 -1.0133
 3029TIP3    H1 9093   1.105   4.674   3.293 -0.3265  0.5179 -0.2468
 3029TIP3    H2 9094   1.079   4.778   3.186  0.6522  2.3059  1.1804
 3030TIP3   OH2 9095   5.254   1.563   5.173  0.5415  0.0171 -0.1704
 3030TIP3    H1 9096   5.271   1.653   5.146 -0.8710 -0.0751 -1.5398
 3030TIP3    H2 9097   5.175   1.569   5.227  1.2464 -0.2557  0.9213
 3031TIP3   OH2 9098   2.353   1.055   2.764  0.2293  0.3718  0.2501
 3031TIP3    H1 9099   2.333   1.113   2.690  0.8377  0.2822  0.0059
 3031TIP3    H2 9100   2.344   0.967   2.728 -1.3644  0.2781  0.7984
 3032TIP3   OH2 9101   0.648   4.325   3.955 -0.2298 -0.4608 -0.1328
 3032TIP3    H1 9102   0.608   4.374   4.027  0.2511 -1.9413  1.2251
 3032TIP3    H2 9103   0.576   4.272   3.920 -0.5228  0.4463 -0.9469
 3033TIP3   OH2 9104   0.771   3.790   2.061 -0.1025 -0.1873  0.1054
 3033TIP3    H1 9105   0.856   3.778   2.018  0.2513 -0.3954  0.8475
 3033TIP3    H2 9106   0.707   3.765   1.994  0.2534  2.7687 -1.5128
 3034TIP3   OH2 9107   0.625   1.181   1.611 -0.4641 -0.2283 -0.4227
 3034TIP3    H1 9108   0.698   1.123   1.633 -0.0629  0.5733  0.4252
 3034TIP3    H2 9109   0.666   1.254   1.565 -0.9270 -0.4636 -1.2174
 3035TIP3   OH2 9110   3.853   3.946   0.391 -0.2285  0.2573 -0.3285
 3035TIP3    H1 9111   3.908   3.986   0.459  1.3732 -1.3185 -0.6166
 3035TIP3    H2 9112   3.831   4.019   0.333  2.4654  0.8559 -0.7610
 3036TIP3   OH2 9113   3.816   1.121   4.869 -0.8140  0.2928  0.3467
 3036TIP3    H1 9114   3.785   1.089   4.784 -1.0771 -0.3912  0.6870
 3036TIP3    H2 9115   3.738   1.157   4.911 -0.3122  2.5249 -0.4930
 3037TIP3   OH2 9116   1.540   2.285   1.922  0.3248  0.9937  0.1035
 3037TIP3    H1 9117   1.509   2.212   1.870 -1.0213  0.1314  2.0035
 3037TIP3    H2 9118   1.561   2.247   2.007  3.0458  2.2198  0.1189
 3038TIP3   OH2 9119   3.286   0.831   1.146  0.1823  0.7913  0.3318
 3038TIP3    H1 9120   3.343   0.902   1.177  0.5111 -0.0327  1.7152
 3038TIP3    H2 9121   3.229   0.872   1.081  1.9660  1.7869 -0.7073
 3039TIP3   OH2 9122   5.625   5.898   3.339  0.5702  0.4555  0.7570
 3039TIP3    H1 9123   5.565   5.886   3.266 -0.6260 -0.3076  1.8286
 3039TIP3    H2 9124   5.651   5.990   3.334  0.0474  0.5666 -0.2499
 3040TIP3   OH2 9125   3.344   4.367   3.454  0.5739  0.0301 -0.1949
 3040TIP3    H1 9126   3.419   4.407   3.411  0.4781 -0.8415 -1.2227
 3040TIP3    H2 9127   3.288   4.336   3.382 -0.0960 -0.5534  0.5521
 3041TIP3   OH2 9128   5.837   3.043   1.140 -0.7345 -0.1242  0.2025
 3041TIP3    H1 9129   5.872   3.042   1.051 -1.2162 -1.2187  0.0050
 3041TIP3    H2 9130   5.776   3.116   1.142  1.1071  1.5103  0.4027
 3042TIP3   OH2 9131   2.758   1.091   0.155  0.1966 -0.1391  0.2209
 3042TIP3    H1 9132   2.678   1.083   0.103  0.1395 -0.2547  0.3272
 3042TIP3    H2 9133   2.799   1.004   0.149  0.6246  0.0887 -0.3386
 3043TIP3   OH2 9134   1.972   0.085   2.642  0.1204 -0.1515 -0.8122
 3043TIP3    H1 9135   1.919   0.115   2.568  0.9126  0.8436 -1.0025
 3043TIP3    H2 9136   2.062   0.108   2.618  0.3899  0.2409  0.4732
 3044TIP3   OH2 9137   2.367   5.646   4.871  0.2910  0.7765  0.1367
 3044TIP3    H1 9138   2.415   5.688   4.800  1.6316  0.3983  0.7942
 3044TIP3    H2 9139   2.405   5.682   4.951 -0.4065  0.3317  0.6864
 3045TIP3   OH2 9140   5.941   5.874   1.278  0.0113  0.3082 -0.9090
 3045TIP3    H1 9141   5.848   5.885   1.296 -0.3109 -2.0915 -0.8409
 3045TIP3    H2 9142   5.964   5.790   1.318  2.5769  1.4724  0.3649
 3046TIP3   OH2 9143   3.161   0.224   2.299  0.7827  0.2786 -0.0097
 3046TIP3    H1 9144   3.215   0.302   2.307  0.1242  0.7189  0.2189
 3046TIP3    H2 9145   3.079   0.247   2.342  0.8399 -0.7922  0.7183
 3047TIP3   OH2 9146   3.706   5.493   1.791 -0.1498  0.4827  0.1497
 3047TIP3    H1 9147   3.696   5.414   1.739 -0.6214 -0.5717  1.7581
 3047TIP3    H2 9148   3.801   5.510   1.791  0.1359 -0.9786  1.0110
 3048TIP3   OH2 9149   1.839   0.935   4.655  0.1480 -0.4883  0.0172
 3048TIP3    H1 9150   1.780   0.988   4.708 -2.2799 -1.3384 -1.6534
 3048TIP3    H2 9151   1.812   0.845   4.672  0.3574 -0.8555 -1.4455
 3049TIP3   OH2 9152   3.833   3.839   3.899 -0.0865 -0.0394 -0.0160
 3049TIP3    H1 9153   3.813   3.862   3.808  1.7695  1.3680 -0.1231
 3049TIP3    H2 9154   3.833   3.923   3.945 -1.8409 -0.8119  1.5189
 3050TIP3   OH2 9155   0.788   5.585   4.457  0.1772  0.2453 -0.0092
 3050TIP3    H1 9156   0.769   5.491   4.464 -1.0393  0.5992  2.2096
 3050TIP3    H2 9157   0.702   5.627   4.457  0.6840  1.3913 -1.4700
 3051TIP3   OH2 9158   1.820   3.925   5.159 -0.2658 -0.0567  0.5028
 3051TIP3    H1 9159   1.824   3.985   5.084  0.5297 -1.8351 -0.9392
 3051TIP3    H2 9160   1.906   3.932   5.200 -0.9945  1.6080  1.9024
 3052TIP3   OH2 9161   5.453   5.051   4.154 -0.5969 -0.2909 -0.4982
 3052TIP3    H1 9162   5.530   5.041   4.209  0.3698 -1.1003 -1.9333
 3052TIP3    H2 9163   5.469   5.130   4.103 -1.0628 -0.0421 -0.2628
 3053TIP3   OH2 9164   3.313   4.103   4.741 -0.0385 -0.2028  0.1210
 3053TIP3    H1 9165   3.396   4.106   4.788  0.0531  1.9229 -0.0625
 3053TIP3    H2 9166   3.272   4.021   4.768  0.2148  0.6498  3.5346
 3054TIP3   OH2 9167   0.660   4.978   0.614 -0.2704 -0.2021  0.1184
 3054TIP3    H1 9168   0.640   5.071   0.626  0.0409  0.1832 -1.9677
 3054TIP3    H2 9169   0.720   4.976   0.539 -0.2484 -2.0838  0.1388
 3055TIP3   OH2 9170   4.828   2.293   2.373  0.1430  0.1670 -0.5933
 3055TIP3    H1 9171   4.778   2.330   2.301  0.3885  1.5349 -0.0825
 3055TIP3    H2 9172   4.902   2.352   2.385 -1.2708  1.5430  2.4755
 3056TIP3   OH2 9173   0.762   2.133   4.616 -0.0415 -0.5599  0.2644
 3056TIP3    H1 9174   0.834   2.095   4.666 -0.0714  0.0427  0.7627
 3056TIP3    H2 9175   0.776   2.100   4.527  2.3470  1.5791 -0.2595
 3057TIP3   OH2 9176   4.676   2.274   0.018 -0.2058 -0.4221 -0.2329
 3057TIP3    H1 9177   4.722   2.269   0.102  0.0272  1.5955 -0.1762
 3057TIP3    H2 9178   4.593   2.230   0.034 -0.5861  0.7501  1.4111
 3058TIP3   OH2 9179   6.230   5.642   5.062  0.6305 -0.1101  0.1174
 3058TIP3    H1 9180   6.141   5.647   5.026  0.8606 -0.8903 -0.5966
 3058TIP3    H2 9181   6.247   5.729   5.096 -0.0864  0.2940 -0.5261
 3059TIP3   OH2 9182   6.256   5.418   0.465  0.4367 -0.3782 -0.5536
 3059TIP3    H1 9183   6.239   5.347   0.527  3.0320 -0.8362 -0.2783
 3059TIP3    H2 9184   6.176   5.472   0.468 -1.0623 -2.5126  0.2172
 3060TIP3   OH2 9185   5.014   4.729   3.529 -0.2813 -0.2139 -0.1844
 3060TIP3    H1 9186   5.090   4.787   3.529 -0.5422  0.1652  1.2963
 3060TIP3    H2 9187   5.036   4.659   3.590 -0.4922 -0.9875 -0.9689
 3061TIP3   OH2 9188   3.420   5.408   1.259  0.1834  0.0102  0.6942
 3061TIP3    H1 9189   3.350   5.472   1.243  1.1303  1.1468  0.9204
 3061TIP3    H2 9190   3.409   5.342   1.191  0.0165  1.1603 -0.4291
 3062TIP3   OH2 9191   4.946   4.089   4.577 -0.5580  0.2406  0.2154
 3062TIP3    H1 9192   4.958   4.113   4.485  0.2601 -0.8752  0.0126
 3062TIP3    H2 9193   4.851   4.082   4.587 -1.0756  4.7657  0.6700
 3063TIP3   OH2 9194   3.450   3.019   2.316  0.2900  0.0269 -0.3663
 3063TIP3    H1 9195   3.540   2.998   2.291  0.8183  0.3119  1.1816
 3063TIP3    H2 9196   3.436   3.108   2.284  1.1077  0.5574  0.6972
 3064TIP3   OH2 9197   0.623   5.383   1.865 -0.0236 -0.1730  0.1518
 3064TIP3    H1 9198   0.717   5.398   1.865  0.2437 -1.3719  2.4830
 3064TIP3    H2 9199   0.590   5.440   1.935 -1.1193  0.4622 -0.8328
 3065TIP3   OH2 9200   2.608   4.263   1.824  0.8140 -0.2422  0.4595
 3065TIP3    H1 9201   2.619   4.229   1.735  0.5473 -1.4631  0.8731
 3065TIP3    H2 9202   2.683   4.322   1.836  0.2804  0.7783 -0.9237
 3066TIP3   OH2 9203   3.244   1.602   4.377 -0.0659  0.0931  0.2950
 3066TIP3    H1 9204   3.307   1.618   4.448  0.3824  0.2847 -0.1389
 3066TIP3    H2 9205   3.297   1.606   4.297 -0.5399 -0.2831 -0.0402
 3067TIP3   OH2 9206   0.414   2.481   2.858  0.7342  0.4816  0.3023
 3067TIP3    H1 9207   0.334   2.455   2.903 -0.4706 -0.5044 -2.2149
 3067TIP3    H2 9208   0.412   2.577   2.859 -0.0071  0.4675  1.0403
 3068TIP3   OH2 9209   0.895   1.541   2.380 -0.6217 -0.7013 -0.3605
 3068TIP3    H1 9210   0.942   1.552   2.297  0.1771  1.9684  0.3374
 3068TIP3    H2 9211   0.865   1.629   2.402  0.8111 -0.9199  3.0860
 3069TIP3   OH2 9212   2.322   4.550   0.633 -0.0699 -0.1069 -0.5240
 3069TIP3    H1 9213   2.299   4.619   0.571  1.5012 -0.0516 -1.0916
 3069TIP3    H2 9214   2.367   4.484   0.580  0.8398 -0.3011  0.4510
 3070TIP3   OH2 9215   2.058   1.112   4.725 -0.5872  0.3034  0.0215
 3070TIP3    H1 9216   2.039   1.203   4.746  0.1521  0.2644  0.9098
 3070TIP3    H2 9217   1.972   1.069   4.728 -0.6989  0.5840  1.5873
 3071TIP3   OH2 9218   0.829   2.624   2.973 -0.1479  0.4339  0.6161
 3071TIP3    H1 9219   0.781   2.560   2.920 -0.3649  2.0819 -1.3334
 3071TIP3    H2 9220   0.814   2.707   2.928  1.3021  1.6334  2.2280
 3072TIP3   OH2 9221   1.381   3.762   1.155 -0.1363  0.2048  0.3520
 3072TIP3    H1 9222   1.355   3.733   1.242 -0.2972 -2.2819 -0.4458
 3072TIP3    H2 9223   1.468   3.800   1.166 -0.7726  1.3497  1.7895
 3073TIP3   OH2 9224   1.394   2.254   1.144 -0.2648 -0.3908  0.0600
 3073TIP3    H1 9225   1.325   2.317   1.123 -0.0443  0.2376  1.1354
 3073TIP3    H2 9226   1.458   2.305   1.193 -0.7292 -1.7324  2.1587
 3074TIP3   OH2 9227   5.613   3.683   1.283 -0.8866 -0.7223 -0.3417
 3074TIP3    H1 9228   5.708   3.686   1.293 -1.0350 -0.5796  1.4819
 3074TIP3    H2 9229   5.598   3.640   1.199  0.7801 -1.0732 -0.4840
 3075TIP3   OH2 9230   6.224   4.998   1.071 -0.1388  0.7476  0.4216
 3075TIP3    H1 9231   6.142   5.035   1.102  0.3791  0.9411  1.6074
 3075TIP3    H2 9232   6.291   5.039   1.125  0.5383 -1.1788  1.1436
 3076TIP3   OH2 9233   4.569   2.018   1.878  0.1094 -0.0649  0.5987
 3076TIP3    H1 9234   4.611   2.066   1.807 -0.1948 -1.0813 -0.2992
 3076TIP3    H2 9235   4.514   1.953   1.834 -0.5013 -0.3694  1.7636
 3077TIP3   OH2 9236   6.154   3.018   1.981  0.4082  0.9191  0.1799
 3077TIP3    H1 9237   6.142   2.927   1.956 -0.5483  0.3713  2.3853
 3077TIP3    H2 9238   6.248   3.034   1.969  1.3430 -1.4863  3.0114
 3078TIP3   OH2 9239   2.718   1.587   0.453 -0.2346 -0.0308 -0.0586
 3078TIP3    H1 9240   2.737   1.558   0.364  2.8697  0.6461  0.3003
 3078TIP3    H2 9241   2.752   1.517   0.509 -1.5888 -0.1552  0.6525
 3079TIP3   OH2 9242   0.317   3.283   0.696 -0.0431  0.3959 -0.3606
 3079TIP3    H1 9243   0.381   3.212   0.697 -0.5198 -0.0380 -0.0461
 3079TIP3    H2 9244   0.347   3.344   0.764  0.8207  0.9211 -1.1868
 3080TIP3   OH2 9245   5.752   5.500   3.626  0.0790  0.6605  0.0094
 3080TIP3    H1 9246   5.683   5.561   3.600  0.7962  2.2635  1.6826
 3080TIP3    H2 9247   5.822   5.514   3.563 -0.2705  0.6043 -0.3947
 3081TIP3   OH2 9248   1.551   0.734   0.210  0.1859  0.0315 -0.0932
 3081TIP3    H1 9249   1.503   0.748   0.292  1.5140  0.3528  0.6455
 3081TIP3    H2 9250   1.611   0.662   0.229  1.8263  1.3377 -0.1806
 3082TIP3   OH2 9251   1.557   4.190   3.841 -0.3570  0.2487 -0.0227
 3082TIP3    H1 9252   1.587   4.216   3.928  2.0721 -1.5668 -0.2159
 3082TIP3    H2 9253   1.470   4.152   3.856  0.2609 -0.5607  1.7193
 3083TIP3   OH2 9254   6.054   5.471   3.108 -0.1090 -0.4005 -0.1725
 3083TIP3    H1 9255   6.117   5.478   3.037 -0.2140  1.8658 -0.0948
 3083TIP3    H2 9256   5.974   5.440   3.066  1.0280 -3.6105 -0.2259
 3084TIP3   OH2 9257   1.952   2.331   1.475  0.0054  0.2866 -0.5077
 3084TIP3    H1 9258   2.033   2.317   1.426 -1.1375  0.0742 -2.4547
 3084TIP3    H2 9259   1.955   2.424   1.500  0.5097  0.4651 -1.2033
 3085TIP3   OH2 9260   6.316   5.349   0.900 -0.9109  0.0969 -0.5071
 3085TIP3    H1 9261   6.289   5.402   0.825 -1.4368  0.5333 -0.0165
 3085TIP3    H2 9262   6.319   5.260   0.866  0.0232  0.4318 -1.3556
 3086TIP3   OH2 9263   5.814   4.990   2.604 -0.4869  0.0744  0.4784
 3086TIP3    H1 9264   5.792   4.912   2.552  0.2391  0.4281 -0.3956
 3086TIP3    H2 9265   5.756   4.986   2.680 -0.1939 -1.5171  0.6390
 3087TIP3   OH2 9266   0.508   2.602   0.071  0.0914 -0.2588 -0.9494
 3087TIP3    H1 9267   0.509   2.508   0.090  1.3817  0.0703  0.8956
 3087TIP3    H2 9268   0.559   2.641   0.142  1.4866  1.6118 -2.8639
 3088TIP3   OH2 9269   3.773   2.499   4.501 -0.1925 -0.3325  1.2468
 3088TIP3    H1 9270   3.679   2.517   4.504 -0.0106  0.9919  0.1894
 3088TIP3    H2 9271   3.813   2.566   4.557  0.3732  1.7857 -1.4481
 3089TIP3   OH2 9272   0.733   1.225   0.208  0.0450  0.1872  0.0878
 3089TIP3    H1 9273   0.796   1.252   0.141 -1.1171  0.5024 -0.9124
 3089TIP3    H2 9274   0.697   1.142   0.175 -0.7112  0.4650  0.1798
 3090TIP3   OH2 9275   5.599   4.819   0.101 -0.6841  0.4684 -0.0434
 3090TIP3    H1 9276   5.505   4.805   0.093 -0.5866 -0.0472 -0.3247
 3090TIP3    H2 9277   5.607   4.901   0.149 -1.2848  1.2406 -1.2179
 3091TIP3   OH2 9278   5.909   1.449   0.794 -0.0144  0.0172  0.2261
 3091TIP3    H1 9279   5.949   1.420   0.712  3.1878  1.1593  1.2518
 3091TIP3    H2 9280   5.955   1.400   0.862 -1.0170  0.7408  1.4704
 3092TIP3   OH2 9281   3.370   2.099   3.119 -0.5792  0.1076  0.1207
 3092TIP3    H1 9282   3.316   2.150   3.179  1.1196  2.5664 -0.3159
 3092TIP3    H2 9283   3.319   2.096   3.037 -0.0137  2.6802 -0.3978
 3093TIP3   OH2 9284   2.491   1.108   0.597  0.0219 -0.3338 -0.5826
 3093TIP3    H1 9285   2.557   1.171   0.624  0.5864 -1.4879  0.8791
 3093TIP3    H2 9286   2.408   1.150   0.618  0.2647  0.8704 -1.8640
 3094TIP3   OH2 9287   3.195   1.204   0.391  0.2023  0.0967  0.4765
 3094TIP3    H1 9288   3.167   1.112   0.391 -0.1087  0.1816  1.1529
 3094TIP3    H2 9289   3.289   1.200   0.410  0.5033 -0.1478 -0.9621
 3095TIP3   OH2 9290   3.570   3.969   0.128  0.1239  0.2312  0.0449
 3095TIP3    H1 9291   3.656   3.944   0.096 -0.1133  0.8129 -1.1096
 3095TIP3    H2 9292   3.509   3.925   0.068 -0.3805  0.0066  0.7126
 3096TIP3   OH2 9293   1.325   0.424   2.728  0.0781  0.6285  0.2532
 3096TIP3    H1 9294   1.326   0.456   2.818  0.6766  0.5315  0.2829
 3096TIP3    H2 9295   1.320   0.503   2.674 -0.1947  0.6905  0.3690
 3097TIP3   OH2 9296   0.600   4.792   2.032 -0.0324  0.2480 -0.2368
 3097TIP3    H1 9297   0.580   4.758   1.946  1.9380 -0.3966 -0.4875
 3097TIP3    H2 9298   0.634   4.880   2.016  0.7865 -0.0501 -0.1805
 3098TIP3   OH2 9299   4.287   4.686   0.946 -0.6947 -0.1524 -0.2399
 3098TIP3    H1 9300   4.327   4.749   0.885 -0.7223 -0.0773 -0.1795
 3098TIP3    H2 9301   4.357   4.666   1.008 -0.8249  0.1596  0.0066
 3099TIP3   OH2 9302   2.691   1.393   3.517  0.0647  0.0286  0.4686
 3099TIP3    H1 9303   2.713   1.351   3.434  0.0510  0.7270  0.1040
 3099TIP3    H2 9304   2.610   1.441   3.498 -0.3519 -0.4030  1.0911
 3100TIP3   OH2 9305   3.478   3.575   2.021 -0.2868  0.1113 -0.1940
 3100TIP3    H1 9306   3.397   3.542   1.981 -1.2678  1.5519  0.5345
 3100TIP3    H2 9307   3.467   3.670   2.023  0.9530  0.2555  0.9211
 3101TIP3   OH2 9308   1.925   2.308   0.099 -0.0147  0.6076 -0.1484
 3101TIP3    H1 9309   1.867   2.300   0.175  0.2624  1.3512  0.1553
 3101TIP3    H2 9310   1.873   2.355   0.034 -0.2458 -0.0133 -0.4133
 3102TIP3   OH2 9311   3.065   3.161   2.279  0.6100  0.2426  0.0549
 3102TIP3    H1 9312   3.069   3.256   2.285  1.8553  0.2710 -0.9374
 3102TIP3    H2 9313   3.117   3.130   2.353  0.0458  0.3213  0.4901
 3103TIP3   OH2 9314   5.456   4.566   1.532 -0.1884 -0.1993 -0.0549
 3103TIP3    H1 9315   5.456   4.590   1.440  0.8360 -0.1572 -0.0566
 3103TIP3    H2 9316   5.544   4.531   1.548 -0.8246 -1.6173  0.5498
 3104TIP3   OH2 9317   4.031   3.041   4.317  0.3765 -0.5053 -0.1111
 3104TIP3    H1 9318   4.046   3.038   4.223 -0.9865 -0.8904 -0.3300
 3104TIP3    H2 9319   3.939   3.017   4.328  0.0291  1.2055  1.1862
 3105TIP3   OH2 9320   5.424   3.975   4.409 -0.0695 -0.4282 -0.5402
 3105TIP3    H1 9321   5.340   3.932   4.426 -0.5710 -0.1516 -2.1446
 3105TIP3    H2 9322   5.401   4.068   4.400  0.0944 -0.5334 -2.6095
 3106TIP3   OH2 9323   0.929   5.813   4.445 -0.1118  0.1972 -0.4859
 3106TIP3    H1 9324   1.018   5.781   4.428  0.1296  0.2170  0.6511
 3106TIP3    H2 9325   0.884   5.740   4.487 -0.4167  0.4187 -0.4213
 3107TIP3   OH2 9326   3.581   0.343   2.140  0.3068  0.0968  0.1556
 3107TIP3    H1 9327   3.655   0.282   2.138  0.0492 -0.1934 -0.8312
 3107TIP3    H2 9328   3.582   0.378   2.229  1.4249 -0.1565  0.2589
 3108TIP3   OH2 9329   5.935   3.198   1.780  0.0455  0.0297  0.5327
 3108TIP3    H1 9330   5.884   3.136   1.832  2.7258 -1.2850  1.8168
 3108TIP3    H2 9331   5.943   3.275   1.837  0.2283 -0.1244  0.7185
 3109TIP3   OH2 9332   0.913   3.992   3.602  0.1914  0.6055 -0.3193
 3109TIP3    H1 9333   0.938   3.910   3.560 -1.6478  0.0782 -0.4715
 3109TIP3    H2 9334   0.988   4.050   3.589  1.7408 -1.1804  0.2303
 3110TIP3   OH2 9335   3.855   0.308   3.989  0.5517 -0.6417 -0.1295
 3110TIP3    H1 9336   3.819   0.240   3.932  1.4258  1.2574 -3.2082
 3110TIP3    H2 9337   3.782   0.369   4.003  0.8863  0.0487 -1.2200
 3111TIP3   OH2 9338   4.509   0.494   1.275  0.0533 -0.2285  0.3110
 3111TIP3    H1 9339   4.425   0.455   1.299  0.1122  0.9087  2.6767
 3111TIP3    H2 9340   4.561   0.421   1.243 -1.5349 -1.0957 -0.4208
 3112TIP3   OH2 9341   2.158   2.048   0.706  0.3644  0.5849 -0.2514
 3112TIP3    H1 9342   2.073   2.085   0.729  0.3482  1.8740 -2.1805
 3112TIP3    H2 9343   2.173   2.075   0.616  2.5748 -0.1061 -0.1610
 3113TIP3   OH2 9344   5.593   5.230   3.367 -0.7025  0.1780 -0.3862
 3113TIP3    H1 9345   5.528   5.165   3.396  0.2915 -0.4702  0.4581
 3113TIP3    H2 9346   5.630   5.194   3.287 -0.9513  0.2680 -0.5454
 3114TIP3   OH2 9347   2.391   2.742   2.406 -0.6302  0.7310 -0.7674
 3114TIP3    H1 9348   2.425   2.768   2.492  0.1652 -0.9536 -0.5414
 3114TIP3    H2 9349   2.470   2.720   2.355 -1.2128 -0.4156 -1.2032
 3115TIP3   OH2 9350   2.541   3.481   3.013  0.3079  0.0805  0.1660
 3115TIP3    H1 9351   2.612   3.428   3.048 -0.3575 -0.6508  0.4431
 3115TIP3    H2 9352   2.513   3.436   2.934 -0.4070 -0.1218  0.5208
 3116TIP3   OH2 9353   4.027   4.238   3.400 -0.2008  0.2716 -0.5229
 3116TIP3    H1 9354   4.076   4.183   3.461  0.0003 -1.6459 -2.3059
 3116TIP3    H2 9355   3.959   4.280   3.454  0.1899 -1.0496  1.0584
 3117TIP3   OH2 9356   1.728   4.156   3.239  0.0477 -0.2202 -0.2013
 3117TIP3    H1 9357   1.653   4.210   3.212 -0.0060  0.0530  0.4720
 3117TIP3    H2 9358   1.803   4.214   3.232  0.0965 -0.2879 -0.2272
 3118TIP3   OH2 9359   3.589   4.910   3.012 -0.2607  0.2251  0.4844
 3118TIP3    H1 9360   3.609   4.849   2.941 -0.6273  1.5636 -0.8188
 3118TIP3    H2 9361   3.494   4.909   3.020 -0.2421  0.2992  0.7589
 3119TIP3   OH2 9362   0.805   2.557   1.966 -0.1072  0.5592 -0.4029
 3119TIP3    H1 9363   0.821   2.638   2.015  0.6686 -0.1218  0.4794
 3119TIP3    H2 9364   0.833   2.487   2.024 -1.6190 -0.4202 -0.7873
 3120TIP3   OH2 9365   4.623   2.576   4.586 -0.6115 -0.8053 -0.5033
 3120TIP3    H1 9366   4.642   2.487   4.614  0.6854 -1.2866 -2.6311
 3120TIP3    H2 9367   4.709   2.613   4.565 -1.3445 -0.1736 -2.6782
 3121TIP3   OH2 9368   0.529   0.840   4.566  0.6003 -0.7853 -0.2157
 3121TIP3    H1 9369   0.501   0.776   4.632  0.5678  0.2268  0.7810
 3121TIP3    H2 9370   0.504   0.925   4.603  0.6605 -0.1849 -1.5020
 3122TIP3   OH2 9371   5.254   0.037   0.979 -0.0785 -0.5366  0.1390
 3122TIP3    H1 9372   5.248   0.093   1.057 -0.7189  3.4164 -2.5013
 3122TIP3    H2 9373   5.164   0.008   0.964 -0.4586  0.8801 -0.5041
 3123TIP3   OH2 9374   5.644   1.931   4.219  0.0682 -0.2352 -0.3280
 3123TIP3    H1 9375   5.627   1.921   4.313  0.9021 -2.2411 -0.3470
 3123TIP3    H2 9376   5.557   1.932   4.179 -0.2697 -1.1371  0.3390
 3124TIP3   OH2 9377   1.225   0.950   4.204  0.0639 -0.3238  0.1968
 3124TIP3    H1 9378   1.288   0.924   4.137  0.4107  0.5808  0.1687
 3124TIP3    H2 9379   1.216   1.045   4.193 -0.7003 -0.3324  0.7194
 3125TIP3   OH2 9380   1.276   1.666   0.911  0.6025  0.1634  0.2929
 3125TIP3    H1 9381   1.193   1.669   0.863 -0.1507  0.8214  1.5791
 3125TIP3    H2 9382   1.255   1.618   0.991  2.2831 -2.5900 -0.7792
 3126TIP3   OH2 9383   1.528   0.733   4.462  0.1601  0.2119  1.1303
 3126TIP3    H1 9384   1.565   0.756   4.377  0.4818 -1.3260  0.8207
 3126TIP3    H2 9385   1.446   0.689   4.441  1.2273 -2.0838  1.4416
 3127TIP3   OH2 9386   3.004   0.442   2.886 -0.1957 -0.6243 -0.2189
 3127TIP3    H1 9387   3.047   0.382   2.946  1.8031  0.2217 -0.7222
 3127TIP3    H2 9388   3.058   0.439   2.806 -0.1479  1.6252 -0.3423
 3128TIP3   OH2 9389   6.253   4.166   1.567 -0.2931 -0.4380 -0.1282
 3128TIP3    H1 9390   6.231   4.191   1.477 -0.7035  0.6277  0.2465
 3128TIP3    H2 9391   6.282   4.075   1.560 -1.0477 -0.6244 -1.2309
 3129TIP3   OH2 9392   5.377   4.939   0.989 -0.7011  0.3374 -0.4493
 3129TIP3    H1 9393   5.342   4.975   0.908  1.7584  0.7601 -1.4400
 3129TIP3    H2 9394   5.462   4.983   1.000  0.1235 -1.4712  1.0364
 3130TIP3   OH2 9395   2.637   0.072   3.869 -0.1005  0.4469  0.1166
 3130TIP3    H1 9396   2.685   0.022   3.935  0.5219  1.1619  0.2173
 3130TIP3    H2 9397   2.622   0.157   3.910 -0.0786  0.7556 -0.5100
 3131TIP3   OH2 9398   5.855   0.158   0.704  0.2262  0.3438  0.2574
 3131TIP3    H1 9399   5.805   0.094   0.654 -0.6433 -0.9365  2.5840
 3131TIP3    H2 9400   5.798   0.234   0.710  0.2463  0.4192 -0.4974
 3132TIP3   OH2 9401   2.523   5.720   3.434 -0.1072 -0.6451  0.5151
 3132TIP3    H1 9402   2.522   5.740   3.341  2.4555 -0.1245  0.5085
 3132TIP3    H2 9403   2.540   5.626   3.439 -0.7325 -0.7650  0.4814
 3133TIP3   OH2 9404   5.969   3.775   2.076  0.5057  0.7434 -0.0823
 3133TIP3    H1 9405   6.033   3.840   2.046  1.8440  0.2106  1.4617
 3133TIP3    H2 9406   5.901   3.776   2.009  0.8756  3.1546 -0.5237
 3134TIP3   OH2 9407   1.271   1.590   1.392  0.3599  0.5816 -0.0119
 3134TIP3    H1 9408   1.216   1.656   1.433 -0.7619  0.4793 -1.3023
 3134TIP3    H2 9409   1.357   1.631   1.384 -0.4498  2.0916 -1.2766
 3135TIP3   OH2 9410   0.889   1.361   3.574  0.1899  0.0908 -0.4343
 3135TIP3    H1 9411   0.827   1.368   3.502 -1.1612 -2.6513  0.3290
 3135TIP3    H2 9412   0.884   1.269   3.602  3.2114  0.2068  0.9298
 3136TIP3   OH2 9413   5.871   2.027   1.626  0.2539  0.5924 -0.0891
 3136TIP3    H1 9414   5.820   2.005   1.704  0.7491 -1.7929 -0.3628
 3136TIP3    H2 9415   5.962   2.025   1.655  0.4495 -0.4286 -0.7365
 3137TIP3   OH2 9416   1.817   3.898   0.053 -0.6048  0.2707 -0.5385
 3137TIP3    H1 9417   1.847   3.834  -0.011  2.0109 -0.3064  1.1160
 3137TIP3    H2 9418   1.855   3.981   0.024 -0.0908  0.1612 -0.1908
 3138TIP3   OH2 9419   1.132   0.513   2.305  0.1713 -0.5134 -0.3448
 3138TIP3    H1 9420   1.155   0.535   2.215 -1.2718  1.4749 -0.3102
 3138TIP3    H2 9421   1.038   0.495   2.301  0.2297 -1.0921  0.6566
 3139TIP3   OH2 9422   3.517   1.389   2.815  0.1610 -0.3138 -0.4300
 3139TIP3    H1 9423   3.453   1.447   2.773 -1.4176 -0.0134  2.1636
 3139TIP3    H2 9424   3.592   1.445   2.833  0.7837 -0.4007 -2.5094
 3140TIP3   OH2 9425   2.337   5.458   2.216  0.3847 -0.1806  0.7748
 3140TIP3    H1 9426   2.278   5.447   2.141 -1.1385 -0.1860  1.9423
 3140TIP3    H2 9427   2.345   5.553   2.225  0.2309 -0.1751  0.8592
 3141TIP3   OH2 9428   5.785   1.198   0.093 -0.5909  0.6841 -0.1325
 3141TIP3    H1 9429   5.775   1.103   0.094 -1.2623  0.7057 -1.7639
 3141TIP3    H2 9430   5.712   1.231   0.144 -0.8087  0.3529 -0.2292
 3142TIP3   OH2 9431   3.572   4.943   3.758 -0.2020 -0.4215 -0.1725
 3142TIP3    H1 9432   3.477   4.934   3.750 -0.2510  0.0893 -0.2447
 3142TIP3    H2 9433   3.584   5.004   3.830 -0.0127  1.0535 -1.3816
 3143TIP3   OH2 9434   5.841   4.591   1.110 -0.1486 -0.9530 -0.1828
 3143TIP3    H1 9435   5.826   4.656   1.042  0.9967  0.5005  0.8834
 3143TIP3    H2 9436   5.769   4.604   1.172  0.5875 -0.0093  0.5051
 3144TIP3   OH2 9437   5.021   0.355   4.404  0.0730 -0.1643  0.2168
 3144TIP3    H1 9438   5.091   0.317   4.457  0.3098 -3.0125 -1.8983
 3144TIP3    H2 9439   5.066   0.413   4.343  0.3190 -0.2280  0.3365
 3145TIP3   OH2 9440   5.701   0.686   0.887  0.0761  0.2801 -0.4672
 3145TIP3    H1 9441   5.709   0.624   0.959  1.0296  0.8180 -0.0775
 3145TIP3    H2 9442   5.755   0.649   0.817 -0.8625 -0.2500 -0.9249
 3146TIP3   OH2 9443   3.193   0.105   0.098  0.0491 -0.2429 -0.7296
 3146TIP3    H1 9444   3.156   0.046   0.033 -1.7345 -0.1612  0.1263
 3146TIP3    H2 9445   3.155   0.075   0.181 -2.0496  2.8173 -0.3987
 3147TIP3   OH2 9446   1.607   1.285   1.643 -0.1181 -0.5455 -0.0046
 3147TIP3    H1 9447   1.686   1.330   1.615 -1.3636  0.5141 -2.0995
 3147TIP3    H2 9448   1.632   1.192   1.647  1.0062 -0.3542 -1.5851
 3148TIP3   OH2 9449   0.174   3.297   4.678 -0.7436 -0.0686 -0.3513
 3148TIP3    H1 9450   0.232   3.363   4.640 -1.2267  0.5900  0.0181
 3148TIP3    H2 9451   0.097   3.347   4.704 -0.6548 -0.5843  0.9637
 3149TIP3   OH2 9452   0.830   4.442   4.276 -0.2544  0.1683  0.0253
 3149TIP3    H1 9453   0.922   4.436   4.302 -0.0326  1.0337 -0.4802
 3149TIP3    H2 9454   0.806   4.354   4.248 -0.1181 -0.4725  1.8429
 3150TIP3   OH2 9455   3.581   5.543   0.433 -0.4663 -0.3347  0.1886
 3150TIP3    H1 9456   3.549   5.532   0.344 -1.9428  0.9480  0.5238
 3150TIP3    H2 9457   3.672   5.513   0.430 -0.5782 -0.5812 -1.6669
 3151TIP3   OH2 9458   4.772   1.592   3.091  0.4200 -0.0916 -0.0281
 3151TIP3    H1 9459   4.718   1.594   3.012  0.7534  2.3386 -0.2709
 3151TIP3    H2 9460   4.861   1.611   3.061  0.4159  1.7236  0.9591
 3152TIP3   OH2 9461   0.604   4.050   4.082 -0.3398 -0.5310 -0.3515
 3152TIP3    H1 9462   0.545   3.979   4.109  0.6197 -1.2187 -0.0443
 3152TIP3    H2 9463   0.606   4.044   3.987  1.2304 -2.1706 -0.2562
 3153TIP3   OH2 9464   3.298   2.752   0.784 -0.8895 -0.2938 -0.4176
 3153TIP3    H1 9465   3.220   2.703   0.808  0.6593 -2.0556  1.3460
 3153TIP3    H2 9466   3.371   2.699   0.815  1.1563  0.4596 -3.4301
 3154TIP3   OH2 9467   0.286   4.385   3.736 -0.0925  0.1330 -0.0892
 3154TIP3    H1 9468   0.352   4.317   3.745 -0.2112 -0.0537 -0.5971
 3154TIP3    H2 9469   0.204   4.343   3.766  0.2382  0.7910  1.9236
 3155TIP3   OH2 9470   5.177   3.950   3.973  0.5900  0.1011 -0.0871
 3155TIP3    H1 9471   5.092   3.925   4.010  1.4596 -1.0644  1.2628
 3155TIP3    H2 9472   5.163   4.037   3.937 -1.2565 -0.1981 -0.1867
 3156TIP3   OH2 9473   4.677   0.663   3.317 -0.9412  0.1829 -0.0591
 3156TIP3    H1 9474   4.642   0.598   3.377 -0.5713  0.2173  0.2012
 3156TIP3    H2 9475   4.679   0.745   3.368 -0.5028  0.1822 -0.0703
 3157TIP3   OH2 9476   0.665   3.023   3.305  0.1491 -0.3229  0.7841
 3157TIP3    H1 9477   0.720   2.978   3.240 -1.9321  0.9559 -2.0885
 3157TIP3    H2 9478   0.633   2.952   3.361 -0.1778 -1.9815 -1.3397
 3158TIP3   OH2 9479   4.391   3.992   0.970 -0.1670 -0.7955  0.5215
 3158TIP3    H1 9480   4.421   3.960   0.885 -0.9182 -0.3525  0.0802
 3158TIP3    H2 9481   4.469   3.989   1.026  0.6568  0.1167 -0.5341
 3159TIP3   OH2 9482   4.832   4.330   3.441 -0.6479 -0.3474 -0.2799
 3159TIP3    H1 9483   4.803   4.266   3.377  1.9698 -0.7600 -1.1625
 3159TIP3    H2 9484   4.927   4.334   3.430 -0.5271  2.4095  0.9516
 3160TIP3   OH2 9485   2.508   4.675   3.335  0.5522  0.7622 -0.3610
 3160TIP3    H1 9486   2.533   4.723   3.256 -0.2545  0.4248 -0.8382
 3160TIP3    H2 9487   2.591   4.643   3.371  0.8317 -0.8539 -2.2367
 3161TIP3   OH2 9488   5.110   2.775   1.496 -0.0461 -0.4090 -0.1310
 3161TIP3    H1 9489   5.135   2.688   1.525  2.0665  0.3606  0.5736
 3161TIP3    H2 9490   5.068   2.761   1.411 -0.0241 -2.1209  0.1073
 3162TIP3   OH2 9491   0.417   4.067   2.818  0.1335  0.6021 -0.2536
 3162TIP3    H1 9492   0.402   4.099   2.907  0.1795  0.9466 -0.3697
 3162TIP3    H2 9493   0.477   4.130   2.779  0.0782  0.4771 -0.5462
 3163TIP3   OH2 9494   3.516   4.326   1.570 -0.3879 -0.3209 -0.4175
 3163TIP3    H1 9495   3.508   4.232   1.555 -2.2969  0.0395 -2.0582
 3163TIP3    H2 9496   3.517   4.365   1.483  2.2244  1.1208  0.1663
 3164TIP3   OH2 9497   1.477   0.981   2.859  0.1671 -0.0844 -0.1681
 3164TIP3    H1 9498   1.417   1.008   2.929  1.6491  0.1110  1.0764
 3164TIP3    H2 9499   1.453   0.890   2.841 -0.5037 -0.0108  0.2951
 3165TIP3   OH2 9500   1.071   4.786   0.425 -0.3841 -0.1150  0.3460
 3165TIP3    H1 9501   1.041   4.817   0.339 -0.1926  1.7363  0.8998
 3165TIP3    H2 9502   1.052   4.692   0.425 -1.8700  0.1401 -1.1015
 3166TIP3   OH2 9503   5.064   5.732   3.162 -0.2477 -0.3182 -0.2142
 3166TIP3    H1 9504   5.058   5.777   3.246  0.0829  2.0288 -1.3794
 3166TIP3    H2 9505   5.157   5.730   3.142 -0.4727  1.8602 -1.8330
 3167TIP3   OH2 9506   4.926   1.969   1.356  0.2079 -0.0526 -0.1441
 3167TIP3    H1 9507   4.876   2.045   1.328  0.1578  0.3671  1.0118
 3167TIP3    H2 9508   4.990   2.004   1.419 -0.4482 -1.0661  1.1460
 3168TIP3   OH2 9509   3.554   4.091   3.500 -0.5781 -0.0291  0.7167
 3168TIP3    H1 9510   3.482   4.154   3.484 -1.4203 -1.0342  0.4401
 3168TIP3    H2 9511   3.520   4.008   3.467  0.6516 -0.5702  0.7867
 3169TIP3   OH2 9512   3.613   0.550   4.926  0.3195 -0.0265 -0.6419
 3169TIP3    H1 9513   3.697   0.543   4.971  1.1871 -2.1864 -2.4131
 3169TIP3    H2 9514   3.562   0.476   4.957 -1.3569  1.7464  1.0659
 3170TIP3   OH2 9515   1.856   4.799   1.170  0.1861 -0.3796 -0.5628
 3170TIP3    H1 9516   1.860   4.711   1.207 -2.0500 -0.7815 -1.1398
 3170TIP3    H2 9517   1.818   4.852   1.239  2.5460  0.4702  0.2045
 3171TIP3   OH2 9518   1.359   3.152   1.415  0.1354  0.2350 -0.2355
 3171TIP3    H1 9519   1.427   3.086   1.424 -0.2105 -0.0572  0.2669
 3171TIP3    H2 9520   1.283   3.104   1.382 -0.6002  0.0610  1.5952
 3172TIP3   OH2 9521   6.131   1.309   5.079 -0.0302 -0.0920 -0.0505
 3172TIP3    H1 9522   6.127   1.280   5.170  1.4479  0.5005  0.2253
 3172TIP3    H2 9523   6.057   1.265   5.037 -0.2729 -0.9916  1.2574
 3173TIP3   OH2 9524  -0.000   5.586   2.994  0.0088 -0.4073 -0.2467
 3173TIP3    H1 9525   0.004   5.573   2.900  0.2960 -0.7223 -0.1898
 3173TIP3    H2 9526   0.081   5.549   3.028 -0.2222 -0.5562  0.1567
 3174TIP3   OH2 9527   5.805   5.681   1.563 -0.5384 -0.2685  0.1706
 3174TIP3    H1 9528   5.812   5.645   1.474 -1.1995 -0.1043  0.0460
 3174TIP3    H2 9529   5.875   5.639   1.611 -0.0897 -0.2672 -0.4636
 3175TIP3   OH2 9530   1.078   3.499   2.291  0.2870  0.0166  0.0953
 3175TIP3    H1 9531   1.145   3.488   2.358  0.4445  2.2403  0.3520
 3175TIP3    H2 9532   1.124   3.538   2.217 -0.4417  0.1528 -0.2938
 3176TIP3   OH2 9533   5.102   2.422   2.181  0.2572  0.2174  0.1175
 3176TIP3    H1 9534   5.074   2.511   2.202  1.0548  0.6408 -0.5863
 3176TIP3    H2 9535   5.187   2.413   2.224 -0.1775 -0.4928  0.8559
 3177TIP3   OH2 9536  -0.005   4.358   4.230  0.2032  1.3224  0.0010
 3177TIP3    H1 9537   0.055   4.373   4.158 -0.8288  0.1262 -1.1778
 3177TIP3    H2 9538   0.042   4.386   4.308  1.8257  1.4903 -1.0072
 3178TIP3   OH2 9539   4.375   3.563   3.422  0.1761  0.4185 -0.0506
 3178TIP3    H1 9540   4.317   3.603   3.357  0.7936  0.6875 -0.4366
 3178TIP3    H2 9541   4.418   3.491   3.375 -0.5489 -0.4038  0.4965
 3179TIP3   OH2 9542   0.523   1.492   3.636 -0.3438  0.0516 -0.7200
 3179TIP3    H1 9543   0.568   1.574   3.656 -1.0175  0.0062  1.1907
 3179TIP3    H2 9544   0.592   1.435   3.600  0.9888  0.2608  1.3488
 3180TIP3   OH2 9545   2.337   0.902   3.473  0.3256 -0.4809 -0.0227
 3180TIP3    H1 9546   2.405   0.959   3.437  0.0060 -0.0767  0.0103
 3180TIP3    H2 9547   2.376   0.815   3.471  1.1408 -0.1485  0.7174
 3181TIP3   OH2 9548   2.837   3.862   2.443 -0.3220  0.0491 -0.3475
 3181TIP3    H1 9549   2.809   3.945   2.404 -0.3560  1.2603  2.0624
 3181TIP3    H2 9550   2.861   3.808   2.368 -1.9358  1.5974 -2.1175
 3182TIP3   OH2 9551   4.270   5.284   3.172 -0.2873  0.0060  0.1175
 3182TIP3    H1 9552   4.267   5.376   3.145 -0.6018 -0.0314  0.0190
 3182TIP3    H2 9553   4.291   5.236   3.091  0.4501  0.0408  0.2865
 3183TIP3   OH2 9554   5.852   5.789   0.348  0.6015  0.3235 -0.1342
 3183TIP3    H1 9555   5.865   5.801   0.254 -0.1228 -0.6286 -0.3827
 3183TIP3    H2 9556   5.846   5.877   0.383  0.8318  0.6950 -0.9957
 3184TIP3   OH2 9557   1.191   3.227   0.879 -0.3145 -0.0065 -0.3142
 3184TIP3    H1 9558   1.172   3.141   0.842 -1.0921 -0.2621  0.6572
 3184TIP3    H2 9559   1.282   3.244   0.855  0.1188 -1.4747  0.2161
 3185TIP3   OH2 9560   0.710   5.138   2.872  0.9909 -0.4420  0.3065
 3185TIP3    H1 9561   0.753   5.108   2.792  1.2294  0.0394  0.2500
 3185TIP3    H2 9562   0.780   5.139   2.938  0.6955 -1.2980  0.6511
 3186TIP3   OH2 9563   2.723   3.881   4.436 -0.0074  0.3496  0.7760
 3186TIP3    H1 9564   2.816   3.895   4.418  0.1296 -0.6831  0.6307
 3186TIP3    H2 9565   2.696   3.816   4.371 -0.2832 -1.0351  2.2167
 3187TIP3   OH2 9566   5.850   3.973   4.062 -0.0637  0.0040  0.6797
 3187TIP3    H1 9567   5.785   4.037   4.093  0.3813  0.0200  1.6119
 3187TIP3    H2 9568   5.878   3.928   4.141  1.3597  0.2730  0.3466
 3188TIP3   OH2 9569   0.265   0.063   3.991 -0.3679 -0.1241  0.2324
 3188TIP3    H1 9570   0.187   0.010   3.975  0.4112 -1.3965  0.4525
 3188TIP3    H2 9571   0.335  -0.002   4.005  0.5943  0.9736  0.6642
 3189TIP3   OH2 9572   1.858   3.346   4.003 -0.3313  0.4852  0.4474
 3189TIP3    H1 9573   1.936   3.364   3.951  0.0895  0.3573  1.0122
 3189TIP3    H2 9574   1.882   3.372   4.092 -0.7251 -0.0993  0.7388
 3190TIP3   OH2 9575   1.155   5.219   2.920 -0.3069 -0.0489  0.0481
 3190TIP3    H1 9576   1.087   5.277   2.887 -0.0130  1.1452  1.4510
 3190TIP3    H2 9577   1.108   5.142   2.951 -0.9441  0.4213  0.2663
 3191TIP3   OH2 9578   4.331   0.563   3.411  0.0112  0.2066  0.4159
 3191TIP3    H1 9579   4.303   0.623   3.480  0.4287 -0.0198  0.7888
 3191TIP3    H2 9580   4.389   0.501   3.456  0.2410  0.0249 -0.1288
 3192TIP3   OH2 9581   2.911   5.826   0.091 -0.0006  0.3854 -0.4209
 3192TIP3    H1 9582   2.930   5.733   0.079 -0.7999  0.0868  0.5578
 3192TIP3    H2 9583   2.950   5.868   0.014  2.2385 -0.5010  0.1420
 3193TIP3   OH2 9584   3.942   4.961   2.071 -0.3393 -0.2892 -0.3559
 3193TIP3    H1 9585   3.937   4.873   2.033  0.7092 -0.5518  0.0699
 3193TIP3    H2 9586   3.952   5.019   1.996 -0.0555 -0.6350 -0.5936
 3194TIP3   OH2 9587   0.941   2.372   1.473  0.2845 -0.5963  0.2504
 3194TIP3    H1 9588   0.937   2.407   1.562 -1.7575 -0.3122  0.1130
 3194TIP3    H2 9589   0.974   2.444   1.420  1.3807 -0.7219  0.7382
 3195TIP3   OH2 9590   4.608   5.131   1.840 -0.7916 -0.1626  0.0844
 3195TIP3    H1 9591   4.589   5.049   1.795  1.3686 -1.0293  0.6268
 3195TIP3    H2 9592   4.699   5.150   1.818 -1.1171  1.8688  0.3401
 3196TIP3   OH2 9593   2.443   0.727   1.480  0.5205 -0.0543  0.3173
 3196TIP3    H1 9594   2.374   0.664   1.461 -0.8649  1.7288 -0.9409
 3196TIP3    H2 9595   2.491   0.736   1.398 -1.1215  2.5540 -0.4870
 3197TIP3   OH2 9596   1.984   2.614   2.732 -0.0796  0.0442 -0.1285
 3197TIP3    H1 9597   1.941   2.633   2.649  0.3324  0.3700 -0.2731
 3197TIP3    H2 9598   2.072   2.651   2.722 -0.7015  2.0568  1.2374
 3198TIP3   OH2 9599   5.618   3.079   3.545 -0.2521  0.0705 -0.1792
 3198TIP3    H1 9600   5.636   2.991   3.510 -1.2992  0.5663 -2.1510
 3198TIP3    H2 9601   5.702   3.110   3.576  0.3902 -1.1646 -0.6096
 3199TIP3   OH2 9602   5.195   0.535   4.249 -0.0577 -0.2272 -0.3471
 3199TIP3    H1 9603   5.270   0.529   4.309 -0.8004 -1.4184  0.5018
 3199TIP3    H2 9604   5.228   0.584   4.174  1.4214 -0.2765  0.2460
 3200TIP3   OH2 9605   1.428   5.317   4.013  0.0049 -0.1352  0.8402
 3200TIP3    H1 9606   1.422   5.222   4.002  0.1562  0.0374 -0.9257
 3200TIP3    H2 9607   1.457   5.350   3.928  1.8553  1.3342  1.9653
 3201TIP3   OH2 9608   0.967   0.235   2.478 -0.6764  0.4119 -0.1444
 3201TIP3    H1 9609   1.003   0.215   2.564  0.7871  0.9582 -0.5959
 3201TIP3    H2 9610   0.984   0.157   2.426  0.3516  0.8454 -0.4898
 3202TIP3   OH2 9611   1.703   2.336   0.593 -0.3170 -0.3072  0.1700
 3202TIP3    H1 9612   1.732   2.267   0.653 -1.8575 -2.3029 -1.2357
 3202TIP3    H2 9613   1.652   2.396   0.648 -3.3642 -3.0877  0.7239
 3203TIP3   OH2 9614   0.244   3.690   1.745  0.1806  0.5799  0.0572
 3203TIP3    H1 9615   0.259   3.696   1.840  0.0847  0.9554  0.0508
 3203TIP3    H2 9616   0.158   3.648   1.737 -0.2949  1.5011  0.1636
 3204TIP3   OH2 9617   1.491   5.540   0.021  0.5745 -0.4344  0.2404
 3204TIP3    H1 9618   1.545   5.613   0.051  0.0992 -0.2309  0.6262
 3204TIP3    H2 9619   1.516   5.467   0.077  1.4334 -0.7196 -0.4998
 3205TIP3   OH2 9620   1.836   2.784   3.613 -0.2702 -1.0619  0.0523
 3205TIP3    H1 9621   1.827   2.722   3.541  2.0666 -0.5809 -0.7177
 3205TIP3    H2 9622   1.880   2.860   3.575  0.4438 -0.5315  1.8301
 3206TIP3   OH2 9623   5.301   5.159   1.859  0.0065 -0.2436  0.2798
 3206TIP3    H1 9624   5.261   5.244   1.842 -0.3279 -0.6646 -1.1172
 3206TIP3    H2 9625   5.289   5.109   1.778  0.3200 -1.5785  1.0213
 3207TIP3   OH2 9626   1.467   4.363   0.229 -0.8875  0.3734  0.7290
 3207TIP3    H1 9627   1.389   4.386   0.179  0.4421 -0.3182 -1.8198
 3207TIP3    H2 9628   1.536   4.420   0.195  0.2352 -0.6478  1.2142
 3208TIP3   OH2 9629   3.458   0.709   4.484  0.4830 -0.3481  0.2373
 3208TIP3    H1 9630   3.527   0.723   4.548 -0.7880 -2.4062  2.2504
 3208TIP3    H2 9631   3.503   0.675   4.407  1.7863 -1.5175  1.4481
 3209TIP3   OH2 9632   5.330   2.612   4.843  0.3984  0.3001  0.4355
 3209TIP3    H1 9633   5.368   2.605   4.931 -0.6415  0.5331  0.9310
 3209TIP3    H2 9634   5.276   2.534   4.834 -2.6545  2.0372  1.6662
 3210TIP3   OH2 9635   5.804   4.493   1.627 -0.2460 -0.7881  0.3819
 3210TIP3    H1 9636   5.753   4.436   1.685 -1.3986 -0.9298 -0.7367
 3210TIP3    H2 9637   5.861   4.542   1.687 -1.4147 -0.8985  1.6471
 3211TIP3   OH2 9638   4.540   0.830   3.566  0.2150  0.1740 -0.1643
 3211TIP3    H1 9639   4.541   0.764   3.635 -0.7263  0.1604 -0.1476
 3211TIP3    H2 9640   4.540   0.914   3.613 -2.0343  0.1789 -0.0479
 3212TIP3   OH2 9641   0.723   1.840   4.142 -0.2656 -0.2041 -0.2250
 3212TIP3    H1 9642   0.676   1.911   4.098  0.1551  0.4830  0.3997
 3212TIP3    H2 9643   0.803   1.829   4.090 -1.4860 -2.0210 -1.8481
 3213TIP3   OH2 9644   1.993   2.131   5.147  0.0184  0.2347 -0.3978
 3213TIP3    H1 9645   1.998   2.197   5.216 -0.5007  0.7112 -0.8065
 3213TIP3    H2 9646   2.065   2.071   5.166  0.1335  0.5885  0.3196
 3214TIP3   OH2 9647   0.977   4.230   3.019 -0.2472 -0.1551 -0.2010
 3214TIP3    H1 9648   0.931   4.313   3.008 -0.4860 -0.2614 -0.0124
 3214TIP3    H2 9649   1.034   4.245   3.095 -0.0337 -0.0557 -0.3755
 3215TIP3   OH2 9650   2.762   1.007   2.195  0.4674 -0.1261  0.5931
 3215TIP3    H1 9651   2.711   1.048   2.125 -2.2919 -2.6715  0.9133
 3215TIP3    H2 9652   2.824   0.950   2.148  0.3273  0.0494  0.1917
 3216TIP3   OH2 9653   1.276   0.302   2.452 -0.7581  0.0445  0.1209
 3216TIP3    H1 9654   1.200   0.281   2.505 -1.4240  0.5162 -0.6216
 3216TIP3    H2 9655   1.243   0.362   2.385 -0.4884 -2.3298 -2.2879
 3217TIP3   OH2 9656   0.251   2.932   5.086 -0.0088 -0.4785  0.9283
 3217TIP3    H1 9657   0.316   2.945   5.155 -0.3618  1.8332  0.8883
 3217TIP3    H2 9658   0.192   3.006   5.093 -0.1124 -0.1747 -1.7761
 3218TIP3   OH2 9659   5.126   2.836   3.850  0.1510  0.1641 -0.2529
 3218TIP3    H1 9660   5.136   2.741   3.849  1.2351  0.2625 -0.2168
 3218TIP3    H2 9661   5.131   2.860   3.943  0.7509  0.3283 -0.3228
 3219TIP3   OH2 9662   5.022   2.192   4.151  0.3376 -0.0915  0.0382
 3219TIP3    H1 9663   5.044   2.176   4.059  0.8782  1.3746 -0.1065
 3219TIP3    H2 9664   4.928   2.172   4.156  0.3139 -0.2575 -0.8161
 3220TIP3   OH2 9665   2.866   4.795   3.238 -0.3446 -0.3570  0.1459
 3220TIP3    H1 9666   2.882   4.711   3.281  1.4152 -0.0461  0.1771
 3220TIP3    H2 9667   2.809   4.774   3.165 -0.5932 -1.4420  0.6279
 3221TIP3   OH2 9668   5.429   3.673   4.595 -0.7637 -0.2570 -0.2140
 3221TIP3    H1 9669   5.492   3.623   4.544 -1.0444 -1.8245  0.9158
 3221TIP3    H2 9670   5.371   3.712   4.529 -0.7312 -1.6921 -1.1328
 3222TIP3   OH2 9671   4.333   5.835   1.821  0.8335  0.2336 -0.3791
 3222TIP3    H1 9672   4.427   5.843   1.836  1.2098  0.5761 -2.6297
 3222TIP3    H2 9673   4.293   5.879   1.896  2.5093  1.5480 -0.2009
 3223TIP3   OH2 9674   2.466   0.232   4.243  0.2110 -0.4149 -0.4675
 3223TIP3    H1 9675   2.393   0.185   4.284 -0.1893 -0.3610 -1.0977
 3223TIP3    H2 9676   2.481   0.308   4.300  0.4980 -1.0056  0.2577
 3224TIP3   OH2 9677   3.354   0.970   4.948 -0.0874  0.3691  0.6087
 3224TIP3    H1 9678   3.414   0.972   5.022  3.5225 -0.7440 -2.0088
 3224TIP3    H2 9679   3.347   0.877   4.924  0.5800  0.8160 -1.6175
 3225TIP3   OH2 9680   4.647   4.601   2.234 -0.9681  0.3497  0.4050
 3225TIP3    H1 9681   4.669   4.522   2.183  0.3261  0.5498  0.6120
 3225TIP3    H2 9682   4.581   4.571   2.297 -2.0918 -0.0532 -0.9309
 3226TIP3   OH2 9683   0.929   0.846   2.463  0.2323 -0.2939  0.4864
 3226TIP3    H1 9684   0.864   0.781   2.490 -0.4246  0.4434  0.6843
 3226TIP3    H2 9685   0.915   0.856   2.368  0.1066 -0.1820  0.5177
 3227TIP3   OH2 9686   2.273   0.531   2.502 -0.7956  0.4380 -0.1423
 3227TIP3    H1 9687   2.312   0.570   2.580 -0.6155  0.1917 -0.1086
 3227TIP3    H2 9688   2.319   0.572   2.429  0.9528 -1.2852 -0.0852
 3228TIP3   OH2 9689   4.916   3.539   1.009  0.5895 -0.0057 -0.0509
 3228TIP3    H1 9690   4.927   3.475   1.079  0.9580 -0.7022 -0.7303
 3228TIP3    H2 9691   4.830   3.518   0.971 -0.1390  1.0960  0.8920
 3229TIP3   OH2 9692   2.671   3.651   2.832  0.2704 -0.4410  0.1571
 3229TIP3    H1 9693   2.696   3.724   2.889  2.0950 -0.6913 -0.2805
 3229TIP3    H2 9694   2.598   3.609   2.878 -1.6850  2.3434 -0.1682
 3230TIP3   OH2 9695   1.257   5.977   4.130  0.5826 -0.1390 -0.2009
 3230TIP3    H1 9696   1.177   5.979   4.077  1.4792  1.5904 -1.6063
 3230TIP3    H2 9697   1.321   5.934   4.074  0.9144 -0.5656  0.4983
 3231TIP3   OH2 9698   1.989   1.973   2.892 -0.3073 -0.1782  0.0938
 3231TIP3    H1 9699   1.916   1.918   2.922 -0.4620  0.6070  1.2320
 3231TIP3    H2 9700   1.982   2.052   2.946  1.5615 -0.2112  0.4249
 3232TIP3   OH2 9701   4.023   2.438   5.024  0.1720  0.6306  0.1709
 3232TIP3    H1 9702   4.030   2.529   4.995  0.8842  0.2471 -0.9343
 3232TIP3    H2 9703   3.949   2.403   4.974 -0.6087  0.7941  1.1778
 3233TIP3   OH2 9704   5.963   5.806   3.486 -0.4619  0.4783  0.4723
 3233TIP3    H1 9705   5.988   5.814   3.394 -1.2500  3.4978  0.4017
 3233TIP3    H2 9706   5.916   5.723   3.491 -1.5939  0.8482 -2.1833
 3234TIP3   OH2 9707   2.001   0.329   1.401 -0.5784  0.6520 -0.5443
 3234TIP3    H1 9708   2.062   0.315   1.329 -0.7855  1.0312 -0.7995
 3234TIP3    H2 9709   1.930   0.266   1.385  0.7398 -1.2967  0.9285
 3235TIP3   OH2 9710   1.085   1.828   2.997 -0.2016  0.3980  0.7879
 3235TIP3    H1 9711   1.007   1.867   3.035 -0.4631  1.3340 -0.6368
 3235TIP3    H2 9712   1.155   1.891   3.015 -0.1892  0.5160  0.3473
 3236TIP3   OH2 9713   5.986   2.649   0.703  0.2595  0.1081  0.0993
 3236TIP3    H1 9714   5.909   2.592   0.701 -0.4626  1.0693 -0.8429
 3236TIP3    H2 9715   5.975   2.706   0.627  1.8970  0.2916 -0.0233
 3237TIP3   OH2 9716   4.957   4.592   0.080 -0.3126  0.1738  0.2532
 3237TIP3    H1 9717   4.978   4.584  -0.013 -0.1122  2.2304  0.0831
 3237TIP3    H2 9718   5.040   4.615   0.121 -0.9552  2.3659  0.4521
 3238TIP3   OH2 9719   5.093   3.403   4.867  0.2300 -0.3762 -0.2384
 3238TIP3    H1 9720   5.094   3.319   4.913  0.2175 -0.5329 -0.5275
 3238TIP3    H2 9721   5.180   3.440   4.884  0.1350 -0.3114  0.1310
 3239TIP3   OH2 9722   5.764   5.083   4.305  0.3851  0.7717  0.1417
 3239TIP3    H1 9723   5.793   5.148   4.369 -0.7980  0.8439  0.6424
 3239TIP3    H2 9724   5.745   5.005   4.357 -1.1104  1.0025 -0.0076
 3240TIP3   OH2 9725   5.089   5.062   1.656  0.4076  0.1732 -0.7483
 3240TIP3    H1 9726   5.023   5.117   1.614  0.6194  0.0461 -1.2480
 3240TIP3    H2 9727   5.116   5.000   1.589  0.0789 -0.6379 -0.1473
 3241TIP3   OH2 9728   4.165   4.711   3.040 -0.1409  0.1893  0.9483
 3241TIP3    H1 9729   4.202   4.665   2.965  2.0922  1.9086  0.9153
 3241TIP3    H2 9730   4.092   4.760   3.004  0.1443  0.0445  0.1515
 3242TIP3   OH2 9731   0.059   0.096   4.715  0.0966  0.4642 -0.0153
 3242TIP3    H1 9732   0.007   0.069   4.639 -1.3782  1.8762  0.4365
 3242TIP3    H2 9733  -0.006   0.111   4.784  1.2362  1.0380  0.9609
 3243TIP3   OH2 9734   0.693   1.658   0.394  0.5144 -1.0116 -0.0798
 3243TIP3    H1 9735   0.723   1.577   0.436 -2.1893 -0.6124  3.0129
 3243TIP3    H2 9736   0.765   1.719   0.409  0.8834 -1.7386  1.3896
 3244TIP3   OH2 9737   4.539   5.522   4.856 -0.1393 -0.1969  0.0901
 3244TIP3    H1 9738   4.457   5.571   4.861 -0.0644  0.2727 -2.1006
 3244TIP3    H2 9739   4.527   5.462   4.782  1.7009  0.3558 -0.7242
 3245TIP3   OH2 9740   0.329   5.453   1.912 -0.2585 -0.2610  0.1162
 3245TIP3    H1 9741   0.417   5.490   1.924 -0.3859 -0.4901  2.2118
 3245TIP3    H2 9742   0.283   5.517   1.858  1.4019 -0.5414 -1.7531
 3246TIP3   OH2 9743   0.332   5.843   0.260 -0.1309 -0.3136 -0.3447
 3246TIP3    H1 9744   0.265   5.777   0.277 -0.1705 -0.3744 -0.7135
 3246TIP3    H2 9745   0.294   5.898   0.191 -0.4513  0.6155  0.5539
 3247TIP3   OH2 9746   2.419   3.900   0.481 -0.2276 -0.1807 -0.1189
 3247TIP3    H1 9747   2.377   3.862   0.558  1.0063  0.5805  0.9729
 3247TIP3    H2 9748   2.351   3.897   0.413 -2.8304  2.8197  2.0411
 3248TIP3   OH2 9749   6.083   2.262   4.401 -0.1637 -0.2789 -0.0049
 3248TIP3    H1 9750   6.135   2.342   4.388  1.3579 -1.3514 -0.9219
 3248TIP3    H2 9751   6.033   2.253   4.320  0.2147 -0.6266 -0.2029
 3249TIP3   OH2 9752   4.337   4.023   5.147 -0.4900 -0.1932 -0.3090
 3249TIP3    H1 9753   4.433   4.033   5.147 -0.2632 -1.5869  2.0917
 3249TIP3    H2 9754   4.305   4.098   5.198 -0.6903  0.1484 -0.9211
 3250TIP3   OH2 9755   1.022   0.118   4.354  0.2663 -0.6588 -0.2295
 3250TIP3    H1 9756   0.947   0.071   4.391 -0.7799  1.1778  0.0743
 3250TIP3    H2 9757   1.090   0.109   4.421 -0.3202 -0.6826  0.3774
 3251TIP3   OH2 9758   4.887   2.809   3.279 -0.1748 -0.3323  0.5723
 3251TIP3    H1 9759   4.848   2.721   3.283  0.9550 -0.8121  1.4632
 3251TIP3    H2 9760   4.813   2.868   3.294 -0.8461 -1.1539  0.5915
 3252TIP3   OH2 9761   0.595   3.880   3.770 -0.3077  0.2730  0.0607
 3252TIP3    H1 9762   0.567   3.882   3.679 -0.1605  1.7215  0.0223
 3252TIP3    H2 9763   0.518   3.851   3.819  0.1280 -2.3900 -0.6475
 3253TIP3   OH2 9764   4.598   5.723   3.883  0.1364 -0.0506  0.1589
 3253TIP3    H1 9765   4.681   5.723   3.837 -0.0296 -0.5685 -0.1525
 3253TIP3    H2 9766   4.542   5.664   3.831 -0.0588 -0.6239  1.0079
 3254TIP3   OH2 9767   0.522   3.459   3.602  0.1820  0.5683  0.1841
 3254TIP3    H1 9768   0.472   3.503   3.671  1.3960 -0.4917  1.8201
 3254TIP3    H2 9769   0.471   3.380   3.583  0.3920  0.3090  0.6755
 3255TIP3   OH2 9770   2.838   0.876   2.588 -0.2036  0.0584  0.1114
 3255TIP3    H1 9771   2.823   0.939   2.659 -0.6378 -1.0915  1.0876
 3255TIP3    H2 9772   2.835   0.790   2.632  4.3821 -0.5834 -0.3942
 3256TIP3   OH2 9773   4.163   3.368   4.284  0.3169  0.0311 -0.0100
 3256TIP3    H1 9774   4.183   3.462   4.274  2.2545 -0.5766 -3.8010
 3256TIP3    H2 9775   4.078   3.357   4.243  0.0286  0.1431  0.5557
 3257TIP3   OH2 9776   6.029   3.582   2.535  0.5583 -0.0059 -0.2788
 3257TIP3    H1 9777   5.995   3.573   2.623  0.1658 -0.1158 -0.4388
 3257TIP3    H2 9778   5.951   3.595   2.480  0.8120  0.3029 -0.5762
 3258TIP3   OH2 9779   0.029   2.618   0.153 -0.1850  0.2145 -0.1419
 3258TIP3    H1 9780   0.079   2.545   0.117  1.4891  1.7997 -1.2107
 3258TIP3    H2 9781  -0.041   2.576   0.204 -0.2755 -2.1165 -1.9861
 3259TIP3   OH2 9782   2.153   0.268   1.199 -0.2819  0.1688  0.3847
 3259TIP3    H1 9783   2.242   0.244   1.223 -0.4159 -0.5517  0.1919
 3259TIP3    H2 9784   2.160   0.301   1.110 -0.5780 -2.6576 -0.8022
 3260TIP3   OH2 9785   5.443   5.638   2.605  0.4425 -0.5897  0.5719
 3260TIP3    H1 9786   5.406   5.661   2.520  0.4129 -0.7323  0.5463
 3260TIP3    H2 9787   5.440   5.720   2.655  1.4890 -0.2335  0.0708
 3261TIP3   OH2 9788   0.839   2.639   5.046  0.5223 -0.0268  0.2439
 3261TIP3    H1 9789   0.924   2.682   5.037  0.1073  0.7024 -0.3251
 3261TIP3    H2 9790   0.822   2.602   4.959 -0.7875  1.8411 -0.3525
 3262TIP3   OH2 9791   3.939   5.004   3.590 -0.1464 -0.6053 -0.0990
 3262TIP3    H1 9792   3.879   4.936   3.558  0.0315 -0.1430 -1.4772
 3262TIP3    H2 9793   4.000   4.957   3.646 -0.5673 -1.4270 -0.3067
 3263TIP3   OH2 9794   2.436   4.414   1.258  0.1905 -0.4075 -0.0843
 3263TIP3    H1 9795   2.445   4.507   1.281  0.0057 -0.3508 -0.2348
 3263TIP3    H2 9796   2.355   4.387   1.301  1.3172 -1.0722  1.7706
 3264TIP3   OH2 9797   3.195   0.570   3.487  0.6753  0.2234  0.0064
 3264TIP3    H1 9798   3.216   0.499   3.427  1.5142  0.8109 -0.4221
 3264TIP3    H2 9799   3.222   0.539   3.573 -1.3716 -0.9962  0.2943
 3265TIP3   OH2 9800   0.457   0.482   1.704  0.0923  0.8815 -0.4635
 3265TIP3    H1 9801   0.401   0.559   1.713  0.0960  1.2860 -3.0502
 3265TIP3    H2 9802   0.427   0.422   1.773 -0.3822  2.8679  1.1452
 3266TIP3   OH2 9803   4.996   5.691   1.071 -0.1223  0.0923 -0.0328
 3266TIP3    H1 9804   4.944   5.655   1.143  1.9081 -0.5877  1.1802
 3266TIP3    H2 9805   4.988   5.626   1.002  0.4892 -0.8811  0.7802
 3267TIP3   OH2 9806   1.686   1.766   0.549  0.0953 -0.1216 -0.5363
 3267TIP3    H1 9807   1.638   1.775   0.631  0.5027 -0.0521 -0.3018
 3267TIP3    H2 9808   1.712   1.674   0.546 -0.4457 -0.2669 -0.8879
 3268TIP3   OH2 9809   5.305   3.370   3.283 -0.4223  0.0588 -0.2127
 3268TIP3    H1 9810   5.292   3.408   3.197  1.9621 -1.3105 -1.2804
 3268TIP3    H2 9811   5.352   3.437   3.332  0.2080  0.0149 -0.7446
 3269TIP3   OH2 9812   6.299   2.340   2.881  0.0130 -0.0963 -0.1679
 3269TIP3    H1 9813   6.222   2.395   2.889 -0.2460 -0.6724  1.6767
 3269TIP3    H2 9814   6.308   2.325   2.787 -1.4866  0.8471 -0.4884
 3270TIP3   OH2 9815   2.672   3.176   1.094 -0.5886 -0.0410  0.1510
 3270TIP3    H1 9816   2.667   3.093   1.046  1.7604 -1.0080  1.4133
 3270TIP3    H2 9817   2.702   3.239   1.029 -2.3124 -0.1418 -0.8009
 3271TIP3   OH2 9818   4.090   3.311   1.414 -0.4792 -0.0865 -0.4445
 3271TIP3    H1 9819   3.999   3.339   1.427 -0.4096  1.0847 -2.1932
 3271TIP3    H2 9820   4.140   3.364   1.476 -0.9531 -0.6474  0.4407
 3272TIP3   OH2 9821   5.080   5.166   3.929  0.1228 -0.2675  0.8090
 3272TIP3    H1 9822   5.037   5.130   4.006  1.5330 -0.7276  1.4214
 3272TIP3    H2 9823   5.109   5.089   3.880 -0.9730  0.0137 -0.3331
 3273TIP3   OH2 9824   3.935   2.982   2.362  0.1525  0.2614  0.0038
 3273TIP3    H1 9825   3.903   3.054   2.308  1.0646  0.0800 -0.7869
 3273TIP3    H2 9826   3.905   2.903   2.318  1.7976  0.0856 -0.8311
 3274TIP3   OH2 9827   4.751   2.564   3.821 -0.2073  0.0369 -0.7845
 3274TIP3    H1 9828   4.682   2.499   3.835 -1.9182  1.6264 -1.4185
 3274TIP3    H2 9829   4.763   2.567   3.726  1.8928 -1.2944 -0.6227
 3275TIP3   OH2 9830   0.356   2.769   4.235  0.6531  0.4424 -0.1368
 3275TIP3    H1 9831   0.441   2.746   4.198  0.2098  0.3491 -1.1374
 3275TIP3    H2 9832   0.355   2.726   4.321  0.8248 -1.2595 -0.9534
 3276TIP3   OH2 9833   1.713   3.890   1.569 -0.4620  0.1956 -0.0718
 3276TIP3    H1 9834   1.688   3.927   1.654  0.2753 -0.2268  0.3415
 3276TIP3    H2 9835   1.749   3.964   1.521 -0.5470  0.3662  0.1233
 3277TIP3   OH2 9836   5.348   2.867   1.097 -0.5528 -0.4569  0.5310
 3277TIP3    H1 9837   5.379   2.907   1.178  0.4611 -0.5313  0.1958
 3277TIP3    H2 9838   5.312   2.782   1.124  0.3792 -0.7701  0.8374
 3278TIP3   OH2 9839   0.991   1.764   3.389 -0.0250 -0.0929  0.2201
 3278TIP3    H1 9840   0.913   1.818   3.398  0.5848  0.7907  0.3357
 3278TIP3    H2 9841   0.960   1.684   3.345 -0.7343  0.8450 -1.0709
 3279TIP3   OH2 9842   1.661   1.567   4.191 -0.1419  0.0641  0.0957
 3279TIP3    H1 9843   1.638   1.501   4.125 -1.2358  0.5531 -0.0207
 3279TIP3    H2 9844   1.625   1.533   4.272 -0.6161  0.4676  0.0548
 3280TIP3   OH2 9845   4.642   2.087   0.652  0.0278 -0.0392 -0.7425
 3280TIP3    H1 9846   4.594   2.127   0.725  1.6633 -0.6583  0.7552
 3280TIP3    H2 9847   4.726   2.134   0.650  1.2362 -2.0093 -0.1606
 3281TIP3   OH2 9848   5.988   0.628   2.493  0.0772  0.7484 -0.2903
 3281TIP3    H1 9849   5.919   0.687   2.462 -0.3994  0.9701  1.1131
 3281TIP3    H2 9850   6.040   0.609   2.415 -2.8015 -1.1950 -1.9493
 3282TIP3   OH2 9851   0.230   4.515   0.506  0.2638  0.4318  0.2802
 3282TIP3    H1 9852   0.258   4.575   0.575  0.7380 -0.3140  0.7611
 3282TIP3    H2 9853   0.136   4.530   0.497  0.5307  1.9095 -0.2871
 3283TIP3   OH2 9854   0.460   4.915   4.993  0.3310 -0.0791  0.1940
 3283TIP3    H1 9855   0.464   5.001   4.951 -0.5406  0.3887  1.0250
 3283TIP3    H2 9856   0.380   4.876   4.958 -0.2472  0.1987  1.1643
 3284TIP3   OH2 9857   4.162   1.909   4.247 -0.1281  0.0125 -0.1376
 3284TIP3    H1 9858   4.102   1.906   4.321  0.3958  1.0022  0.3482
 3284TIP3    H2 9859   4.163   1.820   4.213 -1.7173 -0.0666 -0.0443
 3285TIP3   OH2 9860   2.907   3.942   3.653  0.0636 -1.2805  0.1660
 3285TIP3    H1 9861   2.970   3.883   3.697  1.7686  0.0103 -0.4255
 3285TIP3    H2 9862   2.869   3.888   3.584 -0.4274 -2.4562  1.3097
 3286TIP3   OH2 9863   1.481   2.203   0.498 -0.4313 -0.3281 -0.2581
 3286TIP3    H1 9864   1.412   2.267   0.513  0.2338  0.0744  1.2710
 3286TIP3    H2 9865   1.561   2.246   0.528 -0.0372 -1.9965  1.2907
 3287TIP3   OH2 9866   3.896   4.035   2.216 -0.2982 -0.0461  0.0603
 3287TIP3    H1 9867   3.877   4.128   2.233 -0.7467 -0.1224 -0.0078
 3287TIP3    H2 9868   3.918   4.032   2.123  1.7301  0.3034  0.4818
 3288TIP3   OH2 9869   5.867   0.215   2.526 -0.3325  0.3382  0.4935
 3288TIP3    H1 9870   5.884   0.148   2.459 -0.5268  0.2782  0.5017
 3288TIP3    H2 9871   5.824   0.286   2.477 -0.2238  0.4108  0.5042
 3289TIP3   OH2 9872   4.627   4.071   3.530 -0.4971  0.1103 -0.0659
 3289TIP3    H1 9873   4.685   4.001   3.501  1.4486  1.6054  0.0321
 3289TIP3    H2 9874   4.632   4.069   3.625 -0.3422  0.4365 -0.0639
 3290TIP3   OH2 9875   5.164   0.727   2.822 -0.3688 -0.0360 -0.5106
 3290TIP3    H1 9876   5.170   0.750   2.914 -0.9309 -0.3389 -0.3944
 3290TIP3    H2 9877   5.102   0.653   2.819 -0.7349  0.2840 -1.1787
 3291TIP3   OH2 9878   3.159   0.821   1.568 -0.0042  0.4472  0.0841
 3291TIP3    H1 9879   3.215   0.886   1.610 -0.5254  0.6309  0.5099
 3291TIP3    H2 9880   3.094   0.873   1.520 -0.7305  0.2537  0.8388
 3292TIP3   OH2 9881   1.617   4.602   1.814 -0.0311 -0.1327 -0.5649
 3292TIP3    H1 9882   1.706   4.628   1.789  0.2165 -1.2237 -0.8617
 3292TIP3    H2 9883   1.628   4.518   1.859 -0.9296 -0.3568 -0.7369
 3293TIP3   OH2 9884   0.237   1.269   1.437 -0.3850  0.3884  0.1915
 3293TIP3    H1 9885   0.148   1.296   1.458 -0.7473 -0.1411 -0.5932
 3293TIP3    H2 9886   0.261   1.324   1.362 -0.5523 -0.3831 -0.4341
 3294TIP3   OH2 9887   3.079   4.101   2.431 -0.7319  0.0493 -0.6262
 3294TIP3    H1 9888   3.115   4.137   2.350 -0.9038  4.3736  0.9870
 3294TIP3    H2 9889   2.984   4.102   2.418 -0.7050 -1.5948 -1.1681
 3295TIP3   OH2 9890   2.767   2.612   5.068 -0.0771 -0.4895 -0.3780
 3295TIP3    H1 9891   2.812   2.655   4.995 -1.2833  1.1752 -0.1935
 3295TIP3    H2 9892   2.718   2.541   5.026 -0.5101  0.2505 -1.1738
 3296TIP3   OH2 9893   1.591   0.383   3.515  0.3704  0.0280 -0.1681
 3296TIP3    H1 9894   1.619   0.466   3.553  0.1542  0.3355 -0.6738
 3296TIP3    H2 9895   1.655   0.365   3.446  1.0139 -0.7444  0.6107
 3297TIP3   OH2 9896   3.708   1.128   0.539 -0.5415  0.3293  0.5597
 3297TIP3    H1 9897   3.743   1.170   0.617 -0.9153  2.0187 -0.1427
 3297TIP3    H2 9898   3.719   1.034   0.555 -0.8868  0.6205  2.7551
 3298TIP3   OH2 9899   1.603   2.907   3.677 -0.5252  0.3874 -0.1268
 3298TIP3    H1 9900   1.536   2.881   3.614 -0.6054 -1.1012  0.5417
 3298TIP3    H2 9901   1.652   2.827   3.695  1.0724  1.3084 -0.1374
 3299TIP3   OH2 9902   5.072   2.522   3.283 -0.0668  0.5575 -0.0371
 3299TIP3    H1 9903   5.040   2.469   3.210  1.5608  0.6161 -0.8456
 3299TIP3    H2 9904   5.025   2.490   3.359 -0.2836 -0.9378 -0.7701
 3300TIP3   OH2 9905   4.137   1.557   4.683  0.1408  0.8934 -0.3798
 3300TIP3    H1 9906   4.056   1.506   4.676  0.5847  0.0138  0.5495
 3300TIP3    H2 9907   4.165   1.544   4.774  1.0771  1.5645 -0.5625
 3301TIP3   OH2 9908   3.308   2.714   2.566 -0.1439  0.1704  0.0680
 3301TIP3    H1 9909   3.292   2.677   2.653  0.2435 -0.8547 -0.2768
 3301TIP3    H2 9910   3.399   2.742   2.569  0.0486 -0.4079 -0.1827
 3302TIP3   OH2 9911   1.853   5.464   4.605  0.4627 -0.0512 -0.2046
 3302TIP3    H1 9912   1.941   5.501   4.591  0.3378  0.0060 -0.8623
 3302TIP3    H2 9913   1.831   5.424   4.522 -0.2619  0.1934 -0.1329
 3303TIP3   OH2 9914   1.110   4.245   1.358 -0.4403  0.2885  0.4497
 3303TIP3    H1 9915   1.188   4.286   1.394 -0.5669 -0.8647  2.1365
 3303TIP3    H2 9916   1.141   4.193   1.284  0.4096 -0.1376  1.0891
 3304TIP3   OH2 9917   5.257   3.735   4.360 -0.3354 -0.3051  0.2406
 3304TIP3    H1 9918   5.298   3.666   4.308 -0.6982  1.1241 -2.0489
 3304TIP3    H2 9919   5.163   3.713   4.358 -0.2153 -1.0804  1.6583
 3305TIP3   OH2 9920   6.343   0.908   1.372 -0.3440  0.0519 -0.2670
 3305TIP3    H1 9921   6.371   0.984   1.322  0.7255  1.0093  1.6467
 3305TIP3    H2 9922   6.271   0.940   1.427  0.1427 -0.2793  0.5895
 3306TIP3   OH2 9923   2.860   3.763   3.956  0.4559  0.1074  0.1336
 3306TIP3    H1 9924   2.940   3.760   3.905  0.4426  1.2573  0.0163
 3306TIP3    H2 9925   2.796   3.715   3.903  1.1201 -1.1314  0.3955
 3307TIP3   OH2 9926   0.197   4.416   2.293 -0.8722 -0.2758  0.2914
 3307TIP3    H1 9927   0.282   4.441   2.330 -0.3923 -1.1224 -0.2148
 3307TIP3    H2 9928   0.182   4.480   2.223 -1.1139  0.4570  0.9950
 3308TIP3   OH2 9929   5.812   1.769   4.512  0.0250 -0.0375 -0.1289
 3308TIP3    H1 9930   5.853   1.719   4.442 -2.5552  0.9725 -2.5505
 3308TIP3    H2 9931   5.861   1.852   4.514 -0.3208  0.2103 -1.2928
 3309TIP3   OH2 9932   5.915   2.455   0.183  0.3929  0.1892  0.0589
 3309TIP3    H1 9933   5.899   2.547   0.205  2.1226  0.1629  1.6192
 3309TIP3    H2 9934   5.833   2.411   0.205 -0.0418  1.1658  0.4566
 3310TIP3   OH2 9935   4.886   3.030   2.025 -0.2127  0.3817  0.4356
 3310TIP3    H1 9936   4.909   3.123   2.034  3.4581 -0.3083 -0.1228
 3310TIP3    H2 9937   4.908   2.991   2.109 -1.3653 -0.1138  0.5330
 3311TIP3   OH2 9938   3.603   3.879   4.458 -0.0855  0.6209  0.2861
 3311TIP3    H1 9939   3.515   3.858   4.490  0.3391 -1.4125  0.2561
 3311TIP3    H2 9940   3.652   3.902   4.537 -0.6239  1.7589  0.3034
 3312TIP3   OH2 9941   2.765   5.584   1.743 -0.1571 -0.2971 -0.0610
 3312TIP3    H1 9942   2.709   5.657   1.717 -0.3997 -1.3379 -2.7489
 3312TIP3    H2 9943   2.704   5.512   1.759  0.2469 -0.7782 -0.6476
 3313TIP3   OH2 9944   3.963   4.781   4.869 -0.3153  0.1154 -0.1746
 3313TIP3    H1 9945   3.868   4.783   4.882 -0.7566  0.0475 -2.7971
 3313TIP3    H2 9946   3.977   4.829   4.787  1.9437  0.2765  0.2444
 3314TIP3   OH2 9947   5.892   0.068   4.874  0.2877 -0.1493 -0.0122
 3314TIP3    H1 9948   5.919   0.044   4.785 -1.1694  0.4062 -0.6428
 3314TIP3    H2 9949   5.909  -0.010   4.926  1.3459 -0.4193 -0.7377
 3315TIP3   OH2 9950   4.962   1.039   3.066 -0.2924 -0.1296 -0.6858
 3315TIP3    H1 9951   4.967   1.112   3.004 -1.6492  1.0294  0.5013
 3315TIP3    H2 9952   4.965   1.081   3.152 -0.1655 -1.5723  0.0335
 3316TIP3   OH2 9953   3.648   5.595   5.108  0.0968 -0.0279  0.0843
 3316TIP3    H1 9954   3.609   5.541   5.039 -0.5783  0.5301  0.0176
 3316TIP3    H2 9955   3.575   5.645   5.143  0.6953  0.7718  0.2075
 3317TIP3   OH2 9956   3.189   1.940   1.167 -0.0545 -0.4962  1.0575
 3317TIP3    H1 9957   3.203   2.017   1.221  2.3691 -1.4628  1.9518
 3317TIP3    H2 9958   3.139   1.972   1.092 -0.5981  1.5585  2.2232
 3318TIP3   OH2 9959   6.127   0.552   1.802 -0.3175 -0.0205 -0.1992
 3318TIP3    H1 9960   6.124   0.501   1.721  0.6715 -0.4167 -0.0043
 3318TIP3    H2 9961   6.187   0.623   1.783 -0.0041 -0.1721  0.2179
 3319TIP3   OH2 9962   5.375   5.175   3.675  0.1090  0.3749  0.2444
 3319TIP3    H1 9963   5.334   5.246   3.625 -0.0223  0.1671  0.0541
 3319TIP3    H2 9964   5.460   5.211   3.703  1.6367 -0.5207 -2.7836
 3320TIP3   OH2 9965   2.603   1.148   2.553 -0.0160  0.5224 -0.2164
 3320TIP3    H1 9966   2.509   1.149   2.573  0.3068  0.7986  1.4323
 3320TIP3    H2 9967   2.642   1.095   2.622  1.1529  1.2116 -0.3154
 3321TIP3   OH2 9968   5.522   0.044   3.554  0.0897 -0.3677  0.3095
 3321TIP3    H1 9969   5.463   0.013   3.622  1.0294 -0.2316  1.2100
 3321TIP3    H2 9970   5.530  -0.030   3.493  0.1253 -0.9008  0.9513
 3322TIP3   OH2 9971   0.287   1.920   0.405  0.5357  0.3463 -0.2610
 3322TIP3    H1 9972   0.360   1.894   0.349  1.9758  1.9479  0.7811
 3322TIP3    H2 9973   0.317   1.999   0.448 -0.2862 -1.0400  3.1661
 3323TIP3   OH2 9974   5.141   3.543   2.723  0.0384  0.1624  0.1592
 3323TIP3    H1 9975   5.126   3.592   2.804 -1.9383  1.6878 -1.0366
 3323TIP3    H2 9976   5.113   3.602   2.654  0.5188 -1.5569 -1.5988
 3324TIP3   OH2 9977   3.898   5.929   1.778  0.0674 -0.2589 -0.4123
 3324TIP3    H1 9978   3.923   5.849   1.824  0.6420  1.3019  2.1776
 3324TIP3    H2 9979   3.807   5.915   1.753 -0.2007 -1.2916  1.0046
 3325TIP3   OH2 9980   5.607   4.730   3.686 -0.2283 -0.2080 -0.2225
 3325TIP3    H1 9981   5.624   4.824   3.692 -2.0317  0.1220  0.3598
 3325TIP3    H2 9982   5.562   4.718   3.602  0.5343 -0.6540 -0.5773
 3326TIP3   OH2 9983   2.694   2.544   0.453  0.8309  0.2361 -0.4860
 3326TIP3    H1 9984   2.712   2.469   0.396  1.4034 -1.1582  1.3840
 3326TIP3    H2 9985   2.778   2.590   0.459  0.9773 -0.0493 -0.2401
 3327TIP3   OH2 9986   1.460   2.415   2.569 -0.3937 -0.2469 -0.0676
 3327TIP3    H1 9987   1.421   2.341   2.615 -1.3320  0.1715 -0.1549
 3327TIP3    H2 9988   1.422   2.410   2.481 -0.6180  0.4383 -0.0162
 3328TIP3   OH2 9989   0.807   1.435   0.566 -0.8959 -0.1004  0.1353
 3328TIP3    H1 9990   0.900   1.429   0.542 -0.8984 -0.6491  0.2650
 3328TIP3    H2 9991   0.784   1.348   0.598 -1.5991 -0.1238 -0.4104
 3329TIP3   OH2 9992   0.050   3.056   2.652  0.0877  0.1121  0.3672
 3329TIP3    H1 9993   0.087   2.973   2.680 -1.1731 -0.5271  0.2347
 3329TIP3    H2 9994   0.047   3.109   2.731 -0.0509 -0.3459  0.6728
 3330TIP3   OH2 9995   4.226   1.032   1.045  0.2515 -0.4306 -0.4693
 3330TIP3    H1 9996   4.229   0.938   1.032 -1.8615 -0.6648  0.4141
 3330TIP3    H2 9997   4.282   1.047   1.122  0.2173 -1.0219 -0.3227
 3331TIP3   OH2 9998   3.833   1.807   0.170 -0.3327 -0.6222  0.3525
 3331TIP3    H1 9999   3.772   1.738   0.145  0.1341 -1.0541  0.4039
 3331TIP3    H210000   3.797   1.843   0.251 -1.3256  0.1322 -0.3785
 3332TIP3   OH210001   1.204   2.151   0.286  0.0092  0.0853  0.4990
 3332TIP3    H110002   1.200   2.247   0.281  1.3804  0.1581  0.2871
 3332TIP3    H210003   1.281   2.134   0.340 -1.0689 -0.9031  1.7789
 3333TIP3   OH210004   1.235   2.020   4.297 -0.2321 -0.0465 -1.0149
 3333TIP3    H110005   1.177   2.085   4.335 -0.6707 -0.5932 -0.7485
 3333TIP3    H210006   1.243   2.047   4.205 -0.7314  0.1534 -1.0031
 3334TIP3   OH210007   2.388   4.575   3.833  0.4135 -0.6673 -0.8023
 3334TIP3    H110008   2.397   4.650   3.774 -0.7078 -0.2172 -0.4471
 3334TIP3    H210009   2.449   4.593   3.905  0.3667 -0.2372 -0.8668
 3335TIP3   OH210010   5.315   1.610   4.342  0.1317 -0.3091  0.3044
 3335TIP3    H110011   5.232   1.653   4.363 -0.9212 -1.9503 -0.3089
 3335TIP3    H210012   5.334   1.636   4.252  1.5223  1.8938  1.1610
 3336TIP3   OH210013   4.431   2.604   3.148  0.1168  0.1231  0.3140
 3336TIP3    H110014   4.513   2.619   3.196  1.1788  1.2136 -1.7428
 3336TIP3    H210015   4.457   2.595   3.057 -2.1053  0.9950 -0.4774
 3337TIP3   OH210016   6.295   4.636   4.413 -0.2208  0.3006 -0.0750
 3337TIP3    H110017   6.316   4.729   4.422 -0.6538  0.3483  0.5008
 3337TIP3    H210018   6.268   4.627   4.321 -0.2947  0.7677 -0.1045
 3338TIP3   OH210019   0.520   4.013   1.171  0.1592  0.2493  0.4275
 3338TIP3    H110020   0.506   4.045   1.082  0.5618  1.1861  0.6952
 3338TIP3    H210021   0.609   4.041   1.193  1.0717 -2.2204  0.1853
 3339TIP3   OH210022   5.574   5.664   3.968  0.1187 -0.4231  0.3635
 3339TIP3    H110023   5.537   5.610   3.898 -0.0964  0.1372  0.0461
 3339TIP3    H210024   5.532   5.749   3.959  0.4828 -0.1853  0.8420
 3340TIP3   OH210025   5.173   3.633   1.538  0.7851 -0.6743  0.4865
 3340TIP3    H110026   5.096   3.578   1.526  0.1638  0.4912 -1.2326
 3340TIP3    H210027   5.139   3.722   1.545  1.9438 -0.1516 -0.1131
 3341TIP3   OH210028   0.411   3.127   1.655 -0.2093  0.2624  0.2028
 3341TIP3    H110029   0.320   3.156   1.651  0.1882  1.6514  0.4994
 3341TIP3    H210030   0.447   3.147   1.569 -0.3894 -1.0909 -0.2085
 3342TIP3   OH210031   4.099   4.951   3.187  0.0845  0.6347  0.0464
 3342TIP3    H110032   4.096   4.874   3.245  0.6734 -0.2392 -1.0517
 3342TIP3    H210033   4.021   4.943   3.133  1.4445 -0.6757 -1.8531
 3343TIP3   OH210034   5.911   2.708   0.310  0.2102  0.7280 -0.5786
 3343TIP3    H110035   5.919   2.763   0.387 -0.6093  1.8555 -1.2764
 3343TIP3    H210036   5.819   2.713   0.285  0.2425 -0.4727 -1.0235
 3344TIP3   OH210037   6.244   0.070   2.438  0.2521  0.0467 -0.4092
 3344TIP3    H110038   6.160   0.108   2.411  0.4830  0.8678 -0.0139
 3344TIP3    H210039   6.221  -0.016   2.474 -0.1525 -0.7300 -2.3772
 3345TIP3   OH210040   5.671   4.713   2.870 -0.0017  0.7925 -0.2378
 3345TIP3    H110041   5.665   4.808   2.863 -1.5329  0.7650  0.2335
 3345TIP3    H210042   5.661   4.682   2.780 -0.8221  1.0503 -0.2448
 3346TIP3   OH210043   4.487   0.846   4.206 -0.1286  0.1040 -0.0926
 3346TIP3    H110044   4.500   0.753   4.224 -0.8995  0.1877  1.0552
 3346TIP3    H210045   4.468   0.850   4.112 -0.7780 -0.9917 -0.0338
 3347TIP3   OH210046   2.252   1.674   0.098  0.7317 -0.0313 -0.5941
 3347TIP3    H110047   2.241   1.600   0.038  0.0186  1.0964 -1.9030
 3347TIP3    H210048   2.163   1.694   0.127  0.9114  0.3848 -0.3255
 3348TIP3   OH210049   4.649   2.938   3.394 -0.2688  0.3445 -0.6473
 3348TIP3    H110050   4.598   3.000   3.446 -0.7303 -0.6503  0.1153
 3348TIP3    H210051   4.596   2.858   3.393  0.1729  0.0472 -1.8633
 3349TIP3   OH210052   2.192   2.390   0.149 -0.3016 -0.1077  0.1162
 3349TIP3    H110053   2.119   2.330   0.131 -0.2033 -0.3319  0.4674
 3349TIP3    H210054   2.155   2.454   0.210 -0.3178  0.0127 -0.0192
 3350TIP3   OH210055   2.731   3.394   2.757 -0.0619 -0.2262 -0.5203
 3350TIP3    H110056   2.659   3.381   2.696  0.0045 -0.3776 -0.5673
 3350TIP3    H210057   2.767   3.306   2.770 -2.6981 -1.0020  3.0086
 3351TIP3   OH210058   3.836   3.817   1.796 -0.0233 -0.2323  0.2160
 3351TIP3    H110059   3.805   3.730   1.770  0.0386 -0.2297  0.1318
 3351TIP3    H210060   3.861   3.859   1.714  0.0445 -0.1737  0.2661
 3352TIP3   OH210061   4.698   1.436   1.093 -0.3248 -0.0296 -0.1442
 3352TIP3    H110062   4.782   1.389   1.097  0.2920  0.9782 -0.7850
 3352TIP3    H210063   4.667   1.421   1.004 -1.0105 -0.6877  0.1983
 3353TIP3   OH210064   3.305   3.257   3.307 -0.4188 -0.1898 -0.3400
 3353TIP3    H110065   3.216   3.252   3.342  0.1584 -0.7057  1.1341
 3353TIP3    H210066   3.307   3.191   3.238 -1.0112 -0.5900  0.0119
 3354TIP3   OH210067   4.570   2.451   0.836 -0.1862 -0.8151  0.4333
 3354TIP3    H110068   4.546   2.464   0.745 -1.0226  0.3217  0.7924
 3354TIP3    H210069   4.665   2.440   0.834 -0.3759 -2.7076 -0.7336
 3355TIP3   OH210070   4.852   0.920   0.438 -0.0795  0.4268  0.1493
 3355TIP3    H110071   4.926   0.901   0.495 -0.5128  2.8430  1.6252
 3355TIP3    H210072   4.892   0.948   0.355  0.6878  1.5898  0.8896
 3356TIP3   OH210073   5.942   3.329   4.010 -0.0182 -0.2098  0.3249
 3356TIP3    H110074   5.887   3.330   3.932  1.8560  1.3626 -1.0560
 3356TIP3    H210075   6.016   3.273   3.988 -0.9168 -2.2580  2.1378
 3357TIP3   OH210076   2.140   4.612   0.944 -0.3955 -0.3866  0.2502
 3357TIP3    H110077   2.138   4.633   0.850  0.3649  0.2714  0.3658
 3357TIP3    H210078   2.147   4.698   0.987 -2.1320 -0.5917  0.9816
 3358TIP3   OH210079   4.046   5.002   1.401  0.2600  0.3819 -0.2248
 3358TIP3    H110080   3.964   5.032   1.362 -0.5041 -0.3145  0.8003
 3358TIP3    H210081   4.024   4.918   1.442  1.2833  0.5792  0.7728
 3359TIP3   OH210082   4.989   3.050   1.242 -0.0466  0.5316 -0.6052
 3359TIP3    H110083   4.976   2.983   1.175  1.0889 -0.3995  0.0527
 3359TIP3    H210084   4.941   3.017   1.318  0.9205  0.2039 -0.1258
 3360TIP3   OH210085   2.667   0.264   4.054  0.1549  0.3277  0.1947
 3360TIP3    H110086   2.591   0.256   4.112 -0.4885  0.0644 -0.6733
 3360TIP3    H210087   2.743   0.262   4.113 -0.3323 -2.4999  0.8645
 3361TIP3   OH210088   5.663   5.082   3.146 -0.3471  0.3042 -0.0533
 3361TIP3    H110089   5.743   5.032   3.129 -1.0439 -0.9559  0.3185
 3361TIP3    H210090   5.642   5.122   3.062  1.3381  1.7043  0.1128
 3362TIP3   OH210091   2.043   1.534   0.234 -0.1885  0.5211 -0.5240
 3362TIP3    H110092   2.094   1.529   0.315 -0.2021 -1.9270 -0.6030
 3362TIP3    H210093   1.953   1.518   0.262 -0.1119 -0.9506 -1.0694
 3363TIP3   OH210094   1.824   0.434   3.861  0.3903  0.0458  0.3943
 3363TIP3    H110095   1.791   0.345   3.847  1.5026 -0.1112 -1.4253
 3363TIP3    H210096   1.918   0.428   3.847  0.6681  1.2949  1.4740
 3364TIP3   OH210097   4.281   4.544   4.037  0.0145  0.0535  0.5222
 3364TIP3    H110098   4.236   4.485   4.097 -0.8095  1.0921  0.9703
 3364TIP3    H210099   4.370   4.549   4.070 -0.4580  0.7158  1.7946
 3365TIP3   OH210100   4.858   3.245   3.032  0.3809 -0.0919  0.1841
 3365TIP3    H110101   4.936   3.263   2.978  0.6399 -2.6650 -0.4343
 3365TIP3    H210102   4.891   3.191   3.104 -0.8717 -1.6590 -0.3622
 3366TIP3   OH210103   1.457   1.946   0.360 -0.5090 -0.0493 -0.0350
 3366TIP3    H110104   1.499   1.861   0.372 -1.0752 -0.4431 -0.7206
 3366TIP3    H210105   1.493   2.001   0.429  0.3851 -0.6490  0.0001
 3367TIP3   OH210106   1.437   5.774   3.524 -0.3446 -0.2920 -0.0445
 3367TIP3    H110107   1.437   5.744   3.433  2.8950  0.3521 -0.3685
 3367TIP3    H210108   1.447   5.869   3.518 -1.0905 -0.1245  1.0208
 3368TIP3   OH210109   0.620   4.549   3.222  0.0932 -0.3918  1.0358
 3368TIP3    H110110   0.577   4.492   3.287 -1.4380  0.3843  0.7623
 3368TIP3    H210111   0.552   4.613   3.199  0.2039 -1.2510 -2.1053
 3369TIP3   OH210112   4.770   5.805   2.281 -0.2037 -0.0685 -0.2393
 3369TIP3    H110113   4.751   5.874   2.218 -1.6405 -0.3444 -0.1551
 3369TIP3    H210114   4.821   5.740   2.233 -0.5251  0.1455 -0.8769
 3370TIP3   OH210115   5.406   2.374   3.978 -0.0399  0.2026 -0.2102
 3370TIP3    H110116   5.336   2.402   4.036  0.2344  0.1522  0.1478
 3370TIP3    H210117   5.404   2.278   3.982  0.9642  0.2060  0.9227
 3371TIP3   OH210118   1.002   1.805   0.594  0.6168  0.0273  0.0284
 3371TIP3    H110119   0.966   1.839   0.512  0.6780 -0.0748 -0.0408
 3371TIP3    H210120   1.096   1.800   0.579  0.6403  0.1211  0.1461
 3372TIP3   OH210121   1.871   0.041   0.636  0.7482  0.6872 -0.1251
 3372TIP3    H110122   1.863   0.128   0.596  1.4712  0.5995 -0.4765
 3372TIP3    H210123   1.918   0.056   0.718  0.4596  0.6898  0.0397
 3373TIP3   OH210124   2.757   3.455   4.638 -0.0249  0.0679 -0.2194
 3373TIP3    H110125   2.814   3.460   4.561 -1.3609  0.9873 -1.2054
 3373TIP3    H210126   2.804   3.504   4.706  1.3643 -1.1125 -0.2931
 3374TIP3   OH210127   6.179   3.012   3.098 -0.0137  0.5744  0.1393
 3374TIP3    H110128   6.249   3.078   3.105 -0.0419  0.5592  0.6436
 3374TIP3    H210129   6.130   3.037   3.020  1.1659 -0.0192 -0.8265
 3375TIP3   OH210130   1.193   5.634   4.700  0.4867  0.5892  0.2160
 3375TIP3    H110131   1.216   5.590   4.619  1.8594  0.1146  0.8409
 3375TIP3    H210132   1.102   5.609   4.716 -0.0003  1.1746 -1.4594
 3376TIP3   OH210133   3.476   1.912   3.264 -0.0910  0.0759 -0.0790
 3376TIP3    H110134   3.523   1.964   3.329 -0.5144  0.4982 -0.1064
 3376TIP3    H210135   3.438   1.976   3.205  0.3971 -0.3045 -0.8291
 3377TIP3   OH210136   2.220   4.323   3.008 -0.3088 -0.6348 -0.2457
 3377TIP3    H110137   2.167   4.383   3.061 -1.5813 -0.5164 -1.5616
 3377TIP3    H210138   2.176   4.238   3.016 -0.1259 -0.7621 -0.5666
 3378TIP3   OH210139   5.883   5.720   4.247  0.4922  0.2882  0.2347
 3378TIP3    H110140   5.903   5.691   4.157  0.5053 -1.2558  0.6996
 3378TIP3    H210141   5.793   5.692   4.261 -0.0657  1.9628  0.1785
 3379TIP3   OH210142   1.810   5.955   2.364  0.2699  0.1653 -0.1026
 3379TIP3    H110143   1.761   5.897   2.422  0.4267 -1.7040 -1.7553
 3379TIP3    H210144   1.891   5.974   2.412 -0.3663  0.1429  1.0259
 3380TIP3   OH210145   2.647   4.971   0.487 -0.4927 -0.2193 -0.0330
 3380TIP3    H110146   2.642   4.930   0.401 -0.7693  2.0780 -1.2007
 3380TIP3    H210147   2.561   4.955   0.527 -1.6058  1.4283 -1.6003
 3381TIP3   OH210148   5.126   0.628   4.621 -0.2181  0.5229 -0.1620
 3381TIP3    H110149   5.133   0.680   4.542  1.7923 -0.6966 -0.8600
 3381TIP3    H210150   5.216   0.611   4.647 -0.7257 -2.6334 -0.0276
 3382TIP3   OH210151   5.820   3.538   3.026  0.2780 -0.5033 -0.3482
 3382TIP3    H110152   5.734   3.498   3.012 -0.3978  0.6158  0.4491
 3382TIP3    H210153   5.805   3.601   3.097  2.0045 -1.0735  0.5636
 3383TIP3   OH210154   0.402   1.155   4.035  0.0069  0.1171 -0.4128
 3383TIP3    H110155   0.367   1.157   3.946  2.5483 -0.1940 -1.5247
 3383TIP3    H210156   0.379   1.069   4.069 -0.1188 -0.1559 -1.1756
 3384TIP3   OH210157   0.400   3.473   0.879  0.1186  0.3938 -0.2675
 3384TIP3    H110158   0.471   3.490   0.941 -0.6503  0.9151  0.4962
 3384TIP3    H210159   0.428   3.515   0.797  0.6538  0.6527  0.0469
 3385TIP3   OH210160   2.804   1.377   3.183 -0.0616  0.0268 -0.5166
 3385TIP3    H110161   2.885   1.364   3.232 -0.9329 -0.2374  0.8963
 3385TIP3    H210162   2.812   1.465   3.146  0.7349  0.1250 -0.1280
 3386TIP3   OH210163   1.295   2.205   2.391 -0.3816  0.4054 -0.3835
 3386TIP3    H110164   1.318   2.262   2.318 -0.0169  0.4896 -0.2036
 3386TIP3    H210165   1.258   2.127   2.349  0.3889  0.1915 -0.6884
 3387TIP3   OH210166   5.174   5.452   0.230 -0.3056  0.2054 -0.2666
 3387TIP3    H110167   5.168   5.529   0.172  0.1045  1.1447  0.8923
 3387TIP3    H210168   5.137   5.482   0.313  1.9949 -0.0730  0.9516
 3388TIP3   OH210169   4.611   5.805   0.591  0.2893 -0.3499 -0.0547
 3388TIP3    H110170   4.579   5.718   0.567 -0.2573 -0.2101  0.1417
 3388TIP3    H210171   4.541   5.865   0.565  1.0589  0.1479 -1.0794
 3389TIP3   OH210172   5.131   2.090   3.268  0.5681  0.2259  0.0139
 3389TIP3    H110173   5.159   2.110   3.179 -0.9925 -2.6070 -1.2516
 3389TIP3    H210174   5.047   2.133   3.277 -1.5640 -3.1515 -1.7712
 3390TIP3   OH210175   5.885   2.880   3.833 -0.5815 -0.6946  0.3836
 3390TIP3    H110176   5.797   2.899   3.865 -1.2357  2.1565 -2.5000
 3390TIP3    H210177   5.873   2.809   3.770 -1.2546  0.8149 -1.2866
 3391TIP3   OH210178   2.391   1.091   1.906 -0.0539  0.1310  0.2661
 3391TIP3    H110179   2.472   1.085   1.856  0.2841 -1.1715  0.9112
 3391TIP3    H210180   2.323   1.101   1.841  0.1744 -3.2349 -0.6785
 3392TIP3   OH210181   1.908   5.134   4.026  0.1132 -0.2056  0.4517
 3392TIP3    H110182   1.882   5.223   4.049  0.5572 -0.4574  2.0664
 3392TIP3    H210183   1.976   5.145   3.960  0.1169  0.6431  0.5811
 3393TIP3   OH210184   5.089   5.532   2.476  0.6019 -0.2236  0.6165
 3393TIP3    H110185   5.131   5.610   2.513 -0.7215  1.4541 -1.1637
 3393TIP3    H210186   5.100   5.542   2.382 -0.4180 -1.7129  0.3058
 3394TIP3   OH210187   2.780   1.527   4.693 -0.7582  0.0536 -0.0618
 3394TIP3    H110188   2.847   1.463   4.668  0.0625  0.3316  1.3561
 3394TIP3    H210189   2.697   1.481   4.682 -0.3041 -0.5493 -1.0913
 3395TIP3   OH210190   2.275   1.104   0.901 -0.3317  0.0298 -0.1861
 3395TIP3    H110191   2.338   1.136   0.836 -1.3742  1.5786 -0.4881
 3395TIP3    H210192   2.252   1.016   0.870  1.6147 -0.5775 -0.0686
 3396TIP3   OH210193   3.768   5.207   0.660  0.1951  0.0481 -0.0059
 3396TIP3    H110194   3.747   5.126   0.706  0.1968  0.0089 -0.0737
 3396TIP3    H210195   3.756   5.186   0.567  0.0401  0.1728 -0.0133
 3397TIP3   OH210196   5.234   5.836   3.806  0.1324 -0.1112  0.2129
 3397TIP3    H110197   5.263   5.749   3.832  0.0772 -0.7216 -1.6284
 3397TIP3    H210198   5.175   5.864   3.877 -0.7416 -2.0416  0.3137
 3398TIP3   OH210199   4.359   3.513   2.820  0.2017  0.1248 -1.0229
 3398TIP3    H110200   4.402   3.592   2.852  2.3105 -0.7625 -1.4970
 3398TIP3    H210201   4.382   3.445   2.883 -0.6993 -0.3548 -1.1886
 3399TIP3   OH210202   3.396   3.505   5.040 -0.2673  0.5284 -0.4405
 3399TIP3    H110203   3.328   3.444   5.067 -0.9298  2.1204  1.7795
 3399TIP3    H210204   3.364   3.541   4.957 -0.8895 -0.5813 -0.6914
 3400TIP3   OH210205   4.891   3.945   3.194 -0.3759  0.6214 -0.0577
 3400TIP3    H110206   4.806   3.930   3.237 -0.4198 -1.2946 -0.7260
 3400TIP3    H210207   4.952   3.887   3.241  0.6678  2.2368  0.6434
 3401TIP3   OH210208   4.633   1.330   0.227 -0.7062 -0.0953  0.0983
 3401TIP3    H110209   4.668   1.295   0.309  0.3027 -1.4154 -0.8576
 3401TIP3    H210210   4.687   1.406   0.208 -1.8631  1.1026  1.3503
 3402TIP3   OH210211   1.463   3.860   1.476  0.6722 -0.4242 -0.6753
 3402TIP3    H110212   1.447   3.766   1.473 -1.0853 -0.2756  1.3830
 3402TIP3    H210213   1.557   3.869   1.491  0.6577 -1.9417  0.5801
 3403TIP3   OH210214   5.420   3.301   3.541  0.6762  0.4247 -0.2455
 3403TIP3    H110215   5.466   3.218   3.557  0.7105  0.6471  0.8419
 3403TIP3    H210216   5.375   3.287   3.457  0.9313 -0.5834 -0.2270
 3404TIP3   OH210217   3.538   5.432   3.256 -0.0412 -0.0774 -0.4835
 3404TIP3    H110218   3.623   5.473   3.245  0.1233 -0.4644 -0.6868
 3404TIP3    H210219   3.475   5.504   3.253  0.1682  0.0740 -1.7199
 3405TIP3   OH210220   3.130   5.477   1.844 -0.3347 -0.2689 -0.5247
 3405TIP3    H110221   3.199   5.542   1.861  1.0150 -1.6472 -0.4932
 3405TIP3    H210222   3.167   5.395   1.877 -2.2268 -0.9629 -0.0440
 3406TIP3   OH210223   5.835   4.148   1.520  0.1328  0.4482 -0.0641
 3406TIP3    H110224   5.794   4.234   1.527 -0.0234  0.2514  1.7771
 3406TIP3    H210225   5.895   4.143   1.594  2.1222 -0.0256 -1.6219
 3407TIP3   OH210226   0.138   5.635   0.272  0.1618 -0.3679 -0.1780
 3407TIP3    H110227   0.161   5.543   0.284 -0.2359 -0.5976 -1.0837
 3407TIP3    H210228   0.052   5.633   0.230  1.2447  0.3338 -2.6267
 3408TIP3   OH210229   2.672   4.102   2.037 -0.1602  0.5221 -0.2958
 3408TIP3    H110230   2.754   4.091   1.988 -0.7299 -0.6601 -1.0479
 3408TIP3    H210231   2.620   4.160   1.982 -0.3042  0.2470 -0.4517
 3409TIP3   OH210232   1.775   0.840   2.758 -0.1035  0.2919 -0.4817
 3409TIP3    H110233   1.845   0.786   2.722  0.1156  1.5106 -1.9737
 3409TIP3    H210234   1.721   0.864   2.683 -3.2183 -1.9973  0.7824
 3410TIP3   OH210235   5.181   2.830   5.037 -0.2548 -0.6315  0.0109
 3410TIP3    H110236   5.094   2.816   4.999  1.1120 -2.8737 -2.6164
 3410TIP3    H210237   5.195   2.755   5.094  1.2598 -2.3143 -2.4072
 3411TIP3   OH210238   2.361   4.992   0.486 -0.5674 -0.0174 -0.2284
 3411TIP3    H110239   2.357   4.980   0.391  1.5304  0.5941 -0.4530
 3411TIP3    H210240   2.394   5.081   0.497 -1.7922  0.3025  1.1133
 3412TIP3   OH210241   5.147   0.757   1.307 -0.4272  0.4602 -0.0826
 3412TIP3    H110242   5.165   0.664   1.290 -0.7199  0.5053 -0.6547
 3412TIP3    H210243   5.196   0.777   1.386 -2.0713 -0.7403  1.3147
 3413TIP3   OH210244   0.382   3.415   2.168 -0.3257  0.3353  0.8114
 3413TIP3    H110245   0.360   3.418   2.075  0.1241 -0.9388  0.6485
 3413TIP3    H210246   0.407   3.505   2.189  1.9484  0.2215 -0.9158
 3414TIP3   OH210247   5.049   5.563   2.753 -0.5742 -0.0596  0.2515
 3414TIP3    H110248   5.094   5.643   2.725 -0.0051 -0.1644  0.8424
 3414TIP3    H210249   5.056   5.505   2.677  2.5559 -1.0118  1.1126
 3415TIP3   OH210250   3.111   2.837   1.734 -0.3732  0.6253  0.0040
 3415TIP3    H110251   3.128   2.756   1.782 -0.0437  1.5784  1.5740
 3415TIP3    H210252   3.182   2.842   1.671 -1.4056 -1.1924 -1.3973
 3416TIP3   OH210253   2.560   5.799   0.128 -0.1376  0.5356  0.6295
 3416TIP3    H110254   2.618   5.872   0.146  0.6584  0.2916 -0.7697
 3416TIP3    H210255   2.496   5.800   0.199  1.4565  0.9271  2.1078
 3417TIP3   OH210256   0.057   0.307   0.881 -0.3759  1.1822 -0.0679
 3417TIP3    H110257   0.082   0.224   0.921 -0.3838 -0.0989 -2.4930
 3417TIP3    H210258   0.131   0.365   0.898  0.5237  0.0551  0.0082
 3418TIP3   OH210259   3.077   2.463   0.529 -0.0954  0.3199 -0.7332
 3418TIP3    H110260   3.024   2.542   0.515 -1.4202 -0.2663  0.6364
 3418TIP3    H210261   3.110   2.440   0.442  1.4068  3.0707 -0.9846
 3419TIP3   OH210262   3.095   0.657   2.290 -0.1375 -0.3493 -0.4709
 3419TIP3    H110263   3.076   0.719   2.220 -1.6154  0.9708  1.0291
 3419TIP3    H210264   3.029   0.589   2.280  0.3178 -0.7311 -0.9716
 3420TIP3   OH210265   5.645   4.995   3.736  0.2548 -0.0371 -0.2042
 3420TIP3    H110266   5.603   5.064   3.686 -0.3102 -0.7863 -0.7918
 3420TIP3    H210267   5.702   5.041   3.799 -0.5053  0.9566 -0.2272
 3421TIP3   OH210268   2.344   0.753   2.969  0.4903  0.6427 -0.0186
 3421TIP3    H110269   2.290   0.785   3.041  0.8555 -0.3642  0.7296
 3421TIP3    H210270   2.391   0.830   2.938  0.6034  1.0259  1.0667
 3422TIP3   OH210271   2.565   3.025   0.654  0.1605 -0.3570  0.3247
 3422TIP3    H110272   2.497   3.043   0.718 -1.5054 -1.9871 -0.8815
 3422TIP3    H210273   2.641   2.998   0.706 -0.3339  0.7303  1.6599
 3423TIP3   OH210274   2.010   3.500   0.555  0.2033  0.7867  0.1378
 3423TIP3    H110275   1.932   3.515   0.608  0.8618  0.9692  1.0836
 3423TIP3    H210276   2.037   3.588   0.529 -0.7928  0.6332 -1.5421
 3424TIP3   OH210277   1.530   2.896   2.533  0.5589 -0.2300  0.3631
 3424TIP3    H110278   1.509   2.824   2.473 -0.2466 -0.6602  1.1372
 3424TIP3    H210279   1.625   2.888   2.547  0.9037  0.3213 -1.3829
 3425TIP3   OH210280   0.222   3.834   2.961 -0.4104 -0.0191  0.1829
 3425TIP3    H110281   0.184   3.810   2.877 -0.8287  1.3580 -0.0458
 3425TIP3    H210282   0.248   3.925   2.951  1.3124 -0.3895  0.9385
 3426TIP3   OH210283   4.886   1.681   1.347 -0.0171 -0.1961 -0.3391
 3426TIP3    H110284   4.869   1.656   1.256 -2.8410  1.3613 -0.3459
 3426TIP3    H210285   4.916   1.772   1.341  2.4540 -0.9061  0.1864
 3427TIP3   OH210286   2.816   1.007   0.497 -0.4208 -0.1725  0.0205
 3427TIP3    H110287   2.759   1.061   0.443  3.0454  2.2664 -1.5232
 3427TIP3    H210288   2.860   1.068   0.556  2.1669 -1.5235 -0.3667
 3428TIP3   OH210289   0.471   1.046   0.792  0.7106 -0.0734  0.5299
 3428TIP3    H110290   0.438   1.037   0.703 -0.7557 -2.0853  1.1795
 3428TIP3    H210291   0.459   1.138   0.814  0.3160  0.2768 -1.0559
 3429TIP3   OH210292   0.628   5.507   0.622 -0.1642 -0.7067 -0.2664
 3429TIP3    H110293   0.631   5.594   0.663  1.0242 -0.6990 -0.3398
 3429TIP3    H210294   0.535   5.494   0.601 -0.4001  0.4281 -0.0125
 3430TIP3   OH210295   3.024   2.253   2.504  0.1459 -0.2843  0.1914
 3430TIP3    H110296   3.115   2.229   2.487 -0.0987 -1.3348  0.3098
 3430TIP3    H210297   2.973   2.199   2.444 -0.4458 -0.4310  0.8043
 3431TIP3   OH210298   3.493   5.891   4.507 -0.3598  0.0450  0.1828
 3431TIP3    H110299   3.563   5.924   4.450 -0.5969  0.3556  0.0632
 3431TIP3    H210300   3.416   5.942   4.481 -0.5587 -0.0800  0.5213
 3432TIP3   OH210301   0.382   4.231   0.526  0.8135  0.3211  1.1338
 3432TIP3    H110302   0.473   4.202   0.532  0.8216 -0.0640 -0.3764
 3432TIP3    H210303   0.388   4.321   0.491  0.6050 -0.2843 -0.5675
 3433TIP3   OH210304   2.297   5.393   1.177 -0.5471  0.2901 -0.7979
 3433TIP3    H110305   2.278   5.316   1.123 -0.5534 -0.4498  0.2186
 3433TIP3    H210306   2.221   5.401   1.234  0.1210  0.1107  0.1433
 3434TIP3   OH210307   4.575   5.580   0.354 -0.8901  0.2917  0.4282
 3434TIP3    H110308   4.637   5.573   0.281 -0.7983  2.6143  0.2053
 3434TIP3    H210309   4.514   5.508   0.341  1.2178 -1.5272  0.1483
 3435TIP3   OH210310   5.185   4.339   2.886  0.3428 -0.8635  0.1071
 3435TIP3    H110311   5.135   4.410   2.926 -1.1085 -1.1849 -1.0438
 3435TIP3    H210312   5.276   4.354   2.914  0.1966  1.8376 -0.6812
 3436TIP3   OH210313   2.091   4.977   4.270 -0.0712 -0.1838 -0.2443
 3436TIP3    H110314   2.069   4.960   4.362 -0.2877  0.2591 -0.2085
 3436TIP3    H210315   2.030   5.046   4.244 -0.3160 -0.6319 -0.8570
 3437TIP3   OH210316   3.069   0.288   0.993 -0.0864 -0.0131  0.0856
 3437TIP3    H110317   3.102   0.203   1.022 -2.9529 -1.2113  0.1283
 3437TIP3    H210318   3.119   0.307   0.913 -0.2005 -2.3535 -0.6154
 3438TIP3   OH210319   4.234   1.248   0.909 -0.0824 -0.3225  0.1200
 3438TIP3    H110320   4.308   1.215   0.859  1.1805  0.2141  1.5432
 3438TIP3    H210321   4.211   1.177   0.968 -0.9815 -0.6262 -0.5705
 3439TIP3   OH210322   2.010   4.545   1.854  0.4979 -0.9509  0.2185
 3439TIP3    H110323   2.056   4.515   1.932  0.4627 -0.8740  0.2677
 3439TIP3    H210324   1.946   4.608   1.885  1.1234 -0.1996  0.0326
 3440TIP3   OH210325   1.311   1.983   2.943  0.5145 -0.5174 -0.3430
 3440TIP3    H110326   1.295   2.000   2.850  3.2239  0.9520 -0.6607
 3440TIP3    H210327   1.290   2.066   2.986  1.5594 -0.4045 -0.0219
 3441TIP3   OH210328   2.447   3.042   5.141  0.3840 -0.1432  0.5554
 3441TIP3    H110329   2.413   2.992   5.067 -0.5549  0.3560  0.6334
 3441TIP3    H210330   2.517   2.988   5.177  0.5417 -0.5965 -0.4211
 3442TIP3   OH210331   3.415   4.232   4.255  0.1176 -0.4050 -0.1831
 3442TIP3    H110332   3.457   4.311   4.289  1.6265 -0.8947 -0.8428
 3442TIP3    H210333   3.486   4.181   4.216 -1.2836 -0.4282 -3.0209
 3443TIP3   OH210334   3.171   5.297   4.274  0.0350 -0.3050 -0.0631
 3443TIP3    H110335   3.096   5.353   4.292 -0.1267 -0.0392 -1.4506
 3443TIP3    H210336   3.242   5.334   4.327 -0.5459  0.0620  0.4721
 3444TIP3   OH210337   1.182   0.332   4.957 -0.2201  0.1527 -0.4333
 3444TIP3    H110338   1.183   0.236   4.961  1.8007  0.1049 -0.8711
 3444TIP3    H210339   1.090   0.355   4.957 -0.7459 -1.7352  0.8760
 3445TIP3   OH210340   3.726   2.873   3.002  0.0736 -0.1794 -0.1949
 3445TIP3    H110341   3.650   2.912   2.958 -1.1828 -2.2649 -0.0362
 3445TIP3    H210342   3.749   2.937   3.070 -2.0332  0.2233  0.2240
 3446TIP3   OH210343   0.229   5.134   4.630  0.0995  0.0459  0.9750
 3446TIP3    H110344   0.206   5.197   4.698  1.2494  3.3386 -1.4224
 3446TIP3    H210345   0.188   5.169   4.551  1.8130 -1.5886 -0.7383
 3447TIP3   OH210346   3.557   1.407   0.734 -0.0442 -0.5163  0.0534
 3447TIP3    H110347   3.627   1.346   0.756  0.3130 -0.1541 -0.0596
 3447TIP3    H210348   3.597   1.494   0.743 -0.3165 -0.3187 -0.5566
 3448TIP3   OH210349   0.183   3.075   1.108 -0.0323  0.0985  0.3278
 3448TIP3    H110350   0.110   3.023   1.075 -0.0348 -0.3748  1.0532
 3448TIP3    H210351   0.157   3.166   1.093 -0.1719 -0.0952 -0.6542
 3449TIP3   OH210352   4.363   5.307   2.557  0.3973  0.2761 -0.0175
 3449TIP3    H110353   4.268   5.322   2.552  0.5171  1.5950  1.0338
 3449TIP3    H210354   4.381   5.243   2.489 -1.2705 -0.0721 -0.1708
 3450TIP3   OH210355   2.433   0.621   2.705 -0.2041  0.3368  0.5094
 3450TIP3    H110356   2.511   0.566   2.693  1.3504  2.0689  1.8649
 3450TIP3    H210357   2.405   0.603   2.795 -2.0570 -1.0057 -0.2829
 3451TIP3   OH210358   0.186   1.337   4.800 -0.0582 -0.1697 -0.4993
 3451TIP3    H110359   0.211   1.379   4.717  0.3997  2.3867  0.8357
 3451TIP3    H210360   0.091   1.324   4.792 -0.6414  3.0249 -0.3246
 3452TIP3   OH210361   5.239   4.656   1.160 -0.4020 -0.5335  0.1414
 3452TIP3    H110362   5.328   4.622   1.157  0.3405  1.3220 -2.7923
 3452TIP3    H210363   5.190   4.599   1.101 -0.8789 -0.7722  0.7536
 3453TIP3   OH210364   0.593   1.890   1.307  0.6551  0.2952 -0.3015
 3453TIP3    H110365   0.600   1.858   1.397 -0.5573 -0.3528 -0.4113
 3453TIP3    H210366   0.602   1.812   1.253  1.0614  0.6356 -0.7294
 3454TIP3   OH210367   3.483   0.323   1.852 -0.0597 -0.5361  0.2516
 3454TIP3    H110368   3.498   0.229   1.860  0.8555 -0.4528 -0.2701
 3454TIP3    H210369   3.514   0.359   1.936  2.0053 -0.4702 -0.4661
 3455TIP3   OH210370   5.826   0.898   3.645 -0.0579  0.3841 -0.3617
 3455TIP3    H110371   5.915   0.862   3.643 -0.6603 -1.1408 -1.8510
 3455TIP3    H210372   5.794   0.887   3.555 -2.0849 -0.0120  0.3633
 3456TIP3   OH210373   2.161   4.808   2.864  0.0263 -0.1930 -0.0928
 3456TIP3    H110374   2.114   4.727   2.880 -1.5063  0.9629  1.6792
 3456TIP3    H210375   2.208   4.825   2.946  0.3838  0.6579 -0.4591
 3457TIP3   OH210376   4.037   1.316   0.737 -0.2477  0.0773  0.0009
 3457TIP3    H110377   4.060   1.307   0.644 -0.4250  1.9571 -0.2712
 3457TIP3    H210378   4.104   1.265   0.783  0.4595 -0.0506 -1.1217
 3458TIP3   OH210379   6.119   4.036   4.380 -0.8359 -0.2648 -0.4330
 3458TIP3    H110380   6.201   4.064   4.341  0.3950 -2.5571  0.3177
 3458TIP3    H210381   6.095   3.957   4.331 -1.2077 -1.0609  0.9737
 3459TIP3   OH210382   4.917   1.347   4.092 -0.2867 -0.3032 -0.1202
 3459TIP3    H110383   4.990   1.363   4.033 -0.0870  1.6252  0.5850
 3459TIP3    H210384   4.919   1.252   4.106 -0.2941 -0.8429 -3.0675
 3460TIP3   OH210385   1.596   5.874   3.977  0.0212  0.4661  0.4583
 3460TIP3    H110386   1.678   5.826   3.992  0.0165  0.7103  1.2953
 3460TIP3    H210387   1.527   5.811   3.996  0.0163  0.7069  1.2705
 3461TIP3   OH210388   3.132   5.040   4.584 -0.3322  0.5000  0.2099
 3461TIP3    H110389   3.147   5.035   4.489  1.4785 -1.3315  0.5210
 3461TIP3    H210390   3.145   5.133   4.605 -0.5669  0.9031 -1.2934
 3462TIP3   OH210391   0.566   1.055   2.953 -0.1862  0.4045  0.2702
 3462TIP3    H110392   0.507   1.110   2.901  0.9034  0.5832 -0.8077
 3462TIP3    H210393   0.596   1.112   3.024 -0.4802  0.6345  0.2113
 3463TIP3   OH210394   3.918   0.581   2.778  0.0446 -0.1280  0.3311
 3463TIP3    H110395   3.870   0.663   2.788 -0.2938 -0.1202 -1.1365
 3463TIP3    H210396   3.967   0.571   2.860  0.3749  1.7188  0.3981
 3464TIP3   OH210397   3.969   5.433   0.038  0.2354  0.6168  0.3214
 3464TIP3    H110398   4.055   5.445   0.078  0.8899 -1.5323 -0.2977
 3464TIP3    H210399   3.987   5.431  -0.057 -0.8274  2.2891  0.0436
 3465TIP3   OH210400   3.918   3.847   5.161  0.2319  0.0656 -0.0070
 3465TIP3    H110401   3.879   3.768   5.124  1.6832 -0.5887 -0.1890
 3465TIP3    H210402   3.881   3.853   5.249 -1.3112  0.2345 -0.6315
 3466TIP3   OH210403   1.802   1.582   3.284 -0.1570  0.0477  0.3075
 3466TIP3    H110404   1.723   1.557   3.236  0.6387 -2.5516  0.1943
 3466TIP3    H210405   1.874   1.547   3.233  1.0506  1.4412  0.9632
 3467TIP3   OH210406   3.045   0.883   5.159  0.5330  0.0568  0.0970
 3467TIP3    H110407   3.027   0.972   5.128  1.4003 -0.8025 -3.3222
 3467TIP3    H210408   2.993   0.874   5.238 -1.8728  2.6376 -1.0242
 3468TIP3   OH210409   5.051   2.785   2.528  0.1088 -0.1158 -0.4559
 3468TIP3    H110410   5.056   2.749   2.616  1.8513  2.1378  0.4287
 3468TIP3    H210411   4.959   2.771   2.502 -0.0297 -2.3881  0.9345
 3469TIP3   OH210412   5.379   5.229   0.605  0.0168 -0.0872  0.1610
 3469TIP3    H110413   5.359   5.311   0.650 -0.8569  0.0468 -0.4552
 3469TIP3    H210414   5.324   5.230   0.527  0.2179 -1.1267 -0.0095
 3470TIP3   OH210415   0.015   3.913   0.420  0.2138  0.3490 -0.7413
 3470TIP3    H110416   0.100   3.930   0.460  1.0234  1.5264 -2.7764
 3470TIP3    H210417   0.009   3.817   0.416  0.6784  0.2232  0.8753
 3471TIP3   OH210418   3.143   1.514   1.752  0.8335  0.3084 -0.4907
 3471TIP3    H110419   3.092   1.498   1.831  1.4136  0.8846  0.0110
 3471TIP3    H210420   3.175   1.428   1.725  0.4537  0.0864 -0.2233
 3472TIP3   OH210421   3.862   3.492   2.362 -0.3710 -0.1924  0.2069
 3472TIP3    H110422   3.931   3.427   2.370 -0.8854 -0.5922  1.6566
 3472TIP3    H210423   3.907   3.576   2.367  0.1353 -0.4319 -0.2027
 3473TIP3   OH210424   1.752   1.865   4.842 -0.3259  0.4329 -0.2693
 3473TIP3    H110425   1.755   1.894   4.933  0.7504 -1.4270  0.3330
 3473TIP3    H210426   1.828   1.908   4.801 -0.5056  0.8506 -0.1735
 3474TIP3   OH210427   4.179   3.076   0.513 -0.1339 -0.4320 -0.4489
 3474TIP3    H110428   4.248   3.062   0.578  0.7241  0.1802 -1.1892
 3474TIP3    H210429   4.200   3.015   0.442  0.6203  0.8566 -1.3875
 3475TIP3   OH210430   3.531   1.611   2.619 -0.5439  0.2509  0.4281
 3475TIP3    H110431   3.549   1.703   2.637  0.8548  0.2946 -0.9794
 3475TIP3    H210432   3.437   1.607   2.601 -0.6118  1.3853  0.4940
 3476TIP3   OH210433   5.543   4.669   4.194 -0.2551  0.2202  0.2697
 3476TIP3    H110434   5.507   4.722   4.265 -1.2037  0.4019 -0.3276
 3476TIP3    H210435   5.526   4.720   4.115  0.7613  0.0035 -0.0996
 3477TIP3   OH210436   0.739   5.016   1.380  0.3308  0.5407  0.1558
 3477TIP3    H110437   0.793   4.990   1.455  1.1037  0.4158 -0.4410
 3477TIP3    H210438   0.696   4.935   1.352  0.9234  0.3549 -0.2379
 3478TIP3   OH210439   5.107   5.567   2.200  0.2295  0.0469 -0.4912
 3478TIP3    H110440   5.047   5.505   2.159  0.0021  0.1983 -0.3878
 3478TIP3    H210441   5.140   5.619   2.128  1.2624 -0.9003 -0.7322
 3479TIP3   OH210442   1.686   2.853   1.568  0.2654 -0.4647  0.2279
 3479TIP3    H110443   1.600   2.893   1.551  1.3482  2.1106  0.4080
 3479TIP3    H210444   1.669   2.788   1.636 -1.3655  0.8744  1.1699
 3480TIP3   OH210445   0.633   3.292   3.887  0.2781  0.0241 -0.1236
 3480TIP3    H110446   0.611   3.382   3.862 -0.5720 -0.4411 -1.1356
 3480TIP3    H210447   0.717   3.275   3.845  0.9041  0.6376  0.8398
 3481TIP3   OH210448   5.374   1.935   4.158  0.1527  0.9211 -0.1543
 3481TIP3    H110449   5.362   1.845   4.128 -0.6855  0.5857  1.0826
 3481TIP3    H210450   5.349   1.989   4.083  0.3217  0.1329 -0.7940
 3482TIP3   OH210451   1.061   3.841   1.620 -0.0192 -0.4328 -0.0981
 3482TIP3    H110452   1.061   3.792   1.537  0.5559  0.7648 -0.8368
 3482TIP3    H210453   1.019   3.924   1.598  1.5681  0.5353  0.4014
 3483TIP3   OH210454   5.784   1.889   3.468 -0.1484 -0.3634  0.2418
 3483TIP3    H110455   5.807   1.825   3.535  0.3240 -0.2178  0.2208
 3483TIP3    H210456   5.803   1.845   3.385 -0.9357 -0.6234  0.1889
 3484TIP3   OH210457   6.353   0.693   3.745 -0.2748 -0.1242  0.0655
 3484TIP3    H110458   6.343   0.787   3.759 -0.2728 -0.0757 -0.2534
 3484TIP3    H210459   6.263   0.661   3.733 -0.1610  0.1342 -1.6745
 3485TIP3   OH210460   3.722   3.820   2.086 -0.4689  0.3033 -0.6182
 3485TIP3    H110461   3.747   3.896   2.138  0.1267 -1.0054  1.0922
 3485TIP3    H210462   3.627   3.818   2.091 -0.5648  1.4263 -1.4635
 3486TIP3   OH210463   3.308   5.720   1.948 -0.2106 -0.1224  0.0909
 3486TIP3    H110464   3.369   5.720   1.874  1.1521 -0.2077  1.1739
 3486TIP3    H210465   3.349   5.663   2.013 -1.8781 -0.8721  0.5346
 3487TIP3   OH210466   1.389   4.604   4.538  0.0673  0.1010  0.2368
 3487TIP3    H110467   1.313   4.655   4.510  0.7100  0.4436 -0.9603
 3487TIP3    H210468   1.354   4.541   4.601 -1.0745  0.7388  0.2562
 3488TIP3   OH210469   6.201   0.096   1.571  0.4090 -0.2813  0.0042
 3488TIP3    H110470   6.165   0.070   1.656  0.4428  2.7042  1.0407
 3488TIP3    H210471   6.124   0.122   1.520  0.6199  0.9647  0.2951
 3489TIP3   OH210472   5.310   0.343   1.656 -0.3005 -0.3813 -0.4278
 3489TIP3    H110473   5.313   0.254   1.692 -0.1202 -0.3332 -0.3209
 3489TIP3    H210474   5.402   0.365   1.640 -0.3330 -0.1475 -0.2915
 3490TIP3   OH210475   4.842   3.112   0.803  0.6351  0.2216  0.0713
 3490TIP3    H110476   4.801   3.143   0.884  0.0052 -2.3954  0.8299
 3490TIP3    H210477   4.809   3.171   0.735 -2.9772 -0.5904  0.9204
 3491TIP3   OH210478   5.947   0.371   3.161  0.4539  0.2213 -0.6728
 3491TIP3    H110479   5.853   0.389   3.164  0.1008 -1.5827  0.7938
 3491TIP3    H210480   5.953   0.285   3.119  1.5341  0.6062 -1.3604
 3492TIP3   OH210481   5.979   5.399   4.139 -0.2208  0.1128  0.7340
 3492TIP3    H110482   5.939   5.369   4.058 -0.8382  0.5483  0.8666
 3492TIP3    H210483   6.054   5.452   4.111 -0.9047  0.9353  0.4126
 3493TIP3   OH210484   5.865   2.800   4.181 -0.5642 -0.1506  0.0783
 3493TIP3    H110485   5.793   2.826   4.125 -0.9560  1.6955  1.3440
 3493TIP3    H210486   5.941   2.849   4.148 -0.4430 -0.2411  0.2183
 3494TIP3   OH210487   1.547   4.756   0.104 -0.0567 -0.3487 -0.6740
 3494TIP3    H110488   1.464   4.749   0.152 -0.1651  0.3781 -0.7411
 3494TIP3    H210489   1.547   4.680   0.046 -1.0671  0.0708 -1.2662
 3495TIP3   OH210490   5.329   2.323   4.649 -0.1183 -0.6828 -0.1251
 3495TIP3    H110491   5.414   2.353   4.681 -1.1159  3.3248 -0.6849
 3495TIP3    H210492   5.340   2.313   4.554 -0.4816  1.0396 -0.3811
 3496TIP3   OH210493   1.350   2.998   4.514  0.3799  0.0692 -0.4744
 3496TIP3    H110494   1.420   2.978   4.577  1.9141  0.7550 -1.8772
 3496TIP3    H210495   1.300   2.917   4.508  0.8781 -0.3722  0.7636
 3497TIP3   OH210496   4.488   0.761   2.950 -0.2532 -0.0956  0.2878
 3497TIP3    H110497   4.452   0.780   3.037 -0.0323  0.9529  0.1716
 3497TIP3    H210498   4.490   0.846   2.906  2.2643 -0.0971  0.2534
 3498TIP3   OH210499   1.602   5.154   2.857  0.2466 -0.0872  0.0501
 3498TIP3    H110500   1.695   5.176   2.864 -0.0646  1.5919 -0.5231
 3498TIP3    H210501   1.556   5.231   2.892 -0.9276 -0.1094 -1.3386
 3499TIP3   OH210502   6.007   2.349   4.942  0.1350 -0.1694  0.2460
 3499TIP3    H110503   6.067   2.373   5.013 -0.5011  1.8765  0.1621
 3499TIP3    H210504   6.063   2.307   4.876  0.8905 -1.2155  1.5151
 3500TIP3   OH210505   0.995   0.118   0.734 -0.4456  0.4818 -0.4313
 3500TIP3    H110506   0.982   0.210   0.759  0.7298  0.1629  1.5636
 3500TIP3    H210507   0.912   0.076   0.756 -0.4666  0.7882  0.0956
 3501TIP3   OH210508   0.963   3.726   1.894 -0.0314  0.1316  0.4985
 3501TIP3    H110509   0.985   3.724   1.801 -1.5047 -1.8083  0.1059
 3501TIP3    H210510   0.966   3.635   1.921  0.0539  0.6310  2.2929
 3502TIP3   OH210511   1.875   0.951   2.479 -0.0213 -0.4839 -0.5473
 3502TIP3    H110512   1.789   0.986   2.505  0.1639  0.2948 -0.9763
 3502TIP3    H210513   1.874   0.953   2.384  0.3002 -0.9098 -0.5617
 3503TIP3   OH210514   0.094   4.255   5.141 -0.3652  0.2173  0.0368
 3503TIP3    H110515   0.055   4.323   5.086 -0.5430 -0.0070 -0.1166
 3503TIP3    H210516   0.100   4.294   5.228  0.4989  0.8037 -0.2698
 3504TIP3   OH210517   5.255   1.259   1.073  0.4342 -0.3929  0.4382
 3504TIP3    H110518   5.267   1.343   1.030 -1.0554  0.4720  1.6189
 3504TIP3    H210519   5.239   1.197   1.002  0.9670  0.4286 -0.4106
 3505TIP3   OH210520   2.883   1.163   4.314  0.0343 -0.5715 -0.3754
 3505TIP3    H110521   2.954   1.220   4.343 -0.1742 -0.2623 -0.4717
 3505TIP3    H210522   2.806   1.219   4.313  0.1896 -0.3497 -2.3930
 3506TIP3   OH210523   3.022   5.478   2.347  0.5899  0.0540 -0.2529
 3506TIP3    H110524   3.106   5.432   2.356 -0.1081 -1.5069 -1.2136
 3506TIP3    H210525   3.023   5.512   2.257  0.0075 -0.3990 -0.4363
 3507TIP3   OH210526   5.736   3.072   0.353 -0.0781  0.0067 -0.2769
 3507TIP3    H110527   5.752   3.041   0.264 -0.6826  0.5542 -0.5869
 3507TIP3    H210528   5.750   3.166   0.349 -3.4453  0.6208 -0.6749
 3508TIP3   OH210529   0.292   3.740   0.705 -0.1895 -0.0404  0.6841
 3508TIP3    H110530   0.381   3.719   0.734 -0.9186 -0.1848  3.0332
 3508TIP3    H210531   0.297   3.829   0.670  0.6878  0.3319  1.7391
 3509TIP3   OH210532   4.819   5.168   0.170 -0.3418 -0.3490  0.0173
 3509TIP3    H110533   4.912   5.154   0.188 -0.0258  0.7121 -0.6582
 3509TIP3    H210534   4.818   5.222   0.091 -1.5674 -1.2317 -0.6012
 3510TIP3   OH210535   4.126   1.893   1.819 -0.1630  0.0183  0.1871
 3510TIP3    H110536   4.058   1.832   1.846 -1.7908  2.0839  0.9601
 3510TIP3    H210537   4.160   1.930   1.900  0.6321  0.3516 -0.2795
 3511TIP3   OH210538   3.907   5.997   1.349  0.5766 -0.1942  0.2045
 3511TIP3    H110539   4.002   5.983   1.344  0.3365 -2.2278  0.3234
 3511TIP3    H210540   3.876   5.981   1.260  0.3130  0.2301  0.2187
 3512TIP3   OH210541   2.803   1.195   4.833  0.1916  0.6993 -0.1894
 3512TIP3    H110542   2.719   1.225   4.799  0.5674  0.2411 -1.5898
 3512TIP3    H210543   2.868   1.243   4.782  0.7830 -0.4358 -0.5350
 3513TIP3   OH210544   0.728   0.803   5.168 -0.0647 -0.1130  0.2939
 3513TIP3    H110545   0.812   0.830   5.131  0.1924 -1.2477  0.0230
 3513TIP3    H210546   0.682   0.885   5.185  1.2445  0.5391  0.8128
 3514TIP3   OH210547   2.084   5.618   3.848 -0.6069  0.2683  0.5762
 3514TIP3    H110548   2.119   5.705   3.829 -2.4578  0.7915 -0.7787
 3514TIP3    H210549   1.997   5.619   3.807 -0.9627 -1.9629  1.1976
 3515TIP3   OH210550   2.800   0.695   2.785  0.6107 -0.8166  0.4015
 3515TIP3    H110551   2.780   0.604   2.809  1.0368 -0.6979  1.2228
 3515TIP3    H210552   2.791   0.744   2.867 -0.8769  0.1120 -0.2791
 3516TIP3   OH210553   3.464   1.139   0.359  0.5130  0.1774  0.0896
 3516TIP3    H110554   3.480   1.093   0.276  0.1284 -2.0573  1.1845
 3516TIP3    H210555   3.542   1.122   0.411 -1.1511 -2.5627  1.8924
 3517TIP3   OH210556   3.743   0.142   0.072  0.2908  0.3858  0.5109
 3517TIP3    H110557   3.740   0.235   0.048  1.0058  0.5069  0.8493
 3517TIP3    H210558   3.689   0.099   0.006 -0.3455  1.0854  0.5614
 3518TIP3   OH210559   2.961   2.099   2.285  0.1777 -0.2500 -0.4176
 3518TIP3    H110560   2.926   2.065   2.203  1.1018 -2.4990  0.0419
 3518TIP3    H210561   3.054   2.114   2.268 -0.1928  2.2890 -0.6182
 3519TIP3   OH210562   3.765   1.265   0.786 -0.3807  0.4228 -0.1223
 3519TIP3    H110563   3.857   1.274   0.761  0.0087 -1.2661  0.5402
 3519TIP3    H210564   3.766   1.255   0.881 -1.3106  0.9547 -0.0431
 3520TIP3   OH210565   3.072   4.912   3.851  0.2447  0.0127 -0.4052
 3520TIP3    H110566   3.079   4.970   3.775 -0.7037 -0.0995 -0.5912
 3520TIP3    H210567   3.006   4.847   3.826 -0.5439  0.3355  0.7258
 3521TIP3   OH210568   1.736   2.785   4.841  0.1466  0.1021 -0.0880
 3521TIP3    H110569   1.767   2.752   4.925  0.0557 -1.4824 -0.6275
 3521TIP3    H210570   1.695   2.709   4.800  0.6212  0.6994 -1.7655
 3522TIP3   OH210571   4.511   2.449   3.984 -0.9015  0.4520 -0.5881
 3522TIP3    H110572   4.490   2.469   4.075 -3.0917 -0.6592 -0.7772
 3522TIP3    H210573   4.431   2.470   3.935 -0.7536 -1.5776 -1.8207
 3523TIP3   OH210574   3.307   2.510   2.370 -0.3385 -0.0819  0.3107
 3523TIP3    H110575   3.318   2.431   2.423 -0.0025  0.5421  1.2076
 3523TIP3    H210576   3.313   2.582   2.434 -0.6547  0.6617 -0.4834
 3524TIP3   OH210577   3.215   4.534   1.924  0.2594  0.4143  0.0435
 3524TIP3    H110578   3.288   4.579   1.965  0.6334 -1.5306  1.6818
 3524TIP3    H210579   3.245   4.444   1.912 -1.0390  0.1370 -1.4839
 3525TIP3   OH210580   2.261   2.441   3.728  0.1787 -0.1410  0.1571
 3525TIP3    H110581   2.172   2.476   3.718  1.1055  2.0852 -1.3506
 3525TIP3    H210582   2.293   2.479   3.809 -0.0953 -0.6112  0.4887
 3526TIP3   OH210583   0.553   0.470   2.945  0.1017 -0.1023 -0.1026
 3526TIP3    H110584   0.520   0.415   2.873  0.5441 -0.9322  0.3154
 3526TIP3    H210585   0.522   0.558   2.923 -1.2841 -0.6269 -0.4028
 3527TIP3   OH210586   4.219   2.225   2.591  0.2044 -0.6227  0.1196
 3527TIP3    H110587   4.211   2.300   2.531  0.8594  1.0091  1.9526
 3527TIP3    H210588   4.253   2.154   2.536 -0.3515  0.4129 -1.6759
 3528TIP3   OH210589   3.092   3.238   0.051 -0.3262 -0.0882  0.4294
 3528TIP3    H110590   3.070   3.202  -0.034 -0.7789 -1.9249  1.2672
 3528TIP3    H210591   3.011   3.233   0.102  0.6170 -2.0479  1.9124
 3529TIP3   OH210592   0.929   1.272   3.960  0.4088  0.1568 -0.0963
 3529TIP3    H110593   0.844   1.249   3.998  0.6166  0.0952  0.3411
 3529TIP3    H210594   0.930   1.228   3.876 -0.7783  1.6953 -0.9752
 3530TIP3   OH210595   0.906   5.615   3.890  0.4598 -0.1654 -0.2208
 3530TIP3    H110596   0.912   5.617   3.985  0.2042 -0.4699 -0.1971
 3530TIP3    H210597   0.979   5.560   3.862  0.4067 -0.2536 -0.1867
 3531TIP3   OH210598   0.360   0.827   0.462 -0.8190  0.2137  0.0900
 3531TIP3    H110599   0.351   0.907   0.514 -3.8370  1.2372 -1.7490
 3531TIP3    H210600   0.279   0.778   0.477  0.2574 -1.7530 -0.0932
 3532TIP3   OH210601   1.783   0.140   1.412  0.3499 -0.4989  0.5149
 3532TIP3    H110602   1.749   0.059   1.375  0.6380 -0.9803  1.2891
 3532TIP3    H210603   1.732   0.153   1.492  1.4821 -0.8552  1.3160
 3533TIP3   OH210604   0.329   1.948   2.187 -0.1362  0.3820  0.4985
 3533TIP3    H110605   0.267   2.017   2.208 -0.0152  0.4536  0.6252
 3533TIP3    H210606   0.395   1.990   2.132  1.7242  1.2349  3.1351
 3534TIP3   OH210607   2.958   2.142   0.147 -0.2359  0.1133  0.7944
 3534TIP3    H110608   2.910   2.095   0.214  0.8294  1.7135  2.7925
 3534TIP3    H210609   2.909   2.223   0.133  0.4971  0.6077  0.9979
 3535TIP3   OH210610   1.741   1.801   2.972  0.0272 -0.1202 -0.0529
 3535TIP3    H110611   1.750   1.747   2.893  1.9094 -0.7167  0.5058
 3535TIP3    H210612   1.672   1.757   3.023 -0.4555 -0.3424 -0.8805
 3536TIP3   OH210613   4.119   5.730   2.404 -0.1004 -0.4136 -0.0514
 3536TIP3    H110614   4.102   5.763   2.316  0.7947  0.8689  0.2127
 3536TIP3    H210615   4.076   5.794   2.462  1.4509  0.2009  0.4752
 3537TIP3   OH210616   2.547   2.494   1.494 -0.1984  0.6905 -0.8511
 3537TIP3    H110617   2.633   2.536   1.499  0.0705  0.0167  1.1225
 3537TIP3    H210618   2.546   2.452   1.408  2.3367 -1.0512 -0.1576
 3538TIP3   OH210619   4.374   5.203   4.457 -0.1533  0.4096 -0.2818
 3538TIP3    H110620   4.443   5.144   4.427 -1.1151 -2.1738  2.1344
 3538TIP3    H210621   4.293   5.165   4.423 -0.6168  2.2712 -1.4053
 3539TIP3   OH210622   1.608   4.287   1.622  0.5380  0.1271  0.5256
 3539TIP3    H110623   1.629   4.282   1.715  0.7388  1.7144  0.5954
 3539TIP3    H210624   1.513   4.287   1.619  0.5313 -0.0037  0.7276
 3540TIP3   OH210625   4.998   4.509   3.075  0.2409  0.3461 -0.3578
 3540TIP3    H110626   4.994   4.574   3.145 -0.0874 -0.5401  0.4617
 3540TIP3    H210627   4.978   4.426   3.118  0.5289 -0.2850 -1.4124
 3541TIP3   OH210628   0.177   0.393   1.418 -0.2138 -0.1173 -0.1383
 3541TIP3    H110629   0.231   0.470   1.405  1.4931 -1.4683 -1.5849
 3541TIP3    H210630   0.152   0.396   1.510  2.2608  0.6602  0.5853
 3542TIP3   OH210631   4.607   1.617   0.835 -0.1434 -0.1335 -0.0673
 3542TIP3    H110632   4.632   1.667   0.757  2.6727  1.7369  1.8461
 3542TIP3    H210633   4.627   1.526   0.812  1.5404  0.4766 -1.2412
 3543TIP3   OH210634   1.150   5.907   1.228  0.1681  0.0051 -0.3240
 3543TIP3    H110635   1.124   5.846   1.160 -1.3419 -0.0242  0.2390
 3543TIP3    H210636   1.213   5.965   1.186 -0.3164 -0.3549 -1.5774
 3544TIP3   OH210637   0.185   1.811   1.543 -0.8724 -0.2792  0.1090
 3544TIP3    H110638   0.117   1.877   1.531 -0.4036  0.2389  0.2517
 3544TIP3    H210639   0.176   1.753   1.467 -0.0089  1.1108 -1.1039
 3545TIP3   OH210640   4.634   1.576   1.886  0.3406  0.3124 -0.1440
 3545TIP3    H110641   4.685   1.522   1.826 -1.1643  0.1748 -1.3676
 3545TIP3    H210642   4.656   1.544   1.973 -0.7844 -2.5826 -0.8189
 3546TIP3   OH210643   6.000   0.891   4.783 -0.3302 -0.1751  0.0535
 3546TIP3    H110644   6.026   0.822   4.844 -1.0315 -2.9712 -2.5618
 3546TIP3    H210645   6.079   0.910   4.733 -0.1247  1.0421  0.7955
 3547TIP3   OH210646   4.348   0.116   0.914  0.3742 -0.4228 -0.1187
 3547TIP3    H110647   4.378   0.157   0.833 -0.8592 -1.0368 -0.9266
 3547TIP3    H210648   4.374   0.024   0.905  1.9586 -0.1372  1.0879
 3548TIP3   OH210649   1.369   3.387   0.132  0.0042  0.4826 -0.2119
 3548TIP3    H110650   1.312   3.311   0.137  1.5409 -0.6174  1.7087
 3548TIP3    H210651   1.436   3.363   0.069  0.5090  0.2144  0.4195
 3549TIP3   OH210652   0.142   2.199   2.016  0.0772  0.2269  0.0007
 3549TIP3    H110653   0.084   2.233   2.085  1.4031 -3.1446  3.1052
 3549TIP3    H210654   0.093   2.125   1.979  0.1744  0.8314 -1.3613
 3550TIP3   OH210655   5.745   4.144   0.459  0.4326  0.4576  0.8347
 3550TIP3    H110656   5.805   4.218   0.462  0.1872  0.8067 -1.3075
 3550TIP3    H210657   5.788   4.081   0.401  1.1665 -1.6365  3.4611
 3551TIP3   OH210658   4.811   4.646   1.627 -0.1502 -0.2715  0.4226
 3551TIP3    H110659   4.848   4.608   1.547  0.6056 -0.0337  0.6550
 3551TIP3    H210660   4.717   4.638   1.615 -0.0839  0.5368 -0.8849
 3552TIP3   OH210661   5.450   1.776   3.556  0.2781  0.3439  0.1086
 3552TIP3    H110662   5.490   1.819   3.632  0.3437  0.7364 -0.1482
 3552TIP3    H210663   5.452   1.842   3.487 -0.4857  0.2463 -0.0160
 3553TIP3   OH210664   1.820   5.499   0.321 -0.0046  0.4332 -0.0948
 3553TIP3    H110665   1.825   5.406   0.300 -0.8078  0.6772 -1.5025
 3553TIP3    H210666   1.874   5.542   0.253  0.5860  0.9839  0.7002
 3554TIP3   OH210667   3.435   1.811   2.232  0.2401  0.0069  0.4840
 3554TIP3    H110668   3.461   1.775   2.147  0.1924 -0.4373  0.6541
 3554TIP3    H210669   3.397   1.737   2.279 -2.4586  0.8425 -0.1672
 3555TIP3   OH210670   5.802   0.365   5.128  0.2544  0.4283 -0.0668
 3555TIP3    H110671   5.781   0.454   5.099 -0.3394  0.7868  1.3604
 3555TIP3    H210672   5.886   0.374   5.173  0.0856  0.3149  0.2753
 3556TIP3   OH210673   0.050   2.777   4.146  0.1677 -0.0106  0.4288
 3556TIP3    H110674   0.050   2.681   4.143  0.6644 -0.0112  0.3975
 3556TIP3    H210675   0.142   2.801   4.158  0.3711  0.5215 -1.7774
 3557TIP3   OH210676   3.554   0.837   2.417 -0.5614  0.0069  0.0230
 3557TIP3    H110677   3.612   0.855   2.491 -1.4131 -0.3817  0.8170
 3557TIP3    H210678   3.482   0.899   2.427 -0.5034  0.1965 -0.6975
 3558TIP3   OH210679   5.301   2.782   0.407 -0.1184 -0.9093 -0.4584
 3558TIP3    H110680   5.263   2.775   0.494 -0.0702 -2.8400 -0.5396
 3558TIP3    H210681   5.226   2.794   0.349 -0.1558  0.3085 -0.1884
 3559TIP3   OH210682   4.342   1.142   2.981 -0.0652  0.4515  0.0173
 3559TIP3    H110683   4.282   1.068   2.978 -0.7099  0.9312  0.6516
 3559TIP3    H210684   4.377   1.148   2.892  0.4579 -0.9668  0.1120
 3560TIP3   OH210685   0.992   2.859   0.477 -0.1425 -0.1405 -0.4538
 3560TIP3    H110686   0.903   2.866   0.512 -0.1029  0.5656 -0.4664
 3560TIP3    H210687   1.004   2.766   0.459 -0.1630 -0.5453  1.4168
 3561TIP3   OH210688   3.235   5.789   1.116 -0.6809  0.5400 -0.4620
 3561TIP3    H110689   3.191   5.871   1.138  0.1392  0.5895  1.1567
 3561TIP3    H210690   3.203   5.726   1.181  0.7918  0.3162  0.0906
 3562TIP3   OH210691   1.530   5.515   1.670  0.0860  0.3706  0.2398
 3562TIP3    H110692   1.579   5.463   1.608  0.6171  0.3032  0.7058
 3562TIP3    H210693   1.484   5.451   1.724  0.4739  0.3876  0.5970
 3563TIP3   OH210694   0.158   5.282   4.824 -0.0022  0.1643  0.7647
 3563TIP3    H110695   0.227   5.324   4.876  1.4803  0.8563 -1.5849
 3563TIP3    H210696   0.082   5.339   4.833  0.1990  0.2334  2.1767
 3564TIP3   OH210697   0.006   4.564   0.219  0.1234 -0.1765 -0.5926
 3564TIP3    H110698  -0.029   4.498   0.160 -0.8863  0.4910 -0.7719
 3564TIP3    H210699   0.092   4.586   0.183 -0.9457  1.0674 -2.5535
 3565TIP3   OH210700   0.984   0.120   2.108  0.1945  0.1895 -0.4845
 3565TIP3    H110701   1.075   0.149   2.097  0.1282  0.1363 -1.2416
 3565TIP3    H210702   0.936   0.198   2.136  0.2687  0.4938 -1.1832
 3566TIP3   OH210703   4.010   5.564   1.815  0.6888 -0.0843 -0.0242
 3566TIP3    H110704   4.079   5.606   1.866  0.0860 -1.2063  1.8043
 3566TIP3    H210705   4.044   5.562   1.726  1.8937  1.7065  0.3431
 3567TIP3   OH210706   2.986   5.893   2.869 -0.0011  0.5313  0.1995
 3567TIP3    H110707   2.999   5.857   2.957  0.2248  0.2892  0.0656
 3567TIP3    H210708   3.029   5.831   2.810 -0.3897  0.5505 -0.1087
 3568TIP3   OH210709   4.061   4.806   2.468  0.6158  0.0738 -0.5536
 3568TIP3    H110710   4.104   4.827   2.385  1.3721 -0.9035 -0.4304
 3568TIP3    H210711   4.016   4.887   2.493 -1.0279 -0.0699 -2.7200
 3569TIP3   OH210712   4.949   3.612   4.829 -0.1179 -0.0329  0.1409
 3569TIP3    H110713   5.000   3.690   4.813 -0.5603  0.7853  2.3439
 3569TIP3    H210714   5.014   3.544   4.848  0.2351  0.4751  0.8189
 3570TIP3   OH210715   2.783   0.286   2.014  0.1200 -0.2131 -0.0487
 3570TIP3    H110716   2.731   0.354   2.057  1.4931 -0.0407  1.4049
 3570TIP3    H210717   2.862   0.331   1.984  0.0236 -0.7212 -1.1323
 3571TIP3   OH210718   4.408   0.837   2.207  0.3038  0.1587 -0.1799
 3571TIP3    H110719   4.336   0.900   2.212  1.3112  1.5128 -1.7836
 3571TIP3    H210720   4.422   0.810   2.298 -2.2783 -0.2863  0.1868
 3572TIP3   OH210721   2.517   5.751   4.653  0.2499 -0.0694 -0.4085
 3572TIP3    H110722   2.470   5.799   4.584 -0.0629 -0.6049 -0.5718
 3572TIP3    H210723   2.582   5.814   4.686  0.8127  0.0029 -1.6047
 3573TIP3   OH210724   4.405   1.077   1.248 -0.0735 -0.3703  0.0571
 3573TIP3    H110725   4.421   1.169   1.272 -0.4837 -0.7443  1.9790
 3573TIP3    H210726   4.403   1.031   1.332 -0.8712 -1.9839 -0.8009
 3574TIP3   OH210727   3.496   3.295   4.270  0.1575 -0.3410 -0.0191
 3574TIP3    H110728   3.446   3.283   4.189 -0.1497  1.2370 -0.0831
 3574TIP3    H210729   3.478   3.385   4.297  2.5277  0.1067  0.2708
 3575TIP3   OH210730   1.001   4.621   5.088  0.2935  0.2034 -0.0007
 3575TIP3    H110731   1.074   4.564   5.109 -1.0832 -2.2043 -1.3053
 3575TIP3    H210732   1.006   4.632   4.993 -1.7888 -1.2075 -0.3337
 3576TIP3   OH210733   4.299   3.880   2.879  0.2478  0.4796 -0.0097
 3576TIP3    H110734   4.392   3.857   2.871 -0.2351 -1.9210  0.3983
 3576TIP3    H210735   4.262   3.861   2.793 -0.1366 -0.1512  0.2842
 3577TIP3   OH210736   2.330   2.175   3.052  0.0375 -0.1363 -0.0512
 3577TIP3    H110737   2.395   2.240   3.079 -0.2990  0.0150  0.4199
 3577TIP3    H210738   2.291   2.211   2.972 -0.2386  0.3077  0.2797
 3578TIP3   OH210739   2.368   4.879   0.788 -0.0999 -0.2047 -0.1895
 3578TIP3    H110740   2.304   4.900   0.856 -1.1191  1.1806 -1.5102
 3578TIP3    H210741   2.343   4.934   0.714  0.7246 -1.9199 -1.8312
 3579TIP3   OH210742   1.742   4.419   4.895 -0.1123  0.5652  0.7196
 3579TIP3    H110743   1.725   4.409   4.988 -1.8351 -0.1138  0.3842
 3579TIP3    H210744   1.655   4.424   4.855  0.5644  0.1864 -0.9112
 3580TIP3   OH210745   0.512   5.156   4.580 -0.4598 -0.2067  0.0078
 3580TIP3    H110746   0.546   5.136   4.667 -1.0873  0.5719  0.4392
 3580TIP3    H210747   0.418   5.170   4.594 -0.4957  0.3189 -0.7262
 3581TIP3   OH210748   6.047   1.273   0.255  0.6482 -0.7144 -0.0180
 3581TIP3    H110749   5.960   1.283   0.294  1.0793  1.1424  0.5521
 3581TIP3    H210750   6.067   1.180   0.266 -1.4493 -1.3034 -0.6071
 3582TIP3   OH210751   4.380   5.416   4.656  0.0530 -0.1294  0.0645
 3582TIP3    H110752   4.294   5.397   4.694 -0.1676 -1.4406 -1.0150
 3582TIP3    H210753   4.364   5.421   4.562  1.1634 -0.5345 -0.1651
 3583TIP3   OH210754   1.941   5.909   4.509  0.3609 -0.2156 -0.1718
 3583TIP3    H110755   1.970   5.824   4.542  2.4194  0.4169 -0.1798
 3583TIP3    H210756   1.896   5.950   4.582 -1.0252 -1.4348 -0.2911
 3584TIP3   OH210757   3.252   2.993   0.904 -0.3226  0.5265 -0.6637
 3584TIP3    H110758   3.164   2.971   0.934  0.0363  0.9465  0.8171
 3584TIP3    H210759   3.284   2.914   0.860 -0.7184 -0.3279  0.5447
 3585TIP3   OH210760   2.189   4.904   5.037 -0.0600  0.0062  0.1872
 3585TIP3    H110761   2.098   4.874   5.023  0.5789 -2.2524  0.3823
 3585TIP3    H210762   2.209   4.877   5.127  1.1932 -0.6974 -0.2787
 3586TIP3   OH210763   1.951   4.777   5.027 -0.3393  0.1534 -0.1507
 3586TIP3    H110764   1.984   4.693   4.994 -1.6195 -0.9476  1.2201
 3586TIP3    H210765   1.919   4.822   4.949  0.9582 -0.3281 -1.0015
 3587TIP3   OH210766   3.106   1.792   4.673 -0.3581 -0.3109  0.5401
 3587TIP3    H110767   3.034   1.762   4.618 -1.2569 -0.4443  1.7462
 3587TIP3    H210768   3.160   1.845   4.615 -1.1551 -0.6217 -0.5134
 3588TIP3   OH210769   3.413   1.035   2.562  0.1430  0.4945 -0.2150
 3588TIP3    H110770   3.380   1.099   2.499 -1.2247 -0.0538 -0.1016
 3588TIP3    H210771   3.436   1.087   2.639  0.4308  1.0106 -0.6463
 3589TIP3   OH210772   1.539   3.015   1.083 -0.5163  0.5083 -0.0290
 3589TIP3    H110773   1.619   2.998   1.032 -0.7517  1.0922 -0.6097
 3589TIP3    H210774   1.468   2.981   1.029 -0.6218 -0.7936  0.8641
 3590TIP3   OH210775   5.650   2.021   5.094 -0.4052 -0.7579  0.1222
 3590TIP3    H110776   5.584   2.084   5.065 -1.1804 -0.6003  2.0602
 3590TIP3    H210777   5.664   1.964   5.018 -1.1838  0.5044 -1.0164
 3591TIP3   OH210778   1.851   0.334   0.827 -0.3945  0.5164  0.4862
 3591TIP3    H110779   1.770   0.338   0.878 -1.7014 -1.2904 -1.2958
 3591TIP3    H210780   1.907   0.275   0.876 -1.0396  0.0043  0.6283
 3592TIP3   OH210781   3.793   3.006   4.950  0.2836  0.4148  0.1793
 3592TIP3    H110782   3.796   3.098   4.924 -0.3349  0.4618  0.2581
 3592TIP3    H210783   3.872   2.967   4.911  0.7503  1.0529  0.4550
 3593TIP3   OH210784   4.859   3.627   3.081 -0.1214 -0.0021  0.0556
 3593TIP3    H110785   4.792   3.609   3.147  0.6476 -2.8660  0.1538
 3593TIP3    H210786   4.882   3.542   3.046  3.5959  0.8321  0.1270
 3594TIP3   OH210787   0.927   1.518   3.291  0.2082 -0.1861  0.3391
 3594TIP3    H110788   0.924   1.507   3.196 -0.3231  3.1941 -0.1342
 3594TIP3    H210789   0.863   1.455   3.324 -1.1497  0.0191 -1.7170
 3595TIP3   OH210790   5.259   5.383   3.981 -0.4650 -0.8978  0.4357
 3595TIP3    H110791   5.215   5.300   3.964 -0.8128 -0.9264  1.3924
 3595TIP3    H210792   5.351   5.360   3.988 -0.5562 -1.2034  0.6614
 3596TIP3   OH210793   2.200   2.331   1.348  0.1006  0.1529  0.1438
 3596TIP3    H110794   2.171   2.396   1.285 -0.9800 -0.7745 -0.3485
 3596TIP3    H210795   2.270   2.284   1.303  0.5846  0.6729  0.3385
 3597TIP3   OH210796   4.575   0.224   1.731  0.5038  0.2837 -0.1798
 3597TIP3    H110797   4.548   0.303   1.683 -0.7296 -0.1515 -0.2168
 3597TIP3    H210798   4.578   0.252   1.823 -1.1215  0.0786 -0.0481
 3598TIP3   OH210799   0.496   1.180   3.365 -0.0223 -0.5929  0.4688
 3598TIP3    H110800   0.546   1.199   3.286 -0.7195 -0.0412  0.1464
 3598TIP3    H210801   0.508   1.086   3.380  1.4006 -0.4068  0.6157
 3599TIP3   OH210802   6.032   0.812   0.895 -0.4781  0.0202  0.2081
 3599TIP3    H110803   6.028   0.763   0.813 -0.2587  0.0207  0.1959
 3599TIP3    H210804   6.019   0.746   0.963  1.4966 -0.3709  0.2811
 3600TIP3   OH210805   4.594   0.919   4.924  0.5111 -0.2753 -0.3391
 3600TIP3    H110806   4.499   0.930   4.933  0.4596 -1.7348  1.5630
 3600TIP3    H210807   4.603   0.852   4.855  0.0953 -0.7201  0.0267
 3601TIP3   OH210808   0.421   1.442   0.197 -0.1194  0.4010  0.0642
 3601TIP3    H110809   0.407   1.357   0.156 -0.1664 -0.1378  1.1610
 3601TIP3    H210810   0.483   1.487   0.140  0.5728 -0.7031 -0.0709
 3602TIP3   OH210811   3.725   0.915   2.039 -0.0478  0.1276  0.2613
 3602TIP3    H110812   3.653   0.977   2.050 -1.0675 -1.1321  0.8436
 3602TIP3    H210813   3.685   0.829   2.045  1.4365 -0.6201  0.0721
 3603TIP3   OH210814   5.762   5.312   3.878  0.6268  0.1672 -0.3335
 3603TIP3    H110815   5.785   5.400   3.848  0.4097  0.2256 -0.3304
 3603TIP3    H210816   5.770   5.258   3.799  0.7127  0.1979 -0.3465
 3604TIP3   OH210817   1.941   2.987   0.148  0.1865  0.1688 -0.0789
 3604TIP3    H110818   1.994   3.029   0.079  1.7237  0.1148  1.0153
 3604TIP3    H210819   1.885   3.057   0.181  0.5635  0.5949 -0.3280
 3605TIP3   OH210820   5.877   5.304   2.921  0.1710  0.3325  0.5684
 3605TIP3    H110821   5.942   5.259   2.976 -0.3305 -1.8094 -0.4951
 3605TIP3    H210822   5.908   5.291   2.832 -1.7851 -0.9086  0.0237
 3606TIP3   OH210823   4.531   0.414   4.497  0.1221 -0.0692 -0.0501
 3606TIP3    H110824   4.492   0.448   4.578  0.7033  1.3120 -0.3277
 3606TIP3    H210825   4.509   0.321   4.498 -0.2195 -0.0090  1.5066
 3607TIP3   OH210826   6.150   2.504   3.674  0.0099  0.3025 -0.0175
 3607TIP3    H110827   6.103   2.562   3.735 -4.2365 -1.9513 -0.7700
 3607TIP3    H210828   6.184   2.434   3.729  1.2957  1.1497  0.3309
 3608TIP3   OH210829   5.042   1.467   3.291 -0.6423  0.3042  0.0757
 3608TIP3    H110830   5.012   1.378   3.309 -0.9069  0.4617  0.4325
 3608TIP3    H210831   5.134   1.467   3.315 -0.4590 -0.0689 -0.6174
 3609TIP3   OH210832   0.161   2.404   0.051 -0.2281 -0.0056 -0.0874
 3609TIP3    H110833   0.160   2.318   0.009  0.2823 -0.6837  1.2325
 3609TIP3    H210834   0.240   2.447   0.017 -1.1248  0.4623 -1.6868
 3610TIP3   OH210835   3.317   0.441   3.702  0.0025  0.3769 -0.1884
 3610TIP3    H110836   3.320   0.355   3.744 -0.2119 -0.1034 -1.1452
 3610TIP3    H210837   3.408   0.464   3.688  0.0830  0.6120  0.6737
 3611TIP3   OH210838   1.712   3.921   2.224  0.5775  0.4682 -0.1653
 3611TIP3    H110839   1.765   3.949   2.150  0.3930  1.0816 -0.0688
 3611TIP3    H210840   1.630   3.971   2.215 -0.0794 -0.6230 -0.4447
 3612TIP3   OH210841   3.357   4.038   3.235 -0.0737  0.2218 -0.2479
 3612TIP3    H110842   3.370   3.952   3.196 -0.4430 -0.4640  1.0896
 3612TIP3    H210843   3.275   4.070   3.196 -0.2874 -0.3203 -0.2465
 3613TIP3   OH210844   3.225   5.362   0.834 -0.1321  0.0389  0.7397
 3613TIP3    H110845   3.287   5.413   0.783 -0.2125 -0.4605  0.1252
 3613TIP3    H210846   3.141   5.375   0.789  0.3117 -2.8522 -1.1815
 3614TIP3   OH210847   0.816   1.962   3.348  0.3081  0.3013 -0.2842
 3614TIP3    H110848   0.757   1.975   3.273  0.4835  2.0517 -0.1708
 3614TIP3    H210849   0.883   2.029   3.337  0.6603  0.2068  1.1263
 3615TIP3   OH210850   5.281   4.808   4.616  0.6563  0.3471  0.4942
 3615TIP3    H110851   5.211   4.846   4.669  2.1485  1.7864  1.5490
 3615TIP3    H210852   5.338   4.765   4.680  0.6618 -0.9980 -0.3703
 3616TIP3   OH210853   5.686   2.257   0.168  0.4344  0.4364 -0.5692
 3616TIP3    H110854   5.602   2.238   0.208  0.3457  1.9905  0.0268
 3616TIP3    H210855   5.669   2.252   0.073 -0.0489 -0.3243 -0.4498
 3617TIP3   OH210856   0.607   1.971   3.910  0.7943  0.7289 -0.7049
 3617TIP3    H110857   0.523   1.932   3.931  1.3526  0.3453  1.0154
 3617TIP3    H210858   0.624   1.946   3.819 -0.5969  0.1973 -0.8320
 3618TIP3   OH210859   5.101   3.790   2.418  0.2269  0.5015  0.8756
 3618TIP3    H110860   5.161   3.814   2.489 -0.9298  1.7861  1.4588
 3618TIP3    H210861   5.029   3.853   2.425 -2.5198 -2.4980  1.8024
 3619TIP3   OH210862   2.442   4.740   1.988 -0.1592 -0.3988  0.0447
 3619TIP3    H110863   2.451   4.652   2.024 -0.8083 -0.3144  0.4404
 3619TIP3    H210864   2.390   4.729   1.909  0.3105 -0.4422 -0.2662
 3620TIP3   OH210865   1.785   0.477   1.490 -0.2830  0.4381  0.1820
 3620TIP3    H110866   1.803   0.531   1.566  0.4245 -0.0308  0.3525
 3620TIP3    H210867   1.866   0.430   1.473 -1.6191 -2.8022  1.8107
 3621TIP3   OH210868   0.580   3.550   4.797 -0.3554  0.3178 -0.3789
 3621TIP3    H110869   0.503   3.493   4.798 -0.8506  0.9740  0.1002
 3621TIP3    H210870   0.593   3.573   4.705  0.7253 -1.7052 -0.7797
 3622TIP3   OH210871   4.200   3.407   0.696 -0.2522  0.0622  0.3565
 3622TIP3    H110872   4.224   3.365   0.614  0.9383  1.6856 -0.1830
 3622TIP3    H210873   4.238   3.351   0.764 -0.4505 -0.7906 -0.2272
 3623TIP3   OH210874   2.497   1.591   3.483  0.9801  0.1650 -0.0704
 3623TIP3    H110875   2.519   1.631   3.567  0.4242 -0.8749  0.6008
 3623TIP3    H210876   2.458   1.662   3.432  0.6414  0.6460  0.8254
 3624TIP3   OH210877   4.987   1.330   4.708  0.8521  0.1514  0.1845
 3624TIP3    H110878   4.981   1.415   4.666  1.1767  0.4223  0.6835
 3624TIP3    H210879   5.077   1.301   4.693  0.8668  0.0892  0.3820
 3625TIP3   OH210880   4.648   4.146   1.290  0.4796  0.2372  0.3015
 3625TIP3    H110881   4.605   4.217   1.242  0.5436 -0.4015 -0.7212
 3625TIP3    H210882   4.699   4.191   1.357 -0.2113  1.1092  0.2616
 3626TIP3   OH210883   5.848   2.528   0.923 -0.6667  0.0210  0.3516
 3626TIP3    H110884   5.903   2.449   0.919  0.5883  0.9156 -2.4783
 3626TIP3    H210885   5.758   2.494   0.922 -0.1744 -1.4027  1.4550
 3627TIP3   OH210886   4.813   2.977   4.601  0.5425  0.2996  0.1977
 3627TIP3    H110887   4.724   2.978   4.566  1.4189  1.9189 -2.1720
 3627TIP3    H210888   4.823   3.063   4.643  1.8831  1.4171 -2.2105
 3628TIP3   OH210889   2.623   1.164   1.752  0.0432  0.2284  0.1440
 3628TIP3    H110890   2.638   1.095   1.687  0.0191  0.0353  0.3442
 3628TIP3    H210891   2.618   1.245   1.700 -0.9340 -0.0374 -0.1886
 3629TIP3   OH210892   3.584   1.858   3.028 -0.7967  0.2674 -0.2588
 3629TIP3    H110893   3.529   1.850   3.105 -3.8917  0.5425 -2.2609
 3629TIP3    H210894   3.648   1.926   3.051 -3.2933  2.3072  1.2198
 3630TIP3   OH210895   6.224   1.667   2.394 -0.0815 -0.7947 -0.1358
 3630TIP3    H110896   6.261   1.591   2.349 -0.2116 -0.3685 -0.9836
 3630TIP3    H210897   6.232   1.739   2.331 -1.1086 -0.3861  0.1674
 3631TIP3   OH210898   1.275   5.025   4.525 -0.2989  0.0957  0.0958
 3631TIP3    H110899   1.363   4.987   4.518 -0.2860 -0.2708  1.8548
 3631TIP3    H210900   1.263   5.072   4.442  1.2163 -0.5327 -0.5238
 3632TIP3   OH210901   5.672   2.689   0.185 -0.2091 -0.0476 -0.1236
 3632TIP3    H110902   5.687   2.718   0.095 -0.7078  0.4952 -0.0353
 3632TIP3    H210903   5.597   2.630   0.179 -0.3947  0.1768 -0.0330
 3633TIP3   OH210904   1.512   0.401   1.401  0.1567  0.1972  0.3014
 3633TIP3    H110905   1.514   0.356   1.316 -1.6422  0.1372  0.2381
 3633TIP3    H210906   1.603   0.422   1.420  0.7479 -1.0141 -0.9934
 3634TIP3   OH210907   4.407   3.127   2.678  0.2189  0.1545 -0.1397
 3634TIP3    H110908   4.336   3.145   2.739 -0.1775 -1.3703 -0.1062
 3634TIP3    H210909   4.412   3.206   2.623  1.1596  1.9436  2.3488
 3635TIP3   OH210910   1.904   3.615   2.138 -0.0828  0.7193 -0.1606
 3635TIP3    H110911   1.868   3.640   2.223  2.2978 -0.2005  1.2011
 3635TIP3    H210912   1.950   3.532   2.154  3.3121  2.1591 -1.4763
 3636TIP3   OH210913   5.318   2.197   3.056 -0.0096  0.2509 -0.0552
 3636TIP3    H110914   5.408   2.183   3.024 -0.6525  0.5680 -2.1865
 3636TIP3    H210915   5.327   2.265   3.122  1.1521  1.7504 -1.6280
 3637TIP3   OH210916   3.452   0.056   0.574 -0.0108 -0.1135 -0.1932
 3637TIP3    H110917   3.496   0.098   0.500  0.8768 -0.2280  0.2539
 3637TIP3    H210918   3.439  -0.035   0.546  1.1223 -0.3854  0.1073
 3638TIP3   OH210919   5.613   5.654   0.984 -0.0547  0.6155 -0.0702
 3638TIP3    H110920   5.602   5.645   0.889  1.1427 -0.6605 -0.1164
 3638TIP3    H210921   5.681   5.721   0.994  0.4941  0.0783 -0.1539
 3639TIP3   OH210922   3.551   5.190   0.853  0.1452 -0.3146 -0.4072
 3639TIP3    H110923   3.590   5.105   0.830  0.8906 -0.1315  0.1500
 3639TIP3    H210924   3.617   5.254   0.829 -0.1076  0.0546 -0.1201
 3640TIP3   OH210925   3.868   4.152   3.895 -0.3902  0.1227 -0.4473
 3640TIP3    H110926   3.848   4.122   3.806  1.0151 -2.3950 -0.0001
 3640TIP3    H210927   3.925   4.227   3.883 -0.2258 -0.1767 -1.6925
 3641TIP3   OH210928   4.256   2.201   0.244  0.1824  0.3031 -0.0244
 3641TIP3    H110929   4.229   2.182   0.333  1.8119 -0.4691  0.3335
 3641TIP3    H210930   4.252   2.117   0.199  0.8175  0.4053 -0.2772
 3642TIP3   OH210931   4.506   3.495   0.945 -0.3966  0.4190 -0.4957
 3642TIP3    H110932   4.445   3.433   0.905  0.4279 -0.7033 -0.0621
 3642TIP3    H210933   4.514   3.465   1.036 -0.0454  1.2174 -0.2594
 3643TIP3   OH210934   5.339   4.701   2.286  0.0750  0.0226  0.0573
 3643TIP3    H110935   5.323   4.790   2.318 -0.4481 -0.0504  0.0040
 3643TIP3    H210936   5.325   4.706   2.192 -2.5602 -0.6671  0.3547
 3644TIP3   OH210937   2.792   3.486   1.346 -0.4285  0.0650 -0.1386
 3644TIP3    H110938   2.796   3.427   1.271 -0.2388  1.0472 -0.9335
 3644TIP3    H210939   2.708   3.468   1.387 -1.2624  0.5900 -1.5338
 3645TIP3   OH210940   2.765   5.606   4.296 -0.2858 -0.2455 -0.1137
 3645TIP3    H110941   2.706   5.682   4.292  0.0250  0.0024  0.0090
 3645TIP3    H210942   2.846   5.636   4.256  0.4763  0.0746  1.5804
 3646TIP3   OH210943   5.527   1.219   0.755 -0.3898 -0.6695 -0.1185
 3646TIP3    H110944   5.497   1.260   0.674 -0.7993  0.0875  0.4042
 3646TIP3    H210945   5.538   1.292   0.816  1.1426 -1.0757  0.1444
 3647TIP3   OH210946   5.804   0.562   0.690 -0.2903 -0.2347 -0.5089
 3647TIP3    H110947   5.734   0.521   0.639 -1.8036  2.4696 -0.7815
 3647TIP3    H210948   5.882   0.554   0.635 -0.9661 -1.0145 -1.3859
 3648TIP3   OH210949   5.358   4.799   2.002  0.1069  0.7512 -0.3357
 3648TIP3    H110950   5.453   4.801   2.010  0.2159 -2.5384  0.5449
 3648TIP3    H210951   5.341   4.746   1.925 -0.9601 -1.0201  1.0503
 3649TIP3   OH210952   4.612   0.306   1.988 -0.4620 -0.1048  0.2587
 3649TIP3    H110953   4.524   0.341   1.996 -0.0739  0.7419  1.0407
 3649TIP3    H210954   4.638   0.287   2.078  0.1608 -0.3173  0.0391
 3650TIP3   OH210955   0.281   1.025   1.526  0.6426  0.5631 -0.2366
 3650TIP3    H110956   0.352   0.991   1.471  0.1023  0.6256 -0.9817
 3650TIP3    H210957   0.253   1.105   1.483 -1.3459 -0.5697 -1.1941
 3651TIP3   OH210958   2.174   1.286   2.033  0.2219  0.0350 -0.2212
 3651TIP3    H110959   2.130   1.261   2.114  0.3083  0.9743  0.1285
 3651TIP3    H210960   2.267   1.291   2.056  0.2604  0.1902 -0.4075
 3652TIP3   OH210961   3.704   1.713   4.865 -0.0286 -0.2134  0.1692
 3652TIP3    H110962   3.789   1.723   4.824 -0.2123 -1.1180 -0.4707
 3652TIP3    H210963   3.657   1.794   4.846  0.5736  0.1579  0.2561
 3653TIP3   OH210964   5.308   0.628   0.932 -0.3634 -0.1559 -0.3869
 3653TIP3    H110965   5.302   0.556   0.996 -0.0823 -0.1658 -0.3712
 3653TIP3    H210966   5.267   0.702   0.977 -2.4263 -0.7830 -1.1252
 3654TIP3   OH210967   0.373   2.488   0.827  0.1348  0.1654 -0.0358
 3654TIP3    H110968   0.303   2.504   0.890 -0.4836 -1.8910 -0.1193
 3654TIP3    H210969   0.451   2.471   0.880  0.0813  0.4042  0.1179
 3655TIP3   OH210970   5.932   4.196   2.359 -0.0174 -0.0113  0.0058
 3655TIP3    H110971   5.892   4.109   2.364  1.1202 -0.5837 -0.5412
 3655TIP3    H210972   6.026   4.180   2.369  0.6356  0.7006 -3.5656
 3656TIP3   OH210973   6.046   2.480   1.971  0.0947  0.4729 -0.0824
 3656TIP3    H110974   6.060   2.456   1.879 -1.2392 -0.8158  0.0232
 3656TIP3    H210975   6.026   2.397   2.015  0.1454  1.1468  1.2710
 3657TIP3   OH210976   0.572   4.404   1.752  0.5291  0.1697  0.3021
 3657TIP3    H110977   0.658   4.442   1.768 -0.1676  1.3558  1.4803
 3657TIP3    H210978   0.530   4.405   1.838 -1.1009  0.7938 -0.4609
 3658TIP3   OH210979   1.002   4.781   2.016  0.1902  0.4311 -0.1930
 3658TIP3    H110980   0.979   4.873   2.032 -2.0596  0.3368 -2.2692
 3658TIP3    H210981   1.003   4.773   1.921  0.8789 -1.5824 -0.0519
 3659TIP3   OH210982   4.132   5.223   1.186 -0.6377 -0.6361  0.1115
 3659TIP3    H110983   4.100   5.241   1.098  2.4790  1.8009 -0.7058
 3659TIP3    H210984   4.107   5.300   1.237 -0.3130 -0.9245  0.7202
 3660TIP3   OH210985   6.191   5.004   2.206  0.1815 -0.2551  0.0750
 3660TIP3    H110986   6.245   5.059   2.262 -0.8200  2.3008 -1.3110
 3660TIP3    H210987   6.109   4.993   2.255 -0.4924  1.5306 -0.5679
 3661TIP3   OH210988   2.430   4.034   3.884  0.4262 -0.2517 -0.1430
 3661TIP3    H110989   2.474   4.118   3.879 -0.9208  0.4067 -2.2740
 3661TIP3    H210990   2.431   4.000   3.795 -2.5936 -0.5598 -0.1767
 3662TIP3   OH210991   1.336   2.437   0.319  0.6640 -0.3922 -0.7207
 3662TIP3    H110992   1.429   2.418   0.306  1.3790  0.4530  2.3265
 3662TIP3    H210993   1.335   2.518   0.371 -1.7692 -0.4791 -0.5239
 3663TIP3   OH210994   3.927   4.861   2.970 -0.0968  0.2677  0.2839
 3663TIP3    H110995   3.903   4.916   2.895 -2.2875 -1.6154 -0.5425
 3663TIP3    H210996   3.849   4.808   2.986  1.1299 -1.0250  2.4466
 3664TIP3   OH210997   1.146   3.086   3.463  0.4783  0.2577 -0.6967
 3664TIP3    H110998   1.054   3.093   3.486  0.1735  2.3369 -2.3080
 3664TIP3    H210999   1.192   3.090   3.547 -0.8332  0.3904  0.0425
 3665TIP3   OH211000   1.653   4.698   2.239 -0.2881 -0.2804  0.1729
 3665TIP3    H111001   1.673   4.752   2.315  0.1222 -0.8522  0.4777
 3665TIP3    H211002   1.628   4.613   2.275 -0.5983 -0.4018 -0.3124
 3666TIP3   OH211003   1.303   1.218   2.796  0.0637  0.2901 -0.1976
 3666TIP3    H111004   1.349   1.157   2.737 -0.5325 -0.8096  0.4389
 3666TIP3    H211005   1.220   1.235   2.753  0.9212  2.1015 -1.2383
 3667TIP3   OH211006   3.437   0.648   2.581  0.1814  0.0962 -0.3717
 3667TIP3    H111007   3.484   0.684   2.506  0.4031 -1.4454 -1.0151
 3667TIP3    H211008   3.475   0.692   2.657  1.7588 -0.1686 -0.9824
 3668TIP3   OH211009   6.209   4.197   1.835  0.1009  0.2487  0.1236
 3668TIP3    H111010   6.210   4.175   1.742  1.7160  1.0441 -0.0858
 3668TIP3    H211011   6.220   4.292   1.838 -2.3919  0.5921  1.1101
 3669TIP3   OH211012   2.930   5.407   3.385  0.0627  0.6348 -0.2662
 3669TIP3    H111013   2.930   5.316   3.353 -1.3063  1.0496 -1.5658
 3669TIP3    H211014   2.875   5.404   3.463  2.3145 -0.1303  1.3992
 3670TIP3   OH211015   4.384   5.759   4.770  0.4517 -0.4445  0.2488
 3670TIP3    H111016   4.318   5.799   4.714 -0.7975 -2.0779  0.4614
 3670TIP3    H211017   4.334   5.704   4.830  2.0312 -2.3661 -0.0942
 3671TIP3   OH211018   0.439   1.435   4.910 -0.5848  0.8352  0.2528
 3671TIP3    H111019   0.359   1.397   4.875 -1.0263  0.3761  1.6725
 3671TIP3    H211020   0.507   1.413   4.846 -1.1990 -0.6559  0.0738
 3672TIP3   OH211021   6.156   1.054   1.017 -0.5306  0.2373 -0.0547
 3672TIP3    H111022   6.113   0.997   0.953 -2.4211  2.3380 -0.7664
 3672TIP3    H211023   6.248   1.055   0.989 -1.3731  1.4705 -3.1386
 3673TIP3   OH211024   3.441   3.838   2.098  0.0879  0.1293  0.2392
 3673TIP3    H111025   3.459   3.915   2.043  2.0170  1.2418  2.2746
 3673TIP3    H211026   3.404   3.875   2.179 -1.3113 -1.3434  0.3178
 3674TIP3   OH211027   0.408   5.559   2.743 -0.5712 -0.1363 -0.1791
 3674TIP3    H111028   0.458   5.516   2.674 -0.7692  1.8706 -1.6660
 3674TIP3    H211029   0.470   5.569   2.815  0.8024  1.0090 -1.4601
 3675TIP3   OH211030   4.161   5.819   4.585 -0.6175 -0.0803  0.6965
 3675TIP3    H111031   4.128   5.903   4.554 -0.2853  0.8490  2.6778
 3675TIP3    H211032   4.200   5.778   4.508 -2.6460  0.6269 -0.7734
 3676TIP3   OH211033   4.423   1.680   3.248 -0.0173 -0.3040  0.0421
 3676TIP3    H111034   4.374   1.648   3.173 -0.5256 -0.1186  0.2873
 3676TIP3    H211035   4.360   1.734   3.296  0.1650 -0.7608  0.8255
 3677TIP3   OH211036   5.122   5.845   0.484  0.1462  0.1225  0.0822
 3677TIP3    H111037   5.076   5.923   0.454  1.0483  0.5662 -0.1771
 3677TIP3    H211038   5.077   5.821   0.566  1.4287  2.4348  1.5815
 3678TIP3   OH211039   4.549   3.223   1.545  0.3646 -0.4560  0.0412
 3678TIP3    H111040   4.644   3.233   1.536  0.2851  0.2746 -0.0274
 3678TIP3    H211041   4.538   3.170   1.624  0.8298 -0.6043  0.0130
 3679TIP3   OH211042   2.330   2.246   0.804 -0.1484  0.5741 -0.4681
 3679TIP3    H111043   2.284   2.167   0.775  2.1988 -1.1556  0.1673
 3679TIP3    H211044   2.332   2.240   0.899  0.5395  1.1065 -0.4402
 3680TIP3   OH211045   4.288   1.464   2.521 -0.5951  0.2542  0.3442
 3680TIP3    H111046   4.278   1.554   2.551  0.2838  0.7744 -0.8428
 3680TIP3    H211047   4.199   1.437   2.497 -0.7113  1.2179 -0.3923
 3681TIP3   OH211048   5.278   0.196   3.145 -0.1567 -0.2315 -0.0957
 3681TIP3    H111049   5.259   0.149   3.226  0.9622 -1.8184 -0.7014
 3681TIP3    H211050   5.309   0.129   3.085  0.9438  1.2057 -1.2088
 3682TIP3   OH211051   2.056   3.097   3.395  0.7569 -0.6532 -0.1500
 3682TIP3    H111052   2.109   3.154   3.340  0.7962  1.6656  2.0963
 3682TIP3    H211053   1.967   3.105   3.360  1.1325 -1.0555 -1.2355
 3683TIP3   OH211054   0.998   4.399   2.142 -0.3684 -0.0112  0.0286
 3683TIP3    H111055   1.051   4.347   2.202 -1.8094  1.2755  2.5424
 3683TIP3    H211056   1.054   4.409   2.064  1.9916 -0.8994  1.4997
 3684TIP3   OH211057   4.168   2.043   2.334  0.7654  0.0082 -0.5359
 3684TIP3    H111058   4.166   1.962   2.386  0.4920  0.7131  0.5941
 3684TIP3    H211059   4.261   2.067   2.332  0.6022  1.0668  1.4588
 3685TIP3   OH211060   5.083   0.250   4.870 -0.0872 -0.1120 -0.1121
 3685TIP3    H111061   5.027   0.245   4.793 -1.1123  0.9404  0.5355
 3685TIP3    H211062   5.113   0.160   4.883 -1.9471 -0.7978 -0.2542
 3686TIP3   OH211063   4.145   0.750   0.121  0.4135 -0.3128 -0.5091
 3686TIP3    H111064   4.144   0.840   0.154  0.9190  0.4029 -2.3167
 3686TIP3    H211065   4.173   0.697   0.196 -0.4145  0.9447  0.7469
 3687TIP3   OH211066   2.091   1.382   2.876  0.0812 -0.1801 -0.3089
 3687TIP3    H111067   2.063   1.304   2.828  0.5412  0.2402 -1.2850
 3687TIP3    H211068   2.077   1.455   2.815 -0.5721  0.5469  0.6741
 3688TIP3   OH211069   4.894   5.357   2.950  0.1102 -0.0661  0.2488
 3688TIP3    H111070   4.880   5.295   2.879  1.9965 -0.2312 -0.0482
 3688TIP3    H211071   4.945   5.427   2.911 -0.1427  0.6098  1.0904
 3689TIP3   OH211072   5.884   5.983   1.696 -0.7756  0.5321  0.3295
 3689TIP3    H111073   5.892   5.888   1.702 -0.4012  0.5686  0.4641
 3689TIP3    H211074   5.971   6.015   1.720 -0.0953  0.8126 -2.2430
 3690TIP3   OH211075   3.133   2.663   2.026  0.3004  0.0718  0.2030
 3690TIP3    H111076   3.043   2.695   2.032  0.5727  0.7633  0.7284
 3690TIP3    H211077   3.181   2.714   2.091  1.1877  0.1075 -0.4640
 3691TIP3   OH211078   5.689   0.672   2.641 -0.2128 -0.0942 -0.2262
 3691TIP3    H111079   5.716   0.690   2.551 -0.3359  0.1124 -0.2199
 3691TIP3    H211080   5.616   0.731   2.658  0.3699  0.4982  0.3013
 3692TIP3   OH211081   6.194   0.322   4.767  0.1467  0.5393  0.4253
 3692TIP3    H111082   6.118   0.315   4.709  0.7015  0.2416 -0.2862
 3692TIP3    H211083   6.177   0.259   4.837 -0.7140  1.1823  0.7997
 3693TIP3   OH211084   0.122   2.333   4.742  0.4666 -0.1455 -0.0327
 3693TIP3    H111085   0.093   2.242   4.737 -0.8848  0.2180  0.5142
 3693TIP3    H211086   0.068   2.371   4.812 -0.5039  1.5965 -1.6359
 3694TIP3   OH211087   5.245   3.373   0.789  0.1819 -0.1457  0.2805
 3694TIP3    H111088   5.329   3.392   0.748  0.0126 -0.2496 -0.1202
 3694TIP3    H211089   5.182   3.427   0.741 -0.2734 -1.5005 -0.7226
 3695TIP3   OH211090   3.032   4.763   2.154  0.1115  0.6060 -0.1686
 3695TIP3    H111091   3.089   4.838   2.140 -2.2726  2.1995 -1.9643
 3695TIP3    H211092   2.960   4.774   2.092 -2.5323 -0.9261  2.3646
 3696TIP3   OH211093   2.479   5.532   2.568 -0.2070  0.3973  0.4966
 3696TIP3    H111094   2.427   5.459   2.535  1.0463  0.4460 -1.8552
 3696TIP3    H211095   2.431   5.610   2.540  0.4696  0.4310 -0.6863
 3697TIP3   OH211096   3.330   2.307   3.514  0.0219 -0.8406  0.0992
 3697TIP3    H111097   3.414   2.329   3.553 -0.3699  0.2163  0.3709
 3697TIP3    H211098   3.291   2.245   3.576  0.6363 -1.4386 -0.0919
 3698TIP3   OH211099   0.820   0.856   2.217 -0.2624 -0.3205  0.1947
 3698TIP3    H111100   0.839   0.791   2.149  0.1851 -1.1847  1.1051
 3698TIP3    H211101   0.727   0.875   2.207 -0.0602  0.0752 -1.0745
 3699TIP3   OH211102   4.443   4.301   4.055  0.4116 -0.0822  0.6181
 3699TIP3    H111103   4.356   4.286   4.019  1.5454 -0.6648 -2.2380
 3699TIP3    H211104   4.430   4.363   4.126 -2.3210 -0.2415  0.3480
 3700TIP3   OH211105   1.604   0.987   4.457 -0.0930 -0.1480  0.1208
 3700TIP3    H111106   1.678   1.005   4.515 -0.6248  0.1883  0.6935
 3700TIP3    H211107   1.573   0.900   4.484 -1.2770  0.6217  1.3700
 3701TIP3   OH211108   6.268   0.222   3.161 -0.4553 -0.3784 -0.2961
 3701TIP3    H111109   6.220   0.192   3.238  0.9787  1.1466  1.2516
 3701TIP3    H211110   6.268   0.317   3.168  3.0200 -0.2968 -0.0383
 3702TIP3   OH211111   5.416   3.119   1.879  0.0709 -0.0323 -0.0644
 3702TIP3    H111112   5.345   3.149   1.934  2.0902 -0.5441  3.0639
 3702TIP3    H211113   5.452   3.199   1.841 -0.7550  0.4286  0.1073
 3703TIP3   OH211114   1.869   2.567   1.577 -0.0278 -0.3061 -0.1796
 3703TIP3    H111115   1.795   2.516   1.609  0.4807 -1.4645 -0.7739
 3703TIP3    H211116   1.922   2.584   1.655 -0.4689 -0.2384  0.1071
 3704TIP3   OH211117   1.559   1.958   3.301 -0.1869  0.6971 -1.1625
 3704TIP3    H111118   1.481   1.919   3.263 -0.5970  1.1337 -0.7860
 3704TIP3    H211119   1.586   2.025   3.238  1.1330 -0.8555 -2.3263
 3705TIP3   OH211120   2.083   3.060   4.123  0.4533  0.3030 -0.4477
 3705TIP3    H111121   2.177   3.042   4.121  0.4885  0.4846 -2.5769
 3705TIP3    H211122   2.076   3.152   4.100 -0.1909  0.8364  1.6681
 3706TIP3   OH211123   1.034   1.537   0.117 -0.0031 -0.1158  0.2957
 3706TIP3    H111124   1.129   1.549   0.121  0.2009 -1.6875  0.5756
 3706TIP3    H211125   1.012   1.490   0.197 -1.0228  0.1971  0.2082
 3707TIP3   OH211126   5.832   2.308   4.642  0.2646  0.2497 -0.0516
 3707TIP3    H111127   5.861   2.226   4.602 -1.3088 -0.1317 -0.4827
 3707TIP3    H211128   5.908   2.340   4.690  1.4993 -0.4816 -1.4413
 3708TIP3   OH211129   4.785   3.339   0.102  0.0188 -0.1175  0.2433
 3708TIP3    H111130   4.760   3.247   0.105  0.1028 -0.1042  1.6316
 3708TIP3    H211131   4.780   3.369   0.192 -0.8538  1.4840 -0.2879
 3709TIP3   OH211132   4.392   1.450   0.138  0.6939  0.6015  0.0320
 3709TIP3    H111133   4.342   1.467   0.218 -1.0960 -0.2470 -0.8480
 3709TIP3    H211134   4.472   1.408   0.168  0.7216  1.6018  1.4686
 3710TIP3   OH211135   3.295   1.334   2.021 -0.0502  0.3490  0.1046
 3710TIP3    H111136   3.284   1.250   1.976  0.9368 -0.5036  1.4063
 3710TIP3    H211137   3.318   1.396   1.951 -0.0676 -0.6104 -0.7686
 3711TIP3   OH211138   3.415   1.469   0.033  0.6006 -0.1971  0.2549
 3711TIP3    H111139   3.379   1.402   0.091 -0.0241  2.2102  2.8961
 3711TIP3    H211140   3.468   1.524   0.090  2.6317  0.5545 -2.1608
 3712TIP3   OH211141   2.067   3.303   3.818 -0.0698  0.3979  0.2843
 3712TIP3    H111142   2.101   3.356   3.746 -0.5494  0.5191  0.1421
 3712TIP3    H211143   2.054   3.216   3.781 -0.1394  0.4129  0.2730
 3713TIP3   OH211144   5.283   1.501   0.960 -0.6719  0.1730 -0.2152
 3713TIP3    H111145   5.226   1.553   0.903  0.6585  1.2566 -0.6018
 3713TIP3    H211146   5.356   1.560   0.981  0.5913 -1.3397 -0.1886
 3714TIP3   OH211147   3.111   4.147   0.889 -0.1322  0.2645 -0.1260
 3714TIP3    H111148   3.133   4.130   0.797  0.0870  0.2865 -0.0791
 3714TIP3    H211149   3.104   4.060   0.928  0.1887  0.2628 -0.0694
 3715TIP3   OH211150   4.377   0.723   3.187 -0.0039  0.4164 -0.5310
 3715TIP3    H111151   4.347   0.657   3.250 -1.5124  1.4243 -0.1334
 3715TIP3    H211152   4.427   0.785   3.241  0.0304  0.4521 -0.6044
 3716TIP3   OH211153   3.662   3.225   0.836  0.7505  0.4931  0.1772
 3716TIP3    H111154   3.730   3.185   0.890 -0.0072 -1.6246 -0.3612
 3716TIP3    H211155   3.580   3.197   0.876  0.1862  0.1566 -1.1527
 3717TIP3   OH211156   0.710   4.524   2.779 -0.4399  0.2547 -0.3736
 3717TIP3    H111157   0.767   4.589   2.821  0.6853 -0.9219  0.0047
 3717TIP3    H211158   0.756   4.441   2.793 -3.5458 -1.2249  2.4133
 3718TIP3   OH211159   0.989   3.224   2.280  0.0027 -0.1870  0.7783
 3718TIP3    H111160   1.008   3.317   2.267 -2.2852  0.3813  0.9708
 3718TIP3    H211161   0.962   3.218   2.372  0.2151 -1.0653  0.7907
 3719TIP3   OH211162   2.620   5.411   1.894 -0.6488 -0.5888  0.1014
 3719TIP3    H111163   2.598   5.353   1.967 -0.3160 -0.3559  0.3865
 3719TIP3    H211164   2.672   5.356   1.835  2.5143  0.2360  1.8966
 3720TIP3   OH211165   4.389   3.153   1.338 -0.4266 -0.7650 -0.3932
 3720TIP3    H111166   4.314   3.172   1.394 -0.6873 -0.5518 -0.8102
 3720TIP3    H211167   4.466   3.175   1.391 -0.6577 -1.0153  0.0456
 3721TIP3   OH211168   2.392   3.291   0.539  0.0747 -0.7117 -0.0237
 3721TIP3    H111169   2.323   3.231   0.509  1.7790 -1.5631 -2.5658
 3721TIP3    H211170   2.474   3.245   0.521  1.3996  1.3943  0.2177
 3722TIP3   OH211171   2.803   0.109   0.938 -0.8012 -0.4786 -0.1142
 3722TIP3    H111172   2.752   0.153   1.005  0.7335  1.2459  0.0040
 3722TIP3    H211173   2.787   0.159   0.858  1.4681  0.8227  0.1576
 3723TIP3   OH211174   6.117   0.735   2.729  0.1373  0.8911 -0.0675
 3723TIP3    H111175   6.196   0.684   2.742  0.3727  0.9437 -1.2534
 3723TIP3    H211176   6.082   0.707   2.645 -1.1613  0.8148  0.4583
 3724TIP3   OH211177   3.087   5.769   0.848  0.5359 -0.4752  0.0107
 3724TIP3    H111178   3.017   5.711   0.878 -0.1979  0.3176 -0.1311
 3724TIP3    H211179   3.124   5.806   0.929 -0.6506  0.7462  0.0243
 3725TIP3   OH211180   2.338   0.179   1.733  0.4916 -0.4360  0.1621
 3725TIP3    H111181   2.250   0.195   1.767  0.7260 -0.9379  1.0398
 3725TIP3    H211182   2.326   0.166   1.639  0.0049  2.5352 -0.2746
 3726TIP3   OH211183   2.764   5.255   1.271  0.0925  0.3545 -0.8874
 3726TIP3    H111184   2.846   5.303   1.264  0.1794  0.4131  0.3493
 3726TIP3    H211185   2.735   5.244   1.181  0.9504  1.2019 -1.2819
 3727TIP3   OH211186   5.611   5.645   4.226 -0.1381 -0.2442 -0.4221
 3727TIP3    H111187   5.611   5.645   4.130  0.2857 -0.9324 -0.4312
 3727TIP3    H211188   5.575   5.560   4.250  1.9069 -1.0642 -0.0169
 3728TIP3   OH211189   0.954   1.389   4.380  0.0066 -0.2391  0.1091
 3728TIP3    H111190   0.965   1.295   4.387  1.9750 -0.3930 -2.8940
 3728TIP3    H211191   1.022   1.426   4.437 -2.3789 -0.4298  3.3061
 3729TIP3   OH211192   2.614   1.572   2.098  0.2329  0.0684  0.2537
 3729TIP3    H111193   2.678   1.569   2.170 -0.0208 -0.2672  0.4717
 3729TIP3    H211194   2.661   1.535   2.023  0.0695 -0.8970  0.6049
 3730TIP3   OH211195   2.484   0.320   0.453  0.0104  0.2065 -0.3564
 3730TIP3    H111196   2.431   0.270   0.391  1.4642 -2.4653  0.3952
 3730TIP3    H211197   2.541   0.374   0.398 -1.9936  1.5587 -1.1853
 3731TIP3   OH211198   2.424   2.819   3.848  0.4969 -0.7992  0.1695
 3731TIP3    H111199   2.478   2.772   3.784 -1.7536 -1.9064 -1.0548
 3731TIP3    H211200   2.386   2.891   3.798 -0.1385 -0.7913  0.6608
 3732TIP3   OH211201   3.361   4.158   1.122  0.2778  0.4288 -0.2259
 3732TIP3    H111202   3.446   4.165   1.167  0.5134 -0.4145 -0.5352
 3732TIP3    H211203   3.382   4.165   1.029 -0.2163  2.2062 -0.2421
 3733TIP3   OH211204   3.516   2.495   4.798  0.2382 -0.0903  0.2608
 3733TIP3    H111205   3.477   2.431   4.740  0.7704  0.0784 -0.2974
 3733TIP3    H211206   3.451   2.508   4.868  0.6562 -2.2002  1.1193
 3734TIP3   OH211207   2.185   5.380   0.013  0.2159  0.5376 -0.2432
 3734TIP3    H111208   2.218   5.378   0.103  0.2957  0.3633 -0.2761
 3734TIP3    H211209   2.228   5.455  -0.027  0.1802  0.6161 -0.1356
 3735TIP3   OH211210   3.270   5.958   4.765 -0.3029  0.2508  0.5033
 3735TIP3    H111211   3.278   5.863   4.776 -0.3024 -0.0669 -1.7301
 3735TIP3    H211212   3.360   5.990   4.763 -0.2339  0.0378 -0.3991
 3736TIP3   OH211213   0.031   4.448   3.298  0.2761  0.5458  0.6636
 3736TIP3    H111214   0.112   4.398   3.313  0.6098  1.4036  1.8819
 3736TIP3    H211215   0.002   4.472   3.386 -0.4324  1.6185  0.1460
 3737TIP3   OH211216   1.429   4.812   0.823  0.1529  0.4337  0.2570
 3737TIP3    H111217   1.451   4.725   0.856 -0.9638  1.3018  3.7006
 3737TIP3    H211218   1.334   4.813   0.818  0.1954  1.1407 -0.8434
 3738TIP3   OH211219   1.095   4.036   0.876 -0.5248 -0.1680 -0.1458
 3738TIP3    H111220   1.081   3.947   0.842  0.8245 -0.3486 -0.2907
 3738TIP3    H211221   1.028   4.088   0.832 -1.3276 -1.1026 -0.0787
 3739TIP3   OH211222   1.936   5.697   0.863  0.3629  0.3219 -0.0797
 3739TIP3    H111223   1.957   5.764   0.798 -0.3617 -0.5540 -1.2653
 3739TIP3    H211224   1.920   5.745   0.944  1.6849  1.4150 -0.4226
 3740TIP3   OH211225   4.177   1.032  -0.013  0.2929 -0.2495 -0.4852
 3740TIP3    H111226   4.242   1.091  -0.050  0.7783 -0.0766  0.6054
 3740TIP3    H211227   4.202   1.023   0.079 -2.1251  1.0631  0.3853
 3741TIP3   OH211228   6.332   4.291   2.103 -0.1576 -0.5261  0.2068
 3741TIP3    H111229   6.417   4.312   2.141 -0.2899 -2.3193  1.5882
 3741TIP3    H211230   6.308   4.207   2.141 -2.8372  0.1971  0.3236
 3742TIP3   OH211231   0.936   4.863   0.187 -0.5190  0.2814 -0.3277
 3742TIP3    H111232   0.898   4.777   0.169  0.8436 -0.2747 -0.7085
 3742TIP3    H211233   0.930   4.910   0.104 -0.5202  0.2552 -0.3424
 3743TIP3   OH211234   5.449   4.541   0.178  0.3430 -0.5024  0.3631
 3743TIP3    H111235   5.414   4.461   0.138  0.5767 -0.2368 -0.4047
 3743TIP3    H211236   5.374   4.599   0.186  0.5436  0.0064 -1.1303
 3744TIP3   OH211237   3.572   0.716   0.566 -0.0765  0.5920  0.6937
 3744TIP3    H111238   3.479   0.719   0.541 -0.1721 -1.5879  0.5674
 3744TIP3    H211239   3.592   0.622   0.570  1.7091  0.9916  2.3023
 3745TIP3   OH211240   4.700   0.036   0.911 -0.2492  0.1318 -0.0783
 3745TIP3    H111241   4.656   0.120   0.901  0.5399  0.4612 -1.0353
 3745TIP3    H211242   4.630  -0.029   0.913 -0.8414  0.7757  0.1785
 3746TIP3   OH211243   4.662   4.766   0.876 -0.0570 -0.0361 -0.5879
 3746TIP3    H111244   4.579   4.799   0.843 -0.2553  0.7922  0.7056
 3746TIP3    H211245   4.728   4.809   0.821 -0.4032  0.9127 -0.2816
 3747TIP3   OH211246   0.040   3.498   4.790 -0.0944  0.1575  1.0610
 3747TIP3    H111247   0.044   3.587   4.756  0.3070  0.1271  1.0262
 3747TIP3    H211248  -0.041   3.462   4.753 -0.3794  0.5806  1.2661
 3748TIP3   OH211249   1.803   0.135   3.564 -0.0999  0.4415  0.4568
 3748TIP3    H111250   1.849   0.064   3.519  1.0583  1.2884  0.2369
 3748TIP3    H211251   1.779   0.196   3.494  0.4597  1.0895  0.8156
 3749TIP3   OH211252   1.659   3.518   3.663  0.1564 -0.5656 -0.1088
 3749TIP3    H111253   1.676   3.439   3.612 -0.5971 -2.0924  1.8993
 3749TIP3    H211254   1.611   3.575   3.603 -1.2370 -2.5237 -0.9475
 3750TIP3   OH211255   2.889   1.954   4.235  0.0699  0.4519 -0.3734
 3750TIP3    H111256   2.811   1.981   4.283  0.8228  1.0763  0.5418
 3750TIP3    H211257   2.922   2.034   4.195  1.4273  0.6578  1.0453
 3751TIP3   OH211258   0.213   4.666   3.724 -0.5489 -0.8016 -0.1176
 3751TIP3    H111259   0.305   4.670   3.699 -0.5382 -1.9007 -0.3077
 3751TIP3    H211260   0.194   4.572   3.731 -1.1968 -0.5867  1.5925
 3752TIP3   OH211261   2.689   0.078   0.678 -0.1313 -0.1337  0.4941
 3752TIP3    H111262   2.680   0.026   0.758  0.1540  1.3268  1.5239
 3752TIP3    H211263   2.615   0.139   0.682 -0.8062 -0.8210 -0.9912
 3753TIP3   OH211264   0.709   1.366   2.327 -0.3937  0.4277 -0.2748
 3753TIP3    H111265   0.743   1.293   2.276 -0.1606  0.6226 -0.4040
 3753TIP3    H211266   0.787   1.406   2.366 -0.5079  0.6667 -0.2880
 3754TIP3   OH211267   3.345   2.670   1.233 -0.4556  0.0802  0.3783
 3754TIP3    H111268   3.427   2.631   1.204 -1.4827 -1.7214 -0.2465
 3754TIP3    H211269   3.294   2.596   1.266 -2.3726  0.9107 -0.5721
 3755TIP3   OH211270   0.851   4.956   3.224  0.2852 -0.4607 -0.0043
 3755TIP3    H111271   0.870   5.047   3.245  1.8282 -0.5568 -0.7660
 3755TIP3    H211272   0.912   4.906   3.279  2.1288 -0.8238 -2.2036
 3756TIP3   OH211273   1.303   5.952   2.808 -0.0441  0.7105 -0.0604
 3756TIP3    H111274   1.272   6.041   2.827 -1.1770  0.2908  0.1151
 3756TIP3    H211275   1.236   5.895   2.844  0.2090 -0.2074 -1.0044
 3757TIP3   OH211276  -0.027   2.934   3.943 -0.2146 -0.1638 -0.3572
 3757TIP3    H111277   0.065   2.961   3.931 -0.1761 -0.5908 -1.1359
 3757TIP3    H211278  -0.028   2.890   4.027 -0.2444  2.0651  0.8990
 3758TIP3   OH211279   4.496   0.940   3.327  0.3671 -0.2897 -0.2854
 3758TIP3    H111280   4.503   0.901   3.415 -0.2158  0.1167 -0.0494
 3758TIP3    H211281   4.586   0.963   3.304  0.6158 -1.0482 -0.0929
 3759TIP3   OH211282   2.069   0.719   4.371 -0.2580 -0.2539  0.1007
 3759TIP3    H111283   2.056   0.810   4.397 -0.6982 -0.3543  0.2433
 3759TIP3    H211284   2.101   0.723   4.281 -2.4160 -0.0131 -0.7295
 3760TIP3   OH211285   2.793   3.995   4.081  0.2917 -0.0168  0.1643
 3760TIP3    H111286   2.810   3.902   4.071 -2.2348 -0.7462  1.8776
 3760TIP3    H211287   2.873   4.029   4.122  1.0804 -1.4923 -0.0747
 3761TIP3   OH211288   0.614   3.720   1.523  0.2459  0.1432 -0.0041
 3761TIP3    H111289   0.592   3.629   1.543  3.0549 -0.0560  3.2256
 3761TIP3    H211290   0.530   3.766   1.526 -1.0382 -2.0556  0.0666
 3762TIP3   OH211291   1.506   0.036   0.401  0.1239 -0.1189 -0.4516
 3762TIP3    H111292   1.552   0.119   0.419  0.1783 -0.3465  0.4574
 3762TIP3    H211293   1.444   0.059   0.331 -2.7017  1.7308  2.3591
 3763TIP3   OH211294   2.263   5.066   4.640  0.4107  0.0284 -0.1106
 3763TIP3    H111295   2.341   5.095   4.687 -0.7079  0.2144  1.7190
 3763TIP3    H211296   2.237   5.141   4.587  1.8031 -0.2494 -1.2530
 3764TIP3   OH211297   3.325   4.320   3.729 -0.1799 -0.0457  0.3278
 3764TIP3    H111298   3.348   4.344   3.640 -0.9026  0.3386  0.2358
 3764TIP3    H211299   3.251   4.260   3.720 -0.1621 -0.1244  0.6607
 3765TIP3   OH211300   1.790   1.935   0.919  0.1847  0.1737 -0.5174
 3765TIP3    H111301   1.862   1.900   0.971  1.0376  2.1724 -0.2871
 3765TIP3    H211302   1.713   1.922   0.974  0.7052  0.0660  0.2043
 3766TIP3   OH211303   3.077   0.404   1.328  0.4059 -0.1604  0.1675
 3766TIP3    H111304   3.081   0.309   1.318 -0.6858 -0.0736 -1.4303
 3766TIP3    H211305   3.168   0.431   1.340  0.8551 -1.2967 -0.5672
 3767TIP3   OH211306   5.664   2.838   1.668  0.0792 -0.4460  0.3518
 3767TIP3    H111307   5.631   2.805   1.584  0.4537 -0.9892  0.4153
 3767TIP3    H211308   5.679   2.931   1.652  1.1629 -0.7424 -0.5204
 3768TIP3   OH211309   3.619   4.048   4.215  0.0493  0.7070 -0.2051
 3768TIP3    H111310   3.613   3.980   4.282 -1.8819  0.1073 -0.9199
 3768TIP3    H211311   3.707   4.037   4.178 -0.6053 -2.3105 -1.1840
 3769TIP3   OH211312   3.342   3.590   0.524 -0.4474 -0.2847 -0.1281
 3769TIP3    H111313   3.381   3.528   0.586 -2.3458 -1.6811 -0.2418
 3769TIP3    H211314   3.401   3.589   0.448  0.6915 -0.2755  0.7293
 3770TIP3   OH211315   5.665   0.636   4.263 -0.8742 -0.1733  0.5441
 3770TIP3    H111316   5.602   0.690   4.311 -1.2331 -0.1607  0.0658
 3770TIP3    H211317   5.614   0.562   4.230 -0.7397  0.0477 -0.1938
 3771TIP3   OH211318   0.479   4.673   2.745 -0.2983  0.4726  0.2318
 3771TIP3    H111319   0.558   4.621   2.753 -0.4538  0.0036 -1.0098
 3771TIP3    H211320   0.463   4.707   2.833  1.2977  0.6268  0.4887
 3772TIP3   OH211321   3.166   4.364   0.142 -0.4847  0.0899  0.5579
 3772TIP3    H111322   3.173   4.343   0.235  0.2155  1.6614  0.8898
 3772TIP3    H211323   3.222   4.300   0.098 -0.6682 -0.5374  1.2109
 3773TIP3   OH211324   2.108   4.312   2.643 -0.4337  0.0405 -0.1326
 3773TIP3    H111325   2.194   4.342   2.674  0.9877 -1.3123 -2.3923
 3773TIP3    H211326   2.113   4.217   2.648 -2.3847 -0.0444  0.9587
 3774TIP3   OH211327   0.984   0.146   1.725 -0.1724 -0.4532 -0.3558
 3774TIP3    H111328   1.042   0.222   1.720 -0.0564 -0.3348  1.7630
 3774TIP3    H211329   1.043   0.071   1.728  0.1097 -0.2792  3.0483
 3775TIP3   OH211330   2.566   3.666   2.001  0.2426  0.3235 -0.1822
 3775TIP3    H111331   2.650   3.670   1.955  0.2026  1.2355 -0.1920
 3775TIP3    H211332   2.533   3.577   1.984  0.9300  0.1512 -0.6508
 3776TIP3   OH211333   2.213   1.085   0.325 -1.0090  0.9302  0.0991
 3776TIP3    H111334   2.124   1.116   0.345 -0.4508  2.0135  1.0313
 3776TIP3    H211335   2.262   1.165   0.307 -0.2999  0.3102 -0.7585
 3777TIP3   OH211336   2.803   4.101   2.303 -0.3637 -0.0200 -0.6493
 3777TIP3    H111337   2.752   4.176   2.334  0.6644 -0.1315  1.5396
 3777TIP3    H211338   2.759   4.072   2.224 -1.1461  2.5025 -1.2026
 3778TIP3   OH211339   1.525   0.613   2.039  0.1476  0.1344  0.8462
 3778TIP3    H111340   1.590   0.605   2.109  2.3411  0.1044 -1.0614
 3778TIP3    H211341   1.525   0.527   1.996  0.7912  0.8565 -0.7123
 3779TIP3   OH211342   6.115   0.578   0.796 -0.6191 -0.2847  0.0942
 3779TIP3    H111343   6.121   0.590   0.701 -1.6663  0.9075  0.1636
 3779TIP3    H211344   6.093   0.485   0.807  0.1064 -0.5802 -0.7831
 3780TIP3   OH211345   4.396   0.374   3.727 -0.2726  0.3764  0.0069
 3780TIP3    H111346   4.431   0.324   3.800 -1.5938 -2.5668 -1.2046
 3780TIP3    H211347   4.314   0.410   3.759 -0.2442  0.1433  0.3398
 3781TIP3   OH211348   3.870   0.132   1.462  0.0141  0.3280 -0.0056
 3781TIP3    H111349   3.901   0.223   1.464  1.5128 -0.1474  0.1584
 3781TIP3    H211350   3.860   0.108   1.554  3.5709 -0.8586  0.2264
 3782TIP3   OH211351   5.617   3.558   0.703  0.2789  0.0656  0.2202
 3782TIP3    H111352   5.654   3.510   0.629  1.3435  0.9587  0.1580
 3782TIP3    H211353   5.595   3.490   0.767  1.2381 -0.5577 -0.0991
 3783TIP3   OH211354   3.440   3.482   1.088  0.1270  0.2667  0.1088
 3783TIP3    H111355   3.430   3.393   1.053  1.0138  0.5789 -0.9964
 3783TIP3    H211356   3.532   3.503   1.073 -0.4759  2.0564 -1.3755
 3784TIP3   OH211357   6.050   5.150   0.229 -0.3439 -0.2537  0.4038
 3784TIP3    H111358   6.027   5.236   0.194  0.0288 -0.2344  0.2044
 3784TIP3    H211359   6.073   5.098   0.152  0.7248 -0.1389  0.6332
 3785TIP3   OH211360   0.016   3.417   5.074 -0.7222  0.1765  0.2375
 3785TIP3    H111361  -0.043   3.492   5.080 -0.3124  0.4686  0.6687
 3785TIP3    H211362   0.054   3.423   4.987 -3.5428 -1.6930 -1.2553
 3786TIP3   OH211363   1.171   5.651   4.367  0.4448 -0.3623 -0.2022
 3786TIP3    H111364   1.173   5.613   4.279  1.9916 -1.5613  0.3059
 3786TIP3    H211365   1.213   5.585   4.423  0.3532  0.7789  1.2794
 3787TIP3   OH211366   2.015   1.155   5.096 -0.0008  0.0249 -0.1772
 3787TIP3    H111367   2.012   1.114   5.183  0.8003 -1.2849 -0.7282
 3787TIP3    H211368   1.960   1.098   5.042  1.2841 -0.4396 -1.0088
 3788TIP3   OH211369   0.702   2.661   2.504 -0.1068  0.4419  0.3158
 3788TIP3    H111370   0.790   2.698   2.512  0.3833 -0.7580  0.7632
 3788TIP3    H211371   0.706   2.579   2.554 -1.5916  0.5518  0.6633
 3789TIP3   OH211372   1.640   0.127   4.077  0.1661  0.0413 -0.3847
 3789TIP3    H111373   1.568   0.165   4.027 -0.7513 -0.9674  0.1357
 3789TIP3    H211374   1.679   0.061   4.018 -1.8039 -2.1604  0.6269
 3790TIP3   OH211375   3.943   4.544   2.426 -0.8159 -0.0460 -0.3473
 3790TIP3    H111376   3.969   4.636   2.436 -0.0816  0.1356 -2.9414
 3790TIP3    H211377   3.885   4.527   2.499 -1.6070  2.7398 -0.2020
 3791TIP3   OH211378   6.272   1.559   4.406 -0.7326 -0.1202 -0.5108
 3791TIP3    H111379   6.275   1.491   4.473 -1.3993  1.7107  1.4934
 3791TIP3    H211380   6.346   1.540   4.349 -0.5564 -2.1667  0.3259
 3792TIP3   OH211381   0.162   3.987   1.128  0.0991  0.1682  0.0368
 3792TIP3    H111382   0.126   3.905   1.093  1.3627 -0.8942  1.1263
 3792TIP3    H211383   0.198   3.963   1.213 -0.3324  2.0764  0.8090
 3793TIP3   OH211384   3.993   6.006   4.243 -0.4580  0.2551  0.2782
 3793TIP3    H111385   4.033   6.032   4.161 -0.7824  0.1967  0.1016
 3793TIP3    H211386   3.983   5.911   4.236 -1.8965  0.4282 -0.2515
 3794TIP3   OH211387   5.287   2.684   3.520 -0.4844  0.5724 -0.2094
 3794TIP3    H111388   5.281   2.701   3.614  0.4789  1.0932 -0.2337
 3794TIP3    H211389   5.321   2.595   3.514  0.3655  0.8842 -0.0585
 3795TIP3   OH211390   5.948   2.872   0.526  1.1037  0.1026  0.3941
 3795TIP3    H111391   6.009   2.939   0.494  0.9067  0.1898  0.1994
 3795TIP3    H211392   5.882   2.922   0.575  0.3192  0.1782 -0.7060
 3796TIP3   OH211393   2.717   3.106   1.369  0.1304 -0.5990  0.3720
 3796TIP3    H111394   2.807   3.109   1.402  0.0688 -2.1242  0.7784
 3796TIP3    H211395   2.727   3.098   1.274  0.4280 -0.7860  0.4169
 3797TIP3   OH211396   2.241   4.708   1.788  0.0885  0.3225 -0.2834
 3797TIP3    H111397   2.264   4.713   1.695 -0.7954  1.0338 -0.4827
 3797TIP3    H211398   2.157   4.662   1.789 -0.7131  1.7303 -0.0031
 3798TIP3   OH211399   1.717   1.047   1.703 -0.0972  0.4541  0.3528
 3798TIP3    H111400   1.704   0.953   1.713 -1.7118  0.5639 -0.4067
 3798TIP3    H211401   1.799   1.056   1.654 -0.9694 -0.6456 -1.3844
 3799TIP3   OH211402   6.299   0.525   4.111  0.5602  0.6525  0.3859
 3799TIP3    H111403   6.207   0.510   4.091  0.3059  1.1328  1.1160
 3799TIP3    H211404   6.345   0.504   4.030 -0.4862  3.4937 -1.0913
 3800TIP3   OH211405   3.994   0.759   2.457  0.3701 -0.3313 -0.1459
 3800TIP3    H111406   3.966   0.810   2.380  1.7903  0.8172  0.0505
 3800TIP3    H211407   4.083   0.790   2.474 -0.0080 -0.3827  2.1272
 3801TIP3   OH211408   4.663   3.527   1.409 -0.4071  0.5067  0.2775
 3801TIP3    H111409   4.624   3.503   1.325  1.0641 -0.4434 -0.1782
 3801TIP3    H211410   4.674   3.444   1.455 -0.0557  0.8829  0.8876
 3802TIP3   OH211411   5.908   0.150   0.108  0.1192 -0.5951 -0.2203
 3802TIP3    H111412   5.821   0.149   0.149  1.1190 -0.1291  2.0807
 3802TIP3    H211413   5.897   0.207   0.031 -1.1853  1.1259  1.1481
 3803TIP3   OH211414   1.558   4.612   1.459  0.0926 -0.3766 -0.3119
 3803TIP3    H111415   1.487   4.662   1.418  0.8248  4.3371  3.3878
 3803TIP3    H211416   1.513   4.544   1.510 -1.5495  0.6463 -0.3348
 3804TIP3   OH211417   5.601   5.304   4.848  0.1869 -0.2365  0.6705
 3804TIP3    H111418   5.662   5.336   4.915 -1.1351  0.1125  1.7676
 3804TIP3    H211419   5.561   5.226   4.887 -0.1574 -0.3898  0.0273
 3805TIP3   OH211420   5.583   0.713   1.452  0.0348 -0.7810 -0.1582
 3805TIP3    H111421   5.670   0.683   1.480 -0.1088  0.3651  1.6804
 3805TIP3    H211422   5.601   0.787   1.394  0.2946 -1.8825 -1.5364
 3806TIP3   OH211423   2.822   5.248   4.717 -0.3277  0.1208  0.3511
 3806TIP3    H111424   2.894   5.197   4.755 -0.7395 -1.3900 -0.7762
 3806TIP3    H211425   2.836   5.240   4.622 -0.2597  2.3794  0.1306
 3807TIP3   OH211426   2.577   1.785   3.196 -0.2635  0.3286 -0.0389
 3807TIP3    H111427   2.498   1.820   3.237 -0.3607 -0.5113  0.5202
 3807TIP3    H211428   2.649   1.828   3.242 -0.3808 -0.1798  0.6358
 3808TIP3   OH211429   0.247   0.494   2.631  0.1084 -0.0553  0.0287
 3808TIP3    H111430   0.185   0.549   2.680  0.3887 -0.3757  0.7550
 3808TIP3    H211431   0.276   0.549   2.559  1.7825  1.4554  1.7423
 3809TIP3   OH211432   2.300   3.470   0.289 -0.3926 -0.1131  0.2567
 3809TIP3    H111433   2.245   3.419   0.348 -1.8930  1.6848  0.5338
 3809TIP3    H211434   2.356   3.406   0.246 -1.4585 -1.8305  1.3220
 3810TIP3   OH211435   3.654   3.431   4.966  0.4261 -0.0446  0.0956
 3810TIP3    H111436   3.563   3.449   4.990  0.5086 -1.8498  2.1618
 3810TIP3    H211437   3.648   3.360   4.901  0.3190 -1.0710  1.1804
 3811TIP3   OH211438   5.396   0.728   3.010  0.3190 -0.2920  0.3957
 3811TIP3    H111439   5.314   0.753   3.053 -0.8155  0.1950 -1.8554
 3811TIP3    H211440   5.464   0.772   3.060 -1.1212  2.2111  0.3311
 3812TIP3   OH211441   0.167   0.081   3.453  0.3382  0.0131  0.4995
 3812TIP3    H111442   0.157   0.117   3.541  1.0050  0.0497  0.5614
 3812TIP3    H211443   0.082   0.041   3.434  0.1739  0.0543  1.1350
 3813TIP3   OH211444   4.230   0.313   1.286 -0.7355  0.1263 -0.1023
 3813TIP3    H111445   4.239   0.231   1.237 -0.7160 -1.5239  2.4754
 3813TIP3    H211446   4.135   0.326   1.293 -0.7827 -0.6176  0.8736
 3814TIP3   OH211447   0.394   4.256   4.597  0.1180 -0.1144  0.4420
 3814TIP3    H111448   0.336   4.259   4.673  0.6512 -0.7198  0.8843
 3814TIP3    H211449   0.464   4.197   4.623  1.3704  1.2169  0.2055
 3815TIP3   OH211450   1.503   3.409   1.717  0.3022  0.1263  0.1558
 3815TIP3    H111451   1.498   3.313   1.717 -1.9605  0.1521 -1.4763
 3815TIP3    H211452   1.540   3.431   1.803 -1.6570 -2.1484  1.7342
 3816TIP3   OH211453   2.282   4.194   4.811 -0.0165  0.3867  0.3267
 3816TIP3    H111454   2.318   4.130   4.749 -1.0043 -1.9787  2.0272
 3816TIP3    H211455   2.187   4.188   4.799 -0.1758  0.5187  1.4652
 3817TIP3   OH211456   2.021   4.340   0.494  0.2207  0.2229  0.3792
 3817TIP3    H111457   1.942   4.292   0.470  0.6120  0.1209 -0.7599
 3817TIP3    H211458   2.028   4.328   0.589 -1.9759  1.5539  0.7986
 3818TIP3   OH211459   2.631   4.734   1.759 -0.3599 -0.6886 -0.1340
 3818TIP3    H111460   2.642   4.823   1.725 -0.9145 -0.8641 -0.7972
 3818TIP3    H211461   2.588   4.745   1.843  1.6479 -0.2001  0.8809
 3819TIP3   OH211462   0.333   4.784   1.842  1.1117  0.2824 -0.0975
 3819TIP3    H111463   0.326   4.799   1.748  4.1247 -0.1488 -0.4809
 3819TIP3    H211464   0.306   4.867   1.881 -5.0336 -0.8387 -0.8264
 3820TIP3   OH211465   2.993   2.209   0.509 -0.1233 -0.1132 -0.4412
 3820TIP3    H111466   2.939   2.256   0.572 -2.3136  0.2772 -2.4838
 3820TIP3    H211467   3.082   2.235   0.530 -0.6712 -0.3433  2.7305
 3821TIP3   OH211468   3.916   5.888   3.264  0.2555  0.7078 -0.0010
 3821TIP3    H111469   3.900   5.982   3.270 -0.4074  0.7229 -1.6231
 3821TIP3    H211470   3.912   5.868   3.171 -0.2586 -1.0355  0.3441
 3822TIP3   OH211471   3.343   0.695   4.932  0.3449 -0.1688 -0.0625
 3822TIP3    H111472   3.370   0.631   4.998  0.6464  0.1827  0.1577
 3822TIP3    H211473   3.248   0.699   4.940  0.5288  2.0212  2.4020
 3823TIP3   OH211474   6.094   1.982   4.244  0.3353  0.4220 -0.2104
 3823TIP3    H111475   5.998   1.979   4.235  0.4347 -0.5676 -1.1642
 3823TIP3    H211476   6.113   2.073   4.264 -0.8122  0.6323  0.0216
 3824TIP3   OH211477   1.618   4.220   1.884  0.4460  0.2254  0.2603
 3824TIP3    H111478   1.529   4.227   1.917  0.5852  0.5965  0.5542
 3824TIP3    H211479   1.631   4.126   1.872  0.4082  0.0808  1.2944
 3825TIP3   OH211480   3.040   5.258   4.912 -0.4172 -0.1425  0.0624
 3825TIP3    H111481   2.973   5.295   4.969  0.8960 -0.2026  1.7225
 3825TIP3    H211482   3.081   5.190   4.965  2.1053  1.0568 -0.2359
 3826TIP3   OH211483   1.449   3.091   3.921  0.4764  0.1244 -0.4738
 3826TIP3    H111484   1.537   3.096   3.885  0.0433 -0.4294 -1.6798
 3826TIP3    H211485   1.414   3.008   3.890 -0.7569  0.7028 -0.7261
 3827TIP3   OH211486   5.801   0.716   3.141  0.4429 -0.3820 -0.1666
 3827TIP3    H111487   5.855   0.663   3.200  1.6499 -0.0409 -0.9374
 3827TIP3    H211488   5.791   0.663   3.062  1.5513  0.4492 -0.8947
 3828TIP3   OH211489   0.087   5.123   0.743 -0.5693 -0.0291 -0.0401
 3828TIP3    H111490   0.136   5.074   0.677 -1.8485 -2.0297  0.4157
 3828TIP3    H211491   0.010   5.156   0.697  0.1517  1.3915 -0.2787
 3829TIP3   OH211492   0.663   2.446   2.832  0.3594 -0.2884 -0.6519
 3829TIP3    H111493   0.568   2.435   2.838  0.3502 -1.5119 -2.2211
 3829TIP3    H211494   0.685   2.415   2.744  2.5578 -2.8815  0.6577
 3830TIP3   OH211495   5.917   1.672   3.666 -0.7226  0.2774 -0.5821
 3830TIP3    H111496   5.977   1.745   3.651 -0.3715  0.1778  0.2658
 3830TIP3    H211497   5.970   1.594   3.650  0.4691  0.0470  3.3170
 3831TIP3   OH211498   0.025   5.815   0.890  0.2433  0.7320  0.6277
 3831TIP3    H111499   0.105   5.829   0.839  0.0692 -0.0300  0.1275
 3831TIP3    H211500  -0.039   5.782   0.827  0.3040 -1.1756  1.5023
 3832TIP3   OH211501   0.561   3.068   4.686 -0.3263  0.2201  0.0063
 3832TIP3    H111502   0.494   3.096   4.624 -0.2460  0.2000 -0.0902
 3832TIP3    H211503   0.523   3.085   4.772 -0.6723 -0.2882 -0.0370
 3833TIP3   OH211504   1.974   5.720   1.485 -0.1029  0.6273 -0.3169
 3833TIP3    H111505   1.949   5.739   1.394 -1.4619  0.3151 -0.0310
 3833TIP3    H211506   1.965   5.804   1.530  0.4997  0.7667 -0.4549
 3834TIP3   OH211507   4.695   3.263   1.963 -0.3403 -0.5026  0.1523
 3834TIP3    H111508   4.680   3.226   2.050 -3.6228 -0.2658 -0.1781
 3834TIP3    H211509   4.656   3.351   1.968  1.2079  0.2950 -1.0210
 3835TIP3   OH211510   6.071   1.506   3.145 -0.0472 -0.0559  0.4712
 3835TIP3    H111511   6.165   1.504   3.125 -0.1984  0.6474 -0.3451
 3835TIP3    H211512   6.063   1.565   3.219 -0.0680  1.6404 -0.8383
 3836TIP3   OH211513   5.247   5.208   4.674 -0.2331  0.3134 -0.1424
 3836TIP3    H111514   5.219   5.149   4.743 -0.7422  0.9059  0.1658
 3836TIP3    H211515   5.167   5.228   4.625 -0.0395  0.6223 -0.3352
 3837TIP3   OH211516   3.648   5.560   1.345 -0.3249  0.0014 -0.2855
 3837TIP3    H111517   3.609   5.640   1.381  1.0318  1.3631 -1.7077
 3837TIP3    H211518   3.574   5.511   1.310 -0.9260  2.1588 -2.2369
 3838TIP3   OH211519   1.551   3.344   4.520 -0.1092 -0.0360  0.2598
 3838TIP3    H111520   1.504   3.269   4.555 -0.3920  1.0862  2.4794
 3838TIP3    H211521   1.631   3.348   4.572  1.2635 -0.3799 -1.7101
 3839TIP3   OH211522   1.590   5.342   0.239 -0.3551  0.7528 -0.6058
 3839TIP3    H111523   1.660   5.278   0.228 -0.7813  0.0618  0.4520
 3839TIP3    H211524   1.632   5.418   0.278  0.0794  0.9580 -1.4644
 3840TIP3   OH211525   4.851   1.906   3.968  0.1464  0.1738  0.5378
 3840TIP3    H111526   4.917   1.846   4.002  0.4822  0.1075 -0.2081
 3840TIP3    H211527   4.862   1.986   4.019 -0.2169 -0.3452  1.4480
 3841TIP3   OH211528   0.301   1.612   5.103  0.0987  0.0146  0.1909
 3841TIP3    H111529   0.239   1.656   5.044  2.0100  1.6522 -0.7292
 3841TIP3    H211530   0.344   1.547   5.048 -0.9321 -1.2850  0.8862
 3842TIP3   OH211531   5.915   5.384   2.653  0.2266  0.0668  0.2694
 3842TIP3    H111532   5.852   5.455   2.663  0.6758  0.4958  0.1090
 3842TIP3    H211533   5.875   5.325   2.589  0.7506  1.2329 -1.1890
 3843TIP3   OH211534   1.266   3.254   1.948 -0.1122  0.0757 -0.2040
 3843TIP3    H111535   1.245   3.345   1.971  1.4356  0.1155  1.3422
 3843TIP3    H211536   1.275   3.255   1.853 -1.1131  1.3007 -0.3151
 3844TIP3   OH211537   4.481   5.113   2.746  0.2518 -0.0796  0.6666
 3844TIP3    H111538   4.543   5.167   2.796  0.4104  1.5891 -1.1979
 3844TIP3    H211539   4.442   5.174   2.683 -1.3750 -1.6671  0.0586
 3845TIP3   OH211540   1.077   1.153   1.729 -0.0737 -0.4559 -0.2500
 3845TIP3    H111541   1.169   1.175   1.744 -0.2982  0.8071 -0.6241
 3845TIP3    H211542   1.074   1.058   1.740  1.2370 -0.5063 -0.0603
 3846TIP3   OH211543   5.661   1.528   3.416 -0.7319 -0.2818 -0.4553
 3846TIP3    H111544   5.671   1.525   3.321  1.3819  0.7973 -0.3295
 3846TIP3    H211545   5.619   1.612   3.434 -0.0596  0.0534 -0.4011
 3847TIP3   OH211546   4.081   1.780   2.744 -0.2749 -0.5811 -0.5331
 3847TIP3    H111547   4.064   1.767   2.837 -0.0531  0.4754 -0.3297
 3847TIP3    H211548   4.171   1.813   2.740 -0.8119  0.9295 -0.9659
 3848TIP3   OH211549   1.458   3.454   4.816  0.5833 -0.6064  0.4039
 3848TIP3    H111550   1.524   3.393   4.782  0.0920 -0.7475 -0.3225
 3848TIP3    H211551   1.399   3.469   4.742  0.7615  0.8470  0.5288
 3849TIP3   OH211552   5.533   0.417   0.835 -0.4308 -0.3772  0.0217
 3849TIP3    H111553   5.577   0.409   0.750 -0.6072 -1.4812  0.0103
 3849TIP3    H211554   5.441   0.428   0.813 -0.5997 -1.5813  0.0560
 3850TIP3   OH211555   5.406   4.837   4.882 -0.1784  0.7553  0.5560
 3850TIP3    H111556   5.448   4.751   4.893 -1.6321  0.1222  1.4925
 3850TIP3    H211557   5.353   4.847   4.961 -0.6719  2.1533  0.0601
 3851TIP3   OH211558   1.861   1.688   4.585 -0.5049  0.5270  0.2546
 3851TIP3    H111559   1.831   1.752   4.520 -0.3474 -0.8861 -1.2801
 3851TIP3    H211560   1.817   1.607   4.560  0.6029 -0.3675  1.1215
 3852TIP3   OH211561   1.733   1.430   4.524 -0.0221  0.4003  0.5640
 3852TIP3    H111562   1.642   1.424   4.552 -0.0003  1.4696  0.9255
 3852TIP3    H211563   1.760   1.339   4.509 -0.5308 -0.1046  2.4530
 3853TIP3   OH211564   1.998   4.683   3.697 -0.7257 -0.1800  0.5380
 3853TIP3    H111565   1.928   4.672   3.632 -0.8275 -0.2481  0.6593
 3853TIP3    H211566   1.953   4.682   3.781 -0.6272  0.2212  0.5954
 3854TIP3   OH211567   2.468   2.177   2.707  0.3598 -0.0943  0.0830
 3854TIP3    H111568   2.407   2.239   2.747  1.0305 -0.7933  2.2795
 3854TIP3    H211569   2.493   2.118   2.777  0.8267 -2.0383 -1.6144
 3855TIP3   OH211570   5.839   0.383   0.319 -0.3495 -0.2880 -0.0369
 3855TIP3    H111571   5.820   0.472   0.345 -0.2513 -0.3179  0.1415
 3855TIP3    H211572   5.769   0.359   0.258  0.7946  0.6702 -1.8290
 3856TIP3   OH211573   1.193   3.740   0.494 -0.1556  0.3648  0.1710
 3856TIP3    H111574   1.191   3.645   0.480 -0.7437  0.3250  0.4854
 3856TIP3    H211575   1.262   3.771   0.436 -0.3806 -0.1797 -0.4094
 3857TIP3   OH211576   0.090   3.792   0.920  0.7626 -0.1299 -0.3215
 3857TIP3    H111577   0.089   3.872   0.869 -0.2793 -0.1772 -0.3867
 3857TIP3    H211578   0.161   3.740   0.881 -0.0887 -0.2273 -1.8288
 3858TIP3   OH211579   5.378   5.912   1.653 -0.6874  0.2187 -0.2925
 3858TIP3    H111580   5.300   5.859   1.633 -0.3196 -0.3908 -0.1298
 3858TIP3    H211581   5.432   5.904   1.574 -0.6456  0.3796 -0.2786
 3859TIP3   OH211582   2.156   2.601   3.137  0.2034 -0.5423  0.1235
 3859TIP3    H111583   2.174   2.680   3.189 -0.3966 -0.7816  0.7038
 3859TIP3    H211584   2.165   2.529   3.199  0.3328 -0.8964 -0.3079
 3860TIP3   OH211585   3.694   5.014   0.100  0.2993  0.1625  0.8325
 3860TIP3    H111586   3.667   5.080   0.035 -1.2284  2.4407  3.5616
 3860TIP3    H211587   3.624   4.949   0.099  1.7352 -1.5627 -1.7603
 3861TIP3   OH211588   0.144   1.913   3.591  0.2304 -0.1546  0.0379
 3861TIP3    H111589   0.181   1.832   3.627 -1.1678 -0.1728  1.5654
 3861TIP3    H211590   0.056   1.917   3.628 -0.1124  1.5240 -0.8850
 3862TIP3   OH211591   5.789   1.443   4.383 -0.3750  0.0055 -0.1321
 3862TIP3    H111592   5.735   1.514   4.417 -1.5236 -0.3800 -1.0799
 3862TIP3    H211593   5.727   1.385   4.339  0.2168 -2.6320  2.2428
 3863TIP3   OH211594   5.006   1.776   4.400 -0.0074  0.6793 -0.1274
 3863TIP3    H111595   4.916   1.803   4.380 -0.0501  0.4439 -0.2519
 3863TIP3    H211596   5.061   1.844   4.360 -0.1746  1.9803  1.7158
 3864TIP3   OH211597   5.212   0.683   2.331  0.5166 -0.0316  0.3944
 3864TIP3    H111598   5.192   0.655   2.242 -0.1284 -0.1847  0.5856
 3864TIP3    H211599   5.129   0.719   2.364  1.1927  1.7283  0.2988
 3865TIP3   OH211600   1.785   0.975   4.956  0.1685 -0.0112 -0.2870
 3865TIP3    H111601   1.769   0.942   5.045  0.1915  0.9514  0.0809
 3865TIP3    H211602   1.835   0.905   4.914 -3.1771 -2.3390 -0.8871
 3866TIP3   OH211603   4.378   0.896   2.734  0.0361  0.0172  0.1703
 3866TIP3    H111604   4.456   0.868   2.685 -0.9522 -0.4266 -1.2005
 3866TIP3    H211605   4.335   0.960   2.677 -2.2396 -2.0131 -0.5629
 3867TIP3   OH211606   2.688   5.477   3.163  0.0141  0.1915 -0.2773
 3867TIP3    H111607   2.604   5.517   3.142 -0.8394 -1.6802 -0.6214
 3867TIP3    H211608   2.705   5.418   3.090  0.6118 -0.9872  0.7746
 3868TIP3   OH211609   3.324   5.011   4.790  0.3343  0.3177  0.1964
 3868TIP3    H111610   3.240   5.008   4.745  0.4318 -2.6232  0.0221
 3868TIP3    H211611   3.389   5.015   4.721  0.3942 -0.7701  0.1757
 3869TIP3   OH211612   2.602   2.298   2.173  0.1149 -0.5274 -0.4057
 3869TIP3    H111613   2.639   2.352   2.103  0.8180  0.2415  0.5360
 3869TIP3    H211614   2.631   2.209   2.152 -0.9609 -0.5623 -1.9043
 3870TIP3   OH211615   2.929   0.837   0.158 -0.2874  0.5249 -0.5569
 3870TIP3    H111616   2.949   0.832   0.065  1.3170  0.8157 -0.2485
 3870TIP3    H211617   2.918   0.745   0.186 -0.9478  0.4471 -1.0451
 3871TIP3   OH211618   3.341   2.115   1.342 -0.3760 -0.4614  0.2044
 3871TIP3    H111619   3.326   2.191   1.398  1.8399  1.9246 -2.1560
 3871TIP3    H211620   3.414   2.068   1.383 -0.2435 -0.0137  0.4837
 3872TIP3   OH211621   3.706   2.028   1.691  0.5965  0.4661  0.5567
 3872TIP3    H111622   3.611   2.026   1.701  0.4986 -0.2475 -0.3819
 3872TIP3    H211623   3.740   2.033   1.781 -0.3132 -0.0740  0.9415
 3873TIP3   OH211624   5.287   5.096   2.986 -0.3386 -0.3785  0.1048
 3873TIP3    H111625   5.331   5.177   2.961 -0.6509 -0.0586  0.5739
 3873TIP3    H211626   5.223   5.080   2.916 -0.6948  0.1088  0.3142
 3874TIP3   OH211627   3.739   3.928   4.679 -0.0050 -0.3332 -0.0859
 3874TIP3    H111628   3.761   3.842   4.716  0.5305 -0.3747 -0.4940
 3874TIP3    H211629   3.820   3.979   4.687 -0.5466  0.4204  0.9224
 3875TIP3   OH211630   4.691   1.244   4.346 -0.0601 -0.0637 -0.7638
 3875TIP3    H111631   4.653   1.226   4.432  0.8312  1.8070  0.0819
 3875TIP3    H211632   4.769   1.189   4.342 -0.1958 -0.2818 -0.4575
 3876TIP3   OH211633   5.749   0.619   5.053 -0.3068 -0.4478 -0.7736
 3876TIP3    H111634   5.786   0.688   5.108  0.9738 -1.5743 -0.1463
 3876TIP3    H211635   5.655   0.628   5.063 -0.1525 -1.1893  2.4612
 3877TIP3   OH211636   4.841   1.018   1.043  0.1344  0.1606  0.1058
 3877TIP3    H111637   4.901   1.034   1.116 -2.0093  1.0918  1.8029
 3877TIP3    H211638   4.897   0.992   0.971  2.5106  0.5358  1.6913
 3878TIP3   OH211639   4.947   4.372   1.879 -0.0332 -0.4517 -0.5173
 3878TIP3    H111640   5.036   4.346   1.904 -0.0650 -0.5923 -0.5484
 3878TIP3    H211641   4.959   4.442   1.815  0.0612 -0.7260 -0.7995
 3879TIP3   OH211642   3.013   1.832   0.906 -0.8493  0.1592 -0.1017
 3879TIP3    H111643   2.961   1.888   0.849 -0.7111  1.3269  0.8628
 3879TIP3    H211644   2.979   1.744   0.892 -0.0964  0.2114 -2.7651
 3880TIP3   OH211645   1.874   5.705   1.782  0.1587 -0.1727 -0.5449
 3880TIP3    H111646   1.952   5.751   1.750 -1.4831  3.0712 -0.3826
 3880TIP3    H211647   1.883   5.706   1.877 -0.5695  1.4151 -0.4456
 3881TIP3   OH211648   4.203   0.611   4.345  0.6048  0.3250 -0.6753
 3881TIP3    H111649   4.133   0.565   4.391  0.7797  0.0097 -0.7169
 3881TIP3    H211650   4.163   0.691   4.311  0.2275  0.0647 -0.8424
 3882TIP3   OH211651   1.322   1.601   0.391  0.5569  0.6268 -0.2286
 3882TIP3    H111652   1.234   1.567   0.405  0.7097  0.3876  0.1886
 3882TIP3    H211653   1.334   1.665   0.462  1.1079 -0.1244  0.3824
 3883TIP3   OH211654   1.160   1.187   3.812 -0.0370  0.0775 -0.2966
 3883TIP3    H111655   1.098   1.236   3.867  0.4567  0.4774 -0.0840
 3883TIP3    H211656   1.124   1.099   3.808 -0.6994  0.3358 -0.2962
 3884TIP3   OH211657   2.831   3.345   3.559  0.0914 -0.5704  0.3628
 3884TIP3    H111658   2.813   3.251   3.556  0.3725 -0.6498  1.0732
 3884TIP3    H211659   2.887   3.356   3.636 -2.9351  0.6762  2.6026
 3885TIP3   OH211660   1.458   5.227   1.288 -0.5193 -0.2064 -0.1586
 3885TIP3    H111661   1.502   5.269   1.362  2.0132  1.8991 -2.6084
 3885TIP3    H211662   1.368   5.258   1.293  0.1558  1.8464  0.7787
 3886TIP3   OH211663   1.404   0.395   1.853 -0.3914  0.4611  0.2622
 3886TIP3    H111664   1.348   0.398   1.931  0.0078  1.6308  0.5283
 3886TIP3    H211665   1.420   0.301   1.839 -0.1820  0.2298  1.8054
 3887TIP3   OH211666   4.627   0.176   2.228 -0.5175  0.4126 -0.1760
 3887TIP3    H111667   4.635   0.237   2.301  1.3097  0.3067 -0.2501
 3887TIP3    H211668   4.716   0.166   2.195 -0.6800 -2.5559  0.0413
 3888TIP3   OH211669   5.928   0.353   1.309  0.2023  0.5030  0.1769
 3888TIP3    H111670   5.902   0.272   1.354  2.1204 -0.2673 -0.0270
 3888TIP3    H211671   5.916   0.334   1.216 -1.2490  1.1855  0.1963
 3889TIP3   OH211672   4.523   1.458   4.305  0.2628 -0.1249  0.6087
 3889TIP3    H111673   4.579   1.398   4.354  1.3577 -0.6027 -1.1447
 3889TIP3    H211674   4.584   1.513   4.256 -0.7776 -0.0654 -0.6669
 3890TIP3   OH211675   2.156   3.542   2.857 -0.2752 -0.1341  0.7727
 3890TIP3    H111676   2.244   3.524   2.825 -0.0475 -0.2237  1.4244
 3890TIP3    H211677   2.168   3.607   2.926 -0.9575  1.5672 -0.6324
 3891TIP3   OH211678   1.177   4.622   0.915 -0.1338 -0.6856  0.0656
 3891TIP3    H111679   1.184   4.535   0.955  0.3174 -0.7822 -0.2207
 3891TIP3    H211680   1.210   4.611   0.826  2.1694  0.2547  0.7255
 3892TIP3   OH211681   1.546   0.870   2.243 -0.2602  0.2096 -0.4871
 3892TIP3    H111682   1.551   0.916   2.159  0.2428 -0.0827 -0.6204
 3892TIP3    H211683   1.559   0.778   2.220 -0.3321  0.1067 -0.1113
 3893TIP3   OH211684   6.016   5.094   4.809 -0.2950  0.1151 -0.3735
 3893TIP3    H111685   5.975   5.052   4.885  2.4099  0.9656  1.7174
 3893TIP3    H211686   5.972   5.178   4.800 -2.0024 -0.8130 -1.0971
 3894TIP3   OH211687   5.122   4.981   4.833  0.6662  0.0182 -0.4674
 3894TIP3    H111688   5.088   4.916   4.895  1.9279 -0.4307 -0.2246
 3894TIP3    H211689   5.128   5.062   4.884 -0.7087  0.3049 -0.7147
 3895TIP3   OH211690   3.869   5.612   2.844 -0.4009 -0.3381  0.1848
 3895TIP3    H111691   3.809   5.545   2.876 -1.1991 -0.3717 -1.3260
 3895TIP3    H211692   3.832   5.640   2.761  1.1816  0.3159 -0.3328
 3896TIP3   OH211693   0.468   0.570   3.897  0.8866 -0.6930  0.0681
 3896TIP3    H111694   0.393   0.598   3.950  1.5572  0.5878  0.3943
 3896TIP3    H211695   0.492   0.485   3.933  0.3018 -0.5882  0.7292
 3897TIP3   OH211696   6.166   5.171   0.644  0.0936  0.3782  0.0300
 3897TIP3    H111697   6.154   5.108   0.573 -0.3485  1.1741 -0.6211
 3897TIP3    H211698   6.084   5.168   0.694  0.5270 -0.4152  0.7128
 3898TIP3   OH211699   3.262   3.937   3.518  0.1470 -0.4993  0.6263
 3898TIP3    H111700   3.272   3.949   3.424 -0.5413 -1.8797  0.3440
 3898TIP3    H211701   3.261   3.841   3.530 -1.6577 -0.3864  1.8105
 3899TIP3   OH211702   2.218   4.506   5.073 -0.4753 -0.1220  0.0801
 3899TIP3    H111703   2.197   4.460   5.154 -1.8481 -2.8570 -1.6446
 3899TIP3    H211704   2.139   4.498   5.020  1.1664 -0.8099 -2.4863
 3900TIP3   OH211705   0.961   0.839   4.980  0.9669  0.4158 -0.3234
 3900TIP3    H111706   0.973   0.925   5.020 -1.4045  0.5550  0.1968
 3900TIP3    H211707   0.938   0.858   4.889 -1.7811  0.5045  0.3219
 3901TIP3   OH211708   2.533   4.064   4.159  0.1890 -0.2297 -0.4024
 3901TIP3    H111709   2.521   3.983   4.110  0.9351 -0.9572  0.5601
 3901TIP3    H211710   2.628   4.079   4.157  0.0497  0.6540 -0.6239
 3902TIP3   OH211711   1.687   0.659   1.280 -0.3813  0.2139 -0.1672
 3902TIP3    H111712   1.613   0.607   1.249 -0.6246  1.0466 -1.0385
 3902TIP3    H211713   1.726   0.607   1.350 -0.9842 -0.8495 -0.6053
 3903TIP3   OH211714   2.157   1.630   0.471  0.4812 -0.1674  0.0075
 3903TIP3    H111715   2.220   1.683   0.422 -0.4376  1.5497  0.6122
 3903TIP3    H211716   2.112   1.692   0.528  0.0182 -1.7554  1.4775
 3904TIP3   OH211717   4.251   4.265   2.271  0.0543  0.0770  0.0407
 3904TIP3    H111718   4.218   4.337   2.217  1.1900  1.1076  0.6653
 3904TIP3    H211719   4.296   4.207   2.209 -2.9149 -1.4628 -0.8620
 3905TIP3   OH211720   1.091   5.439   2.693 -0.1736  0.0914  0.1927
 3905TIP3    H111721   1.065   5.377   2.624  1.3228  0.4903 -0.7785
 3905TIP3    H211722   1.179   5.465   2.669  0.4503  0.1611  2.3508
 3906TIP3   OH211723   0.859   2.118   3.025 -0.0468 -0.0934  0.1564
 3906TIP3    H111724   0.771   2.154   3.040 -0.6009 -1.4728  0.3064
 3906TIP3    H211725   0.906   2.135   3.106 -1.1007 -1.9296  1.2224
 3907TIP3   OH211726   1.614   2.088   4.143  0.1443 -0.4263  0.6585
 3907TIP3    H111727   1.569   2.020   4.194  0.2042 -0.1029  1.1556
 3907TIP3    H211728   1.655   2.144   4.210  2.2754 -1.3581  0.2185
 3908TIP3   OH211729   2.124   5.036   0.162 -0.1090  0.3143  0.1261
 3908TIP3    H111730   2.079   4.963   0.203  0.9216  0.2752  1.2599
 3908TIP3    H211731   2.059   5.074   0.103 -1.5178  0.0712  1.4430
 3909TIP3   OH211732   3.252   1.140   3.657  0.4502  0.3761 -0.1520
 3909TIP3    H111733   3.314   1.133   3.730 -0.5997  1.1925  0.8552
 3909TIP3    H211734   3.166   1.145   3.699 -0.2598 -0.0769 -1.4931
 3910TIP3   OH211735   1.107   5.466   3.760  0.4240 -0.5398 -0.1385
 3910TIP3    H111736   1.187   5.485   3.711  0.4250 -0.5362 -0.1355
 3910TIP3    H211737   1.062   5.399   3.708  0.4580 -0.5849 -0.1104
 3911TIP3   OH211738   2.481   4.276   1.033  0.2260  0.4298  0.1094
 3911TIP3    H111739   2.407   4.309   0.983  0.2515  0.4955  0.1153
 3911TIP3    H211740   2.465   4.307   1.122 -0.5651 -0.8824  0.4490
 3912TIP3   OH211741   2.450   0.770   1.749 -0.0797  0.2904 -0.9067
 3912TIP3    H111742   2.453   0.781   1.654 -1.6645 -2.5271 -1.3953
 3912TIP3    H211743   2.507   0.696   1.767 -0.8865 -0.0969  0.1467
 3913TIP3   OH211744   2.100   2.227   4.895 -0.0108 -0.4471 -0.2708
 3913TIP3    H111745   2.162   2.183   4.954  0.6257 -1.3948 -1.5769
 3913TIP3    H211746   2.044   2.156   4.863 -1.4312  0.3074  0.4176
 3914TIP3   OH211747   4.197   5.194   1.714 -0.7092 -0.3848  0.6329
 3914TIP3    H111748   4.248   5.142   1.776 -2.2623 -1.4671  1.0610
 3914TIP3    H211749   4.207   5.149   1.630  0.8291  0.6929  0.1833
 3915TIP3   OH211750   2.043   1.083   0.614  0.1901  0.7350 -0.5573
 3915TIP3    H111751   2.117   1.024   0.630  0.4210  0.9538 -0.8046
 3915TIP3    H211752   1.989   1.037   0.549  0.5892  0.9725 -1.0689
 3916TIP3   OH211753   2.464   3.314   0.139  0.2817 -0.5340 -0.7991
 3916TIP3    H111754   2.532   3.302   0.073  0.6328 -1.5529 -0.2849
 3916TIP3    H211755   2.478   3.242   0.200  1.1494  1.3793  1.4268
 3917TIP3   OH211756   5.941   3.390   1.971  0.2719 -0.1138  0.1409
 3917TIP3    H111757   5.941   3.323   2.039 -1.7575  0.0394  0.3505
 3917TIP3    H211758   6.028   3.429   1.976  0.8893 -1.5348  1.2012
 3918TIP3   OH211759   4.244   4.359   4.769 -0.2578  0.2858 -0.1479
 3918TIP3    H111760   4.173   4.367   4.705  0.6432 -1.5696 -1.4699
 3918TIP3    H211761   4.258   4.448   4.801 -2.3644  0.8759 -0.7184
 3919TIP3   OH211762   1.717   2.265   0.263  0.4791 -0.7420 -0.5600
 3919TIP3    H111763   1.742   2.201   0.329 -0.8632 -0.0884  0.6381
 3919TIP3    H211764   1.633   2.234   0.230 -0.4327  0.5931  0.3842
 3920TIP3   OH211765   4.813   5.417   3.311  0.0186  0.5410  0.2815
 3920TIP3    H111766   4.890   5.446   3.360 -0.4213  2.9637 -0.3299
 3920TIP3    H211767   4.783   5.496   3.264 -0.9863 -1.0698 -1.9814
 3921TIP3   OH211768   3.319   0.611   2.902 -0.0422  0.3517 -0.1524
 3921TIP3    H111769   3.229   0.644   2.893 -0.6431 -1.4790 -1.5012
 3921TIP3    H211770   3.369   0.659   2.836 -0.9775 -1.4673 -2.3329
 3922TIP3   OH211771   4.991   4.528   4.096 -0.7971 -0.8044  0.6016
 3922TIP3    H111772   4.921   4.541   4.159 -0.2159  0.4492  1.0211
 3922TIP3    H211773   5.071   4.534   4.148 -0.3145 -0.0519 -0.1995
 3923TIP3   OH211774   1.712   1.223   2.280  0.4800 -0.3089  0.4009
 3923TIP3    H111775   1.804   1.248   2.287  0.9393 -2.1683  1.9746
 3923TIP3    H211776   1.713   1.143   2.228 -0.4129  0.2943 -0.5798
 3924TIP3   OH211777   2.596   5.702   0.717 -0.1059 -0.4784  0.0550
 3924TIP3    H111778   2.550   5.665   0.641  2.0617 -1.3656 -0.9222
 3924TIP3    H211779   2.600   5.796   0.700 -1.8305 -0.3143  0.3703
 3925TIP3   OH211780   6.214   0.511   3.126 -0.2432  0.5327 -0.1597
 3925TIP3    H111781   6.176   0.460   3.054  1.1774 -0.5662 -0.1718
 3925TIP3    H211782   6.179   0.599   3.114  0.6853  0.6449 -2.8076
 3926TIP3   OH211783   2.126   3.302   0.411  0.5587  0.1041 -0.0973
 3926TIP3    H111784   2.059   3.234   0.406  1.5479 -0.8168 -1.6353
 3926TIP3    H211785   2.091   3.366   0.473 -1.9432 -0.1436 -1.1365
 3927TIP3   OH211786   4.042   2.678   2.663 -0.5940  0.1406  0.2082
 3927TIP3    H111787   3.988   2.629   2.725  0.4773  0.8513  1.7868
 3927TIP3    H211788   3.991   2.757   2.644 -0.9887 -0.1420  0.1005
 3928TIP3   OH211789   0.219   5.592   5.177 -0.5212 -0.8560 -0.5179
 3928TIP3    H111790   0.161   5.531   5.221  0.9585 -0.4549  2.2515
 3928TIP3    H211791   0.162   5.662   5.146 -1.7235 -1.4375  0.3178
 3929TIP3   OH211792   4.655   1.048   3.704 -0.2720  0.4375  0.0263
 3929TIP3    H111793   4.664   1.130   3.655 -1.5670  0.2146 -0.6234
 3929TIP3    H211794   4.584   1.064   3.765 -1.7171 -0.6938 -1.2677
 3930TIP3   OH211795   2.459   5.066   1.174  1.0585 -0.3607 -0.2140
 3930TIP3    H111796   2.520   5.112   1.116 -1.8324  2.3142 -1.3827
 3930TIP3    H211797   2.376   5.068   1.128 -0.9697  0.1069  3.1486
 3931TIP3   OH211798   2.847   2.258   1.803 -0.9610  0.4284 -0.3204
 3931TIP3    H111799   2.870   2.241   1.712  2.0211  0.8422  0.2363
 3931TIP3    H211800   2.837   2.172   1.843 -1.3679  0.2357 -0.8384
 3932TIP3   OH211801   3.902   2.311   1.356  0.2262 -0.1786 -0.3055
 3932TIP3    H111802   3.982   2.360   1.337 -0.0099  1.0190  1.5949
 3932TIP3    H211803   3.851   2.369   1.412 -0.1424 -2.4885  1.9340
 3933TIP3   OH211804   1.733   0.551   0.279 -0.0624  0.0746 -0.3026
 3933TIP3    H111805   1.723   0.567   0.373  0.6832  1.0285 -0.3819
 3933TIP3    H211806   1.827   0.557   0.263 -0.2397  0.5664 -1.2266
 3934TIP3   OH211807   5.739   4.554   4.946  0.0846 -0.6205  0.1825
 3934TIP3    H111808   5.674   4.522   5.009 -0.3535  0.5077  0.3373
 3934TIP3    H211809   5.769   4.476   4.901  0.1840 -1.4186  1.5743
 3935TIP3   OH211810   1.984   3.364   1.018 -0.3901  0.1541  0.2104
 3935TIP3    H111811   2.025   3.425   0.957 -1.4478  1.3395  0.6447
 3935TIP3    H211812   1.985   3.280   0.972 -0.0640  0.7649 -0.9296
 3936TIP3   OH211813   5.846   5.705   3.903  0.1629 -0.2312  0.3018
 3936TIP3    H111814   5.750   5.696   3.901  0.3060 -1.8506 -0.6718
 3936TIP3    H211815   5.864   5.776   3.842 -0.3686 -0.5050 -0.1874
 3937TIP3   OH211816   2.763   4.646   2.156 -0.1175 -0.0425 -0.1661
 3937TIP3    H111817   2.765   4.741   2.166 -1.2620 -0.0921  0.7527
 3937TIP3    H211818   2.844   4.625   2.110 -0.1427  1.4322 -0.9248
 3938TIP3   OH211819   4.372   4.871   3.071 -0.5030  0.3674  0.0380
 3938TIP3    H111820   4.311   4.802   3.099  0.8081 -1.4097 -1.2650
 3938TIP3    H211821   4.371   4.934   3.143 -1.2894 -1.3194  1.5988
 3939TIP3   OH211822   6.037   3.315   2.640  0.3537 -0.0317  0.4047
 3939TIP3    H111823   5.942   3.305   2.639  0.4585 -1.4456  1.7862
 3939TIP3    H211824   6.054   3.389   2.581 -1.5552 -0.0160 -0.1768
 3940TIP3   OH211825   2.207   1.658   4.111  0.3104  0.3674  0.6519
 3940TIP3    H111826   2.112   1.664   4.117  0.1549  0.2066 -1.2978
 3940TIP3    H211827   2.225   1.564   4.114  0.3802  0.3773  0.5357
 3941TIP3   OH211828   4.280   5.557   3.233 -0.1838 -0.4414  0.2983
 3941TIP3    H111829   4.350   5.622   3.239 -0.0163 -0.5645 -0.2424
 3941TIP3    H211830   4.245   5.551   3.322  0.3912 -0.2691  0.5420
 3942TIP3   OH211831   5.445   1.313   1.279  0.1333 -0.1003  0.8421
 3942TIP3    H111832   5.399   1.282   1.201 -0.7600  1.8711  0.5325
 3942TIP3    H211833   5.379   1.359   1.330  1.5729  2.5189  0.5631
 3943TIP3   OH211834   3.479   5.700   3.512  0.5468  0.4818  0.0461
 3943TIP3    H111835   3.393   5.723   3.476  0.2721 -1.4761 -0.6631
 3943TIP3    H211836   3.537   5.770   3.482 -0.3063  0.5165 -1.6591
 3944TIP3   OH211837   5.627   0.390   2.766  0.3826 -0.5276 -0.2009
 3944TIP3    H111838   5.578   0.431   2.695  0.5959  1.2851  0.6405
 3944TIP3    H211839   5.712   0.433   2.764 -0.3719  1.3391  2.5945
 3945TIP3   OH211840   4.116   3.717   3.859  0.5922 -0.6704  0.4581
 3945TIP3    H111841   4.031   3.745   3.894 -0.3941 -0.1967 -2.1003
 3945TIP3    H211842   4.112   3.740   3.766  2.9817 -1.9542 -0.0276
 3946TIP3   OH211843   0.275   4.509   2.653  0.1415 -0.2149 -0.8377
 3946TIP3    H111844   0.294   4.503   2.559  1.2450 -2.0980 -0.5350
 3946TIP3    H211845   0.357   4.539   2.692 -0.4829  1.1325 -0.4899
 3947TIP3   OH211846   1.942   3.790   4.371  0.2555  0.2936  0.5590
 3947TIP3    H111847   1.957   3.843   4.292 -0.9100 -0.8401 -0.4852
 3947TIP3    H211848   1.924   3.854   4.440 -0.3670  1.2898 -0.4876
 3948TIP3   OH211849   1.525   5.714   5.108  0.1412  0.4990  0.1436
 3948TIP3    H111850   1.607   5.764   5.117 -0.2075  1.2394 -0.6351
 3948TIP3    H211851   1.509   5.712   5.013 -0.4073 -0.2096  0.2415
 3949TIP3   OH211852   0.287   4.231   4.853 -0.3730  0.0678 -0.2673
 3949TIP3    H111853   0.215   4.168   4.854 -0.7876  0.5349 -0.6613
 3949TIP3    H211854   0.256   4.305   4.904  0.1832 -0.1060  0.3425
 3950TIP3   OH211855   2.003   2.493   4.952 -0.0368 -0.0508 -0.0860
 3950TIP3    H111856   2.055   2.413   4.943  0.1597  0.3079 -3.1189
 3950TIP3    H211857   2.066   2.564   4.938 -0.2861  0.7015  2.1854
 3951TIP3   OH211858   3.696   4.881   2.199 -0.0259 -0.3570 -0.0442
 3951TIP3    H111859   3.773   4.921   2.159  0.9954 -1.9460  0.2644
 3951TIP3    H211860   3.629   4.884   2.131  0.8001 -0.4203 -0.8694
 3952TIP3   OH211861   0.743   4.921   4.002 -0.1938  0.0403 -0.0188
 3952TIP3    H111862   0.688   4.958   4.071 -0.1915 -0.5396  0.3070
 3952TIP3    H211863   0.688   4.855   3.960 -0.1719  0.3428 -0.5294
 3953TIP3   OH211864   0.864   0.695   1.711 -0.2122  0.3661  0.2710
 3953TIP3    H111865   0.859   0.619   1.768  1.1148  1.9150  2.6615
 3953TIP3    H211866   0.797   0.681   1.645  0.5655 -3.2360  0.0719
 3954TIP3   OH211867   4.545   3.656   1.620 -0.4030 -0.3981 -0.3104
 3954TIP3    H111868   4.610   3.694   1.679  0.1348 -2.3623  0.4639
 3954TIP3    H211869   4.593   3.639   1.539 -0.2046 -0.8946 -0.0941
 3955TIP3   OH211870   2.042   3.366   4.203  0.2367 -0.2820 -0.1333
 3955TIP3    H111871   1.986   3.347   4.279  0.2403 -2.2142 -0.5660
 3955TIP3    H211872   2.130   3.370   4.238  0.1260 -0.0265  0.1221
 3956TIP3   OH211873   0.284   3.323   3.186 -0.0007 -0.1210  0.3673
 3956TIP3    H111874   0.343   3.248   3.179  2.2189  1.5836 -0.1826
 3956TIP3    H211875   0.341   3.398   3.197 -1.8871  2.0371 -2.9196
 3957TIP3   OH211876   4.134   1.708   1.613 -0.1387 -0.5232  1.2471
 3957TIP3    H111877   4.159   1.779   1.673  0.0225 -0.7839  1.4877
 3957TIP3    H211878   4.205   1.645   1.620 -0.0025 -0.4476  0.6042
 3958TIP3   OH211879   5.369   5.763   4.984 -0.2179 -0.8028 -0.0591
 3958TIP3    H111880   5.303   5.695   4.997 -1.0954  0.1567  0.7199
 3958TIP3    H211881   5.448   5.716   4.958 -1.3065 -1.9602 -1.4756
 3959TIP3   OH211882   4.515   3.728   1.131  0.2752 -0.0093 -0.0400
 3959TIP3    H111883   4.609   3.713   1.148  0.1843 -1.0264 -0.3722
 3959TIP3    H211884   4.502   3.698   1.041 -0.5585 -0.8010  0.3310
 3960TIP3   OH211885   5.796   1.542   0.256 -0.5925 -0.7310  0.8901
 3960TIP3    H111886   5.706   1.554   0.226 -0.4264 -1.2853  0.1380
 3960TIP3    H211887   5.850   1.572   0.183 -0.1775 -1.2972  0.9530
 3961TIP3   OH211888   1.632   3.328   0.594 -0.4678  0.4741 -0.4563
 3961TIP3    H111889   1.626   3.370   0.508 -0.7564  2.4566  0.4912
 3961TIP3    H211890   1.683   3.388   0.647 -1.8964  0.2195  1.3158
 3962TIP3   OH211891   2.781   2.228   4.243  0.7189  0.5813 -0.1987
 3962TIP3    H111892   2.868   2.260   4.267  0.9749  0.5970 -1.1296
 3962TIP3    H211893   2.726   2.252   4.317  1.7349 -0.5045  0.9613
 3963TIP3   OH211894   5.031   3.782   0.917 -0.2749  0.6580  0.3551
 3963TIP3    H111895   4.977   3.704   0.931  0.3071  0.3222  0.7484
 3963TIP3    H211896   5.050   3.814   1.005  1.2312  0.0390  0.2697
 3964TIP3   OH211897   3.581   3.662   2.378  0.0534  0.6921  0.2376
 3964TIP3    H111898   3.620   3.595   2.435 -0.2220 -0.8593 -1.3328
 3964TIP3    H211899   3.642   3.670   2.305 -2.0130 -1.1343 -1.8241
 3965TIP3   OH211900   5.721   0.184   4.574  0.1661  0.1424  0.2248
 3965TIP3    H111901   5.790   0.118   4.582  0.0309  0.0342  0.5053
 3965TIP3    H211902   5.688   0.173   4.484 -1.9770 -2.3044  1.1865
 3966TIP3   OH211903   0.891   5.435   1.867 -0.5377 -0.0721 -0.7156
 3966TIP3    H111904   0.892   5.493   1.943 -0.9359  0.4163 -1.0752
 3966TIP3    H211905   0.982   5.428   1.840  0.0333 -2.3691  1.3777
 3967TIP3   OH211906   3.691   5.139   0.379  0.1783  0.0929  0.0904
 3967TIP3    H111907   3.721   5.190   0.304  0.8909 -0.2992  0.1017
 3967TIP3    H211908   3.682   5.050   0.346 -1.3551  0.2550 -0.0089
 3968TIP3   OH211909   5.644   3.135   1.615  0.0214  0.2724 -0.0954
 3968TIP3    H111910   5.679   3.204   1.672  0.1795  0.5880 -0.5740
 3968TIP3    H211911   5.573   3.177   1.568 -1.1342 -0.3971  0.9704
 3969TIP3   OH211912   3.879   0.549   4.789  0.3572  0.2940  0.0132
 3969TIP3    H111913   3.933   0.522   4.715  0.2757 -1.2280  0.4670
 3969TIP3    H211914   3.902   0.641   4.804  0.3066  0.6574 -1.9314
 3970TIP3   OH211915   0.719   0.410   3.973 -0.4881  0.1597 -0.0028
 3970TIP3    H111916   0.677   0.330   3.941 -0.0113 -0.8654  1.8015
 3970TIP3    H211917   0.725   0.398   4.068 -0.3992  2.3527  0.3151
 3971TIP3   OH211918   5.055   0.331   3.058  0.5030  0.1978  0.6557
 3971TIP3    H111919   5.118   0.294   3.119  1.4015 -0.4581 -0.6256
 3971TIP3    H211920   5.037   0.261   2.996  0.4032  1.1556 -0.4347
 3972TIP3   OH211921   0.013   2.949   1.640 -0.4428 -0.1656 -0.3219
 3972TIP3    H111922   0.017   2.854   1.650  1.1421 -0.0551  0.2841
 3972TIP3    H211923   0.068   2.969   1.565  0.1847  0.3578  0.2574
 3973TIP3   OH211924   4.874   3.741   1.356 -0.6931  0.1264 -0.2198
 3973TIP3    H111925   4.842   3.656   1.385 -0.8809  0.0291 -0.7032
 3973TIP3    H211926   4.797   3.798   1.358 -0.3589  0.5836  1.1556
 3974TIP3   OH211927   4.615   4.768   3.743  0.1603  0.2012  0.1527
 3974TIP3    H111928   4.679   4.793   3.809  1.8217 -1.7940 -0.5877
 3974TIP3    H211929   4.634   4.825   3.668  0.6900  0.0479  0.1627
 3975TIP3   OH211930   4.549   2.305   4.763 -0.9907 -0.4762 -0.0317
 3975TIP3    H111931   4.612   2.260   4.819  0.2976  1.6397  0.3690
 3975TIP3    H211932   4.485   2.342   4.824 -0.9682 -0.2216 -0.1575
 3976TIP3   OH211933   2.390   1.077   3.909 -0.1170  0.1235  0.6513
 3976TIP3    H111934   2.447   1.131   3.853  0.0975  1.1361  1.7883
 3976TIP3    H211935   2.391   0.991   3.868 -0.6694  1.0187 -1.3924
 3977TIP3   OH211936   0.154   3.477   3.846  0.5616  0.0842  0.6918
 3977TIP3    H111937   0.150   3.387   3.876 -0.8010  0.2572  1.0856
 3977TIP3    H211938   0.108   3.527   3.913  1.6771  1.1388  0.7019
 3978TIP3   OH211939   2.225   0.246   2.660  0.2815 -0.5117  0.2893
 3978TIP3    H111940   2.255   0.337   2.657 -0.2393 -0.2878  1.3094
 3978TIP3    H211941   2.234   0.221   2.752 -1.0011 -0.9884  0.3071
 3979TIP3   OH211942   3.381   3.975   2.347 -0.3099 -0.2553 -0.4038
 3979TIP3    H111943   3.367   4.065   2.318  1.8049  0.2608  0.0324
 3979TIP3    H211944   3.451   3.981   2.412 -0.5763 -2.1519  0.1340
 3980TIP3   OH211945   0.413   4.572   2.412 -0.2869 -0.7738  0.4079
 3980TIP3    H111946   0.423   4.641   2.347  0.0959 -2.0240 -0.9175
 3980TIP3    H211947   0.503   4.550   2.437 -0.4434  0.2270  1.9912
 3981TIP3   OH211948   3.093   1.012   4.598  0.1188 -1.3274 -0.1759
 3981TIP3    H111949   3.155   1.062   4.651 -0.9987 -0.6030  0.5141
 3981TIP3    H211950   3.026   0.984   4.660 -1.3149 -0.3165 -1.1840
 3982TIP3   OH211951   0.183   0.954   1.770 -0.1636  0.0163 -0.1644
 3982TIP3    H111952   0.096   0.993   1.762  0.3708  1.0799 -1.0379
 3982TIP3    H211953   0.230   0.985   1.692  0.7373 -1.2139 -0.1281
 3983TIP3   OH211954   2.079   0.667   3.668  0.3379 -0.1030 -0.1064
 3983TIP3    H111955   1.993   0.709   3.673 -0.4220 -1.5499 -0.4967
 3983TIP3    H211956   2.086   0.637   3.578  1.3060  0.0684 -0.0972
 3984TIP3   OH211957   4.788   4.019   3.903  0.7074  0.2381  0.5957
 3984TIP3    H111958   4.719   4.063   3.853 -1.7951 -0.3102  3.2705
 3984TIP3    H211959   4.855   3.997   3.838 -1.6886  0.6744 -2.2190
 3985TIP3   OH211960   3.564   4.715   0.365  0.0063  0.2296 -0.0982
 3985TIP3    H111961   3.469   4.703   0.365 -0.1956  1.6500  0.1365
 3985TIP3    H211962   3.597   4.644   0.311 -1.0167 -1.4189  1.3418
 3986TIP3   OH211963   1.766   2.075   2.365 -0.5208 -0.0536 -0.2742
 3986TIP3    H111964   1.787   2.166   2.386 -0.0965 -0.0600 -0.6636
 3986TIP3    H211965   1.846   2.040   2.327 -0.8801 -0.4088 -0.7093
 3987TIP3   OH211966   2.926   5.809   1.841 -0.6074 -0.1761 -0.0663
 3987TIP3    H111967   2.918   5.835   1.933 -0.6196  0.5518 -0.2654
 3987TIP3    H211968   2.869   5.732   1.833 -1.7428  0.6025  0.2219
 3988TIP3   OH211969   6.323   0.707   2.488  0.1761 -0.1800  0.6462
 3988TIP3    H111970   6.373   0.705   2.569 -0.1984  0.1696  0.8927
 3988TIP3    H211971   6.336   0.795   2.454  1.0524 -0.5965 -0.1430
 3989TIP3   OH211972   4.350   3.655   0.483 -0.3714  0.5272 -0.1436
 3989TIP3    H111973   4.341   3.560   0.480 -0.5033  0.5467 -0.4937
 3989TIP3    H211974   4.364   3.676   0.575 -0.7922  0.2061 -0.0024
 3990TIP3   OH211975   5.063   2.721   1.231 -0.2821  0.0937  0.0821
 3990TIP3    H111976   5.042   2.633   1.199 -0.3914  0.0165  0.3620
 3990TIP3    H211977   5.024   2.780   1.167  1.0736 -0.0682 -0.9191
 3991TIP3   OH211978   0.676   4.141   3.512  0.1564  0.2154 -0.0243
 3991TIP3    H111979   0.764   4.122   3.544  0.9387  1.3161 -1.3928
 3991TIP3    H211980   0.678   4.233   3.488 -2.0048  0.8295  1.7604
 3992TIP3   OH211981   6.064   0.171   3.369 -0.2751 -0.6066  0.0831
 3992TIP3    H111982   6.044   0.249   3.317 -2.3225 -2.4682 -2.1369
 3992TIP3    H211983   6.000   0.172   3.440  0.4889  0.3120  0.7821
 3993TIP3   OH211984   2.176   3.282   4.931 -0.2281 -0.0952 -0.0213
 3993TIP3    H111985   2.234   3.287   5.007 -1.2322 -0.3136  0.7714
 3993TIP3    H211986   2.094   3.322   4.961 -0.2174  1.0544 -1.4048
 3994TIP3   OH211987   0.128   5.655   3.554  0.0280  0.8642 -0.3378
 3994TIP3    H111988   0.118   5.586   3.489 -0.9934  0.5425  0.1419
 3994TIP3    H211989   0.087   5.732   3.513  0.6575  1.0435 -0.6413
 3995TIP3   OH211990   3.344   1.321   0.841  0.4136  0.1869  0.0230
 3995TIP3    H111991   3.413   1.364   0.790  0.5153  0.1414  0.1201
 3995TIP3    H211992   3.392   1.269   0.905  0.2910 -0.0614 -0.0856
 3996TIP3   OH211993   4.599   4.127   4.904  0.1807  0.8445  0.0766
 3996TIP3    H111994   4.542   4.159   4.834 -0.8698  0.8568  0.9140
 3996TIP3    H211995   4.605   4.200   4.965  0.9573  0.7758  0.0915
 3997TIP3   OH211996   1.537   2.961   3.103 -1.2566 -0.6366 -0.1772
 3997TIP3    H111997   1.509   2.972   3.012 -1.2086  1.2834  0.0109
 3997TIP3    H211998   1.564   2.869   3.109  0.9231 -0.2467 -2.6892
 3998TIP3   OH211999   4.695   2.175   1.013 -0.4849  0.1056 -0.5740
 3998TIP3    H112000   4.672   2.221   1.094 -0.2003  3.2976 -2.1777
 3998TIP3    H212001   4.613   2.135   0.984 -0.9440  0.2781  0.4394
 3999TIP3   OH212002   4.838   1.673   5.025  0.1947  0.2748  0.2745
 3999TIP3    H112003   4.812   1.665   5.117 -1.5166 -0.5199 -0.2381
 3999TIP3    H212004   4.756   1.671   4.977  0.8142  3.4655 -1.1615
 4000TIP3   OH212005   1.619   4.454   2.974 -0.2167 -0.2517  0.1984
 4000TIP3    H112006   1.567   4.452   3.054 -0.8384 -0.6286 -0.2128
 4000TIP3    H212007   1.557   4.473   2.904  0.1519 -0.9049 -0.3249
 4001TIP3   OH212008   2.388   1.575   2.417 -0.5593  0.1133  0.5783
 4001TIP3    H112009   2.365   1.668   2.413 -0.7509  0.1117  1.5368
 4001TIP3    H212010   2.458   1.570   2.481 -0.2208 -0.3504  0.1846
 4002TIP3   OH212011   2.925   4.755   1.901 -0.1059  0.2836 -0.3918
 4002TIP3    H112012   2.856   4.688   1.900  0.2781 -0.1190 -1.5561
 4002TIP3    H212013   2.918   4.797   1.816  0.6264  0.7287 -0.2352
 4003TIP3   OH212014   0.989   3.056   1.549  0.2362  0.5047  0.0165
 4003TIP3    H112015   0.996   3.072   1.455 -0.3029  1.6566  0.1540
 4003TIP3    H212016   0.970   2.963   1.556  1.7879  0.0808 -0.9324
 4004TIP3   OH212017   5.700   2.764   0.919  0.0813  0.3081 -0.2267
 4004TIP3    H112018   5.747   2.827   0.864 -0.4358  1.2903  0.4124
 4004TIP3    H212019   5.746   2.681   0.906  1.0740  0.9194 -0.7426
 4005TIP3   OH212020   2.545   2.486   3.582 -0.2136  0.1612  0.0663
 4005TIP3    H112021   2.602   2.410   3.573  0.2597  0.2878  1.6482
 4005TIP3    H212022   2.464   2.452   3.621 -0.2477  0.3540  0.1703
 4006TIP3   OH212023   5.791   0.921   0.076 -0.4759 -0.0242  0.2648
 4006TIP3    H112024   5.736   0.843   0.067 -1.1423  0.2489  1.7330
 4006TIP3    H212025   5.880   0.887   0.084 -0.9600 -0.8560  3.1901
 4007TIP3   OH212026   2.886   4.907   1.692  0.6764  0.4534  0.3911
 4007TIP3    H112027   2.814   4.942   1.744 -0.5396 -1.7624  0.3180
 4007TIP3    H212028   2.864   4.929   1.602  0.5617  0.5285  0.4378
 4008TIP3   OH212029  -0.014   0.367   3.583 -0.2195  0.8034 -0.2587
 4008TIP3    H112030  -0.001   0.451   3.538 -0.6621 -0.0455 -2.0435
 4008TIP3    H212031   0.022   0.302   3.523 -0.2623 -0.3425  0.9239
 4009TIP3   OH212032   3.655   3.405   0.128 -0.2744 -0.0816 -0.2309
 4009TIP3    H112033   3.635   3.328   0.074  0.0991 -1.0107  0.8987
 4009TIP3    H212034   3.571   3.449   0.139 -0.6497 -0.7942 -0.2028
 4010TIP3   OH212035   6.307   3.479   2.623  0.1114 -0.0066 -0.0584
 4010TIP3    H112036   6.245   3.432   2.566 -0.1268  0.0622  0.1448
 4010TIP3    H212037   6.392   3.466   2.581 -0.2562  1.3664 -1.3217
 4011TIP3   OH212038   4.129   0.055   2.662  0.5017 -0.1374 -0.6932
 4011TIP3    H112039   4.196   0.124   2.671 -0.8301  1.1851 -0.5754
 4011TIP3    H212040   4.051   0.092   2.701 -0.5414 -1.3452 -1.5481
 4012TIP3   OH212041   5.005   5.530   4.037  0.5491  0.0389 -0.0454
 4012TIP3    H112042   5.072   5.464   4.022  1.2036  1.0494 -1.9288
 4012TIP3    H212043   5.042   5.611   4.002 -0.5650  1.2391  1.4132
 4013TIP3   OH212044   2.160   5.882   3.868  0.0277 -0.9498 -0.0305
 4013TIP3    H112045   2.090   5.945   3.888  0.2341 -1.0961  1.2000
 4013TIP3    H212046   2.185   5.903   3.778 -1.0670 -0.3874 -0.2243
 4014TIP3   OH212047   3.895   5.052   2.774 -0.1711 -0.4437 -0.1110
 4014TIP3    H112048   3.974   5.044   2.721 -0.3229 -0.9824 -0.2604
 4014TIP3    H212049   3.824   5.059   2.710 -0.2061  0.5273  0.0186
 4015TIP3   OH212050   2.958   0.772   1.046  0.1843  0.0246  0.4124
 4015TIP3    H112051   3.033   0.712   1.043 -0.7334 -1.1821  0.9055
 4015TIP3    H212052   2.937   0.788   0.954  2.0532  1.7503  0.1954
 4016TIP3   OH212053   3.500   3.419   1.537  0.2056  0.1037  0.1163
 4016TIP3    H112054   3.421   3.406   1.484 -1.6425  1.3687  2.3531
 4016TIP3    H212055   3.531   3.330   1.556 -2.4672 -0.6467  1.5613
 4017TIP3   OH212056   1.340   4.600   1.806 -0.2833 -0.9027  0.1001
 4017TIP3    H112057   1.431   4.625   1.792 -0.5751  0.4851  0.5326
 4017TIP3    H212058   1.345   4.518   1.854  0.7500 -0.4971  0.7236
 4018TIP3   OH212059   2.643   4.362   0.092  0.3535  0.6048  0.4730
 4018TIP3    H112060   2.689   4.435   0.051  0.1621 -0.2111 -1.2871
 4018TIP3    H212061   2.712   4.307   0.127  0.8630 -0.5937 -2.1213
 4019TIP3   OH212062   0.853   1.017   1.574  0.1703  0.3064  0.1187
 4019TIP3    H112063   0.942   1.049   1.557  0.0891 -0.6056 -2.4738
 4019TIP3    H212064   0.841   0.945   1.512 -1.8435 -0.6443  1.5113
 4020TIP3   OH212065   5.532   2.912   3.732 -0.2897  0.6258 -0.5229
 4020TIP3    H112066   5.590   2.980   3.767  2.0721 -2.1116  1.3855
 4020TIP3    H212067   5.444   2.945   3.747  0.6566  1.8803  3.5441
 4021TIP3   OH212068   2.970   1.006   3.574 -0.1749  0.3674 -0.0385
 4021TIP3    H112069   3.025   0.936   3.609  0.0270  0.8393  0.6314
 4021TIP3    H212070   2.881   0.974   3.581 -0.0232 -0.1791 -0.5891
 4022TIP3   OH212071   1.280   0.401   4.534 -0.2939  0.2184  0.3366
 4022TIP3    H112072   1.280   0.476   4.474  0.2004 -0.5887 -0.6971
 4022TIP3    H212073   1.189   0.392   4.561 -0.5560  0.4561 -0.4617
 4023TIP3   OH212074   2.941   5.361   1.070  0.0857 -1.0389 -0.0452
 4023TIP3    H112075   2.896   5.446   1.069  1.0832 -0.4593  1.3963
 4023TIP3    H212076   3.030   5.381   1.098  0.2032 -2.6288  0.8434
 4024TIP3   OH212077   0.891   5.121   5.057  0.2185 -0.0002 -0.0449
 4024TIP3    H112078   0.976   5.164   5.048  1.5526 -2.0525  1.7305
 4024TIP3    H212079   0.843   5.144   4.977  2.5895  0.8756 -1.2955
 4025TIP3   OH212080   4.702   0.356   4.130 -0.1547  0.0843 -0.4681
 4025TIP3    H112081   4.767   0.427   4.126 -0.3245  0.2683  0.0605
 4025TIP3    H212082   4.732   0.299   4.200 -1.2744  0.8847  0.7075
 4026TIP3   OH212083   2.227   3.181   1.232 -0.0329 -0.1944  0.5160
 4026TIP3    H112084   2.295   3.236   1.193 -1.2239  0.5416 -0.6342
 4026TIP3    H212085   2.149   3.238   1.233 -0.9757 -1.4515  0.4885
 4027TIP3   OH212086   4.014   5.238   3.264  0.0772 -0.3859 -0.0181
 4027TIP3    H112087   3.971   5.314   3.225 -0.0669 -1.4428 -2.0007
 4027TIP3    H212088   4.107   5.254   3.252  0.0369 -0.6488 -0.7182
 4028TIP3   OH212089   0.790   3.582   1.117  0.5654 -0.2780 -0.2937
 4028TIP3    H112090   0.701   3.617   1.115  0.8868  0.5517 -0.3750
 4028TIP3    H212091   0.813   3.579   1.210  0.0617 -1.5384 -0.1896
 4029TIP3   OH212092   0.156   4.938   0.947 -0.2077  0.2247 -0.3395
 4029TIP3    H112093   0.149   5.003   1.017  0.1738  1.2495 -1.2330
 4029TIP3    H212094   0.113   4.979   0.872  0.0092 -0.5765 -0.9168
 4030TIP3   OH212095   5.497   5.875   2.121  0.4925 -0.1925 -0.3188
 4030TIP3    H112096   5.504   5.912   2.033  1.6983 -1.0770 -0.6108
 4030TIP3    H212097   5.529   5.785   2.112 -0.8722 -0.8158  0.7047
 4031TIP3   OH212098   4.631   4.084   4.534 -0.3622  0.3708  0.0397
 4031TIP3    H112099   4.553   4.090   4.479  0.3415  0.4881 -0.9778
 4031TIP3    H212100   4.597   4.081   4.624 -1.6020 -0.9725 -0.4250
 4032TIP3   OH212101   1.031   0.719   0.941  0.3122  0.6079  0.5115
 4032TIP3    H112102   0.954   0.742   0.889  1.3293  1.4491 -0.6753
 4032TIP3    H212103   0.996   0.667   1.013 -1.1035 -1.5145 -1.5290
 4033TIP3   OH212104   5.012   4.663   0.708  0.1868  0.3548 -0.0030
 4033TIP3    H112105   5.036   4.725   0.777 -0.8469  0.9794 -0.1911
 4033TIP3    H212106   4.952   4.712   0.652 -1.6765 -1.1907  0.5501
 4034TIP3   OH212107   6.120   5.727   2.097 -0.3477 -0.1091  0.2473
 4034TIP3    H112108   6.047   5.731   2.034  0.5029 -0.2933 -0.7745
 4034TIP3    H212109   6.115   5.639   2.134  0.2473 -0.6509 -0.9254
 4035TIP3   OH212110   5.993   4.730   2.425 -0.1234 -0.4183 -0.5491
 4035TIP3    H112111   6.024   4.647   2.389 -0.3488 -0.0048 -1.7594
 4035TIP3    H212112   5.927   4.760   2.362  0.7258  1.2066 -0.7136
 4036TIP3   OH212113   4.581   1.923   3.930  0.7800 -0.4063  0.0609
 4036TIP3    H112114   4.670   1.950   3.956 -0.5580  2.5297  2.1733
 4036TIP3    H212115   4.524   1.985   3.975 -2.3109 -1.0017 -2.7462
 4037TIP3   OH212116   6.269   1.725   2.899  0.2048  0.7932  0.2496
 4037TIP3    H112117   6.223   1.651   2.859 -1.1317  1.7185 -0.0266
 4037TIP3    H212118   6.328   1.757   2.830 -0.7313  1.2336 -0.3680
 4038TIP3   OH212119   0.354   1.277   2.629 -0.0379 -0.1947 -0.0196
 4038TIP3    H112120   0.402   1.245   2.552 -0.5066  0.9186 -0.8050
 4038TIP3    H212121   0.335   1.369   2.609 -0.7399 -0.0667  1.1500
 4039TIP3   OH212122   5.945   2.010   2.746  0.0182  0.4320  0.8219
 4039TIP3    H112123   6.004   1.945   2.706 -1.4426 -0.6431  0.3436
 4039TIP3    H212124   5.878   1.957   2.790 -1.3964  1.6075  0.1564
 4040TIP3   OH212125   0.651   0.804   1.514 -0.2462  0.1831  0.8294
 4040TIP3    H112126   0.651   0.899   1.524 -0.8599  0.1355  1.3457
 4040TIP3    H212127   0.729   0.786   1.462 -1.1274  1.1252 -0.9344
 4041TIP3   OH212128   0.775   2.192   0.845 -0.0522 -0.1379  0.1188
 4041TIP3    H112129   0.797   2.190   0.938  4.4800 -0.7816 -0.7450
 4041TIP3    H212130   0.761   2.101   0.821  2.8705 -0.5329 -0.4600
 4042TIP3   OH212131   4.892   0.326   5.133 -0.6158 -0.5607 -0.2266
 4042TIP3    H112132   4.934   0.241   5.128  0.2454 -0.1854  0.3799
 4042TIP3    H212133   4.885   0.355   5.042  2.3700  0.2668 -0.3099
 4043TIP3   OH212134   1.364   2.404   3.122 -0.4799 -0.1694 -0.1289
 4043TIP3    H112135   1.311   2.329   3.096 -0.2994 -0.4409  0.2790
 4043TIP3    H212136   1.443   2.397   3.068 -0.4177 -0.3327 -0.0179
 4044TIP3   OH212137   5.674   3.064   2.879 -0.5671 -0.3150 -0.5409
 4044TIP3    H112138   5.693   3.013   2.958 -0.2856  0.5019 -0.0726
 4044TIP3    H212139   5.598   3.020   2.840 -0.6519 -0.7794  0.1362
 4045TIP3   OH212140   5.961   2.672   2.328 -0.3832 -0.4359 -0.1224
 4045TIP3    H112141   5.975   2.766   2.310  1.1835 -0.4939  0.6099
 4045TIP3    H212142   5.910   2.670   2.409 -1.2227 -0.2182 -0.6398
 4046TIP3   OH212143   4.613   5.237   3.293  0.5974 -0.1572  0.1327
 4046TIP3    H112144   4.588   5.207   3.381  0.4460  0.8638  0.4477
 4046TIP3    H212145   4.669   5.313   3.308  0.4593  0.1140 -0.6606
 4047TIP3   OH212146   1.870   2.723   0.397 -0.5147 -0.9277 -0.2484
 4047TIP3    H112147   1.838   2.781   0.466  0.7069 -0.3622 -0.1171
 4047TIP3    H212148   1.806   2.731   0.327 -0.5400  0.3510 -0.0987
 4048TIP3   OH212149   6.248   3.657   5.054 -0.2043 -0.5170  0.4246
 4048TIP3    H112150   6.248   3.677   5.148  0.9617 -2.3515  0.8648
 4048TIP3    H212151   6.157   3.672   5.026 -0.4842  0.4140  1.7515
 4049TIP3   OH212152   4.038   4.946   4.655 -0.0165 -0.3063 -0.3701
 4049TIP3    H112153   4.127   4.913   4.646 -1.0801 -4.6340  2.0657
 4049TIP3    H212154   3.996   4.925   4.572  1.2948  2.9648 -2.0694
 4050TIP3   OH212155   4.097   5.862   0.961  0.4177  0.0583  0.2856
 4050TIP3    H112156   4.177   5.815   0.934  1.8716  1.5304  1.7706
 4050TIP3    H212157   4.065   5.812   1.036  0.4128 -0.0948  0.1813
 4051TIP3   OH212158   1.826   4.286   0.870  0.8085 -0.5077 -0.1554
 4051TIP3    H112159   1.870   4.326   0.945 -1.3004  1.7173  0.0379
 4051TIP3    H212160   1.758   4.231   0.908 -0.6103  1.0383 -0.3450
 4052TIP3   OH212161   3.921   0.919   2.268 -0.0667  0.2484  0.0981
 4052TIP3    H112162   3.863   0.865   2.214 -0.6851 -0.7409  1.6897
 4052TIP3    H212163   3.881   1.006   2.265  0.1688  0.3288 -1.3763
 4053TIP3   OH212164   6.101   2.185   4.069  0.2817  0.2048 -0.1563
 4053TIP3    H112165   6.034   2.174   4.001 -0.3715  0.2396  0.4762
 4053TIP3    H212166   6.159   2.110   4.058  0.3987  0.4103 -0.9972
 4054TIP3   OH212167   3.795   5.693   0.730 -0.1221  0.1905  0.0815
 4054TIP3    H112168   3.713   5.715   0.687  1.4507  0.4577 -3.1017
 4054TIP3    H212169   3.824   5.774   0.771 -1.8906 -0.1854  2.2749
 4055TIP3   OH212170   5.778   1.744   1.256 -0.0914 -0.0417 -0.3958
 4055TIP3    H112171   5.738   1.807   1.197  0.7187  0.8729  0.0004
 4055TIP3    H212172   5.784   1.663   1.205  0.1026  0.5844 -1.3883
 4056TIP3   OH212173   0.325   5.728   2.371  0.3348 -0.6635  0.1035
 4056TIP3    H112174   0.392   5.797   2.372  1.4874 -1.7322 -0.6106
 4056TIP3    H212175   0.262   5.757   2.306  0.0222  0.4035  0.8502
 4057TIP3   OH212176   5.100   2.502   0.500 -0.5248  0.4785 -0.2089
 4057TIP3    H112177   5.057   2.587   0.510 -2.1490 -0.3497  0.0682
 4057TIP3    H212178   5.033   2.444   0.464  0.1903 -0.9858  0.6974
 4058TIP3   OH212179   2.212   2.975   0.268  0.0833 -0.4423  0.8830
 4058TIP3    H112180   2.236   2.904   0.209  0.4102  1.3881 -1.3658
 4058TIP3    H212181   2.121   2.995   0.246  0.3856  0.6395  0.5329
 4059TIP3   OH212182   3.795   2.397   4.869  0.3446 -1.0017  0.7747
 4059TIP3    H112183   3.778   2.304   4.860 -0.5126 -0.8354  0.5364
 4059TIP3    H212184   3.711   2.439   4.847  1.0178 -0.1356 -0.2437
 4060TIP3   OH212185   1.045   3.771   3.510  0.4048  0.1868  0.0430
 4060TIP3    H112186   1.136   3.757   3.538  0.2284 -1.5928 -0.1511
 4060TIP3    H212187   1.035   3.715   3.433 -0.7546  0.6939 -0.1942
 4061TIP3   OH212188   1.264   4.590   0.674 -0.3942 -0.3900  0.1053
 4061TIP3    H112189   1.201   4.613   0.606 -0.1243 -0.1575 -0.0681
 4061TIP3    H212190   1.325   4.530   0.631  1.0907  1.4693 -0.5230
 4062TIP3   OH212191   5.312   3.952   1.867 -0.1555 -0.2942 -0.1326
 4062TIP3    H112192   5.336   3.938   1.775  1.9030 -0.3784  0.3775
 4062TIP3    H212193   5.381   3.908   1.917 -0.6661  0.6305  1.4589
 4063TIP3   OH212194   0.565   5.581   2.028 -0.0956  0.2142 -0.1728
 4063TIP3    H112195   0.512   5.549   2.101 -2.9352  1.9641 -1.3149
 4063TIP3    H212196   0.601   5.664   2.058 -0.7234  0.6139 -0.5089
 4064TIP3   OH212197   3.626   2.187   1.996 -0.2725 -0.8497 -0.4535
 4064TIP3    H112198   3.693   2.120   1.978  1.4830  0.9352 -0.8936
 4064TIP3    H212199   3.635   2.250   1.925 -0.3053  1.0184  1.1095
 4065TIP3   OH212200   0.407   4.453   3.044  0.0662  0.2499  0.1656
 4065TIP3    H112201   0.388   4.539   3.005  1.7744  0.9069  0.6915
 4065TIP3    H212202   0.355   4.450   3.124  0.5428  1.1146  0.5162
 4066TIP3   OH212203   1.460   3.877   2.384  0.1858 -0.1696  0.1963
 4066TIP3    H112204   1.381   3.885   2.330  0.8499  1.8205 -0.5680
 4066TIP3    H212205   1.517   3.819   2.333  0.6567  1.3848 -1.1335
 4067TIP3   OH212206   4.911   0.462   1.982  0.3907 -0.2515  0.3443
 4067TIP3    H112207   4.882   0.372   1.966 -0.6445 -0.0368  0.8707
 4067TIP3    H212208   4.947   0.492   1.899  0.8589 -1.1930  0.2024
 4068TIP3   OH212209   4.104   3.975   0.139 -0.7910 -0.5135  0.0672
 4068TIP3    H112210   4.121   3.920   0.063 -1.1444  1.1362 -1.2687
 4068TIP3    H212211   4.170   3.949   0.203  3.3911  1.8434 -2.8186
 4069TIP3   OH212212   3.732   5.266   4.772 -0.0316  0.3757  0.0292
 4069TIP3    H112213   3.808   5.228   4.729 -1.3847 -1.3699 -0.9679
 4069TIP3    H212214   3.746   5.249   4.865  0.3939 -0.7469 -0.2242
 4070TIP3   OH212215   4.808   4.423   0.770 -0.3461  0.8996 -0.1355
 4070TIP3    H112216   4.869   4.474   0.717  0.3744 -0.6578 -0.8596
 4070TIP3    H212217   4.837   4.333   0.759 -2.5794  0.1403 -0.2381
 4071TIP3   OH212218   0.686   1.024   4.167  0.5650 -0.5313 -0.1156
 4071TIP3    H112219   0.678   0.955   4.101  0.9347 -1.1822  0.5167
 4071TIP3    H212220   0.703   1.103   4.116  2.6187 -1.3099 -0.7238
 4072TIP3   OH212221   4.623   4.886   2.631 -0.7461 -0.4864  0.0588
 4072TIP3    H112222   4.609   4.977   2.657  1.0095 -0.5735  1.5074
 4072TIP3    H212223   4.595   4.835   2.707  1.6530 -0.9208  0.7437
 4073TIP3   OH212224   3.928   1.547   0.896 -0.3208 -0.4058 -0.3926
 4073TIP3    H112225   3.968   1.515   0.977 -1.7141  0.1486  0.5453
 4073TIP3    H212226   3.972   1.498   0.827  0.2590 -1.5632  0.7559
 4074TIP3   OH212227   6.097   1.875   3.619 -0.1861 -0.6245 -0.0086
 4074TIP3    H112228   6.142   1.916   3.545  0.4791 -1.4064 -0.0553
 4074TIP3    H212229   6.162   1.815   3.655 -0.5297 -0.2978  1.1813
 4075TIP3   OH212230   5.251   1.113   4.936  0.4051 -0.1709 -0.4314
 4075TIP3    H112231   5.169   1.154   4.965 -0.3676 -0.8600 -1.5667
 4075TIP3    H212232   5.274   1.160   4.856  0.6914 -0.5128 -0.5510
 4076TIP3   OH212233   2.326   2.083   3.934  0.0015  0.5148 -0.4889
 4076TIP3    H112234   2.334   2.174   3.961 -2.2501  0.6200  0.0759
 4076TIP3    H212235   2.232   2.072   3.915  0.2097 -1.6850 -0.5393
 4077TIP3   OH212236   2.504   1.594   0.863 -0.1810 -0.3760 -0.4955
 4077TIP3    H112237   2.554   1.512   0.854 -0.0453 -0.6913  2.3624
 4077TIP3    H212238   2.452   1.582   0.942  0.0663  2.4140  0.1812
 4078TIP3   OH212239   1.599   3.371   3.256  0.5738  0.4756  0.0478
 4078TIP3    H112240   1.682   3.416   3.237  0.0898  1.2908 -0.1468
 4078TIP3    H212241   1.580   3.322   3.176  0.2200  1.3049 -0.3854
 4079TIP3   OH212242   2.696   0.845   2.992  0.5008  0.7088  0.0635
 4079TIP3    H112243   2.752   0.865   3.067 -0.0558 -0.1092  0.7074
 4079TIP3    H212244   2.607   0.869   3.021  0.1430 -0.5303  0.0362
 4080TIP3   OH212245   0.343   2.227   3.843  0.0397 -0.0563 -0.4457
 4080TIP3    H112246   0.271   2.273   3.888 -0.8608  0.8853 -2.7248
 4080TIP3    H212247   0.394   2.189   3.914 -1.4295  1.1564  1.3684
 4081TIP3   OH212248   1.882   3.219   4.746 -0.6299 -0.1580 -0.4890
 4081TIP3    H112249   1.861   3.153   4.813  0.4112  2.2168  2.4279
 4081TIP3    H212250   1.974   3.204   4.727 -0.7408 -0.3668 -0.8783
 4082TIP3   OH212251   1.118   5.611   2.382 -0.0131 -0.2903  0.5775
 4082TIP3    H112252   1.055   5.655   2.440  1.2284  0.7405  1.1877
 4082TIP3    H212253   1.123   5.668   2.305  0.9070  0.1663  0.9646
 4083TIP3   OH212254   2.500   0.380   4.485 -0.0527 -0.8259  0.4368
 4083TIP3    H112255   2.411   0.387   4.521 -0.0262 -1.0456  0.5465
 4083TIP3    H212256   2.520   0.468   4.452 -0.3305 -0.7886  0.3657
 4084TIP3   OH212257   2.058   1.390   4.827 -0.2026  0.1868  0.0115
 4084TIP3    H112258   2.108   1.402   4.908  0.2024  1.2635 -0.3813
 4084TIP3    H212259   1.999   1.465   4.825 -0.3531  0.0502 -0.5870
 4085TIP3   OH212260   0.006   5.955   0.340 -0.2804 -0.3476 -0.0302
 4085TIP3    H112261   0.026   6.044   0.312 -2.5161 -0.0428 -0.9179
 4085TIP3    H212262   0.004   5.903   0.260 -2.7935 -0.3172 -0.0885
 4086TIP3   OH212263   4.518   4.940   4.327 -0.9334 -0.4821  0.3482
 4086TIP3    H112264   4.453   4.900   4.269 -1.1825 -1.3945  1.2319
 4086TIP3    H212265   4.549   4.869   4.382  1.7034 -0.3223 -0.7878
 4087TIP3   OH212266   6.039   2.674   2.903  1.1802 -0.3774 -0.4852
 4087TIP3    H112267   6.127   2.707   2.920  1.1667 -1.0060  1.0132
 4087TIP3    H212268   5.984   2.718   2.968  0.4847 -0.4144 -1.0349
 4088TIP3   OH212269   5.777   3.811   2.584  0.5080 -0.1995 -0.5126
 4088TIP3    H112270   5.824   3.796   2.666 -1.9925  0.7400  1.2280
 4088TIP3    H212271   5.744   3.724   2.560  1.3680 -0.5072 -0.5898
 4089TIP3   OH212272   1.216   1.470   1.145 -0.8572 -0.1994 -0.1510
 4089TIP3    H112273   1.205   1.541   1.208  0.9183 -0.1648  0.1915
 4089TIP3    H212274   1.297   1.426   1.173 -0.1345 -0.3310 -2.2451
 4090TIP3   OH212275   4.316   0.841   5.178  0.6589 -0.0168 -0.0494
 4090TIP3    H112276   4.226   0.811   5.189 -0.1980  1.8575 -1.3426
 4090TIP3    H212277   4.329   0.844   5.084  2.6496 -1.6656  0.0969
 4091TIP3   OH212278   3.012   3.199   3.749  0.0873 -0.1275 -0.2603
 4091TIP3    H112279   2.991   3.109   3.777 -0.8146  0.6000  1.6210
 4091TIP3    H212280   3.044   3.190   3.660  0.6524 -2.3997  0.1079
 4092TIP3   OH212281   1.104   3.876   3.965  0.1443  0.1562 -0.0679
 4092TIP3    H112282   1.161   3.948   3.990  1.2303 -0.8919  0.5779
 4092TIP3    H212283   1.018   3.900   4.000  0.7438  0.5944  1.1651
 4093TIP3   OH212284   2.618   4.870   1.279  0.1746 -0.1786  0.1257
 4093TIP3    H112285   2.570   4.950   1.303  1.2845  0.7657 -0.6378
 4093TIP3    H212286   2.567   4.830   1.210 -0.5496 -0.3009  0.7228
 4094TIP3   OH212287   5.992   1.300   0.997  0.5450  0.3307  0.2781
 4094TIP3    H112288   5.976   1.321   1.089 -0.3048 -0.9794  0.4416
 4094TIP3    H212289   6.007   1.206   0.996  0.9004  0.3854 -0.8934
 4095TIP3   OH212290   3.406   5.443   3.545 -0.1102  0.0574  0.1437
 4095TIP3    H112291   3.476   5.397   3.500 -1.2993 -0.1541 -1.5650
 4095TIP3    H212292   3.434   5.535   3.545  0.4321 -0.1031  0.0354
 4096TIP3   OH212293   1.144   2.398   0.112 -0.6675 -0.0848 -0.0999
 4096TIP3    H112294   1.172   2.315   0.075 -0.4020  0.0981 -0.3143
 4096TIP3    H212295   1.217   2.426   0.168  1.1709  2.0295 -3.2281
 4097TIP3   OH212296   0.561   2.158   1.395 -0.3673  0.3007 -0.1105
 4097TIP3    H112297   0.491   2.128   1.453  0.7471 -0.3352  0.9583
 4097TIP3    H212298   0.577   2.084   1.337 -1.3113  0.8476 -1.1006
 4098TIP3   OH212299   5.462   0.749   0.749  0.4128 -0.7356  0.2524
 4098TIP3    H112300   5.418   0.724   0.830 -0.0030  2.4421  1.1499
 4098TIP3    H212301   5.554   0.726   0.764  0.5273  0.6585  2.1186
 4099TIP3   OH212302   1.090   3.512   0.823 -0.1484  0.0537 -0.7312
 4099TIP3    H112303   1.172   3.541   0.864  1.1282 -0.6695 -2.6014
 4099TIP3    H212304   1.085   3.419   0.844  1.8256 -0.9740 -3.9265
 4100TIP3   OH212305   0.181   1.161   0.107  0.0022 -0.5487 -0.6821
 4100TIP3    H112306   0.212   1.192   0.022 -2.7765 -0.5766 -1.8248
 4100TIP3    H212307   0.106   1.217   0.128  0.4059 -0.7524  1.6267
 4101TIP3   OH212308   2.952   1.948   3.651  0.1161 -0.4131 -0.0066
 4101TIP3    H112309   3.014   2.018   3.631  0.9355 -1.4635 -1.3509
 4101TIP3    H212310   2.974   1.879   3.589 -3.1625 -0.4104 -1.3794
 4102TIP3   OH212311   3.167   2.874   2.865 -0.2291 -0.3322 -0.4456
 4102TIP3    H112312   3.169   2.910   2.954 -0.7727  1.2717 -1.0655
 4102TIP3    H212313   3.241   2.813   2.863  2.5702  2.8006 -0.1839
 4103TIP3   OH212314   3.158   4.415   1.431 -0.2151  0.1138 -0.7503
 4103TIP3    H112315   3.078   4.460   1.458 -0.6705 -0.4523 -1.1531
 4103TIP3    H212316   3.130   4.356   1.361  0.4459 -0.5285 -0.4826
 4104TIP3   OH212317   4.483   4.569   2.612 -0.3621  0.4773 -0.2455
 4104TIP3    H112318   4.423   4.639   2.589 -0.5375  0.7735  1.0539
 4104TIP3    H212319   4.493   4.519   2.531  0.6181  2.5942 -1.5112
 4105TIP3   OH212320   4.735   3.520   4.033  0.0523 -0.2909  0.0779
 4105TIP3    H112321   4.664   3.499   4.093 -1.3294 -0.8258 -1.6531
 4105TIP3    H212322   4.705   3.599   3.987  0.2169 -0.9181 -1.1640
 4106TIP3   OH212323   2.292   3.241   2.263  0.8891  0.2620 -0.4774
 4106TIP3    H112324   2.251   3.262   2.179  0.9245 -0.1489 -0.5996
 4106TIP3    H212325   2.386   3.250   2.247  0.8630  1.1087 -0.2227
 4107TIP3   OH212326   2.718   1.540   0.143  0.0367  0.5324  0.2504
 4107TIP3    H112327   2.692   1.570   0.056 -2.0666  3.3323  1.6675
 4107TIP3    H212328   2.637   1.510   0.183  1.2845 -2.5614  0.6872
 4108TIP3   OH212329   0.006   3.278   2.456  0.0478  0.7391 -0.1943
 4108TIP3    H112330  -0.011   3.211   2.522 -0.3679  1.1055  0.0868
 4108TIP3    H212331   0.094   3.260   2.424 -0.0855  0.0255 -0.1714
 4109TIP3   OH212332   1.184   2.435   1.090 -0.0811 -0.3271  0.0761
 4109TIP3    H112333   1.158   2.524   1.068 -0.6191 -0.4187  0.3319
 4109TIP3    H212334   1.104   2.393   1.122  0.5544 -0.2943  1.8693
 4110TIP3   OH212335   2.609   2.815   4.160 -0.4969  0.3811 -0.0870
 4110TIP3    H112336   2.639   2.741   4.108  0.8505  0.4893  0.4992
 4110TIP3    H212337   2.627   2.790   4.251 -0.3345  1.2715  0.1373
 4111TIP3   OH212338   3.658   1.892   5.088  0.3754 -0.5185 -0.2864
 4111TIP3    H112339   3.626   1.859   5.172 -0.2357  0.1924 -0.2301
 4111TIP3    H212340   3.707   1.819   5.051 -2.3571 -2.1484 -0.9747
 4112TIP3   OH212341   1.851   3.330   5.061  0.4008 -1.0744  0.7336
 4112TIP3    H112342   1.856   3.378   4.978 -0.6755  0.3615  1.4606
 4112TIP3    H212343   1.762   3.348   5.093  1.0828 -0.8961  2.6180
 4113TIP3   OH212344   2.547   0.417   3.053  0.4165  0.4278  0.2837
 4113TIP3    H112345   2.574   0.417   3.145  0.8491  4.9623  0.3451
 4113TIP3    H212346   2.452   0.428   3.055  0.5652  1.8163  0.2365
 4114TIP3   OH212347   4.501   0.244   4.794 -0.4956 -0.2366  0.2477
 4114TIP3    H112348   4.501   0.338   4.775  1.5548 -0.3897 -0.7155
 4114TIP3    H212349   4.417   0.229   4.839 -0.5973  2.1480  1.0011
 4115TIP3   OH212350   1.056   3.065   0.285 -0.4326 -0.2130 -0.2973
 4115TIP3    H112351   1.024   3.017   0.361  1.6310  0.1937  0.9136
 4115TIP3    H212352   1.012   3.150   0.289  1.3704  0.7264  1.9202
 4116TIP3   OH212353   5.884   1.569   2.974 -0.1367  0.4837 -0.3723
 4116TIP3    H112354   5.958   1.540   3.027  0.3888 -0.4241 -1.5348
 4116TIP3    H212355   5.922   1.587   2.888 -1.0707  1.2511 -0.6413
 4117TIP3   OH212356   2.940   0.997   1.191  0.1903  0.4962  0.6286
 4117TIP3    H112357   2.952   0.913   1.146  1.0201 -0.2475  2.1536
 4117TIP3    H212358   2.977   1.062   1.131  0.6626 -0.3699 -0.0413
 4118TIP3   OH212359   5.362   3.115   3.866  0.4986  0.1525 -0.1835
 4118TIP3    H112360   5.434   3.150   3.919 -0.3546  0.6234  0.7020
 4118TIP3    H212361   5.310   3.063   3.928 -0.1875  0.2125 -0.6987
 4119TIP3   OH212362   1.595   4.850   3.595 -0.1824  0.6393  0.1849
 4119TIP3    H112363   1.571   4.777   3.537  2.3499  0.5108 -0.8216
 4119TIP3    H212364   1.658   4.811   3.657 -0.9297  1.3725  1.4530
 4120TIP3   OH212365   3.828   3.000   1.660 -0.4376 -0.2189  0.1738
 4120TIP3    H112366   3.916   3.013   1.697 -0.7471 -0.0758  0.8833
 4120TIP3    H212367   3.779   2.957   1.730 -0.7813 -0.8156 -0.4238
 4121TIP3   OH212368   3.326   1.036   1.642 -0.4416 -0.1865  0.3142
 4121TIP3    H112369   3.391   1.079   1.586 -0.9090 -0.1504 -0.2141
 4121TIP3    H212370   3.358   1.051   1.731  0.0403  0.2138  0.0833
 4122TIP3   OH212371   4.645   5.413   3.067 -0.2762 -0.6683  0.0413
 4122TIP3    H112372   4.727   5.400   3.020  0.2198 -0.0920  0.7097
 4122TIP3    H212373   4.650   5.350   3.140  0.2927  0.3950  0.9599
 4123TIP3   OH212374   5.480   0.575   0.385 -0.1914  0.1477 -0.1691
 4123TIP3    H112375   5.396   0.532   0.402 -0.5611  0.5405 -0.9404
 4123TIP3    H212376   5.473   0.661   0.426 -0.1577  0.1736 -0.2167
 4124TIP3   OH212377   5.816   4.199   4.418 -0.1794 -0.5240 -0.3574
 4124TIP3    H112378   5.820   4.104   4.413 -0.2441 -0.5390 -0.1481
 4124TIP3    H212379   5.907   4.226   4.433 -0.3657 -0.6655  1.2558
 4125TIP3   OH212380   5.774   4.685   2.208  0.1289 -0.3176  0.4194
 4125TIP3    H112381   5.784   4.644   2.294  0.6145 -1.9195 -0.3537
 4125TIP3    H212382   5.863   4.686   2.171 -0.0973  0.2071 -0.1309
 4126TIP3   OH212383   1.107   1.778   2.303  0.0826  0.1675 -0.3879
 4126TIP3    H112384   1.089   1.700   2.250  0.1151 -1.3978  1.7501
 4126TIP3    H212385   1.034   1.783   2.364  1.1866  0.4478  0.9678
 4127TIP3   OH212386   0.238   0.292  -0.025  0.1724 -0.1673 -0.2182
 4127TIP3    H112387   0.272   0.204  -0.042 -0.0352 -0.2330 -0.2989
 4127TIP3    H212388   0.226   0.294   0.070 -0.6700 -0.5426 -0.3086
 4128TIP3   OH212389   5.342   4.648   0.514  0.5844 -0.6103  0.3681
 4128TIP3    H112390   5.249   4.624   0.516  0.4787 -0.1752  0.7434
 4128TIP3    H212391   5.381   4.598   0.585  0.5438 -0.4099  0.5318
 4129TIP3   OH212392   5.443   4.279   0.989  1.0278  0.4838 -0.2997
 4129TIP3    H112393   5.489   4.359   0.965 -0.7663  1.9110  0.7666
 4129TIP3    H212394   5.476   4.259   1.077 -0.8820  2.0432  0.8729
 4130TIP3   OH212395   6.129   0.729   5.032 -0.0734  0.2043  0.1972
 4130TIP3    H112396   6.134   0.686   4.946 -0.7690 -0.6657  0.5814
 4130TIP3    H212397   6.163   0.664   5.093 -1.5195  0.0262  0.8383
 4131TIP3   OH212398   1.629   5.136   2.541 -0.5200  0.3893  0.2530
 4131TIP3    H112399   1.564   5.161   2.475 -0.5294  1.1043  0.5187
 4131TIP3    H212400   1.577   5.113   2.619 -0.4626  2.6370  1.0411
 4132TIP3   OH212401   5.765   3.369   4.834  0.4413  0.0601 -0.1533
 4132TIP3    H112402   5.737   3.339   4.920 -1.1899  2.0768  0.0881
 4132TIP3    H212403   5.837   3.311   4.810  1.9991  0.4074  3.2309
 4133TIP3   OH212404   4.303   5.720   3.459  0.0391 -0.0961  0.0564
 4133TIP3    H112405   4.271   5.810   3.457 -0.6007 -0.3322 -1.0120
 4133TIP3    H212406   4.389   5.726   3.501  0.7157  1.2484 -1.4355
 4134TIP3   OH212407   4.746   5.069   1.465 -0.5179 -0.3307 -0.1338
 4134TIP3    H112408   4.662   5.107   1.443 -0.3327  1.1833  1.4984
 4134TIP3    H212409   4.799   5.143   1.496  1.5626 -1.1572 -1.4385
 4135TIP3   OH212410   4.766   2.528   2.567  0.0045  0.4516 -0.0767
 4135TIP3    H112411   4.849   2.526   2.519 -1.5723  2.8401 -3.2877
 4135TIP3    H212412   4.760   2.618   2.600 -2.2204  1.1041 -1.9797
 4136TIP3   OH212413   0.288   3.069   4.805  0.0972  0.2143 -0.1450
 4136TIP3    H112414   0.341   3.068   4.884 -0.1217 -1.8667  0.0349
 4136TIP3    H212415   0.258   3.160   4.796  1.8698  0.9467  0.9424
 4137TIP3   OH212416   1.146   2.269   4.400  0.0988  0.1087  0.1370
 4137TIP3    H112417   1.190   2.216   4.466  1.3437  0.6512 -0.2430
 4137TIP3    H212418   1.082   2.320   4.450 -0.1961 -0.7665  0.6776
 4138TIP3   OH212419   4.313   3.430   1.537 -0.2376 -0.2750  0.3389
 4138TIP3    H112420   4.396   3.384   1.547 -0.5471 -0.6781  1.1380
 4138TIP3    H212421   4.335   3.522   1.550  0.2727 -0.2430 -0.6219
 4139TIP3   OH212422   3.680   3.409   2.129  0.2528  0.1336 -0.0855
 4139TIP3    H112423   3.756   3.457   2.162 -0.6496  0.8019  1.0941
 4139TIP3    H212424   3.621   3.476   2.097  0.2617 -0.4016 -1.2945
 4140TIP3   OH212425   3.645   5.451   2.838  0.7446 -0.1895  0.0770
 4140TIP3    H112426   3.577   5.488   2.782 -0.4108 -1.5705  0.5158
 4140TIP3    H212427   3.602   5.437   2.923  1.7902 -0.3900  0.5973
 4141TIP3   OH212428   5.270   2.040   3.944 -0.1274  0.7732  0.3609
 4141TIP3    H112429   5.197   2.100   3.928  0.2995  1.0913 -0.4100
 4141TIP3    H212430   5.295   2.007   3.858 -1.8095 -2.2981  0.9043
 4142TIP3   OH212431   0.555   5.007   1.733  0.6085  0.6916 -0.1947
 4142TIP3    H112432   0.478   4.971   1.689  0.4012  0.8402  0.0441
 4142TIP3    H212433   0.622   4.940   1.721 -0.0899 -0.3268  1.2191
 4143TIP3   OH212434   1.980   0.444   2.656 -0.1103 -0.8705  0.5539
 4143TIP3    H112435   1.912   0.409   2.598  0.0567 -1.4687  0.7140
 4143TIP3    H212436   2.001   0.530   2.619 -1.5664 -0.2903  0.9924
 4144TIP3   OH212437   2.302   5.183   1.937 -0.2537 -0.6110  0.9899
 4144TIP3    H112438   2.295   5.093   1.905 -0.2379 -0.2241 -0.1595
 4144TIP3    H212439   2.305   5.236   1.857 -1.4612  0.5051  1.6484
 4145TIP3   OH212440   1.044   1.571   2.150 -0.1000  0.1348 -0.2509
 4145TIP3    H112441   1.095   1.492   2.171 -1.2125 -0.6039 -0.2389
 4145TIP3    H212442   0.980   1.541   2.084  0.3506  1.3544 -1.2823
 4146TIP3   OH212443   2.493   1.010   0.351  0.0062 -0.0930 -0.1112
 4146TIP3    H112444   2.500   1.037   0.443  0.1284  0.4893 -0.2878
 4146TIP3    H212445   2.413   1.052   0.320 -0.9174 -1.5979  0.1602
 4147TIP3   OH212446   5.805   3.705   5.103 -0.2314 -0.6144  0.0314
 4147TIP3    H112447   5.832   3.794   5.126  0.9006 -1.1719  0.9490
 4147TIP3    H212448   5.882   3.665   5.064 -0.9193 -1.0138 -0.9601
 4148TIP3   OH212449   0.414   2.412   4.946  0.3156  0.3655  0.0104
 4148TIP3    H112450   0.374   2.346   5.002 -0.2560 -0.4392 -1.2804
 4148TIP3    H212451   0.490   2.443   4.995  0.1603 -0.7016  0.9708
 4149TIP3   OH212452   3.050   4.657   1.565  0.6112 -0.5474  0.2025
 4149TIP3    H112453   2.994   4.711   1.621 -0.5994  0.6229 -1.9955
 4149TIP3    H212454   3.139   4.675   1.594  0.0290  0.1668  1.6074
 4150TIP3   OH212455   1.382   1.489   2.457 -0.4411 -0.1413 -0.2221
 4150TIP3    H112456   1.359   1.580   2.477  0.2753  0.3281 -1.4305
 4150TIP3    H212457   1.425   1.458   2.537 -0.2890  0.7312  0.0532
 4151TIP3   OH212458   5.106   0.972   4.691  0.2758  0.1670 -0.6748
 4151TIP3    H112459   5.132   0.895   4.741 -1.1925 -0.5042 -0.8872
 4151TIP3    H212460   5.084   1.038   4.757  0.1718 -0.0693 -0.4769
 4152TIP3   OH212461   5.555   5.247   0.994  0.1602  0.3892 -0.2673
 4152TIP3    H112462   5.560   5.298   0.913  0.9204 -0.1477 -0.5728
 4152TIP3    H212463   5.467   5.209   0.993  0.2407  0.2158 -0.9423
 4153TIP3   OH212464   0.552   1.629   4.541  0.0059 -0.0630 -0.3476
 4153TIP3    H112465   0.645   1.612   4.555 -0.7377 -1.7596  3.7823
 4153TIP3    H212466   0.524   1.676   4.620 -2.8749 -0.7218 -0.8695
 4154TIP3   OH212467   4.316   5.085   4.126 -0.0332  0.0379 -0.2331
 4154TIP3    H112468   4.326   4.990   4.130  0.8414  0.1141 -0.4340
 4154TIP3    H212469   4.256   5.106   4.197 -1.5801 -0.8325 -1.2197
 4155TIP3   OH212470   5.864   3.736   3.466  0.0551  0.1041 -0.1513
 4155TIP3    H112471   5.857   3.713   3.559  0.8678  1.3972  0.2542
 4155TIP3    H212472   5.894   3.655   3.424  0.1125 -0.3701  0.7705
 4156TIP3   OH212473   3.050   5.078   2.358 -0.2874 -0.3565  0.0145
 4156TIP3    H112474   3.105   5.000   2.364 -0.0196 -0.0884  1.4749
 4156TIP3    H212475   2.977   5.060   2.417  0.5909  1.1021  1.6190
 4157TIP3   OH212476   0.849   2.755   2.127 -0.3582 -0.4182  0.1369
 4157TIP3    H112477   0.883   2.729   2.213 -0.8292  0.7292  0.6969
 4157TIP3    H212478   0.816   2.844   2.140 -1.2668 -0.5573 -1.0206
 4158TIP3   OH212479   5.959   1.680   4.036 -0.0048  0.3319 -0.1050
 4158TIP3    H112480   5.970   1.737   4.113 -0.2036  1.4690 -0.8886
 4158TIP3    H212481   6.044   1.639   4.024  0.2489  0.7383  0.2722
 4159TIP3   OH212482   1.130   0.733   1.452  0.2296 -0.1100  0.2040
 4159TIP3    H112483   1.181   0.815   1.454 -0.3414  0.3112 -1.1848
 4159TIP3    H212484   1.135   0.700   1.541  0.9767  1.1381  0.6579
 4160TIP3   OH212485   5.701   5.006   1.704  0.7259 -0.0308  0.5200
 4160TIP3    H112486   5.768   4.952   1.747  1.9531  2.2550  1.6374
 4160TIP3    H212487   5.724   5.001   1.611  1.2546 -0.8073  0.6764
 4161TIP3   OH212488   6.138   1.482   3.696  0.5631 -0.5785  0.0347
 4161TIP3    H112489   6.093   1.419   3.639 -0.0194 -0.5739  0.4869
 4161TIP3    H212490   6.201   1.430   3.744  1.2972 -0.5333 -0.8471
 4162TIP3   OH212491   3.539   3.058   3.400  0.3941  0.2012 -0.2349
 4162TIP3    H112492   3.628   3.080   3.372  0.7515  2.1982  2.0972
 4162TIP3    H212493   3.482   3.109   3.342  0.8924  0.7508 -0.2501
 4163TIP3   OH212494   4.430   0.781   1.290  0.2093  0.2559  0.1220
 4163TIP3    H112495   4.455   0.689   1.300 -1.5825 -1.0568 -4.6617
 4163TIP3    H212496   4.512   0.827   1.273  0.8658 -1.2130 -0.9370
 4164TIP3   OH212497   6.151   4.942   4.487 -0.0322  0.2254  0.0805
 4164TIP3    H112498   6.110   5.026   4.467 -0.9319 -0.3350 -0.5137
 4164TIP3    H212499   6.133   4.929   4.581  0.5762  0.9377  0.2982
 4165TIP3   OH212500   5.917   2.889   2.741 -0.5987 -0.4284  0.1484
 4165TIP3    H112501   5.943   2.813   2.793  1.2308 -0.5117 -0.8023
 4165TIP3    H212502   5.946   2.964   2.792 -1.1117 -0.4153  0.4232
 4166TIP3   OH212503   6.085   0.182   0.508 -0.1453 -0.4716 -0.0907
 4166TIP3    H112504   5.995   0.154   0.527 -0.2847 -0.1203 -0.2327
 4166TIP3    H212505   6.138   0.133   0.571 -0.1720 -2.5914 -1.6280
 4167TIP3   OH212506   0.466   0.520   0.057  0.0771  0.0399 -0.6218
 4167TIP3    H112507   0.439   0.442   0.008  0.4338 -0.3012 -0.2809
 4167TIP3    H212508   0.521   0.569  -0.005 -0.9437  0.5302 -1.1774
 4168TIP3   OH212509   1.718   2.192   2.678 -0.3153  0.2368  0.0895
 4168TIP3    H112510   1.642   2.203   2.622 -0.5906 -1.2904  0.1254
 4168TIP3    H212511   1.689   2.133   2.747  0.5500  0.6178  0.8097
 4169TIP3   OH212512   3.190   2.912   3.426  0.5601 -0.0937  0.1654
 4169TIP3    H112513   3.238   2.918   3.343  0.5630  0.3357  0.1994
 4169TIP3    H212514   3.138   2.832   3.417 -1.9858  1.6241 -1.5944
 4170TIP3   OH212515   1.637   4.850   2.451 -0.0639  0.5733  0.4243
 4170TIP3    H112516   1.668   4.814   2.535  1.7257  2.8198  0.8286
 4170TIP3    H212517   1.651   4.945   2.459 -0.5412  0.9311 -2.1674
 4171TIP3   OH212518   2.654   3.365   3.343 -0.3175  0.0289 -0.1620
 4171TIP3    H112519   2.742   3.374   3.379 -0.1994  0.2795 -0.5006
 4171TIP3    H212520   2.665   3.307   3.267 -0.2579  0.8839 -0.8228
 4172TIP3   OH212521   2.763   3.547   1.769  0.5360 -0.6402  0.1709
 4172TIP3    H112522   2.790   3.483   1.835 -2.5462 -4.0101 -1.4584
 4172TIP3    H212523   2.774   3.501   1.686 -2.2466  0.7141 -1.0836
 4173TIP3   OH212524   3.791   2.947   4.156  0.1178  0.3186 -0.3382
 4173TIP3    H112525   3.750   3.019   4.203  1.4100  0.4539  0.6425
 4173TIP3    H212526   3.813   2.983   4.070 -2.3887  0.0307 -1.1839
 4174TIP3   OH212527   3.445   0.536   1.637 -0.1349 -0.6662 -0.1354
 4174TIP3    H112528   3.460   0.608   1.699  0.1265 -0.5940 -0.2827
 4174TIP3    H212529   3.422   0.462   1.693  2.3957 -1.2478  0.2682
 4175TIP3   OH212530   5.464   3.588   3.333  0.1211 -0.0531 -0.0822
 4175TIP3    H112531   5.540   3.647   3.334  0.8956 -1.0155  0.9039
 4175TIP3    H212532   5.408   3.619   3.404  0.4040 -0.3291  0.2671
 4176TIP3   OH212533   3.101   5.383   2.759 -0.3405  0.2422  0.0350
 4176TIP3    H112534   3.039   5.314   2.735 -1.9294  1.1024  1.3884
 4176TIP3    H212535   3.184   5.357   2.719 -1.0353 -2.0986 -0.0115
 4177TIP3   OH212536   1.341   0.737   0.040  0.2738  0.3480  0.0680
 4177TIP3    H112537   1.338   0.671  -0.030 -0.6110 -0.7031  1.0515
 4177TIP3    H212538   1.428   0.726   0.079  0.3434  0.1578 -0.1379
 4178TIP3   OH212539   1.767   4.320   3.590 -0.1323 -0.0163 -0.0473
 4178TIP3    H112540   1.702   4.278   3.534 -1.4101  2.1628 -0.2853
 4178TIP3    H212541   1.751   4.284   3.678 -0.0575 -1.2499 -0.5232
 4179TIP3   OH212542   5.970   1.519   2.107 -0.8446  0.1950 -0.2784
 4179TIP3    H112543   5.912   1.448   2.134  0.0886 -0.4189  0.1714
 4179TIP3    H212544   6.025   1.481   2.039 -1.2431  0.9006 -1.0161
 4180TIP3   OH212545   5.584   2.496   4.324 -0.4241 -0.1746  0.5563
 4180TIP3    H112546   5.636   2.538   4.392  0.6358 -0.8749  0.2134
 4180TIP3    H212547   5.630   2.516   4.243 -1.0432 -0.2904  0.1669
 4181TIP3   OH212548   3.180   0.732   1.861 -0.1094 -0.1367 -1.0606
 4181TIP3    H112549   3.178   0.740   1.765  1.5138 -0.0437 -1.1104
 4181TIP3    H212550   3.127   0.655   1.880 -0.8352  0.1153 -1.9943
 4182TIP3   OH212551   2.371   4.276   5.050 -0.6519  0.2351 -0.7210
 4182TIP3    H112552   2.330   4.245   4.969 -0.0321  0.4353 -1.1152
 4182TIP3    H212553   2.338   4.365   5.062 -0.8690  0.1477 -0.6619
 4183TIP3   OH212554   0.983   4.032   0.578  0.0624  0.5577 -0.5083
 4183TIP3    H112555   0.929   4.078   0.643  0.8731 -0.9337  1.3227
 4183TIP3    H212556   0.948   3.943   0.578  0.7518  0.2800 -1.3917
 4184TIP3   OH212557   6.308   3.762   4.231  0.3334 -0.4178 -0.2010
 4184TIP3    H112558   6.216   3.785   4.249  0.8195  0.6190  1.1375
 4184TIP3    H212559   6.354   3.846   4.231  1.4688 -1.0192  0.3416
 4185TIP3   OH212560   4.250   2.985   1.037  0.1962 -0.3385 -0.2423
 4185TIP3    H112561   4.290   2.977   1.123 -4.1352  0.1569  2.1164
 4185TIP3    H212562   4.207   2.901   1.022 -1.1836  0.4011 -0.6522
 4186TIP3   OH212563   4.539   4.916   4.965  0.0531  0.4813 -0.5815
 4186TIP3    H112564   4.591   4.997   4.968  1.0935 -0.1318 -1.4828
 4186TIP3    H212565   4.559   4.872   5.047 -0.2185  0.9570 -0.2566
 4187TIP3   OH212566   5.434   5.368   5.178  0.3747  0.5283  0.1943
 4187TIP3    H112567   5.500   5.345   5.112 -0.1989 -1.1180  0.1406
 4187TIP3    H212568   5.464   5.324   5.258 -0.7862 -0.5085  0.0900
 4188TIP3   OH212569   1.038   0.412   3.819  0.0754  0.7398  0.1663
 4188TIP3    H112570   1.127   0.419   3.782 -0.4067  1.6353 -0.9097
 4188TIP3    H212571   1.032   0.322   3.849  0.8958  0.2543 -1.0087
 4189TIP3   OH212572   0.743   0.400   1.769 -0.4597 -0.0407 -0.1641
 4189TIP3    H112573   0.657   0.431   1.743 -1.0978 -0.1591  1.6752
 4189TIP3    H212574   0.726   0.334   1.836  1.0655  0.4234  0.7426
 4190TIP3   OH212575   1.220   5.094   0.906 -0.7588  0.1770  0.2277
 4190TIP3    H112576   1.210   5.022   0.969 -1.2227  0.4271  0.4417
 4190TIP3    H212577   1.199   5.055   0.822  0.0507 -0.2087  0.1932
 4191TIP3   OH212578   2.536   4.292   3.257  0.3111 -0.8947  0.5704
 4191TIP3    H112579   2.524   4.319   3.348 -0.1775 -0.0596  0.2754
 4191TIP3    H212580   2.465   4.230   3.241 -1.6687  1.3945 -0.1476
 4192TIP3   OH212581   4.612   3.757   0.079  0.3971 -0.0257 -0.5689
 4192TIP3    H112582   4.687   3.704   0.054  0.7321  0.5043 -0.6896
 4192TIP3    H212583   4.622   3.769   0.173  0.0265 -0.6312 -0.4482
 4193TIP3   OH212584   3.566   3.105   0.054  0.2193  0.2664  0.4019
 4193TIP3    H112585   3.503   3.066   0.114  0.9180  0.3408  1.2108
 4193TIP3    H212586   3.652   3.081   0.090  0.6594  0.0379 -0.7535
 4194TIP3   OH212587   5.713   3.550   2.530  0.0982 -0.6478 -0.2605
 4194TIP3    H112588   5.740   3.512   2.446  0.6230 -0.8051 -0.0218
 4194TIP3    H212589   5.659   3.483   2.571 -0.4961 -0.4139 -0.6474
 4195TIP3   OH212590   0.445   5.502   2.265 -0.0068  0.4911  0.3868
 4195TIP3    H112591   0.402   5.580   2.299 -0.0678  0.3643  0.5964
 4195TIP3    H212592   0.374   5.444   2.237  0.0195  0.2487  0.8067
 4196TIP3   OH212593   3.796   0.341   4.414 -0.0766 -0.2890  0.0014
 4196TIP3    H112594   3.740   0.278   4.369  1.5426 -0.6799 -1.5760
 4196TIP3    H212595   3.853   0.375   4.345 -0.2616  2.2204  0.9870
 4197TIP3   OH212596   5.186   4.411   1.041 -0.3082  0.0938 -0.2076
 4197TIP3    H112597   5.154   4.439   0.955  1.0790  2.2254 -0.1138
 4197TIP3    H212598   5.272   4.374   1.024 -0.8195 -1.2856  0.0801
 4198TIP3   OH212599   4.857   3.991   4.858 -0.0587 -0.0215  0.2763
 4198TIP3    H112600   4.764   4.013   4.868  0.1208  0.1458  1.7473
 4198TIP3    H212601   4.896   4.013   4.943  1.7998  2.2295 -1.0434
 4199TIP3   OH212602   5.464   1.657   1.335 -0.9133 -0.4024 -0.6115
 4199TIP3    H112603   5.380   1.681   1.294 -0.5195  1.5581 -0.3523
 4199TIP3    H212604   5.442   1.640   1.426 -1.3653 -2.1986 -1.0126
 4200TIP3   OH212605   2.351   2.542   1.756  0.2662 -0.2275  0.4468
 4200TIP3    H112606   2.391   2.502   1.678  0.1495  0.2949  0.1132
 4200TIP3    H212607   2.363   2.477   1.825  1.1716 -0.3235  0.2092
 4201TIP3   OH212608   1.289   2.683   2.570  0.7707  0.2884 -0.4556
 4201TIP3    H112609   1.361   2.688   2.506 -0.0406  1.3180 -1.3267
 4201TIP3    H212610   1.296   2.595   2.606  1.1827 -0.3862 -2.0701
 4202TIP3   OH212611   1.950   4.930   2.731 -0.0975 -0.3168 -0.3351
 4202TIP3    H112612   2.012   4.954   2.800  0.2339  0.7079 -0.9701
 4202TIP3    H212613   1.978   4.843   2.704  0.9741  0.0498 -0.4792
 4203TIP3   OH212614   2.649   5.262   3.377 -0.0679 -0.1365  0.1987
 4203TIP3    H112615   2.669   5.342   3.329  0.1798 -0.8951 -1.0206
 4203TIP3    H212616   2.609   5.204   3.312 -1.9516 -0.3675  1.4760
 4204TIP3   OH212617   3.816   2.624   3.001  0.4242 -0.3313 -0.2085
 4204TIP3    H112618   3.788   2.715   3.009  0.4027 -0.2946 -0.6537
 4204TIP3    H212619   3.778   2.580   3.077 -0.8257 -0.2691 -0.7605
 4205TIP3   OH212620   4.895   5.076   0.822  0.5954  0.1637 -0.1158
 4205TIP3    H112621   4.940   4.997   0.851  0.2898 -0.2271 -0.6920
 4205TIP3    H212622   4.805   5.049   0.807  0.5854  0.5228 -0.7345
 4206TIP3   OH212623   0.083   4.031   0.813 -0.0065 -0.1242  0.7233
 4206TIP3    H112624   0.041   4.037   0.727 -0.3692  0.2691  0.9275
 4206TIP3    H212625   0.019   4.068   0.874  0.6007  0.4195  1.0456
 4207TIP3   OH212626   2.177   1.376   4.573  0.5071  0.2812 -0.8171
 4207TIP3    H112627   2.184   1.470   4.556  0.2045  0.7939  1.6096
 4207TIP3    H212628   2.167   1.369   4.668 -0.4384 -2.1626 -1.0292
 4208TIP3   OH212629   0.405   1.317   1.726  0.2071  0.2201  0.0617
 4208TIP3    H112630   0.483   1.284   1.681  0.4251  0.6459  0.1110
 4208TIP3    H212631   0.332   1.298   1.667  0.3854  0.0533 -0.1048
 4209TIP3   OH212632   0.202   2.712   2.025  0.3226 -0.0864 -0.2182
 4209TIP3    H112633   0.161   2.646   1.970  0.5088 -1.8506  1.6597
 4209TIP3    H212634   0.130   2.750   2.075  0.1183  1.6884 -1.7418
 4210TIP3   OH212635   6.055   0.486   0.514 -1.0749  0.3145  0.1284
 4210TIP3    H112636   6.122   0.501   0.447 -0.9323 -0.8981 -0.0309
 4210TIP3    H212637   6.015   0.403   0.489 -3.0958  1.2991 -0.1363
 4211TIP3   OH212638   5.943   3.222   4.719  0.3610  0.0182 -0.4825
 4211TIP3    H112639   5.904   3.143   4.757 -1.5864  0.7099 -0.9461
 4211TIP3    H212640   6.020   3.239   4.773 -1.8260  0.5276  2.7132
 4212TIP3   OH212641   0.904   1.746   0.996  0.1631 -0.5691 -0.0281
 4212TIP3    H112642   0.949   1.692   0.930  0.6705 -0.5505  0.2988
 4212TIP3    H212643   0.969   1.761   1.064  1.1139  3.1645 -1.5501
 4213TIP3   OH212644   3.404   5.541   2.713 -0.3401 -0.0996 -0.1143
 4213TIP3    H112645   3.368   5.574   2.631 -1.2826  0.3756  0.4659
 4213TIP3    H212646   3.401   5.446   2.705 -1.2618 -0.0597 -0.2823
 4214TIP3   OH212647   5.917   4.435   3.966 -0.7664 -0.1662 -0.0531
 4214TIP3    H112648   5.833   4.457   4.006 -1.3776 -1.6281 -0.4516
 4214TIP3    H212649   5.907   4.343   3.939  1.1470 -0.5514  0.4039
 4215TIP3   OH212650   0.908   2.039   5.167  0.2155 -0.2867  0.1426
 4215TIP3    H112651   0.905   1.977   5.239 -1.9105 -0.7486 -0.2783
 4215TIP3    H212652   0.923   1.986   5.089 -3.9391 -0.7785 -0.5519
 4216TIP3   OH212653   3.886   4.510   0.892 -0.2728  0.0442 -0.1121
 4216TIP3    H112654   3.904   4.539   0.982 -0.4257 -0.9204  0.2376
 4216TIP3    H212655   3.954   4.447   0.873  0.3626  0.9912 -1.0657
 4217TIP3   OH212656   3.825   5.328   4.015 -0.0884  0.1421  0.1559
 4217TIP3    H112657   3.842   5.397   3.950 -1.0844 -0.8231 -1.1832
 4217TIP3    H212658   3.838   5.246   3.968 -2.3460 -0.6059  0.6771
 4218TIP3   OH212659   5.364   4.391   3.664  0.4554 -0.8639 -0.3907
 4218TIP3    H112660   5.427   4.461   3.678 -1.7752  1.3742 -0.9017
 4218TIP3    H212661   5.406   4.334   3.600  1.9592  0.5238 -0.7135
 4219TIP3   OH212662   0.165   0.654   4.795  0.0430  0.0682  0.0753
 4219TIP3    H112663   0.118   0.724   4.841  2.0213  1.7321 -0.2636
 4219TIP3    H212664   0.191   0.693   4.712  1.7818 -0.8187  0.1535
 4220TIP3   OH212665   2.173   1.795   4.389 -0.2412  0.4373 -0.0405
 4220TIP3    H112666   2.246   1.853   4.367 -0.3611  0.8838  0.6859
 4220TIP3    H212667   2.147   1.756   4.306 -0.6763  2.0412 -0.7023
 4221TIP3   OH212668   3.636   3.971   1.712  0.6516 -0.0006  0.0528
 4221TIP3    H112669   3.688   3.906   1.758  1.7944  0.1574 -0.9632
 4221TIP3    H212670   3.598   4.025   1.781  2.9578  0.7353  0.8180
 4222TIP3   OH212671   3.936   2.115   4.969 -0.0228 -0.2940 -0.0360
 4222TIP3    H112672   3.853   2.113   4.921 -0.2171 -1.8787  0.3220
 4222TIP3    H212673   4.002   2.091   4.904  0.0672  0.1731 -0.1245
 4223TIP3   OH212674   4.273   2.373   4.945 -0.4319 -0.0251 -0.3991
 4223TIP3    H112675   4.180   2.386   4.959 -0.1950  1.2809  0.1235
 4223TIP3    H212676   4.314   2.393   5.029  0.3784  0.2654 -0.8455
 4224TIP3   OH212677   5.824   0.610   3.555  0.3607  0.4351  0.2168
 4224TIP3    H112678   5.861   0.635   3.469  0.6431  0.6876  0.4065
 4224TIP3    H212679   5.736   0.647   3.555  1.3073  2.8997  1.1117
 4225TIP3   OH212680   2.229   5.948   4.223  0.0033  0.5571 -0.0332
 4225TIP3    H112681   2.257   6.036   4.250 -0.8711  0.8622 -0.0821
 4225TIP3    H212682   2.296   5.920   4.161 -0.3417  1.6982 -0.9499
 4226TIP3   OH212683   2.387   3.071   3.746  0.2251  0.4613 -0.1669
 4226TIP3    H112684   2.423   3.130   3.679 -0.3486 -0.8482 -1.6925
 4226TIP3    H212685   2.330   3.012   3.697  1.6453 -2.1153  1.0858
 4227TIP3   OH212686   3.715   2.341   2.763  0.0672  0.0403 -0.2829
 4227TIP3    H112687   3.744   2.328   2.673  1.3944 -0.3958  0.1763
 4227TIP3    H212688   3.750   2.266   2.811  1.9383  1.6921  1.1351
 4228TIP3   OH212689   5.670   4.030   1.834 -0.6212  0.4264 -0.4337
 4228TIP3    H112690   5.670   3.987   1.749  0.0121  1.4701 -0.9775
 4228TIP3    H212691   5.645   4.121   1.816  3.9625  1.9533 -0.2499
 4229TIP3   OH212692   3.040   0.535   1.590 -0.3901 -0.8599 -0.6665
 4229TIP3    H112693   3.076   0.619   1.563 -1.3254 -0.1303  0.3044
 4229TIP3    H212694   3.043   0.481   1.510 -0.3148  0.2671 -1.4469
 4230TIP3   OH212695   4.719   3.935   0.609 -0.3677 -0.3652 -0.3107
 4230TIP3    H112696   4.677   3.892   0.535 -1.8442 -0.3832  0.4979
 4230TIP3    H212697   4.647   3.976   0.656  0.8801  2.3630 -0.6098
 4231TIP3   OH212698   1.549   3.813   2.676  0.6276  0.3742 -0.4853
 4231TIP3    H112699   1.508   3.877   2.734 -0.6288 -0.2244 -0.6559
 4231TIP3    H212700   1.538   3.849   2.588 -1.7428 -0.8294 -0.7752
 4232TIP3   OH212701   0.676   3.549   5.055  0.1479  0.0570  0.0177
 4232TIP3    H112702   0.616   3.622   5.074 -1.0415 -0.8941 -0.0083
 4232TIP3    H212703   0.662   3.529   4.962  1.2600  0.4661 -0.2673
 4233TIP3   OH212704   0.516   1.338   0.854  0.1737 -0.1634  0.6505
 4233TIP3    H112705   0.608   1.318   0.874  0.9635  1.5598 -0.9380
 4233TIP3    H212706   0.496   1.415   0.907 -0.0679 -0.0156  0.3452
 4234TIP3   OH212707   4.060   4.244   1.626  0.1041  0.4007 -0.1835
 4234TIP3    H112708   4.071   4.203   1.541 -0.7515  1.6965 -0.9524
 4234TIP3    H212709   4.084   4.176   1.689 -0.9003 -1.1393 -1.3990
 4235TIP3   OH212710   0.026   0.825   3.193  0.5373 -0.3923  0.0367
 4235TIP3    H112711   0.064   0.751   3.146 -0.3695  0.4686 -2.2343
 4235TIP3    H212712   0.083   0.899   3.171 -1.1155  0.4830 -1.6927
 4236TIP3   OH212713   4.814   3.370   0.368 -0.2166  0.1780  0.4442
 4236TIP3    H112714   4.899   3.413   0.383  0.3810 -1.0738  0.8054
 4236TIP3    H212715   4.809   3.304   0.437 -2.4314  1.5509  1.7050
 4237TIP3   OH212716   1.385   3.847   0.687  0.4984 -0.0295  0.6534
 4237TIP3    H112717   1.402   3.754   0.702  0.0767  0.0850  1.9174
 4237TIP3    H212718   1.393   3.887   0.773 -2.3430  0.6405  0.7048
 4238TIP3   OH212719   2.379   3.542   1.286 -0.3457 -0.1455 -0.3127
 4238TIP3    H112720   2.436   3.470   1.261 -1.4091 -0.9189 -0.5683
 4238TIP3    H212721   2.423   3.582   1.361  0.1566 -1.1858 -0.0357
 4239TIP3   OH212722   1.796   3.468   0.755 -0.3377  0.1209  0.1919
 4239TIP3    H112723   1.811   3.521   0.833  0.4098 -1.2794  1.0384
 4239TIP3    H212724   1.825   3.380   0.780 -2.0832 -0.8378 -0.9601
 4240TIP3   OH212725   3.454   5.825   0.301  0.1202  0.0997  0.1384
 4240TIP3    H112726   3.546   5.812   0.279  0.3069  0.6760  0.5444
 4240TIP3    H212727   3.447   5.919   0.321 -0.7573  0.2695 -0.8580
 4241TIP3   OH212728   3.915   1.513   1.634  0.4277  0.3513  0.7935
 4241TIP3    H112729   3.971   1.585   1.608 -0.5033  0.4641 -1.0808
 4241TIP3    H212730   3.845   1.511   1.568 -0.2829 -1.4485  1.5090
 4242TIP3   OH212731   0.484   0.177   0.325 -0.0407  0.0187  0.3303
 4242TIP3    H112732   0.542   0.110   0.362  0.4130 -0.8350 -1.8007
 4242TIP3    H212733   0.542   0.234   0.275 -1.0166 -1.3396 -2.5605
 4243TIP3   OH212734   3.564   4.389   2.781 -0.1735 -0.1681 -0.3177
 4243TIP3    H112735   3.527   4.347   2.703  0.3740 -0.6326 -0.3337
 4243TIP3    H212736   3.545   4.327   2.852 -0.3653  0.0932 -0.1367
 4244TIP3   OH212737   2.982   2.544   3.904  0.3924  0.5053 -0.3313
 4244TIP3    H112738   3.004   2.476   3.967  0.7208  1.0283  0.1251
 4244TIP3    H212739   3.061   2.598   3.898 -0.1841  1.4098  0.0414
 4245TIP3   OH212740   4.109   0.056   4.053  0.4294  0.0697  0.3998
 4245TIP3    H112741   4.199   0.037   4.077  0.3358 -2.0141 -0.6875
 4245TIP3    H212742   4.069   0.089   4.134  1.5266 -1.3843  1.5790
 4246TIP3   OH212743   3.942   3.542   1.573 -0.1492  0.4285 -0.1068
 4246TIP3    H112744   3.916   3.583   1.490  0.2651  0.4723 -0.2209
 4246TIP3    H212745   3.860   3.518   1.615 -0.3939 -2.3944 -1.9290
 4247TIP3   OH212746   0.121   5.333   2.498 -0.3463  0.3258 -0.0993
 4247TIP3    H112747   0.133   5.262   2.561 -0.0003 -0.5377 -1.1120
 4247TIP3    H212748   0.135   5.413   2.549 -2.4820 -0.2177  1.4740
 4248TIP3   OH212749   5.987   4.040   0.969  0.4703 -0.8115  0.0662
 4248TIP3    H112750   5.970   4.107   1.035 -0.0700 -0.7455 -0.1359
 4248TIP3    H212751   5.903   3.996   0.957  0.1329  0.2106 -1.7273
 4249TIP3   OH212752   1.631   4.587   0.877 -0.5744  0.3275 -0.4659
 4249TIP3    H112753   1.623   4.575   0.783  1.2531 -1.0920 -0.4794
 4249TIP3    H212754   1.712   4.636   0.889  0.0439 -0.8465  0.4043
 4250TIP3   OH212755   4.221   4.545   2.824 -0.4182 -0.0350  0.2591
 4250TIP3    H112756   4.198   4.463   2.780 -0.4345  0.5639 -0.8812
 4250TIP3    H212757   4.308   4.567   2.790 -0.0499  0.0027  1.1924
 4251TIP3   OH212758   0.028   5.810   1.967  0.2087 -0.3722 -0.1605
 4251TIP3    H112759  -0.039   5.748   1.996  0.6991 -0.7679  0.1555
 4251TIP3    H212760   0.054   5.856   2.047 -0.4210  0.5137 -0.4588
 4252TIP3   OH212761   0.026   0.164   4.219  0.7325  0.1166  0.0332
 4252TIP3    H112762   0.086   0.226   4.177  0.5544  0.1498 -0.1758
 4252TIP3    H212763  -0.025   0.128   4.146  0.0672  0.5510  0.2757
 4253TIP3   OH212764   2.752   2.602   0.729  0.7890 -0.2785 -0.2290
 4253TIP3    H112765   2.708   2.684   0.709  0.5872  0.1318  1.6578
 4253TIP3    H212766   2.735   2.545   0.654  0.2883  1.1448 -1.2148
 4254TIP3   OH212767   3.879   1.931   3.156  0.5416  0.1979  0.2429
 4254TIP3    H112768   3.855   2.023   3.168  1.7840  0.5689  0.0792
 4254TIP3    H212769   3.917   1.905   3.240  1.0016  0.1057  0.0113
 4255TIP3   OH212770   3.437   0.799   1.997  0.6452  0.0593 -0.0140
 4255TIP3    H112771   3.364   0.758   1.951  0.3373  0.2228  0.3325
 4255TIP3    H212772   3.455   0.741   2.071  0.3409  0.4384  0.3617
 4256TIP3   OH212773   3.830   2.014   1.936 -0.1638 -0.0462  0.6091
 4256TIP3    H112774   3.886   1.937   1.952 -1.3547 -1.2544 -0.7763
 4256TIP3    H212775   3.886   2.089   1.954  1.7346 -1.2160 -0.1758
 4257TIP3   OH212776   4.040   1.733   3.004  0.4181  0.0923 -0.3656
 4257TIP3    H112777   3.991   1.804   3.046 -1.2057 -0.1515 -1.7302
 4257TIP3    H212778   4.012   1.654   3.051  0.7852  0.1356 -0.0704
 4258TIP3   OH212779   4.154   5.404   2.902  0.2732 -0.2251 -0.6519
 4258TIP3    H112780   4.141   5.310   2.912 -0.2829 -0.2185 -1.2541
 4258TIP3    H212781   4.248   5.413   2.887  0.7182 -0.4537  1.7244
 4259TIP3   OH212782   3.930   3.294   3.554 -0.1078  0.5085 -0.3398
 4259TIP3    H112783   3.966   3.302   3.642 -0.6430  0.5653 -0.1212
 4259TIP3    H212784   3.996   3.246   3.505  0.0194  0.1278  0.1941
 4260TIP3   OH212785   1.763   3.565   1.057  0.1788 -0.2587 -0.0094
 4260TIP3    H112786   1.714   3.507   1.115  0.6959 -0.9014 -0.1978
 4260TIP3    H212787   1.850   3.526   1.053  0.8792  1.1754  0.7677
 4261TIP3   OH212788   4.911   5.866   4.268 -0.0003  0.3096  0.2991
 4261TIP3    H112789   4.868   5.873   4.354 -1.9191  0.7092 -0.6414
 4261TIP3    H212790   4.997   5.830   4.288 -0.4393  0.2503  2.3805
 4262TIP3   OH212791   2.485   1.765   1.295  0.3503  0.8300  0.2648
 4262TIP3    H112792   2.402   1.726   1.266  0.1172  1.2464  0.3587
 4262TIP3    H212793   2.464   1.858   1.307  0.3890  0.6442  1.9596
 4263TIP3   OH212794   1.769   0.683   4.706 -0.5139  0.3715 -0.0233
 4263TIP3    H112795   1.819   0.649   4.780  0.6888  1.8091 -0.1482
 4263TIP3    H212796   1.678   0.662   4.728 -0.1868  0.7245  1.8514
 4264TIP3   OH212797   1.764   4.121   2.441 -0.4777  0.5013 -0.1686
 4264TIP3    H112798   1.784   4.211   2.416 -1.7564  1.1545  1.0002
 4264TIP3    H212799   1.767   4.072   2.359  1.0290  1.4349 -0.7041
 4265TIP3   OH212800   4.215   5.800   2.124 -0.0565  0.6772 -0.1834
 4265TIP3    H112801   4.202   5.886   2.084 -1.2019  0.8864  0.5981
 4265TIP3    H212802   4.128   5.760   2.122  0.5119 -0.5764 -0.7785
 4266TIP3   OH212803   4.589   0.121   3.354 -0.2895 -0.1652  0.3978
 4266TIP3    H112804   4.556   0.057   3.291 -0.4306  0.1071  0.1926
 4266TIP3    H212805   4.512   0.147   3.403 -0.6527  1.4238 -0.9275
 4267TIP3   OH212806   2.677   2.387   4.899  0.2253 -0.1299  0.7579
 4267TIP3    H112807   2.617   2.333   4.848  0.5686 -1.3981  1.6643
 4267TIP3    H212808   2.706   2.455   4.837  1.0170 -1.8943 -0.9137
 4268TIP3   OH212809   1.147   0.203   2.687 -0.0833 -0.2944 -0.3136
 4268TIP3    H112810   1.201   0.274   2.723 -0.2522 -0.2018 -0.2428
 4268TIP3    H212811   1.124   0.149   2.762 -1.3741  0.5203 -0.0876
 4269TIP3   OH212812   6.030   1.347   0.573  0.0636 -0.3269  0.1787
 4269TIP3    H112813   5.946   1.317   0.540 -0.6647  0.0582  1.6124
 4269TIP3    H212814   6.081   1.368   0.494 -1.4092  0.0893 -0.6925
 4270TIP3   OH212815   4.300   3.294   0.935 -0.2852  0.2528 -0.1139
 4270TIP3    H112816   4.258   3.335   1.011  0.1663  0.4051  0.0588
 4270TIP3    H212817   4.318   3.204   0.964 -0.5622  0.1627 -0.2170
 4271TIP3   OH212818   2.324   3.000   0.922  0.0380  0.1143  0.4144
 4271TIP3    H112819   2.283   2.923   0.882  0.6780  1.3191 -2.9262
 4271TIP3    H212820   2.409   2.969   0.952 -0.1170 -0.6988  0.0306
 4272TIP3   OH212821   0.983   2.071   4.059 -0.0617  0.0554  0.7906
 4272TIP3    H112822   1.067   2.108   4.033 -1.0810  1.9595 -0.0382
 4272TIP3    H212823   0.976   1.989   4.010 -0.2506  1.6999 -2.1447
 4273TIP3   OH212824   0.436   5.494   4.594 -0.1909  0.3596  0.2524
 4273TIP3    H112825   0.381   5.560   4.636  0.5199  0.3949  1.1549
 4273TIP3    H212826   0.514   5.489   4.649  0.5807  0.0957 -0.8398
 4274TIP3   OH212827   1.120   4.937   3.536 -0.6193  0.2828 -0.2155
 4274TIP3    H112828   1.198   4.881   3.542 -0.9397 -0.0448  1.5794
 4274TIP3    H212829   1.154   5.026   3.532 -0.0985  0.2349  1.8405
 4275TIP3   OH212830   3.629   3.935   1.347 -0.2445  0.0121 -0.2676
 4275TIP3    H112831   3.618   4.019   1.304 -1.8852  0.0235  0.1008
 4275TIP3    H212832   3.628   3.871   1.276 -0.0089  0.2356 -0.4723
 4276TIP3   OH212833   3.848   3.822   1.139 -0.2729  0.2470  0.0970
 4276TIP3    H112834   3.790   3.819   1.063  0.8370  0.9521 -0.8154
 4276TIP3    H212835   3.905   3.898   1.123  1.6218 -1.0292  0.3906
 4277TIP3   OH212836   2.284   3.529   2.391  0.2652 -0.4127  0.1850
 4277TIP3    H112837   2.279   3.596   2.322 -1.2377 -1.4907 -0.8367
 4277TIP3    H212838   2.356   3.557   2.447  0.7057  1.2016 -1.1029
 4278TIP3   OH212839   1.850   0.283   4.528  0.0727  0.2082 -0.3898
 4278TIP3    H112840   1.802   0.250   4.452 -0.7454  0.1901  0.1256
 4278TIP3    H212841   1.826   0.375   4.534  0.2514  0.2466 -0.2371
 4279TIP3   OH212842   5.161   1.908   0.701 -0.6986 -0.3116 -0.4883
 4279TIP3    H112843   5.248   1.923   0.663 -1.1873 -1.0467 -1.9466
 4279TIP3    H212844   5.178   1.856   0.779  0.4199  2.1167  1.0374
 4280TIP3   OH212845   0.831   4.854   2.397  0.0234 -0.4316 -0.1769
 4280TIP3    H112846   0.889   4.780   2.380  1.0596  0.4069 -0.4048
 4280TIP3    H212847   0.800   4.841   2.487  1.4742 -0.3169  0.3637
 4281TIP3   OH212848   3.000   5.426   3.993 -0.0782  0.0842  0.2442
 4281TIP3    H112849   2.947   5.361   4.040 -2.6107  1.0902 -0.9995
 4281TIP3    H212850   3.014   5.387   3.907 -0.3096  0.5574 -0.0100
 4282TIP3   OH212851   1.107   3.634   4.488  0.0288  0.0450  0.1192
 4282TIP3    H112852   1.025   3.680   4.472  0.5520  1.1087  0.3792
 4282TIP3    H212853   1.158   3.647   4.408 -0.3675 -1.3164 -0.3629
 4283TIP3   OH212854   6.069   5.148   3.065  0.7763 -0.3230  0.2764
 4283TIP3    H112855   6.113   5.101   2.994  2.9461  0.8403  0.7335
 4283TIP3    H212856   6.096   5.102   3.145  2.1595  1.0425  0.6502
 4284TIP3   OH212857   0.438   1.397   1.984 -0.0251 -0.2737 -0.4263
 4284TIP3    H112858   0.435   1.486   1.950 -1.2846 -0.7894 -1.7683
 4284TIP3    H212859   0.423   1.342   1.908 -0.0534 -1.6092  0.5130
 4285TIP3   OH212860   0.114   5.938   0.598 -0.1007  0.7421  0.3275
 4285TIP3    H112861   0.206   5.914   0.598 -0.4812 -0.8046 -0.0372
 4285TIP3    H212862   0.094   5.954   0.506 -0.0300  1.8775  0.4868
 4286TIP3   OH212863   4.815   4.795   2.189 -0.1507 -0.0070 -0.0245
 4286TIP3    H112864   4.892   4.758   2.232 -0.4533  0.5912  1.0707
 4286TIP3    H212865   4.748   4.726   2.194 -0.0105 -0.1424 -0.0347
 4287TIP3   OH212866   5.769   2.461   4.963 -0.2605 -0.3823  0.2845
 4287TIP3    H112867   5.755   2.483   5.055  0.3713  2.1174 -0.1602
 4287TIP3    H212868   5.853   2.414   4.962  0.1578  0.3319  0.9052
 4288TIP3   OH212869   2.894   5.677   2.484  0.0137  0.0525 -0.3774
 4288TIP3    H112870   2.806   5.699   2.455  0.4953  0.3957 -1.6687
 4288TIP3    H212871   2.923   5.608   2.424  0.4048 -0.4925  0.4162
 4289TIP3   OH212872   3.738   4.027   5.050 -0.4075 -0.2355 -1.0192
 4289TIP3    H112873   3.819   3.984   5.077  0.6186  0.9529 -2.0846
 4289TIP3    H212874   3.699   4.059   5.131  0.2145 -0.7717 -0.5010
 4290TIP3   OH212875   4.362   5.404   3.466  0.1381  0.5153 -0.5562
 4290TIP3    H112876   4.377   5.404   3.371  0.1015 -0.9077 -0.5831
 4290TIP3    H212877   4.424   5.340   3.500 -0.4321  0.4018  0.2841
 4291TIP3   OH212878   1.370   5.073   3.036 -0.4876  0.3454  0.3067
 4291TIP3    H112879   1.391   5.027   2.954 -1.1029  1.4927 -0.5166
 4291TIP3    H212880   1.314   5.145   3.010  2.1049  2.8989  1.2243
 4292TIP3   OH212881   4.822   5.817   1.946  0.2505 -0.3412  0.3093
 4292TIP3    H112882   4.911   5.817   1.982  1.0981  1.2389 -1.6389
 4292TIP3    H212883   4.827   5.762   1.868 -1.1171 -2.1756  1.4157
 4293TIP3   OH212884   4.310   1.370   3.739 -0.2824 -0.0369 -0.2554
 4293TIP3    H112885   4.317   1.447   3.683  0.6523  0.3785  0.4055
 4293TIP3    H212886   4.398   1.333   3.741 -0.8319 -1.4697 -1.0140
 4294TIP3   OH212887   0.663   3.387   1.401  0.1199 -0.6379 -0.2355
 4294TIP3    H112888   0.712   3.468   1.393 -1.0003 -0.0734 -1.8948
 4294TIP3    H212889   0.726   3.318   1.381  0.7757 -0.0934 -0.0500
 4295TIP3   OH212890   1.433   4.990   0.581  0.5892 -0.4694 -0.3303
 4295TIP3    H112891   1.343   5.003   0.611  0.5947 -0.0326 -0.5013
 4295TIP3    H212892   1.464   4.914   0.630  0.4720 -0.0039  0.4811
 4296TIP3   OH212893   4.893   0.688   1.436  0.5723 -1.0397  0.4188
 4296TIP3    H112894   4.951   0.734   1.376  0.0983 -1.4025 -0.3380
 4296TIP3    H212895   4.845   0.627   1.380 -1.0131 -0.2841  0.9011
 4297TIP3   OH212896   4.507   2.168   4.053 -0.0418  0.0442 -0.1230
 4297TIP3    H112897   4.537   2.249   4.012 -0.3802  0.4431  0.4092
 4297TIP3    H212898   4.417   2.158   4.024 -0.3705  0.4684  0.7165
 4298TIP3   OH212899   6.109   0.901   2.943  0.5339 -0.0397 -0.3311
 4298TIP3    H112900   6.129   0.837   2.875  0.5083 -0.5698  0.1519
 4298TIP3    H212901   6.141   0.984   2.908  1.7347 -0.5300 -0.4311
 4299TIP3   OH212902   0.445   5.180   0.375 -0.2498  0.0906 -0.0227
 4299TIP3    H112903   0.481   5.110   0.321  1.5735  0.8222  0.1758
 4299TIP3    H212904   0.461   5.151   0.465 -0.0150  0.4850  0.0657
 4300TIP3   OH212905   5.268   0.758   0.564 -0.5261 -0.2143 -0.0960
 4300TIP3    H112906   5.247   0.666   0.549 -0.5819 -0.4889  1.4651
 4300TIP3    H212907   5.341   0.756   0.626  0.6847  0.7946 -1.4247
 4301TIP3   OH212908   1.772   5.725   0.611  0.3967  0.5191  0.1396
 4301TIP3    H112909   1.689   5.677   0.621  0.3838  0.6691  0.7508
 4301TIP3    H212910   1.836   5.658   0.587  0.3339  0.2305  0.7751
 4302TIP3   OH212911   2.524   5.892   2.170  0.0586 -0.0753  0.4247
 4302TIP3    H112912   2.467   5.968   2.160 -1.0023 -0.9151 -0.2041
 4302TIP3    H212913   2.556   5.875   2.082  2.6382  1.3500  1.0105
 4303TIP3   OH212914   6.171   3.381   3.331 -0.0698 -0.0534 -0.2757
 4303TIP3    H112915   6.207   3.429   3.406 -2.3569  0.9684  0.2783
 4303TIP3    H212916   6.178   3.442   3.258  0.3828 -0.3070 -0.4468
 4304TIP3   OH212917   1.435   3.260   0.776  0.0511 -0.8674  0.0281
 4304TIP3    H112918   1.490   3.311   0.717 -0.3818  0.0490  0.4076
 4304TIP3    H212919   1.451   3.296   0.863 -0.8636 -0.8314  0.1946
 4305TIP3   OH212920   2.733   0.596   3.216  0.2448  0.2554  0.3035
 4305TIP3    H112921   2.675   0.609   3.290  0.9134  0.2370  0.8402
 4305TIP3    H212922   2.687   0.634   3.142 -0.1064  0.9522  0.8707
 4306TIP3   OH212923   5.922   3.596   0.909 -0.6914 -0.0365 -0.2704
 4306TIP3    H112924   5.827   3.596   0.919 -0.6112  0.0686  0.5979
 4306TIP3    H212925   5.952   3.526   0.967 -0.2746 -0.4692 -0.9977
 4307TIP3   OH212926   4.662   2.850   0.666 -0.2947 -0.1015  0.5518
 4307TIP3    H112927   4.608   2.912   0.715 -0.0138  0.9606 -0.4365
 4307TIP3    H212928   4.750   2.862   0.701  0.2948  2.0322 -1.3546
 4308TIP3   OH212929   5.472   4.117   0.373  0.0527  0.1211  0.1342
 4308TIP3    H112930   5.453   4.027   0.399 -2.0024 -0.1710 -2.0598
 4308TIP3    H212931   5.564   4.129   0.396  1.1214 -3.3609 -1.6241
 4309TIP3   OH212932   1.511   1.336   1.963 -0.3789  0.5328 -0.0765
 4309TIP3    H112933   1.574   1.265   1.975 -0.1336  0.7669  0.0424
 4309TIP3    H212934   1.530   1.396   2.035 -0.1507  1.0349 -0.5447
 4310TIP3   OH212935   1.655   4.155   4.374  0.7232 -0.0740  0.1577
 4310TIP3    H112936   1.591   4.083   4.372 -0.5247  1.0085 -2.1026
 4310TIP3    H212937   1.626   4.210   4.447 -1.0423  0.4294 -0.8649
 4311TIP3   OH212938   0.309   5.918   3.727 -0.1015  0.3522 -0.2331
 4311TIP3    H112939   0.401   5.941   3.741 -0.5424  1.2383  1.4465
 4311TIP3    H212940   0.260   5.975   3.787 -1.5918 -1.6432  0.5634
 4312TIP3   OH212941   3.742   4.803   0.545  0.2304 -0.0834  0.1921
 4312TIP3    H112942   3.667   4.772   0.494  0.1596  0.6195 -0.1536
 4312TIP3    H212943   3.788   4.724   0.572  0.2532 -0.4851 -0.9611
 4313TIP3   OH212944   3.287   5.812   3.344  0.8259 -0.6835 -0.1191
 4313TIP3    H112945   3.231   5.736   3.363  1.8377 -1.8238 -1.4993
 4313TIP3    H212946   3.231   5.888   3.361 -0.4505 -1.7369  0.5758
 4314TIP3   OH212947   0.849   4.598   3.373  0.1209 -1.1715  0.9317
 4314TIP3    H112948   0.777   4.609   3.311 -1.0327 -0.9509  2.2501
 4314TIP3    H212949   0.923   4.643   3.332 -1.3063  1.3249  0.8653
 4315TIP3   OH212950   1.208   1.012   1.387  0.2994  0.4878 -0.3310
 4315TIP3    H112951   1.206   1.108   1.389  0.2739  0.4733  0.6976
 4315TIP3    H212952   1.264   0.988   1.461 -0.5586 -0.3171  0.0726
 4316TIP3   OH212953   3.854   0.641   0.192  0.3609  0.3366 -0.3847
 4316TIP3    H112954   3.778   0.699   0.191 -0.4416 -0.5322  2.2239
 4316TIP3    H212955   3.929   0.700   0.196 -0.2241  1.1887 -1.2774
 4317TIP3   OH212956   3.231   4.160   1.485 -0.1075  0.3234 -0.2262
 4317TIP3    H112957   3.322   4.129   1.490 -0.2761 -0.3019 -0.8306
 4317TIP3    H212958   3.238   4.255   1.484  0.5594  0.2743 -0.5704
 4318TIP3   OH212959   2.085   0.249   2.155 -0.1811  0.1825  0.5184
 4318TIP3    H112960   2.085   0.272   2.248  1.3452  0.9631  0.3579
 4318TIP3    H212961   2.178   0.251   2.130 -0.5403 -0.3437 -0.9462
 4319TIP3   OH212962   5.949   0.335   4.688 -0.1588  0.0477 -0.3714
 4319TIP3    H112963   5.916   0.408   4.739 -0.4744  0.0406 -0.5628
 4319TIP3    H212964   5.886   0.264   4.704  0.7298 -0.5372  0.6926
 4320TIP3   OH212965   4.297   4.788   4.640  0.0414  0.3790 -0.0273
 4320TIP3    H112966   4.309   4.726   4.712 -0.7301 -0.1927 -0.3757
 4320TIP3    H212967   4.295   4.734   4.561  1.4591  1.0486 -0.5602
 4321TIP3   OH212968   6.289   2.045   4.915 -0.1490  0.0704  0.3590
 4321TIP3    H112969   6.349   1.970   4.911 -0.7497 -0.3843 -0.5627
 4321TIP3    H212970   6.305   2.093   4.835 -1.8335 -0.7284 -0.5124
 4322TIP3   OH212971   1.994   2.241   2.604 -0.0832  0.1161 -0.2329
 4322TIP3    H112972   2.027   2.300   2.672  0.9943 -2.1087  1.2919
 4322TIP3    H212973   1.905   2.221   2.631 -0.1000  0.2385 -0.1956
 4323TIP3   OH212974   0.851   5.856   3.183 -0.7521 -0.8611  0.1732
 4323TIP3    H112975   0.904   5.923   3.139 -1.0142  0.2865  1.5122
 4323TIP3    H212976   0.771   5.850   3.131 -0.6149 -0.3028 -0.1046
 4324TIP3   OH212977   2.240   0.208   2.924  0.2522  0.3609 -0.6076
 4324TIP3    H112978   2.251   0.152   3.001  2.8828 -2.1103 -2.5598
 4324TIP3    H212979   2.236   0.297   2.960  2.4561 -0.5559  2.3785
 4325TIP3   OH212980   4.573   2.937   2.596 -0.3597  0.1084  0.1459
 4325TIP3    H112981   4.569   2.865   2.659 -0.9621  0.1814  0.2004
 4325TIP3    H212982   4.517   3.004   2.634 -0.0904  0.4671 -0.0830
 4326TIP3   OH212983   1.418   0.134   1.751  0.1878 -0.0484  0.1051
 4326TIP3    H112984   1.387   0.056   1.797  0.7208  0.5493  1.5137
 4326TIP3    H212985   1.506   0.111   1.721 -0.1634 -0.4398 -0.6759
 4327TIP3   OH212986   4.500   5.443   2.247  0.4205 -0.5292  0.4952
 4327TIP3    H112987   4.554   5.414   2.173  0.2717 -0.9457  0.5454
 4327TIP3    H212988   4.543   5.407   2.324  0.8565  0.3264  0.6636
 4328TIP3   OH212989   6.167   2.528   1.450  0.6493  0.2707 -0.0879
 4328TIP3    H112990   6.110   2.564   1.382 -0.9141 -0.1299  0.9603
 4328TIP3    H212991   6.233   2.477   1.402  0.0630  0.6284 -1.3215
 4329TIP3   OH212992   0.067   1.414   0.925 -0.0442  0.2907  0.4863
 4329TIP3    H112993   0.042   1.506   0.933  0.7510  0.5614  0.0555
 4329TIP3    H212994  -0.015   1.367   0.913 -0.4274  1.0072  0.2524
 4330TIP3   OH212995   2.258   1.655   1.015 -0.1622 -0.3024  0.0671
 4330TIP3    H112996   2.281   1.712   0.942  0.7870 -0.7913 -0.0341
 4330TIP3    H212997   2.187   1.600   0.981 -0.1602 -0.1003 -0.2702
 4331TIP3   OH212998   3.906   0.156   3.049  0.1195 -0.1125 -0.4421
 4331TIP3    H112999   3.928   0.148   2.956  0.0709  0.4373 -0.5076
 4331TIP3    H213000   3.989   0.143   3.095  0.5158  1.4631 -0.6621
 4332TIP3   OH213001   3.673   1.539   1.331  0.2252 -0.2619  0.0842
 4332TIP3    H113002   3.725   1.617   1.314  2.0144 -1.3667  0.3187
 4332TIP3    H213003   3.606   1.568   1.393  1.1824  0.9672  0.5783
 4333TIP3   OH213004   1.097   4.899   2.663 -0.2954 -0.2451 -0.2899
 4333TIP3    H113005   1.072   4.834   2.729 -0.2103  0.2275  0.2154
 4333TIP3    H213006   1.105   4.849   2.582  1.2627 -1.1479  0.3850
 4334TIP3   OH213007   0.332   1.955   3.352  0.2579 -0.7718 -0.2135
 4334TIP3    H113008   0.292   2.039   3.331  1.7405  0.7626  2.5298
 4334TIP3    H213009   0.270   1.913   3.412  0.6973 -0.4291  0.4876
 4335TIP3   OH213010   5.013   4.502   1.464  0.1641 -0.1553  0.8472
 4335TIP3    H113011   5.081   4.569   1.453 -0.9122  0.8491  0.0564
 4335TIP3    H213012   4.975   4.491   1.377  0.0345 -1.5246  1.0497
 4336TIP3   OH213013   1.902   0.973   4.403 -0.3250  0.3018  0.6440
 4336TIP3    H113014   1.850   0.937   4.474  0.3608 -1.8060  0.1455
 4336TIP3    H213015   1.947   1.049   4.442 -2.0231  0.8409  1.6591
 4337TIP3   OH213016   6.309   1.792   4.185  0.0206  0.2391  0.2355
 4337TIP3    H113017   6.229   1.832   4.219 -0.7375 -0.9415 -0.0983
 4337TIP3    H213018   6.361   1.772   4.263 -0.4276  0.1747  0.5246
 4338TIP3   OH213019   5.224   3.448   3.635 -0.6759 -0.0284 -0.0230
 4338TIP3    H113020   5.306   3.401   3.619 -0.3262  0.4073  0.4801
 4338TIP3    H213021   5.232   3.481   3.724 -1.3438  0.1318 -0.0205
 4339TIP3   OH213022   5.181   1.849   0.047 -0.2326 -0.1586 -0.7563
 4339TIP3    H113023   5.172   1.782  -0.021  1.5754  0.4060 -1.5968
 4339TIP3    H213024   5.100   1.899   0.042 -1.5189 -2.0556 -0.2997
 4340TIP3   OH213025   1.472   5.879   0.166  0.1812  0.2795 -0.5646
 4340TIP3    H113026   1.409   5.868   0.094  0.2441  0.1771 -0.6043
 4340TIP3    H213027   1.470   5.973   0.185 -0.3773  0.2043 -0.2115
 4341TIP3   OH213028   4.463   3.301   4.825  0.1952 -0.4723  0.2890
 4341TIP3    H113029   4.484   3.261   4.909 -0.0316 -0.6140  0.2776
 4341TIP3    H213030   4.448   3.394   4.847 -0.7688 -0.6826  0.5522
 4342TIP3   OH213031   2.733   4.371   1.059 -0.1660  0.0414 -0.5995
 4342TIP3    H113032   2.720   4.435   1.128  1.8104 -1.3586  1.1912
 4342TIP3    H213033   2.645   4.335   1.043 -0.7019  0.5009  1.0809
 4343TIP3   OH213034   3.135   3.812   0.224 -0.2050  0.7669  0.0101
 4343TIP3    H113035   3.121   3.767   0.307 -1.7835 -1.0699 -1.1850
 4343TIP3    H213036   3.193   3.753   0.174  0.7091  1.8346 -0.2337
 4344TIP3   OH213037   0.357   1.192   3.762 -0.4525  0.4007 -0.2519
 4344TIP3    H113038   0.366   1.266   3.702 -0.0930 -0.0352 -0.7518
 4344TIP3    H213039   0.301   1.130   3.714  1.0582 -0.6013 -0.7973
 4345TIP3   OH213040   1.048   2.675   1.047  0.1078 -0.0105  0.1265
 4345TIP3    H113041   0.975   2.666   1.108  1.3546  0.2434  1.7410
 4345TIP3    H213042   1.031   2.612   0.978 -1.7816  0.2661  0.3065
 4346TIP3   OH213043   1.906   0.295   0.563  0.5067 -0.2753 -0.4147
 4346TIP3    H113044   1.893   0.332   0.651 -0.2058 -2.1105  0.3096
 4346TIP3    H213045   1.929   0.370   0.508  1.0803  0.9119  1.3572
 4347TIP3   OH213046   3.188   5.306   4.619  0.0003 -0.2579  0.1724
 4347TIP3    H113047   3.280   5.322   4.642  0.0765 -1.1717  0.5254
 4347TIP3    H213048   3.174   5.358   4.540  0.4901  0.8059  0.7623
 4348TIP3   OH213049   3.597   4.174   4.862 -0.5768 -0.1636  0.5365
 4348TIP3    H113050   3.630   4.110   4.926 -1.5031 -0.5814  0.6107
 4348TIP3    H213051   3.674   4.199   4.811  0.0158 -0.4581  1.2707
 4349TIP3   OH213052   3.794   0.872   0.844 -0.0675  0.6868  0.1485
 4349TIP3    H113053   3.812   0.941   0.909 -0.2627  0.9901 -0.1154
 4349TIP3    H213054   3.702   0.849   0.859  0.6130 -1.2484  1.8641
 4350TIP3   OH213055   3.508   4.066   1.935  0.4896  0.4838 -0.3459
 4350TIP3    H113056   3.554   4.100   2.012 -1.0025 -0.0889  0.8451
 4350TIP3    H213057   3.484   4.143   1.884 -0.8160  1.0970  1.1363
 4351TIP3   OH213058   1.503   1.875   4.931 -0.1441 -0.3878 -0.0948
 4351TIP3    H113059   1.523   1.958   4.974 -1.2409 -0.0889 -0.1434
 4351TIP3    H213060   1.583   1.853   4.883 -0.9089  2.4142 -2.9982
 4352TIP3   OH213061   3.580   1.994   1.412 -0.5880 -0.1854  0.0974
 4352TIP3    H113062   3.645   2.004   1.481 -0.8220  0.8126  0.1879
 4352TIP3    H213063   3.630   1.984   1.332 -0.3129 -1.3864  0.4043
 4353TIP3   OH213064   1.005   1.388   1.536 -0.3026  0.3767 -0.1414
 4353TIP3    H113065   1.024   1.329   1.610 -1.4084 -0.7810 -0.7426
 4353TIP3    H213066   1.055   1.352   1.463 -0.2638  0.7202 -0.2827
 4354TIP3   OH213067   1.285   2.127   4.592  0.2633 -0.4745 -0.6577
 4354TIP3    H113068   1.279   2.148   4.685  0.0347  0.6591 -0.9174
 4354TIP3    H213069   1.304   2.033   4.590  0.9704 -0.3718  0.5396
 4355TIP3   OH213070   5.796   4.385   0.614  0.8018 -0.1126 -0.1691
 4355TIP3    H113071   5.712   4.342   0.628  0.8631 -0.6000 -1.2658
 4355TIP3    H213072   5.774   4.472   0.581  0.6995  0.4920  1.3788
 4356TIP3   OH213073   4.422   5.075   0.934 -0.0053  0.0910 -0.0560
 4356TIP3    H113074   4.347   5.033   0.977  0.7852 -1.0425  0.2604
 4356TIP3    H213075   4.475   5.108   1.006  0.4204 -0.2176 -0.2285
 4357TIP3   OH213076   1.011   3.049   0.723  0.4004  0.3618  0.0429
 4357TIP3    H113077   0.969   3.050   0.809  0.9541 -1.2638  0.3566
 4357TIP3    H213078   0.986   2.965   0.685  2.5979 -0.2535 -0.1416
 4358TIP3   OH213079   0.803   3.552   0.855 -0.3042 -0.7556 -0.1896
 4358TIP3    H113080   0.898   3.538   0.849 -0.3732 -1.4934  0.3715
 4358TIP3    H213081   0.784   3.548   0.948 -1.0559 -1.7263 -0.3689
 4359TIP3   OH213082   0.394   3.868   0.255 -0.1705 -0.0016 -0.2388
 4359TIP3    H113083   0.329   3.797   0.257  1.2760 -1.3631  0.1157
 4359TIP3    H213084   0.408   3.885   0.161 -2.0735  1.3447 -0.3338
 4360TIP3   OH213085   2.815   4.556   2.756 -0.2335 -0.5367 -0.3594
 4360TIP3    H113086   2.812   4.533   2.663 -0.8806 -2.3332  0.0753
 4360TIP3    H213087   2.786   4.647   2.758  1.6013  0.1844 -2.0728
 4361TIP3   OH213088   6.080   4.568   3.782 -0.6750  0.0285  0.3151
 4361TIP3    H113089   6.115   4.499   3.725  1.2460 -0.3920  1.9270
 4361TIP3    H213090   6.040   4.521   3.855 -0.6978  0.6019  0.6778
 4362TIP3   OH213091   0.064   3.595   0.644  0.3919 -0.4506  0.2541
 4362TIP3    H113092   0.141   3.647   0.669  0.9015 -1.0611 -0.0146
 4362TIP3    H213093  -0.010   3.643   0.681  0.9060  0.1147  0.5763
 4363TIP3   OH213094   3.097   3.771   3.800 -0.3208  0.1772 -0.3122
 4363TIP3    H113095   3.137   3.858   3.809  0.7703 -0.3189 -0.3440
 4363TIP3    H213096   3.160   3.720   3.750  0.1053 -1.3159  1.6119
 4364TIP3   OH213097   2.187   1.902   2.061 -0.1375  0.0281  0.1401
 4364TIP3    H113098   2.191   1.898   1.966 -0.8281 -0.1719  0.1152
 4364TIP3    H213099   2.270   1.864   2.090  0.4587  0.8844 -0.3857
 4365TIP3   OH213100   5.580   5.438   2.277 -0.3366  0.3921 -0.2690
 4365TIP3    H113101   5.601   5.350   2.244 -1.4200 -0.5495  1.4303
 4365TIP3    H213102   5.495   5.428   2.320  0.9979  1.4630  2.9066
 4366TIP3   OH213103   0.489   3.066   0.626  0.2481  0.2809 -0.1537
 4366TIP3    H113104   0.532   3.123   0.563  0.1713  0.5659  0.0472
 4366TIP3    H213105   0.419   3.023   0.577  1.0278 -0.5261 -0.5961
 4367TIP3   OH213106   4.204   3.501   2.214 -0.4638 -0.8232  0.3742
 4367TIP3    H113107   4.172   3.419   2.178 -1.2900 -0.3406 -0.0266
 4367TIP3    H213108   4.186   3.566   2.146  1.2173 -0.4819  0.2068
 4368TIP3   OH213109   6.356   3.923   1.606  0.1864  0.4075 -0.0484
 4368TIP3    H113110   6.273   3.875   1.611  1.5487 -2.0981  0.1379
 4368TIP3    H213111   6.387   3.928   1.696  1.0259 -0.1910 -0.2899
 4369TIP3   OH213112   1.364   5.809   0.440 -0.1073 -0.4301 -0.0888
 4369TIP3    H113113   1.394   5.819   0.350 -0.8140  1.6561 -0.1480
 4369TIP3    H213114   1.338   5.717   0.447  0.4405 -0.7526 -1.8497
 4370TIP3   OH213115   3.347   3.311   2.855  0.8473 -0.6043 -0.3489
 4370TIP3    H113116   3.340   3.254   2.778  0.8340  0.4898 -1.1843
 4370TIP3    H213117   3.425   3.279   2.901  0.3453 -1.8402 -0.3219
 4371TIP3   OH213118   4.890   2.718   5.016 -0.0994 -0.2768  0.1535
 4371TIP3    H113119   4.817   2.666   4.985 -0.6807  0.8664 -0.4467
 4371TIP3    H213120   4.869   2.736   5.108 -1.1853  1.0041 -0.3077
 4372TIP3   OH213121   1.880   1.389   2.064  0.0340 -0.0805 -0.7183
 4372TIP3    H113122   1.897   1.447   2.139 -2.0699  1.2011 -1.1403
 4372TIP3    H213123   1.960   1.338   2.055  1.4254  1.6860  0.6537
 4373TIP3   OH213124   6.102   2.435   2.292  0.2732  0.2369 -0.6602
 4373TIP3    H113125   6.079   2.528   2.288  1.3387  0.6615  1.4709
 4373TIP3    H213126   6.037   2.392   2.237  0.3830  2.3136 -2.5915
 4374TIP3   OH213127   5.078   4.386   4.457  0.0293 -0.1970  0.1585
 4374TIP3    H113128   4.994   4.417   4.423 -0.2078 -1.5645 -0.5846
 4374TIP3    H213129   5.144   4.433   4.406 -0.2695  1.0584  0.9103
 4375TIP3   OH213130   1.066   3.582   3.265  0.1618 -0.2510 -0.1047
 4375TIP3    H113131   1.013   3.625   3.197 -0.3425  0.4930  0.7202
 4375TIP3    H213132   1.156   3.601   3.241 -0.0074 -0.1483 -0.6678
 4376TIP3   OH213133   0.870   3.760   5.064  0.5716  0.0873 -0.3691
 4376TIP3    H113134   0.901   3.812   4.989 -1.2473 -1.6751 -2.4884
 4376TIP3    H213135   0.791   3.717   5.032 -0.2820 -0.8077  2.6109
 4377TIP3   OH213136   2.503   4.127   2.989 -0.0856  0.2374  0.0616
 4377TIP3    H113137   2.563   4.193   3.022  0.1034 -0.1935  0.6121
 4377TIP3    H213138   2.433   4.124   3.055  0.6942 -1.1923  0.8722
 4378TIP3   OH213139   4.013   4.041   4.742  0.1227  0.2611  0.0605
 4378TIP3    H113140   4.040   3.973   4.681  0.5230 -0.3994  0.9532
 4378TIP3    H213141   4.041   4.009   4.828 -1.0174  0.8485  0.6793
 4379TIP3   OH213142   5.546   4.502   3.825  0.3741 -0.6270  0.0557
 4379TIP3    H113143   5.619   4.483   3.884  1.1656 -0.9759 -1.0046
 4379TIP3    H213144   5.554   4.596   3.806  1.0202 -0.8177 -0.6569
 4380TIP3   OH213145   5.070   5.889   2.007 -0.0032 -0.1770  0.0130
 4380TIP3    H113146   5.129   5.830   1.961 -0.0742  0.2205 -0.5995
 4380TIP3    H213147   5.127   5.959   2.041  0.0996 -0.6581  0.8519
 4381TIP3   OH213148   5.134   2.767   4.220 -0.1060 -0.4522  0.1068
 4381TIP3    H113149   5.094   2.802   4.300 -1.9995 -0.0925 -0.9288
 4381TIP3    H213150   5.131   2.672   4.232  2.2690 -0.4177  1.6302
 4382TIP3   OH213151   5.508   5.269   2.836  0.2035 -0.0352 -0.1997
 4382TIP3    H113152   5.454   5.347   2.845 -1.7183 -1.3518  0.4665
 4382TIP3    H213153   5.563   5.286   2.760 -1.1308  1.4213 -0.8883
 4383TIP3   OH213154   3.415   1.909   4.955 -0.9465 -0.5945  0.4115
 4383TIP3    H113155   3.347   1.890   5.020 -1.4039  0.4639  0.2721
 4383TIP3    H213156   3.493   1.930   5.007 -1.9079  2.5750  0.7930
 4384TIP3   OH213157   3.366   0.052   1.771 -0.2616 -0.4743  0.0861
 4384TIP3    H113158   3.447   0.009   1.743  1.0130  0.6247  1.8560
 4384TIP3    H213159   3.356   0.126   1.710  0.1937 -0.4816  0.0018
 4385TIP3   OH213160   4.010   1.173   5.138  0.1241 -0.7834  0.1204
 4385TIP3    H113161   4.087   1.138   5.093  0.7175  0.7685 -0.1299
 4385TIP3    H213162   3.943   1.178   5.070 -0.1436 -1.8841  0.2780
 4386TIP3   OH213163   1.817   1.262   2.576 -0.3122  0.3205 -0.3206
 4386TIP3    H113164   1.805   1.223   2.662 -0.7639 -0.5408 -0.7617
 4386TIP3    H213165   1.891   1.322   2.587 -0.0109 -0.1889  0.5221
 4387TIP3   OH213166   1.751   3.642   3.242  0.1485  0.2858  0.3499
 4387TIP3    H113167   1.759   3.736   3.222  0.1664  0.2487  0.1853
 4387TIP3    H213168   1.775   3.598   3.161  0.0796  0.1392  0.4090
 4388TIP3   OH213169   4.320   5.854   0.491 -0.0456  0.4569 -0.6196
 4388TIP3    H113170   4.335   5.937   0.447 -0.9255  0.5350 -0.7962
 4388TIP3    H213171   4.241   5.819   0.450  0.2298 -0.3886 -0.4381
 4389TIP3   OH213172   3.295   1.237   0.125 -0.4308 -0.2465 -0.4409
 4389TIP3    H113173   3.223   1.232   0.188  1.8809 -1.4404  2.3254
 4389TIP3    H213174   3.302   1.148   0.089  1.8074 -1.2205  2.0792
 4390TIP3   OH213175   3.773   5.217   1.074 -0.0393  0.2911  0.4459
 4390TIP3    H113176   3.793   5.147   1.012 -3.7639  0.2719 -0.9576
 4390TIP3    H213177   3.824   5.292   1.043  1.3671 -0.8292 -0.0702
 4391TIP3   OH213178   1.250   3.680   1.778  0.3487 -0.7529  0.7148
 4391TIP3    H113179   1.184   3.735   1.737  0.9585  1.6825  2.7572
 4391TIP3    H213180   1.303   3.648   1.704 -0.4945  0.7873 -0.6336
 4392TIP3   OH213181   3.983   5.217   4.658  0.1930  0.1564 -0.0742
 4392TIP3    H113182   4.046   5.262   4.714 -0.0387 -0.0530  0.3601
 4392TIP3    H213183   4.015   5.127   4.652 -0.8284 -0.3531  1.3718
 4393TIP3   OH213184   0.487   3.239   4.921  0.3724 -0.6736 -0.0655
 4393TIP3    H113185   0.437   3.320   4.908  0.0612 -1.0529 -1.3983
 4393TIP3    H213186   0.525   3.248   5.008  0.1635  0.8172 -0.1030
 4394TIP3   OH213187   5.976   5.050   1.137  0.1808 -0.1607 -0.6077
 4394TIP3    H113188   5.890   5.032   1.174 -0.2730  1.0610 -1.0323
 4394TIP3    H213189   5.973   5.011   1.049  0.1805 -0.3963 -0.5038
 4395TIP3   OH213190   3.950   2.859   0.862  0.0793  0.2655 -0.6528
 4395TIP3    H113191   3.971   2.952   0.873  1.6900 -0.0181 -0.9874
 4395TIP3    H213192   4.022   2.813   0.906 -0.6905 -0.8180 -0.4943
 4396TIP3   OH213193   2.130   5.381   4.150 -0.1444  0.3514 -0.1015
 4396TIP3    H113194   2.048   5.416   4.184 -0.0637  0.3402  0.1073
 4396TIP3    H213195   2.198   5.419   4.206  0.0445  0.8466 -0.6573
 4397TIP3   OH213196   0.500   1.732   4.262  0.2135 -0.2504  0.2794
 4397TIP3    H113197   0.525   1.700   4.348  1.7546 -0.3007 -0.1571
 4397TIP3    H213198   0.582   1.763   4.223 -0.5032  0.0680 -1.0400
 4398TIP3   OH213199   4.561   4.873   1.228  0.3320 -0.5107 -0.0146
 4398TIP3    H113200   4.646   4.842   1.257  0.6841  0.5528  0.1279
 4398TIP3    H213201   4.577   4.962   1.197 -0.6681 -0.4088 -0.2696
 4399TIP3   OH213202   1.710   1.599   2.784  0.2601 -0.0523  0.0624
 4399TIP3    H113203   1.625   1.575   2.748  0.3090  0.6128 -0.5231
 4399TIP3    H213204   1.740   1.521   2.830 -0.4418 -0.4528 -0.1489
 4400TIP3   OH213205   2.727   4.867   4.053 -0.4978 -0.1542 -0.1230
 4400TIP3    H113206   2.749   4.886   4.144 -1.2599 -1.0807  0.2575
 4400TIP3    H213207   2.711   4.954   4.014  1.2005  0.3672  0.2335
 4401TIP3   OH213208   5.103   3.706   2.973  0.0022  0.5040 -0.3305
 4401TIP3    H113209   5.153   3.775   3.016  0.7182  0.3361 -0.8743
 4401TIP3    H213210   5.019   3.706   3.018  1.2412 -0.7686  2.2143
 4402TIP3   OH213211   3.275   1.892   0.345  0.6920 -0.5576 -0.5637
 4402TIP3    H113212   3.267   1.945   0.265  0.7026 -0.8949 -0.7912
 4402TIP3    H213213   3.259   1.803   0.315 -3.9020 -0.3376  0.4828
 4403TIP3   OH213214   6.092   0.273   0.877  0.1256 -0.1680 -0.4380
 4403TIP3    H113215   6.114   0.224   0.797  0.5072  0.5099 -0.7569
 4403TIP3    H213216   6.145   0.233   0.945  0.3436 -0.2860 -0.6727
 4404TIP3   OH213217   4.933   1.005   2.703 -0.2161 -0.3839 -0.1763
 4404TIP3    H113218   5.008   1.014   2.644 -1.4389 -1.0667 -1.9179
 4404TIP3    H213219   4.938   1.081   2.760  1.5890 -0.2288 -0.4855
 4405TIP3   OH213220   1.676   1.353   4.924  0.1882  0.3090  0.0520
 4405TIP3    H113221   1.617   1.362   4.849 -1.5861 -0.4441  1.2681
 4405TIP3    H213222   1.739   1.423   4.914  0.0721  0.1654 -2.1927
 4406TIP3   OH213223   1.428   2.393   4.597 -0.3758  0.6141  0.1283
 4406TIP3    H113224   1.352   2.338   4.578 -0.2968  0.9575 -1.3025
 4406TIP3    H213225   1.449   2.434   4.513  1.5816  0.2909  0.4197
 4407TIP3   OH213226   3.569   4.522   0.702  0.6180 -0.0757  0.3372
 4407TIP3    H113227   3.498   4.583   0.683  0.8839 -0.5639 -2.5815
 4407TIP3    H213228   3.642   4.550   0.646  0.3955 -3.6052 -2.0240
 4408TIP3   OH213229   1.539   2.094   2.501 -0.2422  0.1078  0.3773
 4408TIP3    H113230   1.607   2.078   2.436 -0.1866 -0.2741  0.5233
 4408TIP3    H213231   1.460   2.110   2.450 -0.8564 -2.9334  0.1421
 4409TIP3   OH213232   6.148   1.714   0.203 -0.1212  0.0031  0.4853
 4409TIP3    H113233   6.170   1.630   0.245  1.0334  0.0943  0.1076
 4409TIP3    H213234   6.082   1.692   0.138  1.0264 -0.8634 -0.4499
 4410TIP3   OH213235   5.552   1.260   4.342  0.0677 -0.8195  0.6099
 4410TIP3    H113236   5.625   1.200   4.359  0.2991 -0.4891  0.7974
 4410TIP3    H213237   5.513   1.228   4.261  3.3070  1.6771 -2.2608
 4411TIP3   OH213238   1.683   0.097   2.069  0.5389  0.0666 -0.2844
 4411TIP3    H113239   1.663   0.047   2.148 -1.5937 -0.7777 -1.2740
 4411TIP3    H213240   1.777   0.085   2.055  1.1277  0.8412  2.4728
 4412TIP3   OH213241   5.298   5.646   0.429  0.7739  0.6479 -0.2957
 4412TIP3    H113242   5.358   5.711   0.392  0.1805  1.3126 -0.1000
 4412TIP3    H213243   5.218   5.694   0.448  0.5196 -0.0243  0.3877
 4413TIP3   OH213244   0.189   1.878   5.079  0.4815 -0.2203  0.2865
 4413TIP3    H113245   0.209   1.928   5.000 -0.4579  1.0904  0.8400
 4413TIP3    H213246   0.273   1.862   5.120  0.7845  1.3532  0.3405
 4414TIP3   OH213247   1.439   5.071   3.942  0.8378  0.2432 -0.4120
 4414TIP3    H113248   1.511   5.042   3.999  0.6412  1.6174  0.5930
 4414TIP3    H213249   1.411   4.992   3.897  2.4628 -0.4713 -0.2390
 4415TIP3   OH213250   3.202   4.998   4.332 -0.0675  0.3029  0.0363
 4415TIP3    H113251   3.237   5.064   4.272 -2.7492  1.2046 -0.6945
 4415TIP3    H213252   3.155   4.937   4.275  1.2258 -1.5247  0.8430
 4416TIP3   OH213253   4.159   0.905   2.928 -0.2057 -0.5719  0.4344
 4416TIP3    H113254   4.111   0.873   3.004  1.7008  0.0812  1.9935
 4416TIP3    H213255   4.235   0.848   2.921 -1.4038 -2.0198 -2.3968
 4417TIP3   OH213256   6.048   1.683   0.491 -0.1292  0.1692 -0.1931
 4417TIP3    H113257   5.963   1.702   0.452 -0.9930 -0.2400  1.4270
 4417TIP3    H213258   6.084   1.769   0.514 -0.0772  0.3425 -0.8924
 4418TIP3   OH213259   0.792   0.898   1.924  0.5735  0.0052  0.1305
 4418TIP3    H113260   0.813   0.990   1.908 -2.8644  0.7885 -0.7828
 4418TIP3    H213261   0.817   0.854   1.843  1.6129  0.2401  0.3129
 4419TIP3   OH213262   2.657   0.230   0.141 -0.4056  0.5568  0.6907
 4419TIP3    H113263   2.666   0.168   0.213  2.3553  0.8528  0.7231
 4419TIP3    H213264   2.687   0.313   0.177  0.6978  0.7914 -0.6611
 4420TIP3   OH213265   4.439   4.778   0.703  0.2504  0.2475 -0.7919
 4420TIP3    H113266   4.494   4.803   0.630  0.5589 -2.1362 -1.4489
 4420TIP3    H213267   4.351   4.771   0.666  0.2857 -0.2810 -0.7813
 4421TIP3   OH213268   1.870   4.387   3.188 -0.3458 -0.7393 -0.1941
 4421TIP3    H113269   1.893   4.418   3.276  0.1492 -2.6486  0.4189
 4421TIP3    H213270   1.850   4.466   3.138  1.6968  0.5882  0.9626
 4422TIP3   OH213271   4.417   2.871   0.028  0.3655 -0.6064 -0.8321
 4422TIP3    H113272   4.418   2.854   0.122  1.1448  0.4586 -0.6294
 4422TIP3    H213273   4.344   2.933   0.016  1.5858  0.9231 -0.5929
 4423TIP3   OH213274   1.028   1.415   2.585  0.1134 -0.4139 -0.5330
 4423TIP3    H113275   1.056   1.335   2.540 -0.6290 -0.6102 -0.6624
 4423TIP3    H213276   0.993   1.470   2.516 -0.9934 -0.6997 -0.2234
 4424TIP3   OH213277   4.576   0.653   3.838 -0.2223 -0.3157  0.2489
 4424TIP3    H113278   4.576   0.744   3.867  0.3699 -0.5192  0.9374
 4424TIP3    H213279   4.493   0.617   3.870 -0.9346  0.2427 -0.9282
 4425TIP3   OH213280   2.545   4.139   1.330 -0.8274 -0.1523  0.5059
 4425TIP3    H113281   2.457   4.107   1.311 -1.2685  0.9575  0.5867
 4425TIP3    H213282   2.537   4.234   1.328  0.6057 -0.0242 -0.4866
 4426TIP3   OH213283   3.558   1.162   1.488 -0.0227  0.6976 -0.0624
 4426TIP3    H113284   3.619   1.205   1.428 -0.3725  1.6395  0.2434
 4426TIP3    H213285   3.613   1.133   1.561  0.3008  0.1269 -0.5265
 4427TIP3   OH213286   1.908   0.081   1.765 -0.6598  0.4231 -0.2777
 4427TIP3    H113287   1.921   0.173   1.788 -1.5131  0.5756 -0.3670
 4427TIP3    H213288   1.901   0.036   1.849  2.1605  0.0402 -0.1780
 4428TIP3   OH213289   6.206   1.489   0.394  0.6863 -0.3983 -0.3442
 4428TIP3    H113290   6.284   1.510   0.446 -0.3222 -1.0065  1.5242
 4428TIP3    H213291   6.138   1.546   0.429  0.7237  1.8368 -3.5292
 4429TIP3   OH213292   3.477   3.874   4.889  0.0433  0.2341  0.3279
 4429TIP3    H113293   3.539   3.927   4.838 -0.0210  0.5497  0.5829
 4429TIP3    H213294   3.485   3.786   4.851 -0.7581  0.6800 -0.9298
 4430TIP3   OH213295   0.878   2.052   1.240  0.0018  0.7161 -0.3508
 4430TIP3    H113296   0.889   2.017   1.329 -1.1875 -0.9441 -0.8193
 4430TIP3    H213297   0.964   2.042   1.200  0.7112  2.0058  0.7604
 4431TIP3   OH213298   5.416   5.782   0.065  0.2137 -0.4777  0.0396
 4431TIP3    H113299   5.401   5.842   0.138 -0.3471  2.6661 -2.4197
 4431TIP3    H213300   5.333   5.736   0.054  0.1103 -0.5359  1.0021
 4432TIP3   OH213301   6.027   4.681   0.511 -0.2708  0.2040 -0.0993
 4432TIP3    H113302   6.003   4.596   0.473 -1.6221  0.5985 -0.1852
 4432TIP3    H213303   6.076   4.725   0.442 -0.5802 -0.0519 -0.4896
 4433TIP3   OH213304   2.831   4.798   1.102 -0.3692 -0.4391  0.0711
 4433TIP3    H113305   2.754   4.817   1.156  0.0893  1.3234  0.1924
 4433TIP3    H213306   2.905   4.808   1.162 -0.0249 -2.3193  0.0037
 4434TIP3   OH213307   4.164   0.428   3.217 -0.1075  0.3281  0.3719
 4434TIP3    H113308   4.143   0.343   3.254 -1.0772 -0.5894 -2.1293
 4434TIP3    H213309   4.231   0.463   3.276  0.0056 -1.9455  1.7160
 4435TIP3   OH213310   2.011   0.958   2.940  0.3173 -0.1230  0.0448
 4435TIP3    H113311   2.041   0.930   2.854  0.8322 -0.2910  0.2778
 4435TIP3    H213312   1.915   0.963   2.931  0.1760 -2.0436  0.0061
 4436TIP3   OH213313   0.861   1.884   0.390 -0.0235 -0.4586  0.0642
 4436TIP3    H113314   0.899   1.917   0.309  1.5492 -1.0102  0.5287
 4436TIP3    H213315   0.787   1.942   0.408 -0.0441  0.0101 -1.4565
 4437TIP3   OH213316   3.622   0.736   4.717 -0.3827 -0.3296  0.2813
 4437TIP3    H113317   3.716   0.737   4.701 -0.1086  0.2439  1.7639
 4437TIP3    H213318   3.610   0.668   4.783 -1.2873 -1.7324 -1.2547
 4438TIP3   OH213319   1.291   5.557   0.495 -0.4806  0.1368  0.8310
 4438TIP3    H113320   1.320   5.540   0.584 -1.2402  1.6351  1.3943
 4438TIP3    H213321   1.246   5.477   0.468  0.8107 -0.7825  1.3216
 4439TIP3   OH213322   0.338   1.608   2.716  0.3718 -0.2054  0.0932
 4439TIP3    H113323   0.420   1.632   2.671  0.3953  2.4712  1.3722
 4439TIP3    H213324   0.306   1.690   2.752 -2.9286 -1.1703 -0.3149
 4440TIP3   OH213325   0.044   4.742   3.948 -0.3363  0.2174 -0.1830
 4440TIP3    H113326   0.120   4.753   3.890  1.0577  1.6014  1.7762
 4440TIP3    H213327   0.026   4.648   3.946  0.6721  0.0253 -1.6202
 4441TIP3   OH213328   1.711   5.080   4.923 -0.1363 -0.0213 -0.1235
 4441TIP3    H113329   1.786   5.124   4.883 -0.2994  0.2508 -0.1355
 4441TIP3    H213330   1.714   5.107   5.015  1.0402 -1.7393  0.3794
 4442TIP3   OH213331   2.455   0.114   3.314  0.2804 -0.5095  0.4142
 4442TIP3    H113332   2.541   0.098   3.275 -0.1516 -0.5201 -0.5824
 4442TIP3    H213333   2.461   0.202   3.351  1.7883 -1.7515  3.4370
 4443TIP3   OH213334   1.615   0.766   4.222  0.5710  0.1304 -0.4685
 4443TIP3    H113335   1.587   0.712   4.147  0.9110 -0.9535  0.1614
 4443TIP3    H213336   1.690   0.816   4.189  0.1656  0.3316 -1.1028
 4444TIP3   OH213337   5.712   0.063   5.160 -0.5484 -0.1446  0.4514
 4444TIP3    H113338   5.744   0.135   5.105 -1.4771  0.2324  0.3988
 4444TIP3    H213339   5.637   0.099   5.207 -0.5918 -0.8689  0.9678
 4445TIP3   OH213340   3.334   3.847   1.719  0.3834  0.7441 -0.1471
 4445TIP3    H113341   3.305   3.841   1.629 -1.7645 -3.1765  0.5695
 4445TIP3    H213342   3.406   3.784   1.726  0.0379  0.4383  0.9965
 4446TIP3   OH213343   1.764   3.191   3.020  0.0579 -0.0754 -0.0372
 4446TIP3    H113344   1.853   3.221   3.002  0.4899 -0.8121  0.8451
 4446TIP3    H213345   1.764   3.168   3.113 -0.8651 -0.7112 -0.1814
 4447TIP3   OH213346   2.632   0.523   0.333  0.0563 -0.6811  0.0024
 4447TIP3    H113347   2.610   0.608   0.297 -0.5039 -0.3578  1.0724
 4447TIP3    H213348   2.728   0.523   0.338  0.0178  0.3688  1.0881
 4448TIP3   OH213349   0.639   5.741   1.509  0.7343 -0.6365  0.3480
 4448TIP3    H113350   0.559   5.688   1.507  2.3420 -3.2367 -1.4645
 4448TIP3    H213351   0.627   5.800   1.583 -2.6363 -1.2278  0.4416
 4449TIP3   OH213352   5.726   4.300   1.813 -0.5316  0.3255 -0.2079
 4449TIP3    H113353   5.782   4.298   1.891 -1.0843  1.1416  0.2287
 4449TIP3    H213354   5.646   4.344   1.842 -0.3880  1.4904 -1.4720
 4450TIP3   OH213355   4.078   2.898   0.112  0.2587 -0.1231  0.0804
 4450TIP3    H113356   4.093   2.825   0.173  1.0858  0.9706  1.2490
 4450TIP3    H213357   4.012   2.952   0.156 -0.0680  0.0354 -0.5987
 4451TIP3   OH213358   1.387   3.978   0.922 -0.2232 -0.1496  0.3347
 4451TIP3    H113359   1.327   4.053   0.922  0.5354  0.4809  1.3207
 4451TIP3    H213360   1.371   3.934   1.005 -1.9178 -2.1766 -0.9662
 4452TIP3   OH213361   1.948   5.742   2.121  0.2744 -0.4127  0.4908
 4452TIP3    H113362   2.008   5.728   2.194  2.2793 -2.0402 -1.3203
 4452TIP3    H213363   1.994   5.804   2.064 -1.8749  1.9473  1.1744
 4453TIP3   OH213364   4.865   3.899   2.010 -0.4349 -0.6907  0.2545
 4453TIP3    H113365   4.932   3.849   2.056 -0.9744 -1.4474  0.2346
 4453TIP3    H213366   4.913   3.969   1.965  0.3195 -1.1561  0.3336
 4454TIP3   OH213367   4.395   1.736   3.731 -0.4799 -0.2238  0.0544
 4454TIP3    H113368   4.455   1.764   3.662 -0.6443  0.0107  0.0046
 4454TIP3    H213369   4.309   1.733   3.688 -0.9680  2.0099  0.7390
 4455TIP3   OH213370   0.442   3.514   3.235 -0.3223  0.6972 -0.5929
 4455TIP3    H113371   0.446   3.578   3.164  0.2397  0.3009 -0.9261
 4455TIP3    H213372   0.440   3.567   3.314  1.0827  1.1374 -0.8175
 4456TIP3   OH213373   1.466   4.845   4.356  0.1058 -0.2121  0.1948
 4456TIP3    H113374   1.513   4.762   4.348  0.4530  0.0251 -0.2515
 4456TIP3    H213375   1.379   4.820   4.388 -0.3257 -0.9182 -1.4178
 4457TIP3   OH213376   4.949   0.444   2.447  0.3025  0.1982 -0.6679
 4457TIP3    H113377   4.920   0.524   2.404  0.5691  0.1421 -0.9503
 4457TIP3    H213378   4.946   0.377   2.379 -3.5333 -0.9273  0.3547
 4458TIP3   OH213379   2.427   5.534   0.041  0.3199 -0.3967  0.1315
 4458TIP3    H113380   2.458   5.623   0.054 -0.1881 -0.3195  0.8858
 4458TIP3    H213381   2.495   5.479   0.079  0.5082 -0.3168 -0.0914
 4459TIP3   OH213382   3.292   0.596   0.852 -0.2441  0.1218  0.0228
 4459TIP3    H113383   3.289   0.557   0.939 -1.2154 -0.6038 -0.3229
 4459TIP3    H213384   3.369   0.654   0.854 -1.0651  1.2198  1.8038
 4460TIP3   OH213385   5.832   3.461   1.344 -0.2177 -0.2090 -0.8171
 4460TIP3    H113386   5.879   3.544   1.345 -0.2605 -0.1654  0.8871
 4460TIP3    H213387   5.880   3.405   1.406 -1.2437 -0.8264 -0.5441
 4461TIP3   OH213388   6.263   2.706   1.655  0.0459 -0.3715  0.4988
 4461TIP3    H113389   6.220   2.657   1.585 -1.8003  0.6337  0.8870
 4461TIP3    H213390   6.199   2.771   1.682  1.7866  1.1212  1.2024
 4462TIP3   OH213391   5.232   4.278   1.931  0.0127  0.2869 -0.5469
 4462TIP3    H113392   5.286   4.199   1.928 -1.7467 -0.9539 -1.1900
 4462TIP3    H213393   5.229   4.309   1.840 -1.2072 -0.3070 -0.7374
 4463TIP3   OH213394   4.186   0.730   0.997  0.3704  0.3876  0.1421
 4463TIP3    H113395   4.260   0.684   0.956 -1.0943 -0.9010 -1.1799
 4463TIP3    H213396   4.113   0.668   0.991 -0.9594  1.8181  0.9391
 4464TIP3   OH213397   4.769   6.006   3.631  0.1847  0.1629  0.1328
 4464TIP3    H113398   4.795   5.914   3.629 -1.2223 -0.2745  0.8787
 4464TIP3    H213399   4.728   6.022   3.547  1.2481  0.3891 -0.3660
 4465TIP3   OH213400   5.712   0.405   3.053  0.5140  0.1020 -0.1785
 4465TIP3    H113401   5.759   0.457   2.987 -0.3721  0.7632 -0.3158
 4465TIP3    H213402   5.664   0.340   3.002  0.3454  0.1931 -0.1357
 4466TIP3   OH213403   2.358   1.310   2.989  0.1552 -0.0051  0.2039
 4466TIP3    H113404   2.361   1.392   2.939 -1.6886 -0.6549 -1.0644
 4466TIP3    H213405   2.284   1.262   2.953  0.1416 -1.5217  2.0847
 4467TIP3   OH213406   2.686   5.233   0.342  0.2087 -0.1070  0.5378
 4467TIP3    H113407   2.660   5.155   0.391  1.6957 -0.4153  0.8756
 4467TIP3    H213408   2.759   5.270   0.392  0.3734  0.7798 -0.3157
 4468TIP3   OH213409   3.437   1.152   1.866  0.3991  0.3725  0.1435
 4468TIP3    H113410   3.494   1.220   1.830  2.3377 -1.4354 -0.3908
 4468TIP3    H213411   3.465   1.143   1.957  1.0494 -0.5174 -0.1208
 4469TIP3   OH213412   6.097   2.265   4.702  0.0791 -0.1963  0.1025
 4469TIP3    H113413   6.122   2.310   4.622 -1.5035  0.6159  0.0297
 4469TIP3    H213414   6.103   2.172   4.680 -3.3943 -0.0767 -2.1061
 4470TIP3   OH213415   2.313   2.358   2.833 -0.5815 -0.0517 -0.2534
 4470TIP3    H113416   2.301   2.409   2.753 -1.4590 -0.6166 -0.4856
 4470TIP3    H213417   2.330   2.424   2.901  0.7277  0.4066 -0.9756
 4471TIP3   OH213418   1.960   5.697   5.031  0.4966 -0.3950 -0.0695
 4471TIP3    H113419   1.901   5.718   5.103 -0.2484 -0.5934 -0.6110
 4471TIP3    H213420   2.031   5.761   5.037  1.4766 -1.5710  1.9966
 4472TIP3   OH213421   6.086   4.021   2.021 -0.2245  0.1303  0.7463
 4472TIP3    H113422   6.059   4.086   2.086 -0.6249  0.8751 -0.1347
 4472TIP3    H213423   6.139   4.071   1.958 -1.2245 -0.2124 -0.3961
 4473TIP3   OH213424   1.804   3.579   4.468  0.1012  0.4545 -0.6327
 4473TIP3    H113425   1.838   3.590   4.557 -1.5611  0.1461  0.0832
 4473TIP3    H213426   1.845   3.649   4.418  1.5060  0.2933  0.2354
 4474TIP3   OH213427   4.146   0.688   1.799  0.2303 -0.0386  0.1956
 4474TIP3    H113428   4.093   0.767   1.791 -0.4788  0.2438  4.9079
 4474TIP3    H213429   4.083   0.616   1.800 -0.1687  0.1627  4.0003
 4475TIP3   OH213430   2.708   1.357   4.288  0.7814 -0.3484 -0.0664
 4475TIP3    H113431   2.751   1.443   4.283  0.8823 -0.3749  0.2918
 4475TIP3    H213432   2.615   1.378   4.296  0.7736 -0.2800 -0.3145
 4476TIP3   OH213433   1.639   0.281   0.284  0.0587 -0.1800  0.7327
 4476TIP3    H113434   1.640   0.360   0.337  0.1009 -0.2314  0.8094
 4476TIP3    H213435   1.718   0.234   0.310  0.4776  0.1523  0.0800
 4477TIP3   OH213436   0.650   0.396   0.228 -0.2012 -0.1552  0.1443
 4477TIP3    H113437   0.706   0.435   0.296 -0.4393 -0.2264  0.3842
 4477TIP3    H213438   0.604   0.471   0.190 -0.3621 -0.1576  0.3327
 4478TIP3   OH213439   2.657   3.713   4.224  0.1565  0.6044 -0.5542
 4478TIP3    H113440   2.627   3.622   4.218 -1.4079  0.9248  1.4330
 4478TIP3    H213441   2.602   3.760   4.162  0.3075  0.3498 -0.8844
 4479TIP3   OH213442   5.783   0.880   3.386  0.0125  0.0417 -0.1127
 4479TIP3    H113443   5.792   0.844   3.298 -0.5641  1.6011 -0.8522
 4479TIP3    H213444   5.691   0.864   3.409  0.0448  0.0487  0.0230
 4480TIP3   OH213445   1.601   5.952   0.627  0.1802 -0.2337 -0.5085
 4480TIP3    H113446   1.621   5.867   0.665 -0.6381  0.3128  1.2307
 4480TIP3    H213447   1.518   5.938   0.582  1.7015 -1.1796 -3.2843
 4481TIP3   OH213448   3.454   4.058   3.970  0.0926 -0.1307 -0.1605
 4481TIP3    H113449   3.456   4.151   3.950  0.5897 -0.0845  0.0779
 4481TIP3    H213450   3.493   4.051   4.057  1.0359 -0.6606 -0.6015
 4482TIP3   OH213451   3.455   0.999   3.578 -0.0685 -0.9974  0.5297
 4482TIP3    H113452   3.363   1.023   3.592  0.3868 -0.1093  2.2954
 4482TIP3    H213453   3.451   0.911   3.540 -1.6696 -0.1335 -1.4978
 4483TIP3   OH213454   0.068   4.888   1.631  0.3501 -0.0331  0.2620
 4483TIP3    H113455  -0.001   4.824   1.611  0.0822  0.4944 -0.5558
 4483TIP3    H213456   0.052   4.913   1.722  1.3928 -2.2497  1.1435
 4484TIP3   OH213457   1.332   2.148   1.700  0.6099  0.5400  0.4632
 4484TIP3    H113458   1.408   2.091   1.709 -0.6285 -1.5976 -1.3221
 4484TIP3    H213459   1.353   2.204   1.625 -0.9121 -2.8875 -2.9284
 4485TIP3   OH213460   0.369   5.684   3.158  0.3666  0.3125  0.1992
 4485TIP3    H113461   0.389   5.643   3.242  1.2739  0.2531 -0.0375
 4485TIP3    H213462   0.325   5.615   3.108  1.3898 -0.2239  0.0032
 4486TIP3   OH213463   4.185   0.773   3.529 -0.2903  0.1689 -0.1711
 4486TIP3    H113464   4.213   0.787   3.619  1.4111  1.5461 -0.8411
 4486TIP3    H213465   4.099   0.732   3.536 -1.0745  1.9787  2.0915
 4487TIP3   OH213466   4.612   4.773   4.737  0.2659  0.2476 -1.0469
 4487TIP3    H113467   4.576   4.811   4.817 -0.6843 -1.6662 -0.5023
 4487TIP3    H213468   4.707   4.788   4.743 -0.0713  2.8557 -1.1211
 4488TIP3   OH213469   6.015   2.426   1.650  0.1520  0.0131 -0.0310
 4488TIP3    H113470   6.066   2.345   1.646  0.9494  0.5399 -1.0562
 4488TIP3    H213471   6.064   2.487   1.595  0.1258  1.5040  1.5226
 4489TIP3   OH213472   6.127   0.608   4.769  0.6371 -0.4153  0.1593
 4489TIP3    H113473   6.149   0.663   4.694 -0.6121 -0.3051 -0.1390
 4489TIP3    H213474   6.172   0.525   4.752  2.2394  0.3580  0.4386
 4490TIP3   OH213475   2.131   3.737   0.507 -0.5373 -1.0041 -0.2495
 4490TIP3    H113476   2.175   3.769   0.428  2.6701  0.2832  1.8396
 4490TIP3    H213477   2.075   3.810   0.534  0.1414 -0.5098 -0.1355
 4491TIP3   OH213478   3.706   2.253   0.904 -0.4097 -0.0397  0.5631
 4491TIP3    H113479   3.767   2.272   0.833 -0.3720  1.6858  1.0029
 4491TIP3    H213480   3.700   2.158   0.907  0.5508 -0.1705 -0.9230
 4492TIP3   OH213481   0.150   5.037   1.893  0.7741 -1.0296 -0.1086
 4492TIP3    H113482   0.187   5.088   1.965 -0.4647  0.2345 -0.3478
 4492TIP3    H213483   0.155   5.095   1.817  1.2141 -2.0203 -0.8633
 4493TIP3   OH213484   3.324   2.714   4.669 -0.0649  0.5411  0.5533
 4493TIP3    H113485   3.272   2.692   4.747 -1.7160 -0.0739 -0.6775
 4493TIP3    H213486   3.268   2.773   4.619  0.0021 -0.8418 -1.2511
 4494TIP3   OH213487   1.240   3.106   5.147 -0.1512  0.1951 -0.3167
 4494TIP3    H113488   1.222   3.028   5.200  0.1536  0.5032  0.2504
 4494TIP3    H213489   1.158   3.156   5.151 -0.3475 -0.0894 -0.6827
 4495TIP3   OH213490   1.345   1.480   4.268 -0.3493  0.2429 -0.2278
 4495TIP3    H113491   1.312   1.460   4.181  1.5149 -1.4548 -0.6050
 4495TIP3    H213492   1.383   1.568   4.260  1.0443 -0.4343 -1.5433
 4496TIP3   OH213493   6.207   3.199   4.577  0.1269 -0.3874  0.0978
 4496TIP3    H113494   6.216   3.293   4.595 -2.4203 -0.3395  1.6779
 4496TIP3    H213495   6.295   3.170   4.553  0.9659  2.4015 -0.5415
 4497TIP3   OH213496   1.571   1.830   3.868  0.2279  0.1320 -0.2499
 4497TIP3    H113497   1.619   1.854   3.789  1.1575  0.5850  0.4449
 4497TIP3    H213498   1.556   1.913   3.914 -0.1022 -0.1522  0.1666
 4498TIP3   OH213499   5.101   5.953   4.515 -0.2906  0.0101  0.3180
 4498TIP3    H113500   5.036   6.009   4.558 -1.9209  0.8257 -2.8856
 4498TIP3    H213501   5.070   5.864   4.533 -1.4592  0.3447  0.0862
 4499TIP3   OH213502   0.598   2.489   5.124 -0.1148 -0.0415 -0.1178
 4499TIP3    H113503   0.587   2.476   5.218 -0.3665 -0.0290 -0.1449
 4499TIP3    H213504   0.687   2.524   5.115 -0.0242 -0.2142  0.0984
 4500TIP3   OH213505   5.875   0.102   2.779 -0.2712 -0.0665 -0.4013
 4500TIP3    H113506   5.835   0.166   2.720  2.2816 -0.3513 -2.6355
 4500TIP3    H213507   5.887   0.024   2.726  1.1486 -0.7087  0.7796
 4501TIP3   OH213508   3.891   5.131   3.863 -0.0140 -1.2199 -0.4585
 4501TIP3    H113509   3.869   5.064   3.928  1.7222 -2.4198 -1.0178
 4501TIP3    H213510   3.882   5.086   3.779 -0.3531 -0.2631 -0.9492
 4502TIP3   OH213511   0.764   3.307   3.643  0.9655  0.5739  0.6462
 4502TIP3    H113512   0.688   3.343   3.597  0.4493 -3.1914 -1.8941
 4502TIP3    H213513   0.830   3.376   3.636 -0.4025  1.7978 -2.3603
 4503TIP3   OH213514   0.435   5.893   2.787  0.2888  0.5534  0.7183
 4503TIP3    H113515   0.362   5.911   2.845 -1.0770  1.4030 -1.1376
 4503TIP3    H213516   0.415   5.807   2.749  1.6377 -0.4300  2.0811
 4504TIP3   OH213517   0.013   2.137   1.010 -0.0942  0.4541  0.2993
 4504TIP3    H113518   0.089   2.190   1.034 -0.8409  1.2934  0.8427
 4504TIP3    H213519  -0.056   2.201   0.992 -0.8891 -0.3191  0.5421
 4505TIP3   OH213520   5.364   2.951   1.360  0.8021 -0.4420  0.0620
 4505TIP3    H113521   5.318   3.032   1.339  1.4386 -0.0644  0.1125
 4505TIP3    H213522   5.297   2.895   1.400  0.9714  1.1174  2.7542
 4506TIP3   OH213523   3.106   3.412   0.521 -0.2884 -0.5042  0.1531
 4506TIP3    H113524   3.183   3.469   0.517  0.3319 -1.2048  1.3916
 4506TIP3    H213525   3.032   3.471   0.507  0.4362  0.2697 -0.5238
 4507TIP3   OH213526   0.211   0.593   3.116  0.3229 -0.6865 -0.5116
 4507TIP3    H113527   0.184   0.543   3.038  1.3148  0.7558 -1.8459
 4507TIP3    H213528   0.305   0.579   3.123  0.1418 -1.3552  0.8795
 4508TIP3   OH213529   5.825   0.599   4.007 -0.0008  0.4335 -0.7890
 4508TIP3    H113530   5.793   0.612   4.096  1.4520  0.2499 -0.2090
 4508TIP3    H213531   5.768   0.531   3.970  0.1565 -0.4116  0.4549
 4509TIP3   OH213532   5.490   4.076   4.727  0.3483 -0.3294 -0.5917
 4509TIP3    H113533   5.395   4.086   4.726  0.3497 -0.3913 -1.4518
 4509TIP3    H213534   5.523   4.165   4.737  0.1960 -0.4009  0.7953
 4510TIP3   OH213535   2.892   4.087   0.417 -0.1495 -0.1756 -0.2017
 4510TIP3    H113536   2.910   4.149   0.346  2.2256  0.4730  0.8960
 4510TIP3    H213537   2.894   4.140   0.497  0.1819 -1.3686  0.6107
 4511TIP3   OH213538   5.165   5.496   4.751  1.0695 -0.2868  0.1207
 4511TIP3    H113539   5.208   5.416   4.721  3.3991  0.6880  0.6407
 4511TIP3    H213540   5.232   5.543   4.800 -0.8943  0.9207  1.8624
 4512TIP3   OH213541   0.147   3.070   4.507 -0.9483  0.5652 -0.1246
 4512TIP3    H113542   0.182   3.143   4.557  0.3391  0.7667 -1.2513
 4512TIP3    H213543   0.167   2.993   4.559  1.2869  0.6653 -0.7174
 4513TIP3   OH213544   3.886   5.455   5.124 -0.4525  0.1593 -0.0757
 4513TIP3    H113545   3.802   5.501   5.119 -2.1465 -2.8520 -1.7391
 4513TIP3    H213546   3.951   5.523   5.104 -2.5084  2.3495  0.1617
 4514TIP3   OH213547   1.100   3.776   4.709  0.0805  0.5838 -0.3147
 4514TIP3    H113548   1.111   3.727   4.627  0.5688  0.3707 -0.1263
 4514TIP3    H213549   1.184   3.820   4.722 -0.1539  0.9952 -0.1713
 4515TIP3   OH213550   4.266   4.330   3.017  0.2466 -0.1746  0.2147
 4515TIP3    H113551   4.334   4.328   3.084 -0.5260  0.4487  1.0411
 4515TIP3    H213552   4.263   4.421   2.988  1.1204 -0.5899 -1.2619
 4516TIP3   OH213553   4.860   3.092   0.484 -0.5851 -0.6738  0.1928
 4516TIP3    H113554   4.943   3.085   0.531 -0.2047  0.6398 -0.2291
 4516TIP3    H213555   4.885   3.099   0.392 -0.9740  1.9236  0.2028
 4517TIP3   OH213556   3.872   4.031   4.155 -0.8935  0.1542 -0.5987
 4517TIP3    H113557   3.895   4.098   4.090  0.4054  0.6431  0.3194
 4517TIP3    H213558   3.951   3.976   4.162 -0.1687  1.3506  2.0127
 4518TIP3   OH213559   3.695   3.743   0.476  0.7374 -0.1199  0.1375
 4518TIP3    H113560   3.743   3.822   0.453 -0.8383  0.9773  0.5094
 4518TIP3    H213561   3.722   3.723   0.566 -1.9191  2.4600  1.6526
 4519TIP3   OH213562   5.463   0.846   0.162 -0.6402 -0.2820  0.2157
 4519TIP3    H113563   5.403   0.911   0.199  1.1777  1.2308  0.6655
 4519TIP3    H213564   5.539   0.847   0.221  1.8497  1.3372 -2.7007
 4520TIP3   OH213565   4.984   3.815   0.649 -0.0324 -0.1383 -0.1602
 4520TIP3    H113566   4.999   3.810   0.743  0.0310 -1.6124 -0.2169
 4520TIP3    H213567   4.897   3.853   0.640  0.1895  0.5388  0.4572
 4521TIP3   OH213568   4.622   1.103   0.475  0.1760  0.7661  0.0851
 4521TIP3    H113569   4.610   1.086   0.569  1.0767  2.3657  0.5308
 4521TIP3    H213570   4.708   1.066   0.455  0.7800  1.9831  0.3401
 4522TIP3   OH213571   0.277   2.947   0.474 -0.1394  0.2460 -0.3397
 4522TIP3    H113572   0.310   2.951   0.384  0.3654 -0.3528 -0.1859
 4522TIP3    H213573   0.218   2.872   0.474  2.5718 -2.0505  0.6710
 4523TIP3   OH213574   4.461   4.485   4.264 -0.1188 -0.2454  0.0775
 4523TIP3    H113575   4.532   4.527   4.216 -0.4884  0.5543  0.2105
 4523TIP3    H213576   4.433   4.551   4.328 -1.0831 -0.4742 -0.0871
 4524TIP3   OH213577   4.294   2.362   1.604  0.3765  0.1991  0.4788
 4524TIP3    H113578   4.298   2.266   1.595 -0.6031  0.0627  1.3804
 4524TIP3    H213579   4.236   2.377   1.678 -0.2222  1.5257 -0.2275
 4525TIP3   OH213580   4.218   2.581   0.759  0.3414  0.3501  0.2625
 4525TIP3    H113581   4.170   2.554   0.680 -0.3804  1.9299  0.1262
 4525TIP3    H213582   4.310   2.578   0.733  0.4648 -2.9568  0.5911
 4526TIP3   OH213583   4.968   1.291   0.239  0.5591  0.2652 -0.6889
 4526TIP3    H113584   4.960   1.357   0.171  1.3178  0.3723 -0.6769
 4526TIP3    H213585   5.054   1.307   0.279  0.7829 -0.7657 -0.7289
 4527TIP3   OH213586   1.231   4.653   3.634 -0.2164 -0.0601 -0.7703
 4527TIP3    H113587   1.174   4.633   3.559 -0.7929 -1.0351 -0.0917
 4527TIP3    H213588   1.172   4.654   3.709  0.3831  0.7661 -0.2978
 4528TIP3   OH213589   0.814   1.238   1.208 -0.0326  0.3666 -0.2899
 4528TIP3    H113590   0.873   1.284   1.148  0.3553 -0.6197 -0.6934
 4528TIP3    H213591   0.812   1.292   1.287 -0.0138  1.3349 -0.9418
 4529TIP3   OH213592   3.519   5.480   0.169  0.1037  0.2874 -0.0021
 4529TIP3    H113593   3.523   5.514   0.079  0.8097 -0.2208 -0.1732
 4529TIP3    H213594   3.436   5.433   0.173 -0.2105  0.8167 -0.2016
 4530TIP3   OH213595   5.616   4.042   3.679 -0.1822 -0.6561 -0.0377
 4530TIP3    H113596   5.654   4.110   3.735 -1.0251  1.0053 -1.3938
 4530TIP3    H213597   5.568   3.985   3.740 -1.6510  1.4646  0.9235
 4531TIP3   OH213598   0.905   1.807   4.412 -0.5685  0.0757  0.0558
 4531TIP3    H113599   0.877   1.895   4.387  0.9175  0.4991 -0.2104
 4531TIP3    H213600   0.931   1.765   4.330 -0.8411 -0.4619  0.2358
 4532TIP3   OH213601   0.110   1.186   2.833  0.1048 -0.0049  0.1671
 4532TIP3    H113602   0.162   1.210   2.909  1.9325 -0.0673 -1.0093
 4532TIP3    H213603   0.127   1.255   2.769 -2.6073  0.8911  0.2762
 4533TIP3   OH213604   3.133   5.577   3.143  0.1387  0.0944  0.6707
 4533TIP3    H113605   3.155   5.557   3.235  2.2261  0.8533  0.4114
 4533TIP3    H213606   3.074   5.507   3.116  0.6036 -0.9416  2.1961
 4534TIP3   OH213607   3.194   5.502   0.020 -0.3573 -0.0377 -0.0209
 4534TIP3    H113608   3.111   5.468  -0.013 -0.4708  1.0490 -0.8869
 4534TIP3    H213609   3.174   5.528   0.110 -0.4905 -1.4063  0.3619
 4535TIP3   OH213610   1.158   1.560   1.821  0.1741  0.1723  0.1331
 4535TIP3    H113611   1.111   1.603   1.748  0.3684  2.1697  1.1136
 4535TIP3    H213612   1.216   1.497   1.778 -2.4972 -1.6005 -1.2007
 4536TIP3   OH213613   1.278   2.262   3.437  0.7463 -0.7666 -0.2789
 4536TIP3    H113614   1.373   2.274   3.448  0.5649 -0.4531  1.1134
 4536TIP3    H213615   1.270   2.180   3.389  1.7206 -0.8907 -0.2516
 4537TIP3   OH213616   1.554   1.132   0.133 -0.3559 -0.2105  0.3802
 4537TIP3    H113617   1.645   1.132   0.103 -0.6428  0.8514 -0.5303
 4537TIP3    H213618   1.552   1.065   0.202  1.1130 -0.2287  0.4399
 4538TIP3   OH213619   2.377   0.310   2.197 -0.7146  0.2337 -0.2572
 4538TIP3    H113620   2.392   0.396   2.157  0.7674  0.3873  0.5693
 4538TIP3    H213621   2.335   0.329   2.281 -0.2040  0.1741  0.0157
 4539TIP3   OH213622   1.560   3.769   4.115 -0.0461 -0.2095 -0.0504
 4539TIP3    H113623   1.625   3.837   4.131  0.3858 -0.2219 -1.5937
 4539TIP3    H213624   1.601   3.710   4.052 -1.3733 -0.4728 -0.7229
 4540TIP3   OH213625   5.586   5.084   0.200  0.0065 -0.4699 -0.3294
 4540TIP3    H113626   5.551   5.141   0.268  1.0971  0.0036 -0.1316
 4540TIP3    H213627   5.624   5.145   0.136  0.5915 -0.9559 -0.4476
 4541TIP3   OH213628   5.478   4.525   0.716 -0.2830  0.1559  0.1130
 4541TIP3    H113629   5.474   4.565   0.803  1.1744  0.0419  0.2587
 4541TIP3    H213630   5.488   4.431   0.734  2.9328  0.3734 -0.0649
 4542TIP3   OH213631   4.798   1.354   3.314  0.4863  0.4446 -0.1506
 4542TIP3    H113632   4.829   1.444   3.320 -0.0804  0.5372  2.9711
 4542TIP3    H213633   4.712   1.355   3.357  0.5472 -1.6002  0.1356
 4543TIP3   OH213634   5.583   2.184   2.978 -0.0456 -0.2287  0.2362
 4543TIP3    H113635   5.649   2.144   3.033 -0.4524 -0.0691  0.8518
 4543TIP3    H213636   5.573   2.123   2.904  1.1992  0.0411 -0.1821
 4544TIP3   OH213637   0.284   2.231   5.081 -0.1515 -0.9916  0.2829
 4544TIP3    H113638   0.205   2.245   5.134  0.2239  0.0477  0.5931
 4544TIP3    H213639   0.351   2.208   5.145  0.3903  0.6190  0.3275
 4545TIP3   OH213640   3.838   2.519   0.029  0.1037 -0.2039  0.1428
 4545TIP3    H113641   3.841   2.593  -0.032 -0.5423  0.0141  0.3691
 4545TIP3    H213642   3.811   2.558   0.112  0.1906 -0.6252  0.3691
 4546TIP3   OH213643   2.786   1.554   2.321 -0.1514  0.7691  0.3848
 4546TIP3    H113644   2.879   1.567   2.303 -0.0355  0.7216  0.9391
 4546TIP3    H213645   2.781   1.467   2.361 -0.3310  1.0962  1.0866
 4547TIP3   OH213646   1.932   2.434   4.427 -0.5244  0.6316 -0.2823
 4547TIP3    H113647   2.000   2.438   4.495 -1.6204 -0.5213  0.9333
 4547TIP3    H213648   1.911   2.525   4.408  1.3163  1.0153 -0.6578
 4548TIP3   OH213649   3.534   0.967   5.158 -0.2969 -0.0383  0.5499
 4548TIP3    H113650   3.619   0.933   5.133 -1.2410 -2.1091 -0.0492
 4548TIP3    H213651   3.518   0.932   5.245 -0.4786  0.4817  0.7327
 4549TIP3   OH213652   2.700   1.413   0.845  0.3566  0.2477 -0.2173
 4549TIP3    H113653   2.741   1.345   0.898  1.2056  1.9862  1.4200
 4549TIP3    H213654   2.703   1.378   0.755  2.5572 -1.0189  0.2915
 4550TIP3   OH213655   0.191   0.991   4.228  0.0193  0.1060 -0.2988
 4550TIP3    H113656   0.143   0.909   4.233 -0.6436  0.4347 -1.0042
 4550TIP3    H213657   0.281   0.968   4.250 -0.4040 -0.5683  0.8004
 4551TIP3   OH213658   3.164   1.520   4.741 -0.4023 -0.3116 -0.5466
 4551TIP3    H113659   3.104   1.591   4.717 -0.0318 -0.6427 -2.6208
 4551TIP3    H213660   3.240   1.564   4.779 -1.3927  0.1774  1.0035
 4552TIP3   OH213661   5.913   4.520   2.715 -0.1780 -0.1128 -0.1060
 4552TIP3    H113662   5.998   4.477   2.716 -0.3524 -0.4681 -0.2793
 4552TIP3    H213663   5.915   4.580   2.790  0.5156  0.4554 -0.5689
 4553TIP3   OH213664   1.769   4.267   2.852 -0.4676 -0.0436  0.1196
 4553TIP3    H113665   1.723   4.336   2.899 -2.5493 -1.8896  0.9489
 4553TIP3    H213666   1.733   4.270   2.763 -2.3965 -1.5239  0.7826
 4554TIP3   OH213667   5.531   3.849   1.973 -0.0789  0.3427  0.3924
 4554TIP3    H113668   5.560   3.822   2.061 -0.0971 -1.4762 -0.1042
 4554TIP3    H213669   5.594   3.915   1.945 -0.3286  1.2793  1.9338
 4555TIP3   OH213670   6.187   0.049   4.491  0.0982  0.4191 -0.1225
 4555TIP3    H113671   6.192   0.027   4.398  1.3474  1.0270 -0.2142
 4555TIP3    H213672   6.178   0.145   4.492  0.5475  0.4597  0.3912
 4556TIP3   OH213673   1.325   0.560   3.462 -0.2519  0.1463 -0.2318
 4556TIP3    H113674   1.335   0.531   3.371 -0.3102 -0.2632 -0.1092
 4556TIP3    H213675   1.406   0.606   3.481 -0.4277  0.6358 -0.6385
 4557TIP3   OH213676   4.418   0.817   0.001 -0.1393  0.6029 -0.7810
 4557TIP3    H113677   4.335   0.798   0.045  0.0599  2.1701  0.3458
 4557TIP3    H213678   4.440   0.906   0.028  1.6718  0.4063 -1.4608
 4558TIP3   OH213679   0.461   2.368   1.204  0.2151  0.1780  0.2297
 4558TIP3    H113680   0.474   2.322   1.287  0.0192  0.7428  0.5816
 4558TIP3    H213681   0.537   2.426   1.196  1.3101 -1.3469 -1.0139
 4559TIP3   OH213682   5.708   4.473   0.027 -0.1585  0.6324  0.3266
 4559TIP3    H113683   5.660   4.489   0.108  1.4768  0.4851  1.3690
 4559TIP3    H213684   5.775   4.408   0.051  0.0390  0.2105 -1.2631
 4560TIP3   OH213685   4.506   3.563   4.227 -0.1673 -0.5052 -0.2402
 4560TIP3    H113686   4.560   3.523   4.295  0.4421  0.3775 -0.1949
 4560TIP3    H213687   4.555   3.640   4.198 -0.8926 -0.2918 -0.9652
 4561TIP3   OH213688   2.798   3.301   1.666  0.1663  0.1775  0.4292
 4561TIP3    H113689   2.832   3.221   1.627  1.3914  0.8295  0.0917
 4561TIP3    H213690   2.731   3.272   1.728  0.4796 -1.0833  0.1960
 4562TIP3   OH213691   2.391   2.854   3.264  0.0942  0.3404  0.4025
 4562TIP3    H113692   2.426   2.766   3.282  0.9249  0.6900  0.5345
 4562TIP3    H213693   2.296   2.844   3.276  0.2603 -0.3138  1.4047
 4563TIP3   OH213694   4.213   3.951   3.312 -0.4916  0.1686  0.6111
 4563TIP3    H113695   4.257   3.871   3.283  1.9766  1.5574  0.1517
 4563TIP3    H213696   4.196   3.999   3.231 -2.9382 -0.3016  0.7949
 4564TIP3   OH213697   0.868   0.890   3.253 -0.5256  0.9164 -0.1209
 4564TIP3    H113698   0.915   0.950   3.311  0.1049 -1.1229  1.5837
 4564TIP3    H213699   0.778   0.891   3.284 -0.1973 -0.1414  0.9349
 4565TIP3   OH213700   1.347   3.322   3.449 -0.0399  0.0009 -0.1284
 4565TIP3    H113701   1.431   3.276   3.441 -0.8195 -1.2582 -1.7256
 4565TIP3    H213702   1.300   3.274   3.517 -0.3682 -0.8414 -0.9241
 4566TIP3   OH213703   2.319   5.420   3.289 -0.0292  0.0518  0.5740
 4566TIP3    H113704   2.373   5.423   3.368  1.2249 -0.7503 -0.2185
 4566TIP3    H213705   2.308   5.327   3.271 -1.5913  0.2046  0.6402
 4567TIP3   OH213706   4.081   1.090   2.727 -0.2647  0.4794 -0.2283
 4567TIP3    H113707   4.106   1.018   2.785 -1.1696  0.3911  0.0718
 4567TIP3    H213708   4.141   1.083   2.653 -1.0906 -1.3501 -0.7920
 4568TIP3   OH213709   1.818   0.485   3.171  0.4621 -0.0689  0.6444
 4568TIP3    H113710   1.885   0.457   3.108  0.7538  0.8977  0.5003
 4568TIP3    H213711   1.792   0.572   3.140 -1.1641 -0.5925  0.4694
 4569TIP3   OH213712   1.908   2.276   1.008 -0.3350 -0.5256 -0.4502
 4569TIP3    H113713   1.982   2.328   0.976 -0.1724 -1.1535 -1.1054
 4569TIP3    H213714   1.947   2.210   1.065 -0.7019  1.1975  1.9598
 4570TIP3   OH213715   2.841   3.009   2.561  0.1345 -0.4890  0.2970
 4570TIP3    H113716   2.913   2.965   2.606  0.7979 -0.9755 -1.2078
 4570TIP3    H213717   2.840   3.097   2.598  1.6055 -0.4238  0.2355
 4571TIP3   OH213718   3.126   5.112   1.710  0.4095 -0.0909 -0.4011
 4571TIP3    H113719   3.115   5.057   1.633 -1.7910 -1.1693  0.5905
 4571TIP3    H213720   3.071   5.189   1.692 -0.7420 -0.7092  0.3709
 4572TIP3   OH213721   2.453   0.748   0.263 -0.5503 -0.1147 -0.0126
 4572TIP3    H113722   2.441   0.840   0.285 -1.4690 -0.1670 -0.2242
 4572TIP3    H213723   2.507   0.748   0.184  2.0550  0.1086  1.6707
 4573TIP3   OH213724   0.470   4.012   3.245 -0.3331  0.1992 -0.4023
 4573TIP3    H113725   0.397   3.964   3.283 -1.7722  1.8347 -0.9551
 4573TIP3    H213726   0.547   3.983   3.294 -1.9333  1.6574  3.3798
 4574TIP3   OH213727   3.007   0.494   3.222  0.2091  1.1875 -0.7147
 4574TIP3    H113728   3.033   0.545   3.298 -1.0364 -1.2537  1.5254
 4574TIP3    H213729   2.918   0.523   3.202 -0.8744 -0.5835  1.1682
 4575TIP3   OH213730   0.217   2.272   0.279 -0.1472  0.2039  0.3446
 4575TIP3    H113731   0.162   2.198   0.254 -0.0882  0.1285  0.4380
 4575TIP3    H213732   0.191   2.342   0.219 -0.2139  0.1127  0.2656
 4576TIP3   OH213733   4.300   1.109   2.538  0.0833 -0.1291  0.7816
 4576TIP3    H113734   4.258   1.092   2.453 -1.3884  0.8430  1.2854
 4576TIP3    H213735   4.383   1.152   2.515  1.6413 -3.4259 -0.2916
 4577TIP3   OH213736   4.894   5.139   1.836  0.0521 -0.6266 -0.1114
 4577TIP3    H113737   4.893   5.186   1.753 -2.8021 -1.2679 -0.5528
 4577TIP3    H213738   4.968   5.079   1.829  0.3343 -0.1140 -1.8523
 4578TIP3   OH213739   6.022   1.749   1.757 -0.0724 -0.1695  0.1351
 4578TIP3    H113740   5.932   1.778   1.768  0.1469 -0.1006  2.1309
 4578TIP3    H213741   6.020   1.655   1.774  0.1883 -0.2452 -0.2164
 4579TIP3   OH213742   5.968   1.971   1.200 -0.1391  0.0850  0.6249
 4579TIP3    H113743   5.951   2.012   1.285  1.1496 -0.3356  1.1121
 4579TIP3    H213744   5.883   1.972   1.156 -0.4771  1.8915  1.2088
 4580TIP3   OH213745   1.543   3.155   1.755 -0.0724 -0.1260 -0.0361
 4580TIP3    H113746   1.572   3.092   1.689  2.5422  0.2877  0.6191
 4580TIP3    H213747   1.483   3.105   1.810  0.9177 -1.7027 -0.3050
 4581TIP3   OH213748   4.751   0.546   0.204  0.1219 -0.0435 -0.4945
 4581TIP3    H113749   4.669   0.582   0.239  1.1060  0.4672  1.4630
 4581TIP3    H213750   4.790   0.619   0.156  0.7676  0.7198  1.0843
 4582TIP3   OH213751   1.280   1.230   3.082 -0.3927  0.2981  0.3907
 4582TIP3    H113752   1.190   1.215   3.111 -0.3755  1.7517  1.3004
 4582TIP3    H213753   1.276   1.226   2.986 -1.4475  0.4716  0.4197
 4583TIP3   OH213754   2.545   4.029   0.902  0.1217 -1.0909 -0.1121
 4583TIP3    H113755   2.577   3.989   0.983 -0.2444 -0.6095  0.2793
 4583TIP3    H213756   2.549   4.123   0.918 -1.5423 -1.0037 -0.0049
 4584TIP3   OH213757   4.939   5.412   2.048  0.1195 -0.0148  0.0421
 4584TIP3    H113758   4.846   5.389   2.049  0.2001 -0.3608 -0.1208
 4584TIP3    H213759   4.963   5.409   1.956  0.7812 -1.9782  0.2298
 4585TIP3   OH213760   3.737   3.162   4.304 -0.3070  0.3393 -0.4518
 4585TIP3    H113761   3.785   3.205   4.375 -0.0731 -1.2303  0.3945
 4585TIP3    H213762   3.659   3.217   4.291 -0.3722  0.6576  1.0519
 4586TIP3   OH213763   0.105   4.894   1.334  0.2013  0.1972 -0.2065
 4586TIP3    H113764   0.118   4.892   1.429 -1.0577  0.8655  0.0027
 4586TIP3    H213765   0.060   4.812   1.313 -1.6626  1.0740  0.1577
 4587TIP3   OH213766   1.499   1.733   1.324  0.2199 -0.8652 -0.3631
 4587TIP3    H113767   1.581   1.730   1.373 -0.0034 -0.9580  0.0128
 4587TIP3    H213768   1.469   1.824   1.334  0.5890 -0.6621 -1.0311
 4588TIP3   OH213769   6.188   5.782   3.027  0.3371  0.9365  0.0751
 4588TIP3    H113770   6.241   5.702   3.020  0.6320  1.1270  0.1412
 4588TIP3    H213771   6.229   5.843   2.967 -2.4214 -0.3158 -3.4717
 4589TIP3   OH213772   4.644   4.363   4.470  0.9062 -0.0315  1.2032
 4589TIP3    H113773   4.714   4.423   4.442 -0.5038  0.8655 -0.5629
 4589TIP3    H213774   4.675   4.330   4.554  3.1812  0.7855  0.7760
 4590TIP3   OH213775   1.698   0.747   1.800  0.0921  0.4399  0.1709
 4590TIP3    H113776   1.622   0.709   1.756 -0.7791 -0.7876  2.5235
 4590TIP3    H213777   1.773   0.712   1.753 -0.7163  1.5594 -2.1293
 4591TIP3   OH213778   3.755   0.743   1.250  0.2053  0.2299  0.1025
 4591TIP3    H113779   3.815   0.816   1.264 -0.8909  1.0219  0.8101
 4591TIP3    H213780   3.672   0.771   1.289 -0.0110 -1.7523  1.2062
 4592TIP3   OH213781   1.746   1.623   3.850 -0.1681  0.4563 -0.3059
 4592TIP3    H113782   1.681   1.562   3.817 -0.4693  0.4180  0.3479
 4592TIP3    H213783   1.695   1.698   3.881 -0.1106 -0.4659  2.2012
 4593TIP3   OH213784   1.319   1.115  -0.016  0.7805  0.0738 -0.5420
 4593TIP3    H113785   1.274   1.046   0.033  1.3934 -0.9875 -1.4281
 4593TIP3    H213786   1.395   1.137   0.037  0.1584  0.6668  0.1335
 4594TIP3   OH213787   5.818   3.713   0.248 -0.2879 -0.3890 -0.6093
 4594TIP3    H113788   5.840   3.744   0.336  0.7101  0.4918 -1.1497
 4594TIP3    H213789   5.791   3.622   0.261 -0.0309 -0.3127  0.5884
 4595TIP3   OH213790   1.227   1.297   1.407  0.2373  0.0982 -0.1285
 4595TIP3    H113791   1.233   1.391   1.424 -0.3990  0.2148 -0.4918
 4595TIP3    H213792   1.291   1.280   1.338  1.1138  0.0628  0.6805
 4596TIP3   OH213793   4.291   0.599   2.797 -0.0695 -0.0884  0.0992
 4596TIP3    H113794   4.379   0.624   2.826  0.2273  0.1655 -0.9541
 4596TIP3    H213795   4.232   0.637   2.862  0.6322 -1.2647  1.4944
 4597TIP3   OH213796   6.132   2.001   4.694  0.0530  0.1277 -0.6900
 4597TIP3    H113797   6.121   1.993   4.788  2.7291  0.2672 -0.3041
 4597TIP3    H213798   6.186   1.926   4.669  1.4269  1.3841 -1.6741
 4598TIP3   OH213799   4.885   4.711   4.655  0.3548 -0.4534 -0.0597
 4598TIP3    H113800   4.887   4.650   4.581 -0.7613 -0.5942  0.0115
 4598TIP3    H213801   4.901   4.797   4.615 -0.6141 -0.4789 -0.5423
 4599TIP3   OH213802   6.205   3.596   2.291  0.6122  0.0706  0.3851
 4599TIP3    H113803   6.173   3.673   2.337  2.4785  0.7518  0.6151
 4599TIP3    H213804   6.171   3.522   2.341 -3.4359  0.5131 -1.2716
 4600TIP3   OH213805   3.606   1.342   1.717  0.2883  0.2355 -0.0680
 4600TIP3    H113806   3.604   1.330   1.622  1.5474  0.2796 -0.1061
 4600TIP3    H213807   3.673   1.282   1.748 -0.2740  0.0467  0.8377
 4601TIP3   OH213808   1.618   4.790   4.892  0.0607  0.3922 -0.4990
 4601TIP3    H113809   1.691   4.777   4.832  1.0574  0.6380  0.6200
 4601TIP3    H213810   1.626   4.881   4.921  0.6922 -0.2111  1.3639
 4602TIP3   OH213811   2.090   2.010   4.137  0.3867  0.7964  0.2487
 4602TIP3    H113812   2.074   1.993   4.044  1.2174 -0.4617  0.3126
 4602TIP3    H213813   2.040   2.089   4.156 -2.0102 -0.4402 -0.6009
 4603TIP3   OH213814   4.957   3.092   0.219  0.1097 -0.3903 -0.0506
 4603TIP3    H113815   4.990   3.160   0.160  0.4376 -0.6168 -0.1305
 4603TIP3    H213816   4.874   3.065   0.180 -0.4067  0.5049  0.3999
 4604TIP3   OH213817   3.479   3.129   2.608 -0.5877 -0.0747 -0.7006
 4604TIP3    H113818   3.428   3.202   2.574 -1.8236 -0.6048 -0.0587
 4604TIP3    H213819   3.480   3.065   2.536  0.6932  0.6199 -1.3490
 4605TIP3   OH213820   2.022   0.482   4.708  0.3115 -0.0015  0.2460
 4605TIP3    H113821   2.065   0.473   4.624 -0.4332  0.2336 -0.1718
 4605TIP3    H213822   2.038   0.400   4.753  0.0053 -0.4561 -0.4636
 4606TIP3   OH213823   4.819   4.118   2.701  0.0744  0.0650 -0.0343
 4606TIP3    H113824   4.889   4.161   2.652 -1.5549  0.4415 -2.1959
 4606TIP3    H213825   4.851   4.115   2.791  3.0178 -0.1403 -0.9605
 4607TIP3   OH213826   0.163   3.617   4.450 -0.1278 -0.4942  0.2434
 4607TIP3    H113827   0.147   3.673   4.525  0.0613 -1.7639  1.2603
 4607TIP3    H213828   0.077   3.606   4.410  0.2011  2.9269 -1.8338
 4608TIP3   OH213829   4.419   5.605   0.565 -0.4209  0.1907  0.7987
 4608TIP3    H113830   4.356   5.674   0.542  0.4027  0.7982  0.2981
 4608TIP3    H213831   4.476   5.599   0.488  1.9770  1.7444  2.2921
 4609TIP3   OH213832   4.984   0.541   0.366 -0.3532 -0.2053 -0.1913
 4609TIP3    H113833   5.036   0.620   0.353  0.5329 -0.7972 -0.3414
 4609TIP3    H213834   4.908   0.553   0.309 -0.9340  1.1275  0.8043
 4610TIP3   OH213835   0.855   2.178   1.627  0.0257 -0.3404 -0.2496
 4610TIP3    H113836   0.900   2.242   1.572 -1.4780  0.7393 -0.3050
 4610TIP3    H213837   0.771   2.219   1.647 -0.9188 -2.2102 -0.0987
 4611TIP3   OH213838   4.907   3.304   1.139  0.5764  0.6236  0.4015
 4611TIP3    H113839   4.925   3.236   1.204  0.3367 -0.4568 -0.6349
 4611TIP3    H213840   4.835   3.270   1.086 -0.5524  2.3197  0.7535
 4612TIP3   OH213841   0.739   3.261   4.341 -0.1048  0.5326 -0.0152
 4612TIP3    H113842   0.726   3.168   4.356  1.9428  0.4334  1.6219
 4612TIP3    H213843   0.700   3.278   4.255 -0.7066 -1.7704 -0.2461
 4613TIP3   OH213844   0.394   1.080   0.279  0.2561  0.0641  0.2512
 4613TIP3    H113845   0.325   1.118   0.224 -0.8303 -2.6237 -0.4257
 4613TIP3    H213846   0.453   1.037   0.217  1.5469  0.7608  0.9645
 4614TIP3   OH213847   1.669   0.604   2.275  0.2280  0.0643  0.4043
 4614TIP3    H113848   1.603   0.557   2.327 -1.1632  1.7213  0.2251
 4614TIP3    H213849   1.750   0.556   2.290 -0.8684 -1.6591  1.1790
 4615TIP3   OH213850   3.586   4.489   0.001  0.2387  0.2059  0.2967
 4615TIP3    H113851   3.545   4.434   0.067  1.5845 -0.0261  0.9781
 4615TIP3    H213852   3.680   4.469   0.008  0.5359  1.0563 -0.8721
 4616TIP3   OH213853   5.274   3.538   1.774  0.2877  0.1877  0.0470
 4616TIP3    H113854   5.275   3.446   1.748 -1.7933  0.1117  0.0958
 4616TIP3    H213855   5.256   3.586   1.694  0.2845  0.4735  0.2168
 4617TIP3   OH213856   4.693   2.590   1.947  0.0825  0.3564 -0.1597
 4617TIP3    H113857   4.661   2.548   1.867 -0.7168 -0.4737  0.5768
 4617TIP3    H213858   4.774   2.633   1.920  0.2609 -0.5932 -1.2314
 4618TIP3   OH213859   6.236   5.555   1.575  0.1074 -0.7762 -0.5002
 4618TIP3    H113860   6.316   5.506   1.558  0.8012 -0.9791  2.8238
 4618TIP3    H213861   6.265   5.642   1.599 -0.4950 -1.2141  2.0471
 4619TIP3   OH213862   2.046   5.160   3.780 -0.2883 -0.4016  0.2337
 4619TIP3    H113863   2.064   5.131   3.691 -0.2546 -1.6828  0.6331
 4619TIP3    H213864   2.077   5.250   3.783 -0.4887 -0.2620 -1.1024
 4620TIP3   OH213865   0.796   4.023   2.235  0.2774  0.0718  0.1289
 4620TIP3    H113866   0.768   4.009   2.145  2.8343  0.6398 -0.8352
 4620TIP3    H213867   0.733   4.086   2.271 -0.0950  0.7656 -1.6439
 4621TIP3   OH213868   5.607   3.192   3.992  0.3753  0.2464  0.2789
 4621TIP3    H113869   5.674   3.241   3.944  1.1880 -1.3069 -0.2448
 4621TIP3    H213870   5.617   3.221   4.083  1.9839 -0.1679  0.2690
 4622TIP3   OH213871   0.495   5.035   2.386  0.2175  0.1733 -0.5651
 4622TIP3    H113872   0.517   4.942   2.386 -0.4786  0.0005 -0.6457
 4622TIP3    H213873   0.579   5.079   2.373  0.5939 -0.4287 -0.2626
 4623TIP3   OH213874   2.690   5.688   0.991 -0.2490 -0.1642  0.1024
 4623TIP3    H113875   2.601   5.709   1.019 -0.3360 -0.7559  0.2833
 4623TIP3    H213876   2.690   5.704   0.896 -0.7085 -0.6939  0.0080
 4624TIP3   OH213877   1.224   2.093   1.930 -0.1047  0.2975  0.0582
 4624TIP3    H113878   1.276   2.078   1.851 -0.2549  0.6146 -0.0981
 4624TIP3    H213879   1.134   2.105   1.899 -0.2286  0.0447  0.3066
 4625TIP3   OH213880   4.458   4.434   2.371  0.3637 -0.1866 -0.0159
 4625TIP3    H113881   4.476   4.349   2.412 -1.2004 -0.8178 -0.5692
 4625TIP3    H213882   4.405   4.413   2.295 -1.6838  1.4024  0.8768
 4626TIP3   OH213883   3.395   3.232   3.606  0.5729 -0.1298 -0.2372
 4626TIP3    H113884   3.437   3.147   3.615 -0.9291 -0.9535 -0.6422
 4626TIP3    H213885   3.375   3.238   3.512  0.8321  0.7585 -0.2403
 4627TIP3   OH213886   1.470   4.839   2.042  0.3371  0.0572  0.2734
 4627TIP3    H113887   1.532   4.873   1.978 -0.5394 -0.8121 -1.1013
 4627TIP3    H213888   1.523   4.816   2.118  1.5987 -0.0700 -0.6252
 4628TIP3   OH213889   0.335   4.341   3.324  0.1937 -0.2543 -0.5732
 4628TIP3    H113890   0.422   4.300   3.327 -0.1359 -0.9267  1.0190
 4628TIP3    H213891   0.341   4.413   3.386 -0.3136 -0.1499 -0.6438
 4629TIP3   OH213892   6.300   2.494   4.875  0.4619 -0.3324  0.0904
 4629TIP3    H113893   6.205   2.509   4.872  0.5549  0.5191  1.0265
 4629TIP3    H213894   6.337   2.579   4.898  1.3320 -0.9952  1.2322
 4630TIP3   OH213895   2.390   4.274   0.126  0.3654  0.9128 -0.5616
 4630TIP3    H113896   2.485   4.265   0.134  0.3056  1.0323  0.4523
 4630TIP3    H213897   2.367   4.226   0.046  0.8611 -2.0771  0.9524
 4631TIP3   OH213898   4.513   0.850   1.848  0.3955  0.1696 -0.4992
 4631TIP3    H113899   4.562   0.768   1.863 -1.6188 -1.1778 -0.9209
 4631TIP3    H213900   4.458   0.832   1.773 -0.6241  1.6994 -0.1634
 4632TIP3   OH213901   0.362   1.177   4.584 -0.1416 -0.7626  0.4049
 4632TIP3    H113902   0.421   1.234   4.534 -0.3829 -1.1775 -0.3610
 4632TIP3    H213903   0.416   1.143   4.656 -0.2602  1.2448  1.5229
 4633TIP3   OH213904   3.821   2.924   4.504  0.6120  0.7433  0.3490
 4633TIP3    H113905   3.735   2.898   4.536  0.6192 -1.2040 -0.9827
 4633TIP3    H213906   3.841   3.005   4.550 -1.4413  0.6602  1.5069
 4634TIP3   OH213907   0.294   5.812   0.824 -0.2418  0.1059  0.0522
 4634TIP3    H113908   0.338   5.786   0.905  1.1836  3.1413  0.3619
 4634TIP3    H213909   0.355   5.786   0.754  2.0434  3.7095  0.4461
 4635TIP3   OH213910   5.250   4.332   5.067 -0.1157 -0.3040  0.1258
 4635TIP3    H113911   5.275   4.333   5.159 -2.4547  0.8124  0.8343
 4635TIP3    H213912   5.256   4.424   5.040  1.7160 -0.7724 -1.2441
 4636TIP3   OH213913   3.032   1.183   2.070  0.0458  0.1141 -0.2477
 4636TIP3    H113914   3.083   1.258   2.039 -0.4215  0.5836  0.1143
 4636TIP3    H213915   2.943   1.217   2.082  0.2742  0.0878  2.0340
 4637TIP3   OH213916   0.457   3.315   1.892  0.0875 -0.1970 -0.1830
 4637TIP3    H113917   0.388   3.249   1.886 -1.0339  1.0588 -2.7828
 4637TIP3    H213918   0.536   3.270   1.862 -0.5532 -0.5411 -1.4282
 4638TIP3   OH213919   0.543  -0.010   1.255 -0.4287 -0.2562  0.6429
 4638TIP3    H113920   0.555   0.046   1.332  0.3100  0.3372  0.1001
 4638TIP3    H213921   0.630  -0.016   1.215 -0.9955  0.2598 -0.7168
 4639TIP3   OH213922   0.683   5.287   4.413 -0.0844 -0.2015  0.1125
 4639TIP3    H113923   0.642   5.228   4.477  1.3200  1.0983  2.3581
 4639TIP3    H213924   0.610   5.324   4.364 -1.2741 -0.9981  1.2079
 4640TIP3   OH213925   1.461   3.307   4.259  0.0974 -0.0294 -0.6246
 4640TIP3    H113926   1.488   3.321   4.350  0.5048 -0.2709 -0.7074
 4640TIP3    H213927   1.368   3.331   4.258  0.0108 -0.3219 -0.0783
 4641TIP3   OH213928   1.586   5.181   0.472 -0.5320 -0.3045  0.0379
 4641TIP3    H113929   1.595   5.160   0.379  2.0900  0.1497  0.0946
 4641TIP3    H213930   1.518   5.122   0.504 -1.5589 -0.4118 -2.1601
 4642TIP3   OH213931   0.354   2.205   4.133 -0.4925  0.5609  0.1784
 4642TIP3    H113932   0.389   2.151   4.203  0.0550  1.3419  0.5230
 4642TIP3    H213933   0.264   2.173   4.120 -0.1424 -0.4971  0.2831
 4643TIP3   OH213934   0.782   0.647   2.015 -0.6839 -0.2911  0.2160
 4643TIP3    H113935   0.789   0.735   1.979 -0.9689  0.1337  1.1835
 4643TIP3    H213936   0.688   0.633   2.027 -0.5881 -0.3670  0.9327
 4644TIP3   OH213937   4.687   5.668   0.879 -0.7057 -0.4929  0.0971
 4644TIP3    H113938   4.765   5.633   0.836  0.6738 -0.3515  2.3388
 4644TIP3    H213939   4.633   5.591   0.898  0.4932 -1.0269  1.5202
 4645TIP3   OH213940   2.870   3.955   3.273 -0.5904 -0.2784  0.3812
 4645TIP3    H113941   2.860   3.902   3.352 -0.5617  0.4038  0.8520
 4645TIP3    H213942   2.844   4.043   3.300 -0.9025 -0.1006 -0.4591
 4646TIP3   OH213943   0.790   0.333   2.124 -0.4370 -0.1821  0.2057
 4646TIP3    H113944   0.754   0.371   2.205  1.7853  0.4006  0.9907
 4646TIP3    H213945   0.850   0.399   2.091  0.7137 -1.5120 -0.4700
 4647TIP3   OH213946   4.156   5.956   3.383 -0.0902  0.0069 -0.0385
 4647TIP3    H113947   4.060   5.962   3.377 -0.2003 -0.5308  0.9504
 4647TIP3    H213948   4.180   5.891   3.317 -0.2625  1.0541 -1.1713
 4648TIP3   OH213949   2.134   2.741   4.915 -1.0168  0.6661 -0.5625
 4648TIP3    H113950   2.087   2.820   4.940 -0.5282  0.7910 -0.0270
 4648TIP3    H213951   2.214   2.743   4.966 -1.1585 -0.3647 -0.2739
 4649TIP3   OH213952   1.867   0.324   0.082 -0.1724  0.1067 -0.1308
 4649TIP3    H113953   1.848   0.374   0.162 -2.1950  1.3863 -1.3335
 4649TIP3    H213954   1.789   0.272   0.066 -0.3909  0.9289 -2.0053
 4650TIP3   OH213955   2.575   1.825   0.426 -0.0215  0.1717 -0.1859
 4650TIP3    H113956   2.604   1.843   0.337  1.3190  1.7162  0.5236
 4650TIP3    H213957   2.644   1.769   0.463 -0.0663  0.3552  0.1857
 4651TIP3   OH213958   6.191   2.817   1.215 -0.5865 -0.0285  0.3047
 4651TIP3    H113959   6.144   2.846   1.293 -1.7608  0.0032 -0.3845
 4651TIP3    H213960   6.134   2.752   1.176  0.2397 -0.4397 -0.2456
 4652TIP3   OH213961   6.197   3.808   1.183  0.2945 -0.1275 -0.9216
 4652TIP3    H113962   6.263   3.795   1.252  0.3470  0.5594 -0.8325
 4652TIP3    H213963   6.153   3.890   1.208 -2.1558 -1.6793  0.2937
 4653TIP3   OH213964   2.412   4.001   3.605  0.5107  0.4066  0.6548
 4653TIP3    H113965   2.466   3.941   3.553  1.1601  1.5302 -0.0264
 4653TIP3    H213966   2.329   4.007   3.557  0.7134  0.5911  0.3131
 4654TIP3   OH213967   3.727   4.483   4.057 -0.1976 -0.1511 -0.5559
 4654TIP3    H113968   3.759   4.501   3.968  0.3386  0.9036 -0.1573
 4654TIP3    H213969   3.638   4.449   4.043  0.2797 -1.0931 -1.5511
 4655TIP3   OH213970   2.269   2.177   1.065  0.7209 -0.2616  0.8116
 4655TIP3    H113971   2.191   2.128   1.092  0.3783  0.2717  0.8000
 4655TIP3    H213972   2.339   2.142   1.121  0.0955  0.5566  2.1730
 4656TIP3   OH213973   3.577   4.088   2.848 -0.1264 -0.0304 -0.1560
 4656TIP3    H113974   3.615   4.148   2.913  0.2960  0.5492 -0.9236
 4656TIP3    H213975   3.649   4.029   2.826 -0.5485 -0.8631  0.6169
 4657TIP3   OH213976   5.057   5.285   0.726  0.1072  0.6215 -1.0311
 4657TIP3    H113977   4.999   5.218   0.762  1.5877 -0.9708 -1.4766
 4657TIP3    H213978   5.011   5.317   0.648 -0.9727  0.7146 -0.3764
 4658TIP3   OH213979   2.360   4.412   2.771  0.7774 -0.0020  0.3744
 4658TIP3    H113980   2.432   4.364   2.729 -0.6122 -2.2539  0.4199
 4658TIP3    H213981   2.358   4.380   2.861 -0.0766  0.3032  0.4739
 4659TIP3   OH213982   2.342   3.478   4.080  0.5812 -0.0890 -0.6715
 4659TIP3    H113983   2.413   3.443   4.133  0.4481 -0.2327 -0.5894
 4659TIP3    H213984   2.297   3.401   4.046 -0.2613 -0.0131  0.2254
 4660TIP3   OH213985   2.394   3.644   0.898  0.4455 -0.3597  0.4826
 4660TIP3    H113986   2.391   3.605   0.810  0.4739  0.1805  0.2400
 4660TIP3    H213987   2.388   3.569   0.957 -0.3049 -0.6716  0.0220
 4661TIP3   OH213988   0.414   1.748   0.008 -0.6290  0.7573 -0.1950
 4661TIP3    H113989   0.497   1.736  -0.038 -0.8028 -0.0583 -0.3233
 4661TIP3    H213990   0.439   1.773   0.097 -0.2296  0.1456 -0.1305
 4662TIP3   OH213991  -0.011   1.456   3.154  0.2074 -0.3482 -0.3469
 4662TIP3    H113992  -0.003   1.362   3.141  1.6283 -0.0052 -2.4126
 4662TIP3    H213993   0.075   1.491   3.132 -0.5763  1.5266 -0.6532
 4663TIP3   OH213994   2.369   3.591  -0.002  0.1949  0.5006 -0.2379
 4663TIP3    H113995   2.386   3.498   0.013  0.0278  0.5677  0.3995
 4663TIP3    H213996   2.441   3.636   0.044  1.4029  0.6483 -2.1765
 4664TIP3   OH213997   1.545   2.112   3.884 -0.0395 -0.1455  0.2674
 4664TIP3    H113998   1.595   2.112   3.965  2.1518 -0.3215 -1.0114
 4664TIP3    H213999   1.556   2.200   3.848 -1.6051  0.1653  0.4782
 4665TIP3   OH214000   1.647   4.363   2.214  0.0466 -0.4194  0.8405
 4665TIP3    H114001   1.673   4.383   2.124 -1.6830  0.2180  0.4349
 4665TIP3    H214002   1.728   4.366   2.264  1.1823 -1.5975 -0.8176
 4666TIP3   OH214003   1.509   1.831   4.230 -0.7094 -0.5553  0.1866
 4666TIP3    H114004   1.422   1.792   4.231 -0.2894 -1.5968  2.1492
 4666TIP3    H214005   1.566   1.762   4.194 -0.8281  0.6577 -2.5911
 4667TIP3   OH214006   1.805   3.712   2.378  0.4866  0.1638  0.3178
 4667TIP3    H114007   1.764   3.796   2.356 -0.9469 -1.1325 -2.5120
 4667TIP3    H214008   1.734   3.658   2.412  1.1412 -0.2773  1.0064
 4668TIP3   OH214009   1.677   5.327   1.519  0.3909 -0.6794 -0.2849
 4668TIP3    H114010   1.757   5.379   1.528 -0.0296 -0.0911  0.1143
 4668TIP3    H214011   1.679   5.267   1.593 -0.2093  0.2618  0.5061
 4669TIP3   OH214012   4.515   2.711   3.478  0.0645  0.3310 -0.6863
 4669TIP3    H114013   4.462   2.668   3.545 -0.1057  2.1979  0.4359
 4669TIP3    H214014   4.586   2.649   3.461 -0.5849 -0.7227  0.3114
 4670TIP3   OH214015   2.066   4.344   3.406  0.2525 -0.0457 -0.5155
 4670TIP3    H114016   2.068   4.348   3.501 -0.0318  1.5101 -0.5476
 4670TIP3    H214017   2.148   4.384   3.378 -0.5078  1.2651 -0.9342
 4671TIP3   OH214018   1.469   3.924   4.484  0.0103 -0.3223 -0.2782
 4671TIP3    H114019   1.482   3.837   4.446 -0.0316  0.1661 -1.4489
 4671TIP3    H214020   1.394   3.960   4.438 -1.2694 -0.4093  1.6031
 4672TIP3   OH214021   0.404   5.121   3.485 -0.1340  0.1339  0.4157
 4672TIP3    H114022   0.315   5.139   3.454  0.0098 -0.0793 -0.1349
 4672TIP3    H214023   0.430   5.042   3.437  1.6853  2.1393 -2.2241
 4673TIP3   OH214024   1.614   3.573   2.053  0.0938 -0.3650 -0.1258
 4673TIP3    H114025   1.707   3.586   2.035  0.4100 -2.0581  0.0905
 4673TIP3    H214026   1.593   3.490   2.011 -0.9070 -0.7916  1.1381
 4674TIP3   OH214027   2.656   3.805   0.587  0.1013 -0.5780 -0.5444
 4674TIP3    H114028   2.574   3.840   0.553  0.2592 -0.1445 -0.4771
 4674TIP3    H214029   2.669   3.724   0.538  1.1248  0.7916 -2.6687
 4675TIP3   OH214030   3.224   5.889   0.133 -0.3343 -0.0180 -0.7171
 4675TIP3    H114031   3.283   5.871   0.206 -1.2619  0.9185  0.2915
 4675TIP3    H214032   3.138   5.901   0.173 -0.7504  1.1870 -1.8908
 4676TIP3   OH214033   3.737   3.877   2.568 -0.6639  0.4046 -0.7828
 4676TIP3    H114034   3.796   3.910   2.636  0.5411  0.0166 -1.5857
 4676TIP3    H214035   3.705   3.794   2.603  0.1884  0.0574 -0.7810
 4677TIP3   OH214036   4.232   1.994   3.041 -0.6833  0.1257  0.2962
 4677TIP3    H114037   4.236   1.927   3.109 -0.7675  0.0494  0.2274
 4677TIP3    H214038   4.200   2.072   3.085 -0.2540  0.2128  0.4486
 4678TIP3   OH214039   3.432   5.976   1.999  0.5641 -0.1888 -0.1855
 4678TIP3    H114040   3.485   5.998   1.922  0.2228 -1.1877 -0.7305
 4678TIP3    H214041   3.393   5.891   1.977 -2.0152  0.9005 -0.1924
 4679TIP3   OH214042   1.227   5.626   5.054  0.0057 -0.1345 -0.1843
 4679TIP3    H114043   1.259   5.703   5.007  2.8840 -0.8460  0.4498
 4679TIP3    H214044   1.200   5.661   5.140  0.8435  0.2587 -0.0705
 4680TIP3   OH214045   0.719   4.137   1.377 -0.0994  0.2579  0.0293
 4680TIP3    H114046   0.689   4.121   1.466  1.3290  0.1027  0.5150
 4680TIP3    H214047   0.683   4.223   1.355  0.3246  0.7438  1.1403
 4681TIP3   OH214048   5.996   3.635   0.501  0.2581  0.3305 -0.7677
 4681TIP3    H114049   6.003   3.727   0.474  1.2864 -0.2098 -2.5053
 4681TIP3    H214050   5.998   3.586   0.419  2.8197 -1.4025  0.2144
 4682TIP3   OH214051   2.831   2.129   4.717  0.1539  0.0098  0.3410
 4682TIP3    H114052   2.775   2.103   4.789 -0.3322  0.4479  0.1276
 4682TIP3    H214053   2.773   2.176   4.657  0.7707  0.5832  0.1804
 4683TIP3   OH214054   3.802   1.747   1.249  0.0370 -0.0018 -0.0234
 4683TIP3    H114055   3.897   1.760   1.259 -0.1029 -0.1626  1.7678
 4683TIP3    H214056   3.765   1.835   1.255  0.0139 -0.0118 -0.0194
 4684TIP3   OH214057   2.625   2.968   4.561 -0.2272 -0.2873  0.4073
 4684TIP3    H114058   2.624   2.891   4.504  1.1966 -1.0539  1.3495
 4684TIP3    H214059   2.666   3.037   4.508  0.4648 -0.7965  0.2748
 4685TIP3   OH214060   2.727   5.512   2.706 -0.0546  0.1850 -0.2186
 4685TIP3    H114061   2.772   5.597   2.717 -1.1760  0.6969  0.5901
 4685TIP3    H214062   2.651   5.532   2.652 -0.1853 -0.3680 -0.2426
 4686TIP3   OH214063   4.576   3.778   2.763 -0.2593  0.2716  0.1209
 4686TIP3    H114064   4.669   3.797   2.751 -0.2402  0.8071  1.0743
 4686TIP3    H214065   4.548   3.746   2.677  0.8506 -0.1353 -0.1171
 4687TIP3   OH214066   3.791   5.750   4.463  0.3465  0.0211 -0.1342
 4687TIP3    H114067   3.855   5.721   4.398  0.5929 -1.1268  0.5834
 4687TIP3    H214068   3.801   5.688   4.535 -0.7729  0.5288  0.4824
 4688TIP3   OH214069   5.744   0.756   2.090 -0.4754 -0.1664  0.0471
 4688TIP3    H114070   5.702   0.718   2.012  0.2787 -0.8123 -0.0537
 4688TIP3    H214071   5.759   0.847   2.066  1.4254 -0.7580 -1.3161
 4689TIP3   OH214072   4.665   3.857   4.352 -0.3124 -0.1164  0.2963
 4689TIP3    H114073   4.661   3.935   4.408  1.0853  0.5294 -0.4675
 4689TIP3    H214074   4.694   3.788   4.411 -1.0888  0.0314  0.8740
 4690TIP3   OH214075   1.502   2.623   0.939  0.0740  0.4664  0.0515
 4690TIP3    H114076   1.592   2.641   0.911  0.8381 -1.0455  1.3276
 4690TIP3    H214077   1.491   2.529   0.924 -1.7571  0.8533 -1.2369
 4691TIP3   OH214078   1.114   2.698   4.172 -0.9438 -0.3176  0.8152
 4691TIP3    H114079   1.107   2.702   4.076 -1.6270 -1.8976  0.7643
 4691TIP3    H214080   1.024   2.687   4.202 -0.6381 -0.8433  1.5604
 4692TIP3   OH214081   2.461   4.290   0.663 -0.1317  0.0813  0.2008
 4692TIP3    H114082   2.399   4.265   0.595 -0.2977  0.3251  0.2645
 4692TIP3    H214083   2.527   4.220   0.661  0.5798  0.7359 -1.1078
 4693TIP3   OH214084   3.340   0.244   4.242  0.9873  0.0380 -0.8090
 4693TIP3    H114085   3.292   0.306   4.186 -1.1409 -0.4031  0.4146
 4693TIP3    H214086   3.335   0.161   4.195  0.7691  0.0432 -0.7946
 4694TIP3   OH214087   0.667   2.361   3.097  0.1979  0.2964 -0.2272
 4694TIP3    H114088   0.672   2.383   3.004  0.0978 -3.9339 -1.4542
 4694TIP3    H214089   0.577   2.331   3.111  0.7241 -1.0058  0.6548
 4695TIP3   OH214090   5.539   1.959   1.654 -0.1042  0.6356  0.5481
 4695TIP3    H114091   5.533   2.053   1.671 -2.5513  0.9253 -1.3139
 4695TIP3    H214092   5.448   1.930   1.645  0.5876 -1.1070 -2.6310
 4696TIP3   OH214093   6.146   1.072   4.440 -0.2699  0.4266 -0.0186
 4696TIP3    H114094   6.089   1.147   4.457  0.3873  1.1262 -0.8542
 4696TIP3    H214095   6.177   1.084   4.351 -0.1057 -0.8199 -0.1589
 4697TIP3   OH214096   6.138   2.289   1.037  0.1320  0.0809 -0.0322
 4697TIP3    H114097   6.053   2.259   1.068  0.4326  0.3919  1.1560
 4697TIP3    H214098   6.120   2.338   0.957 -0.5904 -1.4579 -0.8508
 4698TIP3   OH214099   1.923   0.904   3.571  0.2407  0.2644 -0.4595
 4698TIP3    H114100   2.002   0.957   3.585  0.9275 -0.4329 -1.4922
 4698TIP3    H214101   1.917   0.895   3.476 -2.5478  2.3943 -0.5947
 4699TIP3   OH214102   2.425   4.759   3.619 -0.2212 -0.4675 -0.4661
 4699TIP3    H114103   2.434   4.851   3.596  0.4757  0.3461  2.6506
 4699TIP3    H214104   2.435   4.713   3.535  0.5681  2.1754 -1.9516
 4700TIP3   OH214105   3.480   1.995   1.051  0.8798 -0.2808  0.4109
 4700TIP3    H114106   3.464   1.937   0.977 -0.1386  1.0535 -0.4640
 4700TIP3    H214107   3.413   1.971   1.115  0.6346 -0.2551  0.1655
 4701TIP3   OH214108   5.585   4.034   2.634  0.1468 -0.8852 -0.5341
 4701TIP3    H114109   5.615   4.080   2.712 -0.1428 -0.9981 -0.3537
 4701TIP3    H214110   5.649   3.964   2.622  0.4488 -0.5885 -0.6656
 4702TIP3   OH214111   0.372   5.518   3.381 -0.0606 -0.5868  0.1355
 4702TIP3    H114112   0.317   5.453   3.425 -0.3644 -1.4227 -1.3819
 4702TIP3    H214113   0.461   5.488   3.394 -0.0722 -0.2373  1.0619
 4703TIP3   OH214114   5.069   1.653   4.082  0.0611  0.3502  0.6657
 4703TIP3    H114115   5.067   1.562   4.053  0.1194  1.1352 -2.0642
 4703TIP3    H214116   5.151   1.687   4.047 -1.3614  2.2110 -1.0825
 4704TIP3   OH214117   3.751   0.960   3.397  0.2919  0.1888  0.0821
 4704TIP3    H114118   3.717   1.040   3.436 -0.4364 -0.6079  1.1342
 4704TIP3    H214119   3.846   0.968   3.406  0.3890  1.8256 -1.6772
 4705TIP3   OH214120   1.761   4.243   0.600  0.3342  0.1201 -0.4784
 4705TIP3    H114121   1.678   4.199   0.618  1.6319 -1.6691  1.7473
 4705TIP3    H214122   1.758   4.323   0.652  1.1399 -1.4936  2.2830
 4706TIP3   OH214123   3.039   4.911   0.612 -0.3680  0.5661 -0.2378
 4706TIP3    H114124   3.122   4.939   0.650 -0.3164 -0.0490  0.1253
 4706TIP3    H214125   2.987   4.881   0.687 -0.5383  0.0198 -0.5648
 4707TIP3   OH214126   5.055   4.218   2.635 -0.2028  0.1243  0.0569
 4707TIP3    H114127   5.088   4.256   2.717 -1.6912  0.2282  0.6518
 4707TIP3    H214128   5.127   4.164   2.603  1.0175  1.3763  0.5583
 4708TIP3   OH214129   4.334   4.990   0.419 -0.4513  0.1490 -0.3737
 4708TIP3    H114130   4.326   5.064   0.479 -0.2045  1.0845 -1.4700
 4708TIP3    H214131   4.424   4.959   0.431 -0.6316 -0.1534  0.2646
 4709TIP3   OH214132   5.913   4.042   3.359 -0.2905  0.2059  0.0879
 4709TIP3    H114133   5.912   3.948   3.376  4.2117 -0.1400 -0.2931
 4709TIP3    H214134   5.894   4.049   3.265 -1.5084 -0.1938  0.2897
 4710TIP3   OH214135   1.701   3.557   5.140 -0.4693  0.0608 -0.1204
 4710TIP3    H114136   1.638   3.628   5.148  1.6709  2.0139  0.4872
 4710TIP3    H214137   1.749   3.557   5.223  0.2063 -1.5011 -0.4643
 4711TIP3   OH214138   1.232   1.088   0.598  0.5377 -0.5075  0.2498
 4711TIP3    H114139   1.141   1.089   0.568 -0.6857  4.1335  3.1365
 4711TIP3    H214140   1.237   1.012   0.656 -2.0547 -0.0855  1.1922
 4712TIP3   OH214141   3.593   5.171   4.422  0.0824 -0.1560  0.5914
 4712TIP3    H114142   3.614   5.078   4.418  0.2614 -0.0831 -1.2669
 4712TIP3    H214143   3.506   5.177   4.384  0.1327  0.4462  0.5669
 4713TIP3   OH214144   1.945   3.370   2.334  0.1071 -0.1245 -0.0978
 4713TIP3    H114145   1.949   3.380   2.430 -1.1831 -0.1407 -0.0172
 4713TIP3    H214146   1.852   3.354   2.316  0.4965 -1.2792 -1.2524
 4714TIP3   OH214147   2.150   0.624   1.137  0.3398  0.4268  0.1702
 4714TIP3    H114148   2.237   0.654   1.164  1.0221 -1.0537 -0.2540
 4714TIP3    H214149   2.164   0.587   1.049 -0.7018  0.1109  0.1240
 4715TIP3   OH214150   0.674   3.644   4.549 -0.1929  0.3383  0.1553
 4715TIP3    H114151   0.736   3.578   4.518  0.3350  1.0465 -0.3334
 4715TIP3    H214152   0.588   3.611   4.521 -0.0252 -0.5355  0.6318
 4716TIP3   OH214153   1.500   2.075   2.089  0.0657 -0.0409  0.5983
 4716TIP3    H114154   1.543   1.991   2.071 -1.5221 -0.7300 -0.1399
 4716TIP3    H214155   1.406   2.054   2.090 -0.3901  1.8155 -0.0844
 4717TIP3   OH214156   2.764   4.383   4.607  0.6397 -0.0824  0.6044
 4717TIP3    H114157   2.836   4.384   4.543  2.1230 -0.9669  2.1762
 4717TIP3    H214158   2.732   4.293   4.604  0.2067  0.0745  0.5650
 4718TIP3   OH214159   6.031   4.197   0.528  0.2808 -0.2793  0.5642
 4718TIP3    H114160   6.029   4.111   0.571 -0.4708 -0.6481 -0.1846
 4718TIP3    H214161   6.125   4.216   0.519  0.4642 -1.0647  0.6543
 4719TIP3   OH214162   3.222   2.669   3.846 -0.0698 -0.1850 -0.4877
 4719TIP3    H114163   3.242   2.740   3.784 -0.7380  0.4135 -0.0486
 4719TIP3    H214164   3.290   2.676   3.913 -1.6595  1.9295  1.0784
 4720TIP3   OH214165   3.279   1.615   1.382 -0.2618 -0.5755 -0.0554
 4720TIP3    H114166   3.256   1.624   1.289 -0.1392  0.7215  0.0262
 4720TIP3    H214167   3.197   1.589   1.424 -1.0861  1.6297 -0.1373
 4721TIP3   OH214168   4.624   3.322   2.274  0.0436 -0.5740 -0.6161
 4721TIP3    H114169   4.658   3.239   2.307 -1.3848 -1.4295 -1.2083
 4721TIP3    H214170   4.529   3.315   2.285 -0.2538  0.2211 -2.3994
 4722TIP3   OH214171   2.904   1.560   4.992  0.1643 -0.0508  0.0337
 4722TIP3    H114172   2.847   1.550   4.915  0.8323  1.2487 -0.6619
 4722TIP3    H214173   2.954   1.640   4.975 -0.1336  0.6489  2.1277
 4723TIP3   OH214174   5.264   4.221   3.841  0.2187 -0.6056  0.6855
 4723TIP3    H114175   5.293   4.289   3.780  0.6093 -1.5046 -0.1660
 4723TIP3    H214176   5.177   4.248   3.868  0.8447  0.8637  1.3352
 4724TIP3   OH214177   6.190   0.169   3.712  0.1698 -0.0960  0.3462
 4724TIP3    H114178   6.245   0.095   3.688  2.2086 -0.2689  4.5933
 4724TIP3    H214179   6.250   0.242   3.721 -1.5775  1.8311 -2.1908
 4725TIP3   OH214180   0.184   5.596   2.608 -0.5661 -0.4665  0.6019
 4725TIP3    H114181   0.217   5.644   2.532 -1.5480 -0.4117  0.2047
 4725TIP3    H214182   0.262   5.581   2.662 -0.0650  0.6584  0.2324
 4726TIP3   OH214183   0.812   2.487   3.297 -0.2943  0.0333 -0.2861
 4726TIP3    H114184   0.777   2.456   3.214 -0.1082 -0.6013 -0.1411
 4726TIP3    H214185   0.735   2.490   3.355 -0.0887 -1.7058  0.1315
 4727TIP3   OH214186   3.853   2.247   5.173 -0.1124 -0.2960 -0.1381
 4727TIP3    H114187   3.917   2.316   5.158 -1.3393  0.6810 -1.1534
 4727TIP3    H214188   3.866   2.185   5.102 -0.4213  0.0207 -0.4772
 4728TIP3   OH214189   5.322   1.469   3.358  0.2048 -0.4997 -0.4956
 4728TIP3    H114190   5.354   1.468   3.448  0.2809 -2.0727 -0.5160
 4728TIP3    H214191   5.398   1.444   3.305 -0.2110 -1.0846 -0.8365
 4729TIP3   OH214192   0.327   3.465   4.858 -0.0905 -0.1101 -0.1157
 4729TIP3    H114193   0.306   3.515   4.937 -0.1489  1.7344 -1.2408
 4729TIP3    H214194   0.252   3.405   4.848  0.8304 -1.8490  2.2552
 4730TIP3   OH214195   4.174   3.081   4.978  0.1915  0.1627  0.0209
 4730TIP3    H114196   4.171   3.155   5.039 -1.8645  0.6472 -0.5944
 4730TIP3    H214197   4.190   3.121   4.892  0.0252 -0.2120 -0.1847
 4731TIP3   OH214198   0.085   3.088   3.449  0.1189 -0.0638 -0.1604
 4731TIP3    H114199   0.096   3.020   3.382  0.8879  0.0122 -0.1203
 4731TIP3    H214200   0.174   3.105   3.480  0.0397  1.5087 -0.7063
 4732TIP3   OH214201   3.767   2.639   0.478 -0.1319 -1.0012 -0.4102
 4732TIP3    H114202   3.838   2.604   0.532  1.1761 -1.5054 -2.3740
 4732TIP3    H214203   3.780   2.733   0.480 -0.0681 -1.0142  0.0814
 4733TIP3   OH214204   4.351   3.954   4.274  0.3677  0.2330 -0.9412
 4733TIP3    H114205   4.446   3.946   4.266  0.3669 -3.4806  0.6981
 4733TIP3    H214206   4.338   4.029   4.332  2.5400 -0.7577  0.9954
 4734TIP3   OH214207   4.696   1.881   1.139 -0.2768 -0.3063 -0.0016
 4734TIP3    H114208   4.608   1.866   1.105 -0.1924  0.7859 -0.7563
 4734TIP3    H214209   4.683   1.933   1.218 -0.2915  0.1124 -0.2804
 4735TIP3   OH214210   3.561   4.551   3.711  0.0880 -0.0959 -0.4958
 4735TIP3    H114211   3.466   4.540   3.710  0.1894 -1.0716 -1.0968
 4735TIP3    H214212   3.595   4.462   3.717  0.9692  0.2311 -0.4640
 4736TIP3   OH214213   3.967   1.915   1.027 -0.5461 -0.3214 -0.2112
 4736TIP3    H114214   3.942   1.937   0.937 -0.9428  0.3933  0.0669
 4736TIP3    H214215   4.021   1.837   1.018 -0.5307 -0.2231 -1.0785
 4737TIP3   OH214216   2.020   3.581   3.362  0.4940  0.0372 -0.1783
 4737TIP3    H114217   2.096   3.565   3.306  0.7845 -0.3265  0.3024
 4737TIP3    H214218   1.949   3.602   3.302  1.4003  2.2467 -0.5823
 4738TIP3   OH214219   5.114   1.444   3.625  0.0449  0.0301 -0.3850
 4738TIP3    H114220   5.200   1.479   3.600  1.6213 -2.2532  1.3352
 4738TIP3    H214221   5.118   1.351   3.601 -1.9886 -0.1231 -0.3235
 4739TIP3   OH214222   5.741   3.419   3.817 -0.2184  0.0889  0.0860
 4739TIP3    H114223   5.713   3.418   3.725 -0.3449 -0.9824  0.1183
 4739TIP3    H214224   5.820   3.472   3.817  0.4034 -0.7897 -0.8553
 4740TIP3   OH214225   5.309   3.742   0.959  0.0723 -0.0941 -1.0130
 4740TIP3    H114226   5.236   3.746   1.021  1.4544  1.1276  0.6558
 4740TIP3    H214227   5.317   3.831   0.926  0.2304 -0.4304 -1.9088
 4741TIP3   OH214228   5.587   0.419   0.195 -0.3906  0.5112 -0.1975
 4741TIP3    H114229   5.542   0.336   0.213 -0.0219  0.4132  0.2988
 4741TIP3    H214230   5.542   0.483   0.251 -0.3914  0.5627 -0.2562
 4742TIP3   OH214231   6.101   2.674   3.258  0.1768 -0.2164 -0.0218
 4742TIP3    H114232   6.171   2.706   3.315 -0.0641 -0.7638  0.5970
 4742TIP3    H214233   6.051   2.752   3.234 -1.6017 -0.2310  3.0495
 4743TIP3   OH214234   4.370   2.700   4.521  0.3951 -0.0132 -0.0258
 4743TIP3    H114235   4.320   2.679   4.600 -2.2103 -1.4294 -1.9036
 4743TIP3    H214236   4.451   2.649   4.530 -1.0904 -2.4517  0.5205
 4744TIP3   OH214237   4.050   4.687   1.980  0.1477 -0.1875 -0.3011
 4744TIP3    H114238   4.107   4.625   2.025 -0.6599 -2.9376 -2.7656
 4744TIP3    H214239   4.098   4.710   1.901 -1.9901 -2.6476 -2.4847
 4745TIP3   OH214240   2.866   2.215   3.110  0.2775  0.8388 -0.3383
 4745TIP3    H114241   2.882   2.129   3.071  1.7839 -0.0564  1.9978
 4745TIP3    H214242   2.889   2.278   3.042 -2.6719 -0.4910 -2.7816
 4746TIP3   OH214243   0.828   1.987   1.941  0.3464  0.0315 -0.2753
 4746TIP3    H114244   0.870   2.043   1.876  0.6613  2.1229  1.6341
 4746TIP3    H214245   0.738   1.978   1.909  0.0769  2.2590 -0.3003
 4747TIP3   OH214246   1.410   0.180   4.427 -0.2260 -0.0392 -0.2428
 4747TIP3    H114247   1.386   0.267   4.458  1.5801  0.0930  0.9119
 4747TIP3    H214248   1.365   0.120   4.486 -0.9697  0.0966 -0.6542
 4748TIP3   OH214249   2.013   1.094   3.315  0.1244  0.6108  0.1245
 4748TIP3    H114250   2.049   1.165   3.368 -1.1014  1.1939  0.2140
 4748TIP3    H214251   1.927   1.126   3.288 -0.5168 -0.8988  0.2928
 4749TIP3   OH214252   1.462   5.265   4.839  0.1055 -0.6169 -0.3759
 4749TIP3    H114253   1.490   5.336   4.897  0.6543 -0.0968 -1.2572
 4749TIP3    H214254   1.441   5.192   4.898 -0.9100  0.4084  0.5775
 4750TIP3   OH214255   3.402   0.754   3.446  0.7354  0.2913 -0.3680
 4750TIP3    H114256   3.334   0.688   3.460  1.5729 -0.3523  0.8355
 4750TIP3    H214257   3.372   0.804   3.370 -2.2095  1.4747  1.4142
 4751TIP3   OH214258   4.810   2.536   1.148 -0.4469 -0.1918 -0.1691
 4751TIP3    H114259   4.715   2.545   1.156 -0.3115  1.4776 -0.0170
 4751TIP3    H214260   4.839   2.508   1.235 -0.6956  0.6415  0.1958
 4752TIP3   OH214261   5.748   4.446   3.264  0.5432 -0.4702 -0.3364
 4752TIP3    H114262   5.712   4.534   3.260  0.6115 -0.3842  0.7507
 4752TIP3    H214263   5.755   4.426   3.357 -1.0855 -2.2982 -0.5282
 4753TIP3   OH214264   6.264   3.215   0.871 -0.4551 -0.4285 -0.3562
 4753TIP3    H114265   6.328   3.221   0.799  1.1416  1.2149  1.1013
 4753TIP3    H214266   6.297   3.145   0.926  2.0316  2.3362  2.0121
 4754TIP3   OH214267   5.884   2.242   1.076  0.1330 -0.0619 -0.6216
 4754TIP3    H114268   5.916   2.259   1.165  1.3927  0.1885 -1.0949
 4754TIP3    H214269   5.793   2.215   1.088  0.2263  0.1312  0.7278
 4755TIP3   OH214270   2.509   5.582   2.948  0.4076 -0.6372  0.7324
 4755TIP3    H114271   2.466   5.652   2.901 -0.4451  0.2630  2.7611
 4755TIP3    H214272   2.471   5.502   2.912  0.2257 -0.0244 -0.4875
 4756TIP3   OH214273   5.992   3.005   4.960  0.5982  0.3867 -0.1134
 4756TIP3    H114274   6.041   2.928   4.930 -0.3375  0.3129 -1.4941
 4756TIP3    H214275   5.916   2.968   5.006  1.2349  0.5058  1.0714
 4757TIP3   OH214276   3.086   4.543   0.687 -0.0228  0.2655 -0.0816
 4757TIP3    H114277   3.053   4.496   0.764 -0.0379  0.7607  0.2189
 4757TIP3    H214278   3.006   4.566   0.638 -0.1373  1.2734  0.5357
 4758TIP3   OH214279   4.433   1.320   2.711  0.1215 -0.5350  0.9022
 4758TIP3    H114280   4.375   1.364   2.648 -0.3236 -0.0276  1.6564
 4758TIP3    H214281   4.516   1.310   2.664  0.0264  0.5067  0.4849
 4759TIP3   OH214282   2.251   1.305   5.159  0.0425 -0.4627  0.5054
 4759TIP3    H114283   2.210   1.227   5.123 -1.1553 -0.9606  2.7503
 4759TIP3    H214284   2.329   1.272   5.205 -0.5512 -0.3911  1.5898
 4760TIP3   OH214285   4.445   2.606   2.362 -0.0610  0.1840  0.1000
 4760TIP3    H114286   4.529   2.640   2.332  0.2694 -1.4978 -1.0380
 4760TIP3    H214287   4.426   2.656   2.441  1.9142  0.7292  0.2921
 4761TIP3   OH214288   3.318   4.834   3.015  0.4169  0.4158  0.3391
 4761TIP3    H114289   3.314   4.746   2.980 -0.4266  0.7244 -0.3666
 4761TIP3    H214290   3.232   4.871   2.998  0.3154  0.9297  1.8284
 4762TIP3   OH214291   5.066   4.773   4.312  0.0023 -0.1670 -0.1999
 4762TIP3    H114292   5.014   4.851   4.332  1.5419  0.5710  1.1864
 4762TIP3    H214293   5.015   4.701   4.349 -1.3302  0.1619 -1.2959
 4763TIP3   OH214294   2.059   2.031   4.491 -0.0390 -0.3979 -0.3409
 4763TIP3    H114295   2.145   2.072   4.487 -0.6126  1.0080  0.6744
 4763TIP3    H214296   2.072   1.942   4.460  2.3730 -1.1806  2.4723
 4764TIP3   OH214297   3.152   3.881   4.795 -0.7844 -0.5963 -0.6077
 4764TIP3    H114298   3.191   3.799   4.767 -0.1136 -0.1550 -0.9843
 4764TIP3    H214299   3.181   3.892   4.886 -0.3601 -0.4696 -0.7567
 4765TIP3   OH214300   5.525   3.300   0.216  0.3388 -0.6914  0.4263
 4765TIP3    H114301   5.511   3.206   0.205 -0.6993 -0.6034  0.8429
 4765TIP3    H214302   5.511   3.337   0.129  0.5107 -0.8972  0.3108
 4766TIP3   OH214303   4.947   0.034   4.558  0.0112  0.4582 -0.0313
 4766TIP3    H114304   4.985   0.017   4.472  2.3108 -0.6163  1.1194
 4766TIP3    H214305   5.009  -0.003   4.620 -2.6907 -0.9564  2.0699
 4767TIP3   OH214306   5.092   3.576   0.633 -0.1517  0.2944  0.0411
 4767TIP3    H114307   5.039   3.656   0.629 -0.3858  0.1692  0.5711
 4767TIP3    H214308   5.181   3.607   0.646 -0.4481  0.4451  1.9727
 4768TIP3   OH214309   2.502   1.778   0.015  0.1482  0.2183  0.4294
 4768TIP3    H114310   2.411   1.759   0.040 -1.2983  3.9437 -1.1434
 4768TIP3    H214311   2.536   1.830   0.087  1.7394 -2.4623  1.7476
 4769TIP3   OH214312   1.332   3.249   3.140  0.8946  0.0610  0.2006
 4769TIP3    H114313   1.322   3.289   3.227 -1.2844 -0.3846  0.1976
 4769TIP3    H214314   1.289   3.164   3.147  0.3980  0.1485 -1.4088
 4770TIP3   OH214315   1.364   3.568   1.568 -0.2768 -0.5875 -0.0872
 4770TIP3    H114316   1.369   3.532   1.479  0.5569 -2.4547  0.6528
 4770TIP3    H214317   1.441   3.532   1.612  0.6225  2.1715  0.7897
 4771TIP3   OH214318   5.937   2.218   2.928  0.1780 -0.0186 -0.1410
 4771TIP3    H114319   5.954   2.145   2.869 -2.8697  0.4876 -1.8456
 4771TIP3    H214320   5.988   2.290   2.893  0.0974 -0.3035 -0.8694
 4772TIP3   OH214321   3.875   3.272   2.971 -0.2197 -0.2133 -0.1431
 4772TIP3    H114322   3.874   3.309   3.059  0.4648 -1.3767  0.3952
 4772TIP3    H214323   3.942   3.203   2.976 -0.2166 -0.3402 -1.5595
 4773TIP3   OH214324   2.994   3.497   2.792  0.0734  0.6766 -0.0722
 4773TIP3    H114325   3.044   3.532   2.718  1.3810  1.2697  1.0570
 4773TIP3    H214326   3.050   3.513   2.868 -0.8932 -0.6496  0.9475
 4774TIP3   OH214327   6.313   1.660   4.853  0.2717  1.0596 -0.1236
 4774TIP3    H114328   6.350   1.646   4.940 -0.3580  0.9365  0.1301
 4774TIP3    H214329   6.311   1.573   4.813  0.1372  1.0430 -0.0831
 4775TIP3   OH214330   1.431   0.113   4.927  0.4985  0.2071 -0.0219
 4775TIP3    H114331   1.422   0.112   5.023 -0.2576 -0.3903 -0.0893
 4775TIP3    H214332   1.440   0.206   4.905  1.1762  0.3200  0.6653
 4776TIP3   OH214333   1.084   4.016   2.193  0.4376  0.0497  0.1429
 4776TIP3    H114334   0.999   4.020   2.237  0.1171 -0.4741 -0.4172
 4776TIP3    H214335   1.147   4.030   2.263 -0.1515  2.7431  0.2193
 4777TIP3   OH214336   4.824   5.084   2.094  0.2027  0.1444 -0.4360
 4777TIP3    H114337   4.851   5.119   2.009  1.5776 -0.7938 -0.4104
 4777TIP3    H214338   4.892   5.021   2.117 -1.5028 -1.5962  0.1307
 4778TIP3   OH214339   1.192   4.255   2.812 -0.4574 -0.2175  0.7063
 4778TIP3    H114340   1.100   4.276   2.831 -0.2466  0.6980  0.7517
 4778TIP3    H214341   1.215   4.313   2.739 -0.0662 -0.8195  0.3439
 4779TIP3   OH214342   0.805   5.546   2.522 -0.0539 -0.2425  0.8367
 4779TIP3    H114343   0.883   5.491   2.511  0.5519  0.6878  0.2065
 4779TIP3    H214344   0.841   5.633   2.540 -0.9747  0.0559  1.2591
 4780TIP3   OH214345   2.320   2.004   4.274 -0.3439  0.3784  0.9364
 4780TIP3    H114346   2.236   2.007   4.228  0.2526 -0.1355 -0.2400
 4780TIP3    H214347   2.340   2.095   4.293 -0.6191  0.5991  0.1923
 4781TIP3   OH214348   2.904   2.901   1.593  0.4343 -0.0769  0.7973
 4781TIP3    H114349   2.943   2.980   1.556 -1.2851  0.7424  0.6109
 4781TIP3    H214350   2.969   2.869   1.656  1.6593  0.8069  0.0246
 4782TIP3   OH214351   2.589   0.500   3.596  0.0736  0.0059  0.2293
 4782TIP3    H114352   2.642   0.536   3.667  1.0485  1.2160 -1.0524
 4782TIP3    H214353   2.510   0.467   3.639  0.0567  1.8575  1.7349
 4783TIP3   OH214354   1.911   1.662   4.225 -0.8520  0.6009  0.3463
 4783TIP3    H114355   1.827   1.633   4.191 -0.9406  0.9092  0.2988
 4783TIP3    H214356   1.893   1.748   4.264 -0.9868 -0.2072  2.1658
 4784TIP3   OH214357   4.681   4.463   0.095 -0.3381 -0.2886  0.1253
 4784TIP3    H114358   4.758   4.511   0.064  0.1346 -1.4994 -0.6727
 4784TIP3    H214359   4.616   4.530   0.114  0.2560  0.6588 -1.0534
 4785TIP3   OH214360   5.258   2.378   0.068  0.2556  0.4534 -0.4838
 4785TIP3    H114361   5.240   2.465   0.033 -2.6936 -0.1142 -0.6793
 4785TIP3    H214362   5.275   2.324  -0.010 -1.3093  0.2179 -0.6992
 4786TIP3   OH214363   3.027   1.675   2.756 -0.2026  0.2803  0.4178
 4786TIP3    H114364   2.933   1.680   2.737 -0.2452  1.3048  0.8319
 4786TIP3    H214365   3.055   1.767   2.760  0.6331 -0.0006  1.1777
 4787TIP3   OH214366   6.170   3.670   0.734 -0.0499 -0.0921 -0.2550
 4787TIP3    H114367   6.096   3.647   0.790 -0.3111  1.6413  0.1594
 4787TIP3    H214368   6.139   3.652   0.645 -0.7080 -0.0611 -0.0363
 4788TIP3   OH214369   0.253   5.343   1.064 -0.0722 -0.2857 -0.1286
 4788TIP3    H114370   0.260   5.395   0.984 -0.7617 -0.2509 -0.1725
 4788TIP3    H214371   0.172   5.294   1.054  0.1366 -0.7229  0.2931
 4789TIP3   OH214372   1.136   1.243   4.137 -0.0541 -0.5765  0.2987
 4789TIP3    H114373   1.064   1.279   4.086  1.0072 -2.5477 -2.8988
 4789TIP3    H214374   1.193   1.317   4.155  0.1824  0.0967 -2.6981
 4790TIP3   OH214375   1.557   0.970   3.176  0.4113  0.2956  0.3034
 4790TIP3    H114376   1.467   0.939   3.164  0.5081  0.2605 -0.3703
 4790TIP3    H214377   1.548   1.064   3.191  0.3483  0.6044 -1.4123
 4791TIP3   OH214378   4.775   5.050   3.659 -0.2057 -0.1937 -0.1597
 4791TIP3    H114379   4.857   5.086   3.627 -0.3367  1.0237  0.7831
 4791TIP3    H214380   4.795   5.021   3.748 -0.5842 -0.7191 -0.2407
 4792TIP3   OH214381   5.455   0.847   4.003  0.9067 -0.1059  0.1283
 4792TIP3    H114382   5.526   0.853   4.067 -0.0282 -0.9568  1.2828
 4792TIP3    H214383   5.500   0.850   3.918  2.3555 -0.9209  0.8193
 4793TIP3   OH214384   6.266   4.478   1.887 -0.0592 -0.4023 -0.4544
 4793TIP3    H114385   6.299   4.455   1.974  0.9316 -0.1973 -0.7661
 4793TIP3    H214386   6.343   4.476   1.831 -0.5544  0.2382 -1.1764
 4794TIP3   OH214387   0.894   1.935   1.532  0.3046 -0.4562 -0.2909
 4794TIP3    H114388   0.817   1.889   1.564  0.6178  0.0507  1.2894
 4794TIP3    H214389   0.884   2.024   1.564  0.6459  0.1032 -1.6675
 4795TIP3   OH214390   3.997   1.538   4.220 -0.0133 -0.1128 -0.1957
 4795TIP3    H114391   4.086   1.547   4.186 -0.2103  0.7576 -0.4944
 4795TIP3    H214392   3.953   1.480   4.158  0.0651  0.2547 -0.5964
 4796TIP3   OH214393   3.332   5.285   1.690  0.0012  0.0333  0.0263
 4796TIP3    H114394   3.398   5.277   1.758 -1.9005  0.1521  2.0135
 4796TIP3    H214395   3.262   5.225   1.717 -0.2917 -0.9475 -2.5747
 4797TIP3   OH214396   3.176   0.675   3.971 -0.1304 -0.0626 -0.6489
 4797TIP3    H114397   3.105   0.722   4.013 -0.0616 -1.2072  0.8638
 4797TIP3    H214398   3.134   0.606   3.920 -0.1533  0.3385 -1.1816
 4798TIP3   OH214399   1.905   5.251   4.388 -0.0035 -0.0060  0.0796
 4798TIP3    H114400   1.903   5.336   4.345  1.0927  0.8478  1.6031
 4798TIP3    H214401   1.996   5.240   4.415 -0.2621 -1.3750  0.4811
 4799TIP3   OH214402   3.317   2.939   1.509  0.2313  0.3242  0.2566
 4799TIP3    H114403   3.407   2.908   1.501  0.3362  0.9044 -0.9642
 4799TIP3    H214404   3.324   3.025   1.550  0.0093 -0.7163  2.6684
 4800TIP3   OH214405   0.587   4.202   1.972 -0.2097  0.5057  0.3230
 4800TIP3    H114406   0.532   4.280   1.978 -0.3604  0.4386 -0.1406
 4800TIP3    H214407   0.530   4.130   2.000 -0.2519  0.4803  0.1688
 4801TIP3   OH214408   0.817   4.620   0.183 -0.1706  0.1567 -0.4111
 4801TIP3    H114409   0.807   4.628   0.278 -0.5053  2.6064 -0.5842
 4801TIP3    H214410   0.740   4.570   0.156 -0.9204  0.7960  0.4586
 4802TIP3   OH214411   3.373   5.124   4.151  0.2083 -0.6618  0.7879
 4802TIP3    H114412   3.458   5.159   4.123 -0.7144  1.0215 -0.0147
 4802TIP3    H214413   3.315   5.200   4.155 -1.2016 -1.7280  1.6388
 4803TIP3   OH214414   0.331   5.860   1.454  0.3820  0.1444  0.2604
 4803TIP3    H114415   0.261   5.800   1.430  0.3839 -0.0837  0.8154
 4803TIP3    H214416   0.410   5.820   1.416  0.2396  0.3190 -0.2260
 4804TIP3   OH214417   1.576   3.094   4.182  0.1313 -0.2295  0.1436
 4804TIP3    H114418   1.541   3.180   4.203 -0.7275 -0.8715  1.5153
 4804TIP3    H214419   1.576   3.090   4.087  0.0533  1.2278  0.0698
 4805TIP3   OH214420   2.115   3.978   4.570  0.0226  0.7520  0.0617
 4805TIP3    H114421   2.148   3.941   4.652 -1.4720  0.4694  0.5654
 4805TIP3    H214422   2.026   4.004   4.590 -0.4041  0.5711 -1.5107
 4806TIP3   OH214423   4.332   5.948   1.568  0.2373 -0.3080  0.1682
 4806TIP3    H114424   4.241   5.968   1.544 -0.1097 -2.7091 -0.8449
 4806TIP3    H214425   4.329   5.936   1.662 -1.0932 -2.5964 -0.0728
 4807TIP3   OH214426   2.060   4.734   2.541  0.3908  0.3406  0.3511
 4807TIP3    H114427   2.044   4.763   2.451 -0.4442  2.4956  1.1226
 4807TIP3    H214428   2.150   4.702   2.541 -0.5292 -2.7051 -1.8999
 4808TIP3   OH214429   0.671   0.826   3.954 -0.3839 -0.5349  0.2038
 4808TIP3    H114430   0.755   0.781   3.948  0.0004  0.0440  1.0167
 4808TIP3    H214431   0.610   0.768   3.909  0.0565 -1.9795  1.3645
 4809TIP3   OH214432   2.945   1.903   1.299  0.1622 -0.2250 -0.1281
 4809TIP3    H114433   3.014   1.900   1.233  0.7021 -0.7540  0.4399
 4809TIP3    H214434   2.991   1.919   1.381 -0.3366 -1.0207  0.3236
 4810TIP3   OH214435   1.209   5.939   2.014 -0.1183  0.5714  0.3580
 4810TIP3    H114436   1.288   5.955   2.065 -0.4900 -0.5619  1.3387
 4810TIP3    H214437   1.224   5.984   1.931  1.6457  0.1939  0.4419
 4811TIP3   OH214438   5.811   3.406   4.243 -0.5723  0.1214  0.2264
 4811TIP3    H114439   5.863   3.381   4.167  0.6669  0.4705  0.9170
 4811TIP3    H214440   5.827   3.336   4.307 -0.7359  0.3668  0.5394
 4812TIP3   OH214441   0.331   4.639   1.423  0.1607  0.3265 -0.3614
 4812TIP3    H114442   0.321   4.626   1.329  2.4640 -3.3957 -0.3114
 4812TIP3    H214443   0.243   4.623   1.459 -0.2896 -0.5196 -1.7561
 4813TIP3   OH214444   0.635   1.397   1.400 -0.0762 -0.0763  0.3150
 4813TIP3    H114445   0.669   1.479   1.363 -2.9967  0.9418 -0.3618
 4813TIP3    H214446   0.565   1.371   1.341 -0.9301 -1.6824  1.9356
 4814TIP3   OH214447   3.782   1.387   3.752 -0.2852  0.1984  0.1520
 4814TIP3    H114448   3.739   1.325   3.692 -1.8476  2.0630 -0.7467
 4814TIP3    H214449   3.874   1.388   3.722 -0.9925  1.0124 -2.2366
 4815TIP3   OH214450   2.932   3.683   4.288  0.3749  0.0413 -0.2477
 4815TIP3    H114451   2.978   3.762   4.259  0.9499 -0.8365 -1.8479
 4815TIP3    H214452   2.844   3.690   4.251 -0.2210  0.8454  1.2689
 4816TIP3   OH214453   4.858   3.766   0.304  0.3136  0.2464  0.3039
 4816TIP3    H114454   4.784   3.707   0.313  0.3108  0.2133  0.0732
 4816TIP3    H214455   4.932   3.716   0.340  0.6334 -0.5437 -1.3791
 4817TIP3   OH214456   4.682   4.968   4.113 -0.3179  0.7442 -0.3466
 4817TIP3    H114457   4.686   5.063   4.122 -2.5142  0.8160  0.7058
 4817TIP3    H214458   4.618   4.941   4.179  1.7261 -1.7145  0.8162
 4818TIP3   OH214459   1.612   1.882   1.110 -0.0628 -0.0583 -0.1789
 4818TIP3    H114460   1.599   1.918   1.197  2.4774  1.6713 -0.3915
 4818TIP3    H214461   1.632   1.789   1.124  0.5179  0.2472  1.0938
 4819TIP3   OH214462   0.605   0.120   2.127 -0.2752 -0.0381  0.3117
 4819TIP3    H114463   0.646   0.035   2.140 -0.6519  0.1483  3.4573
 4819TIP3    H214464   0.678   0.180   2.110  0.2455 -0.5317  0.7953
 4820TIP3   OH214465   4.984   1.191   1.683  0.0393  0.0620  0.4887
 4820TIP3    H114466   5.021   1.128   1.744 -0.0873 -1.6973 -1.1627
 4820TIP3    H214467   5.058   1.219   1.628 -0.3121 -0.4979 -0.3011
 4821TIP3   OH214468   6.038   3.906   0.403 -0.9563  0.0791  0.2695
 4821TIP3    H114469   6.133   3.911   0.392 -0.9030 -0.7996  0.2257
 4821TIP3    H214470   6.003   3.977   0.349 -0.4608 -1.2975 -1.9783
 4822TIP3   OH214471   2.269   1.814   0.779  0.0027  0.4883 -0.1291
 4822TIP3    H114472   2.259   1.905   0.751 -1.8867  0.5314  0.5541
 4822TIP3    H214473   2.192   1.769   0.745 -0.1764 -0.3848  1.3417
 4823TIP3   OH214474   1.634   5.157   2.198  0.0613  0.1676 -0.2659
 4823TIP3    H114475   1.637   5.235   2.254  1.1348 -0.8951  1.2124
 4823TIP3    H214476   1.551   5.166   2.150 -0.4166  1.6074  0.7460
 4824TIP3   OH214477   0.119   4.096   2.823  0.3656 -0.1887 -0.0120
 4824TIP3    H114478   0.076   4.108   2.908 -0.1264 -0.8337 -0.1620
 4824TIP3    H214479   0.210   4.121   2.839  0.0484  0.7271  0.4337
 4825TIP3   OH214480   1.723   3.273   3.521 -0.3668  0.2454 -0.8610
 4825TIP3    H114481   1.779   3.224   3.460  0.1529 -0.2883  0.0298
 4825TIP3    H214482   1.637   3.234   3.510 -0.1926 -0.1207 -0.9681
 4826TIP3   OH214483   0.731   2.626   0.264 -0.1933  0.5416 -0.0600
 4826TIP3    H114484   0.702   2.705   0.309 -3.0034 -0.7568  0.6497
 4826TIP3    H214485   0.700   2.554   0.319  0.8177 -1.0832 -1.5041
 4827TIP3   OH214486   0.310   3.052   4.264  0.3570  0.4166 -0.8094
 4827TIP3    H114487   0.304   2.965   4.225 -1.2075 -0.6560  1.6313
 4827TIP3    H214488   0.230   3.061   4.316  1.5661  2.3640  0.8644
 4828TIP3   OH214489   5.415   3.350   0.478  0.2039  0.6382  0.0726
 4828TIP3    H114490   5.451   3.317   0.396 -1.4925  0.7593 -0.7771
 4828TIP3    H214491   5.412   3.274   0.536  0.5860  0.3522 -0.2817
 4829TIP3   OH214492   3.521   2.373   1.521 -0.4535  0.4716  0.2624
 4829TIP3    H114493   3.480   2.413   1.444  0.5200  0.1096 -0.4717
 4829TIP3    H214494   3.612   2.403   1.518 -0.5999  1.1256  1.7581
 4830TIP3   OH214495   4.560   2.199   1.235  0.2132 -0.7349  0.2025
 4830TIP3    H114496   4.531   2.108   1.245 -2.9011 -0.1966 -2.1798
 4830TIP3    H214497   4.501   2.249   1.291 -0.5887  0.0469 -1.2697
 4831TIP3   OH214498   4.358   5.755   1.240 -0.2400 -0.0862  0.0453
 4831TIP3    H114499   4.390   5.746   1.150  1.5154  0.8462  0.5266
 4831TIP3    H214500   4.298   5.681   1.252  1.0096 -1.3654 -1.2569
 4832TIP3   OH214501   5.342   2.935   4.510 -0.5238 -0.3657 -0.3632
 4832TIP3    H114502   5.381   3.016   4.476 -0.1330 -0.0569  0.7751
 4832TIP3    H214503   5.417   2.880   4.532 -0.7769 -0.7036 -0.3375
 4833TIP3   OH214504   1.100   0.065   4.915 -0.5560  0.2592  0.0563
 4833TIP3    H114505   1.138   0.085   4.829 -1.6272  0.1556 -0.4609
 4833TIP3    H214506   1.117  -0.028   4.927 -1.3445  0.0247 -0.5482
 4834TIP3   OH214507   5.025   1.563   3.030  0.1203 -0.0984  0.0473
 4834TIP3    H114508   5.087   1.542   2.960  0.8699  0.6184  0.4806
 4834TIP3    H214509   5.044   1.501   3.100 -0.1096 -0.3145 -0.0802
 4835TIP3   OH214510   1.139   1.697   3.791  0.2038  0.4581  0.1936
 4835TIP3    H114511   1.113   1.756   3.720  0.3018 -0.2025 -0.4042
 4835TIP3    H214512   1.227   1.668   3.767  0.4699  0.6816  0.8874
 4836TIP3   OH214513   3.700   4.579   2.563  0.4589 -0.8338  0.0291
 4836TIP3    H114514   3.609   4.606   2.554  1.0357  0.7262 -1.4819
 4836TIP3    H214515   3.695   4.495   2.609 -1.8102 -1.4445 -1.1791
 4837TIP3   OH214516   0.483   2.960   1.364  0.1396  0.3888  0.6504
 4837TIP3    H114517   0.429   2.883   1.379  0.2761 -0.4229 -2.3594
 4837TIP3    H214518   0.421   3.033   1.365 -0.4832 -0.1304  0.5923
 4838TIP3   OH214519   2.045   5.287   3.361 -0.2377  0.1041  0.1358
 4838TIP3    H114520   2.128   5.260   3.322 -1.8351 -0.7406 -3.0348
 4838TIP3    H214521   2.070   5.337   3.439  3.1607 -1.0559 -0.0579
 4839TIP3   OH214522   1.845   0.564   4.469 -0.3926  0.1506  0.3156
 4839TIP3    H114523   1.928   0.608   4.449 -0.0088 -0.3868  0.6738
 4839TIP3    H214524   1.812   0.608   4.547 -1.2569  1.4165 -0.7299
 4840TIP3   OH214525   4.636   2.828   3.736 -0.1814  0.5613 -0.5678
 4840TIP3    H114526   4.685   2.884   3.796 -0.6255 -1.1283  1.5255
 4840TIP3    H214527   4.703   2.782   3.686  0.2004  2.0908 -1.5170
 4841TIP3   OH214528   3.090   0.056   2.090  0.0985  0.1462 -0.4376
 4841TIP3    H114529   3.106   0.117   2.161  0.2981 -0.9230  0.4649
 4841TIP3    H214530   3.177   0.023   2.067 -0.1715 -1.3719  0.5513
 4842TIP3   OH214531   1.139   5.959   3.586 -0.1184 -0.1430  0.5155
 4842TIP3    H114532   1.180   5.878   3.558 -0.1937 -0.3872  1.0993
 4842TIP3    H214533   1.048   5.951   3.558 -0.1235 -0.2585  0.5653
 4843TIP3   OH214534   1.054   1.102   5.083 -0.0931  0.6520 -0.7157
 4843TIP3    H114535   0.978   1.156   5.067 -0.7645 -0.0269  0.0626
 4843TIP3    H214536   1.051   1.083   5.177  1.0043  0.5692 -0.6753
 4844TIP3   OH214537   5.954   0.410   2.708  0.8572 -0.1968  0.2735
 4844TIP3    H114538   5.931   0.337   2.651  2.3290  0.1206 -0.7849
 4844TIP3    H214539   5.963   0.485   2.648  0.9635  0.4822  1.1214
 4845TIP3   OH214540   4.401   5.457   4.348 -0.1438 -0.0216 -0.3430
 4845TIP3    H114541   4.383   5.367   4.375 -0.0384  0.2556  0.7127
 4845TIP3    H214542   4.489   5.475   4.382 -1.2415  1.3774  1.9883
 4846TIP3   OH214543   3.909   0.174   2.775  0.1009  0.0930  0.1882
 4846TIP3    H114544   3.847   0.105   2.799  0.6770 -0.3648  0.3810
 4846TIP3    H214545   3.868   0.216   2.699 -0.0180 -0.8045 -0.2706
 4847TIP3   OH214546   2.058   1.166   2.757  0.3411  1.1257  0.1536
 4847TIP3    H114547   2.116   1.106   2.804  0.4356  0.2590 -1.0189
 4847TIP3    H214548   1.993   1.109   2.716 -0.3377  1.9402  0.0662
 4848TIP3   OH214549   2.162   0.165   3.657 -0.1753  0.1045 -0.5815
 4848TIP3    H114550   2.227   0.095   3.652  4.1789  3.7408 -1.3024
 4848TIP3    H214551   2.130   0.176   3.568 -1.1428 -1.0425 -0.4049
 4849TIP3   OH214552   2.868   5.035   3.324  0.3083  0.1074 -0.4195
 4849TIP3    H114553   2.843   5.073   3.239 -0.8941 -0.4003 -0.3229
 4849TIP3    H214554   2.858   4.940   3.311  2.8574 -0.2214 -0.5340
 4850TIP3   OH214555   5.704   1.259   1.252 -0.1699 -0.1102 -0.2939
 4850TIP3    H114556   5.622   1.260   1.302 -0.6435  0.9592 -1.0414
 4850TIP3    H214557   5.691   1.191   1.186 -0.3399 -0.1599 -0.2110
 4851TIP3   OH214558   4.544   5.980   4.973 -0.1524  0.2934  0.6488
 4851TIP3    H114559   4.475   5.974   4.907 -1.3038 -1.0818  1.8834
 4851TIP3    H214560   4.598   5.902   4.959 -0.5717 -0.1635  1.4564
 4852TIP3   OH214561   1.916   3.801   3.939 -0.2216  0.6317 -0.2448
 4852TIP3    H114562   1.850   3.866   3.913  0.0349  0.5241 -1.2077
 4852TIP3    H214563   1.995   3.827   3.891 -0.0218 -0.1842 -0.3638
 4853TIP3   OH214564   3.695   4.248   3.045 -0.0107 -0.0114 -0.4840
 4853TIP3    H114565   3.612   4.274   3.086 -0.6266 -1.1618 -0.9484
 4853TIP3    H214566   3.739   4.196   3.112 -0.3708 -0.6753 -0.7422
 4854TIP3   OH214567   5.408   3.828   5.037  0.3121  0.2688 -0.3470
 4854TIP3    H114568   5.465   3.756   5.064 -0.4813 -0.3624 -0.2777
 4854TIP3    H214569   5.391   3.811   4.944  2.4204  2.0032 -1.1167
 4855TIP3   OH214570   2.292   3.390   4.348 -0.0372  0.0803 -0.3744
 4855TIP3    H114571   2.289   3.484   4.364  0.8197 -0.1329  1.2388
 4855TIP3    H214572   2.323   3.352   4.431  1.7662 -1.4249 -1.6375
 4856TIP3   OH214573   0.182   1.872   4.520  0.1029 -0.2120  0.4288
 4856TIP3    H114574   0.090   1.854   4.541 -0.2309 -0.0978 -0.8405
 4856TIP3    H214575   0.202   1.812   4.448  0.4669  0.9736 -0.4938
 4857TIP3   OH214576   2.078   3.541   0.035 -0.6385 -0.2708 -0.3808
 4857TIP3    H114577   2.081   3.476  -0.036 -0.1898 -0.7499  0.0660
 4857TIP3    H214578   2.170   3.555   0.059 -0.8214 -0.6471  0.5793
 4858TIP3   OH214579   2.942   3.432   3.895 -0.1588  0.1422  0.2365
 4858TIP3    H114580   2.905   3.409   3.980 -0.4521  0.3259  0.1601
 4858TIP3    H214581   2.949   3.349   3.848 -1.2098  0.1987 -0.0369
 4859TIP3   OH214582   3.086   1.146   1.026 -0.3711  0.0542  0.1754
 4859TIP3    H114583   3.124   1.232   1.044 -1.0060  0.7044 -1.4786
 4859TIP3    H214584   3.158   1.094   0.992  0.1036 -0.2274  1.5268
 4860TIP3   OH214585   1.479   3.720   4.906  1.0361 -0.4939  0.6714
 4860TIP3    H114586   1.472   3.629   4.877 -0.3949 -0.5454  1.0943
 4860TIP3    H214587   1.432   3.722   4.990  1.1418  0.6125  0.7180
 4861TIP3   OH214588   5.838   2.689   3.634 -0.0420 -0.0786  0.0281
 4861TIP3    H114589   5.764   2.642   3.672 -1.5418  1.8080 -0.4450
 4861TIP3    H214590   5.875   2.627   3.571 -2.3805 -0.4415 -1.0920
 4862TIP3   OH214591   3.832   1.341   2.970 -0.7271  0.4152  0.2595
 4862TIP3    H114592   3.776   1.267   2.948  0.0785 -0.0117 -0.4226
 4862TIP3    H214593   3.921   1.308   2.958 -0.3503  1.4707 -0.0058
 4863TIP3   OH214594   5.429   3.020   0.186 -0.4138  0.5606 -0.3897
 4863TIP3    H114595   5.432   2.984   0.098 -0.7838  0.3266 -0.3091
 4863TIP3    H214596   5.378   2.956   0.236  0.1224  0.4976  0.0827
 4864TIP3   OH214597   0.589   5.261   1.624  0.3578  0.3340 -0.0305
 4864TIP3    H114598   0.589   5.319   1.700  2.2960  0.0646  0.2434
 4864TIP3    H214599   0.579   5.173   1.660 -0.4781  0.3316 -0.2565
 4865TIP3   OH214600   1.769   2.010   0.398 -0.4246 -0.1421  0.0024
 4865TIP3    H114601   1.791   1.974   0.312  0.3696  0.5929 -0.1158
 4865TIP3    H214602   1.746   1.934   0.450  0.4223 -0.7414 -0.4747
 4866TIP3   OH214603   2.923   4.854   2.823  0.7179  0.1790 -0.6214
 4866TIP3    H114604   2.852   4.917   2.814 -0.3548 -0.6780  1.2156
 4866TIP3    H214605   2.954   4.866   2.913  0.9460 -1.3975 -0.4524
 4867TIP3   OH214606   0.850   3.030   2.161  0.4116  0.2500 -0.3569
 4867TIP3    H114607   0.925   3.087   2.178 -0.4882  0.6784  2.7544
 4867TIP3    H214608   0.775   3.079   2.193 -1.2664 -0.2838 -3.1363
 4868TIP3   OH214609   1.560   5.051   0.191 -0.2760 -0.1623 -0.1718
 4868TIP3    H114610   1.545   5.075   0.100 -1.9932 -1.4339 -0.2690
 4868TIP3    H214611   1.559   4.956   0.192 -0.5889 -0.1674  1.2256
 4869TIP3   OH214612   0.076   1.128   1.221  0.5336  0.7158  0.6619
 4869TIP3    H114613   0.051   1.199   1.280 -1.0268 -0.4478  1.4759
 4869TIP3    H214614   0.136   1.168   1.158  1.3427  2.2566  2.3396
 4870TIP3   OH214615   3.582   0.792   1.763  1.2905  0.1114 -0.2890
 4870TIP3    H114616   3.518   0.820   1.829  0.3866 -0.2084 -1.0040
 4870TIP3    H214617   3.641   0.733   1.810 -0.2694 -1.3563 -0.0811
 4871TIP3   OH214618   6.372   5.281   0.259 -0.0625 -0.5030 -0.1011
 4871TIP3    H114619   6.323   5.315   0.334 -0.2154 -0.9382  0.0010
 4871TIP3    H214620   6.336   5.328   0.183  0.3029  0.1610  0.1257
 4872TIP3   OH214621   1.412   1.603   3.805  0.2465 -0.1271 -0.5873
 4872TIP3    H114622   1.461   1.685   3.818 -0.6335  0.2961  0.1790
 4872TIP3    H214623   1.478   1.541   3.774  1.0747  0.6874 -0.5115
 4873TIP3   OH214624   3.133   5.594   3.763  0.3756 -0.1890 -0.2065
 4873TIP3    H114625   3.111   5.607   3.855 -1.7006  0.4796 -0.7331
 4873TIP3    H214626   3.097   5.507   3.742  2.6256 -1.2656  0.0471
 4874TIP3   OH214627   5.386   4.917   2.632 -0.6058 -0.1208 -0.2810
 4874TIP3    H114628   5.368   4.830   2.670  0.4345 -0.1721  0.1073
 4874TIP3    H214629   5.327   4.922   2.557  0.9775 -2.1805 -1.7956
 4875TIP3   OH214630   2.937   2.692   0.484 -0.2408 -0.4809 -0.3901
 4875TIP3    H114631   2.934   2.758   0.554 -0.3224 -1.1019  0.2010
 4875TIP3    H214632   2.973   2.739   0.408  1.2631 -0.1638  0.4814
 4876TIP3   OH214633   4.072   1.206   4.736  0.4159 -0.4425  0.1542
 4876TIP3    H114634   4.011   1.278   4.747 -0.0630 -1.0882  2.0723
 4876TIP3    H214635   4.020   1.136   4.696 -0.6339 -1.5008  3.0756
 4877TIP3   OH214636   1.027   1.234   3.212  0.0101  0.2197  0.3260
 4877TIP3    H114637   0.984   1.160   3.255  0.2295  0.4281  0.9221
 4877TIP3    H214638   1.084   1.270   3.279  1.0753 -0.0134 -0.4269
 4878TIP3   OH214639   1.357   4.438   1.290 -0.2716 -0.1350 -0.0104
 4878TIP3    H114640   1.382   4.361   1.342 -2.1896 -1.2948 -0.6755
 4878TIP3    H214641   1.432   4.454   1.232  0.5386 -0.9080  0.7971
 4879TIP3   OH214642   3.841   4.235   1.101  0.7556 -0.0520  0.0358
 4879TIP3    H114643   3.790   4.249   1.021 -0.5676 -0.5291  0.7584
 4879TIP3    H214644   3.851   4.323   1.138  0.5305  0.0648 -0.1711
 4880TIP3   OH214645   2.085   5.477   1.327 -0.3354 -0.0577  0.3236
 4880TIP3    H114646   2.049   5.492   1.414  0.2389  1.0044  0.4074
 4880TIP3    H214647   2.117   5.564   1.300 -0.0994 -0.4668 -0.7500
 4881TIP3   OH214648   1.116   2.641   1.351 -0.2201  0.3977 -0.3597
 4881TIP3    H114649   1.180   2.648   1.281  0.0532 -1.1669 -0.3143
 4881TIP3    H214650   1.168   2.623   1.429 -0.6390  0.0295 -0.1560
 4882TIP3   OH214651   3.326   3.569   2.270 -0.5327  0.0372 -0.2825
 4882TIP3    H114652   3.342   3.604   2.183  0.4569 -0.9408 -0.5107
 4882TIP3    H214653   3.386   3.616   2.327  0.2178 -0.6853 -0.4590
 4883TIP3   OH214654   4.669   0.856   2.150  0.2380 -0.0889  0.4616
 4883TIP3    H114655   4.635   0.930   2.199  0.7064  0.5173 -0.1193
 4883TIP3    H214656   4.594   0.796   2.143  0.0289  0.0389  1.4511
 4884TIP3   OH214657   4.963   0.490   3.343 -0.2892  0.6479  0.0614
 4884TIP3    H114658   4.904   0.417   3.326 -0.2602  0.5555  0.3486
 4884TIP3    H214659   4.939   0.556   3.278 -0.6349  0.5667  0.1022
 4885TIP3   OH214660   4.427   4.107   3.344 -0.2229  0.3236  0.1272
 4885TIP3    H114661   4.498   4.081   3.402 -1.1247  0.8895  1.5583
 4885TIP3    H214662   4.365   4.034   3.347 -0.6878  0.7301  0.6090
 4886TIP3   OH214663   6.120   4.512   1.019  0.2374 -0.1715 -0.3549
 4886TIP3    H114664   6.082   4.467   0.944  0.6393 -0.0386 -0.6444
 4886TIP3    H214665   6.051   4.570   1.050 -0.1933 -0.7920 -0.1407
 4887TIP3   OH214666   5.335   2.644   4.546 -0.5954 -0.1241 -0.4833
 4887TIP3    H114667   5.424   2.678   4.539 -0.9197  1.3025  1.4322
 4887TIP3    H214668   5.321   2.632   4.640 -2.2271 -0.9374 -0.7854
 4888TIP3   OH214669   5.621   0.670   1.859  0.3732  0.3815 -0.1502
 4888TIP3    H114670   5.713   0.666   1.833  0.4016 -0.2970  0.0177
 4888TIP3    H214671   5.579   0.727   1.794  0.9967  1.0742  0.0495
 4889TIP3   OH214672   2.856   1.627   3.140 -0.1423 -0.5544  0.6075
 4889TIP3    H114673   2.866   1.696   3.205  0.2149 -1.5049  1.5892
 4889TIP3    H214674   2.810   1.669   3.067  1.1358  1.0393  0.6602
 4890TIP3   OH214675   4.649   0.143   4.558 -0.7283  0.1679 -0.2838
 4890TIP3    H114676   4.634   0.169   4.649  0.0183 -0.8903  0.1757
 4890TIP3    H214677   4.736   0.102   4.559  1.0860  3.5210 -2.2186
 4891TIP3   OH214678   0.229   6.017   4.857 -0.3711 -0.2695  0.3887
 4891TIP3    H114679   0.166   5.948   4.877  0.0007 -2.0188 -3.7016
 4891TIP3    H214680   0.305   5.996   4.911 -1.2100 -1.4460  1.1674
 4892TIP3   OH214681   0.407   2.275   2.312  0.5397 -0.5318  0.0066
 4892TIP3    H114682   0.441   2.259   2.224 -0.6571 -1.2398 -0.3506
 4892TIP3    H214683   0.423   2.368   2.328 -0.8468  0.0629 -1.7239
 4893TIP3   OH214684   5.176   2.285   0.664  0.3553  0.4022 -0.0176
 4893TIP3    H114685   5.142   2.368   0.631 -0.2381 -0.4327 -1.6131
 4893TIP3    H214686   5.098   2.229   0.672  0.8212 -0.1898  0.4905
 4894TIP3   OH214687   3.989   3.633   2.828  0.2046 -0.1435 -0.3048
 4894TIP3    H114688   3.963   3.709   2.879  1.7581 -0.7756  1.5675
 4894TIP3    H214689   4.040   3.669   2.755 -1.4737  0.7295 -1.1000
 4895TIP3   OH214690   5.037   4.762   2.361 -0.1904  0.1300 -0.1940
 4895TIP3    H114691   5.128   4.782   2.336 -0.1847  0.8389  0.3676
 4895TIP3    H214692   5.036   4.667   2.371 -0.2863 -0.3037 -3.2475
 4896TIP3   OH214693   3.732   3.131   2.680 -0.5693 -0.2505  0.3236
 4896TIP3    H114694   3.690   3.063   2.734 -2.0082  0.3058 -0.0489
 4896TIP3    H214695   3.667   3.152   2.613 -0.6778  2.3519  1.1456
 4897TIP3   OH214696   1.172   5.823   3.198 -0.1636 -0.1385 -0.2944
 4897TIP3    H114697   1.099   5.765   3.222 -0.1257  0.1963  0.6371
 4897TIP3    H214698   1.175   5.818   3.102  0.7052 -2.7616 -0.2206
 4898TIP3   OH214699   5.878   1.755   3.207 -0.3719 -0.6523 -0.5190
 4898TIP3    H114700   5.939   1.807   3.155 -1.1590 -0.6303 -1.4405
 4898TIP3    H214701   5.839   1.693   3.145 -2.3378  0.2729 -0.2764
 4899TIP3   OH214702   6.051   1.076   1.893  0.3086 -0.6321 -0.1158
 4899TIP3    H114703   6.007   1.024   1.826  1.7066 -2.0831  0.0237
 4899TIP3    H214704   5.996   1.068   1.971  0.0123 -1.1222 -0.3734
 4900TIP3   OH214705   0.288   2.595   1.108  0.5892 -0.2941  0.1014
 4900TIP3    H114706   0.281   2.580   1.202  3.0337 -0.6657  0.2894
 4900TIP3    H214707   0.197   2.593   1.077 -0.2625 -0.4525  2.3774
 4901TIP3   OH214708   5.682   3.291   3.378  0.1180 -0.9141 -0.3184
 4901TIP3    H114709   5.665   3.217   3.436  0.2940 -0.3301  0.4989
 4901TIP3    H214710   5.690   3.366   3.437 -0.8920 -0.0987 -1.1855
 4902TIP3   OH214711   4.043   1.690   1.344 -0.3856 -0.5596 -0.2827
 4902TIP3    H114712   4.128   1.665   1.307 -0.8719 -1.4024 -0.8521
 4902TIP3    H214713   4.062   1.712   1.435  0.7124  0.8371 -0.8209
 4903TIP3   OH214714   6.275   1.788   3.256  0.3014 -0.2215 -0.1225
 4903TIP3    H114715   6.189   1.813   3.222  0.1265 -0.6636 -0.0214
 4903TIP3    H214716   6.329   1.866   3.248 -0.1622  0.1093 -0.0268
 4904TIP3   OH214717   2.075   4.762   0.706  0.0602 -0.0907  0.2662
 4904TIP3    H114718   2.062   4.855   0.725 -1.6299 -0.5111  1.3896
 4904TIP3    H214719   2.129   4.761   0.627  2.8325  1.8044  1.9723
 4905TIP3   OH214720   0.297   3.306   3.606  0.4848 -0.4408  0.3494
 4905TIP3    H114721   0.230   3.306   3.674  1.4841  1.3022  1.4223
 4905TIP3    H214722   0.330   3.216   3.603 -0.4867 -0.8356  1.2289
 4906TIP3   OH214723   0.106   5.464   3.348  0.1335 -0.3922  0.7712
 4906TIP3    H114724   0.028   5.411   3.362 -0.8526  1.2157  1.5831
 4906TIP3    H214725   0.112   5.473   3.252  0.6519 -2.3672  0.5745
 4907TIP3   OH214726   5.125   5.687   0.050 -0.2817 -0.1326  0.0020
 4907TIP3    H114727   5.056   5.650  -0.004  0.6107 -0.8967 -0.6500
 4907TIP3    H214728   5.084   5.762   0.094 -1.7445 -1.0684  0.2964
 4908TIP3   OH214729   6.176   5.409   1.143  0.3344 -0.4635 -0.4198
 4908TIP3    H114730   6.143   5.496   1.119 -0.0792 -0.7334 -0.8331
 4908TIP3    H214731   6.218   5.377   1.063  0.6009 -0.5942 -0.2288
 4909TIP3   OH214732   5.943   2.235   2.161  0.1437 -0.6510  0.0161
 4909TIP3    H114733   5.848   2.226   2.157 -0.0063  0.9591 -2.6877
 4909TIP3    H214734   5.977   2.156   2.119 -0.0503 -0.7135 -0.0217
 4910TIP3   OH214735   0.192   5.363  -0.023 -0.1991 -0.1504  0.0527
 4910TIP3    H114736   0.169   5.316   0.057  0.1333  1.1498  0.9512
 4910TIP3    H214737   0.269   5.415   0.001  0.3099 -0.2314 -1.3072
 4911TIP3   OH214738   4.108   0.667   4.045  0.4082  0.4314  0.4899
 4911TIP3    H114739   4.194   0.626   4.049  1.0711  1.6334 -0.7379
 4911TIP3    H214740   4.110   0.734   4.114  0.9563  1.3107 -0.3496
 4912TIP3   OH214741   5.878   0.346   3.661  0.3551 -0.3464 -1.0246
 4912TIP3    H114742   5.860   0.428   3.616  0.1596  0.4237  0.3970
 4912TIP3    H214743   5.831   0.280   3.610 -1.1951  0.7199 -1.0454
 4913TIP3   OH214744   1.585   5.244   4.425  0.0063 -0.3241 -0.3264
 4913TIP3    H114745   1.597   5.178   4.357 -3.2400 -1.4550  0.0309
 4913TIP3    H214746   1.629   5.207   4.502 -0.7655 -1.5585 -0.4517
 4914TIP3   OH214747   2.069   3.577   3.996  0.0654 -0.3372  0.6585
 4914TIP3    H114748   2.027   3.520   4.061 -1.5490 -0.4677 -0.4361
 4914TIP3    H214749   2.005   3.647   3.981  1.2286  0.7384  0.6005
 4915TIP3   OH214750   3.573   0.554   3.710  0.1555  0.0224  0.0899
 4915TIP3    H114751   3.602   0.641   3.682 -0.6744  0.2701 -0.0151
 4915TIP3    H214752   3.629   0.494   3.661 -0.4575  0.4712 -1.2317
 4916TIP3   OH214753   2.013   2.062   0.192  0.3075 -0.0348 -0.2513
 4916TIP3    H114754   1.980   2.148   0.165  0.3925 -0.4021 -1.5969
 4916TIP3    H214755   1.937   2.004   0.184  0.9234 -0.6429 -2.2044
 4917TIP3   OH214756   0.473   4.988   2.798 -0.0833 -0.1454  0.2623
 4917TIP3    H114757   0.552   4.993   2.852 -0.1325 -2.5848  0.6799
 4917TIP3    H214758   0.470   5.072   2.753  1.9599  0.5754  1.3157
 4918TIP3   OH214759   5.517   5.601   2.033 -0.1471  0.8969  0.2921
 4918TIP3    H114760   5.576   5.590   1.958 -0.5087 -0.0979  0.1299
 4918TIP3    H214761   5.546   5.533   2.095 -0.5748  0.9677  0.5692
 4919TIP3   OH214762   3.131   0.234   3.959  0.2879 -0.3988  0.0048
 4919TIP3    H114763   3.082   0.248   3.878  1.9726 -0.5135 -1.0716
 4919TIP3    H214764   3.103   0.305   4.017 -0.1813  0.2693 -1.0274
 4920TIP3   OH214765   0.384   2.091   0.812 -0.1061  0.3448  0.5718
 4920TIP3    H114766   0.433   2.169   0.787 -0.3621  0.4274  0.3234
 4920TIP3    H214767   0.434   2.019   0.773 -0.8086  0.5131 -0.6812
 4921TIP3   OH214768   2.880   2.782   3.566  0.7106 -0.3322 -0.3023
 4921TIP3    H114769   2.936   2.719   3.520 -0.3422 -0.8982 -0.8526
 4921TIP3    H214770   2.819   2.814   3.499  1.7021  1.8852 -0.2175
 4922TIP3   OH214771   3.805   3.581   5.136  0.2610 -0.7449  0.1204
 4922TIP3    H114772   3.747   3.520   5.090  2.7645 -2.4452 -0.9918
 4922TIP3    H214773   3.832   3.533   5.214  0.8576 -0.3292  0.1686
 4923TIP3   OH214774   2.367   3.539   3.554 -0.2574 -0.3082  0.0748
 4923TIP3    H114775   2.361   3.489   3.473  0.6567  0.0435 -0.2160
 4923TIP3    H214776   2.281   3.527   3.596 -0.5258 -0.9776 -0.6492
 4924TIP3   OH214777   4.593   4.977   0.195 -0.7500 -0.6529 -0.1434
 4924TIP3    H114778   4.648   4.994   0.119 -0.3705 -0.3526  0.1958
 4924TIP3    H214779   4.600   5.056   0.248 -1.4465 -0.6488 -0.0583
 4925TIP3   OH214780   2.691   1.906   2.374 -0.6304 -0.2984  0.4738
 4925TIP3    H114781   2.673   1.945   2.289  1.3907  1.4018  0.7262
 4925TIP3    H214782   2.701   1.981   2.433  0.2171 -1.3258  1.6972
 4926TIP3   OH214783   5.133   5.721   4.346 -0.2058 -0.1860  0.2098
 4926TIP3    H114784   5.166   5.634   4.321 -2.0616 -1.0032  0.4399
 4926TIP3    H214785   5.101   5.709   4.435 -2.8141  0.0070 -0.6191
 4927TIP3   OH214786   2.547   3.331   1.431 -0.0072  0.2468  0.0322
 4927TIP3    H114787   2.464   3.296   1.464 -0.9722  2.0190 -0.3968
 4927TIP3    H214788   2.601   3.254   1.415 -1.1671 -0.8969  1.3557
 4928TIP3   OH214789   4.955   4.223   1.105  0.5007 -0.2653  0.3571
 4928TIP3    H114790   4.896   4.297   1.114 -0.2941 -0.6704 -1.0981
 4928TIP3    H214791   5.043   4.262   1.099  0.3626  0.3693  2.0664
 4929TIP3   OH214792   3.028   1.545   1.462  0.3935 -0.0216  0.2249
 4929TIP3    H114793   3.039   1.468   1.517  1.2346 -0.1998 -0.1759
 4929TIP3    H214794   2.951   1.526   1.409  1.0175 -0.9226 -0.3904
 4930TIP3   OH214795   1.438   4.236   3.558 -0.2856  0.0915  0.6198
 4930TIP3    H114796   1.470   4.206   3.644  0.2025  1.8517  1.0904
 4930TIP3    H214797   1.436   4.331   3.565  0.1300  0.2955 -1.4663
 4931TIP3   OH214798   5.742   1.934   1.051  0.1625 -0.0371  0.0730
 4931TIP3    H114799   5.778   1.946   0.963  0.6771  1.8676  0.4959
 4931TIP3    H214800   5.648   1.947   1.041  0.4112  2.1326  0.0503
 4932TIP3   OH214801   3.776   2.950   0.208 -0.5746 -0.3743 -0.5488
 4932TIP3    H114802   3.748   2.859   0.211  0.1018 -0.5789 -0.0159
 4932TIP3    H214803   3.768   2.980   0.299  0.8869 -0.4495 -0.3640
 4933TIP3   OH214804   1.862   5.233   0.224 -0.5609 -0.4513 -0.1303
 4933TIP3    H114805   1.829   5.156   0.270  1.0466 -1.3510 -0.3877
 4933TIP3    H214806   1.900   5.197   0.143 -1.3411  0.8278 -1.0873
 4934TIP3   OH214807   3.592   3.003   0.599 -0.0594  0.7022 -0.2565
 4934TIP3    H114808   3.675   2.980   0.556  0.0503 -0.5288  0.5792
 4934TIP3    H214809   3.602   2.973   0.689 -1.2912  0.8450 -0.0527
 4935TIP3   OH214810   3.370   4.952   1.342 -0.5810 -0.0319 -0.2019
 4935TIP3    H114811   3.411   5.028   1.384 -1.1911 -0.1973  0.7318
 4935TIP3    H214812   3.437   4.884   1.346 -0.0848  0.4045 -0.9057
 4936TIP3   OH214813   0.537   2.390   3.667  0.6676 -0.0865  0.1215
 4936TIP3    H114814   0.472   2.349   3.723  0.1639 -2.1419 -1.8275
 4936TIP3    H214815   0.620   2.379   3.714 -0.0379  0.3500  1.4949
 4937TIP3   OH214816   0.555   0.944   2.201 -0.1118  0.2937  0.0301
 4937TIP3    H114817   0.525   0.915   2.115  0.1454 -0.7018  0.2616
 4937TIP3    H214818   0.514   0.883   2.262  1.1693 -0.1666  0.4616
 4938TIP3   OH214819   3.827   1.481   5.006 -0.0748 -0.1307  0.3205
 4938TIP3    H114820   3.817   1.548   4.938  1.7264 -0.8046 -0.6766
 4938TIP3    H214821   3.744   1.482   5.053 -0.0177  2.9930  0.5419
 4939TIP3   OH214822   6.239   4.041   3.560  0.2070  0.2409 -0.0935
 4939TIP3    H114823   6.275   3.957   3.532 -1.8529 -0.5142 -0.6979
 4939TIP3    H214824   6.198   4.077   3.481 -0.8527  0.7414  0.6519
 4940TIP3   OH214825   4.329   1.889   2.790 -0.0949  0.0223  0.7841
 4940TIP3    H114826   4.319   1.937   2.872  0.1557  0.6722  0.4435
 4940TIP3    H214827   4.413   1.919   2.755 -1.2683  1.6107 -0.8966
 4941TIP3   OH214828   0.817   3.784   0.626  0.2889 -0.0860 -0.5236
 4941TIP3    H114829   0.748   3.768   0.562 -0.7409  0.4577  0.4133
 4941TIP3    H214830   0.770   3.792   0.709  1.3875  1.2425 -0.0101
 4942TIP3   OH214831   6.331   4.489   4.784  0.0383 -0.4707  0.2987
 4942TIP3    H114832   6.343   4.584   4.783 -2.8114 -0.0434  0.1780
 4942TIP3    H214833   6.323   4.466   4.877  1.4659 -0.7650  0.3815
 4943TIP3   OH214834   1.552   1.923   4.594 -0.5771  0.3369  0.3781
 4943TIP3    H114835   1.608   1.855   4.632  0.4032  0.6586 -0.4544
 4943TIP3    H214836   1.567   2.000   4.648 -0.2355  0.4115  0.1793
 4944TIP3   OH214837   3.042   2.484   1.141  0.2630  0.0854 -0.1493
 4944TIP3    H114838   2.984   2.560   1.151 -0.3645 -0.3596 -0.3284
 4944TIP3    H214839   3.066   2.484   1.049  1.9180  1.2335  0.2480
 4945TIP3   OH214840   1.543   3.296   1.069  0.4763  0.1018  0.0743
 4945TIP3    H114841   1.565   3.204   1.054 -0.2504  0.2447 -2.2771
 4945TIP3    H214842   1.627   3.338   1.089  1.3597 -0.5553 -1.9798
 4946TIP3   OH214843   4.214   1.851   3.323  0.7374 -0.0184  0.4148
 4946TIP3    H114844   4.201   1.835   3.417 -1.9124  1.0725  0.3397
 4946TIP3    H214845   4.221   1.946   3.316 -1.4914  0.1339 -0.6416
 4947TIP3   OH214846   1.595   1.231   5.149 -0.0819 -0.2864 -0.6535
 4947TIP3    H114847   1.609   1.258   5.058  2.7646 -0.5466 -0.3739
 4947TIP3    H214848   1.611   1.137   5.149  0.7730 -0.1563  0.2243
 4948TIP3   OH214849   0.797   5.145   1.114  0.5130 -0.0379 -0.1667
 4948TIP3    H114850   0.763   5.154   1.203 -0.3341 -0.3344 -0.4495
 4948TIP3    H214851   0.719   5.137   1.059  1.0370 -1.8390 -0.7157
 4949TIP3   OH214852   2.435   3.549   0.606 -0.8773 -0.2360  0.2319
 4949TIP3    H114853   2.459   3.593   0.524  0.1127 -1.3932 -0.1198
 4949TIP3    H214854   2.399   3.465   0.578 -1.8795 -0.0550  0.9350
 4950TIP3   OH214855   1.116   5.194   0.070 -0.5554 -0.2571  0.0451
 4950TIP3    H114856   1.199   5.225   0.104  0.3714 -1.4825 -1.0025
 4950TIP3    H214857   1.121   5.210  -0.025 -0.2472 -2.9688 -0.4786
 4951TIP3   OH214858   3.486   2.623   1.833  0.2091 -0.4109  0.3165
 4951TIP3    H114859   3.512   2.532   1.826 -2.6254 -1.3345  0.3643
 4951TIP3    H214860   3.463   2.634   1.926 -0.8144 -0.1010  0.0419
 4952TIP3   OH214861   0.346   2.042   4.335  0.2522 -0.1751 -0.1435
 4952TIP3    H114862   0.401   1.997   4.399 -0.4696 -1.3534 -0.3270
 4952TIP3    H214863   0.258   2.011   4.353 -0.2676  1.1335 -0.3290
 4953TIP3   OH214864   1.562   0.249   0.616  0.3375 -0.3828 -0.5283
 4953TIP3    H114865   1.485   0.254   0.673 -0.7858  1.2086 -2.0666
 4953TIP3    H214866   1.594   0.339   0.610  1.2374 -0.7365 -1.3251
 4954TIP3   OH214867   4.092   5.347   2.625  0.0854 -0.2429 -0.6325
 4954TIP3    H114868   4.060   5.259   2.641 -0.0305 -0.3126 -1.2205
 4954TIP3    H214869   4.103   5.385   2.712 -0.0340 -0.7741 -0.3832
 4955TIP3   OH214870   5.402   1.194   2.356  0.1472  0.3502  0.2407
 4955TIP3    H114871   5.480   1.240   2.388  1.1458 -2.1331  1.6649
 4955TIP3    H214872   5.408   1.107   2.396 -2.4525 -0.5047 -1.0486
 4956TIP3   OH214873   2.064   2.028   3.846  0.2016  0.2307  0.3178
 4956TIP3    H114874   2.000   2.097   3.833 -0.2283  0.0195  1.2570
 4956TIP3    H214875   2.020   1.948   3.816  0.8529  0.3821 -1.1976
 4957TIP3   OH214876   1.043   2.047   2.797 -0.4889 -1.0977 -0.3893
 4957TIP3    H114877   1.052   1.953   2.812 -0.3955 -1.0686 -0.2705
 4957TIP3    H214878   0.970   2.073   2.853 -0.6451 -1.1363 -0.5723
 4958TIP3   OH214879   4.149   1.399   1.714  0.0541  0.2352  0.5639
 4958TIP3    H114880   4.180   1.463   1.779 -0.4578 -0.3015  1.3539
 4958TIP3    H214881   4.060   1.427   1.693 -0.1013 -0.1030  0.7634
 4959TIP3   OH214882   5.602   3.615   4.937 -0.2501 -0.2401  0.4234
 4959TIP3    H114883   5.648   3.647   5.014  0.9287 -0.5813 -0.1144
 4959TIP3    H214884   5.666   3.560   4.891 -0.2303  1.4698 -1.7860
 4960TIP3   OH214885   2.441   3.933   2.021  0.3102 -0.2952  0.0273
 4960TIP3    H114886   2.523   3.981   2.023  0.2772 -0.2513  0.6038
 4960TIP3    H214887   2.466   3.841   2.018  0.3743 -0.2527 -0.8971
 4961TIP3   OH214888   5.192   1.739   3.501  0.2560  0.0260  0.0756
 4961TIP3    H114889   5.286   1.724   3.491  0.7522  2.7512 -0.0853
 4961TIP3    H214890   5.167   1.791   3.425 -0.4374  2.8236  2.0263
 4962TIP3   OH214891   5.616   0.272   1.802 -0.7398 -0.4319 -0.2805
 4962TIP3    H114892   5.645   0.185   1.772  1.5505  0.1504  0.0613
 4962TIP3    H214893   5.594   0.319   1.722  0.5704 -0.5080 -0.7231
 4963TIP3   OH214894   4.515   4.692   0.160 -0.3407 -0.2187  0.3855
 4963TIP3    H114895   4.450   4.677   0.230 -2.2262 -0.5329 -1.3393
 4963TIP3    H214896   4.542   4.782   0.172 -2.2083  0.3962  0.3373
 4964TIP3   OH214897   4.536   5.329   0.599  0.4366  0.2919  0.2740
 4964TIP3    H114898   4.506   5.419   0.586 -1.4033 -0.0244  1.8645
 4964TIP3    H214899   4.577   5.329   0.685  2.0172 -0.0566 -0.4390
 4965TIP3   OH214900   1.775   2.397   4.861 -0.1585  0.0403  0.3662
 4965TIP3    H114901   1.830   2.318   4.860  0.1526  0.2204 -1.8113
 4965TIP3    H214902   1.831   2.464   4.901 -0.3369 -0.7279  1.9990
 4966TIP3   OH214903   5.878   5.520   0.122  0.3817 -0.5220  0.3736
 4966TIP3    H114904   5.892   5.566   0.039 -1.1698 -0.1578  0.2825
 4966TIP3    H214905   5.928   5.571   0.186 -0.0053  0.3453 -0.0044
 4967TIP3   OH214906   3.729   2.665   2.323  0.6806  0.1299  0.1430
 4967TIP3    H114907   3.765   2.643   2.237  1.4048  0.8899  0.2419
 4967TIP3    H214908   3.756   2.592   2.380  0.0459 -0.4635 -0.2959
 4968TIP3   OH214909   2.651   0.054   1.362 -0.0408  0.3181 -0.6535
 4968TIP3    H114910   2.572   0.003   1.374  0.5314 -0.4356  0.0387
 4968TIP3    H214911   2.661   0.101   1.445  0.6983 -0.2703 -0.3971
 4969TIP3   OH214912   4.488   5.968   4.304 -0.3248 -0.3087 -0.1074
 4969TIP3    H114913   4.548   5.966   4.229  0.5127  0.6508  0.5129
 4969TIP3    H214914   4.414   6.021   4.274  1.8517  3.7148  0.9930
 4970TIP3   OH214915   2.685   1.992   1.145 -0.1238  0.1553 -0.8804
 4970TIP3    H114916   2.591   2.005   1.154 -0.4760  0.3524 -3.7730
 4970TIP3    H214917   2.693   1.911   1.096  1.2776 -0.2071 -0.1044
 4971TIP3   OH214918   4.956   3.570   1.916  0.2266 -0.3273 -0.4503
 4971TIP3    H114919   4.945   3.608   2.003 -1.5527 -0.7372 -0.4725
 4971TIP3    H214920   5.003   3.637   1.867 -0.3395  0.6628  0.3189
 4972TIP3   OH214921   1.650   1.100   4.171 -0.0807 -0.5485  0.1950
 4972TIP3    H114922   1.702   1.027   4.137  0.8655 -0.9426  2.3186
 4972TIP3    H214923   1.614   1.068   4.254  0.1418  1.3072  1.0624
 4973TIP3   OH214924   1.447   5.757   4.833 -0.2773 -0.7198 -0.1715
 4973TIP3    H114925   1.357   5.754   4.801 -0.5396 -2.0686  0.5898
 4973TIP3    H214926   1.486   5.675   4.803  0.6382 -0.2605 -0.2886
 4974TIP3   OH214927   2.320   5.723   2.217  0.3193  0.0351 -0.4802
 4974TIP3    H114928   2.243   5.752   2.265 -0.1285 -0.1643 -1.0719
 4974TIP3    H214929   2.393   5.769   2.258  0.1585 -1.2626  1.3938
 4975TIP3   OH214930   2.128   3.129   0.653 -0.0472 -0.4966  0.0978
 4975TIP3    H114931   2.183   3.054   0.631  1.2043  0.8092 -1.5085
 4975TIP3    H214932   2.050   3.118   0.599  0.1500 -0.6313 -0.1643
 4976TIP3   OH214933   5.001   1.745   3.222 -0.1885 -0.3991 -0.1009
 4976TIP3    H114934   5.035   1.681   3.284 -0.6729  0.1695  0.7878
 4976TIP3    H214935   5.039   1.721   3.138 -0.0617 -1.6062  0.2894
 4977TIP3   OH214936   2.241   3.553   5.054 -0.2111 -0.0348  0.6127
 4977TIP3    H114937   2.311   3.527   4.994 -1.0343 -1.6443  0.2817
 4977TIP3    H214938   2.230   3.477   5.112 -0.1200  1.0875  2.1749
 4978TIP3   OH214939   6.178   2.085   3.429  0.1805 -0.1854  0.3940
 4978TIP3    H114940   6.139   2.134   3.501 -1.0522  0.3594 -0.6014
 4978TIP3    H214941   6.128   2.112   3.352  1.8047 -0.3333 -0.7653
 4979TIP3   OH214942   4.099   4.129   4.397 -0.2730 -0.1837  1.0551
 4979TIP3    H114943   4.018   4.168   4.431 -0.3252  0.2133  0.4815
 4979TIP3    H214944   4.113   4.053   4.453  0.2835  1.0904  2.7554
 4980TIP3   OH214945   2.860   0.790   0.800 -0.0185 -0.0480 -0.5550
 4980TIP3    H114946   2.774   0.803   0.761 -2.2401 -4.3274  2.1608
 4980TIP3    H214947   2.901   0.721   0.747  0.9490  0.6113 -0.6967
 4981TIP3   OH214948   3.599   0.455   3.994  0.3885  0.1076 -0.1547
 4981TIP3    H114949   3.618   0.526   3.932  2.4777  0.2458  0.5751
 4981TIP3    H214950   3.560   0.386   3.940 -1.4346  1.6499 -0.9305
 4982TIP3   OH214951   0.191   2.649   3.050  0.3507  0.0580  0.0694
 4982TIP3    H114952   0.241   2.688   2.978 -1.8612  1.0048 -1.0280
 4982TIP3    H214953   0.146   2.723   3.091  1.0522 -0.5513  2.0907
 4983TIP3   OH214954   0.807   0.384   2.886 -0.3629 -0.4182 -0.4700
 4983TIP3    H114955   0.733   0.427   2.930 -0.0148  0.2376 -0.5127
 4983TIP3    H214956   0.768   0.339   2.811 -0.6988  0.0421 -0.5754
 4984TIP3   OH214957   1.576   3.959   0.454 -0.4428 -0.3152  0.3346
 4984TIP3    H114958   1.667   3.984   0.470 -0.4111 -0.3333  0.1818
 4984TIP3    H214959   1.535   4.036   0.415 -0.6203 -0.1399  0.8644
 4985TIP3   OH214960   4.986   2.560   0.913  0.6958 -0.1538 -0.3217
 4985TIP3    H114961   5.076   2.565   0.946  0.2157  1.4448  0.8729
 4985TIP3    H214962   4.931   2.561   0.991 -0.4259  1.6583 -1.0617
 4986TIP3   OH214963   3.733   1.138   0.264  0.4576  0.4364 -0.5725
 4986TIP3    H114964   3.823   1.139   0.232  0.4909 -0.3174 -0.5117
 4986TIP3    H214965   3.740   1.133   0.359  0.3476  0.8391 -0.5394
 4987TIP3   OH214966   0.697   0.957   3.483 -0.2409 -1.3427  0.0341
 4987TIP3    H114967   0.676   1.019   3.553 -0.5863 -0.0753 -1.1330
 4987TIP3    H214968   0.743   0.885   3.526  1.7784  0.5548  1.2262
 4988TIP3   OH214969   5.697   4.949   0.434 -0.6307 -0.5806  0.4514
 4988TIP3    H114970   5.761   4.904   0.378  0.3078  1.1067  0.1209
 4988TIP3    H214971   5.668   5.024   0.382 -1.1093 -0.0013  1.5245
 4989TIP3   OH214972   0.995   5.935   3.980  0.3898  0.1541  0.5504
 4989TIP3    H114973   0.955   6.022   3.977  0.5297  0.2258 -2.0401
 4989TIP3    H214974   0.949   5.889   4.050 -3.7325  0.5355 -1.5898
 4990TIP3   OH214975   5.270   0.030   1.253 -0.6045  0.1029  0.0873
 4990TIP3    H114976   5.298   0.117   1.282  0.8640 -0.1290 -0.5672
 4990TIP3    H214977   5.246  -0.015   1.334 -1.2679  1.0608  0.4499
 4991TIP3   OH214978   5.844   5.823   1.025  0.3160  0.4217 -0.4391
 4991TIP3    H114979   5.880   5.901   0.983  0.8228  0.0168 -0.7662
 4991TIP3    H214980   5.892   5.816   1.107  0.7948  0.0296 -0.7546
 4992TIP3   OH214981   1.755   3.214   0.827 -0.0828 -0.2122  0.1864
 4992TIP3    H114982   1.772   3.121   0.841 -3.7624 -0.9779  0.5217
 4992TIP3    H214983   1.727   3.220   0.736  1.8935  0.9804 -0.4105
 4993TIP3   OH214984   3.568   1.646   1.074  0.2320  0.1411  0.6850
 4993TIP3    H114985   3.512   1.597   1.135  1.3487 -2.1736 -0.0267
 4993TIP3    H214986   3.657   1.628   1.103  0.7143  1.1614 -0.1000
 4994TIP3   OH214987   3.789   3.686   4.801 -0.4011 -0.6298 -0.6803
 4994TIP3    H114988   3.697   3.667   4.783 -0.4012 -0.7018 -0.6012
 4994TIP3    H214989   3.802   3.661   4.893 -0.6986  0.8089 -0.2174
 4995TIP3   OH214990   2.180   5.651   2.586  0.4933 -0.7195  0.0501
 4995TIP3    H114991   2.255   5.708   2.573  0.9783 -1.2304  0.5275
 4995TIP3    H214992   2.208   5.590   2.655 -0.0215 -1.4884 -0.3986
 4996TIP3   OH214993   5.158   3.014   1.673  0.3188 -0.7103  0.1624
 4996TIP3    H114994   5.125   2.941   1.621  1.4691 -0.8259 -0.4533
 4996TIP3    H214995   5.197   2.973   1.750 -0.0058 -0.6656  0.3482
 4997TIP3   OH214996   0.299   3.890   4.185  0.0169  0.4023 -0.1321
 4997TIP3    H114997   0.351   3.877   4.264 -2.0405 -0.7635  1.1113
 4997TIP3    H214998   0.219   3.934   4.215 -1.9177 -2.2517 -1.0518
 4998TIP3   OH214999   5.247   1.262   4.713  0.1033 -0.0371  0.2815
 4998TIP3    H115000   5.262   1.351   4.745 -1.7900 -0.1031  1.5425
 4998TIP3    H215001   5.288   1.260   4.627  2.1184  1.3519  1.1274
 4999TIP3   OH215002   1.812   2.244   2.100 -0.6731  0.4379  0.4948
 4999TIP3    H115003   1.755   2.316   2.126 -1.2555  0.3567 -0.5147
 4999TIP3    H215004   1.767   2.166   2.133 -0.5987  0.4527  0.6321
 5000TIP3   OH215005   5.113   4.931   2.894 -0.4561  0.1787 -0.2622
 5000TIP3    H115006   5.101   4.889   2.809  0.9189 -1.0585  0.1129
 5000TIP3    H215007   5.043   4.896   2.949  0.3882 -1.3374 -0.0887
 5001TIP3   OH215008   5.506   1.592   0.252 -0.0932 -0.0996  0.0274
 5001TIP3    H115009   5.535   1.625   0.338 -0.5723  0.3319  0.0283
 5001TIP3    H215010   5.411   1.602   0.254 -0.2080 -1.1146 -0.1382
 5002TIP3   OH215011   6.340   2.749   3.734  0.0955  0.1617  0.1073
 5002TIP3    H115012   6.361   2.799   3.813  0.4921  0.2193 -0.0303
 5002TIP3    H215013   6.245   2.742   3.735  0.1533 -0.8501  1.2145
 5003TIP3   OH215014   4.531   0.236   3.916  0.3248 -0.3688  0.0983
 5003TIP3    H115015   4.580   0.153   3.916 -0.1964 -0.6847  0.5898
 5003TIP3    H215016   4.547   0.272   4.003  0.6783  0.1285 -0.1702
 5004TIP3   OH215017   4.420  -0.011   3.662 -0.2833  0.5231 -0.2244
 5004TIP3    H115018   4.401   0.077   3.628 -0.6569  0.0136 -1.3987
 5004TIP3    H215019   4.513  -0.023   3.646  0.0288  1.1469  1.0325
 5005TIP3   OH215020   0.578   1.298   4.479 -0.0409  0.2814 -0.6180
 5005TIP3    H115021   0.634   1.222   4.460  0.5578  0.3270  0.8405
 5005TIP3    H215022   0.606   1.365   4.417 -1.6664 -1.1190 -3.0584
 5006TIP3   OH215023   3.938   2.954   2.636  0.4030  0.3702  0.1807
 5006TIP3    H115024   3.858   3.003   2.654  1.1183  1.3898  0.6488
 5006TIP3    H215025   3.964   2.981   2.548  1.0244  1.1647  0.6008
 5007TIP3   OH215026   0.872   2.068   4.329  0.3000 -0.3385 -0.3986
 5007TIP3    H115027   0.887   2.046   4.237  0.3303 -0.7402 -0.2994
 5007TIP3    H215028   0.899   2.160   4.336  0.3387 -0.3174 -0.7797
 5008TIP3   OH215029   5.218   1.276   2.563  0.1484 -0.5212  0.1589
 5008TIP3    H115030   5.274   1.339   2.608 -0.3516 -0.7193  1.0851
 5008TIP3    H215031   5.270   1.246   2.489 -0.0541  1.9286 -1.0887
 5009TIP3   OH215032   5.252   3.439   4.556  0.1788  0.3666 -0.5697
 5009TIP3    H115033   5.301   3.512   4.594  0.3937 -0.3686  0.6032
 5009TIP3    H215034   5.196   3.480   4.489 -0.0406  1.6622  0.3735
 5010TIP3   OH215035   0.470   3.507   0.177 -0.6530  0.2690  0.1422
 5010TIP3    H115036   0.387   3.552   0.162 -0.0957  0.8451 -1.4170
 5010TIP3    H215037   0.535   3.577   0.181 -0.1155 -0.2362  0.4117
 5011TIP3   OH215038   0.506   2.660   4.769  0.0719 -0.2401  0.2107
 5011TIP3    H115039   0.458   2.582   4.742 -3.1261  1.4944  0.3169
 5011TIP3    H215040   0.443   2.709   4.823  1.0895  3.4077 -1.5828
 5012TIP3   OH215041   5.262   3.997   2.169  0.2152 -0.3505  0.3072
 5012TIP3    H115042   5.168   3.981   2.165 -0.3033  2.3497 -0.7056
 5012TIP3    H215043   5.298   3.946   2.097 -0.4925 -1.2763  0.5952
 5013TIP3   OH215044   5.730   5.169   0.696  0.2973  0.1134  0.2527
 5013TIP3    H115045   5.811   5.216   0.716 -0.3011 -0.0857  3.6511
 5013TIP3    H215046   5.660   5.224   0.733 -1.1838  0.1214 -2.2852
 5014TIP3   OH215047   5.975   3.697   1.333 -0.4144  0.2935 -0.7989
 5014TIP3    H115048   5.953   3.788   1.315  0.4232  0.8749  0.8693
 5014TIP3    H215049   6.060   3.683   1.291  0.5604  1.0266  0.8076
 5015TIP3   OH215050   0.268   5.205   2.049  0.5852 -0.4050  0.2986
 5015TIP3    H115051   0.297   5.281   1.998 -1.9911  1.5718  1.5568
 5015TIP3    H215052   0.284   5.230   2.140  0.9771 -2.0052  0.6948
 5016TIP3   OH215053   5.380   1.905   3.081 -0.6974 -0.4090  0.2740
 5016TIP3    H115054   5.354   1.891   3.172 -3.5792 -1.0190 -0.5303
 5016TIP3    H215055   5.340   1.989   3.058  0.2151 -0.1462 -0.3647
 5017TIP3   OH215056   5.845   1.020   2.927  0.0638 -0.2245 -0.5568
 5017TIP3    H115057   5.848   1.038   2.833  1.4590 -2.7958 -1.0982
 5017TIP3    H215058   5.927   0.973   2.945 -0.9047 -1.2237  1.6168
 5018TIP3   OH215059   1.524   2.673   4.033 -0.0505  0.3941 -0.6016
 5018TIP3    H115060   1.612   2.671   4.071 -0.1842 -1.5837 -0.2668
 5018TIP3    H215061   1.469   2.712   4.102  0.0498 -1.3887  0.5809
 5019TIP3   OH215062   1.775   4.828   3.858 -0.2063  0.2115 -0.6850
 5019TIP3    H115063   1.816   4.911   3.831  1.7243 -0.5989 -0.4355
 5019TIP3    H215064   1.809   4.813   3.946 -1.4347 -0.3028 -0.2881
 5020TIP3   OH215065   2.333   5.316   2.914  0.2329 -0.1155  0.1318
 5020TIP3    H115066   2.307   5.404   2.887  0.2228 -0.2213 -0.2035
 5020TIP3    H215067   2.272   5.294   2.985 -0.0025  0.0044 -0.0300
 5021TIP3   OH215068   4.680   2.140   4.936  0.9613 -0.7723 -0.1215
 5021TIP3    H115069   4.703   2.210   4.998 -0.1560 -0.1303 -0.3953
 5021TIP3    H215070   4.676   2.061   4.989 -2.7576  0.1777  1.3484
 5022TIP3   OH215071   1.774   5.367   0.575 -0.1681 -0.5233  0.0499
 5022TIP3    H115072   1.728   5.288   0.545  2.2877 -2.2294  0.5157
 5022TIP3    H215073   1.770   5.427   0.500 -2.0494 -1.0446 -0.3336
 5023TIP3   OH215074   1.153   5.446   1.792 -0.0068  0.4732 -0.0541
 5023TIP3    H115075   1.225   5.408   1.842  0.6651 -0.0805 -1.3987
 5023TIP3    H215076   1.182   5.534   1.770  0.1752  0.3282 -0.4038
 5024TIP3   OH215077   4.063   4.068   2.497  0.6470  0.0482  0.2009
 5024TIP3    H115078   3.981   4.108   2.528 -0.5444 -1.2819 -1.0983
 5024TIP3    H215079   4.106   4.138   2.448 -0.3015  0.4242 -0.1198
 5025TIP3   OH215080   1.083   2.300   3.637 -0.1852 -0.1810 -0.4998
 5025TIP3    H115081   1.132   2.277   3.558 -0.1399  1.7256 -1.0776
 5025TIP3    H215082   1.126   2.379   3.670 -0.8728 -0.3324  0.8431
 5026TIP3   OH215083   5.760   0.830   4.650  0.4854  0.3577  0.3940
 5026TIP3    H115084   5.714   0.819   4.733 -0.8358  2.1302 -0.0446
 5026TIP3    H215085   5.849   0.857   4.675 -0.2059  1.9547  1.2688
 5027TIP3   OH215086   1.212   4.679   4.078  0.2458  0.5150  0.4670
 5027TIP3    H115087   1.189   4.642   3.992  1.4609  0.1536  0.2835
 5027TIP3    H215088   1.150   4.751   4.090  1.2336  1.8006 -1.5621
 5028TIP3   OH215089   5.415   3.057   0.899  0.5441  0.1565  0.6657
 5028TIP3    H115090   5.414   2.992   0.969  2.0701  2.2586  2.8278
 5028TIP3    H215091   5.339   3.113   0.917  0.5589  0.3221  0.2328
 5029TIP3   OH215092   6.185   5.627   0.222  0.9100  0.2807  0.6998
 5029TIP3    H115093   6.207   5.720   0.213 -2.9904  1.2671 -0.6002
 5029TIP3    H215094   6.151   5.619   0.311 -0.0050  0.4598  0.3777
 5030TIP3   OH215095   0.970   5.363   3.103  0.0937 -0.1495 -0.2365
 5030TIP3    H115096   1.062   5.334   3.102 -0.0364 -0.5955  0.2029
 5030TIP3    H215097   0.932   5.317   3.177 -1.1104 -1.9272 -1.8531
 5031TIP3   OH215098   4.498   0.621   0.287 -0.0841 -0.0057  0.2701
 5031TIP3    H115099   4.463   0.594   0.202  1.2706 -2.1653  0.3378
 5031TIP3    H215100   4.455   0.705   0.304 -1.3085 -0.0872 -1.9656
 5032TIP3   OH215101   1.830   3.982   0.642  0.4753  0.0951  0.1207
 5032TIP3    H115102   1.851   4.064   0.597  1.6632 -0.1374  0.2285
 5032TIP3    H215103   1.761   4.006   0.705  1.5416  1.2399  0.8915
 5033TIP3   OH215104   5.033   4.898   0.255 -0.1474  0.3069 -0.3478
 5033TIP3    H115105   4.950   4.921   0.214 -0.4906 -1.2228 -0.5589
 5033TIP3    H215106   5.069   4.982   0.285 -1.3025  1.0955 -1.1007
 5034TIP3   OH215107   3.670   5.010   4.029 -0.1960  1.1854  0.4211
 5034TIP3    H115108   3.612   4.970   4.095 -0.8388  2.2490  0.5171
 5034TIP3    H215109   3.752   4.962   4.038 -0.8561  0.0668  0.7209
 5035TIP3   OH215110   6.273   5.142   5.094  0.3055 -0.0222 -0.1343
 5035TIP3    H115111   6.216   5.081   5.140 -0.2889  1.4471  1.1815
 5035TIP3    H215112   6.217   5.217   5.074  0.7569 -0.2506 -2.5937
 5036TIP3   OH215113   0.977   0.008   1.016 -0.3987 -0.3956 -0.1116
 5036TIP3    H115114   0.891   0.045   0.996 -0.4157 -0.9533 -1.1680
 5036TIP3    H215115   1.038   0.082   1.006 -0.7784  0.0857  0.9963
 5037TIP3   OH215116   0.528   1.015   1.882  0.1703  0.0062  0.0492
 5037TIP3    H115117   0.613   0.971   1.877  0.3069  0.0489  1.5284
 5037TIP3    H215118   0.549   1.108   1.886  0.0634  0.0183  0.3920
 5038TIP3   OH215119   2.649   0.568   1.740 -0.4962  0.1216 -0.3967
 5038TIP3    H115120   2.741   0.555   1.766 -0.7816  1.5117  1.5335
 5038TIP3    H215121   2.609   0.481   1.751  0.4009 -0.3247 -0.4962
 5039TIP3   OH215122   2.052   2.705   3.962  0.3031  0.2718 -0.1124
 5039TIP3    H115123   2.049   2.709   4.058 -1.8544  0.9972 -0.1339
 5039TIP3    H215124   2.071   2.614   3.942  1.4773  0.2500  0.9814
 5040TIP3   OH215125   2.916   4.769   0.425 -0.5644 -0.8915 -0.0603
 5040TIP3    H115126   2.845   4.718   0.464 -0.7527 -0.8618 -0.3575
 5040TIP3    H215127   2.965   4.803   0.500 -0.9545 -0.7841  0.1491
 5041TIP3   OH215128   3.981   3.723   0.238 -0.5121  0.1299 -0.3522
 5041TIP3    H115129   3.972   3.802   0.292  3.1078 -0.5333  1.5115
 5041TIP3    H215130   3.911   3.665   0.269 -0.3811  0.9038  1.5509
 5042TIP3   OH215131   0.795   0.051   2.836 -0.0697  0.0118 -0.0524
 5042TIP3    H115132   0.752  -0.033   2.820 -0.2953 -0.0501  0.8027
 5042TIP3    H215133   0.732   0.117   2.808  0.0393 -0.0964 -0.5643
 5043TIP3   OH215134   0.730   3.174   5.111 -0.2765 -0.4650  0.3694
 5043TIP3    H115135   0.808   3.195   5.059 -1.3613 -1.4319 -1.7732
 5043TIP3    H215136   0.700   3.091   5.076 -2.4682  0.0407  0.9154
 5044TIP3   OH215137   1.350   4.458   2.239  0.2995  0.3746 -0.1074
 5044TIP3    H115138   1.299   4.508   2.176 -1.4639 -4.1378 -2.7083
 5044TIP3    H215139   1.425   4.424   2.190  0.3784 -1.0824  0.9392
 5045TIP3   OH215140   3.344   0.743   0.175  0.1451  0.6181 -0.4364
 5045TIP3    H115141   3.373   0.672   0.232 -1.6124 -0.2357 -0.5561
 5045TIP3    H215142   3.295   0.699   0.106 -0.5447  1.9209 -0.7924
 5046TIP3   OH215143   4.806   4.404   0.473  0.6943 -0.1558  0.0679
 5046TIP3    H115144   4.828   4.323   0.521  0.0869  0.4665  1.4580
 5046TIP3    H215145   4.712   4.413   0.484  0.9226  1.3618  0.9468
 5047TIP3   OH215146   5.579   0.186   1.055  0.2896  0.3329 -0.1908
 5047TIP3    H115147   5.602   0.112   0.998  2.7627  1.4114 -0.6996
 5047TIP3    H215148   5.544   0.252   0.996 -1.5851 -0.2204  0.2230
 5048TIP3   OH215149   2.959   5.067   1.068 -0.4152  0.0636 -0.1001
 5048TIP3    H115150   3.053   5.057   1.081 -0.5563 -0.7893  0.3864
 5048TIP3    H215151   2.945   5.161   1.063  0.3104  0.2581  1.1274
 5049TIP3   OH215152  -0.012   3.600   3.279  0.1173  0.1985  0.3473
 5049TIP3    H115153   0.011   3.595   3.186 -0.9801  1.3323 -0.0058
 5049TIP3    H215154   0.029   3.522   3.318 -0.2399 -0.8478 -1.2679
 5050TIP3   OH215155   0.787   1.048   0.862  0.1211 -0.1435 -0.1319
 5050TIP3    H115156   0.699   1.011   0.862  0.5783 -1.3241  1.3884
 5050TIP3    H215157   0.842   0.979   0.825  0.6491 -0.1315  0.6048
 5051TIP3   OH215158   3.769   5.585   2.266  0.1454 -0.6491 -0.0254
 5051TIP3    H115159   3.787   5.502   2.222  1.8929 -0.4817  0.2699
 5051TIP3    H215160   3.824   5.582   2.345 -0.6779  0.2945  0.6121
 5052TIP3   OH215161   1.657   2.297   0.892 -0.4889  0.2280 -0.5219
 5052TIP3    H115162   1.737   2.264   0.933 -0.5248  2.2323  1.3290
 5052TIP3    H215163   1.587   2.263   0.948 -0.7400  0.6305 -0.5908
 5053TIP3   OH215164   6.174   4.709   1.509  0.0230 -0.0176  0.4213
 5053TIP3    H115165   6.141   4.705   1.599 -1.3446  1.4066  0.0324
 5053TIP3    H215166   6.097   4.690   1.455  0.7668 -0.5844 -0.4649
 5054TIP3   OH215167   2.178   2.460   1.108  0.2165  0.1252 -0.1845
 5054TIP3    H115168   2.213   2.372   1.094  1.3046  0.8310 -2.4030
 5054TIP3    H215169   2.241   2.518   1.064  0.7124  2.2577  3.0035
 5055TIP3   OH215170   4.000   3.099   0.953 -0.7585  0.6579 -0.0663
 5055TIP3    H115171   4.095   3.088   0.951 -0.5893  1.6054 -3.0786
 5055TIP3    H215172   3.980   3.124   1.043  1.3537 -2.8072  1.5969
 5056TIP3   OH215173   5.293   3.056   2.206 -0.3499  0.2820  0.3215
 5056TIP3    H115174   5.204   3.062   2.242 -0.4414  1.6028 -0.0702
 5056TIP3    H215175   5.337   3.133   2.241 -0.0455  0.8926 -1.3196
 5057TIP3   OH215176   1.585   3.579   0.310 -0.1346  0.3358 -0.1432
 5057TIP3    H115177   1.664   3.614   0.351  0.1253  1.2325 -1.3713
 5057TIP3    H215178   1.616   3.514   0.248 -0.5033 -0.6716  0.6889
 5058TIP3   OH215179   1.998   1.590   0.938 -0.4265 -0.0337  0.1171
 5058TIP3    H115180   1.939   1.597   1.013  1.8266 -1.8181  2.2347
 5058TIP3    H215181   2.019   1.496   0.934  2.1130  0.4972 -0.5965
 5059TIP3   OH215182   3.149   1.260   2.772  0.1073 -0.0310 -0.5779
 5059TIP3    H115183   3.162   1.226   2.683  0.4731  0.9196 -0.8975
 5059TIP3    H215184   3.060   1.234   2.794  0.1928 -0.7294 -1.0171
 5060TIP3   OH215185   6.102   3.298   4.968 -0.2625  0.2273  0.2538
 5060TIP3    H115186   6.076   3.214   5.005 -0.2135  0.1445  0.1028
 5060TIP3    H215187   6.196   3.290   4.956 -0.3859 -0.0260 -0.5850
 5061TIP3   OH215188   1.098   5.828   2.923  0.0927 -0.5704  0.5192
 5061TIP3    H115189   1.063   5.741   2.938 -0.2745 -0.8591 -1.7607
 5061TIP3    H215190   1.025   5.887   2.945  0.0581 -0.8587  1.2130
 5062TIP3   OH215191   2.551   4.294   2.344 -0.4183  0.2383  0.6760
 5062TIP3    H115192   2.466   4.253   2.359 -0.2882  0.1786  1.2932
 5062TIP3    H215193   2.544   4.381   2.385 -0.3552  0.4401  0.2671
 5063TIP3   OH215194   0.646   2.380   4.528  0.3877  0.1787 -0.2582
 5063TIP3    H115195   0.670   2.291   4.552  0.0521  0.1342 -0.0884
 5063TIP3    H215196   0.572   2.401   4.584 -0.4783  0.0304 -1.3161
 5064TIP3   OH215197   2.832   4.974   5.005  0.0659  0.7875  0.0034
 5064TIP3    H115198   2.813   4.953   4.914 -2.4236  1.1368  0.3800
 5064TIP3    H215199   2.816   4.893   5.053  1.9304  0.4427  0.1073
 5065TIP3   OH215200   5.745   2.114   1.882 -0.0356 -0.5807  0.0381
 5065TIP3    H115201   5.697   2.142   1.804 -0.0014 -1.7519 -0.4211
 5065TIP3    H215202   5.703   2.162   1.954 -0.7854 -0.3214 -0.5590
 5066TIP3   OH215203   1.890   1.754   1.381  0.7198 -0.1336 -0.7358
 5066TIP3    H115204   1.944   1.776   1.456  2.3081 -0.8322 -1.6419
 5066TIP3    H215205   1.818   1.702   1.417 -0.0198  1.7380  0.6365
 5067TIP3   OH215206   5.815   1.718   2.488 -0.7960  0.0296 -0.1540
 5067TIP3    H115207   5.876   1.648   2.465  0.0782  0.1810  1.5163
 5067TIP3    H215208   5.864   1.799   2.472 -0.7904  0.1743  0.5726
 5068TIP3   OH215209   3.613   3.510   3.213 -0.0770 -0.4947 -0.2395
 5068TIP3    H115210   3.561   3.463   3.147 -0.8509  0.8312 -0.6025
 5068TIP3    H215211   3.549   3.556   3.267  0.5253 -1.8412  1.7253
 5069TIP3   OH215212   2.272   4.511   3.281  0.2140  0.2364  0.5229
 5069TIP3    H115213   2.367   4.500   3.284  0.1050 -0.5589  1.2825
 5069TIP3    H215214   2.253   4.574   3.350  0.4951  3.0980 -1.7650
 5070TIP3   OH215215   3.883   1.139   2.546  0.4744  0.2017  0.2171
 5070TIP3    H115216   3.945   1.130   2.619 -0.6321 -0.2154  1.1248
 5070TIP3    H215217   3.798   1.151   2.588 -0.4765 -1.8355 -0.9753
 5071TIP3   OH215218   5.070   5.841   4.024 -0.2178  0.1575  0.1950
 5071TIP3    H115219   5.150   5.865   4.072  0.1816 -0.9245  0.1048
 5071TIP3    H215220   5.006   5.907   4.049  0.4935  0.6161  0.8534
 5072TIP3   OH215221   1.362   1.041   2.356  0.2537 -0.0730  0.2029
 5072TIP3    H115222   1.421   0.970   2.331 -1.5465 -1.3737 -0.6030
 5072TIP3    H215223   1.308   1.003   2.425 -0.8480  0.4521 -0.3529
 5073TIP3   OH215224   2.686   3.973   1.133 -0.5773 -0.1895 -0.3125
 5073TIP3    H115225   2.681   3.879   1.147 -1.1734 -0.2129 -0.6287
 5073TIP3    H215226   2.665   4.012   1.218  0.2035 -0.3389 -0.0462
 5074TIP3   OH215227   0.728   2.162   4.061 -0.3187 -0.0393  0.3146
 5074TIP3    H115228   0.814   2.118   4.055 -1.0999 -1.7074  0.7350
 5074TIP3    H215229   0.673   2.113   4.000 -2.0397 -1.6997  2.9954
 5075TIP3   OH215230   0.067   0.669   2.786 -0.2461  0.2866 -0.1960
 5075TIP3    H115231   0.071   0.608   2.859  0.4154  0.5188 -0.0347
 5075TIP3    H215232   0.136   0.733   2.804 -1.2942  1.4069 -0.0674
 5076TIP3   OH215233   0.866   2.712   4.314 -0.0376 -0.1006 -0.5928
 5076TIP3    H115234   0.793   2.649   4.315 -0.3086  0.1854 -1.4029
 5076TIP3    H215235   0.854   2.764   4.393 -0.0947 -0.7471 -0.1670
 5077TIP3   OH215236   0.056   3.210   0.125  0.2543 -0.2051  1.0553
 5077TIP3    H115237   0.069   3.176   0.213  0.6198  1.8572  1.8614
 5077TIP3    H215238   0.144   3.223   0.090  0.1408  0.2129  0.9079
 5078TIP3   OH215239   3.115   0.549   0.464  0.2724  0.2164  0.2548
 5078TIP3    H115240   3.086   0.464   0.432  0.9032  0.8693 -2.3546
 5078TIP3    H215241   3.201   0.561   0.425 -0.5764  2.8101 -1.0940
 5079TIP3   OH215242   0.559   3.621   0.693  0.2587  0.7244 -0.3464
 5079TIP3    H115243   0.632   3.626   0.755 -0.8100  1.4081  0.9068
 5079TIP3    H215244   0.600   3.609   0.608  1.8831  2.2070  0.1853
 5080TIP3   OH215245   6.048   3.683   4.562 -0.4429  0.1949 -0.1196
 5080TIP3    H115246   5.959   3.647   4.567  0.0041 -0.7467  1.8145
 5080TIP3    H215247   6.044   3.763   4.615  0.0068 -0.2198  0.5589
 5081TIP3   OH215248   2.744   4.932   2.236  0.0099  0.2741  0.3245
 5081TIP3    H115249   2.695   4.941   2.154  1.7757 -0.4399 -0.8686
 5081TIP3    H215250   2.754   5.021   2.268 -0.0999  0.6470 -0.6332
 5082TIP3   OH215251   3.198   1.357   2.311 -0.4531  0.1986  0.3799
 5082TIP3    H115252   3.279   1.307   2.321  0.5229  1.7576  0.7780
 5082TIP3    H215253   3.167   1.337   2.222  0.9160  0.2974 -0.1438
 5083TIP3   OH215254   0.147   1.955   4.038 -0.0404  0.1446  0.2240
 5083TIP3    H115255   0.228   1.906   4.048 -0.7823 -0.8406  1.7965
 5083TIP3    H215256   0.086   1.913   4.098 -1.8349  0.6360 -1.1568
 5084TIP3   OH215257   4.589   1.142   2.509  0.0951  0.0247 -0.2225
 5084TIP3    H115258   4.647   1.205   2.552 -0.4158 -1.0642  2.1790
 5084TIP3    H215259   4.641   1.063   2.500 -0.6661 -0.6588  1.0862
 5085TIP3   OH215260   4.254   1.264   4.322 -0.0701  0.0143  0.2068
 5085TIP3    H115261   4.273   1.346   4.366  0.9143 -0.0511 -0.0755
 5085TIP3    H215262   4.291   1.274   4.234  2.9215 -1.8049  1.0793
 5086TIP3   OH215263   6.186   1.524   1.288  0.3508 -0.4220  0.2926
 5086TIP3    H115264   6.117   1.460   1.269 -0.2303  0.7140 -1.7917
 5086TIP3    H215265   6.149   1.607   1.257  3.2007  0.0016 -2.3857
 5087TIP3   OH215266   1.554   4.352   4.533  0.3541 -0.1933  0.2507
 5087TIP3    H115267   1.482   4.374   4.592  0.6846 -0.5558  0.8012
 5087TIP3    H215268   1.558   4.424   4.471 -0.4086 -0.1177  0.2897
 5088TIP3   OH215269   3.339   4.761   4.929 -0.3413 -0.2504  0.2922
 5088TIP3    H115270   3.353   4.855   4.919 -3.0565  0.1784 -0.3069
 5088TIP3    H215271   3.281   4.754   5.006  0.7870 -1.5657  1.0666
 5089TIP3   OH215272   3.784   2.696   2.039  0.5443 -0.0225 -0.0100
 5089TIP3    H115273   3.749   2.774   1.996 -1.0687  0.0792  1.3582
 5089TIP3    H215274   3.877   2.695   2.016 -0.0209  0.4813 -2.7146
 5090TIP3   OH215275   1.796   1.883   0.160 -0.0455 -0.7797  0.5873
 5090TIP3    H115276   1.713   1.846   0.131  0.5445 -1.6393 -0.0737
 5090TIP3    H215277   1.863   1.827   0.119  0.8640 -1.7107  3.1185
 5091TIP3   OH215278   6.096   1.187   2.333  0.0665  0.3927  0.1935
 5091TIP3    H115279   6.003   1.206   2.325 -0.0247  0.7858  1.7607
 5091TIP3    H215280   6.114   1.121   2.266 -2.2280 -2.6444  2.2844
 5092TIP3   OH215281   2.026   3.065   0.897  0.0170  0.3256 -0.2315
 5092TIP3    H115282   2.108   3.038   0.938 -0.6259 -1.1984  0.1111
 5092TIP3    H215283   2.048   3.075   0.804  0.5098 -0.4572 -0.2068
 5093TIP3   OH215284   3.375   2.268   0.281 -0.5996  0.2385 -0.1948
 5093TIP3    H115285   3.364   2.222   0.365  3.0749 -1.8545 -0.6305
 5093TIP3    H215286   3.449   2.327   0.295 -0.3437  0.3336 -1.7675
 5094TIP3   OH215287   5.391   2.164   2.712 -0.2663  0.3641  0.0415
 5094TIP3    H115288   5.326   2.234   2.715  1.4456  1.9618  1.1120
 5094TIP3    H215289   5.454   2.192   2.646  0.5386 -0.0805  0.6086
 5095TIP3   OH215290   3.893   1.917   4.056 -0.1079 -0.0088 -0.3754
 5095TIP3    H115291   3.951   1.994   4.059  0.9570 -0.7710 -0.6290
 5095TIP3    H215292   3.835   1.934   3.982 -0.9836  1.2889  0.5764
 5096TIP3   OH215293   4.313   4.806   4.226 -0.7296  0.0623 -0.0143
 5096TIP3    H115294   4.272   4.764   4.302 -1.1855  1.4459  0.5427
 5096TIP3    H215295   4.255   4.788   4.153 -0.1053 -1.5859 -0.1369
 5097TIP3   OH215296   5.251   0.320   0.946 -0.1853  0.1011 -0.3782
 5097TIP3    H115297   5.250   0.224   0.943 -1.3610  0.0848  0.1776
 5097TIP3    H215298   5.204   0.347   0.867 -0.4796  0.2005 -0.1718
 5098TIP3   OH215299   2.931   3.600   0.800  0.3303 -0.0098  0.1734
 5098TIP3    H115300   2.848   3.568   0.836  0.9697  1.1804  2.9060
 5098TIP3    H215301   2.913   3.613   0.707 -2.2750 -0.6152  0.5172
 5099TIP3   OH215302   1.301   5.851   0.941 -0.4891  0.3828 -0.0830
 5099TIP3    H115303   1.310   5.792   0.866  2.4570  1.7158 -0.9462
 5099TIP3    H215304   1.237   5.916   0.914 -1.7105 -0.8189 -0.1933
 5100TIP3   OH215305   2.164   2.475   0.825  0.2512 -0.4159  0.5368
 5100TIP3    H115306   2.233   2.411   0.839  1.7876  0.1417 -3.2895
 5100TIP3    H215307   2.109   2.436   0.757  0.4861  1.6959 -0.9635
 5101TIP3   OH215308   0.952   5.389   1.060 -0.2393 -0.1657  0.0954
 5101TIP3    H115309   0.922   5.300   1.043  1.0709 -0.5436 -0.3592
 5101TIP3    H215310   0.924   5.438   0.983  1.6344 -0.8745 -1.1147
 5102TIP3   OH215311   1.236   2.523   3.657  0.0645  0.0591  0.0456
 5102TIP3    H115312   1.294   2.541   3.583 -0.5961  0.2877 -0.4273
 5102TIP3    H215313   1.295   2.500   3.729  0.7195 -0.0878 -0.5282
 5103TIP3   OH215314   2.258   5.173   5.009  0.0319 -0.1079 -0.3417
 5103TIP3    H115315   2.177   5.206   5.048  0.0179  0.8470 -1.1553
 5103TIP3    H215316   2.245   5.078   5.004 -0.6753 -0.0577  0.3273
 5104TIP3   OH215317   6.065   0.448   3.995 -0.3655  0.4010  0.0363
 5104TIP3    H115318   5.993   0.511   4.003 -1.1791 -0.4487 -0.3389
 5104TIP3    H215319   6.082   0.442   3.901  0.2564  0.6629  0.1313
 5105TIP3   OH215320   0.757   5.914   0.538 -0.0393  0.1497 -0.1744
 5105TIP3    H115321   0.707   5.978   0.588 -0.1108 -0.5844  0.7155
 5105TIP3    H215322   0.811   5.869   0.604  0.5127 -0.2408 -0.8776
 5106TIP3   OH215323   2.645   0.950   1.571 -0.8357  0.8694  0.3098
 5106TIP3    H115324   2.555   0.952   1.539  0.1012  0.7232 -2.5366
 5106TIP3    H215325   2.660   0.859   1.597 -0.6839  0.1859 -1.9666
 5107TIP3   OH215326   5.963   4.962   4.022 -0.2529  0.4754 -0.3071
 5107TIP3    H115327   5.959   4.909   3.942 -0.9532  0.9351 -0.5879
 5107TIP3    H215328   5.986   4.899   4.091  1.0926  0.2042 -0.9690
 5108TIP3   OH215329   3.303   1.607   3.523 -0.1840 -0.9474 -0.4559
 5108TIP3    H115330   3.282   1.651   3.441 -0.1550  0.5890  0.3312
 5108TIP3    H215331   3.229   1.548   3.538 -0.3897 -0.9294 -1.3607
 5109TIP3   OH215332   1.185   4.139   4.799  0.5007  0.1197  0.4193
 5109TIP3    H115333   1.118   4.129   4.866  1.3551  1.8681  1.6290
 5109TIP3    H215334   1.223   4.051   4.789  1.4693  0.0695  3.5029
 5110TIP3   OH215335   0.745   5.938   4.286  0.3799 -0.8223  0.3401
 5110TIP3    H115336   0.678   5.907   4.347 -0.5674 -2.8458 -1.5903
 5110TIP3    H215337   0.825   5.893   4.314  0.5942  0.3319  1.6615
 5111TIP3   OH215338   5.328   4.584   1.792 -0.1149  0.0632 -0.3135
 5111TIP3    H115339   5.235   4.607   1.788  0.2302  1.4292 -0.7881
 5111TIP3    H215340   5.361   4.599   1.704  0.4561 -0.9521 -0.2941
 5112TIP3   OH215341   3.658   0.400   4.666 -0.4511 -0.2036  0.0122
 5112TIP3    H115342   3.684   0.401   4.574 -4.1314  0.3656 -1.1990
 5112TIP3    H215343   3.673   0.489   4.696 -0.0473 -0.1626 -0.3055
 5113TIP3   OH215344   1.153   2.714   4.906  0.4126  0.3345 -0.2932
 5113TIP3    H115345   1.134   2.621   4.902  2.7138 -0.1609 -0.6895
 5113TIP3    H215346   1.218   2.729   4.838  0.8405  2.0319  0.4244
 5114TIP3   OH215347   4.932   2.354   3.472 -0.3155 -0.1387 -0.0704
 5114TIP3    H115348   4.869   2.377   3.404 -0.0327 -0.5640 -0.4764
 5114TIP3    H215349   4.924   2.259   3.481  0.1094 -0.1673  0.0329
 5115TIP3   OH215350   1.572   5.519   4.759  0.0839 -0.1071 -0.0953
 5115TIP3    H115351   1.567   5.424   4.766  0.9518 -0.2008 -0.5775
 5115TIP3    H215352   1.553   5.538   4.667 -1.9985  0.3604  0.3807
 5116TIP3   OH215353   3.489   4.706   3.965 -0.0667  0.4383 -0.4851
 5116TIP3    H115354   3.530   4.680   3.883 -2.1569 -0.6730 -1.2546
 5116TIP3    H215355   3.437   4.784   3.942 -1.9060 -0.7744 -0.6743
 5117TIP3   OH215356   1.199   0.631   1.675  0.1125 -0.3428  0.7912
 5117TIP3    H115357   1.275   0.644   1.731 -0.6560 -1.2313  2.0803
 5117TIP3    H215358   1.153   0.556   1.713 -2.3828  1.2503  1.1071
 5118TIP3   OH215359   5.019   0.084   3.276  0.1717  0.3332 -0.3261
 5118TIP3    H115360   4.979   0.036   3.203 -0.4370  2.3293 -1.3840
 5118TIP3    H215361   4.947   0.134   3.314  0.3396 -1.1715  2.1343
 5119TIP3   OH215362   4.932   5.737   2.906 -0.2453 -0.2145 -0.0804
 5119TIP3    H115363   4.966   5.663   2.856 -1.5049  0.3941 -1.9557
 5119TIP3    H215364   4.983   5.737   2.987  2.3526 -0.9072 -1.5910
 5120TIP3   OH215365   0.535   0.076   1.529  0.3988  0.6036 -0.3660
 5120TIP3    H115366   0.453   0.099   1.572  0.0049  1.7592 -1.6482
 5120TIP3    H215367   0.601   0.128   1.574  0.6510 -1.0902  1.3517
 5121TIP3   OH215368   3.801   3.373   1.391  0.5202  0.1964  0.3407
 5121TIP3    H115369   3.756   3.456   1.404 -0.0251  0.1028 -0.8631
 5121TIP3    H215370   3.739   3.307   1.423 -0.0680  0.0924 -0.9827
 5122TIP3   OH215371   1.515   1.775   0.816 -0.5055 -0.6540 -0.3307
 5122TIP3    H115372   1.488   1.865   0.797 -1.4331 -0.1793  2.6521
 5122TIP3    H215373   1.433   1.729   0.834  0.0371 -1.8629 -0.8981
 5123TIP3   OH215374   0.771   2.962   4.506 -0.2045  0.8633  0.4836
 5123TIP3    H115375   0.719   2.994   4.580 -0.5520 -0.8061  1.0058
 5123TIP3    H215376   0.714   2.973   4.430 -0.8774  0.1905  0.8750
 5124TIP3   OH215377   0.212   0.232   2.041  0.1494  0.1756  0.5775
 5124TIP3    H115378   0.240   0.184   2.118  0.3547  1.9048  1.6456
 5124TIP3    H215379   0.117   0.243   2.053 -0.2056 -1.3740 -0.5231
 5125TIP3   OH215380   1.398   5.702   4.019  0.2243 -0.3056 -0.4057
 5125TIP3    H115381   1.361   5.723   3.934 -0.7585  1.3057  0.3724
 5125TIP3    H215382   1.323   5.673   4.071  0.8044 -1.2211 -0.0496
 5126TIP3   OH215383   4.968   2.959   2.935  0.3598 -0.2654 -0.0983
 5126TIP3    H115384   4.976   3.026   2.867 -0.3778 -0.6088 -0.5405
 5126TIP3    H215385   4.989   3.004   3.017 -0.6048  0.6345 -0.3288
 5127TIP3   OH215386   2.159   4.421   0.044 -0.6386 -0.1620  0.4429
 5127TIP3    H115387   2.226   4.432   0.112 -1.6597  0.6516  1.3504
 5127TIP3    H215388   2.143   4.509   0.012  0.6704 -0.6458 -1.7615
 5128TIP3   OH215389   6.196   3.465   1.310 -0.0505  0.1726  0.0128
 5128TIP3    H115390   6.140   3.394   1.280 -1.9251  1.4980  0.2658
 5128TIP3    H215391   6.238   3.498   1.231 -0.7913  0.1393 -0.4022
 5129TIP3   OH215392   2.415   1.392   2.155 -0.1573  0.4417  0.2909
 5129TIP3    H115393   2.484   1.444   2.114  1.3904 -1.2060  0.6696
 5129TIP3    H215394   2.408   1.427   2.244  0.2289  0.5773  0.2696
 5130TIP3   OH215395   2.228   3.711   1.957  0.2812 -0.7686 -0.4697
 5130TIP3    H115396   2.309   3.671   1.924 -0.1785 -0.6130 -1.8722
 5130TIP3    H215397   2.174   3.636   1.983  1.0164 -0.8584  0.9035
 5131TIP3   OH215398   1.598   5.970   2.860  0.3137  0.1961 -0.2476
 5131TIP3    H115399   1.620   5.887   2.902  0.6511  0.2681 -0.2785
 5131TIP3    H215400   1.504   5.965   2.845  0.4138 -0.4090 -0.7352
 5132TIP3   OH215401   5.618   3.866   2.955  0.4804  0.1836 -0.6132
 5132TIP3    H115402   5.596   3.807   2.882  0.9707  1.5871 -1.9462
 5132TIP3    H215403   5.565   3.944   2.939  1.7978  1.1549 -0.3938
 5133TIP3   OH215404   4.069   0.420   0.833  0.2560 -0.0785 -0.0545
 5133TIP3    H115405   4.041   0.459   0.916  1.2026  0.5969 -0.0368
 5133TIP3    H215406   4.026   0.473   0.766 -0.1197 -0.3183 -0.0046
 5134TIP3   OH215407   4.299   4.901   2.815 -0.1975  0.4195 -0.0839
 5134TIP3    H115408   4.314   4.876   2.906 -0.9514 -0.0409 -0.0812
 5134TIP3    H215409   4.373   4.959   2.794  0.8202 -0.6934  0.3316
 5135TIP3   OH215410   1.599   2.394   3.835  0.0927 -0.4875 -0.2610
 5135TIP3    H115411   1.520   2.431   3.876  0.8506  2.0761 -0.9186
 5135TIP3    H215412   1.607   2.440   3.752  3.6738  1.3934  0.9207
 5136TIP3   OH215413   0.836   1.573   4.553  0.0750  0.5546  0.0681
 5136TIP3    H115414   0.856   1.504   4.490 -0.5154  0.1257  0.3418
 5136TIP3    H215415   0.849   1.655   4.505 -0.0933  0.2364 -0.5220
 5137TIP3   OH215416   0.690   4.391   2.237 -0.4451  0.5755 -0.4155
 5137TIP3    H115417   0.775   4.371   2.199 -0.6383 -1.6591  0.1342
 5137TIP3    H215418   0.710   4.447   2.312  0.3560  1.3996 -1.2205
 5138TIP3   OH215419   3.948   5.504   2.447 -0.6587  0.5151  0.1864
 5138TIP3    H115420   4.020   5.557   2.414 -0.5715 -0.3582 -1.0896
 5138TIP3    H215421   3.990   5.435   2.498 -0.7519  1.4379  1.5423
 5139TIP3   OH215422   5.219   0.516   3.254 -0.0735  0.0121  0.3036
 5139TIP3    H115423   5.130   0.486   3.272  0.2801 -1.0934  0.2742
 5139TIP3    H215424   5.226   0.599   3.302 -1.9112  1.4232 -1.6759
 5140TIP3   OH215425   1.759   4.010   2.925 -0.2085  0.5276  0.4052
 5140TIP3    H115426   1.797   3.994   2.838 -1.3828 -2.3616  0.3084
 5140TIP3    H215427   1.733   4.102   2.923  0.1634  0.6571 -2.1654
 5141TIP3   OH215428   4.063   4.546   3.550 -0.0679 -0.1157  0.1380
 5141TIP3    H115429   3.973   4.522   3.527  0.1638 -1.0977  0.2015
 5141TIP3    H215430   4.113   4.529   3.470  0.2761 -0.8546  0.5055
 5142TIP3   OH215431   4.455   2.081   2.448 -0.8856 -0.6977  0.0997
 5142TIP3    H115432   4.468   2.174   2.470 -0.1550 -1.3168  2.5860
 5142TIP3    H215433   4.532   2.059   2.394 -1.6412  0.3654 -1.4916
 5143TIP3   OH215434   2.598   4.266   4.320 -0.0989 -0.3331  0.5485
 5143TIP3    H115435   2.584   4.190   4.376  0.1620 -0.8824 -0.1196
 5143TIP3    H215436   2.515   4.279   4.274 -0.9332  1.2465  2.3780
 5144TIP3   OH215437   2.015   5.786   4.265  0.4682  0.3502 -0.0378
 5144TIP3    H115438   1.980   5.847   4.330 -1.6424  2.2155 -2.7035
 5144TIP3    H215439   2.087   5.834   4.224  0.8999 -0.2546  0.0123
 5145TIP3   OH215440   2.763   1.327   0.302 -0.2991 -0.2263  0.0972
 5145TIP3    H115441   2.802   1.373   0.228  2.5006 -0.0243  1.5499
 5145TIP3    H215442   2.741   1.241   0.268 -1.7052  0.7548 -1.6130
 5146TIP3   OH215443   4.288   4.410   0.939  0.7200 -0.0584 -0.4568
 5146TIP3    H115444   4.366   4.391   0.886  1.1745  3.2286 -1.1836
 5146TIP3    H215445   4.270   4.502   0.922 -1.3328  0.1724  2.3459
 5147TIP3   OH215446   4.338   5.053   2.443  0.2131  0.5931 -0.2435
 5147TIP3    H115447   4.398   4.982   2.421 -0.6025 -0.8967  1.9445
 5147TIP3    H215448   4.270   5.049   2.376 -0.2694 -1.3269  0.2803
 5148TIP3   OH215449   0.233   5.442   3.045  0.1316  0.3292 -0.2081
 5148TIP3    H115450   0.306   5.465   2.988  0.7821  1.0695  0.8844
 5148TIP3    H215451   0.203   5.357   3.013  1.0680  0.3101 -1.0680
 5149TIP3   OH215452  -0.000   5.223   2.271  0.7370 -0.2434  0.5890
 5149TIP3    H115453   0.079   5.234   2.323  1.9398  4.8070 -1.6536
 5149TIP3    H215454  -0.062   5.286   2.308 -0.6208 -0.9398 -0.3953
 5150TIP3   OH215455   6.216   5.197   1.556  0.5131  0.6405  0.0989
 5150TIP3    H115456   6.131   5.240   1.548  0.4352  0.6083  0.6948
 5150TIP3    H215457   6.202   5.110   1.518 -0.4142 -0.2593  2.2699
 5151TIP3   OH215458   0.178   3.026   1.378  0.2437  0.2251 -0.8504
 5151TIP3    H115459   0.189   3.040   1.283  0.5131 -0.2027 -0.8840
 5151TIP3    H215460   0.193   3.113   1.416  0.9027  0.2487 -1.1373
 5152TIP3   OH215461   6.053   0.939   2.562  0.7067  0.4297  0.1284
 5152TIP3    H115462   6.086   0.902   2.644 -0.0935 -0.1554  0.1972
 5152TIP3    H215463   5.971   0.983   2.587  1.1473  1.4389 -0.1220
 5153TIP3   OH215464   2.380   3.850   3.366  0.4565  0.3174 -0.2783
 5153TIP3    H115465   2.440   3.786   3.327  1.4938  0.5845  0.8614
 5153TIP3    H215466   2.308   3.796   3.401  0.7233 -0.1230 -0.3957
 5154TIP3   OH215467   2.443   4.767   4.560 -0.2393 -0.0833  0.2489
 5154TIP3    H115468   2.501   4.713   4.508 -0.9955  0.7883 -1.5663
 5154TIP3    H215469   2.438   4.850   4.514 -2.9251 -0.1236  0.2587
 5155TIP3   OH215470   0.737   3.569   3.897 -0.0068 -0.8884  0.2967
 5155TIP3    H115471   0.821   3.522   3.906  0.3348 -0.1368  1.1395
 5155TIP3    H215472   0.762   3.661   3.891 -0.6916 -0.7632 -1.0821
 5156TIP3   OH215473   1.776   5.290   0.846 -0.2792  0.0770 -0.0338
 5156TIP3    H115474   1.810   5.363   0.899 -1.1208  0.0473  0.5642
 5156TIP3    H215475   1.787   5.319   0.755 -2.1937  1.7272  0.1986
 5157TIP3   OH215476   2.802   1.958   0.738 -0.0949 -0.1671 -0.1622
 5157TIP3    H115477   2.731   1.912   0.782  0.2848 -1.2936 -0.6924
 5157TIP3    H215478   2.766   1.982   0.653 -0.5233  1.1861  0.3708
 5158TIP3   OH215479   6.335   4.515   1.238  0.3922 -0.1212 -0.0853
 5158TIP3    H115480   6.286   4.434   1.254 -1.1611  0.8310  0.2892
 5158TIP3    H215481   6.357   4.547   1.325 -0.6678  0.7884 -0.1267
 5159TIP3   OH215482   2.410   2.827   4.700  0.1637 -0.1269 -0.1260
 5159TIP3    H115483   2.361   2.881   4.762 -0.3200  1.6613 -1.9547
 5159TIP3    H215484   2.500   2.859   4.707 -0.3814  2.2364 -2.3506
 5160TIP3   OH215485   2.783   4.045   2.648  0.0022 -0.7742 -0.2860
 5160TIP3    H115486   2.690   4.052   2.671 -0.4842 -1.2360 -1.9789
 5160TIP3    H215487   2.786   3.980   2.578  1.2492  1.1252 -2.1174
 5161TIP3   OH215488   4.909   3.318   4.239  0.1712  0.4505  0.2185
 5161TIP3    H115489   4.869   3.387   4.185  2.1142  1.9443  0.5657
 5161TIP3    H215490   4.837   3.283   4.290 -0.9205  2.2564  0.0150
 5162TIP3   OH215491   4.813   1.896   1.954 -0.6546 -0.0707 -0.2736
 5162TIP3    H115492   4.807   1.839   2.031 -1.1168  2.1042  1.4058
 5162TIP3    H215493   4.723   1.916   1.931 -0.5099 -0.4487 -1.2187
 5163TIP3   OH215494   5.264   1.942   0.434 -0.4418  0.4187 -0.4272
 5163TIP3    H115495   5.321   1.981   0.499  0.3895 -0.2728 -0.7135
 5163TIP3    H215496   5.269   2.001   0.359  0.6450 -0.0958 -0.7837
 5164TIP3   OH215497   1.150   0.715   3.827 -0.0717  0.3104  0.5377
 5164TIP3    H115498   1.135   0.676   3.741 -0.5425 -2.3638  1.7155
 5164TIP3    H215499   1.086   0.672   3.884  0.6169  1.5655  2.3594
 5165TIP3   OH215500   3.498   1.894   0.563  0.2870  0.5953  0.3162
 5165TIP3    H115501   3.500   1.978   0.608 -2.4775  0.4722  0.8165
 5165TIP3    H215502   3.433   1.904   0.494 -0.0063 -1.1004  0.2941
 5166TIP3   OH215503   0.062   2.541   1.872  0.3495 -0.7745  0.7379
 5166TIP3    H115504   0.050   2.476   1.803  0.6263 -2.3765  2.1360
 5166TIP3    H215505  -0.024   2.582   1.881  0.3899 -0.3029 -0.7382
 5167TIP3   OH215506   0.140   2.546   2.264 -0.3679  0.1788 -0.0945
 5167TIP3    H115507   0.099   2.613   2.209 -1.1722  0.0154  0.2930
 5167TIP3    H215508   0.110   2.463   2.227 -1.0042  0.0680  0.6532
 5168TIP3   OH215509   3.049   5.291   3.747 -0.0689  0.3117 -0.0513
 5168TIP3    H115510   3.141   5.267   3.734 -0.3244  0.0802 -1.7249
 5168TIP3    H215511   3.001   5.234   3.686 -1.2908  0.6408  0.5758
 5169TIP3   OH215512   4.643   2.823   2.192 -0.2696 -0.2745 -0.1107
 5169TIP3    H115513   4.716   2.762   2.194  2.3538  2.6232  0.4437
 5169TIP3    H215514   4.604   2.813   2.105  2.6093 -0.0592 -1.5408
 5170TIP3   OH215515   1.618   3.003   4.687  0.0148  0.1301  0.3405
 5170TIP3    H115516   1.642   3.016   4.596 -0.8412 -0.7639 -0.0264
 5170TIP3    H215517   1.676   2.934   4.719 -0.6082 -0.5378  0.0596
 5171TIP3   OH215518   1.213   2.381   1.786  0.1499 -0.2509 -0.4499
 5171TIP3    H115519   1.122   2.380   1.815  0.1496 -0.4266 -0.4574
 5171TIP3    H215520   1.235   2.289   1.772  0.1701 -0.1795 -0.9307
 5172TIP3   OH215521   4.237   5.631   4.970  0.0471 -0.8233  0.6333
 5172TIP3    H115522   4.186   5.659   5.046  0.9431  0.7313  0.6949
 5172TIP3    H215523   4.183   5.655   4.895 -0.2451 -1.1354  0.7406
 5173TIP3   OH215524   5.919   4.701   3.601  0.2376 -0.3125  0.3889
 5173TIP3    H115525   5.829   4.677   3.622  0.4933 -3.8924 -1.7963
 5173TIP3    H215526   5.971   4.668   3.674 -0.0700  0.9674  1.2225
 5174TIP3   OH215527   1.304   0.406   3.738  0.1113 -0.0392 -0.4603
 5174TIP3    H115528   1.301   0.399   3.643  0.1205 -0.1230 -0.4548
 5174TIP3    H215529   1.379   0.352   3.764 -0.1715 -0.3875 -0.3703
 5175TIP3   OH215530   3.978   0.546   1.057 -0.1841  0.1688  0.1238
 5175TIP3    H115531   3.986   0.484   1.130 -1.8329 -0.2112  0.0092
 5175TIP3    H215532   3.915   0.611   1.088  0.1510  0.7703 -0.4514
 5176TIP3   OH215533   5.431   0.379   4.420 -0.2782 -0.1544 -0.0061
 5176TIP3    H115534   5.472   0.405   4.338  1.1459  0.2390  0.8031
 5176TIP3    H215535   5.497   0.395   4.487 -1.6543  0.2196  1.3303
 5177TIP3   OH215536   5.712   4.912   0.692 -0.1531 -0.1086 -0.8526
 5177TIP3    H115537   5.675   4.911   0.604 -0.4130  1.6081 -0.7958
 5177TIP3    H215538   5.697   5.001   0.723 -0.8008 -0.8857  1.2442
 5178TIP3   OH215539   1.080   5.183   4.299  0.6800  0.4584  0.6436
 5178TIP3    H115540   1.035   5.233   4.231  1.2091  3.1104  2.0962
 5178TIP3    H215541   1.172   5.182   4.272  0.6864  0.3390  0.6685
 5179TIP3   OH215542   2.748   2.305   3.595 -0.1097  0.1641 -0.1245
 5179TIP3    H115543   2.838   2.328   3.618 -0.7387  1.5457  1.0444
 5179TIP3    H215544   2.724   2.236   3.657 -0.3194  0.7891  0.4984
 5180TIP3   OH215545   0.680   1.940   2.596  0.5402 -0.7896 -0.2428
 5180TIP3    H115546   0.747   1.876   2.623  0.9803  0.4529  1.8555
 5180TIP3    H215547   0.661   1.918   2.505  0.5388 -4.0045  0.4120
 5181TIP3   OH215548   0.331   4.186   3.054 -0.1703  0.0082 -0.1717
 5181TIP3    H115549   0.361   4.276   3.069  0.4831  0.1238 -1.8582
 5181TIP3    H215550   0.378   4.134   3.119  0.8300  0.6912 -0.3124
 5182TIP3   OH215551   1.846   1.974   1.927 -0.0925  1.1763  0.4009
 5182TIP3    H115552   1.763   1.932   1.950  0.3116  0.9717  1.5506
 5182TIP3    H215553   1.901   1.903   1.896  0.1074  1.0821  0.9611
 5183TIP3   OH215554   5.472   5.877   3.687  0.0867  0.2072  0.3904
 5183TIP3    H115555   5.475   5.973   3.693  0.5311  0.2981 -0.8755
 5183TIP3    H215556   5.391   5.852   3.732 -0.3046  1.2259  0.2721
 5184TIP3   OH215557   0.070   2.037   0.216  0.2871  0.6080 -0.0898
 5184TIP3    H115558   0.133   1.979   0.173  0.5456  0.7365  0.1124
 5184TIP3    H215559   0.025   1.982   0.279  0.9981  0.7783  0.5720
 5185TIP3   OH215560   2.816   1.336   2.488 -0.0010  0.0116  0.3160
 5185TIP3    H115561   2.763   1.271   2.535  1.3992 -1.1579  0.3531
 5185TIP3    H215562   2.862   1.285   2.421  2.2597  0.6576  1.2705
 5186TIP3   OH215563   5.607   1.905   2.525  0.0958  0.1970 -0.0528
 5186TIP3    H115564   5.688   1.855   2.528 -0.0976 -0.0967  0.7225
 5186TIP3    H215565   5.634   1.993   2.500  0.6692  0.1182  0.2613
 5187TIP3   OH215566   1.690   5.691   3.606 -0.5689 -0.2422  0.3504
 5187TIP3    H115567   1.598   5.717   3.593 -0.2842  0.5982 -0.0575
 5187TIP3    H215568   1.714   5.650   3.523 -0.5592 -0.4174  0.4402
 5188TIP3   OH215569   5.570   0.176   2.977 -0.6203  0.3574 -0.0960
 5188TIP3    H115570   5.512   0.101   2.987 -1.2016  0.8798  0.6593
 5188TIP3    H215571   5.568   0.196   2.884 -1.2154  0.0186 -0.1659
 5189TIP3   OH215572   5.936   0.104   3.038 -0.5046 -0.0745  0.5015
 5189TIP3    H115573   5.912   0.119   2.946 -0.6522 -0.4338  0.4820
 5189TIP3    H215574   6.019   0.057   3.034  0.0293  0.8377  0.5663
 5190TIP3   OH215575   3.990   2.268   3.017 -0.0774 -0.3476  0.1070
 5190TIP3    H115576   4.021   2.196   2.962  1.5020 -2.4258  3.4118
 5190TIP3    H215577   3.917   2.231   3.067 -0.4655  0.9716  0.5595
 5191TIP3   OH215578   2.915   4.620   3.968  0.1674  0.6236 -0.0249
 5191TIP3    H115579   2.868   4.550   4.014 -0.2158 -1.3347 -3.1040
 5191TIP3    H215580   2.848   4.683   3.943 -0.3385 -0.3593 -1.2846
 5192TIP3   OH215581   3.089   4.098   2.764 -0.6124 -0.6862 -0.2847
 5192TIP3    H115582   3.007   4.077   2.720  0.2175 -0.4838 -2.0141
 5192TIP3    H215583   3.156   4.049   2.715  0.3071 -0.8963  1.1188
 5193TIP3   OH215584   2.177   3.228   3.162 -0.2060 -0.2761 -0.2436
 5193TIP3    H115585   2.249   3.173   3.130  2.8217  2.5741  1.1262
 5193TIP3    H215586   2.137   3.264   3.083  2.3621  0.9472 -1.0704
 5194TIP3   OH215587   3.860   5.964   0.839  0.1066 -0.2165  1.0777
 5194TIP3    H115588   3.850   6.045   0.790 -0.2025 -2.5432 -3.1342
 5194TIP3    H215589   3.954   5.957   0.856  0.0929  1.1336  1.8706
 5195TIP3   OH215590   1.075   4.923   1.319  0.2856 -0.1886 -0.5886
 5195TIP3    H115591   1.068   5.015   1.343 -1.3283 -0.5771  0.6201
 5195TIP3    H215592   1.088   4.924   1.224  1.0945  1.2769 -0.4916
 5196TIP3   OH215593   5.360   4.206   1.468  0.2237  0.7667  0.3490
 5196TIP3    H115594   5.392   4.135   1.524  0.5348  0.2381 -0.4813
 5196TIP3    H215595   5.298   4.254   1.523 -0.7587 -0.7381  0.6278
 5197TIP3   OH215596   4.393   0.713   1.617 -0.1230 -0.2101  0.2622
 5197TIP3    H115597   4.311   0.666   1.601  0.2553 -0.3993 -1.3166
 5197TIP3    H215598   4.459   0.644   1.627  0.2075 -0.0584 -0.7427
 5198TIP3   OH215599   5.945   5.505   3.415 -0.4124 -0.2874 -0.3889
 5198TIP3    H115600   6.033   5.514   3.453 -0.0476  1.6155 -1.5139
 5198TIP3    H215601   5.947   5.422   3.368  1.1613  0.2017 -1.2508
 5199TIP3   OH215602   0.805   4.014   0.175 -0.0539  0.0629  0.1564
 5199TIP3    H115603   0.799   3.956   0.251  1.0220  0.8899  0.8967
 5199TIP3    H215604   0.865   3.969   0.116 -0.6386 -0.4256 -0.0826
 5200TIP3   OH215605   1.405   3.664   3.851 -0.5547 -0.9746  0.6699
 5200TIP3    H115606   1.389   3.635   3.761 -0.7083 -0.5109  0.5448
 5200TIP3    H215607   1.460   3.596   3.889 -0.9057 -1.4258  0.3800
 5201TIP3   OH215608   4.945   2.756   0.460 -0.1422  0.7291 -0.1602
 5201TIP3    H115609   4.939   2.785   0.551  0.3831  1.3911 -0.3251
 5201TIP3    H215610   4.874   2.692   0.451  0.4546 -0.1424  1.0003
 5202TIP3   OH215611   4.008   5.878   2.609  0.4226  0.7878  0.3394
 5202TIP3    H115612   4.058   5.864   2.689  1.2565 -2.4599 -0.6055
 5202TIP3    H215613   3.917   5.867   2.635  0.6524  0.2939  0.9579
 5203TIP3   OH215614   0.022   4.690   0.950  0.0238  0.2748 -0.0167
 5203TIP3    H115615   0.049   4.773   0.989  0.6259  0.0318  0.0971
 5203TIP3    H215616  -0.005   4.712   0.862 -1.9585  0.9339  0.7061
 5204TIP3   OH215617   0.336   2.658   4.476 -0.4189  0.0281 -0.4580
 5204TIP3    H115618   0.316   2.730   4.536 -0.8679  0.3611 -0.9979
 5204TIP3    H215619   0.341   2.580   4.532  1.2191  0.6305  0.3224
 5205TIP3   OH215620   3.420   1.458   3.829 -0.0306  0.1856 -0.0158
 5205TIP3    H115621   3.341   1.493   3.787  0.0695  0.8166  0.3026
 5205TIP3    H215622   3.397   1.453   3.922  0.9670  2.4069  0.4323
 5206TIP3   OH215623   0.530   2.626   4.091 -0.1876  0.1202  0.0914
 5206TIP3    H115624   0.573   2.545   4.117 -0.6129  0.0336  0.5246
 5206TIP3    H215625   0.519   2.618   3.996  2.2809  0.8714 -0.3243
 5207TIP3   OH215626   5.224   4.384   1.616 -0.9723  0.5531  0.2243
 5207TIP3    H115627   5.149   4.426   1.574 -1.5468  0.4380  1.1125
 5207TIP3    H215628   5.296   4.444   1.601 -1.2535  0.7087 -0.5709
 5208TIP3   OH215629   2.702   3.336   0.383  0.2280 -0.1424  0.6250
 5208TIP3    H115630   2.767   3.299   0.323 -0.6668 -0.7004 -0.0369
 5208TIP3    H215631   2.668   3.413   0.337 -0.6341 -0.7111  0.2803
 5209TIP3   OH215632   3.485   4.208   0.864  0.2028 -0.0734 -0.7741
 5209TIP3    H115633   3.537   4.168   0.794 -0.6449 -2.4610 -0.1609
 5209TIP3    H215634   3.416   4.255   0.818 -0.5411 -1.8802 -1.6102
 5210TIP3   OH215635   5.565   0.945   5.112  0.3864 -0.3501  0.0619
 5210TIP3    H115636   5.580   0.913   5.023  0.4122 -3.2788  1.0233
 5210TIP3    H215637   5.638   0.908   5.163 -1.6699 -2.0819  1.9701
 5211TIP3   OH215638   0.044   4.268   3.797  0.4955 -0.0190  0.5260
 5211TIP3    H115639  -0.022   4.201   3.816 -0.6967  1.4067  1.6819
 5211TIP3    H215640   0.004   4.322   3.729  1.2720 -0.1728 -0.0789
 5212TIP3   OH215641   1.071   5.712   0.376  0.4793 -0.2070 -0.0284
 5212TIP3    H115642   1.156   5.681   0.409  0.4612 -1.0973 -0.7649
 5212TIP3    H215643   1.007   5.653   0.416  0.1525  0.6954  0.8200
 5213TIP3   OH215644   0.322   0.319   0.553  0.0944 -0.3938  0.7522
 5213TIP3    H115645   0.360   0.248   0.604  0.5526 -0.4420  0.3487
 5213TIP3    H215646   0.360   0.309   0.466 -0.3443 -0.0512  0.5153
 5214TIP3   OH215647   4.059   0.949   0.478  0.3978 -0.2655  0.3174
 5214TIP3    H115648   4.092   0.890   0.546  0.1804 -0.7688 -0.0134
 5214TIP3    H215649   3.970   0.920   0.461  0.6188 -0.4774 -0.5476
 5215TIP3   OH215650   2.049   2.305   0.612  0.4152  0.5002 -0.6299
 5215TIP3    H115651   2.083   2.267   0.531  0.9082  0.9576 -0.6393
 5215TIP3    H215652   1.992   2.236   0.648  2.6850 -1.0075  0.2978
 5216TIP3   OH215653   0.241   1.728   4.235 -0.0689 -0.5918 -0.6457
 5216TIP3    H115654   0.336   1.724   4.234 -0.1100 -1.8009 -0.7601
 5216TIP3    H215655   0.212   1.638   4.220 -1.2332 -0.2188 -0.7848
 5217TIP3   OH215656   6.301   5.812   1.597 -0.4729  0.0586 -0.3622
 5217TIP3    H115657   6.378   5.863   1.621 -0.3366 -1.1377  1.9830
 5217TIP3    H215658   6.229   5.875   1.595  0.0333  0.6801  0.5544
 5218TIP3   OH215659   1.748   3.101   3.957 -1.1343 -0.2425 -0.3878
 5218TIP3    H115660   1.779   3.109   3.866  0.5556 -0.9954  0.0774
 5218TIP3    H215661   1.754   3.190   3.991 -1.9769  0.0858 -1.0554
 5219TIP3   OH215662   0.261   3.985   0.499  0.3624  0.2376 -0.0600
 5219TIP3    H115663   0.314   3.965   0.421  3.0767 -0.6314  1.8541
 5219TIP3    H215664   0.284   4.075   0.521 -0.1056  0.3521 -0.0297
 5220TIP3   OH215665   2.329   2.099   2.465  0.3477  0.2955  0.6934
 5220TIP3    H115666   2.368   2.129   2.548 -2.4691  1.7023  1.6281
 5220TIP3    H215667   2.325   2.178   2.411 -1.9955  0.4572  1.0215
 5221TIP3   OH215668   5.147   1.996   4.311  0.1672 -0.4508  0.6260
 5221TIP3    H115669   5.239   1.991   4.284 -0.0984 -0.2191 -0.3590
 5221TIP3    H215670   5.111   2.069   4.261 -1.3433 -2.4858 -1.5407
 5222TIP3   OH215671   4.430   2.725   1.928  0.2002  0.6450 -0.0088
 5222TIP3    H115672   4.408   2.675   1.849 -0.6097 -1.8141  1.6817
 5222TIP3    H215673   4.502   2.677   1.968 -0.4859  0.8994  1.6029
 5223TIP3   OH215674   3.786   1.267   1.054 -0.7105 -0.1369 -0.4367
 5223TIP3    H115675   3.856   1.328   1.077 -2.2143  0.9919  1.4406
 5223TIP3    H215676   3.827   1.181   1.058  0.5559  0.4840  0.8049
 5224TIP3   OH215677   5.760   0.943   0.918 -0.4139 -0.2039  0.0332
 5224TIP3    H115678   5.856   0.950   0.920 -0.3900  0.5450 -2.0270
 5224TIP3    H215679   5.743   0.849   0.906  0.1104 -0.1880 -0.9021
 5225TIP3   OH215680   2.468   0.720   4.517  0.5330  0.3651 -0.3215
 5225TIP3    H115681   2.436   0.660   4.450  1.3269  1.2587 -1.5583
 5225TIP3    H215682   2.525   0.781   4.469 -0.0204  1.9325  0.9172
 5226TIP3   OH215683   4.310   5.018   1.390 -0.4098  0.4899  0.1715
 5226TIP3    H115684   4.215   5.026   1.402 -0.4516 -0.5499  0.6445
 5226TIP3    H215685   4.342   5.108   1.396 -1.4435  0.9482 -0.7935
 5227TIP3   OH215686   2.125   0.657   2.177 -0.2807  0.5729 -0.0596
 5227TIP3    H115687   2.062   0.668   2.106  0.2486 -1.2843 -0.8807
 5227TIP3    H215688   2.195   0.719   2.155  0.4591 -0.8095 -1.9149
 5228TIP3   OH215689   4.756   5.549   4.132  0.0791  0.6856  0.5658
 5228TIP3    H115690   4.697   5.544   4.057 -1.4282  1.1982  1.6807
 5228TIP3    H215691   4.843   5.561   4.093 -0.6690  0.9425 -1.0899
 5229TIP3   OH215692   2.009   1.711   0.693 -0.8444 -0.0601 -0.1668
 5229TIP3    H115693   2.020   1.678   0.782 -1.5501 -1.9238 -0.7210
 5229TIP3    H215694   1.919   1.744   0.691 -0.4042  1.2150  0.1527
 5230TIP3   OH215695   4.496   0.225   0.173 -0.2971  0.6997  0.4125
 5230TIP3    H115696   4.570   0.258   0.123  0.4074 -0.9047  0.3427
 5230TIP3    H215697   4.529   0.218   0.263  0.2737 -1.7156  0.0777
 5231TIP3   OH215698   5.917   5.363   1.297 -0.2648 -0.4061 -0.0884
 5231TIP3    H115699   5.992   5.365   1.237  0.7700  1.8034  1.1551
 5231TIP3    H215700   5.841   5.372   1.240  0.5358 -0.6054 -1.2295
 5232TIP3   OH215701   0.039   5.743   4.837 -0.0099 -0.5469  0.0869
 5232TIP3    H115702   0.005   5.793   4.911 -0.4293 -2.3726  1.1843
 5232TIP3    H215703  -0.008   5.777   4.761 -1.6180 -0.5030  1.0588
 5233TIP3   OH215704   2.051   5.903   0.161 -0.1657 -0.0566  0.1106
 5233TIP3    H115705   2.043   5.984   0.111 -0.7282 -0.1276  0.0832
 5233TIP3    H215706   1.993   5.915   0.236 -0.2236 -0.4176  0.1255
 5234TIP3   OH215707   2.202   1.937   3.607  0.1145 -0.0513  0.0035
 5234TIP3    H115708   2.208   1.968   3.697 -0.9196  0.6965 -0.1605
 5234TIP3    H215709   2.181   1.844   3.615  1.1304 -0.2492  0.5146
 5235TIP3   OH215710   5.379   1.368   1.569  0.4177  0.3939 -0.2667
 5235TIP3    H115711   5.440   1.436   1.597  0.9756 -0.0847 -0.3031
 5235TIP3    H215712   5.361   1.317   1.648  0.2331  0.4027 -0.3022
 5236TIP3   OH215713   5.020   2.434   2.487  0.7124 -0.0348  0.0811
 5236TIP3    H115714   5.085   2.492   2.527  1.4849 -0.6713 -0.2163
 5236TIP3    H215715   5.050   2.346   2.509 -0.0596 -0.3456 -0.0682
 5237TIP3   OH215716   6.238   0.567   2.259  0.6866  0.5606  0.4685
 5237TIP3    H115717   6.246   0.602   2.170  1.5859 -1.0833 -0.1356
 5237TIP3    H215718   6.246   0.644   2.315  0.2795  1.6164 -0.8496
 5238TIP3   OH215719   4.721   0.434   3.756 -0.1274  0.2838 -0.1205
 5238TIP3    H115720   4.650   0.497   3.768  1.5079  2.4308 -1.1400
 5238TIP3    H215721   4.780   0.451   3.830  0.3431 -0.0356 -0.4202
 5239TIP3   OH215722   2.976   4.019   1.094 -0.1081 -0.3508  0.3929
 5239TIP3    H115723   2.991   3.957   1.022  0.2851 -0.5082  0.6082
 5239TIP3    H215724   2.881   4.032   1.095 -0.0353  0.5479 -0.9044
 5240TIP3   OH215725   5.629   1.051   1.932 -0.2041 -0.1631  0.3652
 5240TIP3    H115726   5.719   1.065   1.960  0.0194 -1.2162  0.2345
 5240TIP3    H215727   5.591   0.995   1.999 -0.6853  0.0650  0.2887
 5241TIP3   OH215728   2.529   1.069   3.368 -0.2702  0.5807 -0.1987
 5241TIP3    H115729   2.596   1.015   3.327  0.9448  0.7094  1.5157
 5241TIP3    H215730   2.514   1.140   3.305 -0.3203 -0.5593 -1.5119
 5242TIP3   OH215731   5.648   3.701   0.996  0.1966  0.4117  0.0333
 5242TIP3    H115732   5.602   3.690   0.913 -0.4149  0.5864  0.3451
 5242TIP3    H215733   5.677   3.792   0.996 -2.0185  1.1995  1.0956
 5243TIP3   OH215734   0.236   2.114   1.294  0.4264 -0.4055 -0.0185
 5243TIP3    H115735   0.217   2.181   1.228 -1.3365 -1.0057 -0.1754
 5243TIP3    H215736   0.279   2.044   1.245  1.9043  0.4149  0.0700
 5244TIP3   OH215737   0.622   0.219   2.412 -0.4364 -0.5360  0.1479
 5244TIP3    H115738   0.528   0.236   2.402 -0.4809 -1.2998 -0.8581
 5244TIP3    H215739   0.630   0.124   2.411  0.2722 -0.5004  1.0971
 5245TIP3   OH215740   2.651   2.722   3.708 -0.3469  0.0018 -0.3474
 5245TIP3    H115741   2.606   2.649   3.664 -1.5804  0.2525  0.4313
 5245TIP3    H215742   2.734   2.731   3.662 -0.7400 -1.0453 -1.3034
 5246TIP3   OH215743   0.973   4.849   4.116  0.0453  0.1492 -0.0779
 5246TIP3    H115744   0.971   4.894   4.201  2.0632  0.9697 -0.3907
 5246TIP3    H215745   0.899   4.886   4.067 -1.8175 -1.1152  1.6171
 5247TIP3   OH215746   1.876   2.886   4.156 -0.3801 -0.0932  0.1488
 5247TIP3    H115747   1.941   2.949   4.186 -0.5009 -0.5901  1.5145
 5247TIP3    H215748   1.828   2.932   4.087  1.0088  0.4871 -0.4636
 5248TIP3   OH215749   2.028   0.069   0.888 -0.2633 -0.2307 -0.3159
 5248TIP3    H115750   2.090   0.004   0.857  0.1301  0.0516 -0.1234
 5248TIP3    H215751   1.982   0.027   0.960  0.6928  0.0542  0.4717
 5249TIP3   OH215752   2.138   3.787   3.492 -0.3799  0.0920  0.6424
 5249TIP3    H115753   2.091   3.871   3.487  0.0217  0.2754 -0.3102
 5249TIP3    H215754   2.099   3.734   3.422  0.6467  0.1630 -0.0031
 5250TIP3   OH215755   2.285   1.372   1.202  0.0411  0.4782  0.2045
 5250TIP3    H115756   2.331   1.290   1.185  1.8996  0.9407  2.4443
 5250TIP3    H215757   2.346   1.440   1.172  0.2622  1.0853  1.9291
 5251TIP3   OH215758   4.035   4.240   0.278  0.3469  0.3815  0.5507
 5251TIP3    H115759   3.998   4.290   0.206 -0.6433  0.0796  0.8282
 5251TIP3    H215760   4.061   4.157   0.239  1.3642  0.8392  0.2251
 5252TIP3   OH215761   0.999   0.425   0.468 -0.2761  0.2546 -0.1908
 5252TIP3    H115762   0.906   0.430   0.491 -0.1752 -0.5737  0.4476
 5252TIP3    H215763   1.005   0.466   0.382 -0.7756  2.9293  0.9474
 5253TIP3   OH215764   1.711   2.135   3.164 -0.1208 -0.5724 -0.1778
 5253TIP3    H115765   1.679   2.224   3.151  0.4729 -0.5074 -1.3255
 5253TIP3    H215766   1.800   2.136   3.128  0.3720 -1.3162  0.9280
 5254TIP3   OH215767   1.242   3.428   4.613 -0.6520  0.1687 -0.2018
 5254TIP3    H115768   1.179   3.396   4.677 -1.4956 -0.2042 -1.1747
 5254TIP3    H215769   1.196   3.498   4.567 -0.1225  0.3318 -0.4965
 5255TIP3   OH215770   3.529   1.443   3.565  0.2714  0.3133 -0.1715
 5255TIP3    H115771   3.501   1.434   3.656  2.3846  0.7257  0.5737
 5255TIP3    H215772   3.453   1.480   3.520 -0.8216  0.0694  1.4011
 5256TIP3   OH215773   0.542   1.579   2.255  0.1991  0.2229 -0.2138
 5256TIP3    H115774   0.555   1.616   2.168  1.7605 -0.6152 -0.3819
 5256TIP3    H215775   0.579   1.490   2.249  0.8340  0.3452  1.4223
 5257TIP3   OH215776   6.333   4.053   2.577  0.3500  0.0762 -0.3427
 5257TIP3    H115777   6.354   4.080   2.666 -0.0913 -0.1639 -0.1622
 5257TIP3    H215778   6.294   3.967   2.586 -0.8593  0.5727 -0.6419
 5258TIP3   OH215779   5.742   4.356   3.520  0.2592  0.3824  0.0692
 5258TIP3    H115780   5.727   4.267   3.550 -1.4024  0.4304 -0.5171
 5258TIP3    H215781   5.774   4.402   3.597  0.4127 -0.5368  0.5658
 5259TIP3   OH215782   4.905   0.136   2.126 -0.4250  0.0919  0.0520
 5259TIP3    H115783   4.933   0.120   2.035 -2.4832 -0.3823 -0.5513
 5259TIP3    H215784   4.892   0.049   2.163 -0.7464  0.2894  0.4139
 5260TIP3   OH215785   4.811   2.412   2.830 -0.0910 -0.0228 -0.5632
 5260TIP3    H115786   4.792   2.453   2.745  0.0225  2.4144  0.5128
 5260TIP3    H215787   4.896   2.369   2.817  0.5905  1.4960 -1.3082
 5261TIP3   OH215788   1.309   1.020   4.454  0.5538  0.3060 -0.4048
 5261TIP3    H115789   1.269   0.962   4.389 -1.3241 -0.3628  1.2332
 5261TIP3    H215790   1.403   1.006   4.445  0.2602 -0.9276 -1.9064
 5262TIP3   OH215791   3.712   1.249   4.302  0.3381  0.2697  0.1458
 5262TIP3    H115792   3.691   1.200   4.222 -0.9715  0.0838  0.5680
 5262TIP3    H215793   3.638   1.230   4.360  0.8169  1.1524  1.0558
 5263TIP3   OH215794   4.900   3.147   3.345 -0.1092 -0.1641  0.5076
 5263TIP3    H115795   4.937   3.188   3.424  0.4268  0.4688 -0.0619
 5263TIP3    H215796   4.806   3.139   3.365 -0.7342  3.4626 -0.1784
 5264TIP3   OH215797   5.882   1.867   0.065 -0.4663 -0.2856 -0.5996
 5264TIP3    H115798   5.788   1.874   0.046 -0.8946  0.8865  1.5902
 5264TIP3    H215799   5.902   1.774   0.054 -2.4157 -0.9597  0.9340
 5265TIP3   OH215800   3.773   5.333   0.185 -0.3837 -0.3637  0.0871
 5265TIP3    H115801   3.699   5.394   0.190 -0.5010 -0.5374  0.5049
 5265TIP3    H215802   3.843   5.383   0.143  0.0187  0.5508  1.7745
 5266TIP3   OH215803   2.242   2.592   0.572  0.4987  0.0102 -0.6915
 5266TIP3    H115804   2.336   2.613   0.574  0.4360  0.2859  1.7396
 5266TIP3    H215805   2.230   2.532   0.645 -1.5612  1.5821  0.3565
 5267TIP3   OH215806   6.142   2.759   0.915 -0.3451  0.4678 -0.0602
 5267TIP3    H115807   6.203   2.774   0.842 -0.0408 -1.0005 -0.1360
 5267TIP3    H215808   6.061   2.730   0.873  0.3551 -2.0858  0.1914
 5268TIP3   OH215809   5.778   1.818   3.843  0.2525  0.5990  0.4807
 5268TIP3    H115810   5.805   1.796   3.932 -0.5396  0.9267  0.8091
 5268TIP3    H215811   5.828   1.758   3.787 -0.1152 -0.4042  1.2107
 5269TIP3   OH215812   2.524   5.456   3.520  0.0809 -0.3256 -0.3090
 5269TIP3    H115813   2.542   5.462   3.614 -2.8435 -1.6074  0.4692
 5269TIP3    H215814   2.569   5.377   3.492  0.0556 -0.5577  0.2836
 5270TIP3   OH215815   0.867   0.934   1.121  0.4333  0.4120 -0.6995
 5270TIP3    H115816   0.842   0.920   1.030 -0.2513 -0.0846 -0.4502
 5270TIP3    H215817   0.860   1.028   1.134 -1.3381  0.3119 -0.6590
 5271TIP3   OH215818   5.984   1.514   2.719 -0.5137  0.1795 -0.6048
 5271TIP3    H115819   6.074   1.506   2.750 -1.0973 -0.1958  1.1052
 5271TIP3    H215820   5.989   1.496   2.625  1.4795  2.2571 -0.9730
 5272TIP3   OH215821   2.950   5.385   0.496 -0.4252  0.7806  0.2056
 5272TIP3    H115822   2.928   5.417   0.583  0.4171 -0.0373  0.7324
 5272TIP3    H215823   2.992   5.460   0.453  0.7937  0.6587  1.1425
 5273TIP3   OH215824   4.817   5.412   2.495 -0.2651 -0.3420  0.6640
 5273TIP3    H115825   4.912   5.421   2.503 -0.2910  0.1276  0.4799
 5273TIP3    H215826   4.785   5.502   2.489 -0.6147 -0.5193 -0.4352
 5274TIP3   OH215827   5.529   2.257   3.639  0.0066  0.2305  0.0139
 5274TIP3    H115828   5.576   2.230   3.560 -0.1902 -0.4129  0.1112
 5274TIP3    H215829   5.596   2.264   3.706 -0.1252 -1.7356  0.4284
 5275TIP3   OH215830   5.207   0.236   3.789 -0.1131  0.6470  0.0479
 5275TIP3    H115831   5.213   0.287   3.869  1.0386 -1.4569  1.3886
 5275TIP3    H215832   5.167   0.154   3.815  0.2131 -0.0647 -1.5519
 5276TIP3   OH215833   3.766   1.677   3.810  0.0789 -0.7050  0.4349
 5276TIP3    H115834   3.858   1.689   3.786  0.2375 -0.9619  0.8908
 5276TIP3    H215835   3.753   1.582   3.805 -0.5764 -0.5499 -1.0931
 5277TIP3   OH215836   2.176   4.026   2.464 -0.4554 -0.1577  0.1924
 5277TIP3    H115837   2.123   3.947   2.471  1.3804 -1.4250  0.5914
 5277TIP3    H215838   2.201   4.030   2.371  0.0225 -0.4653  0.3020
 5278TIP3   OH215839   2.988   4.291   2.919  0.5464 -0.2257  0.9702
 5278TIP3    H115840   3.024   4.237   2.849 -1.4868 -2.4609  1.4971
 5278TIP3    H215841   2.895   4.299   2.897  0.1058  0.0238  2.7751
 5279TIP3   OH215842   0.307   0.533   3.577 -0.8921 -0.0211  0.3715
 5279TIP3    H115843   0.265   0.463   3.526  0.5605 -0.6037 -0.0641
 5279TIP3    H215844   0.287   0.613   3.529  0.1415 -0.5185 -0.9331
 5280TIP3   OH215845   4.103   1.929   2.083  0.1129 -0.1031 -0.4515
 5280TIP3    H115846   4.147   1.971   2.157  0.1062 -1.8522  0.5895
 5280TIP3    H215847   4.064   1.850   2.120  0.5776 -1.3137 -2.4262
 5281TIP3   OH215848   5.538   3.126   4.275  0.1837 -0.0457  0.3365
 5281TIP3    H115849   5.504   3.166   4.354  2.0444  0.2822  1.0292
 5281TIP3    H215850   5.461   3.107   4.222 -0.9838  1.2689  1.4907
 5282TIP3   OH215851   4.637   1.250   5.138 -0.5460 -0.2956  0.5607
 5282TIP3    H115852   4.554   1.271   5.094 -0.5678 -1.0607  0.2149
 5282TIP3    H215853   4.704   1.269   5.072 -0.5307 -0.7733  0.4336
 5283TIP3   OH215854   4.029   1.423   2.437 -0.3646  0.3444  0.0740
 5283TIP3    H115855   3.993   1.380   2.360  0.5404 -0.7911  0.2437
 5283TIP3    H215856   3.958   1.422   2.502  0.5246 -4.0943  1.2827
 5284TIP3   OH215857   5.105   2.522   4.367 -0.5794 -0.1064  1.1859
 5284TIP3    H115858   5.171   2.472   4.319 -1.1324  1.3230 -1.1961
 5284TIP3    H215859   5.155   2.570   4.433  1.3916  3.0120 -2.2182
 5285TIP3   OH215860   5.595   3.529   2.153  0.4186 -0.3455  0.5430
 5285TIP3    H115861   5.637   3.456   2.199  0.6715 -0.8372 -0.4409
 5285TIP3    H215862   5.648   3.541   2.074 -0.8452 -0.4616 -0.3436
 5286TIP3   OH215863   1.781   2.713   0.838  0.5664  0.0715 -0.2832
 5286TIP3    H115864   1.841   2.671   0.900 -0.0694 -0.4547 -0.0052
 5286TIP3    H215865   1.838   2.755   0.774  1.2571 -1.4368 -0.7248
 5287TIP3   OH215866   5.968   4.005   3.647  0.1945 -0.2065 -0.1091
 5287TIP3    H115867   5.936   4.038   3.563 -1.2661 -0.1759  0.4417
 5287TIP3    H215868   6.058   3.978   3.629 -0.3525 -0.9717 -1.9060
 5288TIP3   OH215869   6.296   0.745   1.639 -0.8963  0.3293 -0.1660
 5288TIP3    H115870   6.376   0.754   1.588  0.0453 -0.3534  1.1335
 5288TIP3    H215871   6.297   0.820   1.699 -0.4954 -0.4200  0.7915
 5289TIP3   OH215872   2.164   1.393   2.486 -0.3136 -0.0634  0.4841
 5289TIP3    H115873   2.101   1.457   2.520 -1.3803 -1.3749  1.0895
 5289TIP3    H215874   2.221   1.444   2.428 -2.0094  1.1719 -0.1896
 5290TIP3   OH215875   5.709   3.285   1.166 -0.0925  0.1099 -0.1548
 5290TIP3    H115876   5.772   3.329   1.223  1.1131  1.1823 -2.1775
 5290TIP3    H215877   5.633   3.343   1.164 -0.4646 -0.3245  0.9363
 5291TIP3   OH215878   3.437   0.143   3.037 -0.0647 -0.2825 -0.0774
 5291TIP3    H115879   3.398   0.117   3.121  0.0908  0.7955  0.3570
 5291TIP3    H215880   3.530   0.126   3.048  0.0571  0.5287  0.2608
 5292TIP3   OH215881   6.041   1.763   4.854 -0.1134 -0.6360  0.2368
 5292TIP3    H115882   6.131   1.747   4.881  0.3640 -0.6474 -1.2755
 5292TIP3    H215883   6.005   1.822   4.920  2.0599  2.1724 -0.9000
 5293TIP3   OH215884   0.433   5.649   3.973 -0.3209  0.0814 -0.2954
 5293TIP3    H115885   0.359   5.707   3.991 -0.0318  0.0153  1.2607
 5293TIP3    H215886   0.445   5.653   3.878 -0.3499  2.5322 -0.2519
 5294TIP3   OH215887   5.572   3.837   0.195  0.6877 -0.1782  0.1308
 5294TIP3    H115888   5.650   3.789   0.224  0.0040 -1.0509  0.5572
 5294TIP3    H215889   5.512   3.770   0.164 -1.3141  0.0490  3.1226
 5295TIP3   OH215890   0.558   4.935   3.333  0.8127  0.2608  0.0570
 5295TIP3    H115891   0.641   4.940   3.286 -0.1098 -1.3938 -1.9173
 5295TIP3    H215892   0.504   4.876   3.279 -1.3576  0.6512  1.6907
 5296TIP3   OH215893   0.833   3.536   2.409 -0.0202 -0.4504 -0.4177
 5296TIP3    H115894   0.898   3.514   2.342 -0.6767 -0.2004 -1.1410
 5296TIP3    H215895   0.831   3.631   2.410 -0.3865 -0.4583 -0.3985
 5297TIP3   OH215896   4.450   0.798   0.868 -0.0377 -0.6314 -0.3679
 5297TIP3    H115897   4.506   0.723   0.888  3.6268  1.3325 -2.2290
 5297TIP3    H215898   4.491   0.872   0.914 -1.9010  0.7446 -0.7919
 5298TIP3   OH215899   2.305   1.646   4.856 -0.2803 -0.8637 -1.0762
 5298TIP3    H115900   2.277   1.645   4.764  2.7430 -2.6055 -2.1266
 5298TIP3    H215901   2.325   1.554   4.875 -2.0443 -0.7594  1.8262
 5299TIP3   OH215902   1.842   5.901   0.348  0.7456  0.1404  0.2028
 5299TIP3    H115903   1.805   5.972   0.401 -2.1438 -0.7847 -0.4189
 5299TIP3    H215904   1.837   5.824   0.404  1.9750 -0.0135  0.1404
 5300TIP3   OH215905   6.260   1.981   2.322  0.4945 -0.1696  0.3302
 5300TIP3    H115906   6.353   1.998   2.334  0.2911  0.0734  1.6816
 5300TIP3    H215907   6.216   2.054   2.365 -0.3510 -2.0272  2.8929
 5301TIP3   OH215908   2.122   5.472   3.536 -0.2467  0.1322 -0.1893
 5301TIP3    H115909   2.192   5.496   3.597 -0.2647  0.4749 -0.2999
 5301TIP3    H215910   2.047   5.525   3.564 -0.7827 -0.9852  0.5764
 5302TIP3   OH215911   4.909   3.959   2.484  0.6697  0.0503 -0.1201
 5302TIP3    H115912   4.875   4.002   2.563 -1.2204 -0.6940 -0.4632
 5302TIP3    H215913   4.868   4.007   2.412  0.6207 -0.6789 -0.5802
 5303TIP3   OH215914   2.771   0.931   3.268 -0.2723 -0.3763  0.5725
 5303TIP3    H115915   2.836   0.988   3.226 -0.8660 -0.1523 -0.0485
 5303TIP3    H215916   2.824   0.865   3.313  0.3944 -0.5253 -0.3854
 5304TIP3   OH215917   3.733   5.623   3.209 -0.5480  0.0225  0.2040
 5304TIP3    H115918   3.671   5.688   3.176 -0.9000 -0.4589 -0.0910
 5304TIP3    H215919   3.763   5.659   3.293 -0.7079  0.5825  0.0212
 5305TIP3   OH215920   6.155   5.554   0.783 -0.4499 -0.4782  0.7589
 5305TIP3    H115921   6.188   5.627   0.730  0.1224 -0.5405  1.0236
 5305TIP3    H215922   6.098   5.596   0.848 -1.3901 -0.4275 -0.0654
 5306TIP3   OH215923   2.260   4.350   0.897 -0.1740 -0.1393  0.0469
 5306TIP3    H115924   2.293   4.368   0.809  0.2892  0.4362  0.3326
 5306TIP3    H215925   2.228   4.435   0.928 -1.0200 -0.4873  0.1535
 5307TIP3   OH215926   2.448   5.051   3.550 -0.2731 -1.0709  0.0415
 5307TIP3    H115927   2.421   5.062   3.641 -2.4033  1.6916 -0.7744
 5307TIP3    H215928   2.537   5.086   3.546 -0.4326 -0.5478  0.9337
 5308TIP3   OH215929   5.311   0.628   4.017  0.1595 -0.0298 -0.0836
 5308TIP3    H115930   5.364   0.706   4.029  1.1656 -0.3881 -1.9441
 5308TIP3    H215931   5.261   0.644   3.937 -0.5158 -0.8086  0.1673
 5309TIP3   OH215932   4.357   1.004   4.377  0.4444 -0.0780 -0.3867
 5309TIP3    H115933   4.404   0.962   4.306  1.7693  0.9253 -0.1399
 5309TIP3    H215934   4.357   1.097   4.355  0.2377  0.1584  0.5636
 5310TIP3   OH215935   4.752   0.924   4.336 -0.0988  0.1882 -0.2957
 5310TIP3    H115936   4.799   0.926   4.419  0.1333  0.4648 -0.4303
 5310TIP3    H215937   4.660   0.914   4.360 -0.3958  3.1208  0.1274
 5311TIP3   OH215938   2.115   2.074   1.718  0.4024 -0.3241 -0.6700
 5311TIP3    H115939   2.163   2.000   1.756  1.9400 -0.4038 -2.6080
 5311TIP3    H215940   2.183   2.128   1.677 -0.8793  1.2785 -0.7833
 5312TIP3   OH215941   5.136   5.394   1.800 -0.6367 -0.3971  0.2450
 5312TIP3    H115942   5.074   5.406   1.728 -0.1553  0.0571 -0.1004
 5312TIP3    H215943   5.222   5.413   1.761 -0.3056 -0.7537  0.7839
 5313TIP3   OH215944   3.489   5.940   1.180 -0.5363  0.3873 -0.4772
 5313TIP3    H115945   3.447   6.020   1.213 -1.7834 -0.3602 -0.1823
 5313TIP3    H215946   3.419   5.893   1.135 -0.0913 -1.0506  0.2667
 5314TIP3   OH215947   2.141   0.820   0.364 -0.5854 -0.5304 -0.6968
 5314TIP3    H115948   2.210   0.886   0.356  1.0478 -2.0998 -0.1819
 5314TIP3    H215949   2.187   0.739   0.383 -2.5975 -1.6611 -0.3273
 5315TIP3   OH215950   5.641   0.250   1.319  0.3838 -0.4710  0.4743
 5315TIP3    H115951   5.690   0.181   1.365  0.2010 -0.3828  0.8021
 5315TIP3    H215952   5.649   0.227   1.227 -0.5739 -1.5395  0.6346
 5316TIP3   OH215953   3.437   1.903   4.627 -0.1043  0.2939 -0.4557
 5316TIP3    H115954   3.363   1.949   4.588  0.1984  0.1399 -1.2323
 5316TIP3    H215955   3.509   1.966   4.622  0.6400 -0.6033 -2.6414
 5317TIP3   OH215956   1.374   0.897   1.595 -0.0985 -0.3013  0.2175
 5317TIP3    H115957   1.398   0.813   1.634 -0.1831 -0.4781 -0.1006
 5317TIP3    H215958   1.341   0.949   1.667  1.3965  0.0170  0.7113
 5318TIP3   OH215959   1.957   4.259   4.435  0.1758  0.1035  0.2296
 5318TIP3    H115960   1.893   4.197   4.401  0.8893 -0.7430  0.4032
 5318TIP3    H215961   1.922   4.345   4.412  0.1862 -0.3983 -1.8438
 5319TIP3   OH215962   0.976   2.856  -0.012 -0.0647 -0.0055  0.1456
 5319TIP3    H115963   1.025   2.855   0.070  0.5449  0.1118 -0.2107
 5319TIP3    H215964   0.907   2.791   0.000  0.5275 -0.5877  0.4485
 5320TIP3   OH215965   3.506   5.691   1.778 -0.0826  0.1295  0.0965
 5320TIP3    H115966   3.577   5.627   1.782 -0.9437 -0.8892 -0.5040
 5320TIP3    H215967   3.550   5.776   1.783  1.1227 -0.4911  0.3554
 5321TIP3   OH215968   3.965   2.019   1.597  0.1001 -0.0769  0.2631
 5321TIP3    H115969   4.014   1.969   1.663 -1.4274 -0.9000  0.8117
 5321TIP3    H215970   3.877   2.025   1.632  0.1124  2.7225  0.0378
 5322TIP3   OH215971   1.833   3.897   3.520 -0.7852 -0.2410  0.0394
 5322TIP3    H115972   1.839   3.802   3.528  0.6975 -0.1082  0.9165
 5322TIP3    H215973   1.842   3.930   3.610 -0.5627  0.7512 -0.3251
 5323TIP3   OH215974   2.423   0.611   1.182 -0.0148  0.0484 -0.8499
 5323TIP3    H115975   2.509   0.650   1.200 -0.0677 -0.3064  0.2418
 5323TIP3    H215976   2.441   0.517   1.172 -0.6099 -0.5338  2.4641
 5324TIP3   OH215977   6.281   1.191   0.659  0.0146  0.1170 -0.1406
 5324TIP3    H115978   6.236   1.273   0.676 -0.0739  0.2574 -0.9765
 5324TIP3    H215979   6.370   1.218   0.634  0.5428 -0.1477  1.3674
 5325TIP3   OH215980   3.059   0.727   4.931  0.7330  0.1320 -0.5661
 5325TIP3    H115981   3.060   0.790   5.003  0.0603 -0.5098  0.0182
 5325TIP3    H215982   3.004   0.768   4.864  0.1771  0.1108 -0.1300
 5326TIP3   OH215983   2.215   5.547   0.808 -0.0278  0.0207 -0.1477
 5326TIP3    H115984   2.295   5.551   0.860  0.1703 -0.6956 -0.3894
 5326TIP3    H215985   2.152   5.601   0.856 -0.0773 -1.2240  1.2263
 5327TIP3   OH215986   2.642   0.870   0.665  0.6906 -0.1266  0.2648
 5327TIP3    H115987   2.700   0.892   0.592  0.2305  0.2795  0.0212
 5327TIP3    H215988   2.563   0.921   0.650 -0.1261 -1.4014  0.0678
 5328TIP3   OH215989   1.617   5.791   4.571  0.2473  0.8447  0.3693
 5328TIP3    H115990   1.558   5.823   4.640 -0.0419  0.6128  0.2309
 5328TIP3    H215991   1.703   5.787   4.613  0.0872  0.7889  0.6926
 5329TIP3   OH215992   1.489   2.929   0.250 -0.0867  0.2115  0.2671
 5329TIP3    H115993   1.496   2.985   0.327 -0.9024 -0.0726  0.5569
 5329TIP3    H215994   1.487   2.989   0.176  1.6076  0.4585  0.3805
 5330TIP3   OH215995   4.240   0.064   1.163  0.8051 -0.0203  0.3327
 5330TIP3    H115996   4.293   0.092   1.089  2.5867  0.6996  1.8240
 5330TIP3    H215997   4.262  -0.029   1.175  0.8057 -0.0361  0.2098
 5331TIP3   OH215998   5.840   4.975   3.495  0.1437 -0.7057 -0.3845
 5331TIP3    H115999   5.870   4.988   3.585 -0.7116 -0.9106 -0.0550
 5331TIP3    H216000   5.843   4.880   3.482 -0.9515 -0.8006 -0.1081
 5332TIP3   OH216001   0.354   3.033   3.561  0.5340  0.1870  0.6810
 5332TIP3    H116002   0.361   2.964   3.626 -1.2051 -0.5813  0.1274
 5332TIP3    H216003   0.433   3.024   3.507  1.3324 -0.0187  1.8480
 5333TIP3   OH216004   0.167   5.039   0.201 -0.4024 -0.0845 -0.4004
 5333TIP3    H116005   0.108   5.109   0.227  0.0309 -0.0664  0.6130
 5333TIP3    H216006   0.174   4.984   0.279  0.2346 -0.5575 -0.7796
 5334TIP3   OH216007   0.296   4.256   0.187  0.0373  0.5209 -0.0539
 5334TIP3    H116008   0.313   4.257   0.093  0.8325 -0.3345  0.0629
 5334TIP3    H216009   0.236   4.183   0.200 -0.7852  1.1905  0.0073
 5335TIP3   OH216010   3.359   2.938   3.635  0.5526  0.1443 -0.4589
 5335TIP3    H116011   3.310   2.926   3.554  0.1654  1.7630 -0.4942
 5335TIP3    H216012   3.296   2.975   3.697  1.4478  1.3096 -0.2027
 5336TIP3   OH216013   1.821   2.550   3.438  0.4362  0.5025 -0.2446
 5336TIP3    H116014   1.797   2.559   3.345  0.6230  1.4171 -0.2141
 5336TIP3    H216015   1.858   2.462   3.444 -2.5350 -0.9005 -0.3626
 5337TIP3   OH216016   5.114   0.358   2.661  0.1492  0.4651 -0.2309
 5337TIP3    H116017   5.085   0.428   2.719  1.1796  0.1128  0.7357
 5337TIP3    H216018   5.064   0.371   2.580 -0.2169  1.8583  0.2040
 5338TIP3   OH216019   4.487   4.746   1.884  0.7596  0.4829  0.3181
 5338TIP3    H116020   4.532   4.807   1.825  1.7730 -0.0892  0.4711
 5338TIP3    H216021   4.478   4.794   1.966  1.2377  0.5608  0.3306
 5339TIP3   OH216022   1.233   3.163   0.086  0.0749 -0.2029 -0.2247
 5339TIP3    H116023   1.178   3.213   0.026 -0.1603 -0.4682 -0.2342
 5339TIP3    H216024   1.172   3.104   0.130  0.5504 -1.5311 -1.2726
 5340TIP3   OH216025   5.063   0.419   0.785  0.1221 -0.1207 -0.0536
 5340TIP3    H116026   5.020   0.501   0.807  1.2633  0.3775  0.3479
 5340TIP3    H216027   4.990   0.357   0.773 -0.6907  0.5095  1.3660
 5341TIP3   OH216028   1.515   2.994   0.739 -0.2521  0.0746  0.0228
 5341TIP3    H116029   1.477   3.082   0.745 -0.6580 -0.0177 -0.9545
 5341TIP3    H216030   1.448   2.936   0.775 -0.6583  0.0117 -0.8092
 5342TIP3   OH216031   5.607   0.454   4.691  0.1840 -0.0518 -0.3810
 5342TIP3    H116032   5.664   0.504   4.749 -1.5505  0.7002  0.7826
 5342TIP3    H216033   5.657   0.376   4.668  0.5954 -0.9129  3.0146
 5343TIP3   OH216034   1.150   2.930   1.087 -0.3685  0.0653  0.0697
 5343TIP3    H116035   1.243   2.939   1.066 -0.2744  0.8434  0.7746
 5343TIP3    H216036   1.130   2.839   1.068  0.7620 -0.3425  0.7582
 5344TIP3   OH216037   5.084   4.948   0.528 -0.2630  0.2427 -0.2802
 5344TIP3    H116038   5.124   4.956   0.614 -0.4272 -0.5038 -0.1259
 5344TIP3    H216039   5.158   4.941   0.467 -0.1561 -0.3692 -0.0789
 5345TIP3   OH216040   0.457   0.222   4.953 -0.0324  0.1401 -0.0932
 5345TIP3    H116041   0.422   0.133   4.946  1.4878 -0.4121 -1.3897
 5345TIP3    H216042   0.395   0.276   4.903 -0.2213 -0.4293 -0.4813
 5346TIP3   OH216043   3.738   1.786   0.499  0.0604 -0.3856 -0.5201
 5346TIP3    H116044   3.744   1.863   0.442 -1.3785 -1.3812 -2.1291
 5346TIP3    H216045   3.644   1.778   0.518 -0.0102 -2.4325 -1.4515
 5347TIP3   OH216046   1.745   3.993   4.153 -0.4069 -0.0948  0.0719
 5347TIP3    H116047   1.724   4.059   4.219  0.5587 -0.2462  0.5393
 5347TIP3    H216048   1.839   4.003   4.137 -0.2496 -1.3065  0.1059
 5348TIP3   OH216049   6.012   4.932   0.076  0.3587 -0.4023  0.0638
 5348TIP3    H116050   5.970   4.958  -0.006 -0.3309  3.7048  1.4611
 5348TIP3    H216051   5.941   4.897   0.129  0.2669 -0.5777 -0.1727
 5349TIP3   OH216052   2.211   0.887   0.764 -0.6279 -0.3235  0.1592
 5349TIP3    H116053   2.136   0.842   0.724 -1.2385  1.2290 -0.5272
 5349TIP3    H216054   2.276   0.818   0.777 -2.9358 -2.1988  2.8264
 5350TIP3   OH216055   3.619   4.161   1.221  0.2959  0.0086  0.5340
 5350TIP3    H116056   3.634   4.196   1.309  2.3894 -1.8676  1.0094
 5350TIP3    H216057   3.706   4.155   1.182 -0.3914 -1.0173 -0.9401
 5351TIP3   OH216058   5.404   3.123   3.156 -0.5751  0.1202 -0.7310
 5351TIP3    H116059   5.472   3.179   3.193 -0.1592 -0.2979 -0.8518
 5351TIP3    H216060   5.322   3.158   3.192 -0.1299 -0.9567  1.5364
 5352TIP3   OH216061   1.894   5.451   1.634 -0.2571  0.6578 -0.0141
 5352TIP3    H116062   1.976   5.430   1.678  1.0379  2.8778 -1.1747
 5352TIP3    H216063   1.860   5.527   1.682 -0.8426  0.7059 -0.4935
 5353TIP3   OH216064   4.112   2.022   1.322  0.0375 -0.5071 -0.8860
 5353TIP3    H116065   4.032   1.971   1.308 -1.1395  0.3737  2.0206
 5353TIP3    H216066   4.111   2.045   1.415  3.7878 -0.5574 -0.6928
 5354TIP3   OH216067   3.299   4.643   4.673 -0.8405  0.0145  0.0951
 5354TIP3    H116068   3.301   4.549   4.689  0.2997 -0.0921 -0.5605
 5354TIP3    H216069   3.288   4.682   4.760 -0.3233 -0.6894  0.4843
 5355TIP3   OH216070   1.136   3.704   4.197  0.1426  0.3634  0.5071
 5355TIP3    H116071   1.199   3.633   4.185  0.9042  0.6679  2.4548
 5355TIP3    H216072   1.123   3.739   4.109  1.1708 -0.9870 -0.2190
 5356TIP3   OH216073   6.030   4.634   2.945  0.5047  0.3671  0.6543
 5356TIP3    H116074   6.111   4.678   2.918  0.9975 -1.3845 -0.9626
 5356TIP3    H216075   6.061   4.556   2.993 -0.2536  0.1633  0.8220
 5357TIP3   OH216076   0.299   0.603   1.093 -0.1657  0.8263  0.4594
 5357TIP3    H116077   0.233   0.539   1.118 -1.5485  1.7904 -0.5474
 5357TIP3    H216078   0.272   0.684   1.136  0.2045  1.2872 -0.1468
 5358TIP3   OH216079   4.030   3.447   4.605 -0.0887 -0.5228 -0.4131
 5358TIP3    H116080   3.959   3.494   4.560  0.7043  0.4645 -0.6641
 5358TIP3    H216081   3.999   3.356   4.609 -1.5831 -0.0317 -0.0741
 5359TIP3   OH216082   4.950   0.791   0.885 -0.2793 -0.1576 -0.3062
 5359TIP3    H116083   4.883   0.753   0.942  0.1849 -1.6859 -0.7156
 5359TIP3    H216084   5.022   0.813   0.944 -0.2243 -0.7280 -0.1555
 5360TIP3   OH216085   6.079   2.850   2.504  0.0757  0.3784 -0.1242
 5360TIP3    H116086   6.088   2.761   2.539 -0.9007  0.2405 -0.1814
 5360TIP3    H216087   6.057   2.903   2.581  0.6925  0.5751 -0.0851
 5361TIP3   OH216088   2.197   1.553   1.951 -0.3307 -0.1345  0.5249
 5361TIP3    H116089   2.267   1.602   1.995 -1.5931  1.3658  0.9534
 5361TIP3    H216090   2.180   1.479   2.009 -0.3100  0.4766  1.3384
 5362TIP3   OH216091   5.152   2.928   1.945  0.6563 -0.2004  0.1366
 5362TIP3    H116092   5.203   2.957   2.021 -0.9185  0.2437  1.0866
 5362TIP3    H216093   5.079   2.990   1.941  0.4521 -0.5226 -1.4588
 5363TIP3   OH216094   0.393   0.323   2.769 -0.0877 -0.3191  0.6527
 5363TIP3    H116095   0.326   0.266   2.806 -0.8582  1.1065  1.5464
 5363TIP3    H216096   0.344   0.394   2.727  0.8536  0.0439  0.1320
 5364TIP3   OH216097   2.164   0.968   2.304 -0.6553 -0.3033 -0.1572
 5364TIP3    H116098   2.253   1.003   2.300 -0.3265 -0.8763  1.5622
 5364TIP3    H216099   2.176   0.874   2.317 -1.5083 -0.3237  0.5592
 5365TIP3   OH216100   5.763   5.640   2.659  0.1936  0.1961 -0.4921
 5365TIP3    H116101   5.783   5.730   2.634 -1.2488  0.9164  0.8141
 5365TIP3    H216102   5.674   5.626   2.629  0.5667 -0.9896 -1.1142
 5366TIP3   OH216103   5.452   0.759   2.721  0.5445  0.5576 -0.4560
 5366TIP3    H116104   5.385   0.697   2.695  2.3874 -1.8614  0.2118
 5366TIP3    H216105   5.439   0.771   2.815 -0.7096  2.4685 -0.8014
 5367TIP3   OH216106   2.698   1.320   0.591  0.1768  0.3426  0.2258
 5367TIP3    H116107   2.781   1.289   0.627  0.7709  0.7115 -0.7579
 5367TIP3    H216108   2.710   1.313   0.496 -0.8235  0.6527  0.0678
 5368TIP3   OH216109   2.157   3.976   1.925  0.0324 -0.2495 -0.1494
 5368TIP3    H116110   2.234   4.032   1.936  0.6864 -0.9761 -0.8463
 5368TIP3    H216111   2.194   3.887   1.919 -0.7302 -0.4853 -1.8976
 5369TIP3   OH216112   6.084   5.490   2.200 -0.1060  0.2460  0.6533
 5369TIP3    H116113   6.126   5.457   2.280  0.6326 -0.8290 -0.1354
 5369TIP3    H216114   6.055   5.411   2.154  2.2619  0.5411 -1.6080
 5370TIP3   OH216115   2.406   5.611   1.037 -0.0972 -0.0381  0.6064
 5370TIP3    H116116   2.376   5.545   1.099  1.7799  0.2198  1.8849
 5370TIP3    H216117   2.356   5.690   1.059 -0.5843 -0.3721  0.7089
 5371TIP3   OH216118   2.290   5.290   0.766  0.2230 -0.4356 -0.2244
 5371TIP3    H116119   2.247   5.374   0.784  0.3466  0.1755 -2.4743
 5371TIP3    H216120   2.267   5.235   0.841 -2.7596  0.5231 -0.2818
 5372TIP3   OH216121   1.343   4.317   1.956 -0.1467 -0.3096 -0.0037
 5372TIP3    H116122   1.249   4.326   1.940  0.2083 -0.4450 -2.7215
 5372TIP3    H216123   1.357   4.223   1.966 -0.5232 -0.1573  2.7695
 5373TIP3   OH216124   4.989   3.533   3.955 -1.0600 -0.0979 -0.0776
 5373TIP3    H116125   4.899   3.508   3.973 -0.5760 -1.3729  0.7195
 5373TIP3    H216126   5.035   3.450   3.942  0.2506  0.4617  0.7943
 5374TIP3   OH216127  -0.029   4.985   2.555  0.4265 -0.2481  0.3050
 5374TIP3    H116128   0.004   4.912   2.503  0.4917 -0.8011  1.1121
 5374TIP3    H216129   0.047   5.042   2.567  1.0092 -1.2693  1.7350
 5375TIP3   OH216130   5.456   2.816   3.347  0.4048  0.1611  0.2236
 5375TIP3    H116131   5.533   2.853   3.390 -0.1365 -0.0033  1.3794
 5375TIP3    H216132   5.415   2.762   3.414 -1.4741  1.3219  0.0867
 5376TIP3   OH216133   4.579   1.326   3.657  0.8659  0.0880 -0.2817
 5376TIP3    H116134   4.604   1.349   3.567  1.7192  0.1331 -0.0385
 5376TIP3    H216135   4.641   1.374   3.712  1.8965 -1.7742  0.2666
 5377TIP3   OH216136   3.535   5.364   4.616  0.1043 -0.2620 -0.1701
 5377TIP3    H116137   3.619   5.364   4.661 -0.1170  0.4682  0.2495
 5377TIP3    H216138   3.548   5.306   4.541  1.6239  1.4365 -1.2943
 5378TIP3   OH216139   4.299   2.865   0.342  0.2257  0.3211  0.1414
 5378TIP3    H116140   4.361   2.827   0.404  0.7292  0.5498 -0.2078
 5378TIP3    H216141   4.239   2.794   0.322  0.7650 -0.1056 -0.0016
 5379TIP3   OH216142   0.319   2.783   3.677 -0.6722  0.3748  0.0162
 5379TIP3    H116143   0.228   2.808   3.696 -0.6437 -0.1483  0.9109
 5379TIP3    H216144   0.314   2.729   3.598 -1.6346 -2.6388  1.9550
 5380TIP3   OH216145   0.601   0.342   1.221  0.1689 -0.4298 -0.2094
 5380TIP3    H116146   0.556   0.413   1.266 -1.7044 -2.5807  1.5546
 5380TIP3    H216147   0.658   0.303   1.287  1.0943 -0.6814 -1.1235
 5381TIP3   OH216148   0.598   2.194   2.485  0.0417 -0.6936 -0.6692
 5381TIP3    H116149   0.621   2.105   2.511 -0.7177 -1.3020 -1.9600
 5381TIP3    H216150   0.519   2.183   2.432 -0.6623  0.8707  0.0118
 5382TIP3   OH216151   1.852   4.096   4.951  0.0276  0.0814  0.0295
 5382TIP3    H116152   1.803   4.102   4.869  0.0756  1.4778  0.0793
 5382TIP3    H216153   1.813   4.163   5.008  2.3806  1.7455 -0.1642
 5383TIP3   OH216154   2.347   1.371   4.887 -0.0455  0.3623 -0.1182
 5383TIP3    H116155   2.361   1.380   4.981 -1.2982 -0.0184  0.1280
 5383TIP3    H216156   2.341   1.277   4.872  0.8156  0.3958 -0.6906
 5384TIP3   OH216157   5.261   1.535   2.200 -0.0020 -0.9483 -0.5623
 5384TIP3    H116158   5.314   1.599   2.152 -1.7027 -0.6663 -2.1670
 5384TIP3    H216159   5.301   1.450   2.179  0.1370 -0.7005 -1.3561
 5385TIP3   OH216160   2.470   5.734   5.114  0.1078  0.3302  0.0633
 5385TIP3    H116161   2.531   5.671   5.152 -0.3530 -0.2793 -0.2003
 5385TIP3    H216162   2.422   5.770   5.189 -0.7940 -0.8651  0.0939
 5386TIP3   OH216163   3.386   4.203   0.112 -0.0185 -0.4000  0.8393
 5386TIP3    H116164   3.327   4.128   0.125 -1.0687 -0.2308 -2.1063
 5386TIP3    H216165   3.468   4.163   0.082 -0.3269 -0.4564  0.0306
 5387TIP3   OH216166   5.236   4.676   2.736  0.0779  0.0619  0.1146
 5387TIP3    H116167   5.147   4.678   2.702  0.1518  0.7890 -0.0623
 5387TIP3    H216168   5.275   4.596   2.700 -0.3693 -0.0367 -0.1490
 5388TIP3   OH216169   2.409   5.563   1.844 -0.6816  0.1118 -0.0639
 5388TIP3    H116170   2.434   5.547   1.753  1.4310 -1.5983  0.7208
 5388TIP3    H216171   2.452   5.493   1.893 -1.7965  0.9515  2.2658
 5389TIP3   OH216172   1.430   4.596   4.937  0.1037 -0.0949 -0.1705
 5389TIP3    H116173   1.482   4.670   4.905 -0.2412 -0.0611 -0.6624
 5389TIP3    H216174   1.420   4.612   5.031  1.7494 -0.5766  0.1124
 5390TIP3   OH216175   3.118   5.731   2.272  0.2435  0.1580  0.1572
 5390TIP3    H116176   3.128   5.789   2.347  3.5259  0.3683 -0.2877
 5390TIP3    H216177   3.199   5.680   2.270 -1.4154 -2.6884 -0.9731
 5391TIP3   OH216178   0.098   1.244   4.051 -0.4976 -0.2261 -0.2815
 5391TIP3    H116179   0.006   1.216   4.049 -0.4351 -0.3912 -0.9830
 5391TIP3    H216180   0.148   1.162   4.055 -0.2827 -0.3399 -3.1619
 5392TIP3   OH216181   1.849   4.544   4.670  0.0376 -0.3176  0.1064
 5392TIP3    H116182   1.785   4.613   4.656 -1.1969 -1.6705 -1.3881
 5392TIP3    H216183   1.820   4.500   4.749  0.2974  0.3083  0.5538
 5393TIP3   OH216184   1.311   4.867   3.805 -0.2927  0.9629  0.4010
 5393TIP3    H116185   1.226   4.910   3.809 -1.2888 -0.9049  0.7863
 5393TIP3    H216186   1.295   4.788   3.754  1.0041  0.1591  1.1801
 5394TIP3   OH216187   4.611   3.470   5.106  0.2368  0.2834  0.0049
 5394TIP3    H116188   4.691   3.514   5.135  1.3650 -1.2414 -0.6582
 5394TIP3    H216189   4.636   3.428   5.023 -1.5202  0.5162 -0.6731
 5395TIP3   OH216190   3.885   1.265   1.760  0.3054  0.2497  0.0089
 5395TIP3    H116191   3.979   1.261   1.743  0.5699  1.0178  1.1894
 5395TIP3    H216192   3.861   1.356   1.744 -0.3319 -0.0195 -0.6512
 5396TIP3   OH216193   6.073   1.188   3.097 -0.2376  0.4424  0.2614
 5396TIP3    H116194   6.100   1.184   3.005 -2.6514  0.9032 -0.5407
 5396TIP3    H216195   6.155   1.198   3.146  1.4414 -2.9585 -1.5336
 5397TIP3   OH216196   1.189   4.803   3.020 -0.3366  0.1647  0.5330
 5397TIP3    H116197   1.242   4.838   2.949  0.8839 -0.0987  1.2778
 5397TIP3    H216198   1.115   4.761   2.977  0.8620 -0.8172 -0.6523
 5398TIP3   OH216199   3.859   0.816   4.420  0.4253 -0.2323  0.2232
 5398TIP3    H116200   3.782   0.872   4.428 -0.1139 -0.6174 -1.6454
 5398TIP3    H216201   3.890   0.803   4.509 -0.5320  1.5078  0.8398
 5399TIP3   OH216202   3.827   1.885   0.754 -0.1291  0.6315 -0.4069
 5399TIP3    H116203   3.781   1.816   0.801  2.7525 -1.7038 -0.7007
 5399TIP3    H216204   3.821   1.859   0.662 -0.2654  1.6229 -0.6919
 5400TIP3   OH216205   4.308   5.765   0.817  0.0183 -0.0419 -0.6583
 5400TIP3    H116206   4.356   5.686   0.791  0.6416 -0.4113  1.4219
 5400TIP3    H216207   4.358   5.837   0.781  2.0747 -0.4299  1.2046
 5401TIP3   OH216208   1.018   1.005   3.036  0.5961  0.3623 -0.2780
 5401TIP3    H116209   0.988   1.092   3.061  1.8540  0.7360 -0.0130
 5401TIP3    H216210   0.963   0.945   3.087 -0.3976  0.9834 -0.5946
 5402TIP3   OH216211   2.525   1.484   1.138  0.3734 -0.7221 -0.0511
 5402TIP3    H116212   2.600   1.434   1.106  1.7210  2.2855 -2.0459
 5402TIP3    H216213   2.559   1.572   1.151 -2.9231  1.0296 -1.9059
 5403TIP3   OH216214   5.445   2.872   4.943 -1.0757 -0.2625  0.1677
 5403TIP3    H116215   5.352   2.853   4.955 -1.4877 -0.2920 -2.4242
 5403TIP3    H216216   5.477   2.802   4.885  0.7621 -0.6594  1.5604
 5404TIP3   OH216217   3.700   4.986   5.097 -0.1415  0.2093  0.6320
 5404TIP3    H116218   3.749   5.067   5.086  2.0381 -1.1730 -0.4681
 5404TIP3    H216219   3.686   4.954   5.008 -1.8279 -0.1837  0.9937
 5405TIP3   OH216220   3.114   4.139   3.632 -0.3842  0.3063  0.0349
 5405TIP3    H116221   3.158   4.063   3.595  0.3998  0.5226  0.5089
 5405TIP3    H216222   3.030   4.105   3.664 -0.8871  0.0350 -1.5178
 5406TIP3   OH216223   0.936   3.835   1.067 -0.4524 -0.2366 -0.3263
 5406TIP3    H116224   0.899   3.748   1.079  1.1266 -0.7900  0.9330
 5406TIP3    H216225   0.971   3.835   0.978 -2.2842 -0.1264 -1.0849
 5407TIP3   OH216226   6.077   3.216   1.230 -0.1709  0.3488 -0.6446
 5407TIP3    H116227   6.125   3.150   1.279 -0.6714  0.3890 -0.0929
 5407TIP3    H216228   5.985   3.196   1.247 -0.3318  1.0806 -0.6180
 5408TIP3   OH216229   2.816   2.295   5.122  0.8278 -0.4618  0.0884
 5408TIP3    H116230   2.909   2.299   5.097  0.9916  0.4859  0.7705
 5408TIP3    H216231   2.769   2.324   5.044  1.2587  1.1774  0.3802
 5409TIP3   OH216232   2.432   5.959   2.758 -0.0330  0.4622  0.4407
 5409TIP3    H116233   2.414   5.929   2.669 -1.1459 -1.9080  1.3699
 5409TIP3    H216234   2.358   6.016   2.779  0.6705  1.7219 -0.4084
 5410TIP3   OH216235   3.198   3.099   2.719  0.3231 -0.0763 -0.5489
 5410TIP3    H116236   3.220   3.068   2.632  0.1918 -0.0319 -0.5982
 5410TIP3    H216237   3.184   3.019   2.770  0.8824 -0.1121 -0.4395
 5411TIP3   OH216238   0.292   0.748   2.583  0.7654 -0.0121  0.5882
 5411TIP3    H116239   0.377   0.756   2.539  1.2161  0.7792  1.5837
 5411TIP3    H216240   0.261   0.838   2.592  0.4673 -0.2029  1.4974
 5412TIP3   OH216241   3.849   4.286   4.437 -0.4683 -0.2133 -0.0642
 5412TIP3    H116242   3.781   4.253   4.378 -0.0638 -0.1313 -0.5878
 5412TIP3    H216243   3.855   4.379   4.417 -0.8348 -0.0302  0.6317
 5413TIP3   OH216244   0.228   1.014   2.588  0.0779 -0.0894 -0.3373
 5413TIP3    H116245   0.238   1.107   2.605  0.1154 -0.3944  1.4944
 5413TIP3    H216246   0.136   1.004   2.564  0.1206  0.4318 -0.7407
 5414TIP3   OH216247   5.693   2.372   2.812 -0.6499 -0.2167  0.1534
 5414TIP3    H116248   5.780   2.334   2.798 -0.7406 -0.5651  0.5572
 5414TIP3    H216249   5.658   2.326   2.888 -1.5458 -0.6856 -0.5324
 5415TIP3   OH216250   6.341   2.020   1.894  0.5209 -0.0942  0.0165
 5415TIP3    H116251   6.395   1.940   1.895  0.7816  0.0558 -0.7825
 5415TIP3    H216252   6.267   1.997   1.836 -1.3692 -0.9605  2.5899
 5416TIP3   OH216253   2.839   1.164   0.897 -0.1781 -0.0291 -0.0451
 5416TIP3    H116254   2.923   1.167   0.943 -0.1824 -0.6761  0.0178
 5416TIP3    H216255   2.846   1.086   0.841 -1.0454 -0.5781  0.5866
 5417TIP3   OH216256   0.215   0.822   0.677 -0.0644  0.0795 -0.1473
 5417TIP3    H116257   0.122   0.842   0.689  0.2564  0.0155  3.3196
 5417TIP3    H216258   0.219   0.726   0.684  0.1796 -0.0029 -1.2849
 5418TIP3   OH216259   4.775   5.661   3.658  0.9064  0.0486 -0.5772
 5418TIP3    H116260   4.860   5.700   3.640  1.2569 -0.6941 -0.5579
 5418TIP3    H216261   4.783   5.570   3.627  1.0159 -0.8292  1.8242
 5419TIP3   OH216262   1.061   2.013   3.669  0.5807 -0.5023 -0.1821
 5419TIP3    H116263   1.047   2.108   3.662  0.3029 -0.6579 -2.0927
 5419TIP3    H216264   1.156   2.004   3.679  0.4536  0.0362  2.4437
 5420TIP3   OH216265   4.217   5.439   4.087  0.1213  0.1803  0.5589
 5420TIP3    H116266   4.129   5.428   4.124  0.5733  0.6336  1.8517
 5420TIP3    H216267   4.276   5.415   4.159  1.0557  0.7905  0.0218
 5421TIP3   OH216268   4.323   1.600   1.331  0.2381  0.1654 -0.4519
 5421TIP3    H116269   4.305   1.524   1.386  1.0125  0.9615  0.9825
 5421TIP3    H216270   4.414   1.591   1.306  0.1944  0.3648 -0.6855
 5422TIP3   OH216271   2.575   2.044   2.928  0.0292 -0.1903  0.2292
 5422TIP3    H116272   2.507   2.058   2.994 -0.9467  0.3991 -0.8504
 5422TIP3    H216273   2.598   1.951   2.936 -3.0638 -1.2356 -1.2646
 5423TIP3   OH216274   4.177   4.103   3.632  0.1896 -0.1955 -0.0315
 5423TIP3    H116275   4.166   4.083   3.725 -2.3086  2.3829  0.3843
 5423TIP3    H216276   4.141   4.027   3.587 -2.6248  0.2123  1.2833
 5424TIP3   OH216277   1.865   4.604   3.028 -0.4778 -0.0578  0.5692
 5424TIP3    H116278   1.772   4.606   3.005 -0.5251  1.3455  0.8207
 5424TIP3    H216279   1.910   4.587   2.945 -0.8936  0.5633  0.2090
 5425TIP3   OH216280   4.896   4.856   1.919 -0.5365  0.0086  0.2635
 5425TIP3    H116281   4.867   4.830   2.006 -1.5933 -2.4951 -0.7585
 5425TIP3    H216282   4.823   4.907   1.884 -1.7703 -2.1298 -0.4633
 5426TIP3   OH216283   3.072   1.453   1.092 -0.4370 -0.1420 -0.3406
 5426TIP3    H116284   3.136   1.525   1.091 -0.3301 -0.2307 -1.1369
 5426TIP3    H216285   3.041   1.449   1.182 -0.2992  0.7807 -0.2395
 5427TIP3   OH216286   2.408   0.878   3.747 -0.4690 -0.4042 -0.1549
 5427TIP3    H116287   2.400   0.899   3.654  1.9295 -0.1945 -0.3802
 5427TIP3    H216288   2.368   0.792   3.756 -1.0187 -0.2839 -1.3171
 5428TIP3   OH216289   5.354   3.481   4.916  0.2322  0.4402 -0.3944
 5428TIP3    H116290   5.432   3.537   4.919  0.6898 -0.1799 -0.3981
 5428TIP3    H216291   5.386   3.397   4.883 -0.1453 -0.2760  0.9669
 5429TIP3   OH216292   0.668   1.733   3.696  0.0699  0.4835 -0.6736
 5429TIP3    H116293   0.735   1.687   3.747 -0.0629  1.4237  0.4029
 5429TIP3    H216294   0.698   1.823   3.692 -0.7891  0.7807 -0.7737
 5430TIP3   OH216295   0.531   2.654   3.096 -0.1739  0.1469  0.2326
 5430TIP3    H116296   0.610   2.705   3.117 -0.4730  1.1104 -0.8675
 5430TIP3    H216297   0.539   2.635   3.003 -0.8718 -0.4070  0.2808
 5431TIP3   OH216298   5.948   2.690   4.839 -0.0178 -0.0712  0.0245
 5431TIP3    H116299   5.905   2.624   4.894 -0.3041  0.3706  0.3362
 5431TIP3    H216300   5.878   2.730   4.789  0.1238  0.1596  0.0083
 5432TIP3   OH216301   4.207   5.828   0.034  0.0703  0.2693  0.4508
 5432TIP3    H116302   4.301   5.845   0.027  0.1772 -0.5157 -0.1504
 5432TIP3    H216303   4.170   5.869  -0.045  0.0628 -0.4181  0.0908
 5433TIP3   OH216304   3.194   5.902   1.789  0.0259 -0.8427 -0.1379
 5433TIP3    H116305   3.234   5.837   1.846  0.5972 -1.1553 -0.8866
 5433TIP3    H216306   3.101   5.877   1.787 -0.4276  0.3167  2.1867
 5434TIP3   OH216307   5.009   5.806   3.600 -0.2535 -0.5971 -0.2151
 5434TIP3    H116308   5.022   5.851   3.516  0.9349  1.5085  1.0086
 5434TIP3    H216309   5.091   5.819   3.648 -1.8277  0.7676  2.3499
 5435TIP3   OH216310   2.473   0.605   4.757 -0.0751 -0.1915 -0.5229
 5435TIP3    H116311   2.557   0.643   4.784  0.0945 -0.9905  0.0878
 5435TIP3    H216312   2.458   0.642   4.670  2.1197 -1.9178 -1.7352
 5436TIP3   OH216313   4.949   0.724   2.444  0.8731 -0.2097  0.5121
 5436TIP3    H116314   4.881   0.789   2.457  3.1821  2.4464  0.2316
 5436TIP3    H216315   4.931   0.657   2.510 -0.6458  1.5612  2.0050
 5437TIP3   OH216316   2.688   5.990   3.047 -0.1970 -0.1431 -0.1782
 5437TIP3    H116317   2.760   6.036   3.004 -0.6745  0.3215 -0.4966
 5437TIP3    H216318   2.704   5.898   3.028  0.2830 -0.0390 -0.2953
 5438TIP3   OH216319   2.457   4.751   3.050  0.6909  0.2322  0.4826
 5438TIP3    H116320   2.428   4.660   3.054  0.3099  0.3549  0.4778
 5438TIP3    H216321   2.547   4.746   3.018  1.4991 -0.3300  2.6459
 5439TIP3   OH216322   0.436   3.513   1.655  0.3028 -0.3301  0.2316
 5439TIP3    H116323   0.391   3.429   1.652  0.1619 -0.3641  2.3671
 5439TIP3    H216324   0.366   3.577   1.673  0.4091  0.2895 -1.3475
 5440TIP3   OH216325   4.107   2.131   2.812 -0.3185 -0.2091  0.1799
 5440TIP3    H116326   4.139   2.051   2.770 -1.5338 -1.1851  1.0555
 5440TIP3    H216327   4.129   2.200   2.750  1.5433 -1.0895 -0.2158
 5441TIP3   OH216328   0.360   5.378   3.635  0.5266  0.0474 -0.4510
 5441TIP3    H116329   0.273   5.363   3.673  1.3248  0.0577  1.5412
 5441TIP3    H216330   0.378   5.300   3.584 -0.1675 -0.5206  0.1473
 5442TIP3   OH216331   4.921   0.396   4.672  0.6316  0.4774 -0.4909
 5442TIP3    H116332   4.981   0.470   4.680 -0.2319  1.2891 -1.2992
 5442TIP3    H216333   4.955   0.346   4.598  1.1348  0.1338 -0.0334
 5443TIP3   OH216334   3.762   2.864   1.304 -0.7164  0.3600 -0.1942
 5443TIP3    H116335   3.784   2.775   1.279  2.2591  0.8035  0.4199
 5443TIP3    H216336   3.738   2.907   1.221  0.3073 -0.4054 -0.9227
 5444TIP3   OH216337   1.377   0.776   1.861 -0.2990  0.0256 -0.3658
 5444TIP3    H116338   1.345   0.833   1.930  0.2862 -0.1158  0.0265
 5444TIP3    H216339   1.460   0.741   1.895 -0.2910 -0.4840 -0.9000
 5445TIP3   OH216340   4.688   0.409   3.053 -0.2036  0.5684 -0.1596
 5445TIP3    H116341   4.697   0.495   3.095 -1.6097  1.0223 -0.7302
 5445TIP3    H216342   4.669   0.430   2.961 -2.3795 -0.2873  0.0424
 5446TIP3   OH216343   0.597   2.420   0.958 -0.2676  0.2137  0.0491
 5446TIP3    H116344   0.651   2.479   1.010  2.0707 -0.4320 -1.4973
 5446TIP3    H216345   0.632   2.333   0.977 -0.1389 -0.1395 -1.6506
 5447TIP3   OH216346   0.164   0.336   3.330 -0.2382 -0.3483  0.3721
 5447TIP3    H116347   0.193   0.246   3.348 -0.7430 -1.0752 -2.1582
 5447TIP3    H216348   0.235   0.375   3.280 -0.3488  0.4557  0.8139
 5448TIP3   OH216349   0.296   5.315   1.342  0.8772  0.4033 -0.3444
 5448TIP3    H116350   0.302   5.311   1.246  0.3778 -2.0089 -0.3279
 5448TIP3    H216351   0.203   5.303   1.361  0.7247  2.4654  0.4484
 5449TIP3   OH216352   2.840   0.731   3.472  0.3117  0.1346 -0.5759
 5449TIP3    H116353   2.932   0.758   3.472  0.3455  0.0199 -0.2598
 5449TIP3    H216354   2.843   0.637   3.452  0.1666  0.4430 -2.1647
 5450TIP3   OH216355   5.117   2.511   1.575  0.2222 -0.1039 -0.0668
 5450TIP3    H116356   5.194   2.463   1.547  0.7103  0.6972 -0.1104
 5450TIP3    H216357   5.120   2.508   1.671 -0.1197 -0.7302 -0.0677
 5451TIP3   OH216358   1.541   3.838   0.053 -0.4595  0.6124 -0.5278
 5451TIP3    H116359   1.495   3.861   0.134 -0.2032 -0.4789 -0.0472
 5451TIP3    H216360   1.625   3.885   0.059  0.0981 -0.4717  0.4768
 5452TIP3   OH216361   1.611   0.928   2.502 -0.1419  0.2143 -0.1508
 5452TIP3    H116362   1.623   0.909   2.409  0.3276 -0.6738  0.0796
 5452TIP3    H216363   1.527   0.973   2.507 -1.0758 -1.3659 -0.8017
 5453TIP3   OH216364   1.837   5.279   2.840  0.3804 -0.2603  0.0276
 5453TIP3    H116365   1.807   5.343   2.905 -0.4613 -0.1116 -0.4867
 5453TIP3    H216366   1.904   5.325   2.790 -1.3204  0.8350 -1.3822
 5454TIP3   OH216367   2.756   4.050   0.079  0.1004 -0.3190 -0.7497
 5454TIP3    H116368   2.708   4.048   0.162 -1.1798 -0.7620 -1.4586
 5454TIP3    H216369   2.836   4.099   0.098 -0.2590 -0.2437  0.6893
 5455TIP3   OH216370   4.011   2.273   2.218  0.1665  0.4173 -0.6570
 5455TIP3    H116371   3.973   2.254   2.132 -1.2351 -0.1649  0.0566
 5455TIP3    H216372   4.037   2.187   2.252  1.7831  0.7592 -0.9436
 5456TIP3   OH216373   4.838   4.849   1.315  0.4885 -0.1034 -0.8540
 5456TIP3    H116374   4.930   4.859   1.290  0.7336  0.0002  0.0312
 5456TIP3    H216375   4.820   4.927   1.369 -0.2811  0.1533 -1.4720
 5457TIP3   OH216376   5.173   3.401   2.268 -0.5740 -0.2552 -0.1204
 5457TIP3    H116377   5.110   3.440   2.329 -0.1498  0.1175  0.0909
 5457TIP3    H216378   5.219   3.476   2.231  0.0923 -0.5380  0.1068
 5458TIP3   OH216379   5.295   4.350   0.070 -0.1567  0.1239  0.0714
 5458TIP3    H116380   5.278   4.360  -0.023  2.1289  0.9528 -0.3479
 5458TIP3    H216381   5.356   4.276   0.076  0.8107  0.9396  0.7192
 5459TIP3   OH216382   4.502   0.517   4.783  0.0072  0.2063  0.0069
 5459TIP3    H116383   4.443   0.524   4.858 -0.8754  0.3648 -0.6848
 5459TIP3    H216384   4.550   0.599   4.782 -2.1405  1.5485 -1.3399
 5460TIP3   OH216385   3.070   5.467   5.114 -0.2002 -0.4592  0.1652
 5460TIP3    H116386   3.131   5.451   5.186  1.1714 -0.5447 -0.9675
 5460TIP3    H216387   3.123   5.456   5.035 -1.5620  0.0449 -0.8569
 5461TIP3   OH216388   5.130   2.120   1.486 -0.2266  0.7683 -0.4533
 5461TIP3    H116389   5.163   2.207   1.509  0.1579  0.8289 -1.1838
 5461TIP3    H216390   5.191   2.059   1.528  0.3334  0.8749 -1.0874
 5462TIP3   OH216391   4.409   3.339   3.817  0.5198  0.6032 -0.1689
 5462TIP3    H116392   4.390   3.332   3.911  2.2600  0.5047  0.2109
 5462TIP3    H216393   4.382   3.254   3.781  1.4413 -0.0177  0.5628
 5463TIP3   OH216394   3.106   2.001   1.509 -0.0054  0.1910  0.0948
 5463TIP3    H116395   3.162   2.047   1.447 -1.3025  1.7020 -0.0011
 5463TIP3    H216396   3.065   2.070   1.561 -0.8295 -0.9325  0.9995
 5464TIP3   OH216397   1.375   2.787   4.734 -0.9566 -0.5137  0.3487
 5464TIP3    H116398   1.440   2.748   4.676 -1.3913 -1.2698  0.3532
 5464TIP3    H216399   1.418   2.791   4.819 -0.5658 -0.0656  0.1341
 5465TIP3   OH216400   2.081   1.282   0.082 -0.3423  0.0569 -0.1049
 5465TIP3    H116401   2.109   1.343   0.014 -0.0608 -0.5024 -0.4959
 5465TIP3    H216402   2.082   1.334   0.163 -0.9893  0.8132 -0.5681
 5466TIP3   OH216403   5.448   2.829   1.816 -0.5595 -0.6728 -0.7733
 5466TIP3    H116404   5.538   2.827   1.784  0.3168 -1.0837  1.5247
 5466TIP3    H216405   5.436   2.918   1.850 -0.3374 -1.1556  0.6342
 5467TIP3   OH216406   0.960   2.947   5.069 -0.0645  0.2594 -0.1911
 5467TIP3    H116407   1.030   2.906   5.120  0.3417  0.9326 -0.1916
 5467TIP3    H216408   0.987   3.038   5.061  0.0559  0.1247 -1.8698
 5468TIP3   OH216409   4.208   0.980   3.318  0.3896  0.5218  0.1543
 5468TIP3    H116410   4.215   0.901   3.371  0.4424  1.2156  1.2039
 5468TIP3    H216411   4.298   1.004   3.298  0.4082  0.7277  0.4727
 5469TIP3   OH216412   2.654   5.141   4.059  0.3764  0.5597  0.5464
 5469TIP3    H116413   2.562   5.141   4.082 -0.2817  0.4341 -1.7934
 5469TIP3    H216414   2.694   5.204   4.119 -1.1283  0.2915  1.8856
 5470TIP3   OH216415   5.438   0.935   2.522 -0.7710  0.5454  0.6166
 5470TIP3    H116416   5.476   0.901   2.603  1.1265 -0.1574 -0.5180
 5470TIP3    H216417   5.343   0.927   2.535 -0.4987 -2.6450  1.4985
 5471TIP3   OH216418   3.938   4.985   0.522 -0.0511  0.1513  0.0888
 5471TIP3    H116419   3.926   4.983   0.427  2.5470 -0.3790 -0.2927
 5471TIP3    H216420   3.873   4.923   0.556 -1.9670  1.3829 -1.1594
 5472TIP3   OH216421   3.832   2.334   2.499  0.1443 -0.5854 -0.2611
 5472TIP3    H116422   3.759   2.301   2.447 -1.0673  0.5129  0.6902
 5472TIP3    H216423   3.899   2.358   2.434 -0.3234 -1.5805 -1.1427
 5473TIP3   OH216424   6.160   4.637   3.493  0.4997  0.1946  0.1340
 5473TIP3    H116425   6.072   4.656   3.524 -0.6588 -1.4494 -1.8628
 5473TIP3    H216426   6.192   4.720   3.459 -0.2345  0.8353  0.9670
 5474TIP3   OH216427   3.463   4.779   3.258 -1.0661  0.5552  0.0320
 5474TIP3    H116428   3.404   4.797   3.331 -0.9936  0.9871 -0.0152
 5474TIP3    H216429   3.405   4.777   3.181 -1.4937 -2.0369  0.3232
 5475TIP3   OH216430   0.646   3.474   1.997  0.4266  0.0411  0.0649
 5475TIP3    H116431   0.591   3.428   1.934  1.8115 -0.6948 -0.6435
 5475TIP3    H216432   0.585   3.507   2.063 -0.6669 -2.8918  0.6660
 5476TIP3   OH216433   6.299   0.053   1.978  0.3036 -0.8948 -0.1603
 5476TIP3    H116434   6.299   0.111   2.054 -2.2308 -1.3409  0.2827
 5476TIP3    H216435   6.239   0.095   1.916 -0.1837 -2.1126 -0.5560
 5477TIP3   OH216436   5.868   2.015   0.508 -0.1039 -0.0972  0.1357
 5477TIP3    H116437   5.860   2.025   0.413 -0.1943 -1.1205  0.0232
 5477TIP3    H216438   5.955   2.052   0.528  0.4344 -0.9597 -0.5248
 5478TIP3   OH216439   3.465   2.315   2.526  0.6500 -0.2901  0.0855
 5478TIP3    H116440   3.445   2.223   2.539  0.4141 -0.5648 -1.9414
 5478TIP3    H216441   3.551   2.315   2.483 -0.3574  0.2694 -2.0437
 5479TIP3   OH216442   0.679   3.201   0.894 -0.2148  0.1151 -0.0855
 5479TIP3    H116443   0.710   3.120   0.853 -0.1710 -0.4273  0.9652
 5479TIP3    H216444   0.616   3.171   0.959  0.6824  0.8229  1.1457
 5480TIP3   OH216445   6.056   5.876   4.373 -0.3302 -0.1869 -0.6188
 5480TIP3    H116446   5.985   5.830   4.328 -1.5921 -0.5253  1.5538
 5480TIP3    H216447   6.015   5.956   4.406  0.6516  0.2473 -0.4059
 5481TIP3   OH216448   5.559   0.135   0.681 -0.1395  0.0952  0.0669
 5481TIP3    H116449   5.475   0.100   0.652  0.8553 -1.4966 -1.0451
 5481TIP3    H216450   5.579   0.088   0.762  0.3172 -0.5729 -0.4228
 5482TIP3   OH216451   4.470   1.768   1.014 -0.0251  0.1671  0.0497
 5482TIP3    H116452   4.500   1.721   0.936  1.2129  0.3062  0.4256
 5482TIP3    H216453   4.376   1.749   1.019 -0.3247  0.9005 -1.9856
 5483TIP3   OH216454   1.466   2.106   5.064 -0.0534  0.5077  0.0232
 5483TIP3    H116455   1.373   2.090   5.045 -0.4136  1.2210  1.0554
 5483TIP3    H216456   1.479   2.198   5.041  1.1839 -0.3130 -2.9075
 5484TIP3   OH216457   4.116   4.812   3.676  0.2540  0.0411  0.1007
 5484TIP3    H116458   4.200   4.811   3.721  0.5188  0.2988 -0.3859
 5484TIP3    H216459   4.100   4.721   3.651 -0.0601 -0.1667  1.0087
 5485TIP3   OH216460   5.805   3.772   0.654  0.2217  0.0541  0.4983
 5485TIP3    H116461   5.872   3.707   0.631  0.0044  0.0996 -0.3153
 5485TIP3    H216462   5.725   3.721   0.662  0.1910  0.1196  0.6015
 5486TIP3   OH216463   5.901   2.242   2.585  0.2037 -0.4263 -0.5704
 5486TIP3    H116464   5.891   2.182   2.659 -0.9092  0.8842  0.3827
 5486TIP3    H216465   5.994   2.235   2.561  0.7763 -0.3634  1.4175
 5487TIP3   OH216466   2.328   2.511   2.592  0.6248  0.0232 -0.0541
 5487TIP3    H116467   2.291   2.598   2.605 -0.2358 -0.4355  0.6415
 5487TIP3    H216468   2.310   2.490   2.500  0.5425  0.4306 -0.1335
 5488TIP3   OH216469   5.303   1.781   1.992  0.0551  0.5145  0.2280
 5488TIP3    H116470   5.311   1.774   1.897 -0.6524 -2.7652  0.3066
 5488TIP3    H216471   5.210   1.765   2.010 -0.1132  2.4451  1.4698
 5489TIP3   OH216472   4.468   3.695   2.509  0.1089  0.5091 -0.2064
 5489TIP3    H116473   4.502   3.673   2.422 -1.1516 -0.5119 -0.4569
 5489TIP3    H216474   4.401   3.630   2.526  0.7927  0.2760  1.8421
 5490TIP3   OH216475   1.672   1.662   2.146 -0.3012  0.2576  0.2506
 5490TIP3    H116476   1.683   1.710   2.228  0.2931 -1.2614  1.0948
 5490TIP3    H216477   1.658   1.571   2.172  1.9412 -0.6428 -1.3620
 5491TIP3   OH216478   2.074   4.784   1.440 -0.0804 -0.3542  0.1373
 5491TIP3    H116479   2.018   4.737   1.378  0.7118  1.4039 -2.0488
 5491TIP3    H216480   2.162   4.750   1.425  0.2573  0.6975 -0.3889
 5492TIP3   OH216481   1.324   1.557   3.166  0.7900  0.2042 -0.6259
 5492TIP3    H116482   1.420   1.548   3.168  0.8572  0.9561  0.1443
 5492TIP3    H216483   1.292   1.490   3.226  0.9086  0.7385  0.0413
 5493TIP3   OH216484   0.743   3.671   3.553 -0.4485 -0.4113 -0.4921
 5493TIP3    H116485   0.776   3.667   3.643 -0.0746  0.1216 -0.6003
 5493TIP3    H216486   0.673   3.606   3.551 -1.1069  0.2389  0.4440
 5494TIP3   OH216487   5.460   5.168   4.506 -0.0264  0.7280 -0.0662
 5494TIP3    H116488   5.391   5.191   4.568 -1.6338 -0.7500 -1.1810
 5494TIP3    H216489   5.508   5.097   4.549 -0.2460  0.6625  0.0743
 5495TIP3   OH216490   2.227   0.024   2.500 -0.0828 -0.0928 -0.4635
 5495TIP3    H116491   2.306  -0.030   2.497 -0.0551 -0.0548 -0.4238
 5495TIP3    H216492   2.255   0.104   2.544 -0.1207 -0.0404 -0.5348
 5496TIP3   OH216493   3.910   0.050   3.823 -0.1773 -0.0920 -0.1866
 5496TIP3    H116494   3.829   0.017   3.861 -0.6971  0.2501 -0.9655
 5496TIP3    H216495   3.975   0.042   3.893 -1.1823  0.8664  0.8920
 5497TIP3   OH216496   0.791   0.203   3.578 -0.2231 -0.1680  0.8855
 5497TIP3    H116497   0.721   0.147   3.611  1.8009 -2.1542  2.2049
 5497TIP3    H216498   0.794   0.185   3.484  0.2312 -2.2327  1.2464
 5498TIP3   OH216499   5.532   1.598   1.652 -0.5125 -0.0679  0.3478
 5498TIP3    H116500   5.624   1.626   1.643 -0.8574  0.9724 -0.1713
 5498TIP3    H216501   5.519   1.586   1.746  0.5278 -1.5773  0.3247
 5499TIP3   OH216502   5.930   0.719   4.307 -0.7844  0.0679  0.1437
 5499TIP3    H116503   5.836   0.705   4.317 -0.7482 -0.1113  0.2321
 5499TIP3    H216504   5.970   0.650   4.359 -0.6033  0.5881  0.6991
 5500TIP3   OH216505   3.690   0.072   1.195 -0.1754 -0.2266 -0.0364
 5500TIP3    H116506   3.606   0.106   1.163  0.0439 -0.1058 -0.4927
 5500TIP3    H216507   3.707   0.123   1.275 -1.6241 -1.7908  1.3588
 5501TIP3   OH216508   4.588   0.431   1.543 -0.4191  0.6224  0.4597
 5501TIP3    H116509   4.681   0.424   1.522 -0.4254  0.5522  0.4560
 5501TIP3    H216510   4.545   0.450   1.460 -0.6083 -1.0333  0.1525
 5502TIP3   OH216511   5.268   0.169   1.874 -0.0613  0.0863  0.0828
 5502TIP3    H116512   5.273   0.149   1.967 -0.4998 -1.2613 -0.1639
 5502TIP3    H216513   5.321   0.101   1.832  0.2008  0.7315 -0.6474
 5503TIP3   OH216514   4.249   4.406   0.207  0.1246 -0.4086  0.3909
 5503TIP3    H116515   4.191   4.351   0.260 -0.3812 -0.3481 -0.0897
 5503TIP3    H216516   4.267   4.352   0.130  0.0817 -0.1191  0.1802
 5504TIP3   OH216517   1.548   5.962   1.897 -0.2798 -0.3505  1.0086
 5504TIP3    H116518   1.636   5.970   1.936 -0.1710 -1.9617  1.1856
 5504TIP3    H216519   1.558   5.894   1.831 -1.2770 -0.1219  0.6113
 5505TIP3   OH216520   5.990   2.593   1.217  0.0414 -0.3532  0.0885
 5505TIP3    H116521   5.940   2.674   1.210 -0.2956 -0.5542  0.1657
 5505TIP3    H216522   5.956   2.537   1.147 -0.6278 -0.9099  0.8398
 5506TIP3   OH216523   3.570   0.414   2.429  0.5054  0.0643  0.0557
 5506TIP3    H116524   3.530   0.337   2.469 -0.3996 -0.7776 -2.3283
 5506TIP3    H216525   3.550   0.486   2.490  0.2082 -1.3080  1.6588
 5507TIP3   OH216526   3.172   1.848   5.159 -0.2472  0.2009  0.4294
 5507TIP3    H116527   3.126   1.822   5.238  0.7622 -1.2776  0.5594
 5507TIP3    H216528   3.115   1.820   5.087 -0.4471  0.1402  0.6127
 5508TIP3   OH216529   0.553   5.256   3.235 -0.5817 -0.0896 -0.8963
 5508TIP3    H116530   0.506   5.213   3.306 -0.9488 -0.7524 -1.5214
 5508TIP3    H216531   0.593   5.333   3.275  1.1760 -1.6630  0.5720
 5509TIP3   OH216532   6.028   3.248   0.297 -0.1941 -0.5102 -0.1058
 5509TIP3    H116533   6.081   3.252   0.376 -1.5317  0.6018  0.7797
 5509TIP3    H216534   6.066   3.176   0.246  0.9230 -1.0073  1.3680
 5510TIP3   OH216535   5.955   5.709   4.961 -0.0146 -0.1014 -0.2210
 5510TIP3    H116536   5.943   5.802   4.944 -1.4250 -0.2536 -0.1073
 5510TIP3    H216537   5.987   5.673   4.879  0.3372  0.4355 -0.3258
 5511TIP3   OH216538   0.541   5.838   3.559 -0.0036  0.2553 -0.0815
 5511TIP3    H116539   0.595   5.794   3.492  0.1630 -1.0216  0.8468
 5511TIP3    H216540   0.591   5.828   3.640 -0.8803  0.4924  0.5016
 5512TIP3   OH216541   3.748   5.941   2.058 -0.0048 -0.2322 -0.1200
 5512TIP3    H116542   3.668   5.906   2.099  0.3909  0.5033  1.3437
 5512TIP3    H216543   3.718   6.019   2.012 -0.0551  0.3517  0.8854
 5513TIP3   OH216544   4.939   5.348   4.299  0.4231  1.0252  0.8722
 5513TIP3    H116545   4.927   5.416   4.233 -1.5918  1.1763  1.3189
 5513TIP3    H216546   4.925   5.266   4.253 -0.1783  1.0910  0.9256
 5514TIP3   OH216547   0.246   4.652   0.106  0.5756  0.5149 -0.2695
 5514TIP3    H116548   0.226   4.664   0.013  1.7012  0.0831 -0.5852
 5514TIP3    H216549   0.338   4.624   0.107  0.6020  0.5997  0.9798
 5515TIP3   OH216550   5.050   3.515   4.381  0.0138  0.0059 -0.2189
 5515TIP3    H116551   5.004   3.442   4.341  0.3681 -0.1276 -0.3860
 5515TIP3    H216552   5.027   3.591   4.328  0.4242 -0.1572 -0.6309
 5516TIP3   OH216553   2.583   4.998   2.026  0.4756 -0.8156 -0.2209
 5516TIP3    H116554   2.566   5.086   2.060 -0.7937  0.0016 -2.7373
 5516TIP3    H216555   2.499   4.952   2.035  1.2087 -1.9306  1.3629
 5517TIP3   OH216556   4.496   4.074   0.710  0.1361  0.4361 -0.2034
 5517TIP3    H116557   4.508   4.164   0.741  2.6426 -0.2421  1.0969
 5517TIP3    H216558   4.480   4.082   0.616 -2.2882  2.3135  0.2917
 5518TIP3   OH216559   4.989   1.590   2.294  0.4925  0.1948  0.8711
 5518TIP3    H116560   5.080   1.575   2.270  0.9587  0.3469  2.4768
 5518TIP3    H216561   4.963   1.510   2.340 -0.5372 -0.2893 -0.4643
 5519TIP3   OH216562   5.388   0.615   4.613 -0.1796  0.9171  0.2202
 5519TIP3    H116563   5.468   0.581   4.653  0.1904  1.3162 -0.1658
 5519TIP3    H216564   5.416   0.696   4.569 -0.5547  0.4718 -0.8708
 5520TIP3   OH216565   4.064   3.400   0.327  0.5336  0.7506 -0.1877
 5520TIP3    H116566   3.977   3.436   0.345  0.2672  0.0679 -0.0834
 5520TIP3    H216567   4.111   3.473   0.286 -0.6350  0.6280 -1.8704
 5521TIP3   OH216568   3.026   2.644   3.379  0.2569 -0.7099 -0.2666
 5521TIP3    H116569   3.003   2.578   3.315  1.1187 -1.0913 -0.1901
 5521TIP3    H216570   3.108   2.614   3.418 -1.4581 -1.8611  2.8616
 5522TIP3   OH216571   6.116   4.792   2.670 -0.1483 -0.6402  0.0399
 5522TIP3    H116572   6.060   4.749   2.606 -1.2437 -0.0398  0.5774
 5522TIP3    H216573   6.179   4.841   2.617 -1.8009  0.8662 -0.6387
 5523TIP3   OH216574   0.622   0.731   0.564 -0.3992 -0.6760 -0.5768
 5523TIP3    H116575   0.653   0.701   0.479 -0.6155  0.7027 -1.1692
 5523TIP3    H216576   0.537   0.772   0.545 -1.0540 -1.4520  0.5089
 5524TIP3   OH216577   5.542   4.244   3.844  0.0808  0.7223  0.1632
 5524TIP3    H116578   5.531   4.339   3.832  2.1723  1.2970  1.9580
 5524TIP3    H216579   5.456   4.213   3.871 -0.1788  2.5397  1.6308
 5525TIP3   OH216580   6.261   3.499   4.334  0.2283  0.1311 -0.0918
 5525TIP3    H116581   6.217   3.434   4.279 -4.9949  2.0062  1.2797
 5525TIP3    H216582   6.254   3.581   4.284 -2.2276  1.3540  2.0463
 5526TIP3   OH216583   1.005   1.652   1.617 -0.4374 -0.2995  0.0849
 5526TIP3    H116584   1.021   1.582   1.554  1.9862 -1.0536  1.3904
 5526TIP3    H216585   0.958   1.719   1.568 -0.7771 -1.8608 -1.8431
 5527TIP3   OH216586   6.016   1.683   0.895  0.5320 -0.3386 -0.3957
 5527TIP3    H116587   5.945   1.747   0.892  2.1199  1.8129  2.3812
 5527TIP3    H216588   5.974   1.599   0.876 -2.0652  1.2095 -2.0637
 5528TIP3   OH216589   4.652   1.335   0.826  0.2756 -0.2826 -0.1430
 5528TIP3    H116590   4.635   1.326   0.732 -1.9433  0.4614  0.1151
 5528TIP3    H216591   4.613   1.256   0.864 -0.3164  0.1901  0.2619
 5529TIP3   OH216592   5.243   1.084   0.609  0.7563  0.3018  0.3287
 5529TIP3    H116593   5.336   1.109   0.612  1.0769 -0.8279  3.4272
 5529TIP3    H216594   5.236   1.028   0.532  2.6011  0.5444 -0.0713
 5530TIP3   OH216595   0.404   4.859   0.856  0.4005  0.4750 -0.1218
 5530TIP3    H116596   0.332   4.881   0.915 -0.5247 -1.3093 -0.4811
 5530TIP3    H216597   0.372   4.884   0.769  0.5658  0.4673 -0.1846
 5531TIP3   OH216598   4.097   1.953   0.718  0.2226  0.4045 -0.7067
 5531TIP3    H116599   4.001   1.950   0.710  0.0268  1.6469  0.6529
 5531TIP3    H216600   4.126   1.867   0.689 -1.1170  0.6680 -3.1223
 5532TIP3   OH216601   5.502   4.703   3.443 -0.1655  0.2067 -0.1542
 5532TIP3    H116602   5.586   4.719   3.399  1.3587 -3.0905  1.1814
 5532TIP3    H216603   5.439   4.692   3.371  1.5765 -1.7405 -1.5148
 5533TIP3   OH216604   6.219   1.452   2.837  0.0801 -0.4745  0.5465
 5533TIP3    H116605   6.232   1.417   2.925  1.0368 -0.8811  0.2575
 5533TIP3    H216606   6.299   1.429   2.790 -0.9104 -1.3421 -0.7934
 5534TIP3   OH216607   0.682   2.407   1.363  0.8111 -0.5483  0.1128
 5534TIP3    H116608   0.640   2.324   1.384  0.0674 -0.4007 -0.7381
 5534TIP3    H216609   0.734   2.428   1.440  1.1601 -1.8987  0.2664
 5535TIP3   OH216610   1.681   2.610   1.258 -0.6274  0.2242  0.0315
 5535TIP3    H116611   1.692   2.613   1.163  2.5008  0.5044  0.2980
 5535TIP3    H216612   1.656   2.520   1.276  0.5396 -0.3399 -0.9744
 5536TIP3   OH216613   3.525   0.652   2.227  0.2960 -0.0744  0.2500
 5536TIP3    H116614   3.581   0.584   2.263 -0.3966 -0.3059  0.9240
 5536TIP3    H216615   3.537   0.728   2.284 -0.6192 -0.3634  0.8497
 5537TIP3   OH216616   2.369   4.782   1.517 -0.8833 -0.2444  0.6366
 5537TIP3    H116617   2.329   4.853   1.467 -2.4286  0.4566  2.7307
 5537TIP3    H216618   2.397   4.719   1.451  0.3523  2.1728 -1.2945
 5538TIP3   OH216619   4.605   1.606   2.840 -0.2274  0.0736 -0.4149
 5538TIP3    H116620   4.641   1.548   2.772 -0.6529 -1.2153  0.4323
 5538TIP3    H216621   4.528   1.560   2.873 -0.8730  1.3661 -0.0496
 5539TIP3   OH216622   2.576   2.839   2.621  0.7705 -0.1985 -0.0129
 5539TIP3    H116623   2.613   2.757   2.655  3.2355  1.6435  2.2225
 5539TIP3    H216624   2.652   2.888   2.590 -0.2104  2.2764  1.2000
 5540TIP3   OH216625   6.279   1.519   3.404  0.0157  0.6496  0.2157
 5540TIP3    H116626   6.310   1.464   3.331  0.3583 -0.8086  1.4100
 5540TIP3    H216627   6.290   1.608   3.372 -1.5079  0.0784 -2.2118
 5541TIP3   OH216628   5.490   2.818   2.765  0.1110  0.4905 -0.0685
 5541TIP3    H116629   5.566   2.761   2.774  0.5626  1.0508 -0.2336
 5541TIP3    H216630   5.418   2.769   2.805  0.7030  0.2362  0.7115
 5542TIP3   OH216631   3.648   2.275   2.288  0.3818  0.0970 -0.3362
 5542TIP3    H116632   3.611   2.193   2.322  0.9609 -1.0422 -2.3205
 5542TIP3    H216633   3.652   2.262   2.194  0.2765  2.5427 -0.7287
 5543TIP3   OH216634   4.877   0.881   3.839  0.2511 -0.0281  0.0164
 5543TIP3    H116635   4.807   0.919   3.786  0.9715 -0.2841 -1.1497
 5543TIP3    H216636   4.832   0.843   3.914 -0.7814  0.4970 -0.3192
 5544TIP3   OH216637   4.283   0.341   4.182  0.0767 -0.6980 -0.4702
 5544TIP3    H116638   4.222   0.390   4.238  1.0001 -0.0401 -0.0062
 5544TIP3    H216639   4.243   0.344   4.095 -0.0983  0.5312 -0.3651
 5545TIP3   OH216640   4.205   5.553   0.115  0.1442 -0.0712 -0.8154
 5545TIP3    H116641   4.229   5.643   0.090 -1.1978 -0.1300 -2.4728
 5545TIP3    H216642   4.288   5.513   0.142  0.9011  1.4089 -0.8279
 5546TIP3   OH216643   0.353   5.023   4.367 -0.3148  0.7613  0.1735
 5546TIP3    H116644   0.415   5.049   4.435  0.9577 -0.1020 -0.6342
 5546TIP3    H216645   0.304   4.950   4.406  1.2600 -0.5602 -0.2386
 5547TIP3   OH216646   2.374   5.639   0.522  0.2749 -0.4900  0.0675
 5547TIP3    H116647   2.303   5.576   0.534  1.1126 -0.9938  3.1277
 5547TIP3    H216648   2.330   5.724   0.515 -0.6656 -0.9153  0.6880
 5548TIP3   OH216649   5.679   4.548   0.321  0.8573  0.7024 -0.1627
 5548TIP3    H116650   5.669   4.598   0.402 -1.7068 -2.0458  1.4501
 5548TIP3    H216651   5.592   4.548   0.282  0.4951 -2.7954  0.2929
 5549TIP3   OH216652   2.241   5.751   3.019  0.5737 -0.6099  0.2599
 5549TIP3    H116653   2.175   5.727   3.085 -0.8369  0.9562 -0.5085
 5549TIP3    H216654   2.310   5.794   3.069  1.7522 -3.4246  1.2596
 5550TIP3   OH216655   6.136   1.086   1.525 -0.8891 -0.0458 -0.2235
 5550TIP3    H116656   6.122   1.065   1.432  0.0078  0.1328 -0.4124
 5550TIP3    H216657   6.144   1.181   1.527 -0.5427 -0.0768 -0.0230
 5551TIP3   OH216658   3.305   4.626   0.381  0.5293 -0.0369 -0.2065
 5551TIP3    H116659   3.216   4.590   0.383 -0.2600  1.8004 -0.3014
 5551TIP3    H216660   3.314   4.662   0.293  1.2385  0.1461 -0.0650
 5552TIP3   OH216661   5.472   1.521   0.524  0.3233 -0.1811 -0.1599
 5552TIP3    H116662   5.554   1.520   0.574 -0.5439 -2.3671  1.4042
 5552TIP3    H216663   5.459   1.430   0.498 -0.8012  0.4179 -1.8580
 5553TIP3   OH216664   6.029   5.354   1.876 -0.2639 -1.0470 -0.8343
 5553TIP3    H116665   6.122   5.334   1.865 -0.3148 -1.6793 -0.2000
 5553TIP3    H216666   6.007   5.322   1.963 -0.2410  2.3203  0.5585
 5554TIP3   OH216667   6.376   0.323   1.678  0.0401  0.4002  0.5056
 5554TIP3    H116668   6.326   0.264   1.734  2.4297 -2.2330  0.1208
 5554TIP3    H216669   6.322   0.335   1.600 -0.8069 -0.7753  0.8866
 5555TIP3   OH216670   5.290   5.463   3.589  0.0352  0.3203  0.1732
 5555TIP3    H116671   5.264   5.502   3.506  0.8691 -2.4053 -1.4914
 5555TIP3    H216672   5.209   5.426   3.625 -0.2876  1.3310  0.5398
 5556TIP3   OH216673   0.642   3.889   0.372  0.1137 -0.4203  0.0961
 5556TIP3    H116674   0.565   3.903   0.317  0.4326 -0.6088 -0.4116
 5556TIP3    H216675   0.625   3.807   0.418 -1.3189  1.0105  2.3186
 5557TIP3   OH216676   0.362   5.688   1.063 -0.1144 -0.0315  0.1765
 5557TIP3    H116677   0.405   5.623   1.119  0.6362 -0.0976 -0.4744
 5557TIP3    H216678   0.269   5.677   1.082  0.0942 -0.3656  1.0776
 5558TIP3   OH216679   3.342   2.447   1.052 -0.9212 -0.0672  0.1730
 5558TIP3    H116680   3.308   2.460   1.140 -0.9196  0.1233  0.1448
 5558TIP3    H216681   3.403   2.373   1.060 -2.4927 -1.4695 -0.0609
 5559TIP3   OH216682   5.891   3.220   4.413 -0.0414  0.0281 -0.0780
 5559TIP3    H116683   5.919   3.141   4.365  1.3532  0.5737 -0.2074
 5559TIP3    H216684   5.947   3.222   4.490 -1.0689  0.1282  0.6832
 5560TIP3   OH216685   0.300   4.672   4.300 -0.3344  0.1405 -0.1298
 5560TIP3    H116686   0.255   4.750   4.268 -2.3465 -0.3774  1.2011
 5560TIP3    H216687   0.330   4.697   4.388  0.9290  0.0806 -0.5378
 5561TIP3   OH216688   5.344   5.514   0.670  0.0179 -0.0510  0.4622
 5561TIP3    H116689   5.296   5.563   0.737  0.7432  0.5595  0.5388
 5561TIP3    H216690   5.337   5.567   0.591 -0.9483 -0.8336 -0.0052
 5562TIP3   OH216691   4.291   5.721   4.356  0.1718  0.2124  0.8705
 5562TIP3    H116692   4.309   5.627   4.361  1.6128  0.4517  0.4382
 5562TIP3    H216693   4.370   5.759   4.320 -0.4195  1.6049  0.9824
 5563TIP3   OH216694   4.215   2.534   4.725  0.1036 -0.1504  0.1543
 5563TIP3    H116695   4.183   2.609   4.775  0.5809 -0.3796  0.8260
 5563TIP3    H216696   4.244   2.472   4.792  3.2192  0.5724 -0.3636
 5564TIP3   OH216697   6.271   0.118   2.841  0.7179  0.6287  0.5027
 5564TIP3    H116698   6.290   0.024   2.837 -2.5808 -0.1245 -2.5850
 5564TIP3    H216699   6.289   0.150   2.752 -1.4571  2.0937  0.5036
 5565TIP3   OH216700   3.571   2.829   4.619  0.0255 -0.0955 -0.0354
 5565TIP3    H116701   3.500   2.770   4.593 -0.1303  0.2344 -0.3778
 5565TIP3    H216702   3.541   2.869   4.701  0.0468 -0.3469  0.0952
 5566TIP3   OH216703   3.919   3.806   2.352 -0.2920  0.1655  0.0829
 5566TIP3    H116704   3.862   3.835   2.423 -0.3406  3.5336 -1.1320
 5566TIP3    H216705   3.914   3.877   2.288  3.6403 -0.3601 -1.0254
 5567TIP3   OH216706   1.968   4.283   1.991 -0.0938  0.5105 -0.0911
 5567TIP3    H116707   2.063   4.292   1.999  0.0130  2.2933 -2.4023
 5567TIP3    H216708   1.934   4.371   2.008 -1.3129  0.0031  0.2126
 5568TIP3   OH216709   3.384   0.565   1.124 -0.8236  0.0810  0.3021
 5568TIP3    H116710   3.356   0.655   1.134  0.1690  0.2990  1.3655
 5568TIP3    H216711   3.353   0.521   1.204 -0.6097 -0.3206  0.1675
 5569TIP3   OH216712   3.322   5.719   4.884  0.2816 -0.2502 -0.2484
 5569TIP3    H116713   3.307   5.625   4.872 -0.2081 -0.3068  0.6560
 5569TIP3    H216714   3.376   5.725   4.962  0.8222  0.1995 -0.6525
 5570TIP3   OH216715   1.944   2.041   3.496 -1.2028  0.2856 -0.0486
 5570TIP3    H116716   2.029   2.013   3.532 -0.0475  2.4489 -0.9471
 5570TIP3    H216717   1.922   1.972   3.433  0.7274  0.4765 -1.0125
 5571TIP3   OH216718   5.097   5.148   0.211  0.3264  0.5761 -0.1110
 5571TIP3    H116719   5.087   5.243   0.217  2.5273  0.8770 -0.3280
 5571TIP3    H216720   5.181   5.136   0.165 -0.8588 -1.4907 -1.9026
 5572TIP3   OH216721   2.757   4.890   4.333  0.1224  0.0883  0.0734
 5572TIP3    H116722   2.679   4.915   4.382 -0.0495 -2.1100  1.0272
 5572TIP3    H216723   2.793   4.815   4.380  0.6415 -1.4151 -2.4740
 5573TIP3   OH216724   4.556   2.001   2.672  0.3707 -0.1528 -0.5163
 5573TIP3    H116725   4.502   2.040   2.603  1.3038 -0.3662 -1.3866
 5573TIP3    H216726   4.638   2.050   2.668  0.0420  0.6600  1.2699
 5574TIP3   OH216727   1.935   0.692   2.528  0.3815  0.0665 -0.3030
 5574TIP3    H116728   1.908   0.778   2.496  1.0956 -0.4616 -2.4715
 5574TIP3    H216729   1.955   0.642   2.449  1.3927 -1.6415  0.9687
 5575TIP3   OH216730   1.467   5.239   0.952  1.0874 -0.2561 -0.5553
 5575TIP3    H116731   1.395   5.184   0.919  0.8145  0.6748 -1.5849
 5575TIP3    H216732   1.428   5.289   1.024  0.2588  1.2517 -1.9848
 5576TIP3   OH216733   0.793   1.431   2.736 -0.3152 -0.3457 -0.1136
 5576TIP3    H116734   0.877   1.416   2.693  0.2733  2.2088 -0.0211
 5576TIP3    H216735   0.736   1.466   2.667 -0.4971  0.3136  0.3558
 5577TIP3   OH216736   2.008   0.802   5.112 -0.0182  0.3724  0.0661
 5577TIP3    H116737   2.014   0.808   5.017 -2.1512  0.9474 -0.0800
 5577TIP3    H216738   1.991   0.710   5.130 -2.2688  0.6466 -0.3623
 5578TIP3   OH216739   2.810   4.969   1.443 -0.1616 -0.1989  0.3775
 5578TIP3    H116740   2.743   4.930   1.386 -0.5268  0.6950  0.1652
 5578TIP3    H216741   2.818   5.059   1.411  1.4011 -0.3846  0.1856
 5579TIP3   OH216742   4.918   5.696   1.713  0.1245 -0.1316 -0.3698
 5579TIP3    H116743   4.876   5.744   1.641  0.7035  0.5002 -0.3036
 5579TIP3    H216744   4.861   5.621   1.729 -1.5099  1.2088  0.3698
 5580TIP3   OH216745   5.174   2.834   3.291 -0.2608  0.0612  0.0798
 5580TIP3    H116746   5.122   2.754   3.280  0.4966 -0.6902  1.5691
 5580TIP3    H216747   5.262   2.802   3.315  0.7396  1.3064 -1.7186
 5581TIP3   OH216748   2.619   0.868   2.402  1.0929  0.0241  0.0802
 5581TIP3    H116749   2.708   0.888   2.432  2.0887 -1.6446 -1.5441
 5581TIP3    H216750   2.610   0.916   2.320  1.7687 -2.2871 -1.4332
 5582TIP3   OH216751   3.889   4.299   2.286  0.2382 -0.3561 -0.6227
 5582TIP3    H116752   3.882   4.390   2.258 -0.1698 -0.8410 -2.2452
 5582TIP3    H216753   3.878   4.302   2.381 -0.6095  1.1970 -0.7288
 5583TIP3   OH216754   6.268   0.586   4.504  0.1340 -0.5424  0.0068
 5583TIP3    H116755   6.202   0.541   4.451 -0.6796  1.5426 -0.8521
 5583TIP3    H216756   6.340   0.524   4.511 -0.7807 -1.8293 -1.4254
 5584TIP3   OH216757   2.953   0.880   3.954 -0.2538 -0.1438  0.5304
 5584TIP3    H116758   2.972   0.859   4.046  0.1600 -0.6503  0.3323
 5584TIP3    H216759   2.883   0.945   3.959 -2.0494 -2.0113  1.1793
 5585TIP3   OH216760   4.823   3.376   2.626 -0.3677  0.2450  0.2383
 5585TIP3    H116761   4.880   3.452   2.643  0.2149 -0.0382 -0.4089
 5585TIP3    H216762   4.773   3.365   2.707  1.4360 -0.3072  1.3194
 5586TIP3   OH216763   1.786   0.192   4.793 -0.7228  0.0630  0.3726
 5586TIP3    H116764   1.722   0.128   4.763 -1.1367 -0.0993  1.5618
 5586TIP3    H216765   1.832   0.219   4.713  0.7914 -3.1060  0.0169
 5587TIP3   OH216766   0.418   4.186   1.360  0.1269  0.0950 -0.1318
 5587TIP3    H116767   0.465   4.117   1.312 -0.1167 -0.0197 -0.2088
 5587TIP3    H216768   0.348   4.213   1.300  0.7539  1.0328 -0.4703
 5588TIP3   OH216769   5.658   2.161   2.150  0.3810  0.4215  0.0285
 5588TIP3    H116770   5.581   2.105   2.140  0.5021  0.4585 -1.2950
 5588TIP3    H216771   5.682   2.153   2.242 -1.4302  0.7267  0.5592
 5589TIP3   OH216772   2.223   2.745   0.128 -0.5859  0.8133  0.0648
 5589TIP3    H116773   2.204   2.687   0.202 -1.6677 -0.0323 -0.8435
 5589TIP3    H216774   2.307   2.714   0.094  0.5578  1.9889  1.6353
 5590TIP3   OH216775   5.350   2.407   3.500 -0.1240 -0.1298 -0.3392
 5590TIP3    H116776   5.428   2.356   3.524 -0.2282  0.0227  0.3356
 5590TIP3    H216777   5.346   2.401   3.405  0.6368 -0.2518 -0.3666
 5591TIP3   OH216778   2.928   5.984   2.604  0.5443 -0.4096 -0.2986
 5591TIP3    H116779   2.986   6.035   2.661  0.6411 -0.7987 -0.0491
 5591TIP3    H216780   2.987   5.929   2.552  0.4052 -0.6974 -0.1513
 5592TIP3   OH216781   1.516   0.795   4.745  0.0439  0.7067 -0.0486
 5592TIP3    H116782   1.534   0.765   4.656  0.9798 -2.0020  0.9184
 5592TIP3    H216783   1.587   0.856   4.765  1.8855 -1.3010 -0.0875
 5593TIP3   OH216784   1.113   1.563   3.002 -0.1907 -0.2053 -0.2467
 5593TIP3    H116785   1.193   1.542   3.049 -0.3560  0.0334  0.1522
 5593TIP3    H216786   1.101   1.658   3.015  0.3688  0.0907 -1.7364
 5594TIP3   OH216787   4.400  -0.011   1.776  0.2075 -0.0782  0.4600
 5594TIP3    H116788   4.441   0.040   1.846 -0.3717  0.9328  0.0889
 5594TIP3    H216789   4.459   0.000   1.701 -0.2780  0.6642  0.1735
 5595TIP3   OH216790   6.192   0.840   4.588  0.6859  0.1941  0.1496
 5595TIP3    H116791   6.167   0.905   4.523 -1.7517  0.1485  0.9329
 5595TIP3    H216792   6.248   0.779   4.541  1.5733  1.8527 -1.0595
 5596TIP3   OH216793   4.991   3.672   3.735  0.4965 -0.0518  0.6171
 5596TIP3    H116794   4.956   3.604   3.678  1.5219 -0.3011  0.2627
 5596TIP3    H216795   5.002   3.628   3.820  1.7455 -0.5445  0.2331
 5597TIP3   OH216796   2.081   2.921   3.800 -0.6974 -0.3479  0.3145
 5597TIP3    H116797   2.048   2.873   3.876 -2.2550 -0.1735 -0.2079
 5597TIP3    H216798   2.008   2.977   3.774  0.9426  2.1397  0.7303
 5598TIP3   OH216799   2.053   2.623   3.701  0.3565  0.3131 -0.6754
 5598TIP3    H116800   2.071   2.694   3.763 -0.9624 -0.0334  0.1483
 5598TIP3    H216801   1.965   2.640   3.670  0.8771  0.2844 -2.2348
 5599TIP3   OH216802   0.280   4.801   2.594 -0.4048  0.2459 -0.1924
 5599TIP3    H116803   0.261   4.720   2.642  0.5017  0.8578  1.2657
 5599TIP3    H216804   0.375   4.810   2.598 -0.5022  1.4205 -0.2679
 5600TIP3   OH216805   0.970   5.787   1.404  0.9943 -0.0213  0.0544
 5600TIP3    H116806   1.052   5.806   1.358  0.3348  2.2740 -0.2693
 5600TIP3    H216807   0.990   5.800   1.496  0.9852  0.6268 -0.0325
 5601TIP3   OH216808   0.704   3.302   2.426 -0.0875 -0.2070  0.3974
 5601TIP3    H116809   0.749   3.387   2.421 -0.6832  0.1714  1.2031
 5601TIP3    H216810   0.657   3.295   2.343 -0.6782  0.6411  0.6369
 5602TIP3   OH216811   2.331   4.283   1.908 -0.2186 -0.5514 -0.0999
 5602TIP3    H116812   2.315   4.263   1.816  1.9151  0.1438 -0.6813
 5602TIP3    H216813   2.426   4.295   1.914 -0.3891  0.2020  2.0388
 5603TIP3   OH216814   1.501   5.281   3.353  0.1146 -0.2258  0.6487
 5603TIP3    H116815   1.540   5.212   3.299  1.5819  1.4153 -0.5197
 5603TIP3    H216816   1.482   5.239   3.436  0.8592 -2.0662 -0.0633
 5604TIP3   OH216817   0.523   5.443   2.530 -0.7702  0.0051  0.3544
 5604TIP3    H116818   0.619   5.451   2.536 -0.7457  0.1252 -0.1571
 5604TIP3    H216819   0.504   5.452   2.437 -1.4176  1.5437  0.6128
 5605TIP3   OH216820   2.214   0.297   0.907 -0.1160  0.2527  0.0540
 5605TIP3    H116821   2.295   0.248   0.923 -1.5871 -1.5669  2.6231
 5605TIP3    H216822   2.146   0.230   0.897 -1.9278  1.6810  1.9006
 5606TIP3   OH216823   0.236   3.506   2.576  0.1276 -0.3977 -0.3367
 5606TIP3    H116824   0.327   3.530   2.597  0.4318 -1.9665  0.2558
 5606TIP3    H216825   0.241   3.414   2.552 -0.8847  0.2386 -3.2994
 5607TIP3   OH216826   0.018   1.317   3.728 -0.3127  0.1967 -0.2448
 5607TIP3    H116827   0.088   1.330   3.665 -2.1838  2.3510 -2.0277
 5607TIP3    H216828  -0.038   1.250   3.688  0.0686 -0.6889  0.6451
 5608TIP3   OH216829   5.710   2.964   3.149  0.1238 -0.3108  0.0003
 5608TIP3    H116830   5.663   2.906   3.209 -1.2101 -0.3087 -0.9788
 5608TIP3    H216831   5.703   3.051   3.190  3.0534 -0.8792  2.0174
 5609TIP3   OH216832   5.379   3.534   4.229 -0.2250  0.2397 -0.1362
 5609TIP3    H116833   5.431   3.553   4.151  1.3198 -0.6407  0.6464
 5609TIP3    H216834   5.345   3.445   4.214 -1.5779  0.8089 -0.6469
 5610TIP3   OH216835   2.549   4.693   1.080  0.1373  0.1449  0.6980
 5610TIP3    H116836   2.539   4.709   0.986 -1.2042 -0.7657  0.6638
 5610TIP3    H216837   2.641   4.670   1.090 -0.2718 -2.6476 -0.8999
 5611TIP3   OH216838   5.569   5.133   1.933 -0.1626 -0.4073 -0.2425
 5611TIP3    H116839   5.595   5.078   1.860 -0.9077 -0.7948 -0.2285
 5611TIP3    H216840   5.473   5.132   1.931 -0.2401 -1.5771  1.5592
 5612TIP3   OH216841   0.755   5.133   3.612  0.4235  0.3833 -0.4029
 5612TIP3    H116842   0.707   5.216   3.617 -0.7415 -0.3327  0.9873
 5612TIP3    H216843   0.712   5.076   3.675  2.8767 -0.4493  0.6712
 5613TIP3   OH216844   1.425   0.498   3.208  0.3671 -0.0235 -0.1612
 5613TIP3    H116845   1.508   0.535   3.179  0.3020  0.7521  0.5837
 5613TIP3    H216846   1.412   0.421   3.153  1.6892 -0.2927 -0.1224
 5614TIP3   OH216847   5.403   1.087   3.033 -0.0315  0.2129 -0.0083
 5614TIP3    H116848   5.480   1.061   3.084 -1.0101  2.1413  2.7033
 5614TIP3    H216849   5.437   1.150   2.968  0.9311 -0.4828 -0.1932
 5615TIP3   OH216850   0.836   4.883   1.594 -0.1796  0.9539  1.2564
 5615TIP3    H116851   0.930   4.901   1.605 -0.5348  2.1391  2.6130
 5615TIP3    H216852   0.833   4.793   1.560  1.5125  1.7240 -1.1942
 5616TIP3   OH216853   5.291   2.572   3.801  0.2387 -0.3865 -0.3050
 5616TIP3    H116854   5.220   2.526   3.755  0.2375 -0.6358 -0.0565
 5616TIP3    H216855   5.328   2.506   3.860  0.5003 -0.1795 -0.2366
 5617TIP3   OH216856   3.774   5.171   2.979  0.5388  0.0112 -0.5504
 5617TIP3    H116857   3.831   5.141   2.908  1.5162 -2.1225  1.0437
 5617TIP3    H216858   3.782   5.266   2.978  2.6427 -0.1288 -1.5854
 5618TIP3   OH216859   4.702   2.609   2.983 -0.0817 -0.2512 -0.0680
 5618TIP3    H116860   4.753   2.556   2.922  2.3187  1.8209 -0.0039
 5618TIP3    H216861   4.727   2.577   3.069  0.1343 -0.0872 -0.0688
 5619TIP3   OH216862   0.176   0.480   4.476  0.2282  0.0861 -0.6953
 5619TIP3    H116863   0.198   0.438   4.393  0.1604  0.3675 -0.8567
 5619TIP3    H216864   0.187   0.411   4.541 -0.0416 -0.2268 -0.9777
 5620TIP3   OH216865   0.991   3.654   3.812 -0.8290 -0.3061 -0.2963
 5620TIP3    H116866   1.047   3.709   3.866 -1.2554  0.0383 -0.1976
 5620TIP3    H216867   0.973   3.707   3.735  0.8167 -1.2734 -1.4072
 5621TIP3   OH216868   2.426   1.846   2.418  0.3184 -0.0935 -0.0238
 5621TIP3    H116869   2.521   1.857   2.411  0.4322 -0.9421  0.0092
 5621TIP3    H216870   2.392   1.933   2.436  1.1849  0.0553  0.9299
 5622TIP3   OH216871   2.445   1.557   0.587  0.3388 -0.8861 -0.4711
 5622TIP3    H116872   2.448   1.572   0.681  0.5181 -1.9931 -0.2920
 5622TIP3    H216873   2.518   1.609   0.553  0.9507 -1.3294  0.1316
 5623TIP3   OH216874   3.448   4.993   3.476 -0.7292 -0.1086  0.2765
 5623TIP3    H116875   3.530   4.972   3.522 -0.8218  0.3801  0.6822
 5623TIP3    H216876   3.403   4.910   3.467  0.5105 -0.6537 -1.3484
 5624TIP3   OH216877   5.731   2.824   3.412  0.0479 -0.6519  0.7625
 5624TIP3    H116878   5.720   2.748   3.355 -1.2844 -0.3745  0.6214
 5624TIP3    H216879   5.774   2.789   3.490  0.8328 -1.2499  0.0808
 5625TIP3   OH216880   3.458   4.314   3.169 -0.2446 -0.4545 -0.1142
 5625TIP3    H116881   3.400   4.346   3.100 -0.1767 -0.4612 -0.1744
 5625TIP3    H216882   3.417   4.232   3.197 -1.1277  0.3152  0.9339
 5626TIP3   OH216883   3.652   3.260   1.758 -0.1275 -0.0539 -0.2093
 5626TIP3    H116884   3.720   3.227   1.817 -1.0139 -1.7505 -0.0899
 5626TIP3    H216885   3.697   3.277   1.676  0.8404  0.9428  0.5002
 5627TIP3   OH216886   1.341   1.284   4.489 -0.8224  0.1538 -0.0323
 5627TIP3    H116887   1.308   1.197   4.468 -0.4894  0.0493 -0.1356
 5627TIP3    H216888   1.341   1.330   4.405  1.2927 -0.5283 -0.4530
 5628TIP3   OH216889   2.090   0.343   3.848 -0.1390 -0.9020 -0.0891
 5628TIP3    H116890   2.176   0.334   3.889  0.7410  0.3216 -1.6019
 5628TIP3    H216891   2.092   0.282   3.774 -0.6540 -0.9841 -0.0424
 5629TIP3   OH216892   4.364   0.183   0.641  0.5354  0.3923 -0.3254
 5629TIP3    H116893   4.442   0.153   0.595  1.2104  0.0748  0.9856
 5629TIP3    H216894   4.356   0.275   0.617  1.7776  0.6399  0.1274
 5630TIP3   OH216895   6.134   5.678   1.080 -0.4021 -0.0395 -0.6174
 5630TIP3    H116896   6.048   5.648   1.049 -0.1265  0.1164 -1.5507
 5630TIP3    H216897   6.126   5.773   1.085 -0.7943 -0.1136  0.9030
 5631TIP3   OH216898   2.015   2.236   4.243 -0.3830 -0.1980  0.2944
 5631TIP3    H116899   1.997   2.194   4.328 -0.6217 -0.2763  0.2053
 5631TIP3    H216900   2.004   2.329   4.260 -0.8420 -0.2439  0.2467
 5632TIP3   OH216901   3.631   0.821   0.210  0.0498  0.1668 -0.8847
 5632TIP3    H116902   3.536   0.815   0.197  0.1567  0.5406 -1.9182
 5632TIP3    H216903   3.658   0.893   0.153  1.0347 -0.2793 -0.9861
 5633TIP3   OH216904   5.964   1.899   5.078  0.3615  0.1985 -0.2743
 5633TIP3    H116905   5.963   1.995   5.075  1.7609  0.2436 -0.1184
 5633TIP3    H216906   5.905   1.876   5.150 -0.8695  0.8753 -1.0293
 5634TIP3   OH216907   1.178   4.850   1.082  0.4066 -0.3070 -0.5096
 5634TIP3    H116908   1.166   4.778   1.020 -0.2032 -0.6380 -0.0172
 5634TIP3    H216909   1.210   4.807   1.161  2.1473  0.2203 -0.8716
 5635TIP3   OH216910   2.609   5.759   1.614 -0.2598 -0.1906 -0.0720
 5635TIP3    H116911   2.575   5.709   1.540  0.3241  0.0069 -0.4728
 5635TIP3    H216912   2.592   5.851   1.591  0.2784 -0.1080 -0.1393
 5636TIP3   OH216913   0.905   3.043   1.020 -0.3513  0.4056  0.0673
 5636TIP3    H116914   0.855   2.985   1.077  0.2729 -0.4288 -0.2106
 5636TIP3    H216915   0.994   3.037   1.052  0.3108 -1.2788 -1.8838
 5637TIP3   OH216916   2.668   0.864   4.715  0.2023  0.0022  0.2456
 5637TIP3    H116917   2.619   0.930   4.667  0.7693 -1.2729 -2.3093
 5637TIP3    H216918   2.615   0.845   4.793 -0.2244  2.9703  0.7661
 5638TIP3   OH216919   6.310   0.995   2.486  0.1992 -0.6526  0.1255
 5638TIP3    H116920   6.330   1.077   2.442 -0.9809  0.0521  0.8286
 5638TIP3    H216921   6.224   1.010   2.526  0.0687 -2.1471  0.4707
 5639TIP3   OH216922   4.321   5.624   2.625  0.3020 -0.2005 -0.2068
 5639TIP3    H116923   4.283   5.645   2.540  0.2295 -2.5942 -0.8165
 5639TIP3    H216924   4.342   5.531   2.621  0.7533 -0.2859  2.2322
 5640TIP3   OH216925   0.910   4.270   0.081  0.4168  0.0370  0.7943
 5640TIP3    H116926   1.003   4.257   0.062 -0.1932 -2.8703 -0.7498
 5640TIP3    H216927   0.870   4.280  -0.005 -0.8413  0.1822  1.3768
 5641TIP3   OH216928   3.071   5.228   0.175  0.1647 -0.1520 -0.8304
 5641TIP3    H116929   3.042   5.165   0.110  0.4568  0.8003 -1.9029
 5641TIP3    H216930   3.049   5.187   0.259 -0.7104 -1.1555 -1.5238
 5642TIP3   OH216931   5.938   3.606   2.794  0.1310 -0.8265 -0.3545
 5642TIP3    H116932   5.883   3.590   2.871  0.1025  1.3904  0.1586
 5642TIP3    H216933   6.027   3.590   2.824  0.1267  0.1004  0.2060
 5643TIP3   OH216934   1.521   2.575   0.656  0.1337  0.1442 -0.0732
 5643TIP3    H116935   1.609   2.613   0.661  0.1062  0.4777 -1.7112
 5643TIP3    H216936   1.481   2.616   0.579  0.0156 -2.9403 -1.8237
 5644TIP3   OH216937   3.888   2.621   1.203  0.1842  0.0184  0.0171
 5644TIP3    H116938   3.892   2.629   1.108  0.7553  0.7463  0.0975
 5644TIP3    H216939   3.948   2.548   1.224 -0.5118 -0.6386 -0.2305
 5645TIP3   OH216940   0.487   3.233   0.150  0.0999  0.4813  0.0696
 5645TIP3    H116941   0.453   3.321   0.168  0.8609  0.7376  0.3111
 5645TIP3    H216942   0.540   3.244   0.071  2.6516  0.9217  1.7239
 5646TIP3   OH216943   5.905   3.406   0.012  0.3076 -0.3396 -0.1968
 5646TIP3    H116944   5.855   3.348  -0.046 -0.2434  0.3679 -0.4420
 5646TIP3    H216945   5.857   3.406   0.094 -0.4568  0.8066 -0.6183
 5647TIP3   OH216946   0.029   2.366   3.506  0.1402 -0.2104 -0.3297
 5647TIP3    H116947   0.077   2.285   3.519  0.3093  0.0967  1.0838
 5647TIP3    H216948   0.007   2.396   3.594 -2.2904 -0.1230 -0.8704
 5648TIP3   OH216949   5.646   3.539   4.421  0.3926 -0.2302 -0.2604
 5648TIP3    H116950   5.720   3.492   4.382  1.1303  1.0154 -0.4282
 5648TIP3    H216951   5.569   3.488   4.396  0.8779  0.1434 -2.8681
 5649TIP3   OH216952   3.426   3.762   3.202  1.1664 -0.2748 -0.3927
 5649TIP3    H116953   3.374   3.687   3.231  3.7298 -2.3909 -0.9112
 5649TIP3    H216954   3.477   3.787   3.279  1.3248  0.0678 -0.6051
 5650TIP3   OH216955   5.984   4.533   1.878 -0.0111  0.7095 -0.4343
 5650TIP3    H116956   6.077   4.519   1.895 -0.1714 -0.5257 -0.4863
 5650TIP3    H216957   5.940   4.471   1.937 -0.7895  0.9891 -0.7126
 5651TIP3   OH216958   2.544   3.655   3.274 -0.1625 -0.3199 -0.2299
 5651TIP3    H116959   2.563   3.665   3.181 -2.8042 -0.0411 -0.8322
 5651TIP3    H216960   2.599   3.582   3.302  2.1383  0.8378 -1.4813
 5652TIP3   OH216961   6.262   0.091   4.952  0.7747 -0.5011 -0.2812
 5652TIP3    H116962   6.174   0.055   4.962  0.3449  0.9316  1.7326
 5652TIP3    H216963   6.318   0.034   5.004  1.2463 -1.8609 -2.1644
 5653TIP3   OH216964   4.002   3.277   3.809 -0.1337 -0.7946 -0.3492
 5653TIP3    H116965   3.930   3.226   3.848 -0.2924 -1.1076 -1.0270
 5653TIP3    H216966   4.037   3.328   3.882 -1.5220 -0.0753 -0.1552
 5654TIP3   OH216967   0.439   0.316   1.915 -0.1970  0.7198  0.8890
 5654TIP3    H116968   0.368   0.268   1.958 -0.4407  0.0460 -0.2148
 5654TIP3    H216969   0.513   0.256   1.918 -0.9710 -0.5517 -2.0371
 5655TIP3   OH216970   0.043   3.294   0.638 -0.4435 -0.3297  0.1867
 5655TIP3    H116971   0.048   3.388   0.621  1.1825 -0.4245 -0.0125
 5655TIP3    H216972   0.132   3.269   0.665 -1.0967 -1.6190  1.2953
 5656TIP3   OH216973   4.664   4.622   3.321 -0.3007  0.4981 -0.2320
 5656TIP3    H116974   4.641   4.623   3.414  0.1178  0.7661 -0.1271
 5656TIP3    H216975   4.647   4.712   3.291 -0.3704  0.4300 -0.3998
 5657TIP3   OH216976   3.406   5.451   2.439 -0.2592  0.2522 -0.2648
 5657TIP3    H116977   3.360   5.376   2.401 -1.0643  1.0498 -0.9054
 5657TIP3    H216978   3.499   5.426   2.436 -0.2992  0.1867 -2.5808
 5658TIP3   OH216979   3.512   3.588   4.360 -0.0552  0.2788  0.5490
 5658TIP3    H116980   3.558   3.665   4.325 -0.2221 -0.1584 -0.6693
 5658TIP3    H216981   3.472   3.619   4.441  1.5401  0.9502  1.1330
 5659TIP3   OH216982   3.984   2.251   1.940  0.0669 -0.4107  0.1251
 5659TIP3    H116983   4.078   2.238   1.931 -0.0061 -1.3990  0.6525
 5659TIP3    H216984   3.952   2.255   1.849  0.5098 -0.9104 -0.0576
 5660TIP3   OH216985   3.992   5.379   3.750 -0.7181 -0.3210  0.0374
 5660TIP3    H116986   3.977   5.374   3.656 -0.5273 -1.5794  0.0466
 5660TIP3    H216987   4.027   5.292   3.773  1.1280  0.5920  0.9347
 5661TIP3   OH216988   0.790   1.970   3.655 -0.0508  0.4193 -0.4770
 5661TIP3    H116989   0.794   1.986   3.560 -1.1395 -1.0253 -0.7956
 5661TIP3    H216990   0.882   1.970   3.683  0.2507  1.7000 -1.3601
 5662TIP3   OH216991   2.413   1.630   2.814 -0.4582 -0.5038 -0.7204
 5662TIP3    H116992   2.351   1.702   2.813 -0.8880 -0.8711 -1.7331
 5662TIP3    H216993   2.455   1.634   2.728  3.0909  1.5612  0.8810
 5663TIP3   OH216994   4.357   1.685   5.046  0.3025  0.2768 -0.2682
 5663TIP3    H116995   4.310   1.736   5.112 -0.1205 -0.8576  0.3391
 5663TIP3    H216996   4.289   1.628   5.008  0.8798 -0.2773 -0.4797
 5664TIP3   OH216997   5.189   0.495   0.558 -0.2670  0.0675  0.2160
 5664TIP3    H116998   5.143   0.461   0.635 -0.5875 -0.7132 -0.3028
 5664TIP3    H216999   5.121   0.503   0.491  0.2472 -0.6641 -0.4215
 5665TIP3   OH217000   1.335   0.873   3.948 -0.0115 -0.1578 -0.5020
 5665TIP3    H117001   1.272   0.840   3.884  1.1978 -1.7505 -0.9142
 5665TIP3    H217002   1.403   0.807   3.952  0.5635  0.4798  1.5621
 5666TIP3   OH217003   5.532   3.549   1.493  0.0090  0.1013 -0.0339
 5666TIP3    H117004   5.480   3.475   1.462 -0.2062  0.4000 -0.3929
 5666TIP3    H217005   5.552   3.599   1.413  2.1709 -0.8343 -0.1488
 5667TIP3   OH217006   0.457   3.238   4.394 -0.0756  0.2239 -0.2070
 5667TIP3    H117007   0.407   3.167   4.355  2.2560 -0.6050 -1.9639
 5667TIP3    H217008   0.488   3.289   4.319  1.9817  0.4169  0.7104
 5668TIP3   OH217009   3.678   1.651   0.838  0.4890  0.0360  0.3008
 5668TIP3    H117010   3.766   1.617   0.856  0.3404 -0.6325 -0.1989
 5668TIP3    H217011   3.632   1.644   0.921  0.9345  0.4749  0.5914
 5669TIP3   OH217012   3.707   4.216   0.374 -0.0764 -0.3355  0.4330
 5669TIP3    H117013   3.770   4.285   0.352 -1.4202  0.3563 -1.5188
 5669TIP3    H217014   3.673   4.187   0.289 -0.2735 -2.7562  1.2567
 5670TIP3   OH217015   4.998   2.680   3.067  0.3103  0.2197  0.2809
 5670TIP3    H117016   4.954   2.736   3.131  1.5422 -0.2410  1.5753
 5670TIP3    H217017   5.029   2.605   3.117 -0.8549 -1.4425 -1.3161
 5671TIP3   OH217018   2.764   0.370   4.502  0.2963  0.0922  0.2479
 5671TIP3    H117019   2.669   0.357   4.501  0.3042 -0.3183 -2.1877
 5671TIP3    H217020   2.787   0.371   4.595 -2.1011  0.4051  0.9176
 5672TIP3   OH217021   1.547   0.332   4.824  0.1279  0.4863  0.2442
 5672TIP3    H117022   1.568   0.354   4.733 -1.0598  0.7074  0.0010
 5672TIP3    H217023   1.615   0.271   4.850 -0.2658 -0.6496 -1.2420
 5673TIP3   OH217024   2.327   3.005   1.937  0.3011 -0.1895  0.8114
 5673TIP3    H117025   2.315   2.971   1.848 -0.2585  2.4793 -0.2319
 5673TIP3    H217026   2.283   3.090   1.935 -1.1765 -0.7338  4.1514
 5674TIP3   OH217027   1.288   1.005   3.318 -0.0656  0.2482 -0.4466
 5674TIP3    H117028   1.324   1.081   3.273  1.6705 -1.3762 -1.9866
 5674TIP3    H217029   1.286   0.936   3.252  0.1059 -1.5385  1.2836
 5675TIP3   OH217030   3.100   1.338   4.380  0.0486 -0.3639  0.6985
 5675TIP3    H117031   3.141   1.407   4.432 -0.8036  0.5397  0.2214
 5675TIP3    H217032   3.172   1.296   4.334  0.4790  1.2122 -0.1514
 5676TIP3   OH217033   2.694   5.063   3.750 -0.6121 -0.0021  0.0437
 5676TIP3    H117034   2.671   5.131   3.812  2.8604  0.5438  0.9608
 5676TIP3    H217035   2.765   5.101   3.697  0.3991 -2.3434 -0.4284
 5677TIP3   OH217036   3.502   2.794   3.185 -0.1967  0.0714  0.0647
 5677TIP3    H117037   3.556   2.797   3.105  0.0656  0.1338  0.2420
 5677TIP3    H217038   3.441   2.867   3.176 -0.2708 -0.0160 -0.1512
 5678TIP3   OH217039   3.942   2.743   4.284  0.1051 -0.1486 -0.2681
 5678TIP3    H117040   3.896   2.808   4.231  0.2568  0.6405  0.5441
 5678TIP3    H217041   3.925   2.769   4.374  1.6793 -0.1557  0.0564
 5679TIP3   OH217042   4.287   2.896   0.721  0.4811  0.4681  0.0173
 5679TIP3    H117043   4.302   2.848   0.802  1.2883 -2.9686 -1.9651
 5679TIP3    H217044   4.329   2.843   0.653 -0.2565  3.0792 -2.7113
 5680TIP3   OH217045   2.870   1.749   2.522 -0.1403  0.1525 -0.0256
 5680TIP3    H117046   2.829   1.813   2.580  0.0425  1.6944 -1.5381
 5680TIP3    H217047   2.821   1.756   2.440  0.6623 -0.7970 -0.6025
 5681TIP3   OH217048   6.090   2.679   3.895 -0.0742 -0.0632  0.3554
 5681TIP3    H117049   6.133   2.623   3.960  0.2643  2.1493  2.1630
 5681TIP3    H217050   6.013   2.713   3.940  0.2908  1.7204 -0.2870
 5682TIP3   OH217051   2.975   4.801   2.418  0.1958  0.2838  0.2683
 5682TIP3    H117052   2.987   4.793   2.323 -1.4507 -2.9012  0.2003
 5682TIP3    H217053   2.894   4.850   2.428 -0.3203 -0.4817 -0.0538
 5683TIP3   OH217054   2.295   2.244   4.521  0.5629  0.0648 -0.0879
 5683TIP3    H117055   2.211   2.284   4.544  0.7304 -0.2709  1.1766
 5683TIP3    H217056   2.312   2.275   4.432 -2.2765 -2.1741 -1.5789
 5684TIP3   OH217057   5.441   2.874   3.066  0.3442 -0.5834  0.4960
 5684TIP3    H117058   5.441   2.969   3.067  1.1292 -0.5671 -0.2687
 5684TIP3    H217059   5.461   2.849   3.157  0.5499 -0.0239  0.6077
 5685TIP3   OH217060   1.785   2.879   2.622 -0.3439  1.0327 -0.1892
 5685TIP3    H117061   1.817   2.799   2.580 -0.7841  1.2447 -0.9583
 5685TIP3    H217062   1.835   2.886   2.703  0.3129  0.4411 -0.5328
 5686TIP3   OH217063   5.131   4.387   4.721  0.6098 -0.2936  0.3315
 5686TIP3    H117064   5.098   4.396   4.632  1.3250 -3.8897 -0.4280
 5686TIP3    H217065   5.063   4.428   4.775 -0.9133  0.0561 -1.7094
 5687TIP3   OH217066   3.284   5.356   0.264 -0.7950  0.0795  0.2992
 5687TIP3    H117067   3.330   5.301   0.327  2.1155 -1.0150 -2.4970
 5687TIP3    H217068   3.213   5.301   0.232  0.3198 -1.0096 -0.3773
 5688TIP3   OH217069   1.037   0.976   3.911 -0.3371 -0.3170 -0.5989
 5688TIP3    H117070   1.062   0.886   3.888 -1.4449 -0.7134 -0.3212
 5688TIP3    H217071   1.041   0.978   4.007  2.1878  0.7046 -0.6618
 5689TIP3   OH217072   0.661   5.432   3.410 -0.3196  0.1921 -0.3120
 5689TIP3    H117073   0.731   5.491   3.384  0.8200 -0.9293  0.1201
 5689TIP3    H217074   0.665   5.430   3.506  0.8589 -1.9184 -0.3525
 5690TIP3   OH217075   2.605   5.507   3.786  0.2972  0.5942 -0.4329
 5690TIP3    H117076   2.666   5.576   3.814  0.7027 -0.2878  0.9365
 5690TIP3    H217077   2.582   5.461   3.866 -2.2474  0.9232 -0.8912
 5691TIP3   OH217078   5.672   4.648   0.572  0.2539 -0.3680 -0.3086
 5691TIP3    H117079   5.711   4.718   0.624 -0.6658  0.7130 -1.0180
 5691TIP3    H217080   5.590   4.627   0.617 -0.3334  0.2679 -1.0509
 5692TIP3   OH217081   3.081   0.386   4.579  0.1381 -0.2096  0.1664
 5692TIP3    H117082   3.101   0.453   4.513  1.2635 -0.3705  0.3225
 5692TIP3    H217083   3.149   0.320   4.567 -0.4515 -0.9054  0.5946
 5693TIP3   OH217084   1.855   5.420   2.144 -0.3970 -0.1791 -0.3423
 5693TIP3    H117085   1.904   5.500   2.124 -0.1305 -0.5981 -1.4629
 5693TIP3    H217086   1.883   5.397   2.233 -1.6442  1.7834  0.6281
 5694TIP3   OH217087   1.835   4.883   4.149 -0.9218  0.5460  0.0078
 5694TIP3    H117088   1.920   4.839   4.155 -0.5618  1.1195 -0.7887
 5694TIP3    H217089   1.854   4.968   4.109 -1.7891  0.9318  0.3763
 5695TIP3   OH217090   3.745   2.947   1.943 -0.4704 -0.2834  0.0946
 5695TIP3    H117091   3.666   2.950   1.996  0.8109 -1.2711  2.1929
 5695TIP3    H217092   3.794   3.025   1.969  0.0884 -0.6772  0.2424
 5696TIP3   OH217093   3.118   5.257   1.390 -0.1498 -0.0608  0.0948
 5696TIP3    H117094   3.214   5.256   1.382 -0.1417 -0.5788  0.1978
 5696TIP3    H217095   3.095   5.165   1.405 -0.6194  0.1317  0.5878
 5697TIP3   OH217096   5.154   0.080   0.319  0.5748  0.2268  0.6642
 5697TIP3    H117097   5.090   0.150   0.310  0.8295  0.5383  1.2241
 5697TIP3    H217098   5.109   0.011   0.366  0.7308  0.5568  1.3025
 5698TIP3   OH217099   2.883   1.524   4.407  0.1662 -0.3722  0.1002
 5698TIP3    H117100   2.943   1.469   4.356 -1.6031 -1.8594 -0.4673
 5698TIP3    H217101   2.923   1.611   4.403  2.3521 -1.3062 -0.1080
 5699TIP3   OH217102   3.045  -0.006   2.470  0.1708 -0.1758 -0.0909
 5699TIP3    H117103   3.107   0.025   2.403 -0.6849 -0.4291 -1.0224
 5699TIP3    H217104   3.044   0.064   2.536  0.9090  0.1496 -0.4125
 5700TIP3   OH217105   5.272   3.484   3.044  0.2865  0.1102  0.1048
 5700TIP3    H117106   5.223   3.566   3.043  0.1740  0.0462 -0.3848
 5700TIP3    H217107   5.208   3.418   3.015  0.9311  0.1972 -1.6524
 5701TIP3   OH217108   4.179   4.550   3.285  0.2487 -0.1670 -0.3184
 5701TIP3    H117109   4.107   4.490   3.267 -2.3221  2.2864  0.9400
 5701TIP3    H217110   4.176   4.613   3.213 -1.3958  2.0562  1.5697
 5702TIP3   OH217111   3.824   5.447   0.544  0.3553  0.5843 -0.2647
 5702TIP3    H117112   3.839   5.515   0.610  0.3438  0.3061  0.0268
 5702TIP3    H217113   3.788   5.374   0.593 -2.7819  1.4824 -0.9934
 5703TIP3   OH217114   3.081   4.404   3.908 -0.1236  0.1125 -0.1591
 5703TIP3    H117115   3.048   4.490   3.935  2.3140  1.1129 -0.1133
 5703TIP3    H217116   3.091   4.356   3.990 -0.8062  0.0291 -0.1171
 5704TIP3   OH217117   2.661   0.577   5.117 -0.3868  0.0755  0.1456
 5704TIP3    H117118   2.597   0.532   5.062 -0.0652  0.3937 -0.5015
 5704TIP3    H217119   2.687   0.512   5.182  1.3309 -1.3118 -1.7836
 5705TIP3   OH217120   0.068   0.618   0.411  0.0052  0.5958 -0.1876
 5705TIP3    H117121   0.131   0.572   0.356  0.5958  1.4750 -0.2652
 5705TIP3    H217122   0.042   0.554   0.477  0.8345  0.1565 -0.2777
 5706TIP3   OH217123   3.969   5.537   0.865  0.2658 -0.3241  0.1795
 5706TIP3    H117124   3.945   5.598   0.795 -1.3824 -0.8541  0.2486
 5706TIP3    H217125   3.889   5.526   0.916  0.1742 -3.2929 -0.4206
 5707TIP3   OH217126   4.557   1.128   0.992 -0.4530  0.1067  0.7755
 5707TIP3    H117127   4.650   1.109   1.006 -0.4934 -0.4688  0.2728
 5707TIP3    H217128   4.528   1.165   1.076  0.7045  2.2433  0.2995
 5708TIP3   OH217129   4.823   0.615   0.730  0.2609  0.6923  0.8565
 5708TIP3    H117130   4.799   0.646   0.642 -0.0125 -1.3539  0.1687
 5708TIP3    H217131   4.895   0.673   0.756  0.7157  1.0167 -0.9571
 5709TIP3   OH217132   5.321   0.285   1.339  0.2213 -0.3623  0.5554
 5709TIP3    H117133   5.393   0.337   1.305 -0.1880  0.6816  1.2318
 5709TIP3    H217134   5.332   0.287   1.434 -1.4622  1.0394  0.7758
 5710TIP3   OH217135   3.761   4.386   1.411  0.0886  0.9395  0.1579
 5710TIP3    H117136   3.779   4.296   1.439 -0.5609  0.6428 -0.3390
 5710TIP3    H217137   3.807   4.441   1.475 -0.6672  0.2795  1.3008
 5711TIP3   OH217138   4.543   0.389   5.153 -0.0100 -0.3287  0.6550
 5711TIP3    H117139   4.591   0.352   5.079  0.7957  1.6624  0.1006
 5711TIP3    H217140   4.600   0.458   5.187 -1.8694  1.2309  0.8372
 5712TIP3   OH217141   3.067   0.308   0.381  0.0673  0.4825 -0.5519
 5712TIP3    H117142   3.038   0.273   0.297  0.0662  1.3039 -0.9019
 5712TIP3    H217143   3.082   0.231   0.436  3.1796 -0.3136 -2.2798
 5713TIP3   OH217144   6.161   3.979   0.744  0.1597  0.4046 -0.2075
 5713TIP3    H117145   6.096   3.970   0.814  1.2909  2.6584  1.2535
 5713TIP3    H217146   6.189   3.889   0.726 -1.7181 -0.4220  0.6912
 5714TIP3   OH217147   3.905   0.524   1.731 -0.2692 -0.0075 -0.3509
 5714TIP3    H117148   3.859   0.448   1.696 -1.6159  1.2185 -1.3952
 5714TIP3    H217149   3.929   0.575   1.653  0.7977  0.5458  0.3144
 5715TIP3   OH217150   4.975   4.021   1.761 -0.5868  0.4148 -0.2795
 5715TIP3    H117151   4.988   3.987   1.672 -0.1157 -0.0277 -0.0496
 5715TIP3    H217152   5.002   4.113   1.755 -1.1862  0.5715 -0.7407
 5716TIP3   OH217153   0.934   4.406   2.478 -0.1090 -0.1720 -0.2837
 5716TIP3    H117154   1.004   4.403   2.412 -0.7991  0.1340 -1.0601
 5716TIP3    H217155   0.978   4.428   2.560  0.6185  0.7225 -0.8976
 5717TIP3   OH217156   2.260   4.169   2.155  0.4098  0.4476  0.9289
 5717TIP3    H117157   2.276   4.216   2.073  0.3274 -0.4390  0.3864
 5717TIP3    H217158   2.315   4.091   2.149 -0.7189 -0.3894  1.0299
 5718TIP3   OH217159   4.359   4.279   2.690  0.2107 -0.2743 -0.2367
 5718TIP3    H117160   4.297   4.295   2.619  0.8329  1.3382 -0.4789
 5718TIP3    H217161   4.306   4.242   2.761 -0.6433 -0.7719 -1.1092
 5719TIP3   OH217162   3.685   2.222   4.005 -0.3078  0.1876 -0.7026
 5719TIP3    H117163   3.726   2.292   3.953  1.0277 -0.7686 -0.9901
 5719TIP3    H217164   3.666   2.153   3.942  0.4490 -0.5999 -0.0889
 5720TIP3   OH217165   5.284   3.542   1.272  0.2858  0.1396 -0.0217
 5720TIP3    H117166   5.264   3.568   1.362 -0.9740 -0.3220 -0.1400
 5720TIP3    H217167   5.248   3.613   1.218 -0.0729 -0.1673 -0.1974
 5721TIP3   OH217168   5.497   0.437   4.148 -0.3121 -0.3083 -0.2449
 5721TIP3    H117169   5.494   0.356   4.097 -0.6021 -0.0169 -0.7004
 5721TIP3    H217170   5.475   0.506   4.085  0.5468  0.1966 -0.0101
 5722TIP3   OH217171   3.267   3.911   1.110 -0.3734  0.2669  0.0789
 5722TIP3    H117172   3.187   3.928   1.058 -0.6281 -0.5696  0.1852
 5722TIP3    H217173   3.303   3.998   1.126 -0.4196  0.5707 -1.3058
 5723TIP3   OH217174   1.126   2.748   0.182 -0.3016 -0.4381 -0.0460
 5723TIP3    H117175   1.090   2.678   0.237  1.4140 -1.4254 -0.1098
 5723TIP3    H217176   1.152   2.816   0.245  0.2005 -0.8863  0.2425
 5724TIP3   OH217177   5.846   3.644   4.102 -0.0981 -0.1127  0.2976
 5724TIP3    H117178   5.836   3.556   4.139  1.4239  0.3064  1.7843
 5724TIP3    H217179   5.762   3.687   4.119 -0.9627 -1.3235 -0.6912
 5725TIP3   OH217180   2.501   3.386   4.547  0.6841 -0.3593  0.0501
 5725TIP3    H117181   2.595   3.376   4.564  1.4902  0.1400 -3.3766
 5725TIP3    H217182   2.493   3.474   4.510 -0.8482 -0.9464 -1.1232
 5726TIP3   OH217183   2.213   3.248   1.901  0.1516 -0.7178  0.5078
 5726TIP3    H117184   2.145   3.294   1.949  1.2034  0.4604  0.9088
 5726TIP3    H217185   2.171   3.222   1.819 -0.7761 -0.0243  0.7499
 5727TIP3   OH217186   3.670   2.683   4.994  0.4712 -0.2377 -0.2462
 5727TIP3    H117187   3.605   2.620   4.963  1.2041 -0.7138 -0.8317
 5727TIP3    H217188   3.730   2.694   4.921  1.2009  0.0062  0.3737
 5728TIP3   OH217189   5.444   4.391   2.946 -0.0158 -0.1257 -0.7100
 5728TIP3    H117190   5.539   4.405   2.949  0.0952 -0.9758  0.5135
 5728TIP3    H217191   5.422   4.363   3.034 -1.1529 -1.6098 -1.4385
 5729TIP3   OH217192   3.347   4.385   4.732 -0.3378 -0.1171  0.6105
 5729TIP3    H117193   3.435   4.347   4.729 -0.5029 -0.4717  0.1870
 5729TIP3    H217194   3.289   4.312   4.754 -0.4790  0.2121  1.3945
 5730TIP3   OH217195   4.582   5.950   1.838 -0.1444  0.0701  0.0946
 5730TIP3    H117196   4.673   5.923   1.850 -0.1917 -1.0555 -1.6827
 5730TIP3    H217197   4.588   6.038   1.801  0.3672 -0.8960 -2.2839
 5731TIP3   OH217198   1.078   5.172   1.445 -1.1402  0.6165  0.3884
 5731TIP3    H117199   1.132   5.243   1.409 -0.4358  0.2349  0.6881
 5731TIP3    H217200   1.078   5.187   1.539 -2.2289  1.0760  0.3329
 5732TIP3   OH217201   1.660   4.788   2.999 -0.1629 -0.5507  0.1735
 5732TIP3    H117202   1.726   4.855   3.018 -0.6595  0.0717 -0.2388
 5732TIP3    H217203   1.631   4.808   2.910 -1.4479 -0.3423  0.6256
 5733TIP3   OH217204   5.613   3.255   5.030 -0.6420  0.4812  0.3340
 5733TIP3    H117205   5.647   3.167   5.013 -0.8311  0.2856  0.9481
 5733TIP3    H217206   5.522   3.252   4.998 -0.7028  0.4007  0.5151
 5734TIP3   OH217207   4.544   2.426   1.786 -0.4303  0.1422  0.1578
 5734TIP3    H117208   4.533   2.389   1.874  1.6843 -2.6711 -0.5941
 5734TIP3    H217209   4.461   2.408   1.742  0.0618 -2.8449  0.2439
 5735TIP3   OH217210   0.922   4.202   4.007 -0.1547  0.1000 -0.3645
 5735TIP3    H117211   0.843   4.256   3.999 -0.5026 -0.2583  0.5681
 5735TIP3    H217212   0.890   4.112   4.001  0.5322 -0.0519 -2.8843
 5736TIP3   OH217213   5.717   3.048   4.881 -0.1937  0.4921 -0.1386
 5736TIP3    H117214   5.639   2.994   4.888 -0.8530  1.4353 -0.0092
 5736TIP3    H217215   5.741   3.043   4.788  1.5898 -2.4619  0.3529
 5737TIP3   OH217216   3.302   1.029   0.937  0.0694  0.7710 -0.3817
 5737TIP3    H117217   3.387   0.987   0.953  1.0789  1.8827 -2.4401
 5737TIP3    H217218   3.319   1.091   0.866 -2.5785  0.6863 -1.1853
 5738TIP3   OH217219   2.682   1.796   0.972  0.9981  0.4432  0.6647
 5738TIP3    H117220   2.752   1.745   0.930  1.1319 -0.1445  1.5693
 5738TIP3    H217221   2.607   1.786   0.913  1.3303  0.0809  0.2948
 5739TIP3   OH217222   6.353   4.799   2.052  0.3373  0.2255  0.0071
 5739TIP3    H117223   6.401   4.857   1.993  0.6734  0.6079  0.6431
 5739TIP3    H217224   6.303   4.858   2.108 -0.9411 -0.1731 -0.6916
 5740TIP3   OH217225   3.596   5.234   3.538  0.1458 -0.0444 -0.0165
 5740TIP3    H117226   3.566   5.201   3.454 -1.0290 -0.2986  0.4807
 5740TIP3    H217227   3.691   5.239   3.530 -0.0609  2.6355 -2.3329
 5741TIP3   OH217228   5.240   0.854   4.971  0.1775 -0.1283  0.1884
 5741TIP3    H117229   5.195   0.859   5.055 -0.0037  1.8329  0.0135
 5741TIP3    H217230   5.258   0.945   4.948 -1.7886 -0.3897 -2.9790
 5742TIP3   OH217231   2.189   2.836   2.216  0.4170  0.6295  0.5107
 5742TIP3    H117232   2.252   2.888   2.166  2.6618 -3.0036 -0.8362
 5742TIP3    H217233   2.242   2.791   2.282 -1.4774  0.3322  1.9226
 5743TIP3   OH217234   0.040   0.422   0.579  0.3013 -0.3181 -0.2981
 5743TIP3    H117235   0.131   0.395   0.565  1.4400  2.6201  0.8076
 5743TIP3    H217236   0.019   0.390   0.667  1.0682  0.8401  0.3320
 5744TIP3   OH217237   0.144   0.573   1.773 -0.1392 -0.1727 -0.4363
 5744TIP3    H117238   0.172   0.580   1.682 -1.7186  2.1529 -0.8351
 5744TIP3    H217239   0.077   0.504   1.773 -1.3113  0.9114 -1.4149
 5745TIP3   OH217240   2.836   5.157   3.077  0.3614 -0.0208  0.1305
 5745TIP3    H117241   2.841   5.085   3.013 -1.0335  0.0932 -0.1396
 5745TIP3    H217242   2.753   5.201   3.056 -0.2102 -0.0743  2.1193
 5746TIP3   OH217243   3.888   4.812   3.344 -0.2167  0.3515 -0.3244
 5746TIP3    H117244   3.856   4.746   3.283 -1.5006  0.8615 -0.2358
 5746TIP3    H217245   3.905   4.765   3.425  1.6337 -0.3579 -1.0723
 5747TIP3   OH217246   2.636   0.718   3.818  0.0712  0.4495 -0.1862
 5747TIP3    H117247   2.626   0.700   3.912 -1.7060  0.3130 -0.3835
 5747TIP3    H217248   2.550   0.747   3.789  0.4966  0.1210 -1.8762
 5748TIP3   OH217249   4.626   1.753   1.508 -0.2600  0.1165  0.5087
 5748TIP3    H117250   4.650   1.710   1.426  1.5187  0.2075  0.9402
 5748TIP3    H217251   4.603   1.842   1.482  1.6570  0.5768  0.2024
 5749TIP3   OH217252   3.170   4.210   1.903 -0.3080  0.3901 -0.2338
 5749TIP3    H117253   3.256   4.232   1.868  0.9135 -2.4156  0.7154
 5749TIP3    H217254   3.113   4.210   1.826  0.7244  1.4189 -1.0331
 5750TIP3   OH217255   3.112   1.454   0.261  0.4072  0.0651  0.8919
 5750TIP3    H117256   3.092   1.365   0.231  4.2829 -1.0425  0.9324
 5750TIP3    H217257   3.088   1.454   0.354 -0.2788 -0.7036  0.7257
 5751TIP3   OH217258   5.088   3.194   0.619  0.3348  0.1524  0.0376
 5751TIP3    H117259   5.158   3.248   0.656  1.2805 -0.4205 -0.8655
 5751TIP3    H217260   5.107   3.106   0.649 -0.4678  0.1069  0.4427
 5752TIP3   OH217261   4.292   2.865   1.277 -0.3480  0.1346 -0.2556
 5752TIP3    H117262   4.241   2.941   1.304  1.0250  0.8427  0.4298
 5752TIP3    H217263   4.384   2.891   1.289  0.1881 -1.2218 -1.1003
 5753TIP3   OH217264   3.178   4.336   4.146 -0.6907  0.1546 -0.3052
 5753TIP3    H117265   3.217   4.423   4.141 -1.6346  0.5875 -0.3993
 5753TIP3    H217266   3.243   4.283   4.193 -1.4114  1.6771  2.6298
 5754TIP3   OH217267   4.689   0.044   1.550 -0.0943  0.1927  0.3911
 5754TIP3    H117268   4.646   0.125   1.576 -0.9989  0.5035 -1.8480
 5754TIP3    H217269   4.780   0.055   1.577 -0.5229  1.2948  1.4550
 5755TIP3   OH217270   0.643   4.471   3.704 -0.1152 -0.8571 -0.3728
 5755TIP3    H117271   0.638   4.446   3.796  0.4293  1.3415  0.3004
 5755TIP3    H217272   0.708   4.411   3.666 -0.3242 -1.7574  0.6518
 5756TIP3   OH217273   2.564   0.468   0.866  0.4699 -0.0663  0.3187
 5756TIP3    H117274   2.541   0.410   0.793 -1.0710  0.9733 -0.0719
 5756TIP3    H217275   2.655   0.494   0.848  0.0546  0.3435 -1.3910
 5757TIP3   OH217276   1.724   4.591   5.197 -0.1635 -0.2743  0.5595
 5757TIP3    H117277   1.732   4.628   5.110 -1.3537 -1.2689 -0.0135
 5757TIP3    H217278   1.742   4.498   5.185 -0.4592 -0.4402  1.3531
 5758TIP3   OH217279   3.034   5.979   3.893  0.6358 -0.0066 -0.0589
 5758TIP3    H117280   2.969   6.003   3.959 -0.1907  1.2973 -1.2895
 5758TIP3    H217281   2.983   5.941   3.822  1.3986 -0.4613 -0.3679
 5759TIP3   OH217282   1.219   0.287   2.079 -0.4655  0.0112 -0.3250
 5759TIP3    H117283   1.165   0.365   2.095 -0.4106 -0.3354  1.8569
 5759TIP3    H217284   1.303   0.306   2.121  0.2388 -0.4500 -1.5002
 5760TIP3   OH217285   4.798   5.022   4.639 -0.0915 -0.1866  0.0380
 5760TIP3    H117286   4.864   5.090   4.625 -1.1427  0.2462 -4.1694
 5760TIP3    H217287   4.732   5.065   4.694  0.9786  0.9130  0.5224
 5761TIP3   OH217288   1.929   3.324   2.603  0.0587 -0.2576 -0.5953
 5761TIP3    H117289   1.841   3.311   2.639 -0.2057  1.4667 -0.5377
 5761TIP3    H217290   1.988   3.309   2.676 -0.3587  1.1741  0.0669
 5762TIP3   OH217291   4.304   5.905   3.809  0.2861 -0.1071  0.1770
 5762TIP3    H117292   4.356   5.827   3.831 -0.3370 -0.7490 -0.5560
 5762TIP3    H217293   4.225   5.896   3.862 -0.7245 -1.0862 -1.4257
 5763TIP3   OH217294   1.929   2.307   3.463  0.2271 -0.5500 -0.1361
 5763TIP3    H117295   2.009   2.320   3.412 -0.4891 -0.7751 -1.3499
 5763TIP3    H217296   1.915   2.212   3.462 -0.6152 -0.4336 -0.8459
 5764TIP3   OH217297   0.670   2.590   3.511  0.1704 -0.4991  0.6354
 5764TIP3    H117298   0.757   2.586   3.551  0.4201  0.0694  0.1688
 5764TIP3    H217299   0.627   2.509   3.538  1.3315 -1.4356 -0.2335
 5765TIP3   OH217300   6.131   2.191   1.742  0.1624  0.5131  0.4099
 5765TIP3    H117301   6.063   2.188   1.810  0.1762  1.3368  0.4709
 5765TIP3    H217302   6.133   2.102   1.706  0.5507 -0.0939  1.8767
 5766TIP3   OH217303   4.271   5.237   3.890 -0.3169 -0.5732  0.4564
 5766TIP3    H117304   4.298   5.180   3.962 -1.4635  0.8459  2.0881
 5766TIP3    H217305   4.242   5.318   3.933 -0.8164  0.4208 -1.6299
 5767TIP3   OH217306   0.559   0.216   3.815 -0.5263  0.1106 -0.4411
 5767TIP3    H117307   0.541   0.134   3.769  1.5729 -0.7813  0.2155
 5767TIP3    H217308   0.562   0.282   3.745 -2.8822 -0.1975 -0.9047
 5768TIP3   OH217309   3.893   2.312   0.708  0.0854  0.0842  0.0980
 5768TIP3    H117310   3.979   2.343   0.679 -0.3809 -0.1178 -1.6053
 5768TIP3    H217311   3.840   2.312   0.629 -1.5723  0.4220  1.1711
 5769TIP3   OH217312   2.765   5.144   0.679 -0.4604 -0.0005 -0.4737
 5769TIP3    H117313   2.739   5.085   0.608  1.6698 -1.0098 -0.5086
 5769TIP3    H217314   2.771   5.089   0.756 -0.3158  0.5658 -0.0726
 5770TIP3   OH217315   5.561   0.844   3.186  0.7652  0.3318 -0.0696
 5770TIP3    H117316   5.597   0.931   3.169  1.4442 -0.1609 -1.2515
 5770TIP3    H217317   5.630   0.783   3.158  0.1274 -0.5996  0.3209
 5771TIP3   OH217318   4.211   2.792   4.299  0.1132  0.0678 -0.1054
 5771TIP3    H117319   4.124   2.754   4.284  0.0945 -1.1585  2.5795
 5771TIP3    H217320   4.256   2.729   4.355  2.8173  0.6444 -1.4593
 5772TIP3   OH217321   4.721   1.866   4.387 -0.5606 -0.3250 -0.5301
 5772TIP3    H117322   4.749   1.926   4.456  0.5227 -0.7127 -0.5990
 5772TIP3    H217323   4.635   1.834   4.415 -0.2994 -0.1928  0.4557
 5773TIP3   OH217324   1.417   0.971   1.042 -0.2413  0.1243 -0.0671
 5773TIP3    H117325   1.342   0.923   1.079  0.2175 -0.3824  0.2260
 5773TIP3    H217326   1.471   0.993   1.117 -0.0416  0.3980 -0.2886
 5774TIP3   OH217327   0.350   0.957   5.150 -1.2032  0.1058  0.0554
 5774TIP3    H117328   0.263   0.953   5.109 -0.1699 -0.2357 -2.2658
 5774TIP3    H217329   0.389   1.037   5.115 -0.0118 -0.5513 -0.1621
 5775TIP3   OH217330   0.151   0.099   1.014  0.2666 -0.3665  0.6642
 5775TIP3    H117331   0.143   0.004   1.004  2.5162 -0.5357 -0.1029
 5775TIP3    H217332   0.212   0.110   1.087  0.1894  0.4715  0.6081
 5776TIP3   OH217333   3.221   1.286   1.638  0.2309  0.2708  0.1261
 5776TIP3    H117334   3.160   1.288   1.564 -0.7137  2.2442  0.8804
 5776TIP3    H217335   3.229   1.193   1.660 -0.1081 -0.2892 -1.9157
 5777TIP3   OH217336   0.993   0.492   2.034  0.0755  0.2754  0.0772
 5777TIP3    H117337   0.923   0.553   2.057  0.0260  1.3855 -2.6461
 5777TIP3    H217338   1.071   0.547   2.025  0.6859 -0.5266  0.2987
 5778TIP3   OH217339   5.805   4.747   0.895  0.0686 -0.1697 -0.6848
 5778TIP3    H117340   5.757   4.792   0.826 -0.8633  0.0292  0.0743
 5778TIP3    H217341   5.893   4.785   0.891 -0.2680  0.5999 -1.0833
 5779TIP3   OH217342   3.145   3.933   1.911  0.6267  0.1796  0.6109
 5779TIP3    H117343   3.219   3.905   1.857 -0.5383 -2.0916  0.0560
 5779TIP3    H217344   3.161   4.026   1.927  2.2460  0.3763 -1.6336
 5780TIP3   OH217345   5.083   4.156   3.305  0.0594  0.1527  0.5298
 5780TIP3    H117346   5.092   4.062   3.288 -0.1433 -0.2724  2.5327
 5780TIP3    H217347   5.016   4.185   3.244 -0.6561 -1.2392  0.6174
 5781TIP3   OH217348   0.483   0.742   2.906  0.0866 -0.2920  0.4259
 5781TIP3    H117349   0.405   0.792   2.881 -0.3048 -0.5075  1.2083
 5781TIP3    H217350   0.550   0.809   2.920  0.8770 -0.2083 -2.9115
 5782TIP3   OH217351   3.599   4.462   0.978 -0.1987  0.6816  0.3696
 5782TIP3    H117352   3.561   4.378   0.953 -0.4270  0.4158  1.5572
 5782TIP3    H217353   3.613   4.508   0.895 -0.3862 -0.3859 -0.2700
 5783TIP3   OH217354   4.671   3.019   1.773  0.0741 -0.5466 -0.3483
 5783TIP3    H117355   4.722   3.062   1.842  1.9110 -0.7345 -1.5130
 5783TIP3    H217356   4.582   3.016   1.807  0.6617  0.5952  1.4248
 5784TIP3   OH217357   3.933   3.852   3.025  0.5861 -0.0456  0.3302
 5784TIP3    H117358   3.954   3.936   3.066 -0.9679  0.2888  0.5063
 5784TIP3    H217359   3.911   3.795   3.098 -1.1898  0.2544  0.0639
 5785TIP3   OH217360   0.340   2.722   1.395  0.1896  0.4493 -0.6282
 5785TIP3    H117361   0.325   2.661   1.467  1.3125  0.9497  0.0596
 5785TIP3    H217362   0.252   2.754   1.372 -0.2904 -0.5649 -0.2512
 5786TIP3   OH217363   1.044   5.851   1.707  0.1346 -0.0233 -0.2062
 5786TIP3    H117364   1.108   5.922   1.715 -0.7243  0.6642  0.7568
 5786TIP3    H217365   1.097   5.771   1.704  1.1383  0.6406 -1.6082
 5787TIP3   OH217366   0.930   0.391   4.953  0.2899 -0.2714  0.1263
 5787TIP3    H117367   0.885   0.455   5.007  0.7479  0.2310 -0.0835
 5787TIP3    H217368   0.865   0.322   4.939 -1.3583  1.5983 -2.3230
 5788TIP3   OH217369   4.180   0.270   1.723  0.0590  0.0825  0.6594
 5788TIP3    H117370   4.091   0.248   1.751  0.4006 -0.8989  0.9998
 5788TIP3    H217371   4.194   0.216   1.645 -0.0640  1.1162 -0.0989
 5789TIP3   OH217372   1.958   0.401   2.939 -0.3698 -0.1357  0.1266
 5789TIP3    H117373   1.959   0.305   2.935 -0.6880 -0.1421  0.1822
 5789TIP3    H217374   1.997   0.429   2.857  0.8115 -0.3175  0.6065
 5790TIP3   OH217375   5.258   4.279   0.543  0.2765  0.1974  0.4476
 5790TIP3    H117376   5.258   4.185   0.562 -0.5694 -0.3876 -2.0366
 5790TIP3    H217377   5.335   4.292   0.487  0.5952  1.0623  1.0726
 5791TIP3   OH217378   1.069   5.659   3.528  0.3291 -0.1345  0.5241
 5791TIP3    H117379   1.126   5.592   3.489  1.5456  0.9828  0.3051
 5791TIP3    H217380   1.081   5.648   3.622  0.8313  0.0033  0.4826
 5792TIP3   OH217381   4.544   4.333   0.544 -0.5731  0.2039  0.1198
 5792TIP3    H117382   4.456   4.354   0.511  0.3437  1.8754 -1.4654
 5792TIP3    H217383   4.554   4.388   0.621 -0.3057  1.3903 -0.7297
 5793TIP3   OH217384   4.689   1.275   3.045  0.7244  0.1845 -0.0928
 5793TIP3    H117385   4.728   1.309   3.126  0.9626 -0.2868 -0.0042
 5793TIP3    H217386   4.611   1.328   3.031  0.4599  0.0078  0.6682
 5794TIP3   OH217387   2.976   3.979   4.396 -0.4125  0.2865 -0.5134
 5794TIP3    H117388   2.985   4.044   4.326  1.9234 -0.2185 -0.7502
 5794TIP3    H217389   3.016   4.020   4.473 -1.0463  0.0143 -0.0227
 5795TIP3   OH217390   5.717   0.108   3.197  0.0265 -0.3288 -0.4018
 5795TIP3    H117391   5.789   0.088   3.138  0.7579  0.3988  0.2151
 5795TIP3    H217392   5.640   0.114   3.140  0.6613  0.0890 -1.2368
 5796TIP3   OH217393   3.392   1.657   4.142 -0.2561  0.4160 -0.1283
 5796TIP3    H117394   3.446   1.579   4.156 -0.6750  0.3838  1.5621
 5796TIP3    H217395   3.434   1.703   4.070  0.4047 -1.0076 -0.6987
 5797TIP3   OH217396   4.368   2.488   3.625  0.0425  0.0439  0.1921
 5797TIP3    H117397   4.362   2.510   3.718  1.3759 -0.5290  0.4426
 5797TIP3    H217398   4.326   2.402   3.619 -0.1367  0.1272  0.2471
 5798TIP3   OH217399   2.304   0.665   4.066  0.0316 -0.6493  0.2686
 5798TIP3    H117400   2.230   0.725   4.071  3.2251  3.7669  1.6019
 5798TIP3    H217401   2.332   0.669   3.974  2.1061  2.9757  0.8463
 5799TIP3   OH217402   4.597   4.898   0.468 -0.2389  0.7372  0.7028
 5799TIP3    H117403   4.689   4.895   0.496 -0.0855  1.2399  0.2687
 5799TIP3    H217404   4.601   4.898   0.372 -0.7439 -0.5355  0.6507
 5800TIP3   OH217405   4.132   3.254   2.060  0.3914  0.6227 -0.1727
 5800TIP3    H117406   4.206   3.200   2.087  0.6996  1.6251  1.0804
 5800TIP3    H217407   4.164   3.300   1.982  0.6259  0.0814 -0.4023
 5801TIP3   OH217408   1.659   5.505   2.766 -0.0155 -0.2913 -0.7129
 5801TIP3    H117409   1.671   5.435   2.701 -0.4711 -1.0604  0.0050
 5801TIP3    H217410   1.717   5.575   2.736 -0.6436 -0.3920 -2.2655
 5802TIP3   OH217411   2.315   4.840   4.808  0.2327  0.2601  0.1376
 5802TIP3    H117412   2.293   4.922   4.764  0.2767  0.5873  0.7156
 5802TIP3    H217413   2.264   4.841   4.889 -0.0855 -0.4802 -0.0480
 5803TIP3   OH217414   5.255   4.971   2.363 -0.7056 -0.7557  0.2038
 5803TIP3    H117415   5.193   5.032   2.403  0.1588  0.6037 -0.4696
 5803TIP3    H217416   5.237   4.976   2.269  0.3022 -0.4781  0.0136
 5804TIP3   OH217417   1.812   4.882   0.608 -0.6692  0.0334 -0.1972
 5804TIP3    H117418   1.742   4.828   0.571 -1.8891  0.8823  0.7973
 5804TIP3    H217419   1.841   4.832   0.684 -0.3630 -0.1923 -0.4585
 5805TIP3   OH217420   3.143   2.171   2.027 -0.5115 -0.6437  0.0458
 5805TIP3    H117421   3.214   2.108   2.036  0.4638  0.4403  0.2747
 5805TIP3    H217422   3.184   2.255   2.047 -1.3095  0.3230 -2.1025
 5806TIP3   OH217423   0.088   1.427   1.958  0.1551  0.0294  0.4645
 5806TIP3    H117424   0.119   1.474   1.880  1.7130  1.4008  1.8502
 5806TIP3    H217425   0.153   1.357   1.970  0.6164  0.5716  1.2018
 5807TIP3   OH217426   4.336   3.923   0.291 -0.3120  0.0035  0.1071
 5807TIP3    H117427   4.376   3.992   0.344 -1.5817  0.9340 -0.0843
 5807TIP3    H217428   4.367   3.842   0.330 -0.4895  0.6711  1.7066
 5808TIP3   OH217429   3.822   3.514   0.325  0.0915 -0.4491  0.0564
 5808TIP3    H117430   3.797   3.484   0.412 -1.6870 -0.4473 -0.4143
 5808TIP3    H217431   3.756   3.476   0.267  1.8163 -1.3470 -1.4627
 5809TIP3   OH217432   5.540   1.522   3.959 -0.0151 -0.1929  0.1753
 5809TIP3    H117433   5.476   1.452   3.967  0.0464 -0.4008 -0.9518
 5809TIP3    H217434   5.586   1.503   3.878 -0.8278  1.8248 -0.8361
 5810TIP3   OH217435   3.644   5.816   1.462  0.3512  0.2755  0.5023
 5810TIP3    H117436   3.616   5.855   1.379 -1.2056  0.3763  1.0390
 5810TIP3    H217437   3.601   5.869   1.529  2.3399  0.7725  1.4251
 5811TIP3   OH217438   4.954   5.405   5.085 -0.1597  0.3555  0.0703
 5811TIP3    H117439   4.874   5.381   5.038 -0.7575 -0.7856  1.5993
 5811TIP3    H217440   4.936   5.493   5.117 -1.0477 -0.0796  0.8350
 5812TIP3   OH217441   2.204   1.477   3.643 -0.0518  0.3224 -0.6396
 5812TIP3    H117442   2.244   1.394   3.613 -0.4672  0.3624 -1.3372
 5812TIP3    H217443   2.146   1.502   3.571 -0.6478  0.7352 -0.0214
 5813TIP3   OH217444   2.527   4.027   2.741 -0.1514  0.5917  0.2969
 5813TIP3    H117445   2.469   3.951   2.752 -2.2540  1.8227 -1.4859
 5813TIP3    H217446   2.526   4.070   2.827 -0.4751 -0.3625  0.7863
 5814TIP3   OH217447   4.590   0.153   3.045 -0.0259  0.1898 -0.0309
 5814TIP3    H117448   4.661   0.093   3.027 -0.0729  0.4603 -1.1634
 5814TIP3    H217449   4.633   0.234   3.072  0.0545 -0.0496  0.5812
 5815TIP3   OH217450   0.958   5.616   2.074 -0.0048  0.2103  0.1011
 5815TIP3    H117451   0.913   5.688   2.118 -0.1136 -1.0422  2.1427
 5815TIP3    H217452   1.048   5.648   2.063 -0.7137  1.7769 -1.8054
 5816TIP3   OH217453   4.767   2.426   4.086  0.7563  0.4716 -0.4830
 5816TIP3    H117454   4.769   2.447   3.993 -0.1387  0.6291 -0.4695
 5816TIP3    H217455   4.676   2.403   4.104  0.8973  0.5610  0.3817
 5817TIP3   OH217456   2.537   1.886   0.735  0.1986  0.1672  0.3593
 5817TIP3    H117457   2.470   1.867   0.801 -0.0920 -1.6292 -0.3964
 5817TIP3    H217458   2.488   1.917   0.659  0.2477 -0.5240  0.0308
 5818TIP3   OH217459   3.431   3.135   0.304  0.2467  0.0275  0.1586
 5818TIP3    H117460   3.455   3.223   0.331 -0.0035  0.2119 -0.2028
 5818TIP3    H217461   3.360   3.109   0.363 -1.8442  1.2911 -1.6459
 5819TIP3   OH217462   3.677   5.347   2.391 -0.5000  0.0594  0.0336
 5819TIP3    H117463   3.737   5.416   2.419  0.3586  0.0403 -1.6218
 5819TIP3    H217464   3.703   5.270   2.440  1.0313 -0.0047 -0.8248
 5820TIP3   OH217465   3.332   4.608   2.854  0.4152 -0.3833 -0.5522
 5820TIP3    H117466   3.347   4.513   2.845 -2.6105 -1.0665  0.3337
 5820TIP3    H217467   3.271   4.629   2.784  0.4588  0.7574 -0.2546
 5821TIP3   OH217468   2.591   5.775   1.905 -0.7018  0.4788  0.5983
 5821TIP3    H117469   2.608   5.818   1.821 -0.4665 -1.2919 -0.2957
 5821TIP3    H217470   2.548   5.692   1.882  0.8197 -0.8027  2.1083
 5822TIP3   OH217471   4.769   2.246   0.316  0.3292  0.5220  0.4567
 5822TIP3    H117472   4.690   2.290   0.346 -1.2070 -0.9420 -1.1935
 5822TIP3    H217473   4.761   2.157   0.350  0.4888 -0.0645 -0.9485
 5823TIP3   OH217474   1.505   1.402   4.688  0.1103  0.1644 -0.8566
 5823TIP3    H117475   1.452   1.479   4.705  1.8268  1.7552 -2.2559
 5823TIP3    H217476   1.448   1.344   4.638 -1.2746  0.3846  0.4047
 5824TIP3   OH217477   4.955   2.779   0.767 -0.2186  0.4487 -0.6170
 5824TIP3    H117478   4.945   2.700   0.820 -1.1636  0.1435 -1.2284
 5824TIP3    H217479   5.039   2.768   0.723 -0.0354  0.0961 -0.1867
 5825TIP3   OH217480   1.423   0.587   3.961 -0.1099 -0.1506  0.0841
 5825TIP3    H117481   1.480   0.632   3.898 -1.0782 -0.0274 -0.7384
 5825TIP3    H217482   1.360   0.540   3.906  0.6697 -2.3049  0.9069
 5826TIP3   OH217483   5.688   5.276   0.044 -0.0147  0.1352 -0.1719
 5826TIP3    H117484   5.700   5.370   0.053  2.0823  0.0513 -1.4321
 5826TIP3    H217485   5.776   5.242   0.025 -0.7220 -2.0726  0.1745
 5827TIP3   OH217486   2.090   1.061   1.424 -0.3733  0.5139 -0.0491
 5827TIP3    H117487   2.080   1.156   1.431  0.3382  0.5305  1.0080
 5827TIP3    H217488   2.020   1.034   1.365  0.8215  1.9638 -2.2658
 5828TIP3   OH217489   5.327   0.776   1.506 -0.1315 -0.3300  0.7145
 5828TIP3    H117490   5.417   0.781   1.473 -0.4617  0.4643 -0.1197
 5828TIP3    H217491   5.334   0.802   1.598  0.3900  0.5704  0.4410
 5829TIP3   OH217492   4.678   1.058   1.473  0.6608  0.0154 -0.2679
 5829TIP3    H117493   4.694   1.105   1.555  0.0557 -1.3897  0.7046
 5829TIP3    H217494   4.699   0.967   1.494 -0.0039 -0.4473 -1.5336
 5830TIP3   OH217495   6.274   4.519   5.051  0.1191  0.2816 -0.4059
 5830TIP3    H117496   6.319   4.558   5.126 -2.6854 -0.0609  1.6066
 5830TIP3    H217497   6.202   4.580   5.032  0.1735 -0.1500 -2.2070
 5831TIP3   OH217498   1.207   4.115   1.116  0.3297  0.1427  0.0071
 5831TIP3    H117499   1.147   4.054   1.073  0.3424 -0.4150  0.7481
 5831TIP3    H217500   1.199   4.196   1.067  0.2403 -0.4303 -0.9547
 5832TIP3   OH217501   3.837   2.934   0.485  0.4475 -0.0722  0.0056
 5832TIP3    H117502   3.897   3.006   0.466 -0.1485  0.3234 -0.3789
 5832TIP3    H217503   3.888   2.875   0.542  0.8611  0.7522  0.5031
 5833TIP3   OH217504   1.185   2.162   3.125  0.0716  0.6700 -0.0686
 5833TIP3    H117505   1.188   2.094   3.193  0.7535  0.5816 -0.1805
 5833TIP3    H217506   1.110   2.216   3.149  0.3405  0.6803  0.7989
 5834TIP3   OH217507   5.431   3.924   3.832  0.2017  0.1068 -0.2809
 5834TIP3    H117508   5.475   3.918   3.917 -0.0294  0.6452 -0.1165
 5834TIP3    H217509   5.338   3.937   3.854  0.1044 -0.0071 -0.6178
 5835TIP3   OH217510   4.218   1.773   2.406  0.1508 -0.0794 -0.0904
 5835TIP3    H117511   4.216   1.732   2.319 -2.1084  0.4817 -0.3543
 5835TIP3    H217512   4.307   1.755   2.438 -0.0581 -3.4091 -0.9858
 5836TIP3   OH217513   1.313   4.120   3.929 -0.2623  0.5533 -0.4218
 5836TIP3    H117514   1.247   4.185   3.904 -2.7170 -1.9808 -1.1170
 5836TIP3    H217515   1.314   4.058   3.856 -0.2186 -1.7324  1.4259
 5837TIP3   OH217516   4.965   1.877   2.838  0.0544 -0.6372 -0.0643
 5837TIP3    H117517   4.964   1.802   2.780 -0.7394 -1.0078  0.4030
 5837TIP3    H217518   4.899   1.856   2.905 -0.1823  0.4720  0.0651
 5838TIP3   OH217519   6.289   2.794   2.953  0.3425 -0.0208 -0.1702
 5838TIP3    H117520   6.380   2.823   2.955  0.1056  0.7369 -0.0482
 5838TIP3    H217521   6.244   2.851   3.016 -0.1748 -0.5241 -0.0803
 5839TIP3   OH217522   2.464   3.391   1.982 -0.2801 -0.2388 -0.2811
 5839TIP3    H117523   2.480   3.309   2.029 -1.1428 -1.2988 -1.7477
 5839TIP3    H217524   2.467   3.366   1.890 -0.6235  1.3873 -0.7542
 5840TIP3   OH217525   5.507   0.466   1.994  0.2440  0.1785 -0.3909
 5840TIP3    H117526   5.533   0.419   1.915  1.3039 -0.0953  0.1021
 5840TIP3    H217527   5.536   0.556   1.980  0.7473  0.0519 -0.1728
 5841TIP3   OH217528   2.844   0.516   2.335 -0.1630  0.2966 -0.3693
 5841TIP3    H117529   2.798   0.600   2.340  1.5697  1.3309 -0.6423
 5841TIP3    H217530   2.777   0.450   2.352 -1.6920  1.7052 -0.6952
 5842TIP3   OH217531   5.191   5.295   2.669 -0.0914  0.4120  0.0368
 5842TIP3    H117532   5.215   5.218   2.720  3.4149  0.6484 -1.0297
 5842TIP3    H217533   5.127   5.263   2.605 -0.4335 -1.0513  1.0734
 5843TIP3   OH217534   2.593   0.280   1.820 -0.7999 -0.0521 -0.7549
 5843TIP3    H117535   2.636   0.243   1.897  0.4893  1.0724 -0.8882
 5843TIP3    H217536   2.505   0.242   1.821 -0.1663 -1.6129  0.1385
 5844TIP3   OH217537   1.024   3.511   4.976  0.0491  0.2540  0.4103
 5844TIP3    H117538   0.986   3.528   5.062 -1.4613 -1.2190  0.0817
 5844TIP3    H217539   0.959   3.544   4.914 -0.2121 -1.2329 -0.1553
 5845TIP3   OH217540   2.047   3.721   5.026  0.3593  0.0896  0.9752
 5845TIP3    H117541   2.062   3.789   5.092  1.6052 -0.5435  1.3750
 5845TIP3    H217542   2.108   3.651   5.050  2.9543  0.9422 -2.4645
 5846TIP3   OH217543   3.459   3.277   2.263  0.5354  0.3050  0.1883
 5846TIP3    H117544   3.523   3.343   2.235 -0.5856  1.7969  1.0020
 5846TIP3    H217545   3.427   3.310   2.347 -0.5903 -0.9354  0.2699
 5847TIP3   OH217546   0.127   0.398   1.140 -0.0481 -0.5509 -0.4232
 5847TIP3    H117547   0.125   0.303   1.128  1.4146 -0.6404 -0.1021
 5847TIP3    H217548   0.144   0.411   1.233 -0.8132  0.0469 -0.3546
 5848TIP3   OH217549   1.998   1.313   1.319 -0.2121  0.5131  0.0887
 5848TIP3    H117550   1.959   1.281   1.237 -0.3461  0.8972 -0.0004
 5848TIP3    H217551   2.088   1.336   1.294 -0.6066  1.7875 -0.2516
 5849TIP3   OH217552   4.163   5.362   0.916 -0.4344  0.7383 -0.1062
 5849TIP3    H117553   4.095   5.425   0.893 -0.0562  0.8071 -1.1019
 5849TIP3    H217554   4.133   5.279   0.878  0.0564  0.7827 -0.6016
 5850TIP3   OH217555   1.171   0.874   1.141  0.2744  0.1229 -0.2071
 5850TIP3    H117556   1.096   0.879   1.083 -1.1682 -1.9967  1.3206
 5850TIP3    H217557   1.152   0.938   1.210  0.0107 -0.1614 -0.0102
 5851TIP3   OH217558   5.852   1.056   2.078  0.0037  0.3492  0.4181
 5851TIP3    H117559   5.848   1.146   2.109  0.2124  1.0416 -1.4267
 5851TIP3    H217560   5.898   1.009   2.147  1.1080  1.9459  0.8346
 5852TIP3   OH217561   0.122   4.438   2.860  0.4662  0.6429 -0.4759
 5852TIP3    H117562   0.151   4.492   2.787  1.5312 -0.0092 -0.5568
 5852TIP3    H217563   0.172   4.357   2.851 -0.6414 -0.1159  0.0018
 5853TIP3   OH217564   5.106   0.794   0.326 -0.4713  0.2844  0.5869
 5853TIP3    H117565   5.143   0.761   0.245 -1.6591 -0.1522  0.2001
 5853TIP3    H217566   5.167   0.863   0.354 -0.6597  1.3087 -1.3301
 5854TIP3   OH217567   2.149   1.642   4.611 -0.7805  0.1974 -0.3484
 5854TIP3    H117568   2.149   1.707   4.541  1.9957  0.5718 -0.1449
 5854TIP3    H217569   2.059   1.639   4.642 -1.2456  3.1507 -1.1063
 5855TIP3   OH217570   2.778   4.484   1.808 -0.0507  1.0189 -0.1573
 5855TIP3    H117571   2.705   4.544   1.792  0.0239  1.2763  0.4589
 5855TIP3    H217572   2.826   4.482   1.725 -1.0838  0.3870 -0.7584
 5856TIP3   OH217573   5.222   4.557   4.237 -0.1185 -0.1280  0.2466
 5856TIP3    H117574   5.191   4.638   4.278  0.1273 -0.1834  0.5400
 5856TIP3    H217575   5.254   4.584   4.152 -0.7275 -0.0259  0.0435
 5857TIP3   OH217576   1.048   5.559   2.953  0.3522  0.0379 -0.0219
 5857TIP3    H117577   1.052   5.530   2.862  0.2534  2.7688 -1.0154
 5857TIP3    H217578   1.004   5.488   3.000 -1.4201 -0.6423 -2.4937
 5858TIP3   OH217579   3.582   4.582   4.697 -0.1990 -0.5480  0.3857
 5858TIP3    H117580   3.502   4.630   4.675  0.1308 -0.0135  0.3572
 5858TIP3    H217581   3.562   4.540   4.781 -0.1782  0.3752  0.8656
 5859TIP3   OH217582   1.849   5.328   3.180 -0.0220 -0.8522 -0.2077
 5859TIP3    H117583   1.920   5.304   3.240 -1.5442 -1.1364  1.5685
 5859TIP3    H217584   1.785   5.257   3.190 -0.3786 -0.8401 -2.1251
 5860TIP3   OH217585   5.866   5.898   2.604 -0.5599  0.1607 -0.0730
 5860TIP3    H117586   5.958   5.919   2.617 -0.4187 -1.4103  1.9144
 5860TIP3    H217587   5.821   5.983   2.606  0.7979  0.9384 -1.0294
 5861TIP3   OH217588   0.690   5.822   3.778 -0.4172 -0.5289 -0.1989
 5861TIP3    H117589   0.752   5.761   3.817  0.7343  0.6762 -0.0728
 5861TIP3    H217590   0.669   5.883   3.848  0.4807  0.7432 -0.9706
 5862TIP3   OH217591   2.897   2.882   2.321  0.0780  0.0955 -0.3854
 5862TIP3    H117592   2.860   2.934   2.393 -0.3664  0.4198 -0.8421
 5862TIP3    H217593   2.941   2.809   2.365 -1.2808 -0.4147  0.1845
 5863TIP3   OH217594   5.084   2.214   4.731 -0.4410 -0.8865 -0.6789
 5863TIP3    H117595   5.152   2.276   4.708  0.0178 -1.2878 -0.4186
 5863TIP3    H217596   5.105   2.135   4.681 -1.0528 -0.8194 -1.0568
 5864TIP3   OH217597   4.354   2.873   3.815  0.3856 -0.2661 -0.3177
 5864TIP3    H117598   4.436   2.823   3.818 -0.1952 -1.2653 -0.4857
 5864TIP3    H217599   4.313   2.856   3.900 -0.5674 -1.4241 -0.9742
 5865TIP3   OH217600   2.431   2.404   5.094  0.1884  0.2287  0.1441
 5865TIP3    H117601   2.371   2.331   5.082  0.3964  0.0157  0.3947
 5865TIP3    H217602   2.488   2.401   5.016 -0.1228  0.4321 -0.0938
 5866TIP3   OH217603   2.852   3.133   3.327  0.5281 -0.2259 -0.0292
 5866TIP3    H117604   2.895   3.117   3.242 -2.1816  1.5295 -1.9003
 5866TIP3    H217605   2.764   3.097   3.317  0.2925 -0.4190  2.2562
 5867TIP3   OH217606   4.225   2.827   2.792 -0.0249  0.7412  0.4815
 5867TIP3    H117607   4.149   2.774   2.769 -1.2361  3.0213 -1.0479
 5867TIP3    H217608   4.288   2.811   2.722 -0.0754  0.7424  0.4363
 5868TIP3   OH217609   3.673   1.806   3.577 -0.4331  0.4457 -0.2742
 5868TIP3    H117610   3.709   1.762   3.500 -3.4743 -0.5000 -1.3270
 5868TIP3    H217611   3.685   1.744   3.648 -1.8056 -0.7914 -1.0668
 5869TIP3   OH217612   5.489   0.865   2.126 -0.3625 -0.3682 -0.9068
 5869TIP3    H117613   5.395   0.850   2.112 -0.7189 -0.5367  1.3299
 5869TIP3    H217614   5.522   0.783   2.161  0.8731 -0.6293 -2.5914
 5870TIP3   OH217615   2.978   3.428   3.156  0.1463 -0.1735  0.2786
 5870TIP3    H117616   2.982   3.353   3.096 -1.6651  0.4811 -0.7676
 5870TIP3    H217617   3.048   3.485   3.127  0.1096 -0.4598 -0.4036
 5871TIP3   OH217618   6.166   3.010   0.411  0.5638  0.1763 -0.4619
 5871TIP3    H117619   6.171   3.011   0.315  0.1605  0.0004 -0.4855
 5871TIP3    H217620   6.229   2.943   0.438 -1.9944 -2.5482 -0.7826
 5872TIP3   OH217621   4.121   0.196   3.376 -0.5224  0.5181  0.3418
 5872TIP3    H117622   4.045   0.142   3.397  0.2280 -0.0650  1.6799
 5872TIP3    H217623   4.169   0.146   3.310  1.2313 -1.5522  2.9871
 5873TIP3   OH217624   3.592   4.126   2.491 -0.4247  0.6219  0.3672
 5873TIP3    H117625   3.618   4.037   2.517 -1.7955  0.0299 -0.2031
 5873TIP3    H217626   3.527   4.152   2.556 -0.9639  0.6905 -0.1881
 5874TIP3   OH217627   1.135   5.090   2.001  0.2985 -0.0791 -0.0157
 5874TIP3    H117628   1.203   5.046   1.949 -0.3264 -1.6587  0.4463
 5874TIP3    H217629   1.058   5.092   1.944 -0.0272 -0.7065  0.3867
 5875TIP3   OH217630   0.576   2.037   4.778  0.8153  0.3963  0.0316
 5875TIP3    H117631   0.597   2.087   4.858  0.9404  0.7726 -0.2335
 5875TIP3    H217632   0.627   2.079   4.709  0.4642  0.2723 -0.3086
 5876TIP3   OH217633   2.304   4.528   4.736 -0.3904 -0.2870 -0.6262
 5876TIP3    H117634   2.329   4.439   4.711 -2.6701 -1.1626 -0.0054
 5876TIP3    H217635   2.247   4.557   4.665 -2.9530 -0.9376  1.0373
 5877TIP3   OH217636   2.639   1.998   1.653  0.0821  0.0897  0.5902
 5877TIP3    H117637   2.590   2.049   1.716  1.4752 -0.0994  1.8823
 5877TIP3    H217638   2.630   2.046   1.570  0.0437  1.5553  1.4189
 5878TIP3   OH217639   5.059   5.738   0.733 -0.3000 -0.4678  0.0589
 5878TIP3    H117640   5.025   5.649   0.719 -2.9384  0.2717  1.0843
 5878TIP3    H217641   5.113   5.731   0.812 -0.4239 -1.1908  0.0866
 5879TIP3   OH217642   0.459   0.761   2.361  0.5169  0.1149  0.0839
 5879TIP3    H117643   0.538   0.730   2.404  0.1329 -1.4268 -0.2619
 5879TIP3    H217644   0.400   0.685   2.360 -0.9063  1.1619  0.1716
 5880TIP3   OH217645   2.065   0.797   4.843 -0.2843 -0.0424 -0.1061
 5880TIP3    H117646   2.068   0.713   4.797 -0.6346 -0.2477  0.2431
 5880TIP3    H217647   2.156   0.813   4.868 -0.3661 -0.8497  0.7656
 5881TIP3   OH217648   0.830   3.615   1.381 -0.4196 -0.0123 -0.0269
 5881TIP3    H117649   0.915   3.656   1.365 -0.8454  0.4351 -1.2513
 5881TIP3    H217650   0.784   3.677   1.437  0.1153 -0.3451  0.8027
 5882TIP3   OH217651   1.876   0.559   4.929 -0.4264  0.1374 -0.3858
 5882TIP3    H117652   1.933   0.518   4.864  0.2592  1.2023 -0.4699
 5882TIP3    H217653   1.868   0.494   4.998 -2.5719 -1.7725 -2.2420
 5883TIP3   OH217654   2.344   3.817   2.771  0.2726  0.3488 -0.0276
 5883TIP3    H117655   2.350   3.816   2.867  0.4799 -2.8518  0.0305
 5883TIP3    H217656   2.258   3.857   2.753 -0.3635 -0.2051  1.5756
 5884TIP3   OH217657   5.615   1.336   2.462 -0.2488 -0.1627  0.3783
 5884TIP3    H117658   5.586   1.417   2.421 -0.2342 -1.1613 -1.7404
 5884TIP3    H217659   5.655   1.364   2.544 -2.0372  1.7639  0.6864
 5885TIP3   OH217660   2.649   2.836   5.111 -0.2194  0.3219 -0.0212
 5885TIP3    H117661   2.698   2.755   5.095  0.8170  0.9056  0.1291
 5885TIP3    H217662   2.698   2.881   5.180 -1.2516  0.6966  0.4893
 5886TIP3   OH217663   3.491   2.111   4.181  0.0690 -0.2959  0.5580
 5886TIP3    H117664   3.557   2.161   4.132 -1.0293  0.2166 -0.4530
 5886TIP3    H217665   3.494   2.148   4.269 -0.4376  1.3354 -0.0596
 5887TIP3   OH217666   5.627   5.267   3.638  0.0911 -0.2946  0.2003
 5887TIP3    H117667   5.622   5.239   3.547 -0.1465 -0.6432  0.3188
 5887TIP3    H217668   5.661   5.356   3.634  1.5849 -0.8626 -0.1398
 5888TIP3   OH217669   4.400   4.136   1.412  0.4280  0.2351  0.3351
 5888TIP3    H117670   4.480   4.166   1.369 -1.1515  1.1222 -2.2196
 5888TIP3    H217671   4.431   4.083   1.486  3.3577 -0.1364 -0.9944
 5889TIP3   OH217672   1.375   0.655   2.586 -0.1262 -0.3330  0.5589
 5889TIP3    H117673   1.468   0.671   2.568  0.1861  0.5898  2.7533
 5889TIP3    H217674   1.329   0.704   2.518  0.9615 -0.4660 -0.3101
 5890TIP3   OH217675   3.155   2.850   1.141 -0.1517  0.4170 -0.6219
 5890TIP3    H117676   3.160   2.922   1.203  2.0583  1.1986 -1.5984
 5890TIP3    H217677   3.210   2.782   1.179 -0.2242  0.2053 -0.8932
 5891TIP3   OH217678   3.862   3.156   1.180 -0.5282 -0.4536  0.1041
 5891TIP3    H117679   3.874   3.223   1.248 -1.4592  0.9679 -1.0787
 5891TIP3    H217680   3.769   3.137   1.181 -0.6027 -0.2007 -0.9533
 5892TIP3   OH217681   0.642   5.246   0.656  0.3898  0.2652 -0.3361
 5892TIP3    H117682   0.570   5.234   0.718 -1.0126  0.8802 -1.7810
 5892TIP3    H217683   0.652   5.341   0.648  1.1060  0.1886 -0.4640
 5893TIP3   OH217684   2.757   5.866   1.284  0.4613 -0.7360 -0.0532
 5893TIP3    H117685   2.675   5.912   1.265  1.8016  1.4621 -0.9037
 5893TIP3    H217686   2.730   5.789   1.334 -2.1912 -0.5866 -1.0731
 5894TIP3   OH217687   0.810   2.841   2.832  0.1503  1.1358  0.0336
 5894TIP3    H117688   0.876   2.803   2.774  1.1536  0.7668  1.3709
 5894TIP3    H217689   0.742   2.872   2.773  0.6356 -0.1726 -1.2814
 5895TIP3   OH217690   4.835   5.013   2.395  0.0873 -0.1301  1.0135
 5895TIP3    H117691   4.749   5.054   2.385 -0.7787 -1.9816  0.3453
 5895TIP3    H217692   4.827   4.930   2.347  2.1475 -0.4900  1.2218
 5896TIP3   OH217693   2.099   0.883   2.690  0.2531 -1.2519  0.1618
 5896TIP3    H117694   2.186   0.872   2.652  0.3527 -1.1815  0.3663
 5896TIP3    H217695   2.046   0.918   2.618  1.1411  1.7223  0.7857
 5897TIP3   OH217696   0.980   0.830   4.216 -0.6636  0.1694  0.8921
 5897TIP3    H117697   0.986   0.773   4.139  0.0160 -0.2173  1.2194
 5897TIP3    H217698   1.067   0.869   4.223 -1.2250  1.5702  0.4470
 5898TIP3   OH217699   3.363   4.940   0.549  0.1515 -0.3028 -0.3606
 5898TIP3    H117700   3.369   4.860   0.601  2.6301 -0.6109 -1.0119
 5898TIP3    H217701   3.342   5.008   0.613  0.8326 -1.0375  0.6644
 5899TIP3   OH217702   3.642   3.635   3.624  0.3830 -0.7274 -0.1228
 5899TIP3    H117703   3.589   3.589   3.558  0.6753 -1.3842  0.0918
 5899TIP3    H217704   3.587   3.707   3.653  0.2722 -0.3959 -1.1308
 5900TIP3   OH217705   0.363   5.557   0.563 -0.1770  0.2849  0.0018
 5900TIP3    H117706   0.401   5.641   0.540  0.5836  0.0595  0.4074
 5900TIP3    H217707   0.334   5.520   0.479  1.5705 -0.0536 -0.5047
 5901TIP3   OH217708   4.006   5.763   5.137  0.3875  0.3924 -0.9708
 5901TIP3    H117709   3.917   5.789   5.112  1.0450  1.6778 -2.1203
 5901TIP3    H217710   4.023   5.812   5.218 -0.3526 -0.8004 -0.0520
 5902TIP3   OH217711   5.438   0.087   1.598 -0.0208  0.5328  0.0211
 5902TIP3    H117712   5.399   0.024   1.659  1.5905  1.4706  2.1724
 5902TIP3    H217713   5.530   0.092   1.625  0.6048  1.5505 -2.0773
 5903TIP3   OH217714   4.305   2.453   3.356 -0.4951 -0.0887  0.4815
 5903TIP3    H117715   4.335   2.504   3.432  0.6012 -0.9056  0.6206
 5903TIP3    H217716   4.325   2.508   3.281 -2.3869  1.1194  0.7750
 5904TIP3   OH217717   1.586   4.059   4.864  0.5471 -0.3281  0.2407
 5904TIP3    H117718   1.509   4.100   4.904 -1.3428 -1.2171 -2.1736
 5904TIP3    H217719   1.560   3.967   4.853  1.9213 -0.6215 -0.7281
 5905TIP3   OH217720   1.249   2.640   4.383 -0.2907  0.4383  0.0888
 5905TIP3    H117721   1.212   2.685   4.308  1.5993  2.9875  0.5419
 5905TIP3    H217722   1.192   2.662   4.456 -0.8371 -0.1411 -0.1519
 5906TIP3   OH217723   0.496   3.944   1.991  0.0603  0.4385  0.2578
 5906TIP3    H117724   0.542   3.868   1.958  0.2708  0.3655  0.7041
 5906TIP3    H217725   0.436   3.969   1.921 -1.7425 -1.5625  0.9879
 5907TIP3   OH217726   0.153   1.011   4.625  0.0068  0.3363  0.0135
 5907TIP3    H117727   0.161   0.948   4.553 -1.5480 -1.2190  1.1214
 5907TIP3    H217728   0.239   1.054   4.629  1.3583 -2.1212 -0.4470
 5908TIP3   OH217729   5.446   3.916   1.624 -0.2916  0.4924 -0.3952
 5908TIP3    H117730   5.490   3.845   1.671 -0.4817  0.1020 -0.8026
 5908TIP3    H217731   5.437   3.884   1.534 -3.9681 -0.6859  0.2078
 5909TIP3   OH217732   4.908   4.510   4.847  0.3156  0.6387 -0.0485
 5909TIP3    H117733   4.904   4.595   4.803  1.2235  0.8418  0.2188
 5909TIP3    H217734   4.887   4.530   4.939  0.9115  0.6488  0.0909
 5910TIP3   OH217735   1.579   2.600   4.702  0.0424  0.3162  0.4639
 5910TIP3    H117736   1.650   2.573   4.643 -0.3091  0.6891 -0.1353
 5910TIP3    H217737   1.517   2.527   4.700 -0.2364  0.5686 -0.0617
 5911TIP3   OH217738   5.778   3.059   1.991 -0.2423  0.3302  0.1060
 5911TIP3    H117739   5.840   3.070   2.063  1.0705  0.4007 -0.9864
 5911TIP3    H217740   5.725   2.983   2.016  0.7307 -0.1482  0.7778
 5912TIP3   OH217741   5.246   3.698   0.293  0.6326  0.0290 -0.7745
 5912TIP3    H117742   5.168   3.645   0.275  0.6302 -0.3717  0.3335
 5912TIP3    H217743   5.213   3.785   0.312  0.2270 -0.6067  1.7617
 5913TIP3   OH217744   2.304   3.065   4.506 -0.3130  0.6461 -0.2271
 5913TIP3    H117745   2.252   2.986   4.521 -0.4651  0.7105 -0.4127
 5913TIP3    H217746   2.393   3.033   4.493  0.1999  0.6788  2.5248
 5914TIP3   OH217747   1.970   2.889   2.050  0.1623  0.1677 -0.3555
 5914TIP3    H117748   2.016   2.892   1.966 -0.6718 -2.3791 -0.9918
 5914TIP3    H217749   2.034   2.853   2.111 -0.3462 -1.7146 -0.8520
 5915TIP3   OH217750   0.461   0.530   3.211 -0.0631 -0.4208  0.4441
 5915TIP3    H117751   0.485   0.459   3.271  0.8895  0.2002  0.8119
 5915TIP3    H217752   0.484   0.497   3.125 -0.2524 -0.8153  0.5388
 5916TIP3   OH217753   2.475   0.640   2.316 -0.0743 -0.4614 -0.4636
 5916TIP3    H117754   2.420   0.694   2.258 -0.2608 -1.1253 -0.9265
 5916TIP3    H217755   2.545   0.698   2.344 -0.3244  0.0482 -0.8725
 5917TIP3   OH217756   5.953   0.587   3.318 -0.8746  0.2344 -0.1884
 5917TIP3    H117757   5.973   0.526   3.246  0.2042  0.5635 -0.1781
 5917TIP3    H217758   6.031   0.642   3.325 -0.6804 -0.2192  1.6746
 5918TIP3   OH217759   5.550   5.891   1.861 -0.9381 -0.5873 -0.5690
 5918TIP3    H117760   5.475   5.905   1.803 -1.6275 -1.7818  0.0159
 5918TIP3    H217761   5.590   5.810   1.829  0.2088  0.1119 -0.9673
 5919TIP3   OH217762   2.712   0.424   2.828 -0.3177 -0.3544  0.0657
 5919TIP3    H117763   2.658   0.427   2.907 -0.5727 -0.5608 -0.0969
 5919TIP3    H217764   2.802   0.426   2.860 -0.2588 -4.3669  0.6698
 5920TIP3   OH217765   2.341   3.252   0.817  0.1519 -0.1294 -0.5016
 5920TIP3    H117766   2.334   3.218   0.728 -0.1477  1.0779 -0.9611
 5920TIP3    H217767   2.320   3.178   0.874 -0.3317 -0.7318 -1.4530
 5921TIP3   OH217768   5.351   3.904   3.334  0.6377 -0.5428 -0.5537
 5921TIP3    H117769   5.445   3.922   3.334  0.6372 -0.5341 -0.2481
 5921TIP3    H217770   5.344   3.819   3.376  0.4520 -0.2474  0.0108
 5922TIP3   OH217771   0.520   0.598   2.050 -0.0824  0.2529 -0.0948
 5922TIP3    H117772   0.487   0.509   2.063 -0.4398  0.1630 -1.4620
 5922TIP3    H217773   0.442   0.653   2.056 -0.0633  0.3297 -0.4972
 5923TIP3   OH217774   1.377   0.786   5.124 -0.5268  0.3516 -0.6460
 5923TIP3    H117775   1.303   0.733   5.097 -0.1484 -1.2589  1.2381
 5923TIP3    H217776   1.454   0.733   5.104  0.2755  2.3116 -3.2917
 5924TIP3   OH217777   3.251   2.050   3.669  0.2233 -0.2612 -0.3036
 5924TIP3    H117778   3.289   2.087   3.748 -0.7485 -0.0430  0.0772
 5924TIP3    H217779   3.282   1.959   3.667  2.6368  0.5122 -1.2497
 5925TIP3   OH217780   0.465   0.980   4.334 -0.6327  0.1539  0.4293
 5925TIP3    H117781   0.489   0.925   4.409 -2.2403 -1.6039 -0.2353
 5925TIP3    H217782   0.546   1.023   4.308  0.9104 -2.3997  0.6433
 5926TIP3   OH217783   4.208   5.242   0.254 -0.3507  0.8818  0.4478
 5926TIP3    H117784   4.233   5.188   0.329  1.2572  1.8121  0.6178
 5926TIP3    H217785   4.129   5.289   0.283 -1.5501 -1.0163  0.4265
 5927TIP3   OH217786   6.198   3.477   4.607 -0.2741 -0.4702  0.0666
 5927TIP3    H117787   6.220   3.476   4.514 -0.0511 -1.1415  0.1205
 5927TIP3    H217788   6.118   3.529   4.613  0.4294  0.6884 -0.3318
 5928TIP3   OH217789   2.483   2.451   0.693  0.4495 -0.6295  0.1455
 5928TIP3    H117790   2.453   2.380   0.750  2.5194 -1.2067  0.6239
 5928TIP3    H217791   2.524   2.406   0.619  1.5761  0.0377  0.3347
 5929TIP3   OH217792   3.822   3.176   2.146 -0.3344  0.0367 -0.2238
 5929TIP3    H117793   3.767   3.254   2.137  0.2863  0.3033 -1.8640
 5929TIP3    H217794   3.898   3.192   2.091  0.0121 -1.5579 -0.2649
 5930TIP3   OH217795   1.077   4.319   1.865 -0.0522 -0.1252  0.0258
 5930TIP3    H117796   1.029   4.238   1.878 -0.9296  0.4634  0.5120
 5930TIP3    H217797   1.066   4.338   1.771  0.5338 -0.7842 -0.1895
 5931TIP3   OH217798   5.672   1.234   3.934  0.1650 -0.8660  0.2590
 5931TIP3    H117799   5.740   1.209   3.872  0.0926  0.2157 -0.2835
 5931TIP3    H217800   5.680   1.170   4.005  2.2849 -0.3233  0.5983
 5932TIP3   OH217801   4.261   3.705   3.630  0.1189 -0.6525 -0.1345
 5932TIP3    H117802   4.335   3.707   3.691  0.8743  0.7486 -1.0525
 5932TIP3    H217803   4.296   3.669   3.549 -0.0890  0.3583 -0.6953
 5933TIP3   OH217804   0.371   1.459   3.957 -0.5954  0.3004 -0.3279
 5933TIP3    H117805   0.385   1.365   3.963  0.0359  0.3899 -0.3527
 5933TIP3    H217806   0.456   1.498   3.978 -0.9550  0.8759  0.0875
 5934TIP3   OH217807   2.770   1.521   1.885  0.2906 -0.5726 -0.1276
 5934TIP3    H117808   2.770   1.609   1.846 -0.5083 -0.9208 -0.9548
 5934TIP3    H217809   2.710   1.471   1.830 -0.9623 -1.0733  1.6369
 5935TIP3   OH217810   2.039   4.879   3.919 -0.2697 -0.0285  0.3797
 5935TIP3    H117811   2.089   4.822   3.862 -1.2371 -1.0758  0.5450
 5935TIP3    H217812   2.050   4.967   3.882 -1.1436 -0.7113 -1.6387
 5936TIP3   OH217813   0.529   2.339   0.185 -0.2603 -0.2309  0.0296
 5936TIP3    H117814   0.454   2.298   0.228  0.1033 -0.0884  0.8026
 5936TIP3    H217815   0.568   2.268   0.134 -1.9819  0.1070 -1.9028
 5937TIP3   OH217816   1.516   2.007   1.335  0.8766 -0.1952  0.5144
 5937TIP3    H117817   1.578   2.078   1.350 -0.3893  0.4211  3.4645
 5937TIP3    H217818   1.430   2.049   1.338  0.1794 -1.3716 -1.2941
 5938TIP3   OH217819   3.537   2.348   1.787 -0.2676 -0.5268  0.0845
 5938TIP3    H117820   3.506   2.257   1.788  0.0829 -0.6441  0.4733
 5938TIP3    H217821   3.527   2.376   1.696  1.7074 -1.6800 -0.5406
 5939TIP3   OH217822   0.561   2.490   0.428 -0.1825  0.2237 -0.5260
 5939TIP3    H117823   0.539   2.427   0.360 -1.5081 -0.3187  0.3624
 5939TIP3    H217824   0.490   2.482   0.493 -0.9905  3.3048 -0.8495
 5940TIP3   OH217825   3.693   1.961   3.853  0.2263 -0.2211  0.0783
 5940TIP3    H117826   3.717   1.890   3.793  2.7262 -0.8370  1.6676
 5940TIP3    H217827   3.608   1.935   3.889  0.3062 -1.5412 -0.6353
 5941TIP3   OH217828   5.944   5.362   4.800  0.0230 -0.2106  0.1396
 5941TIP3    H117829   6.007   5.375   4.730 -0.5583  3.8404  0.1081
 5941TIP3    H217830   5.859   5.375   4.759 -0.4107  0.7077  1.2560
 5942TIP3   OH217831   5.354   2.400   2.331 -0.0721  0.1090 -0.0467
 5942TIP3    H117832   5.395   2.321   2.367 -0.0980 -0.1577 -0.5878
 5942TIP3    H217833   5.370   2.468   2.397 -1.5469 -0.7418  1.2618
 5943TIP3   OH217834   4.733   5.692   3.197  0.1622 -0.7668 -0.2783
 5943TIP3    H117835   4.639   5.711   3.192  0.5166  1.2751  0.0291
 5943TIP3    H217836   4.760   5.683   3.106  0.2592  2.1201 -0.6133
 5944TIP3   OH217837   0.493   0.300   3.371 -0.1524  0.0020  0.3810
 5944TIP3    H117838   0.489   0.205   3.381 -1.4357  0.0815  0.8838
 5944TIP3    H217839   0.511   0.333   3.459  1.0439  0.2083  0.0750
 5945TIP3   OH217840   0.208   4.605   2.019 -0.0841  0.1900 -0.3589
 5945TIP3    H117841   0.128   4.655   2.030 -1.0090 -1.0971 -0.9204
 5945TIP3    H217842   0.251   4.643   1.943 -0.4331  0.5351 -0.3848
 5946TIP3   OH217843   3.288   2.879   0.524 -0.2145 -0.2876  0.3297
 5946TIP3    H117844   3.303   2.971   0.546  0.5018  0.1638 -1.8493
 5946TIP3    H217845   3.283   2.835   0.609 -2.3816  1.9964  1.5051
 5947TIP3   OH217846   2.450   3.184   4.235  0.2074  0.2088 -0.3715
 5947TIP3    H117847   2.424   3.145   4.152  0.8494 -2.6969  0.6650
 5947TIP3    H217848   2.377   3.166   4.294 -0.6011  2.9633 -0.4187
 5948TIP3   OH217849   3.062   1.532   0.555  0.9639 -0.1037  0.1321
 5948TIP3    H117850   3.127   1.601   0.567  1.2136 -0.4879  1.0528
 5948TIP3    H217851   3.075   1.474   0.630 -0.3973 -0.2249  0.2882
 5949TIP3   OH217852   3.883   3.798   0.664  0.7761 -0.7461 -0.4623
 5949TIP3    H117853   3.938   3.875   0.680 -2.1471  2.2699 -3.3051
 5949TIP3    H217854   3.943   3.735   0.624  2.6726  1.5682 -1.6180
 5950TIP3   OH217855   0.956   1.066   0.543  0.0837  1.1449  0.3096
 5950TIP3    H117856   0.935   1.005   0.472  1.0134 -0.4244  1.3230
 5950TIP3    H217857   0.876   1.118   0.554 -0.2445  1.1188 -1.5411
 5951TIP3   OH217858   0.510   2.543   2.309  0.1568  0.0665 -0.0273
 5951TIP3    H117859   0.594   2.574   2.343  0.2713 -0.7717  0.4886
 5951TIP3    H217860   0.514   2.561   2.215  0.6903  0.5237  0.0782
 5952TIP3   OH217861   1.600   4.240   2.617 -0.5330  0.0818 -0.2614
 5952TIP3    H117862   1.640   4.196   2.542 -0.0464  0.0011  0.0440
 5952TIP3    H217863   1.555   4.171   2.665  2.2589 -0.6162  1.5823
 5953TIP3   OH217864   4.109   0.867   4.260 -0.7639  0.0338  0.4053
 5953TIP3    H117865   4.037   0.928   4.271  0.5000  2.1197 -1.8504
 5953TIP3    H217866   4.188   0.920   4.268  0.3848 -0.6801 -3.6507
 5954TIP3   OH217867   3.527   2.980   4.859  0.0889  0.5062 -0.1515
 5954TIP3    H117868   3.531   3.071   4.833 -0.1663  0.6758  0.3705
 5954TIP3    H217869   3.589   2.972   4.932 -0.6453  0.5191  0.4952
 5955TIP3   OH217870   2.423   3.418   2.783 -0.7868  0.2578  0.2015
 5955TIP3    H117871   2.424   3.468   2.701 -0.5197  0.7751  0.5122
 5955TIP3    H217872   2.393   3.331   2.757  0.1831  0.1361 -0.6138
 5956TIP3   OH217873   4.085   0.601   2.995  0.0961 -0.4780  0.4457
 5956TIP3    H117874   4.060   0.673   3.053 -1.1603 -1.0205  0.6215
 5956TIP3    H217875   4.110   0.530   3.055 -2.0856 -1.3490  0.4030
 5957TIP3   OH217876   5.008   0.866   1.696  0.0196 -0.2927 -0.1940
 5957TIP3    H117877   5.029   0.774   1.682  1.8350  0.0418  0.1190
 5957TIP3    H217878   4.927   0.880   1.646 -0.6254 -2.1755  0.2619
 5958TIP3   OH217879   4.168   1.972   4.871  0.2996  0.6747 -0.6092
 5958TIP3    H117880   4.248   1.927   4.845  1.3863  2.1952 -0.0541
 5958TIP3    H217881   4.171   1.974   4.967 -0.6591  0.3117 -0.5595
 5959TIP3   OH217882   5.556   2.352   2.559 -0.4187  0.0873 -0.2757
 5959TIP3    H117883   5.512   2.434   2.539  0.3247  0.9181  1.2976
 5959TIP3    H217884   5.578   2.358   2.652  0.1595 -1.6623 -0.2480
 5960TIP3   OH217885   4.296   1.540   3.541  1.1575  0.1641  0.6000
 5960TIP3    H117886   4.264   1.481   3.473  2.3547 -1.5120  1.4053
 5960TIP3    H217887   4.226   1.603   3.553 -0.1073 -0.9687 -0.4801
 5961TIP3   OH217888   5.583   2.606   3.701 -0.3535 -0.3847  0.1943
 5961TIP3    H117889   5.562   2.698   3.712 -0.8941 -0.7447  3.1263
 5961TIP3    H217890   5.498   2.562   3.698 -0.1392 -0.9992  1.9478
 5962TIP3   OH217891   0.696   1.662   0.751  0.3446  0.4770  0.2931
 5962TIP3    H117892   0.723   1.628   0.666  1.5024  0.9647  0.4404
 5962TIP3    H217893   0.757   1.620   0.813 -1.2210 -0.7871  1.0482
 5963TIP3   OH217894   5.409   4.856   3.952  0.1275  0.0486 -0.0830
 5963TIP3    H117895   5.489   4.907   3.968  0.5033 -0.2772 -0.8840
 5963TIP3    H217896   5.341   4.903   4.001  0.5593  1.0446 -0.4102
 5964TIP3   OH217897   6.210   0.445   1.484 -0.2559  0.2151 -0.2222
 5964TIP3    H117898   6.228   0.525   1.434 -1.5289  1.1001  0.6570
 5964TIP3    H217899   6.121   0.421   1.459 -0.1614 -0.4924  0.0991
 5965TIP3   OH217900   1.686   1.805   2.386 -0.3104 -0.2514  0.5625
 5965TIP3    H117901   1.717   1.888   2.351 -0.0906 -0.2708  0.7061
 5965TIP3    H217902   1.630   1.829   2.460 -0.4821 -0.2227  0.4243
 5966TIP3   OH217903   3.549   1.092   2.143 -0.5964 -0.6779 -0.0861
 5966TIP3    H117904   3.475   1.083   2.202  0.0659 -0.0657  0.8661
 5966TIP3    H217905   3.625   1.098   2.200 -0.0163  0.7400 -0.9505
 5967TIP3   OH217906   4.967   1.497   0.638  0.2191 -0.3542  0.6941
 5967TIP3    H117907   5.049   1.520   0.595  1.0120 -0.8861  1.8692
 5967TIP3    H217908   4.904   1.490   0.566  0.9924  0.8890 -0.1434
 5968TIP3   OH217909   2.226   2.765   2.681  0.4460 -0.2480  0.3294
 5968TIP3    H117910   2.212   2.826   2.608 -2.2568 -0.6952  0.3655
 5968TIP3    H217911   2.245   2.821   2.756  1.7088  0.2970 -0.3641
 5969TIP3   OH217912   3.162   4.882   3.343  0.4545  0.2748  0.4962
 5969TIP3    H117913   3.088   4.941   3.332  0.0064 -0.2918  0.4175
 5969TIP3    H217914   3.123   4.801   3.375  1.1631  0.2965  1.4511
 5970TIP3   OH217915   5.088   0.805   4.136  0.9363 -0.0777 -0.3021
 5970TIP3    H117916   5.122   0.819   4.048 -1.1542  3.1760 -0.7682
 5970TIP3    H217917   4.993   0.804   4.126  0.6201  0.8827  1.9534
 5971TIP3   OH217918   3.048   5.700   0.367  0.4708  0.4760  0.6044
 5971TIP3    H117919   3.134   5.666   0.390  0.4609  0.2816  0.3439
 5971TIP3    H217920   3.015   5.642   0.299 -0.9662 -1.0395  2.4655
 5972TIP3   OH217921   5.246   0.048   4.981 -0.2270 -0.1899 -0.0121
 5972TIP3    H117922   5.248  -0.029   5.038  0.5768 -0.2278 -0.0854
 5972TIP3    H217923   5.315   0.032   4.917 -0.9949 -0.0690 -0.9026
 5973TIP3   OH217924   4.648   3.409   4.403 -0.1897  0.4051 -0.4029
 5973TIP3    H117925   4.607   3.461   4.472  1.2585 -1.6084  2.1807
 5973TIP3    H217926   4.665   3.324   4.444 -0.1338 -1.2662 -3.6037
 5974TIP3   OH217927   3.215   4.641   0.071 -0.3374 -0.5562 -0.2475
 5974TIP3    H117928   3.212   4.547   0.091  2.1839 -1.0027 -1.5264
 5974TIP3    H217929   3.150   4.653   0.002 -0.6530 -1.3686 -0.1042
 5975TIP3   OH217930   0.975   3.313   3.274  0.4079 -0.1583  0.2447
 5975TIP3    H117931   0.988   3.406   3.255  0.0913  0.2188  1.7637
 5975TIP3    H217932   1.040   3.269   3.220 -0.0477  0.8580 -1.2146
 5976TIP3   OH217933   6.019   4.308   3.107 -0.1415  0.1702 -0.2330
 5976TIP3    H117934   5.938   4.345   3.073  0.9412  1.9463 -1.0388
 5976TIP3    H217935   6.051   4.251   3.037 -0.2345  0.1840 -0.2864
 5977TIP3   OH217936   5.752   2.960   0.706  0.0807  0.5957 -0.0808
 5977TIP3    H117937   5.679   2.968   0.644 -1.9754 -2.2302  1.6906
 5977TIP3    H217938   5.776   3.050   0.726  0.2126  1.6621 -4.1059
 5978TIP3   OH217939   4.996   3.549   2.454 -0.5536 -0.1342 -0.3356
 5978TIP3    H117940   4.912   3.534   2.411  0.2192  0.6132 -2.1919
 5978TIP3    H217941   5.019   3.639   2.431  0.2621  0.0422  1.0483
 5979TIP3   OH217942   4.074   0.149   0.873  0.1268  0.7477 -0.4381
 5979TIP3    H117943   4.099   0.237   0.844  0.8328  1.2351  1.5207
 5979TIP3    H217944   4.154   0.112   0.910 -0.5056 -0.1816  0.0528
 5980TIP3   OH217945   0.917   4.061   3.258 -0.1675  0.3828 -0.2251
 5980TIP3    H117946   0.862   4.001   3.308  1.2360 -0.6144  0.1977
 5980TIP3    H217947   0.867   4.079   3.178 -1.5076  0.3113  0.5693
 5981TIP3   OH217948   4.022   0.920   1.571  0.0823  0.2828 -0.3396
 5981TIP3    H117949   3.994   0.945   1.659  1.4615 -0.3238  0.2951
 5981TIP3    H217950   4.117   0.926   1.573  0.1485  0.0869 -1.7456
 5982TIP3   OH217951   0.267   2.211   3.336  0.2579 -0.3070  0.3964
 5982TIP3    H117952   0.260   2.203   3.431 -1.6417  1.3887  0.4764
 5982TIP3    H217953   0.329   2.283   3.323  0.2280 -0.2871  0.3639
 5983TIP3   OH217954   3.872   2.203   4.613  0.3201  0.4656  0.2261
 5983TIP3    H117955   3.957   2.172   4.644 -1.0467 -2.3400  1.4953
 5983TIP3    H217956   3.882   2.207   4.518  1.1526 -2.6266  0.0642
 5984TIP3   OH217957   1.284   0.615   4.784 -0.8729 -0.3076  0.2631
 5984TIP3    H117958   1.360   0.659   4.823 -2.0121  1.3195  0.7522
 5984TIP3    H217959   1.322   0.549   4.726  0.9032  0.3176  0.6448
 5985TIP3   OH217960   3.078   1.461   4.091 -0.3088  0.2134 -0.2680
 5985TIP3    H117961   3.056   1.547   4.127 -0.4361  0.1118 -0.1040
 5985TIP3    H217962   3.005   1.405   4.116 -0.4414  0.1646 -0.7642
 5986TIP3   OH217963   5.936   1.139   4.958 -0.6927  0.2117  0.0553
 5986TIP3    H117964   5.889   1.188   4.891 -2.5757  0.3400  1.3921
 5986TIP3    H217965   5.967   1.061   4.913 -0.1658  1.2291 -1.4174
 5987TIP3   OH217966   5.887   1.973   0.803 -0.4018 -0.9256  0.2777
 5987TIP3    H117967   5.897   1.931   0.717  1.4952 -0.7670  0.3789
 5987TIP3    H217968   5.866   2.064   0.783 -0.7709 -1.0652  0.0104
 5988TIP3   OH217969   4.946   3.958   4.132 -0.2173 -0.1157  0.4602
 5988TIP3    H117970   4.883   3.991   4.069 -0.4820  0.1961  0.8838
 5988TIP3    H217971   4.950   4.025   4.200 -1.1712 -1.1748  1.6051
 5989TIP3   OH217972   1.972   2.670   1.065  0.0231 -0.4719  0.0988
 5989TIP3    H117973   1.956   2.689   1.158 -0.4536  2.6296 -0.4991
 5989TIP3    H217974   2.035   2.598   1.066 -0.2619 -0.7981  2.8128
 5990TIP3   OH217975   0.216   2.830   4.690  0.6379  0.0084 -0.1094
 5990TIP3    H117976   0.230   2.772   4.766  0.8896  2.2101  1.6378
 5990TIP3    H217977   0.249   2.915   4.719 -1.4346  1.5130 -1.8530
 5991TIP3   OH217978   2.960   4.791   0.845  0.7038  0.2751 -0.3039
 5991TIP3    H117979   2.909   4.793   0.926  0.8300  0.5082 -0.2289
 5991TIP3    H217980   3.047   4.761   0.873  0.9880  1.1697 -0.2160
 5992TIP3   OH217981   6.248   1.774   4.614  0.0592 -0.2416 -0.2947
 5992TIP3    H117982   6.230   1.697   4.560 -1.6962 -0.1817  0.1583
 5992TIP3    H217983   6.272   1.738   4.699 -0.1323 -0.3021 -0.2653
 5993TIP3   OH217984   2.211   0.253   0.350  0.0591  0.2251  0.7806
 5993TIP3    H117985   2.223   0.321   0.284  0.6745 -1.4957 -0.9832
 5993TIP3    H217986   2.152   0.292   0.415 -1.2129  1.7377 -1.1772
 5994TIP3   OH217987   4.151   4.764   3.998  0.7115 -0.3706 -0.0721
 5994TIP3    H117988   4.225   4.792   3.944  0.9641  0.0106  0.4582
 5994TIP3    H217989   4.161   4.669   4.007 -0.0687 -0.6528 -1.7724
 5995TIP3   OH217990   5.707   1.071   4.478  0.6665 -0.0289 -0.0136
 5995TIP3    H117991   5.664   1.053   4.561 -1.1140 -1.5796 -1.1893
 5995TIP3    H217992   5.772   1.002   4.468  2.5118  1.4516  1.0589
 5996TIP3   OH217993   2.577   5.964   3.545 -0.7872  0.3433 -0.4136
 5996TIP3    H117994   2.565   5.879   3.503 -0.1300  0.0412 -0.0091
 5996TIP3    H217995   2.543   6.028   3.482 -0.5155 -0.1579 -1.0768
 5997TIP3   OH217996   0.381   2.470   3.271 -0.5464 -0.2489 -0.1673
 5997TIP3    H117997   0.309   2.500   3.215  0.2984  1.2555 -0.4927
 5997TIP3    H217998   0.458   2.519   3.240  0.5365 -1.4718  0.4696
 5998TIP3   OH217999   5.429   2.516   2.093 -0.0136  0.7264 -0.0832
 5998TIP3    H118000   5.508   2.564   2.118 -0.6780  2.0390 -0.3860
 5998TIP3    H218001   5.401   2.471   2.173  0.3136  1.3241  0.3702
 5999TIP3   OH218002   2.082   5.750   2.363 -0.4069 -0.6342  0.3857
 5999TIP3    H118003   1.989   5.742   2.383 -0.1134 -1.1703  1.5968
 5999TIP3    H218004   2.126   5.710   2.437  0.7744 -1.6623 -0.8199
 6000TIP3   OH218005   1.716   0.479   4.129 -0.4899 -0.4255 -0.2041
 6000TIP3    H118006   1.733   0.494   4.036 -0.9930 -0.1119 -0.2438
 6000TIP3    H218007   1.796   0.510   4.172 -0.4756 -0.0590 -0.4862
 6001TIP3   OH218008   1.787   3.894   3.180 -0.2395  0.2101  0.4442
 6001TIP3    H118009   1.782   3.917   3.087  3.0520  0.9165  0.3151
 6001TIP3    H218010   1.768   3.976   3.225 -0.6205  0.1616  0.3778
 6002TIP3   OH218011   0.899   5.213   0.799 -0.5886  0.0841 -0.5114
 6002TIP3    H118012   0.830   5.184   0.739 -2.0417  0.7992  0.7547
 6002TIP3    H218013   0.931   5.132   0.839 -1.6149 -0.1581 -0.1597
 6003TIP3   OH218014   4.888   3.390   0.686 -0.2470 -0.2345 -0.5827
 6003TIP3    H118015   4.944   3.318   0.655  0.4652 -0.7702  1.7296
 6003TIP3    H218016   4.949   3.462   0.702  0.0206 -1.0084  2.5190
 6004TIP3   OH218017   1.206   0.882   0.778  0.4323 -0.6276 -0.1949
 6004TIP3    H118018   1.272   0.813   0.769 -0.3829 -1.4523 -0.0277
 6004TIP3    H218019   1.142   0.846   0.839 -0.2547  0.0890 -0.4700
 6005TIP3   OH218020   1.501   1.263   3.222  0.3281 -0.1725  0.1721
 6005TIP3    H118021   1.482   1.279   3.314  0.4880 -2.4826  0.6601
 6005TIP3    H218022   1.421   1.289   3.175 -0.0060  0.3397  1.0085
 6006TIP3   OH218023   5.214   3.047   4.735  0.2918  0.1155  0.2491
 6006TIP3    H118024   5.269   2.990   4.682 -0.6587 -0.1288 -0.5010
 6006TIP3    H218025   5.150   2.988   4.775  0.5518  0.3947  1.0960
 6007TIP3   OH218026   5.210   0.361   4.039  0.5640 -1.0479  0.5735
 6007TIP3    H118027   5.167   0.401   4.115  1.0325 -1.0660  0.8566
 6007TIP3    H218028   5.275   0.426   4.011 -1.1802 -0.0135 -1.2932
 6008TIP3   OH218029   6.329   2.808   0.465  0.2182  0.5028 -0.6429
 6008TIP3    H118030   6.349   2.734   0.523  0.3206  1.3351  0.4078
 6008TIP3    H218031   6.319   2.768   0.379  2.8531 -0.4334 -0.5940
 6009TIP3   OH218032   6.038   5.624   1.378 -0.2790 -0.0186 -0.0900
 6009TIP3    H118033   6.025   5.535   1.409 -1.7625  0.5700  1.1269
 6009TIP3    H218034   6.131   5.641   1.390 -0.1114 -1.1720  0.3102
 6010TIP3   OH218035   4.704   0.697   0.492  0.3751 -0.2871  0.8194
 6010TIP3    H118036   4.634   0.673   0.431  0.7387 -1.7129  0.9435
 6010TIP3    H218037   4.740   0.778   0.455 -0.1217 -0.5389 -0.2657
 6011TIP3   OH218038   0.873   5.836   2.211 -0.0554 -0.0647  0.2854
 6011TIP3    H118039   0.901   5.909   2.156 -1.2758 -0.7672 -1.3572
 6011TIP3    H218040   0.849   5.876   2.294 -0.7975  1.4154 -0.6085
 6012TIP3   OH218041   3.106   4.182   2.182 -0.0318  0.0263 -0.2567
 6012TIP3    H118042   3.166   4.183   2.107 -0.4580 -1.0721 -0.6264
 6012TIP3    H218043   3.041   4.250   2.161  1.0685  1.2514  0.1642
 6013TIP3   OH218044   4.177   1.438   4.956  0.4492  0.2231 -0.2197
 6013TIP3    H118045   4.227   1.379   5.012  0.6721 -0.4928 -1.1615
 6013TIP3    H218046   4.086   1.429   4.986  0.9318  2.4800  2.3705
 6014TIP3   OH218047   6.262   4.118   1.006  0.4621  0.0556  0.0706
 6014TIP3    H118048   6.177   4.075   0.996  0.1838  0.7178 -0.4799
 6014TIP3    H218049   6.311   4.061   1.066  0.2372 -1.2385 -0.9172
 6015TIP3   OH218050   4.789   4.001   1.083  0.1053  0.0416  1.1787
 6015TIP3    H118051   4.867   4.053   1.067 -0.6813  0.6759 -1.1502
 6015TIP3    H218052   4.741   4.049   1.150 -0.5387  2.4104 -0.7998
 6016TIP3   OH218053   5.902   3.510   3.338  0.2028  0.8124  0.6344
 6016TIP3    H118054   5.821   3.471   3.303  1.0517  1.7211 -2.6760
 6016TIP3    H218055   5.958   3.435   3.357 -0.2654  0.2597 -0.1158
 6017TIP3   OH218056   3.771   5.485   1.060 -0.2380 -0.2710  0.1656
 6017TIP3    H118057   3.727   5.475   1.144  0.7222 -4.1512  0.3853
 6017TIP3    H218058   3.700   5.500   0.997 -1.1504  0.5911  1.3467
 6018TIP3   OH218059   0.632   2.612   4.401 -0.6765  0.5689 -0.4581
 6018TIP3    H118060   0.659   2.535   4.452 -0.8169  1.4468  0.9880
 6018TIP3    H218061   0.566   2.656   4.455 -1.1081  1.3502 -1.5676
 6019TIP3   OH218062   0.664   2.943   4.998 -0.1587 -0.2084  0.1031
 6019TIP3    H118063   0.752   2.907   5.011  0.0725  0.0048 -0.7935
 6019TIP3    H218064   0.609   2.867   4.980 -1.0620 -0.8965  4.6097
 6020TIP3   OH218065   4.941   2.866   1.022  0.1836 -0.1428 -0.1496
 6020TIP3    H118066   4.960   2.831   0.935 -0.6764  1.2340 -0.9196
 6020TIP3    H218067   4.847   2.881   1.022  0.6393  3.4423 -0.4115
 6021TIP3   OH218068   6.331   5.473   4.861 -0.3077 -0.3471  0.1376
 6021TIP3    H118069   6.361   5.555   4.899 -0.3917  0.2736 -1.0712
 6021TIP3    H218070   6.266   5.440   4.923 -0.5564  0.6998  0.4526
 6022TIP3   OH218071   4.689   3.847   4.694 -0.4574 -0.0478 -0.1561
 6022TIP3    H118072   4.774   3.886   4.714 -1.5053  1.6183  1.3674
 6022TIP3    H218073   4.704   3.793   4.617  1.4971  1.9054 -1.2181
 6023TIP3   OH218074   5.613   5.367   2.608  0.4520  0.0600 -0.0924
 6023TIP3    H118075   5.577   5.443   2.563  4.0295  2.6845  1.0415
 6023TIP3    H218076   5.651   5.313   2.539 -0.3197  0.3424 -0.7478
 6024TIP3   OH218077   2.622   2.827   1.703 -0.2019  0.3607  0.4613
 6024TIP3    H118078   2.670   2.776   1.769 -1.8217 -0.4886  1.0543
 6024TIP3    H218079   2.689   2.879   1.659  1.5262 -2.0196  0.0566
 6025TIP3   OH218080   4.791   1.960   0.349 -0.0630 -0.4298  0.0831
 6025TIP3    H118081   4.838   1.908   0.414 -0.0720  0.1508  0.5614
 6025TIP3    H218082   4.852   1.966   0.275  1.4315  1.8670  1.3865
 6026TIP3   OH218083   3.499   3.370   0.440 -0.3628 -0.6641 -0.7069
 6026TIP3    H118084   3.504   3.452   0.391  2.3615  0.9767  1.9807
 6026TIP3    H218085   3.587   3.358   0.476 -1.7852 -2.3651  2.6424
 6027TIP3   OH218086   3.903   1.715   1.848  0.7988  0.2719 -0.1557
 6027TIP3    H118087   3.948   1.671   1.920  2.6643  1.8872 -0.2599
 6027TIP3    H218088   3.877   1.643   1.789  1.2349 -0.8861  1.0189
 6028TIP3   OH218089   1.736   0.579   3.652 -0.3040 -0.7781 -0.2162
 6028TIP3    H118090   1.680   0.638   3.701  0.5319 -0.0916 -0.0677
 6028TIP3    H218091   1.772   0.520   3.719  0.4148 -0.1811 -0.0582
 6029TIP3   OH218092   5.654   5.677   0.681  0.2024 -0.5414 -0.3728
 6029TIP3    H118093   5.600   5.685   0.603  1.0309 -1.2672 -1.0401
 6029TIP3    H218094   5.692   5.763   0.693 -2.9756  0.7990  1.5908
 6030TIP3   OH218095   6.129   1.406   1.618 -0.0019  0.2463  0.2208
 6030TIP3    H118096   6.043   1.425   1.579 -0.1093  2.3652  1.3310
 6030TIP3    H218097   6.109   1.377   1.707  0.4174  0.9803  0.5643
 6031TIP3   OH218098   1.406   4.159   1.355  0.3049  0.1101  0.3188
 6031TIP3    H118099   1.398   4.143   1.448  0.1087 -1.5444  0.0353
 6031TIP3    H218100   1.360   4.087   1.313  1.3995  0.1733 -1.0735
 6032TIP3   OH218101   4.612   4.736   4.460  0.1235  0.2379  0.4536
 6032TIP3    H118102   4.604   4.735   4.556 -3.3399  0.0688  0.2818
 6032TIP3    H218103   4.684   4.676   4.442 -0.9930 -2.0486  2.8841
 6033TIP3   OH218104   0.708   0.737   0.042 -0.2089  0.0413 -0.5641
 6033TIP3    H118105   0.787   0.682   0.040  0.5560  1.1069 -2.6017
 6033TIP3    H218106   0.672   0.731  -0.047 -1.4905  0.9075 -0.1377
 6034TIP3   OH218107   5.206   2.812   0.660  0.4062 -0.2105 -0.3816
 6034TIP3    H118108   5.242   2.729   0.692  2.0383 -0.5279 -2.8142
 6034TIP3    H218109   5.246   2.879   0.715 -1.8640 -0.9658  2.4382
 6035TIP3   OH218110   3.136   5.134   3.176 -0.3792 -0.4089  0.4772
 6035TIP3    H118111   3.084   5.211   3.152  1.2564  0.4868 -0.3801
 6035TIP3    H218112   3.185   5.162   3.253 -0.6220 -1.0028  0.8526
 6036TIP3   OH218113   4.293   0.919   1.475  0.7517 -0.1638 -0.2338
 6036TIP3    H118114   4.280   0.868   1.395  0.4303 -1.2627  0.4818
 6036TIP3    H218115   4.335   0.857   1.535 -1.2357 -0.1655  1.2625
 6037TIP3   OH218116   6.114   1.852   2.581 -0.0616  0.0453 -0.5113
 6037TIP3    H118117   6.142   1.775   2.532 -2.2587 -1.6716  0.7660
 6037TIP3    H218118   6.058   1.900   2.520 -0.9361 -0.8779 -0.4618
 6038TIP3   OH218119   4.235   3.316   5.128 -0.2193  0.3488 -0.6412
 6038TIP3    H118120   4.229   3.406   5.098 -1.6816  0.5632  0.2226
 6038TIP3    H218121   4.161   3.305   5.188 -1.0459 -1.9060 -1.9742
 6039TIP3   OH218122   1.573   1.603   1.031 -0.7105  0.4225 -0.3635
 6039TIP3    H118123   1.479   1.606   1.050 -0.8843  2.7017 -1.3807
 6039TIP3    H218124   1.582   1.636   0.942  1.0018 -0.8010 -0.7155
 6040TIP3   OH218125   5.511   0.388   3.248 -0.0473 -0.0264  0.1168
 6040TIP3    H118126   5.526   0.366   3.340  0.4943  0.9997  0.2895
 6040TIP3    H218127   5.597   0.376   3.207 -0.2068 -0.1397 -0.1870
 6041TIP3   OH218128   1.539   4.390   1.085  0.3781 -0.3001  0.0725
 6041TIP3    H118129   1.557   4.451   1.014  1.4483  0.2492  0.7813
 6041TIP3    H218130   1.538   4.303   1.043 -0.0481  0.0983 -0.7634
 6042TIP3   OH218131   2.317   4.303   0.430 -0.3507 -0.3305  0.0703
 6042TIP3    H118132   2.223   4.318   0.437 -0.4333 -0.6508 -0.3289
 6042TIP3    H218133   2.331   4.279   0.338  0.2519  0.6394 -0.1106
 6043TIP3   OH218134   5.973   5.474   1.637  0.8434  0.0212  0.3658
 6043TIP3    H118135   5.991   5.438   1.724  0.9930  0.1167  0.3729
 6043TIP3    H218136   6.056   5.511   1.608  0.9445 -0.5198 -0.0593
 6044TIP3   OH218137   5.931   3.248   2.195  0.1543  0.6272 -0.4390
 6044TIP3    H118138   6.005   3.213   2.245  1.0478  3.3108  0.2555
 6044TIP3    H218139   5.857   3.243   2.255 -0.1227 -1.3659 -0.8775
 6045TIP3   OH218140   1.471   3.796   1.964  0.0654 -0.3094  0.0495
 6045TIP3    H118141   1.516   3.730   2.017  0.1827 -0.0306  0.3069
 6045TIP3    H218142   1.396   3.751   1.927  0.6769 -0.8335 -0.5529
 6046TIP3   OH218143   0.918   3.275   0.126  0.7780 -0.2130  0.0006
 6046TIP3    H118144   0.963   3.327   0.059  0.0388  0.1158 -0.2412
 6046TIP3    H218145   0.835   3.320   0.140  0.4118 -0.9604  0.2625
 6047TIP3   OH218146   0.883   3.790   4.502 -0.6028  0.2026 -0.2861
 6047TIP3    H118147   0.910   3.841   4.578  1.8052 -0.8609 -0.3366
 6047TIP3    H218148   0.797   3.756   4.525 -0.0383  0.0965  1.8806
 6048TIP3   OH218149   6.385   0.753   4.243  0.1636 -0.6863 -0.0469
 6048TIP3    H118150   6.361   0.664   4.219 -1.7907 -0.8902  2.2385
 6048TIP3    H218151   6.305   0.804   4.229  0.8603  0.4461 -0.0656
 6049TIP3   OH218152   0.804   2.430   3.742  0.2540  0.3825  0.0271
 6049TIP3    H118153   0.879   2.439   3.683  0.8460  2.1663  0.9617
 6049TIP3    H218154   0.838   2.456   3.828 -1.4521  1.2791  0.4745
 6050TIP3   OH218155   6.225   4.614   0.707  0.0501 -0.3997  0.0320
 6050TIP3    H118156   6.273   4.582   0.630 -1.2746 -0.8551 -0.6375
 6050TIP3    H218157   6.144   4.562   0.708 -1.8701  2.3454 -0.6715
 6051TIP3   OH218158   4.854   5.907   0.627  0.1402  0.1844  0.6513
 6051TIP3    H118159   4.902   5.841   0.677 -0.3412  0.9092  2.1305
 6051TIP3    H218160   4.767   5.868   0.614  0.9824 -1.0467 -1.8596
 6052TIP3   OH218161   0.182   0.661   1.493 -0.0446  0.7015  0.0569
 6052TIP3    H118162   0.179   0.734   1.432  1.3093 -0.5887 -1.6463
 6052TIP3    H218163   0.274   0.652   1.516 -0.2189 -0.3142  0.4048
 6053TIP3   OH218164   1.311   1.848   3.202  0.5522  0.8487  0.2056
 6053TIP3    H118165   1.318   1.753   3.212 -0.6523  0.7559  0.4158
 6053TIP3    H218166   1.329   1.864   3.110  0.0704  0.3187  0.0107
 6054TIP3   OH218167   3.482   3.746   1.159  0.2673 -0.1063  0.2037
 6054TIP3    H118168   3.404   3.797   1.176  0.7066  0.3061  1.0648
 6054TIP3    H218169   3.450   3.657   1.143 -0.4487  0.2909 -0.6328
 6055TIP3   OH218170   4.954   4.822   2.615  0.1305  0.0653 -0.0981
 6055TIP3    H118171   4.966   4.809   2.521 -4.9086  1.0441 -1.2270
 6055TIP3    H218172   4.925   4.737   2.648 -1.3886  0.4640 -0.3005
 6056TIP3   OH218173   4.499   1.771   1.757 -0.2854 -0.0938 -0.2362
 6056TIP3    H118174   4.530   1.771   1.667 -1.1237  0.4418 -0.5410
 6056TIP3    H218175   4.565   1.722   1.806  2.1377  2.7022 -0.4625
 6057TIP3   OH218176   0.390   0.063   3.110  0.2048  0.5600 -0.5670
 6057TIP3    H118177   0.338   0.118   3.050 -1.6260  0.6678  0.9931
 6057TIP3    H218178   0.346  -0.022   3.108  0.1324  0.5612  0.5590
 6058TIP3   OH218179   4.017   4.373   0.546  0.2588 -0.2904  0.6446
 6058TIP3    H118180   4.030   4.301   0.608  2.2548 -1.3112 -0.8281
 6058TIP3    H218181   4.040   4.336   0.461 -0.8232  1.5056 -0.5036
 6059TIP3   OH218182   1.726   3.176   1.312 -0.1994 -0.4581  0.1232
 6059TIP3    H118183   1.680   3.260   1.313 -0.6477 -0.6826  1.3584
 6059TIP3    H218184   1.657   3.112   1.295 -0.1609 -0.6956  0.8060
 6060TIP3   OH218185   0.773   4.663   0.470 -0.7804 -0.0196  0.4699
 6060TIP3    H118186   0.777   4.593   0.535  0.5183 -0.5576 -0.1629
 6060TIP3    H218187   0.854   4.712   0.482 -0.8219  0.2558 -0.3253
 6061TIP3   OH218188   5.650   5.683   4.768 -0.2681 -0.3728  0.7221
 6061TIP3    H118189   5.655   5.770   4.728 -0.9639  0.2960  2.0042
 6061TIP3    H218190   5.694   5.693   4.852  0.6773 -1.5930  0.3910
 6062TIP3   OH218191   5.473   4.670   0.955 -0.1138 -0.2595 -0.4386
 6062TIP3    H118192   5.496   4.651   1.046 -3.8358 -1.7113  0.4029
 6062TIP3    H218193   5.446   4.762   0.955 -3.7347 -1.1512  1.0277
 6063TIP3   OH218194   4.827   2.122   2.612  0.2624  0.1956  0.4814
 6063TIP3    H118195   4.879   2.050   2.577 -0.0532 -0.5490  1.4983
 6063TIP3    H218196   4.829   2.189   2.543  2.0233 -0.0622  0.2247
 6064TIP3   OH218197   4.983   5.919   0.116  0.9625  0.6438 -0.3816
 6064TIP3    H118198   4.996   5.954   0.204  1.0865  0.3624 -0.2881
 6064TIP3    H218199   4.987   5.996   0.059 -0.2004  0.9731 -0.0495
 6065TIP3   OH218200   2.934   2.882   0.968  0.2524  0.4126  0.0566
 6065TIP3    H118201   3.007   2.854   1.023  0.8925  0.8697 -0.5391
 6065TIP3    H218202   2.861   2.890   1.029  0.7558  0.1903  0.7131
 6066TIP3   OH218203   1.045   1.618   0.782  0.0709 -0.2741 -0.5414
 6066TIP3    H118204   1.041   1.699   0.731  0.0975 -0.7583 -1.3307
 6066TIP3    H218205   1.073   1.551   0.719  0.5782 -0.7968  0.2193
 6067TIP3   OH218206   2.614   2.229   0.519  0.0775  0.2255  0.2811
 6067TIP3    H118207   2.652   2.156   0.469 -2.2611 -1.2050  0.4572
 6067TIP3    H218208   2.655   2.222   0.605  1.9090  0.8790 -0.4714
 6068TIP3   OH218209   5.406   3.223   4.840  0.1383  0.3417  0.7709
 6068TIP3    H118210   5.335   3.159   4.828 -0.3375  0.7580  1.3264
 6068TIP3    H218211   5.448   3.228   4.754 -0.4078 -0.0279  0.4756
 6069TIP3   OH218212   4.775   3.486   3.363 -0.3895  0.1011  0.0427
 6069TIP3    H118213   4.804   3.403   3.400 -1.5101 -0.5727 -0.5258
 6069TIP3    H218214   4.734   3.532   3.436  0.1191  0.0995  0.3292
 6070TIP3   OH218215   0.354   3.038   1.934 -0.9234  0.3082  0.1288
 6070TIP3    H118216   0.259   3.033   1.921 -0.8959  0.9646 -0.4027
 6070TIP3    H218217   0.391   3.032   1.846 -0.4584 -0.1274  0.3502
 6071TIP3   OH218218   3.330   1.396   3.232  0.6275 -0.1512 -0.0902
 6071TIP3    H118219   3.380   1.331   3.183 -0.7966  0.1789 -2.1490
 6071TIP3    H218220   3.308   1.353   3.314  2.5273 -1.0096  0.0261
 6072TIP3   OH218221   5.396   3.201   4.501 -0.4154  0.6316  0.0213
 6072TIP3    H118222   5.473   3.213   4.556 -0.0265  1.5691 -0.6955
 6072TIP3    H218223   5.337   3.273   4.526 -0.7353  0.3640  0.0438
 6073TIP3   OH218224   1.523   4.112   3.069 -0.2223 -0.4451  0.3874
 6073TIP3    H118225   1.558   4.022   3.070  0.2285 -0.3341 -1.3673
 6073TIP3    H218226   1.433   4.103   3.098  0.0562 -1.3605  1.0003
 6074TIP3   OH218227   4.205   5.171   2.217  0.4611  0.1051 -0.1021
 6074TIP3    H118228   4.215   5.160   2.123 -2.1255 -1.4753 -0.3110
 6074TIP3    H218229   4.211   5.265   2.232  3.1333  0.2405 -1.4533
 6075TIP3   OH218230   2.654   5.369   0.586 -0.1764 -0.1062  0.5340
 6075TIP3    H118231   2.623   5.420   0.661 -0.5886  0.1044  0.2281
 6075TIP3    H218232   2.691   5.290   0.624 -1.0116 -0.3205  0.9369
 6076TIP3   OH218233   0.078   4.380   1.711 -0.2361 -1.1434 -0.3121
 6076TIP3    H118234   0.169   4.355   1.695 -0.5376 -1.5169 -1.5686
 6076TIP3    H218235   0.027   4.310   1.671 -1.0905  0.5639 -2.4033
 6077TIP3   OH218236   2.549   5.091   3.108  0.2007  0.1510 -0.1005
 6077TIP3    H118237   2.503   5.007   3.111  0.7673 -0.1618 -0.0861
 6077TIP3    H218238   2.541   5.120   3.017 -0.4125  0.3223  0.0024
 6078TIP3   OH218239   1.179   3.471   0.555  0.6292 -0.1155 -0.3164
 6078TIP3    H118240   1.167   3.482   0.649 -1.3652  0.4376 -0.5962
 6078TIP3    H218241   1.200   3.378   0.544  0.1761 -0.3398  0.6200
 6079TIP3   OH218242   0.847   1.136   2.177 -0.4320  0.1116 -0.4172
 6079TIP3    H118243   0.839   1.152   2.083 -3.3846 -0.5456 -0.3889
 6079TIP3    H218244   0.849   1.040   2.185  1.8545  0.1494  0.1507
 6080TIP3   OH218245   3.753   3.477   2.818  0.4743 -0.6994  0.1912
 6080TIP3    H118246   3.783   3.405   2.874  1.2385  0.4845  1.3410
 6080TIP3    H218247   3.827   3.538   2.815 -0.2455  0.1693 -0.5671
 6081TIP3   OH218248   4.908   5.944   2.498 -0.0336 -0.4168 -0.0128
 6081TIP3    H118249   4.897   5.890   2.419  1.9834  0.1159 -0.7137
 6081TIP3    H218250   4.872   5.890   2.569  1.2872 -2.4126 -0.7905
 6082TIP3   OH218251   3.785   2.076   4.301 -1.0843  1.0116  0.6249
 6082TIP3    H118252   3.830   2.021   4.365 -1.3160  0.9510  0.7342
 6082TIP3    H218253   3.768   2.018   4.227  2.6648  1.9108 -1.2277
 6083TIP3   OH218254   6.286   5.847   3.471 -0.1478 -0.5796  0.4636
 6083TIP3    H118255   6.297   5.935   3.435 -1.1010 -0.4688  0.4103
 6083TIP3    H218256   6.229   5.803   3.408  0.7576 -1.4147  0.2163
 6084TIP3   OH218257   2.679   5.607   4.922 -0.1645  0.0212  0.1081
 6084TIP3    H118258   2.681   5.667   4.847  0.9171 -0.4182 -0.2410
 6084TIP3    H218259   2.751   5.636   4.978 -0.1730 -0.4269  0.3563
 6085TIP3   OH218260   4.176   3.916   2.281 -0.2687  0.1723  0.4452
 6085TIP3    H118261   4.123   3.971   2.339 -2.7175  0.0834 -1.5080
 6085TIP3    H218262   4.157   3.826   2.310 -0.1197  0.1886  0.5930
 6086TIP3   OH218263   0.512   1.025   1.387  0.6132 -0.4900 -0.9568
 6086TIP3    H118264   0.498   1.003   1.295  0.2669  1.2927 -1.3708
 6086TIP3    H218265   0.573   1.098   1.385  0.9419 -0.7083  0.2665
 6087TIP3   OH218266   4.304   4.979   4.844  0.2008  0.2282  0.6052
 6087TIP3    H118267   4.380   4.947   4.893  1.1713  0.6894 -0.5383
 6087TIP3    H218268   4.298   4.922   4.768  0.4859  1.2585 -0.2161
 6088TIP3   OH218269   3.969   5.131   1.853  0.4080 -0.0657 -0.3630
 6088TIP3    H118270   4.038   5.176   1.805 -0.1880  0.1143 -1.0799
 6088TIP3    H218271   3.889   5.179   1.831 -0.0751 -0.7976 -0.2706
 6089TIP3   OH218272   0.079   2.770   1.341  0.0547  0.0846  0.7309
 6089TIP3    H118273   0.116   2.859   1.339 -0.0503  0.1140 -1.2035
 6089TIP3    H218274  -0.010   2.780   1.308  0.0263 -0.7454  0.5445
 6090TIP3   OH218275   1.676   5.412   1.918 -0.3792  0.6574 -0.4631
 6090TIP3    H118276   1.736   5.397   1.991 -0.3928  0.0837 -0.5658
 6090TIP3    H218277   1.728   5.391   1.840  0.0398  2.5008 -0.7163
 6091TIP3   OH218278   2.016   4.513   4.913 -0.0372 -0.9181 -1.1725
 6091TIP3    H118279   2.088   4.514   4.849  0.1847 -0.3472 -0.9137
 6091TIP3    H218280   1.954   4.449   4.877 -0.9284  0.8874 -3.0833
 6092TIP3   OH218281   4.943   2.047   1.021 -0.2400  0.0770 -0.2329
 6092TIP3    H118282   4.973   2.067   1.110  0.8884  1.0718 -0.8125
 6092TIP3    H218283   4.849   2.067   1.023 -0.1209  0.6160  0.5861
 6093TIP3   OH218284   5.401   0.471   2.587  0.5591  0.0290 -0.5393
 6093TIP3    H118285   5.394   0.403   2.519 -1.5445  0.7189 -1.0932
 6093TIP3    H218286   5.311   0.501   2.600  1.4005  2.6586 -0.2563
 6094TIP3   OH218287   5.579   0.905   1.718 -0.5065  0.2216  0.0015
 6094TIP3    H118288   5.608   0.956   1.793  0.9588 -0.5419 -0.0110
 6094TIP3    H218289   5.590   0.963   1.643  1.4185 -0.1340 -0.0497
 6095TIP3   OH218290   4.484   4.468   1.959  0.2951 -0.1183 -0.0947
 6095TIP3    H118291   4.576   4.452   1.981  1.0523  0.4029 -2.6414
 6095TIP3    H218292   4.480   4.561   1.937 -1.0625  0.0586  0.7506
 6096TIP3   OH218293   5.585   5.357   1.431  0.3707  0.2485 -0.7922
 6096TIP3    H118294   5.677   5.336   1.417  0.7732  2.3331 -1.6546
 6096TIP3    H218295   5.574   5.444   1.392 -2.0565 -0.1045 -1.0397
 6097TIP3   OH218296   0.843   5.260   0.315  0.6546 -0.2594  0.1542
 6097TIP3    H118297   0.879   5.298   0.234 -0.2371 -0.9834 -0.6036
 6097TIP3    H218298   0.753   5.292   0.318 -0.2623 -2.5418 -0.7278
 6098TIP3   OH218299   0.396   4.943   1.197  0.5856 -0.4592 -0.4970
 6098TIP3    H118300   0.435   4.982   1.119 -0.2683  0.4513 -0.4724
 6098TIP3    H218301   0.429   4.996   1.269 -0.0032 -0.2301 -0.3956
 6099TIP3   OH218302   3.297   5.580   0.428 -0.6215  0.0068  0.4515
 6099TIP3    H118303   3.360   5.643   0.393  1.2798 -0.7753  2.1969
 6099TIP3    H218304   3.314   5.500   0.378 -0.8696  0.0481  0.3025
 6100TIP3   OH218305   0.704   0.676   2.523 -0.6519  0.1003 -0.3003
 6100TIP3    H118306   0.729   0.602   2.468 -1.4689 -0.4193  0.0102
 6100TIP3    H218307   0.748   0.659   2.607 -0.1156  0.4388 -0.5080
 6101TIP3   OH218308   2.831   6.009   1.661  0.3410 -0.3783  0.6128
 6101TIP3    H118309   2.904   5.989   1.602 -0.8018 -0.6754 -0.7525
 6101TIP3    H218310   2.842   5.949   1.735 -0.1392 -2.4973 -0.9713
 6102TIP3   OH218311   1.424   0.099   2.528  0.5598  0.6122 -0.3573
 6102TIP3    H118312   1.356   0.165   2.516 -2.2587 -1.8695  0.7791
 6102TIP3    H218313   1.440   0.063   2.441 -2.5968 -1.4135 -0.2370
 6103TIP3   OH218314   2.561   3.209   2.146 -0.2880 -0.0327 -0.1723
 6103TIP3    H118315   2.559   3.114   2.136 -0.2390 -0.6115  3.8708
 6103TIP3    H218316   2.653   3.232   2.141 -0.3883  0.1172 -2.5744
 6104TIP3   OH218317   1.793   1.414   0.323  0.2238 -0.2592  0.3375
 6104TIP3    H118318   1.716   1.433   0.269  0.9339 -0.3108 -0.7345
 6104TIP3    H218319   1.764   1.427   0.413 -0.3967  1.9755 -0.1438
 6105TIP3   OH218320   5.504   2.581   3.049  0.1334 -0.0708  0.3270
 6105TIP3    H118321   5.470   2.667   3.026 -0.1798 -0.3753 -0.3988
 6105TIP3    H218322   5.589   2.599   3.090 -0.9584  0.7025  2.3602
 6106TIP3   OH218323   2.622   0.151   4.731 -0.6135  0.0029 -0.2462
 6106TIP3    H118324   2.693   0.214   4.724  0.0609 -0.8390 -1.3521
 6106TIP3    H218325   2.581   0.170   4.816  0.1202  1.3269 -0.1707
 6107TIP3   OH218326   2.963   5.412   4.394  0.1729 -0.1895  0.1355
 6107TIP3    H118327   2.962   5.453   4.481 -0.2406  0.3332 -0.1077
 6107TIP3    H218328   2.876   5.431   4.358  0.7116  0.5646 -0.8326
 6108TIP3   OH218329   0.756   2.790   0.668  0.4175  0.0896  0.3723
 6108TIP3    H118330   0.751   2.697   0.648 -0.2643  0.3383 -0.7274
 6108TIP3    H218331   0.678   2.807   0.721  0.1720  0.1551 -0.0034
 6109TIP3   OH218332   1.351   3.904   4.740 -0.5955  0.7726  0.0548
 6109TIP3    H118333   1.411   3.853   4.793 -0.4563  1.5255  0.6392
 6109TIP3    H218334   1.393   3.908   4.654 -0.0049  0.9353  0.3431
 6110TIP3   OH218335   3.447   1.172   3.134  0.2157  0.1572 -0.1479
 6110TIP3    H118336   3.444   1.156   3.040 -1.6401  1.0197 -0.2664
 6110TIP3    H218337   3.521   1.118   3.165  2.2308  1.4719 -2.3525
 6111TIP3   OH218338   5.344   1.706   4.007 -0.6240  0.9105 -0.0386
 6111TIP3    H118339   5.302   1.710   3.921 -1.4698 -1.3596  0.1947
 6111TIP3    H218340   5.428   1.664   3.991 -1.6012 -1.3711  0.4272
 6112TIP3   OH218341   5.633   5.891   4.561  0.6685  0.4338  0.1893
 6112TIP3    H118342   5.667   5.934   4.483  0.8440  0.8698  0.4996
 6112TIP3    H218343   5.545   5.862   4.537  0.0523  2.0552  0.3380
 6113TIP3   OH218344   5.571   5.754   0.399 -0.0880  0.0516  0.0578
 6113TIP3    H118345   5.538   5.841   0.420  0.4546  0.2162  0.2364
 6113TIP3    H218346   5.665   5.766   0.385  0.2316 -0.7001  1.3247
 6114TIP3   OH218347   4.252   3.638   4.208  0.0086  0.5834  0.5343
 6114TIP3    H118348   4.347   3.633   4.214 -0.1112 -1.4918  3.9449
 6114TIP3    H218349   4.225   3.677   4.291 -2.1386  1.4249 -0.4876
 6115TIP3   OH218350   1.579   1.571   3.084 -0.7375 -0.0979 -0.4452
 6115TIP3    H118351   1.522   1.600   3.012  1.7464 -0.4760 -2.7196
 6115TIP3    H218352   1.635   1.505   3.045  0.0235 -1.1394  2.2071
 6116TIP3   OH218353   1.146   5.344   0.412 -0.9031 -0.5159  0.1411
 6116TIP3    H118354   1.209   5.320   0.344  0.5844  0.1846  1.2029
 6116TIP3    H218355   1.104   5.261   0.436  1.4885 -1.5274  1.1655
 6117TIP3   OH218356   5.630   0.108   4.831  0.1220 -0.1337  0.5874
 6117TIP3    H118357   5.659   0.138   4.745 -1.0760  0.0683  0.2326
 6117TIP3    H218358   5.710   0.077   4.874  0.6271 -1.0361 -0.9122
 6118TIP3   OH218359   5.026   0.247   1.784 -0.3747 -0.6378 -0.4298
 6118TIP3    H118360   5.118   0.225   1.799  0.1641  1.5396 -0.2667
 6118TIP3    H218361   4.993   0.174   1.731  0.6946 -2.8039  1.6640
 6119TIP3   OH218362   1.192   4.726   4.407 -0.4450  0.3142 -0.1213
 6119TIP3    H118363   1.140   4.805   4.394  0.6203  1.3681  1.5108
 6119TIP3    H218364   1.130   4.654   4.397 -1.2722  1.2647 -2.5536
 6120TIP3   OH218365   0.273   3.444   1.315  0.0857  0.4839  0.3491
 6120TIP3    H118366   0.219   3.433   1.236 -0.6154  0.5459  0.8153
 6120TIP3    H218367   0.214   3.484   1.379  0.6680  0.4814  0.8908
 6121TIP3   OH218368   1.019   5.679   0.097  0.2363  0.1531 -0.1047
 6121TIP3    H118369   0.975   5.594   0.094  0.9079 -0.1726 -1.4531
 6121TIP3    H218370   1.020   5.701   0.190 -1.9830 -0.2138  0.0805
 6122TIP3   OH218371   3.844   3.635   3.229  0.4546  0.2355  0.3267
 6122TIP3    H118372   3.769   3.578   3.215  0.4231  0.3334  0.0933
 6122TIP3    H218373   3.917   3.589   3.187  0.2920  0.6916 -0.4697
 6123TIP3   OH218374   5.138   1.279   1.458 -0.2725  0.2650 -0.1172
 6123TIP3    H118375   5.216   1.330   1.481 -1.0686 -0.2751  4.6278
 6123TIP3    H218376   5.065   1.339   1.474 -1.0139 -0.0471 -2.0711
 6124TIP3   OH218377   5.114   4.181   0.177  0.2799  0.4065  0.2783
 6124TIP3    H118378   5.031   4.224   0.156  1.0980  2.2187  0.6377
 6124TIP3    H218379   5.181   4.241   0.148  1.4903 -0.7966  0.4883
 6125TIP3   OH218380   4.322   0.638   1.990  0.1302  0.5591 -0.0571
 6125TIP3    H118381   4.354   0.714   2.039 -0.3801  0.5611  0.2917
 6125TIP3    H218382   4.267   0.676   1.921 -0.2967  0.5096  0.2462
 6126TIP3   OH218383   0.161   1.830   0.634 -0.0216  0.3396 -1.0068
 6126TIP3    H118384   0.168   1.918   0.673  3.9560  0.6728 -2.0215
 6126TIP3    H218385   0.191   1.841   0.544  0.8064 -2.0679 -1.1019
 6127TIP3   OH218386   3.394   5.462   4.398  0.5359 -0.0877 -0.0114
 6127TIP3    H118387   3.433   5.531   4.344  1.3270  0.2289  0.9312
 6127TIP3    H218388   3.456   5.450   4.470 -0.2881 -0.7946  0.5997
 6128TIP3   OH218389   5.190   5.702   1.270 -0.7677  0.2394  0.4750
 6128TIP3    H118390   5.195   5.607   1.279  2.7593 -0.0181 -2.1122
 6128TIP3    H218391   5.138   5.715   1.190  3.6407 -0.1001 -2.7842
 6129TIP3   OH218392   1.233   2.254   4.873 -0.1998  0.7868  0.7590
 6129TIP3    H118393   1.213   2.277   4.964  1.7052  1.4929  1.0403
 6129TIP3    H218394   1.326   2.273   4.863  0.1392 -1.2618 -0.7498
 6130TIP3   OH218395   0.996   0.613   4.066 -0.1499 -0.4260 -0.5840
 6130TIP3    H118396   0.922   0.574   4.018  1.0328 -1.7976 -1.3770
 6130TIP3    H218397   1.033   0.540   4.116  0.0131  0.4961  0.6870
 6131TIP3   OH218398   2.350   1.412   3.321 -0.3484 -0.6647 -0.5275
 6131TIP3    H118399   2.385   1.388   3.235  0.0476  2.1269 -1.2208
 6131TIP3    H218400   2.416   1.469   3.359 -0.2309 -2.3216  1.9871
 6132TIP3   OH218401   0.804   5.408   2.231  0.4843  0.3891  0.4289
 6132TIP3    H118402   0.887   5.437   2.193  0.9227 -2.8023 -1.4612
 6132TIP3    H218403   0.757   5.489   2.252  2.3994  2.3667 -2.2344
 6133TIP3   OH218404   1.627   4.750   0.427 -0.4555  0.2624  0.8009
 6133TIP3    H118405   1.533   4.734   0.420 -0.3556 -0.3299  0.7609
 6133TIP3    H218406   1.664   4.716   0.346 -0.0846 -0.5328  1.2799
 6134TIP3   OH218407   2.975   5.660   4.122 -0.4381  0.2246  0.2296
 6134TIP3    H118408   2.959   5.588   4.061  0.8052  0.9645 -1.0188
 6134TIP3    H218409   3.068   5.652   4.145 -1.0471 -0.5443  2.7544
 6135TIP3   OH218410   4.349   4.474   3.759  0.2105 -0.4921 -0.6205
 6135TIP3    H118411   4.355   4.533   3.834 -1.6815 -0.0451 -0.7608
 6135TIP3    H218412   4.287   4.407   3.786  0.7284 -1.2267 -1.2283
 6136TIP3   OH218413   2.819   5.265   2.231 -0.5487 -0.4074  1.0953
 6136TIP3    H118414   2.844   5.269   2.324  0.9194 -2.1365  0.8228
 6136TIP3    H218415   2.876   5.329   2.189 -0.3520 -0.5094  1.2065
 6137TIP3   OH218416   3.214   1.988   4.492  0.6400  0.2473 -0.1688
 6137TIP3    H118417   3.194   1.966   4.401 -1.6147 -0.2019  0.3871
 6137TIP3    H218418   3.188   2.080   4.501  0.1348  0.0695  0.2107
 6138TIP3   OH218419   3.462   3.180   5.103  0.7710 -0.5402 -0.2815
 6138TIP3    H118420   3.492   3.211   5.017  1.2558 -0.5608 -0.1225
 6138TIP3    H218421   3.378   3.225   5.116  0.3255 -1.1073 -1.0872
 6139TIP3   OH218422   4.753   4.471   2.566  0.0419 -0.0669  0.5511
 6139TIP3    H118423   4.708   4.387   2.575 -0.3550 -0.2806 -2.3635
 6139TIP3    H218424   4.683   4.535   2.561  0.1715  0.0285 -0.3050
 6140TIP3   OH218425   2.638   2.948   0.365  0.0596 -0.3116  0.3675
 6140TIP3    H118426   2.644   2.976   0.457  0.2435 -0.4086  0.3859
 6140TIP3    H218427   2.723   2.970   0.328  0.2921 -1.0558  0.4413
 6141TIP3   OH218428   6.012   5.722   2.388  0.3032 -0.3043 -0.1134
 6141TIP3    H118429   5.960   5.744   2.465  1.5024  0.1175  0.6051
 6141TIP3    H218430   5.962   5.652   2.345 -0.8093  0.0332  0.5693
 6142TIP3   OH218431   3.423   5.160   2.453  0.3175  0.5373 -0.0475
 6142TIP3    H118432   3.471   5.165   2.370 -0.6590 -0.0272 -0.6606
 6142TIP3    H218433   3.365   5.085   2.443 -1.5869  1.9203  0.1783
 6143TIP3   OH218434   6.031   3.131   2.883  0.4913  0.4782  0.1584
 6143TIP3    H118435   6.014   3.200   2.947 -0.6755 -0.1624  0.5552
 6143TIP3    H218436   6.024   3.175   2.798 -0.7276  0.7624  0.3886
 6144TIP3   OH218437   4.464   5.208   4.916  0.3008 -0.2009 -0.8457
 6144TIP3    H118438   4.400   5.148   4.879  0.2471 -0.4062 -0.4222
 6144TIP3    H218439   4.412   5.278   4.955  0.1884 -1.5976  1.6944
 6145TIP3   OH218440   2.609   2.173   4.452  0.0770  0.6791 -0.4281
 6145TIP3    H118441   2.617   2.078   4.443  0.9014  0.6811  0.1576
 6145TIP3    H218442   2.516   2.188   4.468  0.3579 -0.3560  2.7614
 6146TIP3   OH218443   3.766   5.060   1.322 -0.3178  0.5278 -0.1741
 6146TIP3    H118444   3.745   5.085   1.232  0.7688  0.9525 -0.3213
 6146TIP3    H218445   3.774   5.143   1.370  1.3342  0.4213 -0.2147
 6147TIP3   OH218446   5.095   1.678   4.867  0.2623  0.5057 -0.1245
 6147TIP3    H118447   5.044   1.656   4.945 -0.4410 -0.4636 -0.8416
 6147TIP3    H218448   5.042   1.742   4.820  0.6296  0.9959  0.1192
 6148TIP3   OH218449   6.319   5.686   2.729  0.0096  0.5704 -0.3447
 6148TIP3    H118450   6.395   5.649   2.683 -0.6570 -0.6547 -0.4975
 6148TIP3    H218451   6.334   5.781   2.727  2.6822  0.3241  1.6174
 6149TIP3   OH218452   3.050   0.618   0.733  0.9003 -0.4396 -0.6069
 6149TIP3    H118453   3.139   0.623   0.766  0.4334  2.4923  0.5693
 6149TIP3    H218454   3.059   0.596   0.640  2.7792 -0.9043 -0.3406
 6150TIP3   OH218455   3.227   5.278   2.297 -0.4897  0.0588 -0.2558
 6150TIP3    H118456   3.149   5.233   2.330 -0.4792  1.3097  1.6226
 6150TIP3    H218457   3.291   5.207   2.284 -1.2348 -0.7437  0.3201
 6151TIP3   OH218458   0.903   5.392   0.041  0.2991 -0.7076  0.6782
 6151TIP3    H118459   0.821   5.347   0.023  0.8945 -1.6365  0.1974
 6151TIP3    H218460   0.969   5.322   0.044  1.4673  0.2121 -1.4047
 6152TIP3   OH218461   2.374   3.875   4.357  0.2853  0.3373 -0.0745
 6152TIP3    H118462   2.413   3.959   4.332 -0.8991  0.6476 -0.9941
 6152TIP3    H218463   2.316   3.896   4.430  0.9967  0.0655  0.5829
 6153TIP3   OH218464   4.418   4.204   1.894 -0.4260  0.1487 -0.6614
 6153TIP3    H118465   4.444   4.289   1.931  0.3707  0.3232 -1.5675
 6153TIP3    H218466   4.424   4.143   1.968 -2.4362  1.0983  0.3714
 6154TIP3   OH218467   2.220   5.896   0.691  0.3021  0.2265 -0.7221
 6154TIP3    H118468   2.148   5.958   0.676  0.0003  0.5007  1.4897
 6154TIP3    H218469   2.284   5.917   0.623 -1.1557  0.8050 -1.9817
 6155TIP3   OH218470   5.543   3.644   1.730 -0.1301 -0.2882 -0.0952
 6155TIP3    H118471   5.454   3.622   1.758 -0.2791  1.7064  1.1663
 6155TIP3    H218472   5.550   3.606   1.642 -1.8417 -1.3822  0.1813
 6156TIP3   OH218473   5.449   2.525   0.217  0.0235  0.3559  0.1800
 6156TIP3    H118474   5.380   2.547   0.279  0.2706 -0.0585  0.6135
 6156TIP3    H218475   5.415   2.449   0.169  0.3844 -0.1851  0.7627
 6157TIP3   OH218476   1.615   0.242   0.016  0.2745 -0.2142  0.0718
 6157TIP3    H118477   1.597   0.229   0.109  0.3745  0.1668  0.1473
 6157TIP3    H218478   1.530   0.232  -0.026  0.0302  0.6947  0.3260
 6158TIP3   OH218479   4.705   3.795   1.775  0.1331 -0.6136 -0.0327
 6158TIP3    H118480   4.689   3.878   1.730  1.1145 -1.2786 -1.7031
 6158TIP3    H218481   4.777   3.813   1.835  0.5059 -0.3106 -0.5699
 6159TIP3   OH218482   2.180   5.368   3.896  0.2458 -0.1152 -0.1765
 6159TIP3    H118483   2.163   5.374   3.990 -3.0586 -0.9947 -0.5971
 6159TIP3    H218484   2.142   5.448   3.860  0.2880 -0.4132 -0.8823
 6160TIP3   OH218485   6.080   3.391   1.025  0.0431  0.4693 -0.0993
 6160TIP3    H118486   6.086   3.332   1.099  0.2464  0.8683  0.2079
 6160TIP3    H218487   6.118   3.343   0.952 -0.4285 -0.0360 -0.0162
 6161TIP3   OH218488   1.643   4.028   1.215 -0.4109 -0.0700  0.2446
 6161TIP3    H118489   1.597   4.052   1.295  0.7996  1.0073  0.6726
 6161TIP3    H218490   1.665   3.936   1.226 -0.7909 -0.0892  0.8855
 6162TIP3   OH218491   1.022   4.870   3.828  0.1545 -0.3708  0.2261
 6162TIP3    H118492   1.037   4.887   3.921 -1.3983  2.6166  0.0373
 6162TIP3    H218493   0.941   4.820   3.826 -0.5434  0.7265  0.4567
 6163TIP3   OH218494   0.457   4.450   2.008 -0.1727  0.6544 -0.0697
 6163TIP3    H118495   0.519   4.457   2.081 -0.0044  0.2790 -0.1735
 6163TIP3    H218496   0.379   4.495   2.039 -0.3592 -0.1242  0.6295
 6164TIP3   OH218497   2.204   3.190   2.782 -0.1659  0.3361 -0.3183
 6164TIP3    H118498   2.288   3.148   2.797 -0.9854 -1.5579 -0.7444
 6164TIP3    H218499   2.207   3.220   2.691 -0.0432  0.0589 -0.4047
 6165TIP3   OH218500   2.420   3.310   1.095 -0.4062 -0.5916  0.4349
 6165TIP3    H118501   2.506   3.270   1.102  0.3188  0.5874 -1.0867
 6165TIP3    H218502   2.405   3.318   1.001 -1.4907  0.6177  0.6766
 6166TIP3   OH218503   6.130   1.024   0.382  0.8171  0.0487  0.5561
 6166TIP3    H118504   6.138   0.929   0.374 -1.9293 -0.3479  1.3549
 6166TIP3    H218505   6.211   1.052   0.424  1.1131 -2.1647  1.5932
 6167TIP3   OH218506   5.687   5.177   2.176 -0.4383 -0.1469  0.6223
 6167TIP3    H118507   5.652   5.163   2.088 -0.9374  0.1873  0.7676
 6167TIP3    H218508   5.664   5.097   2.223  2.8629 -1.9514 -0.4694
 6168TIP3   OH218509   6.035   5.993   2.322  0.2051  0.3103  0.2392
 6168TIP3    H118510   6.090   5.986   2.244 -0.8891 -0.5740 -0.5019
 6168TIP3    H218511   6.008   5.902   2.339 -0.5616  0.6561  0.8961
 6169TIP3   OH218512   2.571   1.431   1.699  0.0135 -0.1870 -0.3269
 6169TIP3    H118513   2.555   1.438   1.605  1.2511  3.2448 -0.4292
 6169TIP3    H218514   2.493   1.470   1.739 -0.5705 -1.7622  0.1185
 6170TIP3   OH218515   5.390   5.441   1.622  0.1329 -0.8231  0.0099
 6170TIP3    H118516   5.418   5.377   1.557  1.8908 -1.1813  1.0595
 6170TIP3    H218517   5.471   5.481   1.653 -0.8602  1.1949  0.1351
 6171TIP3   OH218518   2.754   2.802   2.893 -0.5139 -1.5771  0.1213
 6171TIP3    H118519   2.753   2.727   2.952 -1.0683 -1.0398  0.8186
 6171TIP3    H218520   2.805   2.773   2.818 -0.1628 -2.4268  0.6694
 6172TIP3   OH218521   4.046   4.275   0.800  0.2379  0.1005  0.0928
 6172TIP3    H118522   3.988   4.202   0.822  1.2346 -1.3934 -1.8804
 6172TIP3    H218523   4.116   4.271   0.865 -0.1310 -0.2326  0.4702
 6173TIP3   OH218524   2.994   4.189   1.620  0.1385  0.2707  0.2278
 6173TIP3    H118525   3.065   4.153   1.568 -2.0034 -0.3755 -2.4922
 6173TIP3    H218526   2.944   4.242   1.558 -1.6163  0.9184  2.0845
 6174TIP3   OH218527   5.955   4.177   3.870  0.2818  0.2488  0.3854
 6174TIP3    H118528   5.947   4.107   3.935 -0.0920 -0.6922 -0.6351
 6174TIP3    H218529   5.918   4.139   3.790 -1.0813  2.0418  0.1043
 6175TIP3   OH218530   0.162   5.374   4.045  0.6955 -0.4018  0.2127
 6175TIP3    H118531   0.141   5.467   4.048  1.2551 -0.2841  2.5804
 6175TIP3    H218532   0.255   5.371   4.023  0.2162 -0.5582 -2.0349
 6176TIP3   OH218533   4.379   2.096   4.420  0.5378 -0.4965  0.0651
 6176TIP3    H118534   4.362   2.183   4.456 -2.3787 -1.1470  0.4838
 6176TIP3    H218535   4.325   2.092   4.341 -0.0298 -2.1707  0.5009
 6177TIP3   OH218536   6.037   5.292   3.628  0.5260  0.5901  0.4618
 6177TIP3    H118537   5.992   5.280   3.544  2.4627  1.5516 -0.7975
 6177TIP3    H218538   6.000   5.225   3.685 -1.8304  0.7912 -0.7182
 6178TIP3   OH218539   6.145   0.352   2.883  0.2469  0.2050 -0.6211
 6178TIP3    H118540   6.170   0.261   2.870 -1.1515 -0.1093 -1.2260
 6178TIP3    H218541   6.067   0.364   2.829  0.9126  2.0073 -1.2385
 6179TIP3   OH218542   2.929   3.750   2.678 -0.1435 -0.3581  0.2215
 6179TIP3    H118543   2.910   3.794   2.594  0.6457 -0.3939  0.0210
 6179TIP3    H218544   3.007   3.794   2.711 -0.2122 -0.6219  0.7476
 6180TIP3   OH218545   1.686   5.714   2.180 -0.1374 -0.1337 -0.1260
 6180TIP3    H118546   1.774   5.736   2.152  0.0446 -0.8548 -0.1317
 6180TIP3    H218547   1.690   5.718   2.276 -0.7975  2.4815 -0.1052
 6181TIP3   OH218548   3.211   3.657   3.552  0.3586 -0.2920  0.1160
 6181TIP3    H118549   3.129   3.653   3.503  1.0263  1.1176 -1.2033
 6181TIP3    H218550   3.220   3.570   3.590 -0.5528 -1.2702 -1.7480
 6182TIP3   OH218551   2.145   1.045   3.618 -0.0854  0.2018  0.1750
 6182TIP3    H118552   2.200   0.982   3.570 -0.3992 -0.9323  1.2557
 6182TIP3    H218553   2.196   1.126   3.619  0.1151  0.1483 -1.6916
 6183TIP3   OH218554   3.277   0.518   4.186  0.2760 -0.0719 -0.3041
 6183TIP3    H118555   3.250   0.583   4.121 -0.3320 -2.0505 -2.1693
 6183TIP3    H218556   3.238   0.548   4.268 -1.5991  0.9318 -1.4906
 6184TIP3   OH218557   4.353   1.352   1.959  0.1367 -0.1032 -0.0096
 6184TIP3    H118558   4.403   1.271   1.956 -2.2190 -1.6195 -2.4181
 6184TIP3    H218559   4.315   1.353   2.047 -0.1333 -1.8652 -0.0693
 6185TIP3   OH218560   4.425   2.153   0.008  0.3152  0.7278  0.1252
 6185TIP3    H118561   4.387   2.066   0.021  1.6465 -0.0424 -0.8502
 6185TIP3    H218562   4.353   2.205  -0.027  0.0345 -0.6278 -1.4865
 6186TIP3   OH218563   5.649   3.304   1.952 -0.0246 -0.5165  0.2225
 6186TIP3    H118564   5.662   3.213   1.979  0.7751 -0.1933  0.9842
 6186TIP3    H218565   5.733   3.347   1.969  0.4502 -0.1694 -2.4886
 6187TIP3   OH218566   2.025   5.966   1.975  0.2763  0.0727 -0.3442
 6187TIP3    H118567   2.111   6.007   1.985  0.1577  0.2309  0.0817
 6187TIP3    H218568   2.019   5.944   1.882  0.9250 -0.2708 -0.3153
 6188TIP3   OH218569   4.126   3.128   3.098  1.2152 -0.1273  0.6812
 6188TIP3    H118570   4.068   3.102   3.169 -0.7115 -0.9227 -1.0562
 6188TIP3    H218571   4.193   3.060   3.096  1.2653 -0.1181  1.6864
 6189TIP3   OH218572   4.408   3.012   1.894  0.1306  0.5054 -0.2266
 6189TIP3    H118573   4.411   2.917   1.903  0.8960  0.5485  0.0750
 6189TIP3    H218574   4.386   3.044   1.981 -0.8515  0.5831 -0.4924
 6190TIP3   OH218575   1.246   4.955   0.135 -0.2687 -0.3437  0.0370
 6190TIP3    H118576   1.176   5.020   0.130 -0.1299 -0.2340 -0.6977
 6190TIP3    H218577   1.303   4.975   0.060 -0.1235 -1.1838 -0.0935
 6191TIP3   OH218578   5.626   2.667   2.243 -0.3517 -0.1795 -0.6554
 6191TIP3    H118579   5.587   2.744   2.201 -0.2062  0.7164  0.7483
 6191TIP3    H218580   5.617   2.685   2.337  0.6724 -1.3779 -0.3035
 6192TIP3   OH218581   1.754   1.872   4.398  0.2449 -0.2421  0.3175
 6192TIP3    H118582   1.667   1.848   4.367 -0.4146  1.7855  0.4471
 6192TIP3    H218583   1.738   1.940   4.463  1.8335 -1.3997  2.0100
 6193TIP3   OH218584   5.014   1.343   4.394  0.4232 -0.0006  0.1112
 6193TIP3    H118585   4.988   1.254   4.417 -1.1642  0.1350 -1.0068
 6193TIP3    H218586   5.006   1.347   4.299  2.3973  0.7787 -0.0829
 6194TIP3   OH218587   6.165   2.123   5.180  0.0664 -0.0172  0.2745
 6194TIP3    H118588   6.164   2.199   5.122 -1.4448  0.5100  0.9426
 6194TIP3    H218589   6.206   2.054   5.128 -0.1998  0.7560 -1.0084
 6195TIP3   OH218590   1.386   2.581   5.094 -0.4199  0.0251  0.2896
 6195TIP3    H118591   1.293   2.589   5.074 -0.4083 -0.2517  0.1051
 6195TIP3    H218592   1.425   2.664   5.065 -0.1407 -0.9248 -2.4170
 6196TIP3   OH218593   6.255   4.648   2.257  0.1297 -0.3365 -0.8360
 6196TIP3    H118594   6.284   4.662   2.167 -0.0855  2.3995 -0.5724
 6196TIP3    H218595   6.301   4.715   2.307 -1.0348 -0.7166  0.8012
 6197TIP3   OH218596   2.146   5.861   4.765 -0.1374 -0.1580  0.6543
 6197TIP3    H118597   2.127   5.771   4.737 -0.7069 -0.1768  1.1082
 6197TIP3    H218598   2.242   5.862   4.775 -0.1047 -0.6539  0.4488
 6198TIP3   OH218599   0.097   5.641   3.871  0.0641  0.2033  0.0463
 6198TIP3    H118600   0.032   5.691   3.823 -2.1321 -0.5779  1.9730
 6198TIP3    H218601   0.135   5.581   3.807 -0.7222  1.0730 -1.2558
 6199TIP3   OH218602   5.374   1.994   3.399 -0.4207 -0.3190 -0.1465
 6199TIP3    H118603   5.346   2.003   3.490 -1.1098 -2.2758 -0.1239
 6199TIP3    H218604   5.297   2.019   3.348  0.1331  1.3032 -0.2356
 6200TIP3   OH218605   0.309   4.929   0.607  0.3016  0.7509  0.0766
 6200TIP3    H118606   0.214   4.914   0.604  0.5817 -1.1824 -0.9674
 6200TIP3    H218607   0.340   4.903   0.520  1.9949 -0.4186  0.9751
 6201TIP3   OH218608   5.813   3.845   3.815 -0.0173  0.3288 -0.3188
 6201TIP3    H118609   5.857   3.897   3.747 -0.3548 -0.1217 -0.8890
 6201TIP3    H218610   5.854   3.874   3.897  3.8193 -2.3414 -1.0073
 6202TIP3   OH218611   3.844   0.988   1.320  0.1034  0.4174 -0.4265
 6202TIP3    H118612   3.775   1.044   1.355 -0.5301  0.0351 -1.0341
 6202TIP3    H218613   3.910   0.986   1.389 -0.1919  1.3148 -0.0987
 6203TIP3   OH218614   0.988   0.319   1.240 -0.3177 -0.3011 -0.2057
 6203TIP3    H118615   0.922   0.268   1.286  1.8685 -3.1313  0.0569
 6203TIP3    H218616   1.038   0.362   1.310 -2.3212  2.6822 -0.4303
 6204TIP3   OH218617   0.659   2.842   0.403  0.4468  0.0837 -0.1012
 6204TIP3    H118618   0.620   2.927   0.383 -2.9155 -0.9233  1.4827
 6204TIP3    H218619   0.685   2.848   0.495 -0.7946 -0.8642  0.3419
 6205TIP3   OH218620   2.085   3.108   1.693  0.3065 -0.2570  0.6330
 6205TIP3    H118621   2.086   3.019   1.727 -0.2396 -0.5746 -0.1574
 6205TIP3    H218622   2.000   3.116   1.649  0.1397  0.8151  1.1192
 6206TIP3   OH218623   6.152   4.861   4.740  0.0195 -0.1682  0.2136
 6206TIP3    H118624   6.146   4.949   4.777  0.4792 -0.7035  1.6158
 6206TIP3    H218625   6.061   4.834   4.729 -0.1387  0.0098  0.9868
 6207TIP3   OH218626   1.968   2.471   2.017 -0.6645  0.4160 -0.9355
 6207TIP3    H118627   1.908   2.502   2.085 -0.0418 -0.9733  0.3243
 6207TIP3    H218628   1.982   2.379   2.038  2.0368  0.7227 -1.0550
 6208TIP3   OH218629   2.602   3.159   1.804 -0.0945  0.8270 -0.4059
 6208TIP3    H118630   2.548   3.156   1.725 -0.8640  1.1300  0.0978
 6208TIP3    H218631   2.546   3.123   1.873  0.5683  0.5624  0.0100
 6209TIP3   OH218632   0.685   5.712   4.916 -0.2888  0.0816 -0.2055
 6209TIP3    H118633   0.634   5.668   4.984 -0.1204 -1.1530 -0.8437
 6209TIP3    H218634   0.685   5.804   4.942  0.9501 -0.5157  2.2060
 6210TIP3   OH218635   0.033   4.382   0.956 -0.0368  0.6255 -0.2095
 6210TIP3    H118636   0.018   4.288   0.954 -0.2552  0.6759 -1.9306
 6210TIP3    H218637   0.100   4.397   0.890 -0.5746  1.7693 -0.5161
 6211TIP3   OH218638   3.325   3.513   0.835  0.0827  0.4552 -0.1415
 6211TIP3    H118639   3.243   3.559   0.817 -0.1910  0.3174  0.7296
 6211TIP3    H218640   3.336   3.520   0.930  0.7588 -0.0741 -0.1754
 6212TIP3   OH218641   1.225   1.473   4.012  0.0312 -0.1735 -0.2687
 6212TIP3    H118642   1.241   1.540   3.945  1.0076  0.1289  0.2573
 6212TIP3    H218643   1.265   1.394   3.978  0.6709  0.0204  0.0221
 6213TIP3   OH218644   1.609   1.420   3.710  0.0274  0.0875 -0.0765
 6213TIP3    H118645   1.558   1.352   3.666  0.5471 -0.5536  0.2808
 6213TIP3    H218646   1.694   1.418   3.665  0.1129  0.3575  0.0735
 6214TIP3   OH218647   5.955   5.262   2.129 -0.6149  0.5342 -0.5637
 6214TIP3    H118648   5.859   5.264   2.120 -0.8191 -0.1229  1.1727
 6214TIP3    H218649   5.970   5.238   2.220  1.2219  0.5654 -0.8295
 6215TIP3   OH218650   3.837   4.243   2.551  0.0911 -0.3185 -0.1418
 6215TIP3    H118651   3.820   4.262   2.643  1.3503  1.1029 -0.1716
 6215TIP3    H218652   3.756   4.205   2.519 -0.4241 -0.6850  1.5072
 6216TIP3   OH218653   5.668   1.077   3.120  0.2867  0.2963 -0.2070
 6216TIP3    H118654   5.733   1.056   3.053  0.1344  0.2040 -0.3268
 6216TIP3    H218655   5.710   1.144   3.174  0.3198  0.5527 -0.5421
 6217TIP3   OH218656   5.146   2.680  -0.002  0.1139  0.5079 -0.0304
 6217TIP3    H118657   5.123   2.747  -0.067  0.2422 -0.3354 -0.9660
 6217TIP3    H218658   5.110   2.713   0.080 -1.8269  0.6545 -0.8903
 6218TIP3   OH218659   3.189   3.941   3.988  0.4966 -0.3210 -0.6065
 6218TIP3    H118660   3.203   3.869   4.051  0.1179  0.1975  0.0843
 6218TIP3    H218661   3.277   3.969   3.964  0.6848  0.5256  0.9365
 6219TIP3   OH218662   0.811   0.600   3.808 -0.3655  0.4905 -0.1359
 6219TIP3    H118663   0.755   0.540   3.857 -1.4380  1.2419 -0.4287
 6219TIP3    H218664   0.899   0.563   3.818 -0.9209 -0.8033  0.1674
 6220TIP3   OH218665   1.739   5.870   1.317 -0.0122  0.7539  0.7346
 6220TIP3    H118666   1.689   5.919   1.252  2.1724  1.2821 -0.6592
 6220TIP3    H218667   1.739   5.926   1.395 -1.6638  0.6549  0.8320
 6221TIP3   OH218668   4.766   3.533   2.261  0.0767  0.2040  0.1633
 6221TIP3    H118669   4.710   3.456   2.267 -1.9024  1.6432  1.8004
 6221TIP3    H218670   4.711   3.600   2.221  1.6215  0.9274 -0.8810
 6222TIP3   OH218671   4.163   2.720   1.000  0.2083  0.0359  0.1757
 6222TIP3    H118672   4.143   2.650   0.937  0.6051  1.0962 -1.1646
 6222TIP3    H218673   4.188   2.673   1.080  1.5817 -1.3857 -1.0244
 6223TIP3   OH218674   4.589   2.886   1.294  0.3204 -0.1514  0.1420
 6223TIP3    H118675   4.668   2.887   1.348  0.0762 -2.5804  0.6519
 6223TIP3    H218676   4.619   2.860   1.207  0.0788 -1.2998  0.3911
 6224TIP3   OH218677   2.717   2.606   3.953  0.0110  0.4123  0.5946
 6224TIP3    H118678   2.803   2.584   3.916 -0.5907  0.7770 -1.1317
 6224TIP3    H218679   2.655   2.584   3.884 -1.2136  0.9719  1.4815
 6225TIP3   OH218680   2.797   5.975   4.100 -0.0191 -0.1007 -0.5241
 6225TIP3    H118681   2.750   6.046   4.144 -1.0168  0.4499 -2.3508
 6225TIP3    H218682   2.778   5.897   4.152 -0.7433  0.5876  0.2721
 6226TIP3   OH218683   5.121   4.538   3.691 -0.1384  0.1801 -0.2601
 6226TIP3    H118684   5.167   4.492   3.761 -0.3760  1.0871  0.5139
 6226TIP3    H218685   5.190   4.586   3.645 -0.0975  0.2685 -0.1061
 6227TIP3   OH218686   1.566   5.845   1.002 -0.0606 -0.3835 -0.2056
 6227TIP3    H118687   1.474   5.868   0.998 -0.3715 -1.6531 -0.6986
 6227TIP3    H218688   1.607   5.918   1.049 -1.0829  0.8234 -1.1254
 6228TIP3   OH218689   2.292   4.905   3.189  0.2896  0.0095  0.4505
 6228TIP3    H118690   2.212   4.855   3.172  0.7243 -0.0236 -1.7999
 6228TIP3    H218691   2.362   4.845   3.167  0.8522  1.0663 -0.7575
 6229TIP3   OH218692   5.301   4.416   2.636  0.0301  0.8574  0.3652
 6229TIP3    H118693   5.309   4.324   2.613 -0.5258  0.8919  0.0314
 6229TIP3    H218694   5.263   4.416   2.724  1.8560  0.7336  1.2001
 6230TIP3   OH218695   2.528   5.006   4.464  0.7306 -0.0269  0.0564
 6230TIP3    H118696   2.504   5.048   4.381 -0.9628 -1.8181 -0.4387
 6230TIP3    H218697   2.477   5.053   4.530  0.2332 -0.1269 -0.2495
 6231TIP3   OH218698   0.547   1.671   2.977 -0.7512 -0.2223 -0.1523
 6231TIP3    H118699   0.517   1.594   2.930  0.2505 -0.7826  0.0891
 6231TIP3    H218700   0.468   1.723   2.991 -1.4961 -1.3254 -0.0885
 6232TIP3   OH218701   6.125   0.791   3.236  0.2836  0.2013  0.2818
 6232TIP3    H118702   6.101   0.839   3.157  2.3602 -1.4926 -1.4991
 6232TIP3    H218703   6.220   0.791   3.236  0.4243 -3.4792  0.3246
 6233TIP3   OH218704   0.298   2.832   3.251 -0.3463  0.4118 -0.0628
 6233TIP3    H118705   0.309   2.793   3.338 -0.5915 -0.2214 -0.3082
 6233TIP3    H218706   0.325   2.763   3.190  2.5088  1.7280 -0.4772
 6234TIP3   OH218707   0.985   2.799   1.660 -0.2129  0.4466  0.4526
 6234TIP3    H118708   1.025   2.712   1.661  1.3454  1.1329  0.8228
 6234TIP3    H218709   0.979   2.824   1.752  1.8691  1.7911  0.2843
 6235TIP3   OH218710   2.582   0.340   3.383  0.3246 -0.3633  0.0668
 6235TIP3    H118711   2.509   0.402   3.388  0.7300  0.3276 -1.6966
 6235TIP3    H218712   2.624   0.347   3.469  0.8927  2.5295 -0.3283
 6236TIP3   OH218713   0.460   0.653   4.735 -0.3640 -0.0766  0.0844
 6236TIP3    H118714   0.421   0.630   4.819 -0.5916  1.0667  0.2954
 6236TIP3    H218715   0.440   0.578   4.678 -2.7467  0.3868  0.2259
 6237TIP3   OH218716   4.838   0.040   0.200  0.0021 -0.5266 -0.2495
 6237TIP3    H118717   4.830   0.128   0.164  0.8293 -0.2814  0.1337
 6237TIP3    H218718   4.917   0.004   0.160 -0.6073 -1.2936 -0.7926
 6238TIP3   OH218719   6.072   1.032   1.273  0.5223  0.1701  0.4794
 6238TIP3    H118720   6.128   1.048   1.197  0.4838  1.5668  0.7206
 6238TIP3    H218721   6.016   0.959   1.247  0.5362  0.6029 -0.8228
 6239TIP3   OH218722   1.543   0.366   2.433  0.0914  0.4619 -0.4140
 6239TIP3    H118723   1.451   0.341   2.438  0.2854 -0.1955  0.0614
 6239TIP3    H218724   1.557   0.423   2.508  0.5699 -1.1764  0.7900
 6240TIP3   OH218725   5.657   0.981   0.668  0.0930  0.2324 -0.1515
 6240TIP3    H118726   5.623   0.926   0.739 -0.0894  0.8267  0.2404
 6240TIP3    H218727   5.640   1.071   0.699 -0.4364  0.4939 -1.1706
 6241TIP3   OH218728   2.499   0.584   4.271  0.6079  0.3097  0.2491
 6241TIP3    H118729   2.438   0.632   4.215  1.3279 -0.1992 -1.0282
 6241TIP3    H218730   2.585   0.600   4.232  1.0108 -0.9035  0.5988
 6242TIP3   OH218731   1.516   3.308   2.957 -0.3443 -0.6954  0.2453
 6242TIP3    H118732   1.583   3.242   2.976 -0.7137 -0.8412  1.0844
 6242TIP3    H218733   1.438   3.277   3.003 -0.7092 -0.0226  0.0929
 6243TIP3   OH218734   0.957   3.198   1.787 -0.0574  0.0416  0.1110
 6243TIP3    H118735   1.051   3.212   1.796 -0.0377 -0.0418  0.0378
 6243TIP3    H218736   0.947   3.159   1.700 -0.4031  2.3650 -0.9532
 6244TIP3   OH218737   1.038   3.094   4.271  0.3368 -0.2504 -0.4718
 6244TIP3    H118738   1.028   3.048   4.355 -1.2191 -0.4034 -0.7085
 6244TIP3    H218739   1.096   3.168   4.292 -0.6503  0.1709  0.9449
 6245TIP3   OH218740   0.120   1.196   5.082 -0.6966  0.1106  0.0157
 6245TIP3    H118741   0.079   1.277   5.114  1.2935  1.3569 -0.3907
 6245TIP3    H218742   0.114   1.203   4.986 -0.2287 -0.0385 -0.0292
 6246TIP3   OH218743   1.145   5.410   3.364  0.3673  0.2079  0.3488
 6246TIP3    H118744   1.194   5.357   3.426  0.2475  0.5457  0.7344
 6246TIP3    H218745   1.201   5.416   3.287  1.1892  1.0666  0.9911
 6247TIP3   OH218746   4.477   0.108   5.108  0.2817 -0.7852 -0.5103
 6247TIP3    H118747   4.536   0.168   5.153 -0.1200 -0.9638  0.2794
 6247TIP3    H218748   4.534   0.055   5.052  0.7738 -0.4664 -0.3190
 6248TIP3   OH218749   1.194   5.229   3.564  0.1761  0.9961  0.5758
 6248TIP3    H118750   1.272   5.175   3.557 -1.7641 -2.0157  0.2763
 6248TIP3    H218751   1.150   5.198   3.644 -1.9349  0.7668 -0.6073
 6249TIP3   OH218752   3.913   4.873   4.066 -0.1259 -0.3921  0.2684
 6249TIP3    H118753   3.981   4.818   4.028  0.6994  0.3895  0.5606
 6249TIP3    H218754   3.934   4.876   4.160  2.1420  3.3089 -0.1241
 6250TIP3   OH218755   2.992   5.911   4.750  0.1918 -0.4574 -0.6260
 6250TIP3    H118756   3.083   5.933   4.768 -0.1949 -0.2425  1.2656
 6250TIP3    H218757   2.981   5.823   4.785 -1.0259  0.6205  2.0305
 6251TIP3   OH218758   4.379   0.672   0.532 -0.7236  0.0109  0.0953
 6251TIP3    H118759   4.414   0.609   0.595  0.6230  1.4193  0.8370
 6251TIP3    H218760   4.302   0.709   0.575 -0.2000  0.4819  0.6433
 6252TIP3   OH218761   2.452   2.287   4.750  0.0628  0.0584  0.3474
 6252TIP3    H118762   2.418   2.274   4.661  2.0320  0.5608 -0.5341
 6252TIP3    H218763   2.390   2.347   4.791 -0.2599  0.7631 -1.1070
 6253TIP3   OH218764   4.496   0.176   4.247 -0.1667 -0.3962 -0.0740
 6253TIP3    H118765   4.585   0.207   4.229 -0.1815  0.3134  0.9889
 6253TIP3    H218766   4.440   0.246   4.215 -0.3204 -0.5611 -0.1644
 6254TIP3   OH218767   4.219   0.835   0.714  0.9245 -0.0216  0.0382
 6254TIP3    H118768   4.298   0.816   0.765 -0.1656 -0.4911  1.6080
 6254TIP3    H218769   4.147   0.816   0.773 -0.4131 -0.6146 -1.6936
 6255TIP3   OH218770   6.349   0.379   5.026  0.1202  0.2901 -0.4293
 6255TIP3    H118771   6.302   0.383   4.943  0.1852  0.6095 -0.4530
 6255TIP3    H218772   6.373   0.287   5.036 -1.1442 -0.0228 -0.0647
 6256TIP3   OH218773   1.738   2.460   4.072  0.2752  0.0083 -0.3088
 6256TIP3    H118774   1.688   2.436   3.995  0.0582  0.3740 -0.2820
 6256TIP3    H218775   1.688   2.422   4.145 -0.5201  1.2196 -0.1929
 6257TIP3   OH218776   4.084   4.369   2.598  0.1200  0.7987  0.2787
 6257TIP3    H118777   4.002   4.321   2.610 -0.1674  0.8085 -1.3824
 6257TIP3    H218778   4.073   4.414   2.514  2.7973 -1.2162 -1.2874
 6258TIP3   OH218779   0.329   1.798   3.129  0.3983 -0.1593 -0.6763
 6258TIP3    H118780   0.260   1.845   3.083 -0.5678 -0.9942 -0.1154
 6258TIP3    H218781   0.336   1.841   3.214  0.4980 -0.1333 -0.6975
 6259TIP3   OH218782   4.825   0.880   3.442 -0.0816 -0.0845  0.5527
 6259TIP3    H118783   4.913   0.846   3.459  1.0874  2.0616 -0.8044
 6259TIP3    H218784   4.820   0.960   3.495 -0.7843  0.4042 -0.2335
 6260TIP3   OH218785   4.411   1.854   4.785 -0.3459 -0.4934 -0.4947
 6260TIP3    H118786   4.484   1.916   4.778  0.2661 -0.8351  1.8811
 6260TIP3    H218787   4.444   1.785   4.843 -2.1040 -1.3853 -0.4937
 6261TIP3   OH218788   0.655   1.512   4.008  0.2354 -0.5568 -0.4189
 6261TIP3    H118789   0.685   1.545   3.923  0.0441  0.7785  0.0109
 6261TIP3    H218790   0.718   1.444   4.031  0.0113 -1.3023 -1.8505
 6262TIP3   OH218791   0.648   4.491   2.507 -0.3115  0.4683  0.0829
 6262TIP3    H118792   0.742   4.477   2.496 -0.2565  1.9174 -1.8793
 6262TIP3    H218793   0.642   4.550   2.582  0.6531  2.7999 -1.5462
 6263TIP3   OH218794   0.362   1.092   0.552  0.3943  0.8003 -0.0965
 6263TIP3    H118795   0.350   1.085   0.457 -0.7620  0.2570  0.0718
 6263TIP3    H218796   0.324   1.177   0.574 -1.2945  0.0299  0.1354
 6264TIP3   OH218797   0.999   5.963   0.334 -0.0956 -0.5174  0.4597
 6264TIP3    H118798   0.945   5.984   0.410 -1.2423  0.6277 -0.6131
 6264TIP3    H218799   1.031   5.875   0.351 -1.1452 -0.6757  1.8083
 6265TIP3   OH218800   2.636   0.885   4.376  0.4325 -0.4210  0.4764
 6265TIP3    H118801   2.682   0.954   4.425 -1.5949  1.3897 -0.0455
 6265TIP3    H218802   2.597   0.930   4.302  0.7132 -2.5472 -1.0484
 6266TIP3   OH218803   3.175   4.061   0.178 -0.1038  0.0007 -0.0962
 6266TIP3    H118804   3.140   3.973   0.190 -1.0580  0.2015 -1.2541
 6266TIP3    H218805   3.155   4.106   0.261  1.2250 -1.0995  0.8727
 6267TIP3   OH218806   2.545   5.136   4.738  0.2550 -0.0367  0.3988
 6267TIP3    H118807   2.595   5.188   4.675  0.3339 -0.6030 -0.0112
 6267TIP3    H218808   2.609   5.079   4.780  0.2467  0.5118  1.1900
 6268TIP3   OH218809   4.319   0.434   1.053 -0.1245 -0.1859  0.0114
 6268TIP3    H118810   4.401   0.451   1.100 -0.5602 -0.6554  0.9772
 6268TIP3    H218811   4.263   0.393   1.119 -1.9542  2.1621  0.0181
 6269TIP3   OH218812   3.904   0.054   5.063 -0.1693  0.6916 -0.1422
 6269TIP3    H118813   3.976   0.029   5.005  1.0874  2.0556  0.7403
 6269TIP3    H218814   3.853   0.116   5.011  0.1527  0.8483 -0.2796
 6270TIP3   OH218815   0.289   0.529   0.258 -0.2930 -0.1779  0.3596
 6270TIP3    H118816   0.262   0.439   0.278  0.8546 -0.3063  1.5061
 6270TIP3    H218817   0.372   0.519   0.211 -0.6669  0.2680 -0.4071
 6271TIP3   OH218818   3.026   5.634   1.576  0.3674 -0.4401 -0.0127
 6271TIP3    H118819   2.971   5.619   1.653  0.3046  0.0660  0.0406
 6271TIP3    H218820   3.115   5.615   1.606  0.1734 -1.9474 -0.2801
 6272TIP3   OH218821   4.495   3.081   0.818 -0.2669 -0.2064  0.0806
 6272TIP3    H118822   4.407   3.069   0.782 -1.1450  1.6073  1.5453
 6272TIP3    H218823   4.541   3.133   0.751 -0.5182 -0.5209 -0.3455
 6273TIP3   OH218824   2.494   0.069   2.565  0.2246 -0.6949 -0.4883
 6273TIP3    H118825   2.539   0.027   2.491 -0.9877 -1.1390 -0.9978
 6273TIP3    H218826   2.526   0.023   2.642  1.3571 -0.3637 -0.7487
 6274TIP3   OH218827   1.205   3.705   2.969  0.0404 -0.0800 -0.3677
 6274TIP3    H118828   1.112   3.701   2.991  0.0289 -0.7795 -0.5275
 6274TIP3    H218829   1.250   3.671   3.046  0.1921  0.5425 -0.1692
 6275TIP3   OH218830   2.553   4.100   0.293  0.3526 -0.0454  0.1670
 6275TIP3    H118831   2.524   4.068   0.379 -0.1165  0.7226  0.3015
 6275TIP3    H218832   2.478   4.084   0.236  0.3960  0.1160  0.0668
 6276TIP3   OH218833   3.363   1.660   4.842 -0.2342 -0.0845 -0.3749
 6276TIP3    H118834   3.394   1.664   4.751  2.9780  1.1952  0.6173
 6276TIP3    H218835   3.378   1.748   4.876  1.2197 -1.1599  2.0767
 6277TIP3   OH218836   5.707   5.426   1.125 -0.3499 -0.2049  0.0271
 6277TIP3    H118837   5.642   5.360   1.101  0.0598 -1.3674  1.8751
 6277TIP3    H218838   5.661   5.509   1.119 -1.0563 -0.6857 -1.8146
 6278TIP3   OH218839   5.259   3.610   3.887 -0.4029  0.1976  0.0046
 6278TIP3    H118840   5.172   3.585   3.918 -0.0482  0.8125  1.6091
 6278TIP3    H218841   5.257   3.706   3.886 -0.1052  0.2077 -1.0864
 6279TIP3   OH218842   1.793   2.340   2.395 -0.5137  0.0363  0.1313
 6279TIP3    H118843   1.846   2.405   2.441  0.8130 -0.6787 -0.3188
 6279TIP3    H218844   1.747   2.390   2.328 -1.9553  0.9800  1.7336
 6280TIP3   OH218845   1.151   4.291   2.334  0.7668  0.9285  0.1728
 6280TIP3    H118846   1.227   4.338   2.300  0.7990  0.9559  0.2821
 6280TIP3    H218847   1.188   4.220   2.386  0.7626 -0.3424 -1.4463
 6281TIP3   OH218848   4.015   1.498   3.119  0.1623  0.5646  0.4189
 6281TIP3    H118849   4.057   1.433   3.062  1.2133  1.9284 -0.4244
 6281TIP3    H218850   3.934   1.456   3.147  0.2568 -0.6751 -1.0075
 6282TIP3   OH218851   3.704   0.363   1.664 -0.3158 -0.0528  0.0503
 6282TIP3    H118852   3.672   0.411   1.588 -1.7217 -2.7000 -1.1919
 6282TIP3    H218853   3.632   0.369   1.728 -0.6689 -0.7536 -0.2642
 6283TIP3   OH218854   4.703   0.994   0.721  0.0151 -0.4530  0.4011
 6283TIP3    H118855   4.769   1.049   0.763  1.3121 -1.0945 -0.7121
 6283TIP3    H218856   4.753   0.931   0.670 -1.4656 -0.6887 -0.8454
 6284TIP3   OH218857   5.511   4.401   1.912  0.0528  0.0924 -0.1668
 6284TIP3    H118858   5.510   4.428   2.004 -0.7465  0.5646 -0.3013
 6284TIP3    H218859   5.457   4.467   1.867 -3.3796 -2.4972 -0.2638
 6285TIP3   OH218860   3.634   4.870   2.466 -0.1010  0.5852  0.2162
 6285TIP3    H118861   3.641   4.859   2.372  2.1542  1.9002  0.1513
 6285TIP3    H218862   3.680   4.795   2.503 -0.9077  0.1164  0.2959
 6286TIP3   OH218863   5.307   2.982   2.631 -0.6393  0.3400  0.3722
 6286TIP3    H118864   5.346   2.898   2.654 -0.2359  0.3117 -0.3864
 6286TIP3    H218865   5.309   3.033   2.712  1.4454  0.5216  0.2580
 6287TIP3   OH218866   1.030   0.408   1.774  0.0913 -0.4450  0.4866
 6287TIP3    H118867   0.944   0.419   1.734  0.0021 -1.4074  0.3688
 6287TIP3    H218868   1.014   0.414   1.868 -0.2016 -1.1165  0.4874
 6288TIP3   OH218869   1.964   1.829   1.113  0.0429 -0.0857 -0.3257
 6288TIP3    H118870   2.014   1.759   1.070 -0.6842 -0.5837 -0.3670
 6288TIP3    H218871   1.914   1.784   1.181 -0.0657  0.4705 -0.0356
 6289TIP3   OH218872   6.139   5.465   2.770  0.2540 -0.5155 -0.3508
 6289TIP3    H118873   6.052   5.438   2.741 -0.5345  1.6122 -0.1621
 6289TIP3    H218874   6.163   5.537   2.712  1.5195 -0.5151  0.1389
 6290TIP3   OH218875   3.571   0.798   1.485 -0.2319  0.2271  0.3651
 6290TIP3    H118876   3.483   0.834   1.475  0.8633  2.8798 -0.6279
 6290TIP3    H218877   3.589   0.805   1.579 -0.9020  0.1352  0.5045
 6291TIP3   OH218878   1.239   2.948   2.904  0.4593  0.2668 -0.5902
 6291TIP3    H118879   1.256   3.002   2.982  0.4988 -0.6488  0.0601
 6291TIP3    H218880   1.156   2.981   2.870 -0.1877 -0.1055  0.5587
 6292TIP3   OH218881   4.358   4.042   2.125 -0.5652 -0.2277  0.3324
 6292TIP3    H118882   4.287   4.002   2.175 -1.0488 -2.2833 -1.8000
 6292TIP3    H218883   4.430   3.978   2.130  0.6393  1.1309  1.2051
 6293TIP3   OH218884   6.025   4.800   4.233  0.3459  0.0802 -0.2399
 6293TIP3    H118885   6.082   4.724   4.221  1.8108  1.1472 -0.2238
 6293TIP3    H218886   6.071   4.856   4.295 -0.9411  0.7766  0.1354
 6294TIP3   OH218887   5.757   1.788   1.824  0.3790 -0.0265  0.1323
 6294TIP3    H118888   5.695   1.803   1.895 -1.4786 -2.1286 -0.9070
 6294TIP3    H218889   5.709   1.814   1.745  0.7964 -1.6263 -0.6890
 6295TIP3   OH218890   5.746   2.846   2.538  0.2484  0.2894 -0.3148
 6295TIP3    H118891   5.809   2.885   2.598  1.4189 -1.3540 -0.4081
 6295TIP3    H218892   5.668   2.829   2.592  0.7401  0.2201  0.3828
 6296TIP3   OH218893   3.234   5.456   4.874  0.1905 -0.2764 -0.0867
 6296TIP3    H118894   3.169   5.386   4.873  0.0159 -0.1196  0.2455
 6296TIP3    H218895   3.316   5.412   4.898 -0.0874 -0.2281  0.9953
 6297TIP3   OH218896   5.492   3.586   0.356 -0.3262  0.6698  0.6128
 6297TIP3    H118897   5.405   3.624   0.339 -1.8757 -3.0597 -0.8394
 6297TIP3    H218898   5.474   3.496   0.384  3.0816  0.5695  3.0496
 6298TIP3   OH218899   0.503   5.151   4.871  0.4053 -0.3703 -0.6588
 6298TIP3    H118900   0.571   5.184   4.929  0.5861 -1.0084 -0.4968
 6298TIP3    H218901   0.449   5.227   4.850  0.2723 -0.1513  0.4349
 6299TIP3   OH218902   2.806   4.457   2.458  0.1556  0.2224  0.0029
 6299TIP3    H118903   2.891   4.476   2.419  0.3256  0.6967  0.5936
 6299TIP3    H218904   2.743   4.501   2.400  0.4438  1.3537  0.5097
 6300TIP3   OH218905   0.610   4.087   4.592 -0.1263 -0.5505  0.5861
 6300TIP3    H118906   0.619   4.151   4.521 -2.1247  0.3331  1.0686
 6300TIP3    H218907   0.700   4.071   4.621  0.4217  2.5605  0.9093
 6301TIP3   OH218908   2.883   4.238   0.662 -0.9008 -0.0407  0.1203
 6301TIP3    H118909   2.811   4.189   0.701 -0.1139 -1.1251  0.2676
 6301TIP3    H218910   2.912   4.298   0.731 -1.9592  0.7541 -0.1068
 6302TIP3   OH218911   3.292   5.237   3.359  0.7936 -0.6506 -0.0340
 6302TIP3    H118912   3.345   5.165   3.393  0.1994 -1.2022 -0.2434
 6302TIP3    H218913   3.313   5.311   3.416  0.7887 -1.2168  0.7200
 6303TIP3   OH218914   5.197   0.985   1.857 -0.2242  0.4641  0.8287
 6303TIP3    H118915   5.144   0.935   1.795  0.4450 -0.8363  1.2881
 6303TIP3    H218916   5.207   0.928   1.932  3.9414 -0.4528 -0.1955
 6304TIP3   OH218917   2.909   2.949   0.704 -0.1531  0.4483 -0.3859
 6304TIP3    H118918   2.981   3.011   0.718  0.7805 -0.7780  0.4302
 6304TIP3    H218919   2.874   2.933   0.792  1.8843 -2.7765 -0.0156
 6305TIP3   OH218920   4.154   5.647   3.025 -0.2101 -0.4722  0.2647
 6305TIP3    H118921   4.207   5.632   3.103  2.1828  0.5289 -1.0699
 6305TIP3    H218922   4.160   5.566   2.975  0.9297 -0.0466 -0.3273
 6306TIP3   OH218923   1.264   5.735   1.440  0.1928 -0.4904  0.5920
 6306TIP3    H118924   1.317   5.726   1.361 -0.5058 -1.1851  0.1854
 6306TIP3    H218925   1.219   5.651   1.449 -0.9334  0.1112  0.8458
 6307TIP3   OH218926   5.584   2.793   1.421  1.1152  0.4260  0.2744
 6307TIP3    H118927   5.615   2.790   1.330  0.5645  1.8261  0.0004
 6307TIP3    H218928   5.505   2.848   1.417  0.8622  0.1869  1.5422
 6308TIP3   OH218929   2.302   3.242   3.958  0.0427 -0.0990  0.4995
 6308TIP3    H118930   2.317   3.154   3.923 -1.0459 -0.5306  1.0565
 6308TIP3    H218931   2.220   3.270   3.918  1.1570  1.3237 -0.8765
 6309TIP3   OH218932   3.740   5.527   3.772 -0.0328  0.6639 -0.6681
 6309TIP3    H118933   3.688   5.462   3.725 -1.2183  1.0282  0.0981
 6309TIP3    H218934   3.830   5.509   3.746 -0.4659 -0.4652 -1.4536
 6310TIP3   OH218935   6.268   0.853   2.185 -0.0317 -0.0512 -0.4457
 6310TIP3    H118936   6.354   0.850   2.228 -0.8526  0.7119  1.3309
 6310TIP3    H218937   6.287   0.832   2.093  2.2116  1.2253 -0.3434
 6311TIP3   OH218938   0.313   0.438   0.896 -0.5700  0.1777  0.3689
 6311TIP3    H118939   0.321   0.465   0.804  0.7369  0.8268  0.6606
 6311TIP3    H218940   0.332   0.517   0.946 -1.6730 -0.0680  1.2152
 6312TIP3   OH218941   3.801   0.147   0.835 -0.3669 -0.1229 -0.0327
 6312TIP3    H118942   3.895   0.147   0.854 -0.3730 -0.3507  0.0084
 6312TIP3    H218943   3.787   0.067   0.784 -0.7290 -0.7340  0.9742
 6313TIP3   OH218944   0.991   5.364   4.743  0.2632 -0.6681  0.0144
 6313TIP3    H118945   0.952   5.356   4.656 -1.9810 -2.0252  1.0325
 6313TIP3    H218946   1.078   5.327   4.734 -0.0369 -1.0549 -1.5897
 6314TIP3   OH218947   2.110   3.466   3.604 -0.1488 -0.1307  0.3700
 6314TIP3    H118948   2.073   3.450   3.518  2.2255 -0.4707 -0.6719
 6314TIP3    H218949   2.063   3.542   3.638  0.0891  1.1492 -2.0104
 6315TIP3   OH218950   0.620   3.134   0.381  0.2991  0.2360 -0.1984
 6315TIP3    H118951   0.580   3.150   0.295  2.0276  0.1975 -1.0396
 6315TIP3    H218952   0.712   3.158   0.370  0.2915  1.5606  2.0398
 6316TIP3   OH218953   0.999   2.612   3.440  0.1747 -0.3581  0.3096
 6316TIP3    H118954   1.089   2.582   3.430 -0.1060 -2.0164  2.1271
 6316TIP3    H218955   0.949   2.564   3.374  0.5831  0.4751 -0.6207
 6317TIP3   OH218956   2.748   4.995   0.904 -0.7126  0.7451 -0.0064
 6317TIP3    H118957   2.740   4.902   0.884  1.3347  1.0907 -3.0604
 6317TIP3    H218958   2.831   5.002   0.952 -0.0813  1.1158 -1.1223
 6318TIP3   OH218959   0.735   0.412   3.273  0.2665 -0.0238 -0.5235
 6318TIP3    H118960   0.728   0.316   3.270 -0.5930  0.0520 -1.4814
 6318TIP3    H218961   0.662   0.443   3.219 -0.6203  1.2326  1.2922
 6319TIP3   OH218962   1.396   4.648   3.153  0.3206 -0.2470  0.3770
 6319TIP3    H118963   1.349   4.731   3.143  0.3208 -0.2028  0.7285
 6319TIP3    H218964   1.469   4.655   3.091  0.8235  0.3909  1.0059
 6320TIP3   OH218965   0.195   3.360   1.063  0.0703 -0.5422 -0.0024
 6320TIP3    H118966   0.112   3.394   1.031 -1.5885 -2.6114  1.7335
 6320TIP3    H218967   0.258   3.379   0.994 -1.8328  1.0436 -1.4072
 6321TIP3   OH218968   3.728   1.670   2.164 -0.4843  0.1416 -0.1516
 6321TIP3    H118969   3.688   1.585   2.183  1.8760 -1.0111 -0.0098
 6321TIP3    H218970   3.664   1.714   2.107 -2.0349 -1.4527  0.2588
 6322TIP3   OH218971   1.035   2.477   3.064  0.0911  0.2039 -0.3855
 6322TIP3    H118972   0.955   2.523   3.036  0.1619  0.1599 -0.6706
 6322TIP3    H218973   1.095   2.546   3.091  0.4099  0.3329 -1.3630
 6323TIP3   OH218974   0.995   5.165   3.743 -0.4702 -0.1751  0.0303
 6323TIP3    H118975   0.996   5.070   3.759 -0.8995 -0.0809  0.6419
 6323TIP3    H218976   0.905   5.184   3.717 -0.2223 -0.0345 -0.7548
 6324TIP3   OH218977   0.936   4.653   1.439  0.0449 -0.4770  0.3216
 6324TIP3    H118978   0.861   4.640   1.382 -0.5953  0.4705  0.9352
 6324TIP3    H218979   0.984   4.726   1.400  1.2903 -1.7536 -0.6885
 6325TIP3   OH218980   4.537   4.081   0.432  0.0479 -0.2237 -0.2234
 6325TIP3    H118981   4.603   4.067   0.365 -1.1482  0.6606 -1.6378
 6325TIP3    H218982   4.551   4.171   0.461  3.0657 -1.5957  3.6720
 6326TIP3   OH218983   4.439   2.023   1.488 -0.0200  0.1368 -0.3889
 6326TIP3    H118984   4.368   2.036   1.551 -0.5610  0.3538 -1.0349
 6326TIP3    H218985   4.402   1.965   1.421  1.2634 -2.0826  0.6686
 6327TIP3   OH218986   0.638   5.873   3.007 -0.5745  0.3755  0.0280
 6327TIP3    H118987   0.584   5.918   2.942 -0.4599 -0.3835 -0.6080
 6327TIP3    H218988   0.621   5.780   2.992  3.2713 -0.1662 -2.3818
 6328TIP3   OH218989   0.069   0.390   2.389  0.3944  0.4976  0.0433
 6328TIP3    H118990  -0.005   0.441   2.354 -0.3594 -0.9798 -0.5997
 6328TIP3    H218991   0.145   0.446   2.373 -0.6163  2.3722  1.3515
 6329TIP3   OH218992   1.592   1.834   1.950 -0.3346  0.3898  0.0714
 6329TIP3    H118993   1.636   1.757   1.987 -1.7091 -1.0159 -1.0893
 6329TIP3    H218994   1.505   1.802   1.927 -0.8541  2.2567 -0.6693
 6330TIP3   OH218995   3.326   1.351   4.063 -0.1299  0.6926  0.2568
 6330TIP3    H118996   3.247   1.402   4.083 -0.4009  0.2968  0.2082
 6330TIP3    H218997   3.337   1.294   4.139 -0.4371  0.0773 -0.1511
 6331TIP3   OH218998   4.196   0.996   2.314  0.1438 -0.0084 -0.0291
 6331TIP3    H118999   4.119   0.940   2.308  1.1163 -1.2315 -2.7568
 6331TIP3    H219000   4.171   1.077   2.269 -0.3584  0.7409  1.5034
 6332TIP3   OH219001   1.141   4.927   0.660  0.2387 -0.4847  0.0332
 6332TIP3    H119002   1.154   4.877   0.579  1.0087 -1.4963  0.7694
 6332TIP3    H219003   1.046   4.925   0.674  0.0714 -0.1471 -0.9180
 6333TIP3   OH219004   4.843   4.589   0.980  0.3968 -0.4272  0.2595
 6333TIP3    H119005   4.830   4.538   0.900  0.7064  0.6868 -0.5133
 6333TIP3    H219006   4.791   4.668   0.967  1.2813  0.2454  0.7015
 6334TIP3   OH219007   3.104   3.011   2.074 -0.3045  0.0818  0.3839
 6334TIP3    H119008   3.066   3.060   2.147 -1.3133 -0.7301  0.4211
 6334TIP3    H219009   3.159   2.945   2.116  1.2937  1.3312  0.3279
 6335TIP3   OH219010   4.791   3.849   3.462 -0.2636 -0.1722  0.2823
 6335TIP3    H119011   4.776   3.763   3.501  1.5141 -0.2903  0.7805
 6335TIP3    H219012   4.886   3.861   3.465 -0.4145  1.5219 -0.4086
 6336TIP3   OH219013   5.250   0.682   0.101 -0.4658  0.1413  0.1312
 6336TIP3    H119014   5.216   0.725   0.023  0.7532  0.9191 -0.0109
 6336TIP3    H219015   5.338   0.719   0.112 -1.2164  1.3737  2.8822
 6337TIP3   OH219016   1.458   2.767   1.266  0.1645 -0.0768  0.0459
 6337TIP3    H119017   1.533   2.709   1.277  1.5527  1.6891  0.2835
 6337TIP3    H219018   1.493   2.844   1.221 -1.0488  1.6235  1.8426
 6338TIP3   OH219019   1.703   5.196   1.118 -0.0926 -0.3663  0.3463
 6338TIP3    H119020   1.787   5.218   1.158 -0.4775 -1.8552  2.0726
 6338TIP3    H219021   1.637   5.225   1.181 -0.9994  1.6345 -1.3814
 6339TIP3   OH219022   4.331   5.026   3.314  0.3659 -0.1669  0.2937
 6339TIP3    H119023   4.330   5.120   3.295 -0.1949 -0.3184 -0.4852
 6339TIP3    H219024   4.249   4.993   3.277  1.6376 -1.3590 -1.6574
 6340TIP3   OH219025   2.558   4.460   2.108  0.0040  0.2226  0.3256
 6340TIP3    H119026   2.633   4.519   2.108  0.6364 -0.5313 -1.1688
 6340TIP3    H219027   2.568   4.408   2.188  1.9861 -0.9266 -0.5957
 6341TIP3   OH219028   0.899   4.129   4.689 -0.8168  0.2916 -0.2970
 6341TIP3    H119029   0.937   4.168   4.610  2.1256  1.8807  1.7424
 6341TIP3    H219030   0.869   4.204   4.741 -0.6117 -0.5512  1.0938
 6342TIP3   OH219031   1.158   0.117   1.346 -0.1572  0.2860 -0.0887
 6342TIP3    H119032   1.116   0.176   1.284 -0.9147  0.2011  0.3337
 6342TIP3    H219033   1.219   0.172   1.395  0.7203  0.2849 -1.1322
 6343TIP3   OH219034   2.966   1.167   3.784 -0.3278 -0.2123  0.0692
 6343TIP3    H119035   2.898   1.154   3.850 -0.0564 -0.9013  0.2233
 6343TIP3    H219036   2.942   1.108   3.712 -0.5198  0.3968 -0.3715
 6344TIP3   OH219037   3.079   2.096   4.095 -0.0254  0.1380  0.3066
 6344TIP3    H119038   3.147   2.045   4.139  1.4292  1.5393 -0.2343
 6344TIP3    H219039   3.102   2.187   4.113 -0.0829  0.7227 -2.2383
 6345TIP3   OH219040   3.258   1.667   1.107  0.4356  0.3159 -0.0175
 6345TIP3    H119041   3.237   1.760   1.102 -2.3041 -0.2835 -3.1744
 6345TIP3    H219042   3.321   1.653   1.036  0.9725 -0.2321  0.5588
 6346TIP3   OH219043   1.635   4.299   4.111 -0.3560 -0.1294 -0.3088
 6346TIP3    H119044   1.549   4.333   4.135 -0.2095  0.6847 -0.9029
 6346TIP3    H219045   1.660   4.243   4.185 -0.8351  0.6407  0.4522
 6347TIP3   OH219046   6.295   1.655   0.881 -0.4227 -0.2909 -0.1588
 6347TIP3    H119047   6.207   1.646   0.916 -0.4300  1.4959  0.3607
 6347TIP3    H219048   6.295   1.740   0.837  0.6738 -0.8403 -1.2920
 6348TIP3   OH219049   3.974   3.578   0.852  0.0157 -0.1616 -0.3012
 6348TIP3    H119050   4.049   3.567   0.794 -0.8329  1.4749 -1.8192
 6348TIP3    H219051   3.898   3.580   0.793 -1.0243  0.1505  0.9969
 6349TIP3   OH219052   0.672   4.652   4.428 -0.2856 -0.1012 -0.0738
 6349TIP3    H119053   0.600   4.589   4.428 -0.0214 -0.4969  2.3363
 6349TIP3    H219054   0.741   4.609   4.377 -0.3819 -1.4851  0.8965
 6350TIP3   OH219055   0.491   0.778   3.729  0.4335  0.4715  0.4120
 6350TIP3    H119056   0.553   0.749   3.662 -0.8928  1.7614 -1.4733
 6350TIP3    H219057   0.457   0.697   3.767  0.3713 -0.3538 -1.2987
 6351TIP3   OH219058   1.614   4.936   1.329 -0.8563  0.4487  0.2354
 6351TIP3    H119059   1.544   4.902   1.272 -0.3378  0.1549 -0.2355
 6351TIP3    H219060   1.568   4.965   1.407 -1.3646 -1.0814  0.5450
 6352TIP3   OH219061   3.472   4.367   3.966  0.3462  0.6705 -0.0527
 6352TIP3    H119062   3.423   4.424   4.026 -0.8418  0.1383 -0.5145
 6352TIP3    H219063   3.410   4.344   3.897  0.9225 -0.8739 -0.0875
 6353TIP3   OH219064   5.141   0.788   3.847  0.4889  0.5034 -0.6607
 6353TIP3    H119065   5.056   0.816   3.814 -0.1424 -1.3226 -0.7388
 6353TIP3    H219066   5.191   0.766   3.768  0.1081 -0.8210 -0.5600
 6354TIP3   OH219067   2.440   1.523   0.282  0.4140  0.3147 -0.6742
 6354TIP3    H119068   2.446   1.530   0.377  0.5217 -1.0667 -0.5568
 6354TIP3    H219069   2.388   1.598   0.256 -1.2030 -0.2814  0.6774
 6355TIP3   OH219070   0.856   4.294   2.772  0.3136  0.2649  0.4878
 6355TIP3    H119071   0.788   4.244   2.728  1.7183 -0.5965 -0.8208
 6355TIP3    H219072   0.908   4.229   2.819  1.8399  0.4753 -0.8027
 6356TIP3   OH219073   3.545   1.186   4.936 -0.3994 -0.5871 -0.3182
 6356TIP3    H119074   3.498   1.267   4.957 -0.9234 -1.0171  0.2130
 6356TIP3    H219075   3.478   1.117   4.942  0.0542 -1.0673 -0.6872
 6357TIP3   OH219076   5.486   1.736   0.963 -0.2157 -0.6537 -0.3647
 6357TIP3    H119077   5.563   1.720   1.018 -1.1655  0.1447  1.2907
 6357TIP3    H219078   5.468   1.829   0.975 -0.3784 -0.4028 -2.2149
 6358TIP3   OH219079   3.805   2.245   0.088  0.4625 -0.3575 -0.0041
 6358TIP3    H119080   3.808   2.336   0.060  2.5010 -1.0759 -2.4700
 6358TIP3    H219081   3.873   2.238   0.155 -0.2252  0.0246  0.7704
 6359TIP3   OH219082   6.150   5.042   3.339  0.2922  0.4332 -0.3194
 6359TIP3    H119083   6.143   4.971   3.402 -0.8912  0.3212 -0.5495
 6359TIP3    H219084   6.227   5.021   3.286  1.5973  0.7812  1.3753
 6360TIP3   OH219085   0.092   3.638   0.385 -0.3089  0.3174  0.6158
 6360TIP3    H119086   0.087   3.608   0.476 -0.7704 -0.4969  0.3280
 6360TIP3    H219087   0.059   3.564   0.333  0.8419  0.4160 -0.2903
 6361TIP3   OH219088   1.091   3.350   3.752  0.8811  0.6352 -0.1059
 6361TIP3    H119089   1.148   3.414   3.795  0.9108  0.4946  0.0648
 6361TIP3    H219090   1.057   3.396   3.675  0.5142  1.0254  0.2818
 6362TIP3   OH219091   5.917   5.807   3.019 -0.1688  0.1038 -0.0665
 6362TIP3    H119092   5.871   5.725   3.000  0.3821 -0.3251  0.3923
 6362TIP3    H219093   6.003   5.779   3.052  0.0079  0.8661  0.1437
 6363TIP3   OH219094   0.383   1.824   3.947  0.0485  0.0117  0.5823
 6363TIP3    H119095   0.313   1.793   3.889  0.2003 -0.1280  0.4719
 6363TIP3    H219096   0.380   1.765   4.022  1.2653 -1.1904 -0.2726
 6364TIP3   OH219097   2.023   4.009   4.195  0.2656 -0.2504  0.0692
 6364TIP3    H119098   2.068   4.016   4.111 -0.8210  1.6547 -0.4139
 6364TIP3    H219099   2.081   4.053   4.257  0.6872 -0.9382  0.1754
 6365TIP3   OH219100   0.370   2.435   4.674 -0.4577 -0.6399 -0.0974
 6365TIP3    H119101   0.403   2.397   4.755  1.9900 -1.1125 -1.2302
 6365TIP3    H219102   0.316   2.367   4.634 -0.5424 -0.8987  0.4571
 6366TIP3   OH219103   1.216   3.156   0.523 -0.1229 -0.6370 -0.0903
 6366TIP3    H119104   1.177   3.151   0.436 -0.8511  0.1235  0.1762
 6366TIP3    H219105   1.143   3.147   0.583  0.2339 -0.1417  0.4331
 6367TIP3   OH219106   1.144   0.650   5.021  0.3439 -0.0016  0.6165
 6367TIP3    H119107   1.082   0.722   5.026 -0.9024 -1.1056  2.4779
 6367TIP3    H219108   1.158   0.637   4.927 -1.1258  1.2176  0.1845
 6368TIP3   OH219109   4.871   0.236   0.742  0.2224  0.1847 -0.2486
 6368TIP3    H119110   4.853   0.142   0.749  0.4449  0.2238  1.0405
 6368TIP3    H219111   4.841   0.259   0.654  1.1289 -1.2876 -0.9846
 6369TIP3   OH219112   0.612   3.709   1.863  0.4708  0.1366 -0.3692
 6369TIP3    H119113   0.615   3.619   1.896  0.4481  0.3933  0.3663
 6369TIP3    H219114   0.553   3.706   1.788 -1.2555 -0.0788  0.9331
 6370TIP3   OH219115   5.426   2.264   4.407  0.0762 -0.3415  0.0227
 6370TIP3    H119116   5.472   2.221   4.334  0.3147  1.1378 -0.7370
 6370TIP3    H219117   5.430   2.357   4.386 -1.3517 -0.0123  1.0842
 6371TIP3   OH219118   1.540   3.294   5.071 -0.3211  0.2581  0.2094
 6371TIP3    H119119   1.503   3.382   5.064 -1.1185 -0.1619 -1.2294
 6371TIP3    H219120   1.465   3.237   5.086  0.2488 -0.1400  1.7109
 6372TIP3   OH219121   3.021   1.458   1.989  0.3610 -0.0757  0.4935
 6372TIP3    H119122   2.935   1.487   1.959  1.2172  1.4799 -0.6060
 6372TIP3    H219123   3.046   1.523   2.055  0.7324 -0.4935  0.7730
 6373TIP3   OH219124   1.715   4.210   4.689  0.4215  0.2630  0.2091
 6373TIP3    H119125   1.659   4.270   4.639  0.5927  0.2410 -0.0106
 6373TIP3    H219126   1.656   4.168   4.751  0.4057  1.1000  0.7749
 6374TIP3   OH219127   4.996   0.150   1.360  0.5299  0.3614  0.0442
 6374TIP3    H119128   5.082   0.133   1.323  1.1293 -0.7999  1.8527
 6374TIP3    H219129   4.955   0.064   1.368 -0.2662  0.7610  0.4629
 6375TIP3   OH219130   4.060   0.721   4.961 -0.7462 -0.3185 -0.2291
 6375TIP3    H119131   4.077   0.631   4.987  2.7830  0.6265  1.4179
 6375TIP3    H219132   4.056   0.770   5.044  1.0341  1.4603 -1.0936
 6376TIP3   OH219133   0.603   4.268   3.271  0.2662 -0.8904  0.4887
 6376TIP3    H119134   0.597   4.172   3.267  1.6439 -0.9706 -0.5449
 6376TIP3    H219135   0.655   4.291   3.194  0.9699  0.5992  1.3734
 6377TIP3   OH219136   1.054   0.118   3.639 -0.6426 -0.1505  0.6967
 6377TIP3    H119137   0.974   0.101   3.589 -1.2791  0.2469  1.5465
 6377TIP3    H219138   1.024   0.124   3.730  0.1340  1.4994  0.8646
 6378TIP3   OH219139   5.954   5.109   3.793  0.9803 -0.2322  0.2174
 6378TIP3    H119140   6.023   5.049   3.765  0.8975  0.0760 -0.6483
 6378TIP3    H219141   5.942   5.088   3.886  1.3712 -1.1428  0.0804
 6379TIP3   OH219142   3.622   0.623   0.958 -0.0477 -0.4208 -0.5557
 6379TIP3    H119143   3.668   0.539   0.954  0.2383 -0.2765 -0.2821
 6379TIP3    H219144   3.586   0.626   1.046  0.2037 -0.1185 -0.4615
 6380TIP3   OH219145   5.622   3.484   3.564 -0.4511  0.5695  0.4541
 6380TIP3    H119146   5.613   3.562   3.619 -1.7366  2.7808 -2.5927
 6380TIP3    H219147   5.533   3.448   3.558 -0.6380  1.2009 -1.1766
 6381TIP3   OH219148   5.272   3.832   2.608  0.1096 -0.0465 -0.0282
 6381TIP3    H119149   5.271   3.909   2.664 -1.5719  0.5980 -0.8741
 6381TIP3    H219150   5.324   3.768   2.656  0.4127  1.1579  1.3056
 6382TIP3   OH219151   0.128   4.477   4.004 -0.3683 -0.1416  0.1331
 6382TIP3    H119152   0.143   4.392   3.963  0.4224  0.1291 -0.1720
 6382TIP3    H219153   0.216   4.510   4.024 -0.6890  0.3292  0.8260
 6383TIP3   OH219154   5.102   4.891   3.189 -0.7488 -0.1891 -0.3595
 6383TIP3    H119155   5.034   4.825   3.179 -1.1872  0.2596 -0.4057
 6383TIP3    H219156   5.056   4.966   3.228 -0.2968  0.1448 -0.4669
 6384TIP3   OH219157   1.678   2.862   0.557 -0.1215  0.4683 -0.2787
 6384TIP3    H119158   1.615   2.797   0.526  1.2462 -1.6930  1.2505
 6384TIP3    H219159   1.653   2.878   0.648  1.9738 -1.0558  0.6138
 6385TIP3   OH219160   1.733   4.979   2.008 -0.5780 -0.0436 -0.0483
 6385TIP3    H119161   1.818   5.020   1.991 -1.1632  0.8739 -0.8583
 6385TIP3    H219162   1.680   5.049   2.047 -0.8602 -0.7140  0.8074
 6386TIP3   OH219163   0.213   1.715   0.990 -0.0432  0.5363 -0.2201
 6386TIP3    H119164   0.147   1.696   0.924 -0.6124 -2.4560  1.0796
 6386TIP3    H219165   0.169   1.773   1.052 -0.9547 -0.1995 -0.1696
 6387TIP3   OH219166   5.631   3.271   4.622  0.0727 -0.3716 -0.4427
 6387TIP3    H119167   5.688   3.263   4.545  0.6177 -2.8804  0.1373
 6387TIP3    H219168   5.690   3.300   4.692  0.2137 -0.9245 -0.3259
 6388TIP3   OH219169   0.047   1.686   1.307  0.0041  0.5765  0.4176
 6388TIP3    H119170  -0.025   1.629   1.281  0.2450  0.8227 -0.8344
 6388TIP3    H219171   0.028   1.770   1.265  0.7854  0.7763  0.4422
 6389TIP3   OH219172   3.769   0.853   0.455  0.3686 -0.3697  0.2072
 6389TIP3    H119173   3.725   0.843   0.371  2.7663  0.3336 -1.2576
 6389TIP3    H219174   3.715   0.805   0.517 -2.0735 -0.0256 -1.4965
 6390TIP3   OH219175   2.654   2.129   3.277 -0.0456 -0.8603 -0.0795
 6390TIP3    H119176   2.686   2.039   3.286  0.7875 -0.5621  0.0313
 6390TIP3    H219177   2.715   2.169   3.215 -0.9335 -0.6125 -0.8095
 6391TIP3   OH219178   5.886   3.082   3.566 -0.4997  0.0761 -0.0855
 6391TIP3    H119179   5.936   3.127   3.499  0.5082 -0.2495  0.4352
 6391TIP3    H219180   5.916   2.991   3.563 -1.7709 -0.3557 -0.4317
 6392TIP3   OH219181   1.321   3.581   0.965 -0.0127  0.5278 -0.0191
 6392TIP3    H119182   1.412   3.573   0.937  0.1358 -0.9565  0.8391
 6392TIP3    H219183   1.324   3.641   1.040  0.4338 -0.4712  0.7745
 6393TIP3   OH219184   0.287   1.382   3.572 -0.3200 -0.2042 -0.0036
 6393TIP3    H119185   0.306   1.344   3.486 -0.2271  1.7142 -0.8724
 6393TIP3    H219186   0.362   1.439   3.589 -0.4934 -0.3227  1.2280
 6394TIP3   OH219187   5.986   0.595   1.135 -0.4076  0.2452 -0.2335
 6394TIP3    H119188   6.077   0.578   1.110 -0.3179 -0.3008  0.4294
 6394TIP3    H219189   5.952   0.509   1.162 -0.6104  0.7228  1.1260
 6395TIP3   OH219190   0.820   2.262   2.103 -0.2994 -0.1545 -0.2288
 6395TIP3    H119191   0.868   2.182   2.125 -0.2407  0.6131  2.8612
 6395TIP3    H219192   0.729   2.234   2.098 -0.2317 -0.5031  0.4108
 6396TIP3   OH219193   3.835   0.378   3.527 -0.2941  0.5635  0.2327
 6396TIP3    H119194   3.874   0.291   3.531  1.1880  1.1514 -0.3977
 6396TIP3    H219195   3.764   0.370   3.464  0.4824  0.0200 -0.6070
 6397TIP3   OH219196   2.408   3.765   5.105 -0.4645  0.1620  0.2078
 6397TIP3    H119197   2.413   3.747   5.199  0.3249 -1.6506 -0.1523
 6397TIP3    H219198   2.330   3.717   5.076  0.1000 -0.4572 -0.3015
 6398TIP3   OH219199   2.795   3.315   2.202 -0.0721 -0.1504 -0.5997
 6398TIP3    H119200   2.863   3.321   2.134  1.8866  0.0419  1.2634
 6398TIP3    H219201   2.822   3.241   2.256 -2.2436 -1.0386 -0.6375
 6399TIP3   OH219202   4.162   0.741   1.260 -0.3512  0.1741 -0.1234
 6399TIP3    H119203   4.255   0.729   1.279 -0.7568 -1.2151  1.1949
 6399TIP3    H219204   4.157   0.751   1.165  1.4298  3.5809 -0.0095
 6400TIP3   OH219205   1.844   3.075   3.698  0.7120  0.0658 -0.1149
 6400TIP3    H119206   1.774   3.009   3.695  0.9172 -0.1140 -1.3024
 6400TIP3    H219207   1.809   3.149   3.649  1.4560 -0.1353 -0.9698
 6401TIP3   OH219208   5.616   3.852   3.406  0.3036  0.1672 -0.0739
 6401TIP3    H119209   5.691   3.796   3.425  1.1759  1.2737 -0.1720
 6401TIP3    H219210   5.613   3.914   3.478 -0.4875  0.1745 -0.1066
 6402TIP3   OH219211   4.130   3.829   2.625 -0.2348  0.2615 -0.5482
 6402TIP3    H119212   4.156   3.761   2.562  1.9770  2.2378 -1.9120
 6402TIP3    H219213   4.120   3.908   2.573  0.4628  1.7169  1.4109
 6403TIP3   OH219214   0.266   2.172   3.604 -0.8711 -0.2429 -0.5401
 6403TIP3    H119215   0.221   2.092   3.633 -1.5185  0.6586  1.0737
 6403TIP3    H219216   0.290   2.217   3.685 -1.3543  1.6587 -1.3949
 6404TIP3   OH219217   4.153   0.535   2.571 -0.3026 -0.2397  0.0066
 6404TIP3    H119218   4.070   0.580   2.584 -0.1828  0.8514 -2.3235
 6404TIP3    H219219   4.204   0.554   2.650 -0.7263  2.8040 -0.3126
 6405TIP3   OH219220   2.390   3.061   3.103  0.0811  0.0778 -0.0464
 6405TIP3    H119221   2.392   3.012   3.022  1.8001  0.0437 -0.0346
 6405TIP3    H219222   2.384   2.995   3.172 -0.8713  0.0810 -0.1154
 6406TIP3   OH219223   2.761   5.705   2.969 -0.0986 -0.3328 -0.2010
 6406TIP3    H119224   2.709   5.628   2.944 -1.1435  0.8857 -2.0601
 6406TIP3    H219225   2.789   5.743   2.886  0.3585  1.3135  0.6658
 6407TIP3   OH219226   0.577   2.017   1.754  0.3115  0.7484 -0.3847
 6407TIP3    H119227   0.585   2.098   1.705 -3.8785  1.3570 -0.4879
 6407TIP3    H219228   0.524   2.040   1.830  0.9139 -1.4889  0.8231
 6408TIP3   OH219229   5.048   5.120   3.593 -0.3606  0.6131  0.1092
 6408TIP3    H119230   5.098   5.055   3.642  1.5486  1.7527 -0.1978
 6408TIP3    H219231   5.055   5.200   3.646 -0.7074  1.1366 -0.6211
 6409TIP3   OH219232   1.948   3.677   4.674  0.9097 -0.0933 -0.3677
 6409TIP3    H119233   1.951   3.773   4.670  1.1685 -0.0985 -0.3232
 6409TIP3    H219234   1.886   3.658   4.744  0.4956  0.0391 -0.6970
 6410TIP3   OH219235   4.976   5.094   3.324 -0.2756  0.1770  0.5398
 6410TIP3    H119236   4.991   5.117   3.416 -0.9052  1.4540  0.3412
 6410TIP3    H219237   5.007   5.170   3.275 -0.4508 -0.2736 -0.2877
 6411TIP3   OH219238   5.303   2.095   1.226  0.1838  0.3358 -0.1244
 6411TIP3    H119239   5.259   2.137   1.299 -0.7222  0.6547 -0.8359
 6411TIP3    H219240   5.273   2.004   1.229 -0.3811  0.5075 -0.4941
 6412TIP3   OH219241   2.166   2.426   3.356 -0.2714  0.1052  0.1462
 6412TIP3    H119242   2.190   2.507   3.401  2.0430  0.3951 -1.3959
 6412TIP3    H219243   2.226   2.360   3.392 -0.4909 -0.3592 -0.3253
 6413TIP3   OH219244   3.367   0.209   1.481 -0.2510 -0.3764  0.5902
 6413TIP3    H119245   3.290   0.173   1.437 -0.7578  0.6204  0.6228
 6413TIP3    H219246   3.425   0.134   1.495 -1.0121 -1.0586  0.1391
 6414TIP3   OH219247   1.257   2.819   0.651 -0.8579 -0.0622  0.2836
 6414TIP3    H119248   1.209   2.739   0.632 -0.4813 -0.2420  0.0834
 6414TIP3    H219249   1.215   2.886   0.596  0.6020 -0.6937 -1.7083
 6415TIP3   OH219250   0.198   3.862   3.275 -0.2414 -0.0766  0.1705
 6415TIP3    H119251   0.157   3.808   3.343  0.4816 -0.5487  0.2337
 6415TIP3    H219252   0.193   3.951   3.310 -0.3238 -0.2552  0.6227
 6416TIP3   OH219253   2.137   0.842   1.577 -0.2037 -0.7832 -0.3358
 6416TIP3    H119254   2.228   0.815   1.587  0.3477  1.1073  0.1431
 6416TIP3    H219255   2.134   0.885   1.491 -0.5908 -0.6439 -0.2541
 6417TIP3   OH219256   3.211   3.411   4.354 -0.1404 -0.2027  0.2833
 6417TIP3    H119257   3.193   3.446   4.266  1.9575 -2.1491 -1.0315
 6417TIP3    H219258   3.244   3.486   4.403 -0.4502  0.7243 -0.8689
 6418TIP3   OH219259   0.411   4.538   4.077  0.1920 -0.4104 -0.0185
 6418TIP3    H119260   0.419   4.603   4.008  0.0643 -1.0336 -0.6270
 6418TIP3    H219261   0.372   4.586   4.150 -2.5837 -0.3982 -1.3756
 6419TIP3   OH219262   0.979   0.128   3.919  0.3812 -0.4471  0.2455
 6419TIP3    H119263   1.024   0.072   3.983  0.3163  0.1319  0.8054
 6419TIP3    H219264   0.891   0.138   3.954 -0.2265 -1.5879 -0.8578
 6420TIP3   OH219265   4.301   1.901   0.059  0.6389  0.3988 -0.2648
 6420TIP3    H119266   4.219   1.860   0.087 -0.1445  0.8510 -1.7485
 6420TIP3    H219267   4.352   1.830   0.021  0.5401  0.2677 -0.1512
 6421TIP3   OH219268   1.462   3.271   2.141 -0.2841 -0.0371  0.0579
 6421TIP3    H119269   1.513   3.191   2.131  0.4980  0.6586 -1.8990
 6421TIP3    H219270   1.405   3.273   2.064 -0.3765  1.2216  0.1458
 6422TIP3   OH219271   0.085   1.171   2.295 -1.1353 -0.4894  0.3423
 6422TIP3    H119272   0.153   1.234   2.321 -0.9929 -1.3171  2.0892
 6422TIP3    H219273   0.133   1.099   2.254 -1.2069  0.0143 -0.6665
 6423TIP3   OH219274   1.018   0.336   3.038  0.0682  0.4697 -0.1888
 6423TIP3    H119275   0.978   0.282   3.106 -0.7078  1.3336  0.0541
 6423TIP3    H219276   0.947   0.354   2.977  1.0060 -1.2973 -1.9321
 6424TIP3   OH219277   3.575   5.522   0.874 -0.0913 -0.8145  0.0889
 6424TIP3    H119278   3.544   5.475   0.797  0.8523  0.6294 -1.2228
 6424TIP3    H219279   3.531   5.607   0.869  1.3646 -0.0291  0.1006
 6425TIP3   OH219280   0.558   1.568   3.236 -0.3221 -0.0540 -0.0980
 6425TIP3    H119281   0.606   1.577   3.153  0.1321 -0.5192  0.1108
 6425TIP3    H219282   0.555   1.657   3.271  1.7372 -0.2168  0.6257
 6426TIP3   OH219283   2.387   1.268   0.214 -0.1690 -0.5213  0.6095
 6426TIP3    H119284   2.390   1.364   0.218 -2.0675 -0.4519  1.8323
 6426TIP3    H219285   2.470   1.243   0.174 -0.7906  1.7729 -2.5708
 6427TIP3   OH219286   1.501   5.616   2.008  0.6013 -0.3717  0.2852
 6427TIP3    H119287   1.566   5.677   2.043  1.0437 -0.3572 -0.5173
 6427TIP3    H219288   1.553   5.549   1.963  0.1118 -1.2446  0.9989
 6428TIP3   OH219289   2.273   5.896   3.332  0.1977  0.4838  0.0477
 6428TIP3    H119290   2.327   5.817   3.337  1.1749  1.1729  0.7218
 6428TIP3    H219291   2.189   5.870   3.371 -0.0834 -0.6633 -1.2260
 6429TIP3   OH219292   4.002   5.362   0.345  0.1048 -0.1615 -0.2945
 6429TIP3    H119293   3.928   5.331   0.292 -0.0496 -0.3039  0.0022
 6429TIP3    H219294   3.966   5.371   0.433  0.9505 -2.2917  0.3362
 6430TIP3   OH219295   2.872   0.030   1.908  0.1940 -0.0876 -0.5150
 6430TIP3    H119296   2.966   0.013   1.903  0.3118 -0.4044  1.7713
 6430TIP3    H219297   2.865   0.122   1.930 -0.0295 -0.1408 -0.3562
 6431TIP3   OH219298   1.722   3.036   4.420 -0.0796  0.2282 -0.5218
 6431TIP3    H119299   1.785   3.103   4.447 -0.0632  0.0642 -0.1384
 6431TIP3    H219300   1.719   3.042   4.325 -1.7394  2.2696 -0.3931
 6432TIP3   OH219301   4.708   5.131   2.922  0.3702  0.2858  0.8327
 6432TIP3    H119302   4.760   5.133   3.002  0.5875  0.9765  0.6842
 6432TIP3    H219303   4.773   5.127   2.851  0.2665  1.5951  0.6270
 6433TIP3   OH219304   3.645   5.967   0.503  0.5648 -0.0845 -0.0865
 6433TIP3    H119305   3.612   5.897   0.559  0.3650 -0.5304 -0.7536
 6433TIP3    H219306   3.697   5.923   0.436  1.9856  0.5580  0.5556
 6434TIP3   OH219307   3.999   3.939   3.485  0.7154  0.1948 -0.3629
 6434TIP3    H119308   4.074   3.939   3.425  0.7401  0.7176 -0.3303
 6434TIP3    H219309   3.969   3.848   3.485  2.2769 -0.3659  0.7594
 6435TIP3   OH219310   5.560   4.509   2.158  0.5605 -0.0954  0.0109
 6435TIP3    H119311   5.611   4.450   2.213 -0.1867  0.8295  1.7495
 6435TIP3    H219312   5.610   4.590   2.156  0.7265 -0.2070 -0.9471
 6436TIP3   OH219313   3.207   2.373   1.600  0.7630 -0.4424 -0.0043
 6436TIP3    H119314   3.299   2.394   1.614  0.9094 -0.2919 -1.1524
 6436TIP3    H219315   3.160   2.447   1.640  1.1685 -0.0256 -0.2909
 6437TIP3   OH219316   5.520   0.808   4.458  0.4389  0.2263 -0.1918
 6437TIP3    H119317   5.596   0.802   4.517 -1.8918  0.1297  3.0618
 6437TIP3    H219318   5.498   0.901   4.456  0.0539  0.1346 -0.3187
 6438TIP3   OH219319   5.349   0.346   5.089 -0.3839 -0.2449  0.4092
 6438TIP3    H119320   5.390   0.431   5.071 -0.9118 -0.0958 -0.1308
 6438TIP3    H219321   5.294   0.329   5.012  0.7249 -1.7169 -0.0880
 6439TIP3   OH219322   1.809   4.469   3.972  0.3545 -0.6571 -0.0843
 6439TIP3    H119323   1.882   4.484   4.033  0.5269 -3.6836  0.5861
 6439TIP3    H219324   1.759   4.397   4.011 -3.0465  1.2356 -0.5437
 6440TIP3   OH219325   3.314   0.105   3.307  0.1202  0.0548 -0.7941
 6440TIP3    H119326   3.270   0.101   3.392  0.5825 -0.0934 -0.5603
 6440TIP3    H219327   3.298   0.020   3.267 -0.1654  0.1532 -0.8898
 6441TIP3   OH219328   4.905   3.709   4.251  0.3130  0.7106  0.0266
 6441TIP3    H119329   4.831   3.686   4.196  0.0431  0.5331  0.4649
 6441TIP3    H219330   4.937   3.792   4.214  0.9887 -0.0818 -1.2434
 6442TIP3   OH219331   4.531   3.388   0.279 -0.1819 -0.0513 -0.9295
 6442TIP3    H119332   4.532   3.367   0.185  0.4366  1.1529 -1.2038
 6442TIP3    H219333   4.622   3.385   0.306 -0.3486 -0.2987 -0.3743
 6443TIP3   OH219334   2.343   5.108   4.275  0.2095 -0.0740  0.4696
 6443TIP3    H119335   2.330   5.172   4.206  0.2092  1.5089  1.8885
 6443TIP3    H219336   2.270   5.047   4.265  1.4347 -1.3137 -2.3264
 6444TIP3   OH219337   3.021   0.029   3.431  0.3686 -0.5309  0.6055
 6444TIP3    H119338   2.944   0.042   3.486  0.5698 -1.4689  1.1518
 6444TIP3    H219339   2.988  -0.011   3.351  0.0714  0.8544  0.0214
 6445TIP3   OH219340   4.359   2.369   4.546  0.0111 -0.4978 -0.0372
 6445TIP3    H119341   4.287   2.415   4.590 -1.0642 -1.3045 -0.8836
 6445TIP3    H219342   4.430   2.369   4.610 -0.5837  0.7081  0.6664
 6446TIP3   OH219343   4.655   1.595   3.881  0.1920  0.0428 -0.6472
 6446TIP3    H119344   4.627   1.526   3.941  0.6615  0.1328 -0.3142
 6446TIP3    H219345   4.743   1.570   3.854  0.3720  0.5125 -0.5121
 6447TIP3   OH219346   2.497   2.733   0.488  0.2682 -0.1772  0.1070
 6447TIP3    H119347   2.538   2.793   0.425 -0.1668 -0.1606 -0.1693
 6447TIP3    H219348   2.541   2.649   0.474 -1.1577 -0.7001 -1.6419
 6448TIP3   OH219349   1.098   3.486   1.222 -0.1752 -0.5714  0.1067
 6448TIP3    H119350   1.019   3.436   1.243  0.2014 -0.9660  0.6217
 6448TIP3    H219351   1.129   3.448   1.140 -0.0212 -1.0334  0.3755
 6449TIP3   OH219352   3.391   3.365   2.519  0.2208 -0.2004 -0.2591
 6449TIP3    H119353   3.320   3.414   2.560  0.1441 -0.7936  0.3403
 6449TIP3    H219354   3.470   3.401   2.559  0.3072  0.6972 -1.1747
 6450TIP3   OH219355   4.529   4.860   3.418 -0.1892  0.2517  0.0955
 6450TIP3    H119356   4.459   4.915   3.384  1.1257  0.6734 -2.1013
 6450TIP3    H219357   4.610   4.905   3.394  0.9081 -1.8650 -0.5210
 6451TIP3   OH219358   3.880   1.404   4.719  0.3574 -0.1127 -0.1514
 6451TIP3    H119359   3.831   1.452   4.653 -0.6611 -1.1015 -0.1492
 6451TIP3    H219360   3.815   1.383   4.786  1.1501 -0.0347  0.6589
 6452TIP3   OH219361   5.406   4.096   2.942  0.2751 -0.2123  0.4647
 6452TIP3    H119362   5.408   4.141   2.858 -1.6691 -0.0123  0.4806
 6452TIP3    H219363   5.387   4.164   3.006  0.7693 -0.5219  0.9586
 6453TIP3   OH219364   3.373   5.381   3.951  0.0430  0.0221 -0.5946
 6453TIP3    H119365   3.436   5.385   4.022 -0.6608 -3.0701  0.3607
 6453TIP3    H219366   3.304   5.443   3.976  0.4285 -0.0803  0.7814
 6454TIP3   OH219367   3.431   2.640   0.023 -0.0427  0.1620  0.3236
 6454TIP3    H119368   3.371   2.571  -0.006  0.5046  0.1232 -0.7541
 6454TIP3    H219369   3.390   2.676   0.101 -1.7214  0.4570 -0.6501
 6455TIP3   OH219370   1.414   0.465   5.017  0.1476 -0.4916  0.5347
 6455TIP3    H119371   1.459   0.432   4.940  0.8410  2.2075 -0.3269
 6455TIP3    H219372   1.322   0.442   5.004  0.2882 -0.2726 -1.0137
 6456TIP3   OH219373   0.236   0.265   0.251 -0.7485 -0.1424 -0.2079
 6456TIP3    H119374   0.176   0.201   0.290 -0.5809  0.6028  1.3766
 6456TIP3    H219375   0.322   0.224   0.256 -0.7304 -0.0635  0.2362
 6457TIP3   OH219376   2.583   2.909   0.995 -0.1197  0.2659 -0.3461
 6457TIP3    H119377   2.588   2.826   0.948  2.1282 -0.5878  1.2454
 6457TIP3    H219378   2.556   2.885   1.083 -0.7233  1.4128 -0.1962
 6458TIP3   OH219379   3.089   0.889   2.477  0.8383  0.6538 -0.1534
 6458TIP3    H119380   3.007   0.862   2.518  1.4158 -2.7219 -0.9266
 6458TIP3    H219381   3.077   0.869   2.384  1.2757  3.6807 -0.9729
 6459TIP3   OH219382   4.401   5.344   1.170 -0.0902 -0.4861  0.0560
 6459TIP3    H119383   4.363   5.432   1.179  1.7762  0.1496  3.2672
 6459TIP3    H219384   4.332   5.285   1.200 -0.6355  0.0733 -0.0733
 6460TIP3   OH219385   6.246   0.080   3.998 -0.4746  0.4228  0.1619
 6460TIP3    H119386   6.242   0.152   3.935  1.1530 -0.6510 -1.2646
 6460TIP3    H219387   6.198   0.008   3.956  1.2638 -0.5475 -0.2809
 6461TIP3   OH219388   1.714   1.122   2.800 -0.4345  0.5301  0.5008
 6461TIP3    H119389   1.623   1.136   2.776 -0.7085  0.1621  1.2810
 6461TIP3    H219390   1.718   1.030   2.828  1.4343 -1.5708 -5.2091
 6462TIP3   OH219391   6.312   2.957   2.403 -0.5670  0.4054 -0.2262
 6462TIP3    H119392   6.237   2.905   2.432 -0.3654  0.8251  1.1033
 6462TIP3    H219393   6.344   3.000   2.482  0.2743  1.2718 -1.0072
 6463TIP3   OH219394   1.054   0.052   2.908 -0.0467  0.0841  0.1077
 6463TIP3    H119395   0.962   0.057   2.880  0.0244  0.6565 -0.0478
 6463TIP3    H219396   1.062   0.122   2.974  0.9178  1.8717 -1.7925
 6464TIP3   OH219397   5.572   0.371   1.546  0.1452  0.1610 -0.3644
 6464TIP3    H119398   5.640   0.438   1.534 -0.4220  0.6925 -0.6846
 6464TIP3    H219399   5.577   0.319   1.466 -1.2006  1.4808 -1.3641
 6465TIP3   OH219400   2.437   1.788   4.100  0.0074  0.0248 -0.2832
 6465TIP3    H119401   2.349   1.758   4.124  0.0861 -0.6490 -0.8071
 6465TIP3    H219402   2.494   1.713   4.119  0.2458 -0.0834 -1.3632
 6466TIP3   OH219403   5.962   1.931   2.366 -0.1352 -0.1713  0.4041
 6466TIP3    H119404   5.944   1.879   2.288  0.0673  0.5268 -0.1164
 6466TIP3    H219405   6.029   1.993   2.338  0.1753 -0.1238  1.2232
 6467TIP3   OH219406   5.616   2.393   0.928  0.6784 -0.0708 -0.0275
 6467TIP3    H119407   5.629   2.339   1.006 -0.7114 -1.4608 -0.7222
 6467TIP3    H219408   5.557   2.343   0.873 -1.0216  2.3396 -0.5521
 6468TIP3   OH219409   3.815   5.996   4.600  0.5130  0.7378 -0.1281
 6468TIP3    H119410   3.905   6.017   4.575  0.6022  0.6484  0.1113
 6468TIP3    H219411   3.799   5.910   4.562  0.4155  0.8984 -0.4493
 6469TIP3   OH219412   3.788   0.766   3.021 -0.0372  0.0650 -0.4107
 6469TIP3    H119413   3.864   0.814   3.054 -0.1877  0.4090 -0.5566
 6469TIP3    H219414   3.745   0.733   3.100  1.0632 -1.3944 -0.3894
 6470TIP3   OH219415   5.592   2.221   1.157  0.6612  0.3448 -0.5117
 6470TIP3    H119416   5.557   2.136   1.186  1.1026  0.1620 -0.5033
 6470TIP3    H219417   5.530   2.285   1.190 -0.8779 -0.1067 -2.3582
 6471TIP3   OH219418   6.052   0.373   2.272  0.2521  0.0786  0.4086
 6471TIP3    H119419   6.008   0.411   2.197 -0.7720  1.3918  1.6133
 6471TIP3    H219420   6.140   0.411   2.270  0.9971 -1.6166 -1.3237
 6472TIP3   OH219421   5.405   1.173   1.853  0.0945 -0.5421 -0.6469
 6472TIP3    H119422   5.343   1.101   1.855  0.4881 -0.9125  1.7189
 6472TIP3    H219423   5.490   1.131   1.843  0.4484 -0.6144  1.9862
 6473TIP3   OH219424   6.346   3.630   1.757 -0.3712 -0.0265 -0.0146
 6473TIP3    H119425   6.273   3.639   1.696  0.9573 -1.8785 -2.0478
 6473TIP3    H219426   6.312   3.576   1.828 -1.2255 -0.0944 -0.4643
 6474TIP3   OH219427   0.339   3.477   2.854 -0.1842  0.1000 -0.0397
 6474TIP3    H119428   0.248   3.484   2.823 -0.0572  0.1313 -0.4153
 6474TIP3    H219429   0.363   3.386   2.835  0.2105  0.3722 -0.9401
 6475TIP3   OH219430   1.989   2.820   4.656  0.3027  0.4155  0.2207
 6475TIP3    H119431   1.997   2.796   4.748 -2.1291  0.6799  0.5749
 6475TIP3    H219432   1.900   2.794   4.632 -0.1785  2.9932 -1.2227
 6476TIP3   OH219433   4.212   4.037   1.763  0.2324 -0.0031 -0.6958
 6476TIP3    H119434   4.288   4.080   1.802 -0.4242  0.4136  0.1582
 6476TIP3    H219435   4.249   3.979   1.697  1.2146  1.1358 -1.1875
 6477TIP3   OH219436   3.243   5.037   1.098  0.5858  0.1226  0.0670
 6477TIP3    H119437   3.292   5.016   1.178 -0.2263  2.2792  1.2119
 6477TIP3    H219438   3.270   5.127   1.076 -1.7431  0.8648 -0.0592
 6478TIP3   OH219439   1.861   0.030   3.849 -0.2718  0.0216 -0.2845
 6478TIP3    H119440   1.857   0.093   3.778  1.3202  0.7812  0.2412
 6478TIP3    H219441   1.882  -0.053   3.807  0.4404  0.4212 -0.7390
 6479TIP3   OH219442   5.819   1.294   3.194 -0.6583  0.4715  0.1257
 6479TIP3    H119443   5.897   1.267   3.146 -0.8895  0.0110 -0.0037
 6479TIP3    H219444   5.806   1.385   3.170 -0.8514  0.2131 -0.8211
 6480TIP3   OH219445   0.666   2.043   0.230  0.0464 -0.1004  0.3697
 6480TIP3    H119446   0.637   2.070   0.143 -0.0728 -0.1090  0.4076
 6480TIP3    H219447   0.755   2.079   0.238 -0.2201  0.5321  0.5380
 6481TIP3   OH219448   5.273   2.568   0.740 -0.6912 -0.1664 -0.0069
 6481TIP3    H119449   5.254   2.524   0.823 -0.1500 -0.8539 -0.2364
 6481TIP3    H219450   5.317   2.501   0.687 -1.1276  0.2301 -0.8934
 6482TIP3   OH219451   4.779   0.699   1.091 -0.2329  0.5469  0.4113
 6482TIP3    H119452   4.773   0.764   1.161  0.3600  1.2938 -0.2200
 6482TIP3    H219453   4.842   0.634   1.124 -0.5639  0.4667  0.8985
 6483TIP3   OH219454   2.946   0.829   4.216  0.2704  0.3485  0.5632
 6483TIP3    H119455   2.907   0.896   4.273  0.2987 -0.9727  2.2255
 6483TIP3    H219456   2.950   0.751   4.271 -0.0644 -1.1243 -1.4247
 6484TIP3   OH219457   1.994   4.804   0.203  0.1229 -0.0424 -0.0190
 6484TIP3    H119458   2.017   4.728   0.256 -2.1842 -1.2239 -0.5787
 6484TIP3    H219459   1.920   4.844   0.249 -1.6046 -0.8006 -1.9642
 6485TIP3   OH219460   1.239   3.611   0.160  0.2934  0.2561 -0.1102
 6485TIP3    H119461   1.300   3.654   0.221 -0.4027 -0.2250  0.9592
 6485TIP3    H219462   1.268   3.520   0.158  0.5466  0.3482 -0.8134
 6486TIP3   OH219463   2.122   1.808   3.321  0.9659  0.1129  0.1888
 6486TIP3    H119464   2.132   1.787   3.228  2.7863  0.6653  0.2081
 6486TIP3    H219465   2.119   1.904   3.323  1.3034  0.1145  0.7091
 6487TIP3   OH219466   2.054   2.686   4.238 -0.2382 -0.2198  0.0242
 6487TIP3    H119467   1.992   2.757   4.222  2.0134  1.2883 -2.8808
 6487TIP3    H219468   2.099   2.711   4.319 -2.2058 -0.5300  1.2790
 6488TIP3   OH219469   4.760   0.297   0.047  0.4024 -0.4643  0.7000
 6488TIP3    H119470   4.764   0.390   0.071  1.0091 -0.7095  1.5976
 6488TIP3    H219471   4.842   0.281   0.000 -0.3456 -0.2219 -0.7447
 6489TIP3   OH219472   2.959   1.124   5.055  0.1697 -0.6646 -0.0894
 6489TIP3    H119473   2.998   1.210   5.042  0.1944 -0.6610  0.0075
 6489TIP3    H219474   2.881   1.124   5.000  0.8477 -1.0333 -1.0964
 6490TIP3   OH219475   4.641   4.562   4.033  0.3631 -0.1179  0.5668
 6490TIP3    H119476   4.688   4.624   4.090  3.2716 -1.0708 -0.6286
 6490TIP3    H219477   4.704   4.539   3.965 -2.1661 -0.9010 -1.6922
 6491TIP3   OH219478   4.217   1.887   4.585 -0.3056  0.0149 -0.5249
 6491TIP3    H119479   4.248   1.973   4.556 -0.3891 -0.4622 -2.1281
 6491TIP3    H219480   4.291   1.850   4.633 -0.0459  0.7305 -0.3589
 6492TIP3   OH219481   1.064   1.091   2.712 -0.0957 -0.0224  0.0334
 6492TIP3    H119482   0.985   1.083   2.658  0.0035 -1.1039  0.0214
 6492TIP3    H219483   1.038   1.053   2.797  0.4361 -0.4941 -0.0075
 6493TIP3   OH219484   4.116   2.167   3.265  0.1640 -0.1049  0.5292
 6493TIP3    H119485   4.027   2.189   3.237  0.8228  1.0195 -0.8138
 6493TIP3    H219486   4.151   2.248   3.301  1.1627 -0.0751 -0.4276
 6494TIP3   OH219487   0.879   5.070   2.643 -0.2091 -0.0026  0.0422
 6494TIP3    H119488   0.946   5.001   2.652  0.4175  0.5348 -0.4154
 6494TIP3    H219489   0.862   5.073   2.549 -1.3402 -0.5546  0.2149
 6495TIP3   OH219490   3.072   0.049   3.002 -0.5459 -0.2397  0.1732
 6495TIP3    H119491   3.011   0.066   2.930 -0.5422 -0.2127  0.1764
 6495TIP3    H219492   3.126   0.127   3.007  0.9658 -1.1339 -1.2663
 6496TIP3   OH219493   0.693   3.553   2.779 -0.7107 -0.7856 -0.0327
 6496TIP3    H119494   0.762   3.617   2.764  1.5066 -3.2064 -1.0243
 6496TIP3    H219495   0.644   3.587   2.854  1.3776  1.2000  0.5323
 6497TIP3   OH219496   0.933   4.043   5.211 -0.4381  0.3981  0.3744
 6497TIP3    H119497   0.921   4.131   5.175  0.2839  0.2822 -0.1531
 6497TIP3    H219498   0.919   3.984   5.137  0.8862  0.1487  0.3124
 6498TIP3   OH219499   2.171   5.174   2.184  0.2209  0.3441 -0.5417
 6498TIP3    H119500   2.220   5.211   2.111  0.6730 -1.9148 -1.4620
 6498TIP3    H219501   2.233   5.116   2.228 -1.1565 -1.4008 -0.8036
 6499TIP3   OH219502   1.512   5.377   3.752 -0.0102  0.3003  0.3107
 6499TIP3    H119503   1.591   5.327   3.733 -0.9519 -0.9016 -0.5734
 6499TIP3    H219504   1.444   5.335   3.700 -1.6292  0.1311  2.4433
 6500TIP3   OH219505   4.682   4.876   1.727 -0.0555 -0.3316 -0.3952
 6500TIP3    H119506   4.672   4.917   1.641  1.2964  0.5017 -0.1923
 6500TIP3    H219507   4.742   4.803   1.712  1.9496  1.1150  0.1551
 6501TIP3   OH219508   3.976   4.407   3.771 -0.3817 -0.7706 -0.9203
 6501TIP3    H119509   4.013   4.433   3.687 -0.8706  0.2295 -0.8310
 6501TIP3    H219510   3.919   4.479   3.796 -0.8882 -1.4298 -0.1234
 6502TIP3   OH219511   6.258   4.978   0.400 -0.3712 -0.3850 -0.1325
 6502TIP3    H119512   6.248   4.894   0.356  1.0637 -0.1328 -1.0204
 6502TIP3    H219513   6.205   5.039   0.348  0.2176 -0.3602 -0.7189
 6503TIP3   OH219514   0.260   4.668   1.174 -0.0325 -0.0360 -0.0568
 6503TIP3    H119515   0.264   4.628   1.087 -1.1028  0.5142 -0.3904
 6503TIP3    H219516   0.256   4.762   1.156 -1.9959  0.0260  0.4751
 6504TIP3   OH219517   5.228   3.171   1.296 -0.1706  0.4712 -0.7676
 6504TIP3    H119518   5.154   3.121   1.263  0.5565 -0.9220 -0.3659
 6504TIP3    H219519   5.255   3.226   1.223 -0.3096 -0.5304 -1.5830
 6505TIP3   OH219520   4.127   1.736   4.003 -0.2411  0.2211 -0.0467
 6505TIP3    H119521   4.047   1.784   4.022  0.3958  1.5162 -0.5202
 6505TIP3    H219522   4.120   1.712   3.910 -0.2834 -0.0807  0.0317
 6506TIP3   OH219523   4.957   1.108   0.756 -0.0564  0.1102  0.2713
 6506TIP3    H119524   4.989   1.049   0.687  0.2061 -0.3989  0.8148
 6506TIP3    H219525   5.035   1.155   0.784  0.5865 -2.0720  2.5175
 6507TIP3   OH219526   5.179   3.961   0.326 -0.5742 -0.2317 -0.4500
 6507TIP3    H119527   5.132   4.035   0.287 -0.6107 -0.7006 -1.3103
 6507TIP3    H219528   5.271   3.986   0.320 -0.6079 -0.0785 -0.3577
 6508TIP3   OH219529   4.860   5.266   1.252 -0.3287  0.0085  0.7380
 6508TIP3    H119530   4.797   5.329   1.215  0.0712  0.4112  0.7274
 6508TIP3    H219531   4.868   5.292   1.343 -0.3205 -0.1611  0.7845
 6509TIP3   OH219532   1.995   1.613   3.509 -0.0389  0.2525  0.3233
 6509TIP3    H119533   1.911   1.608   3.464  0.7884 -0.5793 -1.2376
 6509TIP3    H219534   2.056   1.643   3.442  1.6807 -3.0997  0.1408
 6510TIP3   OH219535   2.919   0.547   1.851 -0.2792  0.2024 -0.2781
 6510TIP3    H119536   2.950   0.526   1.763  1.6990  2.5222 -0.2264
 6510TIP3    H219537   2.974   0.495   1.910 -0.2112  0.1803 -0.3620
 6511TIP3   OH219538   2.526   5.183   2.378  0.2088  0.5320 -0.3309
 6511TIP3    H119539   2.441   5.154   2.412 -0.2672  3.0068  0.8442
 6511TIP3    H219540   2.590   5.128   2.423 -0.7085 -0.1984  0.1045
 6512TIP3   OH219541   4.743   4.407   2.051  0.2589 -0.6175 -0.7095
 6512TIP3    H119542   4.790   4.393   1.969  2.6122 -0.5270  0.5616
 6512TIP3    H219543   4.782   4.346   2.112  0.1261  0.8735  0.9374
 6513TIP3   OH219544   4.702   4.137   2.332  0.0476  0.0903 -1.2158
 6513TIP3    H119545   4.676   4.185   2.410 -0.0763 -2.6600  0.5769
 6513TIP3    H219546   4.780   4.182   2.300  1.1022  0.3752  1.5183
 6514TIP3   OH219547   3.569   5.769   2.197 -0.1442 -0.4758  0.5103
 6514TIP3    H119548   3.635   5.701   2.205 -1.2232 -1.5151  0.9028
 6514TIP3    H219549   3.492   5.733   2.241 -0.6444  1.1376  1.0201
 6515TIP3   OH219550   1.337   0.343   0.396 -0.1621  0.0502 -0.1495
 6515TIP3    H119551   1.404   0.320   0.460 -0.8025 -0.4264  0.3728
 6515TIP3    H219552   1.281   0.265   0.391 -0.4878  0.3145 -0.8235
 6516TIP3   OH219553   1.248   0.548   1.189  0.4156 -0.0763 -0.5168
 6516TIP3    H119554   1.215   0.509   1.270  0.8942 -1.5560 -1.0025
 6516TIP3    H219555   1.234   0.642   1.200  2.2735  0.0039  2.1253
 6517TIP3   OH219556   5.038   5.436   0.960  0.1724  0.1135  0.1374
 6517TIP3    H119557   5.097   5.379   1.009 -1.5548 -1.8604  0.0525
 6517TIP3    H219558   5.049   5.410   0.868 -0.2681  0.2783  0.0333
 6518TIP3   OH219559   3.087   2.472   3.015  0.5193 -0.2765 -0.6893
 6518TIP3    H119560   3.131   2.405   3.068  0.6828 -0.5584 -1.1681
 6518TIP3    H219561   3.135   2.553   3.033 -1.2269  0.2975  1.8468
 6519TIP3   OH219562   1.020   1.606   4.221 -0.2571 -0.6723 -0.6194
 6519TIP3    H119563   0.985   1.523   4.254  0.6603 -0.7279  0.2685
 6519TIP3    H219564   1.094   1.580   4.166  1.1447 -0.3999  1.0766
 6520TIP3   OH219565   5.777   1.265   4.756  0.2649 -0.6361  0.1915
 6520TIP3    H119566   5.798   1.356   4.778  0.7545 -0.0979 -2.1934
 6520TIP3    H219567   5.687   1.269   4.723  0.6013 -0.8356 -0.7778
 6521TIP3   OH219568   0.102   4.436   4.499  0.2925  0.2838  0.5338
 6521TIP3    H119569   0.046   4.509   4.473  0.7105  0.6413  0.6231
 6521TIP3    H219570   0.069   4.409   4.584  0.8125  1.0754  0.9943
 6522TIP3   OH219571   2.044   4.723   2.130 -0.0094  0.4325 -0.0505
 6522TIP3    H119572   2.124   4.703   2.178  1.4515  1.4295 -1.9329
 6522TIP3    H219573   2.007   4.799   2.176  0.2905  0.1793  0.6257
 6523TIP3   OH219574   3.119   4.726   2.661  0.3226 -0.0131 -0.2593
 6523TIP3    H119575   3.060   4.748   2.733 -0.1182  0.3250 -0.7138
 6523TIP3    H219576   3.067   4.741   2.582  0.1902 -2.0917 -0.6320
 6524TIP3   OH219577   2.290   4.726   4.180  0.0453  0.4642 -0.0854
 6524TIP3    H119578   2.242   4.711   4.099  0.7687  1.3037 -0.6942
 6524TIP3    H219579   2.259   4.811   4.211 -1.9566 -0.8485  1.8173
 6525TIP3   OH219580   3.750   1.273   1.332 -0.2819  0.2692 -0.1784
 6525TIP3    H119581   3.694   1.350   1.343 -0.9750 -0.3029  0.4274
 6525TIP3    H219582   3.819   1.301   1.272 -0.1577  1.5488  0.5303
 6526TIP3   OH219583   1.720   2.862   3.318 -0.4113 -0.1144  0.0456
 6526TIP3    H119584   1.643   2.807   3.305  0.1989 -1.3418  1.4211
 6526TIP3    H219585   1.766   2.858   3.234 -0.7813 -1.0461 -0.1214
 6527TIP3   OH219586   1.860   1.216   3.835 -0.2477 -0.0555  0.2687
 6527TIP3    H119587   1.818   1.132   3.814 -0.0649 -0.2118  0.5156
 6527TIP3    H219588   1.933   1.192   3.892  0.2907  0.1974 -0.3006
 6528TIP3   OH219589   0.660   0.085   4.673 -0.5531 -0.4489 -0.2914
 6528TIP3    H119590   0.670   0.166   4.624  0.6315 -0.3681  0.0543
 6528TIP3    H219591   0.585   0.042   4.633 -1.1871  0.8022 -0.4880
 6529TIP3   OH219592   5.811   2.323   4.037  0.3176  1.1215  0.1767
 6529TIP3    H119593   5.864   2.371   4.100 -0.1071  1.4790  0.2636
 6529TIP3    H219594   5.741   2.384   4.012 -0.2060  0.5654  0.2634
 6530TIP3   OH219595   5.635   1.807   0.574 -0.1251 -0.1465  0.4027
 6530TIP3    H119596   5.718   1.849   0.548  0.6177 -1.8763 -0.1887
 6530TIP3    H219597   5.662   1.733   0.628 -0.9119 -2.9368 -2.6817
 6531TIP3   OH219598   4.570   4.599   2.867 -0.1946 -0.5688  0.6246
 6531TIP3    H119599   4.596   4.691   2.870 -3.5879  0.5784 -0.4166
 6531TIP3    H219600   4.560   4.580   2.774  1.7536 -2.5082  0.7264
 6532TIP3   OH219601   1.339   4.807   2.324  0.7244 -0.6910 -0.6580
 6532TIP3    H119602   1.346   4.823   2.230  0.6846  0.2272 -0.5131
 6532TIP3    H219603   1.429   4.808   2.355  0.6256  1.6360 -0.2913
 6533TIP3   OH219604   4.889   1.237   2.870  0.1794  0.0234 -0.3916
 6533TIP3    H119605   4.807   1.255   2.916 -0.9833 -3.1658 -0.9919
 6533TIP3    H219606   4.875   1.270   2.782 -0.2476 -0.0663 -0.3573
 6534TIP3   OH219607   3.593   2.897   1.511 -0.0369  0.7843  0.1904
 6534TIP3    H119608   3.632   2.890   1.425 -1.1356 -1.8042 -0.2084
 6534TIP3    H219609   3.649   2.843   1.568  0.5087  2.2148  1.0585
 6535TIP3   OH219610   0.785   0.379   4.252 -0.3728  0.3138  0.0979
 6535TIP3    H119611   0.754   0.460   4.292 -1.5321  0.2520 -0.6323
 6535TIP3    H219612   0.873   0.400   4.221 -0.7070  1.3471 -0.2065
 6536TIP3   OH219613   0.320   5.827   3.400 -0.1754  0.8168  0.0885
 6536TIP3    H119614   0.321   5.922   3.389 -0.9195  0.9344  0.8619
 6536TIP3    H219615   0.319   5.792   3.311 -0.6887  1.5583 -0.2098
 6537TIP3   OH219616   5.200   2.567   2.719 -0.4985  0.0676 -0.8066
 6537TIP3    H119617   5.214   2.643   2.776  0.7622 -0.2196 -0.7028
 6537TIP3    H219618   5.193   2.493   2.780 -1.6297  0.0699 -0.9119
 6538TIP3   OH219619   0.740   2.871   3.853  0.2441  0.6498  0.6725
 6538TIP3    H119620   0.675   2.801   3.855  0.8258  0.1118  1.1515
 6538TIP3    H219621   0.782   2.863   3.768  0.2233  0.4953  0.6772
 6539TIP3   OH219622   0.676   3.880   3.377 -0.1608 -1.0181 -0.2708
 6539TIP3    H119623   0.681   3.959   3.432 -1.6198 -1.1107  0.0416
 6539TIP3    H219624   0.681   3.808   3.440  1.1778 -1.2067 -0.5579
 6540TIP3   OH219625   4.737   0.812   1.603  0.8207 -0.1362 -0.3320
 6540TIP3    H119626   4.660   0.765   1.633  0.6219  0.4692  0.1312
 6540TIP3    H219627   4.779   0.753   1.541 -1.3600  0.4833 -2.5553
 6541TIP3   OH219628   4.521   5.702   2.891  0.2907 -0.1526 -0.0400
 6541TIP3    H119629   4.507   5.743   2.806  0.2811  0.4406  0.2457
 6541TIP3    H219630   4.454   5.634   2.897 -1.2757  1.3671  0.4981
 6542TIP3   OH219631   3.974   3.579   1.114 -0.3995  0.2134  0.3865
 6542TIP3    H119632   3.989   3.576   1.019 -0.0420 -1.6373  0.4512
 6542TIP3    H219633   3.945   3.668   1.131  1.4875  1.2033 -1.1627
 6543TIP3   OH219634   0.033   4.874   0.616  1.0713  0.1570  0.2776
 6543TIP3    H119635  -0.003   4.787   0.633  2.9870 -0.5241  1.0753
 6543TIP3    H219636  -0.025   4.911   0.549 -1.3144 -0.6846  1.7315
 6544TIP3   OH219637   0.874   4.836   0.701 -0.4141  0.3994 -0.2507
 6544TIP3    H119638   0.890   4.862   0.792 -2.1260 -0.7962  0.4407
 6544TIP3    H219639   0.784   4.862   0.684 -0.7672 -1.1576 -0.9277
 6545TIP3   OH219640   5.639   2.135   3.417 -0.2349 -0.5234 -0.1548
 6545TIP3    H119641   5.701   2.068   3.445  1.3368  1.1716  0.6430
 6545TIP3    H219642   5.554   2.091   3.417  0.6620 -2.3578  0.8571
 6546TIP3   OH219643   4.708   1.849   2.929  0.0388 -0.0107  0.7718
 6546TIP3    H119644   4.673   1.763   2.906  0.4189 -0.0908  0.4817
 6546TIP3    H219645   4.683   1.905   2.856 -0.1381  0.1069  0.9225
 6547TIP3   OH219646   2.910   0.562   0.255 -0.5369 -0.3001  0.5639
 6547TIP3    H119647   2.972   0.553   0.328 -1.0845 -1.3552  0.9123
 6547TIP3    H219648   2.924   0.483   0.202  0.0217  0.5667 -0.6244
 6548TIP3   OH219649   4.674   5.653   2.484  0.0099 -0.0644  0.3895
 6548TIP3    H119650   4.693   5.716   2.415  1.7214 -1.3068 -0.3468
 6548TIP3    H219651   4.596   5.688   2.528  0.4283  2.1126 -0.4773
 6549TIP3   OH219652   5.580   5.401   0.767  0.0149 -0.5966  0.6414
 6549TIP3    H119653   5.653   5.456   0.736  0.6511 -0.9431  1.5008
 6549TIP3    H219654   5.504   5.435   0.720  0.4302  0.8839  0.9847
 6550TIP3   OH219655   1.595   5.438   4.226 -0.4142  0.2921  0.2506
 6550TIP3    H119656   1.545   5.397   4.155  0.8448  0.1980 -0.6168
 6550TIP3    H219657   1.589   5.375   4.298 -0.7271 -0.1711 -0.1682
 6551TIP3   OH219658   4.446   0.003   2.372 -0.0030 -0.4165 -0.2323
 6551TIP3    H119659   4.491   0.057   2.306 -0.0623  0.8119  0.6996
 6551TIP3    H219660   4.355   0.033   2.368  0.2140  0.5402  1.2115
 6552TIP3   OH219661   2.675   5.454   0.203  0.7405  0.4520  0.2323
 6552TIP3    H119662   2.654   5.527   0.261  0.7431  0.9165 -0.3378
 6552TIP3    H219663   2.688   5.379   0.262  3.1443  1.4249  1.0682
 6553TIP3   OH219664   4.814   5.795   1.476 -0.2149 -0.4724 -0.2593
 6553TIP3    H119665   4.722   5.790   1.450 -1.0534 -1.5009  2.5489
 6553TIP3    H219666   4.834   5.888   1.476 -1.0919 -0.2620 -1.3011
 6554TIP3   OH219667   4.094   2.704   4.933  0.4478  0.0569  0.5814
 6554TIP3    H119668   4.049   2.762   4.872  0.2537 -0.9131 -0.2248
 6554TIP3    H219669   4.141   2.763   4.992 -1.8895  1.1073  1.5077
 6555TIP3   OH219670   2.258   5.297   0.274 -0.1880  0.7370 -0.0759
 6555TIP3    H119671   2.295   5.259   0.353  1.5076 -0.0530 -1.1832
 6555TIP3    H219672   2.221   5.223   0.226  0.4143  0.9174 -0.8423
 6556TIP3   OH219673   2.089   0.024   4.024 -0.1364  0.5215 -0.0659
 6556TIP3    H119674   2.046   0.079   4.089 -1.2803  0.5790 -0.8508
 6556TIP3    H219675   2.023   0.010   3.957 -0.0505 -2.2700  0.3487
 6557TIP3   OH219676   3.984   1.587   0.502  0.7286  0.0105  0.4871
 6557TIP3    H119677   3.920   1.521   0.477  1.5002  0.2373 -2.5201
 6557TIP3    H219678   3.941   1.671   0.484  0.7865  0.2751  1.4960
 6558TIP3   OH219679   3.907   0.605   2.108  0.2127 -0.9316  0.2149
 6558TIP3    H119680   3.984   0.562   2.143  0.3431 -1.6995 -0.9662
 6558TIP3    H219681   3.934   0.639   2.023 -0.7237 -1.1599 -0.1936
 6559TIP3   OH219682   2.487   3.062   2.781 -0.1847  0.3072 -0.4265
 6559TIP3    H119683   2.497   2.998   2.711 -0.4022  0.4288 -0.5697
 6559TIP3    H219684   2.577   3.088   2.802 -0.0232 -0.8673  0.4110
 6560TIP3   OH219685   0.723   5.164   2.386  0.2597 -0.2182  0.7728
 6560TIP3    H119686   0.733   5.211   2.469  0.5033 -1.2632  1.3540
 6560TIP3    H219687   0.760   5.223   2.320 -1.1071  1.1981  1.1841
 6561TIP3   OH219688   3.177   5.052   3.615 -0.2611 -0.1888 -0.0584
 6561TIP3    H119689   3.226   5.016   3.541 -0.8776  0.8323 -0.9788
 6561TIP3    H219690   3.243   5.098   3.667 -0.0523  0.2289 -0.6901
 6562TIP3   OH219691   4.236   3.167   4.732  0.0722 -0.3236  0.4299
 6562TIP3    H119692   4.311   3.207   4.776 -0.7237  0.8869  0.7217
 6562TIP3    H219693   4.261   3.166   4.639  0.0498  1.0341  0.3888
 6563TIP3   OH219694   5.047   4.666   1.801 -0.7136  0.9414 -0.6944
 6563TIP3    H119695   5.026   4.747   1.848  1.4564  0.8726  0.5092
 6563TIP3    H219696   4.976   4.656   1.738 -2.3262  2.4811  0.7623
 6564TIP3   OH219697   1.070   4.431   4.403 -0.3118  0.2372 -0.2040
 6564TIP3    H119698   1.062   4.342   4.440  0.7175 -0.7666 -2.2416
 6564TIP3    H219699   1.154   4.430   4.357  0.3205  2.7229  0.7713
 6565TIP3   OH219700   3.989   1.721   2.207  0.0840 -0.6681 -0.5234
 6565TIP3    H119701   3.922   1.667   2.164 -1.9895  1.6348 -0.3764
 6565TIP3    H219702   3.960   1.729   2.297  2.2923 -2.1386  0.4201
 6566TIP3   OH219703   4.005   5.719   4.290  0.5341 -0.1152 -0.5635
 6566TIP3    H119704   4.004   5.629   4.256  1.4224 -0.4076  0.1586
 6566TIP3    H219705   4.097   5.736   4.310  0.3334  0.8685 -0.4361
 6567TIP3   OH219706   6.165   2.214   2.432 -0.8548 -0.1501 -0.0412
 6567TIP3    H119707   6.230   2.234   2.499 -2.3820 -0.1846  1.5139
 6567TIP3    H219708   6.131   2.300   2.405  0.5417 -0.0492 -1.6680
 6568TIP3   OH219709   4.947   3.012   3.775 -0.3040 -0.3341  0.1304
 6568TIP3    H119710   5.003   2.942   3.807 -1.6814 -0.8546  1.5071
 6568TIP3    H219711   4.946   3.001   3.680  1.7723 -0.3908  0.0750
 6569TIP3   OH219712   0.059   3.469   1.511 -0.2440  0.3095 -0.4195
 6569TIP3    H119713   0.016   3.493   1.593 -1.2377 -0.7847 -0.5934
 6569TIP3    H219714   0.001   3.503   1.443 -0.7078 -0.8923 -0.6528
 6570TIP3   OH219715   0.384   3.655   3.443 -0.0691 -0.5929  0.2754
 6570TIP3    H119716   0.413   3.608   3.521 -1.6749  1.3469  2.1566
 6570TIP3    H219717   0.298   3.617   3.422 -0.8595  0.6633  1.1239
 6571TIP3   OH219718   5.929   5.362   0.735  0.2092 -0.2153  0.3093
 6571TIP3    H119719   5.933   5.421   0.810 -0.4758  0.0720  0.1311
 6571TIP3    H219720   5.993   5.397   0.673  1.3197 -0.8807  1.0428
 6572TIP3   OH219721   2.180   4.473   2.064 -0.3833 -0.5150 -0.4093
 6572TIP3    H119722   2.243   4.417   2.019  0.7477  0.6457 -0.3007
 6572TIP3    H219723   2.217   4.484   2.152 -0.5396  0.4860 -0.4637
 6573TIP3   OH219724   1.064   2.633   4.611  0.0553 -0.7041 -0.2076
 6573TIP3    H119725   0.985   2.660   4.657  0.3450 -0.6868  0.2846
 6573TIP3    H219726   1.093   2.554   4.657  0.7165 -0.3129  0.0591
 6574TIP3   OH219727   4.245   3.704   2.040 -0.6199 -0.5600  0.4490
 6574TIP3    H119728   4.248   3.643   1.967 -0.3152 -0.8271  0.6809
 6574TIP3    H219729   4.184   3.773   2.012 -2.2060 -1.7726  0.7897
 6575TIP3   OH219730   3.197   1.078   1.285 -0.1401  0.1952 -0.3936
 6575TIP3    H119731   3.129   1.018   1.256 -1.5081 -0.0576  2.9597
 6575TIP3    H219732   3.152   1.160   1.304  0.4990  0.2081  1.3265
 6576TIP3   OH219733   0.501   1.581   1.713 -0.0517 -0.5517 -0.0258
 6576TIP3    H119734   0.475   1.599   1.803 -1.6748 -1.2667 -0.3150
 6576TIP3    H219735   0.469   1.492   1.696 -0.8167 -0.0083 -1.6512
 6577TIP3   OH219736   5.273   1.070   0.894  0.0997 -0.9312  0.1086
 6577TIP3    H119737   5.359   1.033   0.914 -0.5271 -2.0206  0.9577
 6577TIP3    H219738   5.268   1.069   0.799  0.3534 -2.5553  0.0767
 6578TIP3   OH219739   1.628   0.597   2.612 -0.7640  1.1911  0.0614
 6578TIP3    H119740   1.650   0.544   2.689 -0.4468 -1.9882 -2.0089
 6578TIP3    H219741   1.704   0.654   2.600 -0.5114  1.2388  1.6891
 6579TIP3   OH219742   3.593   5.682   3.979  0.0392  0.4084  1.0911
 6579TIP3    H119743   3.649   5.631   3.921 -0.4009 -0.6822  1.6055
 6579TIP3    H219744   3.506   5.677   3.939  0.3790  2.6787 -0.0905
 6580TIP3   OH219745   5.828   0.586   2.885 -0.1617 -0.3419  0.2066
 6580TIP3    H119746   5.795   0.638   2.812  1.0038 -0.4316 -0.4128
 6580TIP3    H219747   5.885   0.521   2.844 -0.8516 -1.5127  1.0507
 6581TIP3   OH219748   1.450   2.711   2.335 -0.0960 -0.1403 -0.0491
 6581TIP3    H119749   1.529   2.664   2.307  0.1630  0.1892  0.1181
 6581TIP3    H219750   1.429   2.768   2.261  0.2228  0.2726  0.1785
 6582TIP3   OH219751   4.023   4.729   1.493 -0.1046  0.3672 -0.4441
 6582TIP3    H119752   3.953   4.665   1.490  0.0153  0.2728 -1.7494
 6582TIP3    H219753   4.093   4.686   1.542  0.0578 -0.6064 -1.5010
 6583TIP3   OH219754   1.503   2.524   4.362 -0.1102  0.1639  0.3664
 6583TIP3    H119755   1.546   2.567   4.288 -0.4838 -1.4525 -0.8480
 6583TIP3    H219756   1.413   2.555   4.359 -0.0388  0.3690  0.3536
 6584TIP3   OH219757   0.288   2.469   4.059 -0.0672  0.0047 -0.2280
 6584TIP3    H119758   0.353   2.537   4.076  0.6780 -0.7742  0.0971
 6584TIP3    H219759   0.337   2.387   4.065 -1.3971 -0.7205  1.7957
 6585TIP3   OH219760   3.723   4.665   5.129 -0.8079  0.0819 -0.7271
 6585TIP3    H119761   3.727   4.597   5.063 -0.0696  0.2217 -0.8295
 6585TIP3    H219762   3.702   4.745   5.080  0.3350  0.3006 -0.8942
 6586TIP3   OH219763   1.872   0.120   0.307 -0.1602  0.1143 -0.3970
 6586TIP3    H119764   1.917   0.041   0.336 -0.8099 -1.3617 -3.0460
 6586TIP3    H219765   1.925   0.193   0.340  0.3162 -1.3696  2.3411
 6587TIP3   OH219766   0.431   2.999   2.207 -0.7063  0.5261  0.0834
 6587TIP3    H119767   0.407   2.915   2.246 -1.0604  1.4049  1.8219
 6587TIP3    H219768   0.388   2.998   2.121  2.3331 -2.6344 -1.6824
 6588TIP3   OH219769   0.282   0.169   1.624  0.3456  0.1668  0.5490
 6588TIP3    H119770   0.225   0.100   1.590 -0.4734  1.0997 -0.0333
 6588TIP3    H219771   0.222   0.240   1.649  1.0644  0.1621  2.4065
 6589TIP3   OH219772   3.498   5.763   3.175 -0.1289  0.3334  0.2775
 6589TIP3    H119773   3.436   5.798   3.239 -0.9373  1.7732 -1.1992
 6589TIP3    H219774   3.469   5.801   3.092  0.0630 -2.4811 -1.1881
 6590TIP3   OH219775   2.748   1.760   1.733  0.0134  0.3061  0.1614
 6590TIP3    H119776   2.692   1.832   1.704 -0.6721 -0.6578 -1.0069
 6590TIP3    H219777   2.836   1.787   1.709 -0.1512  1.0481  0.3592
 6591TIP3   OH219778   3.175   4.988   1.998  0.5957  0.3237 -0.5305
 6591TIP3    H119779   3.084   5.016   1.993  1.1190  2.7122  1.2318
 6591TIP3    H219780   3.203   4.977   1.907 -0.9180  1.4827 -1.1704
 6592TIP3   OH219781   2.001   5.835   2.868  0.0246 -0.5769  0.2924
 6592TIP3    H119782   1.989   5.907   2.806 -0.3076 -0.7597  0.1468
 6592TIP3    H219783   2.094   5.812   2.859  0.2121  0.0435  0.5734
 6593TIP3   OH219784   1.342   4.300   0.718 -0.1071  0.5958  0.1289
 6593TIP3    H119785   1.383   4.358   0.654 -1.5998  1.8693  0.2658
 6593TIP3    H219786   1.297   4.234   0.665  1.8054 -0.6529 -0.0234
 6594TIP3   OH219787   2.677   0.205   1.149 -0.2014 -0.0809 -0.0065
 6594TIP3    H119788   2.731   0.279   1.176  0.9332 -0.5720 -0.8541
 6594TIP3    H219789   2.673   0.148   1.225 -0.2894  0.3943  0.3478
 6595TIP3   OH219790   1.877   5.933   3.354  0.2830  0.3647 -0.2208
 6595TIP3    H119791   1.873   5.907   3.262 -1.3371 -2.0054  0.4309
 6595TIP3    H219792   1.960   5.896   3.385  0.5877  0.7325 -0.5733
 6596TIP3   OH219793   3.025   4.534   2.285  0.3803  0.3187 -0.2322
 6596TIP3    H119794   2.980   4.476   2.224 -1.4002  0.2790  1.0471
 6596TIP3    H219795   3.023   4.620   2.242 -0.3154  0.1753 -0.5065
 6597TIP3   OH219796   4.527   2.869   4.825 -0.3222 -0.2002 -0.3058
 6597TIP3    H119797   4.609   2.821   4.824  0.4955  1.0943  0.7014
 6597TIP3    H219798   4.547   2.953   4.785 -0.9440  0.4159  0.6228
 6598TIP3   OH219799   0.630   4.305   0.231 -0.2438 -0.2608  0.1849
 6598TIP3    H119800   0.579   4.335   0.306  0.3824  0.5204  0.3096
 6598TIP3    H219801   0.564   4.287   0.163 -0.7130  0.4234  0.4451
 6599TIP3   OH219802   3.308   4.517   2.276 -0.1425 -0.3141  0.4442
 6599TIP3    H119803   3.335   4.608   2.264 -0.0826 -0.4743 -0.7909
 6599TIP3    H219804   3.212   4.519   2.271 -0.2914 -0.0276  2.7348
 6600TIP3   OH219805   2.971   1.642   0.082  0.6209 -0.6366 -0.3258
 6600TIP3    H119806   2.882   1.633   0.115  0.3830 -0.0330 -0.7785
 6600TIP3    H219807   3.024   1.586   0.139  0.4455  1.3065  1.9198
 6601TIP3   OH219808   2.355   0.074   0.931 -0.0841 -0.2112 -0.0997
 6601TIP3    H119809   2.368  -0.017   0.905 -2.6403 -0.3594 -1.1469
 6601TIP3    H219810   2.339   0.070   1.025  0.7298 -0.7190  0.0245
 6602TIP3   OH219811   1.792   1.248   3.275  0.6993  0.0485 -0.1507
 6602TIP3    H119812   1.697   1.252   3.263  0.8334 -0.1542 -1.3906
 6602TIP3    H219813   1.805   1.271   3.367 -0.5908 -0.5717  0.2119
 6603TIP3   OH219814   2.319   1.827   0.340 -0.1308  0.1883 -0.1294
 6603TIP3    H119815   2.405   1.824   0.382  0.6393 -2.0834 -1.6883
 6603TIP3    H219816   2.318   1.912   0.295  1.7573 -0.1325 -0.9012
 6604TIP3   OH219817   1.602   1.363   3.998 -0.8180 -0.3360  0.2605
 6604TIP3    H119818   1.621   1.298   4.065  0.6015 -0.0154  0.2001
 6604TIP3    H219819   1.623   1.319   3.915  0.4961  0.2970  0.2421
 6605TIP3   OH219820   3.803   5.536   4.669 -0.1644 -0.0572 -0.5906
 6605TIP3    H119821   3.712   5.563   4.662 -0.0735  1.0851  1.6592
 6605TIP3    H219822   3.801   5.456   4.720  0.0835 -0.1106 -0.6598
 6606TIP3   OH219823   5.626   3.750   4.211  0.1358 -0.4243 -0.3168
 6606TIP3    H119824   5.596   3.719   4.296  0.2307  1.0429  0.2766
 6606TIP3    H219825   5.552   3.801   4.177  0.6952  0.3561 -0.3766
 6607TIP3   OH219826   1.215   2.293   2.846  0.2599  0.2156 -0.1246
 6607TIP3    H119827   1.180   2.374   2.884  1.3006 -0.0407  1.4648
 6607TIP3    H219828   1.145   2.228   2.860  1.7303 -0.7145  4.5523
 6608TIP3   OH219829   4.859   0.393   1.477 -0.4049  0.0297  0.7551
 6608TIP3    H119830   4.894   0.310   1.444 -1.1567 -0.4312  1.1002
 6608TIP3    H219831   4.936   0.447   1.490  0.0992 -0.6123  0.5124
 6609TIP3   OH219832   0.630   2.027   0.532  0.1303  0.4888  0.7309
 6609TIP3    H119833   0.574   1.965   0.579 -0.7807  1.0536  0.4013
 6609TIP3    H219834   0.570   2.085   0.487  0.9626  1.9907  1.4920
 6610TIP3   OH219835   1.268   5.516   4.155  0.0616  0.0719 -0.2744
 6610TIP3    H119836   1.192   5.462   4.136  0.5850 -0.5200 -0.7484
 6610TIP3    H219837   1.342   5.466   4.120  1.1748 -1.2529  3.4945
 6611TIP3   OH219838   6.028   0.747   3.765 -0.0211  0.2341 -0.4329
 6611TIP3    H119839   6.006   0.669   3.714 -0.1979  0.8964 -1.3963
 6611TIP3    H219840   6.051   0.713   3.851 -1.0271 -0.8035 -0.5488
 6612TIP3   OH219841   3.056   1.424   3.781  0.8042 -0.3346  0.1103
 6612TIP3    H119842   3.082   1.428   3.873 -0.8758  0.4888  0.5882
 6612TIP3    H219843   3.019   1.337   3.770  2.6586 -1.1281 -0.3107
 6613TIP3   OH219844   1.956   0.205   4.223  0.4724 -0.0078  0.5121
 6613TIP3    H119845   1.873   0.253   4.221  1.2030  1.4579 -2.8890
 6613TIP3    H219846   2.023   0.274   4.222  1.7387 -1.1551  1.8890
 6614TIP3   OH219847   2.441   3.427   1.716 -0.4873  0.4672  0.6183
 6614TIP3    H119848   2.527   3.468   1.703 -0.3233  0.2921  1.1077
 6614TIP3    H219849   2.379   3.499   1.708 -0.2278  0.7518  1.0977
 6615TIP3   OH219850   4.256   4.610   4.885 -0.1600 -0.0334  0.4635
 6615TIP3    H119851   4.174   4.660   4.878 -0.4428 -0.6212 -0.9604
 6615TIP3    H219852   4.272   4.602   4.979  0.1801  3.1315  0.7830
 6616TIP3   OH219853   0.338   5.251   2.316  0.1205 -0.4720  0.3817
 6616TIP3    H119854   0.393   5.173   2.324 -1.4892 -1.7896 -0.6322
 6616TIP3    H219855   0.300   5.263   2.403  1.2519 -0.1034  0.8434
 6617TIP3   OH219856   0.764   4.090   0.761 -0.0151  0.4616 -0.0296
 6617TIP3    H119857   0.696   4.028   0.786  1.3757 -1.0567  0.1643
 6617TIP3    H219858   0.767   4.153   0.833 -0.5452 -0.0253  0.4266
 6618TIP3   OH219859   5.427   1.938   0.002 -0.2902 -0.5237  0.4692
 6618TIP3    H119860   5.339   1.913  -0.026 -0.3938  0.9048 -0.5998
 6618TIP3    H219861   5.413   2.005   0.069 -0.0685  0.7878 -0.7373
 6619TIP3   OH219862   2.693   2.085   1.414 -0.1735 -0.2653 -0.6970
 6619TIP3    H119863   2.607   2.096   1.372  0.5948  0.6742 -2.1155
 6619TIP3    H219864   2.744   2.033   1.352  0.5609 -0.0755 -0.2707
 6620TIP3   OH219865   6.224   0.777   0.304 -0.0214  0.0057  0.1672
 6620TIP3    H119866   6.181   0.699   0.270  1.7613  0.0708 -2.4900
 6620TIP3    H219867   6.307   0.746   0.340  0.3561  0.5759 -0.1956
 6621TIP3   OH219868   5.204   1.577   0.525 -0.0941  0.0397 -0.3563
 6621TIP3    H119869   5.293   1.566   0.559 -0.6170  0.4369  1.2597
 6621TIP3    H219870   5.214   1.630   0.446  1.0466  0.8010  0.2683
 6622TIP3   OH219871   4.211   0.175   2.275  0.6566  0.2007 -0.0425
 6622TIP3    H119872   4.256   0.252   2.311  0.9460  0.0576 -0.0950
 6622TIP3    H219873   4.121   0.205   2.259  0.9663  0.7735 -0.8068
 6623TIP3   OH219874   3.330   1.700   1.691  0.4416  0.3857 -0.2079
 6623TIP3    H119875   3.377   1.686   1.609  0.9232  1.3545 -0.1109
 6623TIP3    H219876   3.237   1.690   1.668  0.1902  4.5879 -1.8269
 6624TIP3   OH219877   3.821   0.335   2.549  0.0195 -0.4651  0.1135
 6624TIP3    H119878   3.732   0.348   2.517 -0.5586 -0.9633  1.4257
 6624TIP3    H219879   3.874   0.397   2.500 -1.0379 -0.2340 -0.7619
 6625TIP3   OH219880   0.036   4.036   2.191 -0.1506 -0.2397 -0.1572
 6625TIP3    H119881   0.008   4.011   2.280  3.2602  3.5306  2.3132
 6625TIP3    H219882   0.130   4.018   2.190 -0.0382  0.0867 -2.9960
 6626TIP3   OH219883   4.666   0.633   2.808 -0.0001 -0.2308 -0.4750
 6626TIP3    H119884   4.585   0.647   2.857  0.4544  0.8873 -0.0050
 6626TIP3    H219885   4.729   0.694   2.848  0.3973  0.7260 -2.4352
 6627TIP3   OH219886   6.054   5.956   0.050 -0.1058 -0.3349 -0.3660
 6627TIP3    H119887   6.008   6.006  -0.018  0.3815 -0.2857 -0.6640
 6627TIP3    H219888   6.012   5.983   0.132 -1.0629 -0.7976 -0.6838
 6628TIP3   OH219889   2.738   2.588   0.127 -0.2497 -0.5033  0.1869
 6628TIP3    H119890   2.764   2.520   0.189 -0.4350  0.4352  1.3383
 6628TIP3    H219891   2.801   2.659   0.142  0.6130 -0.7869 -1.7492
 6629TIP3   OH219892   2.490   0.425   3.881 -0.1676  0.6547 -0.7436
 6629TIP3    H119893   2.576   0.397   3.911  0.0459  0.4237 -1.5395
 6629TIP3    H219894   2.430   0.358   3.913 -0.0790  0.9018 -0.0450
 6630TIP3   OH219895   3.332   2.647   1.562  0.0626  0.5536 -0.0383
 6630TIP3    H119896   3.390   2.654   1.638  0.3593 -2.2373  0.0656
 6630TIP3    H219897   3.381   2.687   1.490  0.7005  1.2203  0.7505
 6631TIP3   OH219898   5.332   1.812   5.106 -0.2845 -0.8487 -0.4890
 6631TIP3    H119899   5.366   1.833   5.020 -1.4050 -1.2606 -1.0550
 6631TIP3    H219900   5.359   1.885   5.162  0.6153 -0.6806 -1.1392
 6632TIP3   OH219901   4.311   0.867   4.861 -0.5393 -0.2532  0.5346
 6632TIP3    H119902   4.248   0.798   4.880 -1.2695 -0.0142 -0.8876
 6632TIP3    H219903   4.279   0.909   4.781 -0.2898  1.9534  1.4953
 6633TIP3   OH219904   4.014   0.474   0.494 -0.4996  0.0650  0.0893
 6633TIP3    H119905   3.979   0.545   0.548  0.9687  0.9720 -0.1005
 6633TIP3    H219906   4.097   0.508   0.460 -0.3202 -1.3205 -0.9478
 6634TIP3   OH219907   1.270   1.372   2.165  0.3632 -0.1950  0.1827
 6634TIP3    H119908   1.317   1.398   2.245  0.1254 -0.9462  0.5837
 6634TIP3    H219909   1.298   1.435   2.099 -0.1735  1.0402  1.0972
 6635TIP3   OH219910   0.082   3.051   1.907  0.3942  0.0745 -0.2242
 6635TIP3    H119911   0.091   3.144   1.888  1.7258 -0.1834 -1.0333
 6635TIP3    H219912   0.063   3.011   1.822 -0.3000 -0.3750  0.1392
 6636TIP3   OH219913   5.719   4.735   2.549 -0.7365  0.0700  0.0627
 6636TIP3    H119914   5.774   4.668   2.590 -1.1329  1.6167  3.5045
 6636TIP3    H219915   5.639   4.689   2.524 -0.8077 -0.9263  1.9113
 6637TIP3   OH219916   1.234   3.727   5.042 -0.2055  0.1963  0.0448
 6637TIP3    H119917   1.202   3.810   5.005 -2.4283 -0.5380  0.1820
 6637TIP3    H219918   1.175   3.661   5.007  1.4515 -1.3606  0.0460
 6638TIP3   OH219919   3.453   1.855   3.947 -0.1009 -0.3600 -0.3383
 6638TIP3    H119920   3.408   1.939   3.947 -1.0194 -0.8444 -1.1695
 6638TIP3    H219921   3.454   1.828   3.855  0.2125 -1.2449 -0.0835
 6639TIP3   OH219922   0.161   2.934   3.014  0.1909  0.0779  0.4396
 6639TIP3    H119923   0.195   2.942   3.103  0.2625  0.0447  0.4152
 6639TIP3    H219924   0.172   3.021   2.977 -1.5491  0.6136  1.0677
 6640TIP3   OH219925   4.664   5.726   4.979 -0.0788  0.0655 -0.1624
 6640TIP3    H119926   4.758   5.712   4.967 -0.1622  1.4973 -3.4056
 6640TIP3    H219927   4.623   5.652   4.935 -0.5559 -0.7786  1.6017
 6641TIP3   OH219928   2.488   3.184   4.747  0.0839 -0.0495  0.4632
 6641TIP3    H119929   2.483   3.253   4.681 -0.5246 -1.6065 -1.1837
 6641TIP3    H219930   2.516   3.106   4.699 -1.7804 -1.5838  1.7205
 6642TIP3   OH219931   5.853   0.553   4.808 -0.3892 -0.2028  0.3116
 6642TIP3    H119932   5.825   0.591   4.891 -1.7097  0.1725 -0.2714
 6642TIP3    H219933   5.934   0.598   4.786 -0.2295 -0.0428  1.2111
 6643TIP3   OH219934   2.569   5.252   2.125  0.1801  0.1006  0.0364
 6643TIP3    H119935   2.656   5.272   2.160 -0.0101  2.4495 -0.6519
 6643TIP3    H219936   2.517   5.229   2.201  1.2220 -0.6959  0.5353
 6644TIP3   OH219937   2.573   4.642   4.106  0.1755 -0.1872  0.4118
 6644TIP3    H119938   2.486   4.680   4.122  0.8036  0.8319  1.5457
 6644TIP3    H219939   2.625   4.716   4.073  0.2495 -1.1271 -1.7727
 6645TIP3   OH219940   1.241   2.169   4.026 -0.4847 -0.3937  0.5263
 6645TIP3    H119941   1.332   2.152   4.002 -0.7211 -0.1169 -0.6776
 6645TIP3    H219942   1.236   2.265   4.035 -1.1012 -0.1544 -1.6339
   6.35397   5.99058   5.18800   0.00000   0.00000  -2.11799   0.00000  -2.11799  -2.99528
