Title
19942
    1ASP      N    1   2.054   2.248   2.782  0.2451  0.5961 -0.2860
    1ASP    HT1    2   1.990   2.267   2.702  1.2489 -1.2109 -1.5838
    1ASP    HT2    3   1.996   2.191   2.846 -0.2356  1.3955  0.0116
    1ASP    HT3    4   2.145   2.212   2.748  1.5380  3.5390 -0.2976
    1ASP     CA    5   2.079   2.378   2.854  0.2460 -0.3251  0.3506
    1ASP     HA    6   2.123   2.445   2.782 -1.9382  1.7586  0.8462
    1ASP     CB    7   1.944   2.443   2.904 -0.7666  0.2200  0.3521
    1ASP    HB1    8   1.905   2.389   2.993  0.5770 -0.9498  0.2571
    1ASP    HB2    9   1.875   2.436   2.817 -1.3432  0.7966  0.7513
    1ASP     CG   10   1.943   2.600   2.931  0.8215  0.0887 -0.8115
    1ASP    OD1   11   1.841   2.659   2.970  0.1990  0.4899  0.0054
    1ASP    OD2   12   2.051   2.663   2.918 -0.1263  0.0542 -0.1547
    1ASP      C   13   2.169   2.352   2.969  0.3994  0.4234 -0.1244
    1ASP      O   14   2.196   2.239   3.011 -0.1015  0.2091  0.0528
    2ALA      N   15   2.222   2.459   3.030  0.0542 -0.6856 -0.6739
    2ALA     HN   16   2.206   2.550   2.993  0.6261  0.1488  1.0303
    2ALA     CA   17   2.320   2.448   3.138 -0.1744  0.3356 -0.0698
    2ALA     HA   18   2.300   2.363   3.200 -0.3392  0.6677  0.3387
    2ALA     CB   19   2.465   2.443   3.080 -0.1733 -0.0537 -0.0079
    2ALA    HB1   20   2.536   2.420   3.162 -1.8340  0.3005  1.5942
    2ALA    HB2   21   2.493   2.540   3.035 -1.5649 -0.8218 -2.7601
    2ALA    HB3   22   2.476   2.361   3.006  1.0672 -0.9311  1.0901
    2ALA      C   23   2.311   2.570   3.231  0.3360  0.2501 -0.1489
    2ALA      O   24   2.283   2.683   3.195  0.1757 -0.2667 -0.1828
    3ASP      N   25   2.325   2.533   3.362 -0.2243 -0.7806 -0.1287
    3ASP     HN   26   2.356   2.440   3.380 -1.9430 -1.2434  0.5532
    3ASP     CA   27   2.304   2.626   3.469 -0.5504 -0.5766 -0.0288
    3ASP     HA   28   2.300   2.726   3.429  0.4328 -0.6888 -0.4577
    3ASP     CB   29   2.185   2.587   3.556  0.1252  0.1841 -0.3336
    3ASP    HB1   30   2.190   2.656   3.643 -0.8733 -0.6794  0.4336
    3ASP    HB2   31   2.190   2.482   3.591  1.7899  0.0917 -0.7574
    3ASP     CG   32   2.050   2.612   3.492 -0.5044  0.2151 -0.3440
    3ASP    OD1   33   1.956   2.535   3.505  0.6241  0.3469 -0.3370
    3ASP    OD2   34   2.029   2.727   3.445 -0.0167  0.3907  0.0622
    3ASP      C   35   2.426   2.616   3.559 -0.6656 -0.8459  0.3566
    3ASP      O   36   2.474   2.511   3.601 -0.2933  0.6185 -0.0519
    4GLY      N   37   2.487   2.731   3.599 -0.0295  0.0667 -0.0138
    4GLY     HN   38   2.448   2.821   3.581  0.9707  0.9232  1.8219
    4GLY     CA   39   2.611   2.744   3.669 -0.4020  0.0894 -0.1753
    4GLY    HA1   40   2.616   2.850   3.689  0.3596  0.5525 -2.5136
    4GLY    HA2   41   2.687   2.702   3.605  1.5216 -0.1017  2.0957
    4GLY      C   42   2.620   2.688   3.806  0.6329 -0.4703  0.0223
    4GLY      O   43   2.516   2.688   3.879 -0.3606  0.3658  0.3674
    5PRO      N   44   2.729   2.626   3.848 -0.2031 -0.0824 -0.6285
    5PRO     CD   45   2.851   2.615   3.768  0.0469 -0.3054  0.6045
    5PRO    HD1   46   2.903   2.713   3.755 -1.1910  0.2879 -0.0477
    5PRO    HD2   47   2.831   2.568   3.669  0.3728  0.4063  0.1932
    5PRO     CA   48   2.755   2.602   3.985 -0.5512 -0.2078 -0.3133
    5PRO     HA   49   2.682   2.527   4.012 -0.9374 -0.0946 -1.0284
    5PRO     CB   50   2.909   2.566   3.984 -0.2439 -0.1931  0.6107
    5PRO    HB1   51   2.922   2.491   4.066 -0.3393  0.1655  0.9605
    5PRO    HB2   52   2.971   2.656   4.003  1.6958 -1.4591  0.5721
    5PRO     CG   53   2.944   2.522   3.839 -0.3032  0.1745 -0.1278
    5PRO    HG1   54   3.053   2.538   3.829  0.2178 -2.2222  1.0013
    5PRO    HG2   55   2.909   2.418   3.822  1.0317 -0.9079  3.0942
    5PRO      C   56   2.729   2.715   4.084  0.0698  0.4275  0.1199
    5PRO      O   57   2.729   2.833   4.053  0.5997  0.2563 -0.5769
    6GLY      N   58   2.698   2.681   4.209 -0.2391 -0.0511 -0.3850
    6GLY     HN   59   2.687   2.584   4.230  1.2680 -0.7586 -2.5309
    6GLY     CA   60   2.675   2.768   4.327  0.3113 -0.2145  0.3276
    6GLY    HA1   61   2.655   2.710   4.416  2.1622 -1.3964  0.0093
    6GLY    HA2   62   2.596   2.840   4.312 -0.4491 -1.2978 -1.1316
    6GLY      C   63   2.791   2.850   4.370 -0.4598  0.4348 -0.2796
    6GLY      O   64   2.912   2.832   4.337 -0.3467  0.3595 -0.6136
    7ASP      N   65   2.763   2.950   4.454  0.3527  0.6787 -0.2821
    7ASP     HN   66   2.667   2.975   4.467  0.4972  0.2839  1.8355
    7ASP     CA   67   2.861   3.017   4.535  0.5419  0.1739  0.1262
    7ASP     HA   68   2.913   3.080   4.464  1.2283 -1.3478 -0.7659
    7ASP     CB   69   2.796   3.119   4.633 -0.1289 -0.1959  0.0323
    7ASP    HB1   70   2.879   3.153   4.699  2.5752  0.2012 -3.2762
    7ASP    HB2   71   2.718   3.064   4.689 -0.9501 -0.1025 -0.9928
    7ASP     CG   72   2.732   3.241   4.572 -0.1190 -0.7456  0.4249
    7ASP    OD1   73   2.749   3.264   4.448  0.3983 -0.3459  0.0203
    7ASP    OD2   74   2.672   3.322   4.648  0.1710  0.8976  0.0412
    7ASP      C   75   2.957   2.916   4.608 -0.1564  0.4931 -0.2668
    7ASP      O   76   2.921   2.800   4.633 -0.0152 -0.9010 -0.5379
    8PRO      N   77   3.088   2.947   4.647  0.0901  0.4735 -0.2348
    8PRO     CD   78   3.152   3.078   4.643  0.8103  0.1970  0.3501
    8PRO    HD1   79   3.103   3.138   4.723 -2.6894 -2.8289  0.7028
    8PRO    HD2   80   3.138   3.116   4.539 -1.8629 -1.1759  0.1305
    8PRO     CA   81   3.167   2.858   4.739 -0.2964  0.8903  0.3805
    8PRO     HA   82   3.207   2.785   4.671 -0.0570 -0.1090  1.5629
    8PRO     CB   83   3.292   2.939   4.787 -1.0986  0.0154 -0.2127
    8PRO    HB1   84   3.388   2.886   4.802 -0.9620  0.4873  0.6840
    8PRO    HB2   85   3.266   2.994   4.881 -1.4295  0.3606 -0.4985
    8PRO     CG   86   3.295   3.052   4.673 -0.1783 -0.4278 -0.2165
    8PRO    HG1   87   3.348   3.140   4.714 -3.1217  1.6979 -0.6735
    8PRO    HG2   88   3.351   3.018   4.583  1.8502  0.4445  0.6529
    8PRO      C   89   3.100   2.777   4.852 -0.4105  1.0234 -0.1751
    8PRO      O   90   3.010   2.820   4.921 -0.1731  0.2712 -0.0061
    9ASP      N   91   3.153   2.654   4.875  0.0199  0.5366 -0.0397
    9ASP     HN   92   3.228   2.619   4.820  0.1645  0.3684  0.2666
    9ASP     CA   93   3.075   2.558   4.953  0.6141  0.3713 -0.4581
    9ASP     HA   94   2.992   2.604   5.004  0.0790  2.2207 -2.7780
    9ASP     CB   95   3.024   2.447   4.847 -0.2241 -0.9091 -0.5766
    9ASP    HB1   96   3.112   2.385   4.819 -0.0553 -0.4257 -1.1299
    9ASP    HB2   97   2.981   2.494   4.757 -1.9166  0.7684  1.0241
    9ASP     CG   98   2.917   2.352   4.897  0.0661  0.0627 -0.3594
    9ASP    OD1   99   2.871   2.270   4.814 -0.3583  0.2222 -0.3929
    9ASP    OD2  100   2.875   2.353   5.013  0.5128 -0.5282  0.6026
    9ASP      C  101   3.159   2.496   5.057 -0.2810 -0.1772 -0.5705
    9ASP      O  102   3.284   2.509   5.052  0.0707  0.2550 -0.2074
   10ALA      N  103   3.100   2.437   5.170  0.0185  0.2691 -0.1161
   10ALA     HN  104   3.001   2.423   5.164 -0.0972  0.4986  1.0028
   10ALA     CA  105   3.181   2.393   5.289 -0.1582  0.0266 -0.1926
   10ALA     HA  106   3.286   2.389   5.264  0.7507 -0.3104  3.1554
   10ALA     CB  107   3.146   2.482   5.416 -0.0548  0.8587 -0.3126
   10ALA    HB1  108   3.051   2.457   5.467  0.8722  1.5261  1.8806
   10ALA    HB2  109   3.151   2.590   5.391 -0.5761  0.8802 -0.3190
   10ALA    HB3  110   3.227   2.453   5.486 -1.0009  1.9244  1.2888
   10ALA      C  111   3.137   2.250   5.318 -0.2580 -0.6997 -0.4604
   10ALA      O  112   3.154   2.202   5.431  0.2303 -0.4185 -0.0951
   11GLY      N  113   3.072   2.186   5.221 -0.0100 -0.1218  0.8228
   11GLY     HN  114   3.075   2.236   5.134 -0.2337  2.1104  2.0277
   11GLY     CA  115   3.003   2.057   5.234  0.2005  0.1575  0.2375
   11GLY    HA1  116   2.963   2.053   5.334  0.6159  4.3062  0.7315
   11GLY    HA2  117   3.074   1.977   5.220  0.4413  0.3978  0.0832
   11GLY      C  118   2.892   2.047   5.137  0.5173  0.0115  0.0152
   11GLY    OT1  119   2.784   2.110   5.154 -1.0157  0.0344 -0.1466
   11GLY    OT2  120   2.919   1.990   5.027  0.3331 -0.4739 -0.6255
   12LIT    LIT  121   2.638   3.413   4.391 -0.4362  0.2335  0.5606
   13LIT    LIT  122   0.424   2.651   3.205  0.1415  0.2742  0.2664
   14LIT    LIT  123   5.458   4.161   1.363 -0.1010 -0.1920  0.5558
   15LIT    LIT  124   5.076   2.223   3.266  0.2294  0.3409 -0.2588
   16LIT    LIT  125   4.834   1.183   0.418  0.3309 -0.0624  1.3129
   17LIT    LIT  126   0.907   4.567   0.715 -0.2992  1.2714 -0.5440
   18LIT    LIT  127   1.536   0.889   2.199 -0.1879 -0.2069  0.5210
   19LIT    LIT  128   2.102   1.691   3.080  0.2540 -0.1134 -0.0002
   20LIT    LIT  129   1.655   3.824   1.979  0.1031 -0.7808 -0.7495
   21LIT    LIT  130   1.799   3.781   5.137  0.8181  0.3685  0.4698
   22LIT    LIT  131   5.654   2.574   1.562 -0.8083  0.0300 -0.6149
   23LIT    LIT  132   3.852   2.784   2.422 -0.1364  0.9681  0.6084
   24LIT    LIT  133   2.652   3.826   3.577  0.2023  0.2574  0.2318
   25LIT    LIT  134   3.004   0.174   0.372 -0.4924 -0.6715  0.6407
   26LIT    LIT  135   2.901   5.058   1.250  0.3684 -0.4541 -0.1235
   27LIT    LIT  136   1.992   2.810   3.022  0.4553  0.3242 -0.0154
   28LIT    LIT  137   2.565   5.816   2.273 -0.4562 -1.1298 -0.8392
   29LIT    LIT  138   0.529   2.942   4.856 -0.4504  0.4435  0.7716
   30LIT    LIT  139   0.657   5.481   2.535 -0.9529 -0.1238 -0.1047
   31LIT    LIT  140   0.599   3.109   1.893 -0.9605  0.7777 -0.9888
   32LIT    LIT  141   2.786   2.180   4.977  0.4557 -0.0234  0.3473
   33LIT    LIT  142   2.178   4.753   3.667  0.3987  0.1767  0.1148
   34CLA    CLA  143   1.487   1.093   2.335  0.2528 -0.1374  0.0611
   35CLA    CLA  144   1.082   2.870   2.156 -0.4578  0.0827  0.1429
   36CLA    CLA  145   0.275   0.459   1.939  0.1361 -0.5903 -0.4280
   37CLA    CLA  146   1.895   4.672   5.037  0.6390 -0.0678  0.5761
   38CLA    CLA  147   6.037   3.636   0.404  0.4594  0.2591 -0.0955
   39CLA    CLA  148   4.974   2.687   0.406  0.0261  0.1052  0.0742
   40CLA    CLA  149   3.968   3.644   2.514  0.0561  0.1411  0.3237
   41CLA    CLA  150   3.206   0.041   4.416 -0.0806  0.1039 -0.4125
   42CLA    CLA  151   3.080   5.691   0.555 -0.3788  0.1321  0.3090
   43CLA    CLA  152   2.314   2.131   2.651  0.1535 -0.4139 -0.1762
   44CLA    CLA  153   2.273   0.294   1.162  0.0524  0.2844  0.0049
   45CLA    CLA  154   5.237   1.017   1.110 -0.1963  0.0923  0.0425
   46CLA    CLA  155   1.463   0.928   1.973 -0.0784  0.3592 -0.2318
   47CLA    CLA  156   2.570   1.646   1.296 -0.0496 -0.1579 -0.0233
   48CLA    CLA  157   5.673   4.513   1.828 -0.1840 -0.0578  0.1697
   49CLA    CLA  158   0.196   1.618   1.365 -0.0915  0.0029 -0.0842
   50CLA    CLA  159   1.719   2.593   0.716  0.1018 -0.1191  0.0793
   51CLA    CLA  160   2.386   3.141   3.131  0.0467 -0.4151  0.0665
   52TIP3   OH2  161   0.097   4.857   4.324  0.2306 -0.2527 -0.6363
   52TIP3    H1  162   0.159   4.784   4.329  0.9442  0.3661 -0.3830
   52TIP3    H2  163   0.086   4.873   4.230 -0.7030 -1.3216 -0.7367
   53TIP3   OH2  164   4.434   2.555   3.414  0.0505 -0.4286 -0.3295
   53TIP3    H1  165   4.348   2.549   3.372 -1.3259 -1.0492  2.3604
   53TIP3    H2  166   4.439   2.645   3.445 -0.6188 -0.9160  1.3189
   54TIP3   OH2  167   0.910   1.588   2.062  0.2445 -0.0194 -0.1251
   54TIP3    H1  168   0.831   1.577   2.009 -0.7176  1.0527  1.0243
   54TIP3    H2  169   0.880   1.579   2.153  1.7482 -1.2165  0.3099
   55TIP3   OH2  170   5.408   2.831   1.379  0.3203  0.2269 -0.7634
   55TIP3    H1  171   5.439   2.782   1.456  1.6768  1.3237 -0.5592
   55TIP3    H2  172   5.315   2.813   1.375  0.5973 -1.5577 -0.1140
   56TIP3   OH2  173   1.145   1.378   0.883  0.4992 -0.3710 -0.0131
   56TIP3    H1  174   1.173   1.458   0.838  1.2396 -0.2428  0.6493
   56TIP3    H2  175   1.068   1.348   0.834  1.0072  0.0131 -1.0699
   57TIP3   OH2  176   5.893   1.233   1.758 -0.0733  0.0522 -0.3900
   57TIP3    H1  177   5.934   1.189   1.833 -1.7565 -1.5287 -0.3385
   57TIP3    H2  178   5.940   1.198   1.682  3.1785  3.2929 -0.1615
   58TIP3   OH2  179   4.435   4.467   2.138 -0.6699 -0.1055  0.2168
   58TIP3    H1  180   4.355   4.520   2.132 -0.5719  0.0873  0.5399
   58TIP3    H2  181   4.494   4.506   2.074 -0.8086 -0.1990  0.0325
   59TIP3   OH2  182   5.769   4.740   0.187  0.0464 -0.1683 -0.0004
   59TIP3    H1  183   5.829   4.694   0.245  0.0183  0.4539  0.5345
   59TIP3    H2  184   5.723   4.671   0.139  1.3815 -0.6461 -0.6383
   60TIP3   OH2  185   2.166   1.223   4.190  0.3158 -1.0045  0.5234
   60TIP3    H1  186   2.167   1.151   4.253  1.3149 -2.8638 -1.4843
   60TIP3    H2  187   2.075   1.227   4.160 -0.2995  0.2498  2.3392
   61TIP3   OH2  188   1.291   0.450   4.776 -0.0861  0.1541  0.4603
   61TIP3    H1  189   1.226   0.514   4.804 -0.7224 -0.4597  0.4223
   61TIP3    H2  190   1.244   0.366   4.777  0.5231 -0.2069 -0.1978
   62TIP3   OH2  191   1.184   0.778   2.101  0.3344 -0.0220  0.4274
   62TIP3    H1  192   1.248   0.831   2.053  3.0026 -3.3485 -0.0364
   62TIP3    H2  193   1.108   0.774   2.042  0.3909  2.3346  0.0689
   63TIP3   OH2  194   2.305   2.127   1.152 -1.0462 -0.4002 -0.1004
   63TIP3    H1  195   2.343   2.205   1.192 -0.5464 -0.3906 -0.5760
   63TIP3    H2  196   2.371   2.059   1.164 -1.6278 -0.8489  0.6267
   64TIP3   OH2  197   5.034   2.763   2.555  0.3312 -0.1048 -0.4152
   64TIP3    H1  198   5.119   2.786   2.592  1.4877 -0.9759 -2.3631
   64TIP3    H2  199   4.997   2.846   2.526 -0.2094  0.4784  1.7698
   65TIP3   OH2  200   1.313   2.514   2.528 -0.2808 -0.0437 -0.2298
   65TIP3    H1  201   1.387   2.569   2.502  1.2016 -2.0567 -0.5369
   65TIP3    H2  202   1.349   2.457   2.596 -2.7513  1.7346  2.8376
   66TIP3   OH2  203   2.624   4.490   2.621 -0.2994  0.4748  0.2279
   66TIP3    H1  204   2.567   4.436   2.676 -1.0034  1.7938  0.8234
   66TIP3    H2  205   2.712   4.457   2.638 -0.6479  0.0003  1.1447
   67TIP3   OH2  206   4.624   4.016   3.140 -0.4479 -0.5259 -0.3889
   67TIP3    H1  207   4.642   4.106   3.116  0.5725 -0.4910  0.4642
   67TIP3    H2  208   4.709   3.979   3.163 -0.9929 -1.3656  0.3778
   68TIP3   OH2  209   3.942   2.931   2.299 -0.2291 -0.5913 -0.7427
   68TIP3    H1  210   4.020   2.957   2.251 -0.0311  1.3316  0.5173
   68TIP3    H2  211   3.873   2.988   2.265 -0.2489  0.2580  0.6538
   69TIP3   OH2  212   4.583   3.809   2.125  0.0397 -0.0924  0.8098
   69TIP3    H1  213   4.535   3.805   2.043 -0.7721 -0.5041  1.2838
   69TIP3    H2  214   4.525   3.857   2.184  0.0452 -0.9127  1.4992
   70TIP3   OH2  215   4.136   0.887   2.975  0.1071  0.5993  0.7591
   70TIP3    H1  216   4.072   0.857   2.911  0.2759 -0.3008  0.9946
   70TIP3    H2  217   4.088   0.886   3.058  0.9048 -1.9818  1.2776
   71TIP3   OH2  218   0.819   1.675   0.879  0.0440 -0.1376  0.2178
   71TIP3    H1  219   0.832   1.763   0.915 -3.4956  0.0101  1.5357
   71TIP3    H2  220   0.861   1.617   0.942 -0.1628  0.4970  0.9616
   72TIP3   OH2  221   5.466   5.888   1.918 -0.6112 -0.0522  0.5241
   72TIP3    H1  222   5.519   5.961   1.948  1.6902 -1.9924  1.5149
   72TIP3    H2  223   5.510   5.856   1.840 -1.9304 -0.0675 -0.2480
   73TIP3   OH2  224   5.384   4.579   3.468 -0.6095 -0.3352  0.3991
   73TIP3    H1  225   5.307   4.629   3.441 -0.3554 -0.2356 -0.1510
   73TIP3    H2  226   5.451   4.601   3.403  0.3317  0.6731  1.6624
   74TIP3   OH2  227   4.077   5.668   1.395  0.3877  0.2385 -0.1724
   74TIP3    H1  228   4.130   5.588   1.397  1.5999  0.9392 -2.0084
   74TIP3    H2  229   4.115   5.721   1.325 -1.1289  1.9338  0.2008
   75TIP3   OH2  230   5.998   3.112   0.554  0.5117  0.1644 -0.8231
   75TIP3    H1  231   6.008   3.191   0.608  1.6887 -0.6671  0.2382
   75TIP3    H2  232   5.933   3.136   0.488  0.6565  1.9381 -0.3713
   76TIP3   OH2  233   4.888   2.099   5.082  0.5392 -0.1499  0.0718
   76TIP3    H1  234   4.822   2.046   5.037 -1.3712 -0.0410  2.5032
   76TIP3    H2  235   4.840   2.176   5.113  2.4244  1.1977 -0.1705
   77TIP3   OH2  236   3.428   4.419   0.170 -0.8247  0.2090 -0.8437
   77TIP3    H1  237   3.514   4.449   0.200 -0.9515 -0.0203 -0.2302
   77TIP3    H2  238   3.384   4.389   0.250 -2.1440  1.9528 -0.8630
   78TIP3   OH2  239   4.854   5.670   3.967 -0.2610 -0.1867 -0.1928
   78TIP3    H1  240   4.890   5.759   3.973  0.7602 -0.6550  0.9511
   78TIP3    H2  241   4.774   5.673   4.020  0.0491 -0.0755  0.2741
   79TIP3   OH2  242   2.133   0.009   2.752 -0.1514 -0.4624 -0.3793
   79TIP3    H1  243   2.197  -0.034   2.809  1.5294  2.4232  0.1689
   79TIP3    H2  244   2.061   0.032   2.810  0.7664  0.9109  0.2794
   80TIP3   OH2  245   2.942   5.614   4.386 -0.0500 -0.1374  0.3843
   80TIP3    H1  246   2.953   5.662   4.304 -0.8720 -2.0320 -0.8987
   80TIP3    H2  247   3.015   5.552   4.387 -1.3484 -1.7437 -0.1456
   81TIP3   OH2  248   4.715   5.494   2.085  0.2506 -0.5710  0.0287
   81TIP3    H1  249   4.737   5.527   2.172 -1.0551  0.6352 -0.0639
   81TIP3    H2  250   4.638   5.438   2.099  2.2671 -3.5275  0.1438
   82TIP3   OH2  251   3.770   0.610   2.004  0.1955  0.2500  0.2069
   82TIP3    H1  252   3.718   0.631   2.082 -1.5499 -2.5052 -0.0724
   82TIP3    H2  253   3.710   0.625   1.931  0.6169 -0.6071 -0.3235
   83TIP3   OH2  254   3.286   4.500   4.252  0.0257 -0.0376  0.0926
   83TIP3    H1  255   3.253   4.522   4.338 -0.4685 -0.0447 -0.0935
   83TIP3    H2  256   3.253   4.412   4.235  0.6048 -0.2728  0.1363
   84TIP3   OH2  257   0.016   5.720   3.475  0.0451 -0.3414 -0.0649
   84TIP3    H1  258   0.063   5.642   3.505 -0.6455 -0.5148  0.5798
   84TIP3    H2  259  -0.073   5.708   3.506 -0.2359  0.3777 -0.5745
   85TIP3   OH2  260   2.484   4.962   4.710 -0.1044  0.1738 -0.1595
   85TIP3    H1  261   2.486   5.057   4.709 -0.1349  0.1813 -1.2217
   85TIP3    H2  262   2.573   4.935   4.685 -0.1922 -0.0615 -0.2264
   86TIP3   OH2  263   0.006   5.851   1.406 -0.0995  0.2135  0.7222
   86TIP3    H1  264  -0.023   5.903   1.331 -0.3899 -1.2124 -0.2003
   86TIP3    H2  265   0.040   5.770   1.367  0.6411 -0.1565  2.0844
   87TIP3   OH2  266   2.568   0.713   0.488 -0.0184  0.4761  0.7726
   87TIP3    H1  267   2.488   0.713   0.541  0.6270 -0.7502  1.7971
   87TIP3    H2  268   2.628   0.655   0.535  1.0669  0.4395 -0.5980
   88TIP3   OH2  269   4.884   4.290   0.240 -0.3740 -0.1649  0.1923
   88TIP3    H1  270   4.919   4.266   0.326 -1.4461 -2.1034  0.1453
   88TIP3    H2  271   4.960   4.322   0.192  0.5474 -0.5013  1.3609
   89TIP3   OH2  272   2.905   3.029   2.375  0.0041 -0.0808  0.6559
   89TIP3    H1  273   2.933   2.940   2.356  2.8821  1.1480 -1.5110
   89TIP3    H2  274   2.819   3.037   2.333  0.8040 -1.1470 -1.2820
   90TIP3   OH2  275   4.911   1.745   4.161  0.4831 -0.5204 -0.5451
   90TIP3    H1  276   4.877   1.832   4.144 -1.9574 -1.8959 -3.5858
   90TIP3    H2  277   4.995   1.742   4.115  0.4147  0.1295 -0.7096
   91TIP3   OH2  278   5.804   2.457   1.981 -0.5123  0.5469 -0.2105
   91TIP3    H1  279   5.720   2.499   1.964  0.0741  1.8098 -0.1096
   91TIP3    H2  280   5.869   2.518   1.947  0.3576 -0.6826 -0.8369
   92TIP3   OH2  281   2.053   5.832   3.767  0.3572  0.4299 -0.1538
   92TIP3    H1  282   2.059   5.816   3.861  1.6337 -1.3546 -0.4807
   92TIP3    H2  283   2.021   5.922   3.759  0.5404  0.7164  1.9744
   93TIP3   OH2  284   1.831   3.347   3.417 -0.0509  0.7122  1.1657
   93TIP3    H1  285   1.858   3.290   3.489 -1.6662  1.5712  2.5392
   93TIP3    H2  286   1.882   3.317   3.342 -0.0690 -1.8509  2.0703
   94TIP3   OH2  287   5.118   5.155   2.206  0.0498  0.3329 -0.0486
   94TIP3    H1  288   5.022   5.144   2.205  0.1327 -0.8651  1.2868
   94TIP3    H2  289   5.144   5.124   2.293  1.7068  0.1363 -0.5880
   95TIP3   OH2  290   4.194   3.792   1.106  0.2685  0.1181  0.4075
   95TIP3    H1  291   4.190   3.866   1.046  1.3061  0.5577  0.8484
   95TIP3    H2  292   4.254   3.730   1.065 -1.1189 -0.8175 -0.2880
   96TIP3   OH2  293   5.530   0.969   4.602 -0.2254  0.5125 -0.3196
   96TIP3    H1  294   5.576   0.916   4.536 -1.4639 -0.7467 -0.2153
   96TIP3    H2  295   5.437   0.953   4.586 -0.5855  1.1955  0.9254
   97TIP3   OH2  296   6.106   1.196   1.534  0.1381 -0.1772  0.4790
   97TIP3    H1  297   6.097   1.133   1.462  0.6147  0.3991 -0.0945
   97TIP3    H2  298   6.178   1.161   1.587  1.0623  0.3779 -0.3757
   98TIP3   OH2  299   6.212   3.670   0.642 -0.1304 -0.3761  0.2790
   98TIP3    H1  300   6.150   3.625   0.585  1.2078 -2.0384  0.0487
   98TIP3    H2  301   6.159   3.705   0.714 -1.5440 -0.1251 -0.8466
   99TIP3   OH2  302   3.108   3.800   3.247 -0.6742 -0.4470  0.3426
   99TIP3    H1  303   3.108   3.853   3.326 -2.3091 -0.4330  0.3618
   99TIP3    H2  304   3.092   3.711   3.277 -2.0250 -0.3405 -0.0093
  100TIP3   OH2  305   3.828   2.380   1.106 -0.4975  0.5395 -0.4057
  100TIP3    H1  306   3.781   2.341   1.032 -0.3519 -1.8526  0.6684
  100TIP3    H2  307   3.919   2.383   1.077 -0.6298  0.8844 -0.8020
  101TIP3   OH2  308   0.820   5.119   0.102 -0.2629 -0.6630  0.2091
  101TIP3    H1  309   0.784   5.081   0.182  0.3113 -0.6439  0.4811
  101TIP3    H2  310   0.762   5.087   0.033 -0.3433 -1.2720  0.5446
  102TIP3   OH2  311   0.565   2.152   3.568  0.2801 -0.0294 -0.1842
  102TIP3    H1  312   0.609   2.232   3.538  2.1945 -0.9475  0.0094
  102TIP3    H2  313   0.542   2.170   3.659  0.8475  0.2676 -0.0918
  103TIP3   OH2  314   2.776   3.226   1.090  0.0220  0.5582 -0.0271
  103TIP3    H1  315   2.686   3.257   1.100  0.0900  0.4800  0.9427
  103TIP3    H2  316   2.773   3.135   1.118  0.6404  0.9096  1.2438
  104TIP3   OH2  317   0.702   2.496   0.546  0.2053  0.5685  1.1585
  104TIP3    H1  318   0.769   2.443   0.589  0.2257 -0.5585 -0.1798
  104TIP3    H2  319   0.685   2.451   0.463  1.3646  3.4828 -0.8323
  105TIP3   OH2  320   5.515   2.399   0.208 -0.0885 -0.1704  0.2162
  105TIP3    H1  321   5.462   2.366   0.135  0.6871 -0.5963 -0.1638
  105TIP3    H2  322   5.561   2.475   0.171  0.5528 -0.5796  0.1614
  106TIP3   OH2  323   3.576   4.824   2.929  0.3768  0.0560  0.3463
  106TIP3    H1  324   3.488   4.789   2.940  0.0484 -0.1340 -2.2579
  106TIP3    H2  325   3.563   4.911   2.890  1.3135 -0.0256 -0.1970
  107TIP3   OH2  326   3.902   3.003   1.429  0.2919 -0.2625  0.4022
  107TIP3    H1  327   3.971   3.066   1.446 -1.1220  0.8966  2.2128
  107TIP3    H2  328   3.942   2.918   1.444  2.2705  0.0925 -2.1671
  108TIP3   OH2  329   1.659   1.276   3.473  0.1214 -0.0095 -0.0470
  108TIP3    H1  330   1.577   1.307   3.434  0.0326 -0.0369  0.1159
  108TIP3    H2  331   1.631   1.220   3.546  0.2457 -2.1127 -1.5290
  109TIP3   OH2  332   6.092   4.401   4.636  0.0752 -0.3100  0.7312
  109TIP3    H1  333   6.177   4.371   4.669  1.0390  2.3460  0.8685
  109TIP3    H2  334   6.082   4.490   4.671 -1.1184  0.8016 -2.1275
  110TIP3   OH2  335   5.851   5.850   4.484  0.3931  0.6646 -0.4581
  110TIP3    H1  336   5.798   5.892   4.416  0.1788  0.6863 -0.2747
  110TIP3    H2  337   5.935   5.897   4.481  0.3414  0.7459 -0.6250
  111TIP3   OH2  338   0.756   4.855   1.842  0.8182  0.2715  0.5565
  111TIP3    H1  339   0.670   4.881   1.874  1.0854  0.7674  0.8770
  111TIP3    H2  340   0.817   4.882   1.911  1.3092  0.5957  0.0069
  112TIP3   OH2  341   3.368   2.209   0.574 -0.5441  0.0595 -0.3407
  112TIP3    H1  342   3.359   2.299   0.545 -0.1545  0.5341  0.9482
  112TIP3    H2  343   3.348   2.156   0.497 -1.4233  1.2317 -0.9378
  113TIP3   OH2  344   0.436   2.367   2.866  0.4790  0.4602  0.4276
  113TIP3    H1  345   0.501   2.425   2.826  0.9041 -0.2752  0.0356
  113TIP3    H2  346   0.356   2.384   2.817  0.4737  1.0551  0.6273
  114TIP3   OH2  347   2.652   3.380   4.192  0.4354 -0.1621  0.1485
  114TIP3    H1  348   2.661   3.461   4.142  1.5256 -0.4307 -0.1256
  114TIP3    H2  349   2.721   3.323   4.157  0.8244 -0.5816  1.5392
  115TIP3   OH2  350   3.508   3.178   3.011  0.0780 -0.1337 -0.6115
  115TIP3    H1  351   3.535   3.257   3.058  0.5246 -1.2220  1.0422
  115TIP3    H2  352   3.458   3.210   2.936 -1.1132  1.6722  0.8705
  116TIP3   OH2  353   6.157   4.879   5.050 -0.2222  0.0025  0.2802
  116TIP3    H1  354   6.081   4.833   5.085 -1.3978 -0.7941 -2.9937
  116TIP3    H2  355   6.140   4.972   5.068 -0.7504 -0.3260  1.6300
  117TIP3   OH2  356   4.201   1.848   2.008 -0.5480  0.0438 -0.2335
  117TIP3    H1  357   4.120   1.798   2.019 -0.0088 -0.9366 -0.5916
  117TIP3    H2  358   4.196   1.918   2.074 -2.0734  0.5325 -0.8313
  118TIP3   OH2  359   3.769   5.212   2.327 -0.3266 -0.4413  0.3656
  118TIP3    H1  360   3.807   5.237   2.411 -2.4347 -0.3882  1.3523
  118TIP3    H2  361   3.765   5.116   2.330 -0.9992 -0.4085  0.6122
  119TIP3   OH2  362   5.953   5.767   0.521 -0.3100 -0.0224 -1.0700
  119TIP3    H1  363   5.867   5.811   0.523 -0.4425 -0.0802  3.1405
  119TIP3    H2  364   6.013   5.835   0.490 -1.4581  0.9788 -1.2306
  120TIP3   OH2  365   3.444   0.100   1.571 -0.0042  0.0231 -0.2153
  120TIP3    H1  366   3.435   0.177   1.515  0.5708 -0.0390 -0.3920
  120TIP3    H2  367   3.370   0.045   1.547 -0.1877  0.3339 -0.3748
  121TIP3   OH2  368   5.648   2.254   4.192 -0.7770  0.2244 -0.0970
  121TIP3    H1  369   5.698   2.238   4.272 -1.2961  1.7307  0.5755
  121TIP3    H2  370   5.571   2.198   4.201  0.2709 -1.3701 -0.6810
  122TIP3   OH2  371   1.004   1.766   4.519 -0.4437  0.3186 -0.3439
  122TIP3    H1  372   1.067   1.712   4.471 -2.5382 -0.8611 -1.9319
  122TIP3    H2  373   0.995   1.722   4.603 -0.2306 -0.3427 -0.6530
  123TIP3   OH2  374   5.035   0.458   2.336 -0.5795 -0.4753 -0.3743
  123TIP3    H1  375   4.974   0.530   2.318 -1.2296 -1.1023 -0.7444
  123TIP3    H2  376   4.988   0.379   2.306  0.4367 -0.9600 -0.7232
  124TIP3   OH2  377   5.242   5.724   4.990 -0.6594  0.0086  0.5759
  124TIP3    H1  378   5.287   5.798   5.031  1.5368  0.1996 -1.9074
  124TIP3    H2  379   5.162   5.761   4.953 -1.1080  0.4513  1.9305
  125TIP3   OH2  380   3.261   1.599   2.571  0.3315  0.9536 -0.0269
  125TIP3    H1  381   3.253   1.506   2.593 -0.2338  0.6548 -1.3616
  125TIP3    H2  382   3.330   1.631   2.628  0.8590 -0.3998  0.1470
  126TIP3   OH2  383   3.202   0.910   5.128 -0.1582 -0.1771 -0.3466
  126TIP3    H1  384   3.281   0.888   5.078 -1.4540 -2.0323 -1.7460
  126TIP3    H2  385   3.212   0.863   5.211  0.2565 -0.3085 -0.4674
  127TIP3   OH2  386   3.376   5.662   3.765  0.0697  0.6537  0.6425
  127TIP3    H1  387   3.378   5.746   3.720 -0.5239  0.8315  0.9402
  127TIP3    H2  388   3.284   5.647   3.785  0.1304 -0.2060  0.3394
  128TIP3   OH2  389   0.691   3.869   1.325 -0.3985  0.0118 -0.0170
  128TIP3    H1  390   0.599   3.887   1.308 -0.2510  1.5914  0.6877
  128TIP3    H2  391   0.731   3.955   1.339  1.2844 -0.6050 -0.7538
  129TIP3   OH2  392   1.075   4.559   3.494 -0.3164 -0.5646 -0.1691
  129TIP3    H1  393   1.039   4.646   3.508 -0.0250 -0.8742  3.6323
  129TIP3    H2  394   1.117   4.563   3.408 -0.6891  2.8786 -0.3109
  130TIP3   OH2  395   5.514   4.382   3.682  0.5376  0.3428 -0.1323
  130TIP3    H1  396   5.438   4.325   3.692  1.6166 -1.0806  0.1323
  130TIP3    H2  397   5.480   4.457   3.633 -1.4673  0.6679  1.6111
  131TIP3   OH2  398   1.883   0.850   2.534  0.0397  0.3995 -0.4670
  131TIP3    H1  399   1.877   0.927   2.590 -1.4889 -0.7784  1.0704
  131TIP3    H2  400   1.893   0.886   2.445  0.9121  2.3090  0.3567
  132TIP3   OH2  401   3.539   3.653   4.548 -0.2904 -0.3523 -1.2215
  132TIP3    H1  402   3.530   3.603   4.629 -1.3196  0.6507 -0.6783
  132TIP3    H2  403   3.633   3.657   4.532  0.3749  2.6085  2.0595
  133TIP3   OH2  404   0.547   3.697   2.797 -0.0132  0.1915 -0.0797
  133TIP3    H1  405   0.577   3.625   2.741 -1.0009 -0.8098  0.6398
  133TIP3    H2  406   0.554   3.662   2.886 -3.7316 -0.3697  0.1482
  134TIP3   OH2  407   4.986   4.390   4.328  0.1900 -0.0817 -0.3055
  134TIP3    H1  408   4.976   4.352   4.241  1.0526  0.7940 -0.8096
  134TIP3    H2  409   4.959   4.321   4.389  1.7390 -1.4992 -1.1677
  135TIP3   OH2  410   3.077   2.890   1.347 -0.6442 -0.4546 -0.7998
  135TIP3    H1  411   3.039   2.817   1.397 -1.0988 -0.9579 -1.8494
  135TIP3    H2  412   3.146   2.850   1.295  1.0240  0.3721  0.6978
  136TIP3   OH2  413   0.205   5.494   4.897  0.0938 -0.0200 -0.3086
  136TIP3    H1  414   0.146   5.418   4.897  0.3899 -0.2675 -1.5406
  136TIP3    H2  415   0.147   5.569   4.890 -0.1766 -0.1451  0.4491
  137TIP3   OH2  416   0.632   3.509   3.339  0.4231 -0.0641 -0.5557
  137TIP3    H1  417   0.549   3.513   3.387  0.3715 -0.4291 -0.6121
  137TIP3    H2  418   0.648   3.599   3.311 -0.6589 -0.2159 -1.7290
  138TIP3   OH2  419   1.739   3.545   1.598 -0.2366 -0.0150  0.0886
  138TIP3    H1  420   1.745   3.620   1.538 -0.6628  1.2546  1.5803
  138TIP3    H2  421   1.706   3.474   1.543 -1.4063  1.3192 -1.0241
  139TIP3   OH2  422   6.116   0.791   1.667  0.6000 -0.2349  0.6944
  139TIP3    H1  423   6.199   0.802   1.714  1.4829 -2.0152 -0.3757
  139TIP3    H2  424   6.133   0.826   1.580  0.1906 -0.5289  0.4964
  140TIP3   OH2  425   4.096   3.115   0.108 -0.6035  0.4827  0.3486
  140TIP3    H1  426   4.168   3.054   0.128 -1.7470 -1.0907 -0.1200
  140TIP3    H2  427   4.086   3.167   0.187  1.4521  1.1686  0.2027
  141TIP3   OH2  428   2.316   5.516   1.567 -0.1300 -0.0372 -0.4677
  141TIP3    H1  429   2.393   5.510   1.624 -0.7059  0.2521  0.3588
  141TIP3    H2  430   2.262   5.441   1.592 -0.8724  0.6714  0.1171
  142TIP3   OH2  431   2.473   0.242   2.986  0.6117 -0.3176 -0.3948
  142TIP3    H1  432   2.387   0.203   3.001  1.5630 -1.7856  1.8524
  142TIP3    H2  433   2.517   0.179   2.928  0.9610 -0.8355  0.4143
  143TIP3   OH2  434   6.162   0.234   3.869  0.3139 -0.6082  0.1158
  143TIP3    H1  435   6.235   0.182   3.835 -0.1151 -1.7480  0.8754
  143TIP3    H2  436   6.114   0.173   3.927 -0.5311  0.4711  0.5822
  144TIP3   OH2  437   2.584   2.552   2.071  0.2400  0.2576 -0.4234
  144TIP3    H1  438   2.600   2.507   1.988  1.2321  3.0350 -1.8650
  144TIP3    H2  439   2.650   2.516   2.131  0.5515 -0.6671 -1.2957
  145TIP3   OH2  440   3.197   2.479   3.276 -0.0861 -0.0820  0.0956
  145TIP3    H1  441   3.234   2.458   3.362 -1.0097  0.5382  0.6723
  145TIP3    H2  442   3.128   2.415   3.263  2.0492 -2.1866 -1.6546
  146TIP3   OH2  443   5.015   2.157   3.081  0.2996 -0.1100 -0.1763
  146TIP3    H1  444   4.944   2.119   3.029 -0.6650  1.4630 -0.0621
  146TIP3    H2  445   5.076   2.193   3.017 -0.9333  1.9112 -0.2996
  147TIP3   OH2  446   4.019   1.249   4.386 -0.2047 -0.1614 -0.5499
  147TIP3    H1  447   3.990   1.158   4.384  0.0253 -0.2303 -0.7737
  147TIP3    H2  448   3.943   1.298   4.417  0.1031 -0.6050  1.0294
  148TIP3   OH2  449   5.456   2.242   0.727  0.4949  0.4597 -0.4133
  148TIP3    H1  450   5.504   2.160   0.740 -1.0765 -0.4227  0.0565
  148TIP3    H2  451   5.481   2.271   0.640  1.2964 -0.3628 -0.4683
  149TIP3   OH2  452   0.470   1.158   1.257  0.2017 -0.6285  0.3628
  149TIP3    H1  453   0.424   1.075   1.272  2.2086 -1.6626  1.1840
  149TIP3    H2  454   0.543   1.135   1.199  0.9640  0.4786  0.8386
  150TIP3   OH2  455   0.007   0.289   1.888  0.2711  0.0191 -0.0623
  150TIP3    H1  456   0.057   0.245   1.819  0.1919  1.8876 -1.3952
  150TIP3    H2  457   0.073   0.335   1.940  0.3218 -1.3056  1.1236
  151TIP3   OH2  458   4.131   3.010   1.794 -0.0554  0.3240  0.4118
  151TIP3    H1  459   4.057   3.068   1.813 -0.1875  0.7356 -1.1997
  151TIP3    H2  460   4.101   2.924   1.824 -1.2241  0.4752 -0.2383
  152TIP3   OH2  461   1.079   3.339   1.781 -0.1995 -0.2028 -0.5128
  152TIP3    H1  462   1.071   3.244   1.789 -1.0182 -0.1818 -1.0180
  152TIP3    H2  463   1.166   3.359   1.816  0.6011 -1.3051 -1.7928
  153TIP3   OH2  464   1.535   0.504   0.946  0.6148  0.4770 -0.2230
  153TIP3    H1  465   1.624   0.473   0.963  2.4295  4.3150 -1.6139
  153TIP3    H2  466   1.535   0.527   0.853 -2.0841  0.0956 -0.3885
  154TIP3   OH2  467   0.024   4.381   0.618  0.2367 -0.2370 -0.3488
  154TIP3    H1  468   0.038   4.328   0.540  0.2280 -1.3972  0.4123
  154TIP3    H2  469   0.112   4.410   0.644  0.1988  0.4974 -1.0039
  155TIP3   OH2  470   1.316   4.848   4.570 -0.1003 -0.0754 -0.0064
  155TIP3    H1  471   1.246   4.882   4.624  0.6181  0.2993  0.7082
  155TIP3    H2  472   1.273   4.823   4.488 -1.0447  0.2039  0.3910
  156TIP3   OH2  473   3.249   3.803   0.895  0.4074  0.3136  0.4332
  156TIP3    H1  474   3.197   3.882   0.880  0.8802  0.3797 -1.0428
  156TIP3    H2  475   3.242   3.753   0.814 -0.1288 -1.3423  1.4436
  157TIP3   OH2  476   2.318   1.112   0.825  0.0735  0.3523 -0.5787
  157TIP3    H1  477   2.262   1.055   0.876 -0.7040  1.0216 -0.6551
  157TIP3    H2  478   2.398   1.122   0.877  0.0043 -0.3692 -0.3299
  158TIP3   OH2  479   6.133   2.942   2.996  0.2425 -0.4279  0.5551
  158TIP3    H1  480   6.220   2.913   2.967  0.2721 -0.7777  0.9882
  158TIP3    H2  481   6.122   2.902   3.082  0.2170  0.7039  1.1032
  159TIP3   OH2  482   1.812   0.052   1.044 -0.2709  0.4154  0.3285
  159TIP3    H1  483   1.860  -0.002   0.981 -2.2294  0.5501 -1.3650
  159TIP3    H2  484   1.785   0.129   0.994 -1.8607  0.5435  1.3136
  160TIP3   OH2  485   0.331   0.227   1.169  0.5311 -0.5444 -0.2459
  160TIP3    H1  486   0.246   0.184   1.166  1.2053 -1.9537 -0.2174
  160TIP3    H2  487   0.362   0.212   1.258 -0.1740  2.0628  0.5403
  161TIP3   OH2  488   1.425   5.686   4.922  0.2727  0.2436  0.2493
  161TIP3    H1  489   1.504   5.638   4.898 -0.7927 -1.0851 -0.8277
  161TIP3    H2  490   1.389   5.716   4.839 -0.9913 -0.2579  0.5930
  162TIP3   OH2  491   2.468   0.571   0.883 -0.3493 -0.1262  0.1202
  162TIP3    H1  492   2.423   0.632   0.941  2.1163  0.0198  2.0950
  162TIP3    H2  493   2.436   0.485   0.909 -2.1895  0.1330 -1.1342
  163TIP3   OH2  494   3.533   3.705   1.579 -0.1239  0.0783 -0.2852
  163TIP3    H1  495   3.495   3.767   1.517 -0.2506  0.0066 -0.2797
  163TIP3    H2  496   3.463   3.689   1.643  0.3523  0.9860  0.5004
  164TIP3   OH2  497   1.706   5.892   3.967 -0.0775 -0.3098  0.1605
  164TIP3    H1  498   1.674   5.811   4.005 -1.0201  0.0971  0.2621
  164TIP3    H2  499   1.747   5.866   3.884  0.2024 -0.9553  0.5003
  165TIP3   OH2  500   0.534   0.736   0.438 -0.0710  0.1566  0.3056
  165TIP3    H1  501   0.551   0.817   0.390 -1.6745  2.0146  2.6465
  165TIP3    H2  502   0.442   0.716   0.418  0.2790 -1.0730 -0.1607
  166TIP3   OH2  503   5.815   1.541   3.986  0.2180  0.2489 -0.0264
  166TIP3    H1  504   5.859   1.604   4.043  2.2933 -0.2315 -0.9582
  166TIP3    H2  505   5.887   1.502   3.936 -1.0675 -2.3245  0.0003
  167TIP3   OH2  506   3.050   2.303   2.454 -0.5335  0.2888  0.2733
  167TIP3    H1  507   3.032   2.390   2.489 -0.3296 -0.2101  1.6773
  167TIP3    H2  508   3.113   2.264   2.516 -0.5320 -0.8112 -0.3877
  168TIP3   OH2  509   2.554   0.557   1.372 -0.3472  0.0354  0.1305
  168TIP3    H1  510   2.566   0.582   1.280 -0.3653  0.8066  0.3303
  168TIP3    H2  511   2.471   0.598   1.397  0.4255  1.1422  0.9287
  169TIP3   OH2  512   3.474   5.296   1.503  0.5805 -0.5081  0.1694
  169TIP3    H1  513   3.469   5.203   1.523  0.2724 -0.4598  0.3107
  169TIP3    H2  514   3.557   5.305   1.455  0.4891 -0.8950 -0.0673
  170TIP3   OH2  515   0.021   5.762   3.191 -0.5111 -0.2462 -0.0144
  170TIP3    H1  516   0.022   5.678   3.145  0.6498 -0.9433  1.2175
  170TIP3    H2  517   0.002   5.739   3.282  1.8130  0.5650  0.7444
  171TIP3   OH2  518   3.682   1.507   0.000  0.1686  0.0142 -0.2333
  171TIP3    H1  519   3.649   1.572   0.062  0.6684 -1.0422  1.2052
  171TIP3    H2  520   3.733   1.447   0.054  0.5074 -1.0345 -1.6679
  172TIP3   OH2  521   4.916   4.153   4.479  0.6299 -0.7561  0.1647
  172TIP3    H1  522   4.833   4.181   4.517  1.3648  0.5763  0.8460
  172TIP3    H2  523   4.892   4.078   4.424 -1.2651  0.5043 -0.8642
  173TIP3   OH2  524   6.217   2.743   1.282  0.7552 -0.4419  1.0955
  173TIP3    H1  525   6.300   2.747   1.235  0.3753 -0.4473  0.4121
  173TIP3    H2  526   6.151   2.764   1.216  0.1744 -0.8951  1.5212
  174TIP3   OH2  527   4.629   2.602   1.401 -0.5319 -0.4194 -0.1378
  174TIP3    H1  528   4.551   2.653   1.380 -0.7946 -0.3686  0.9102
  174TIP3    H2  529   4.700   2.646   1.355 -0.8453  0.5655  0.2950
  175TIP3   OH2  530   6.302   0.918   1.138  0.5686 -0.6195 -0.1131
  175TIP3    H1  531   6.254   1.001   1.130 -1.2244 -1.7205 -1.7531
  175TIP3    H2  532   6.348   0.908   1.054 -0.0360 -1.7115 -0.3394
  176TIP3   OH2  533   5.400   2.296   2.838  0.4301 -0.0006 -0.0562
  176TIP3    H1  534   5.417   2.362   2.770 -0.9256  2.0385  1.4625
  176TIP3    H2  535   5.421   2.341   2.920  0.3096 -1.7987  0.9997
  177TIP3   OH2  536   0.374   2.700   2.522 -0.0842 -0.6372 -1.1458
  177TIP3    H1  537   0.349   2.627   2.464  0.9988 -1.2394 -0.8786
  177TIP3    H2  538   0.322   2.774   2.490  0.0624 -1.0973 -2.5225
  178TIP3   OH2  539   1.945   0.567   3.497 -0.0659  0.0050 -0.2415
  178TIP3    H1  540   1.925   0.495   3.556  2.1383 -0.6876 -0.2294
  178TIP3    H2  541   2.041   0.574   3.500 -0.1593  2.5575 -0.6982
  179TIP3   OH2  542   3.880   5.266   3.296  0.3459  0.0198  0.1361
  179TIP3    H1  543   3.800   5.288   3.344  0.5613 -1.0935  1.0555
  179TIP3    H2  544   3.926   5.349   3.287 -0.9013  0.6853 -0.4085
  180TIP3   OH2  545   4.028   5.249   0.119 -0.1950 -0.1716 -0.9398
  180TIP3    H1  546   3.959   5.265   0.055 -0.8725 -1.3393 -0.5520
  180TIP3    H2  547   4.071   5.169   0.088  0.8454  0.4282 -1.0608
  181TIP3   OH2  548   4.458   3.833   2.529  0.1755  0.2614 -0.3414
  181TIP3    H1  549   4.535   3.786   2.498  0.3440  0.1400  0.2388
  181TIP3    H2  550   4.384   3.781   2.497  0.3584 -0.3094  0.1322
  182TIP3   OH2  551   3.834   5.904   2.525  0.2063 -0.0369 -0.2538
  182TIP3    H1  552   3.806   5.976   2.468 -2.5564 -0.2735  0.6887
  182TIP3    H2  553   3.870   5.947   2.603  0.7309  0.2801 -0.6625
  183TIP3   OH2  554   3.218   4.913   2.143 -0.3002  0.1681 -0.0688
  183TIP3    H1  555   3.127   4.927   2.170 -0.1621  1.0030 -0.0129
  183TIP3    H2  556   3.253   4.853   2.209 -1.1201 -1.1048 -0.7368
  184TIP3   OH2  557   3.296   2.150   4.413 -0.1893 -0.3180  0.0780
  184TIP3    H1  558   3.222   2.104   4.375  1.2256 -1.7232 -1.1065
  184TIP3    H2  559   3.320   2.099   4.490 -0.1874 -0.1227  0.2072
  185TIP3   OH2  560   3.314   5.746   2.073 -0.3239  0.2021  0.4425
  185TIP3    H1  561   3.327   5.674   2.011 -0.1224 -0.2274  0.9766
  185TIP3    H2  562   3.359   5.820   2.034 -0.2437 -0.0516  0.0510
  186TIP3   OH2  563   0.584   3.433   3.772  0.6303  0.1324 -0.1802
  186TIP3    H1  564   0.640   3.361   3.800 -0.8547  0.0961  3.1542
  186TIP3    H2  565   0.505   3.389   3.738  0.3638  0.1669  0.3858
  187TIP3   OH2  566   6.310   4.631   5.137 -0.0783 -0.5596 -0.3494
  187TIP3    H1  567   6.247   4.691   5.099  0.4268  0.1342 -0.1223
  187TIP3    H2  568   6.291   4.631   5.231  0.7345  0.2619 -0.1665
  188TIP3   OH2  569   5.807   3.185   5.061 -0.1360 -0.1864  0.4328
  188TIP3    H1  570   5.873   3.123   5.092 -1.5961 -1.5808  0.9022
  188TIP3    H2  571   5.728   3.162   5.110 -0.7861  1.9538  0.4830
  189TIP3   OH2  572   1.500   2.766   4.770  0.3103 -0.1079  0.6429
  189TIP3    H1  573   1.461   2.799   4.852  0.4498  1.9235 -0.0464
  189TIP3    H2  574   1.442   2.800   4.702  0.5622 -1.2373 -0.1483
  190TIP3   OH2  575   1.276   0.604   2.519 -0.7524 -0.3064  0.2139
  190TIP3    H1  576   1.337   0.672   2.491  0.9904 -2.0259 -0.2925
  190TIP3    H2  577   1.191   0.648   2.520  0.4929  2.3247  1.4582
  191TIP3   OH2  578   5.561   4.575   0.762  0.0900 -0.0448  0.2175
  191TIP3    H1  579   5.644   4.589   0.808 -0.6446 -1.2070  2.0577
  191TIP3    H2  580   5.581   4.587   0.670  2.3232 -0.3845  0.6124
  192TIP3   OH2  581   4.509   0.585   0.733  0.3908  0.2284 -0.0526
  192TIP3    H1  582   4.603   0.604   0.727  0.5054 -0.2931  0.0621
  192TIP3    H2  583   4.480   0.636   0.809  0.6738  0.0470  0.1805
  193TIP3   OH2  584   4.402   4.648   3.556  0.3773 -0.1658  0.4354
  193TIP3    H1  585   4.387   4.561   3.520 -0.5763  0.1455  0.0360
  193TIP3    H2  586   4.409   4.635   3.651 -2.1768 -0.4373  0.6636
  194TIP3   OH2  587   0.843   5.324   0.475  0.5907 -0.5196  0.0309
  194TIP3    H1  588   0.913   5.387   0.458 -1.6758  2.2566  0.2159
  194TIP3    H2  589   0.793   5.362   0.548 -1.0569 -2.4017 -0.0253
  195TIP3   OH2  590   0.519   4.100   3.197 -0.1059  0.0234 -0.2100
  195TIP3    H1  591   0.568   4.036   3.251  1.1757 -1.2234 -2.6904
  195TIP3    H2  592   0.582   4.169   3.180 -0.1581 -0.1067 -0.9463
  196TIP3   OH2  593   4.308   1.432   2.238 -0.6098  0.5314  0.5710
  196TIP3    H1  594   4.388   1.384   2.213 -0.7556  0.4026  0.3466
  196TIP3    H2  595   4.272   1.381   2.311 -0.3951  0.6878  0.7896
  197TIP3   OH2  596   5.838   5.792   4.759 -0.4522 -0.1649  0.1927
  197TIP3    H1  597   5.855   5.836   4.675 -0.7365  0.8242  0.6287
  197TIP3    H2  598   5.924   5.781   4.798 -0.2340 -1.4198 -0.5940
  198TIP3   OH2  599   2.398   0.803   1.054  0.0452 -0.5391 -0.3748
  198TIP3    H1  600   2.361   0.891   1.060 -0.4430 -0.6781 -1.1027
  198TIP3    H2  601   2.347   0.751   1.116  1.0664 -0.0911  0.8762
  199TIP3   OH2  602   3.443   1.190   0.988  0.2351 -0.0402 -0.1374
  199TIP3    H1  603   3.486   1.139   1.056  0.4345  1.9166  1.3104
  199TIP3    H2  604   3.349   1.179   1.005  0.2567  2.0644  1.8974
  200TIP3   OH2  605   0.346   4.568   0.367  0.2245 -0.0587  0.2212
  200TIP3    H1  606   0.269   4.565   0.310  0.2468 -0.0943  0.1928
  200TIP3    H2  607   0.378   4.657   0.360  0.5813 -0.2270 -0.2925
  201TIP3   OH2  608   1.351   2.061   2.297 -0.1520  0.4926 -0.0727
  201TIP3    H1  609   1.427   2.089   2.246  0.5184  0.0315  0.6367
  201TIP3    H2  610   1.286   2.035   2.232  0.7560 -0.2696 -0.7029
  202TIP3   OH2  611   2.564   3.768   1.441  0.1374  0.4003 -0.4024
  202TIP3    H1  612   2.560   3.680   1.479 -0.2934  1.0086  1.0518
  202TIP3    H2  613   2.627   3.760   1.369 -0.1630 -1.1683 -0.5365
  203TIP3   OH2  614   1.508   0.703   0.493 -0.1357  0.6640 -0.3045
  203TIP3    H1  615   1.427   0.739   0.456 -1.8656  1.2444  3.5232
  203TIP3    H2  616   1.570   0.776   0.490  0.1398  0.4110 -2.6854
  204TIP3   OH2  617   0.958   0.318   0.421  0.3133  0.0166  0.1365
  204TIP3    H1  618   0.883   0.377   0.430  1.0723  0.7649  1.8940
  204TIP3    H2  619   0.922   0.231   0.435 -0.3470  0.2965  0.2271
  205TIP3   OH2  620   0.442   3.333   0.910  0.2187  0.5609  0.1976
  205TIP3    H1  621   0.533   3.335   0.882  0.1806  0.0566  0.0199
  205TIP3    H2  622   0.442   3.279   0.989 -0.4923 -3.3335 -2.1682
  206TIP3   OH2  623   3.811   1.494   0.973 -0.4512  0.4588 -0.9227
  206TIP3    H1  624   3.751   1.460   0.906  0.2775  1.5774 -2.1769
  206TIP3    H2  625   3.796   1.588   0.973  0.6561  0.6477 -0.5921
  207TIP3   OH2  626   0.830   4.041   2.851  0.2891 -0.2807  0.1839
  207TIP3    H1  627   0.799   4.128   2.877  0.1357  0.0944 -1.1540
  207TIP3    H2  628   0.796   3.982   2.918  0.4136  0.6911  1.1227
  208TIP3   OH2  629   1.947   3.881   2.257 -0.4387  0.1030 -0.9413
  208TIP3    H1  630   1.886   3.809   2.242  1.3435 -1.7991  0.3742
  208TIP3    H2  631   1.984   3.901   2.171  0.1473 -1.6521 -1.1255
  209TIP3   OH2  632   0.753   0.431   2.075  0.3911  0.4496 -0.0274
  209TIP3    H1  633   0.762   0.488   2.151 -1.6598  0.1558  0.5120
  209TIP3    H2  634   0.677   0.465   2.028 -0.6162 -1.5202  0.0656
  210TIP3   OH2  635   4.963   1.024   2.975 -0.1942  0.6342 -0.3221
  210TIP3    H1  636   5.002   1.111   2.968  0.4894  0.2661 -1.2194
  210TIP3    H2  637   5.032   0.964   2.947  0.0529 -0.3836  2.2148
  211TIP3   OH2  638   1.429   1.671   5.134 -0.2963  0.7003 -0.1653
  211TIP3    H1  639   1.463   1.731   5.201 -0.6348  0.7601 -0.0466
  211TIP3    H2  640   1.492   1.679   5.062 -0.7157  1.7319 -0.4392
  212TIP3   OH2  641   3.317   3.631   2.413 -0.4628  0.2860 -0.3651
  212TIP3    H1  642   3.273   3.568   2.355 -1.1426 -0.1375  0.5760
  212TIP3    H2  643   3.296   3.600   2.501  2.6955 -0.6506  0.1951
  213TIP3   OH2  644   0.006   2.962   3.752  0.0014  0.0915 -0.0715
  213TIP3    H1  645  -0.075   2.932   3.711 -0.1458 -0.4029  0.5483
  213TIP3    H2  646   0.074   2.945   3.687 -0.3415  0.1392 -0.4435
  214TIP3   OH2  647   3.053   2.814   1.891 -0.3159 -0.5054 -0.2517
  214TIP3    H1  648   3.115   2.782   1.956  0.2012 -0.7248 -0.8452
  214TIP3    H2  649   2.967   2.783   1.923 -0.5925  2.3525  2.2010
  215TIP3   OH2  650   4.473   3.438   1.604 -0.2312 -0.0157 -0.0164
  215TIP3    H1  651   4.425   3.509   1.647 -0.4085  1.3534 -2.2976
  215TIP3    H2  652   4.415   3.409   1.534  0.3064 -1.7066  0.1917
  216TIP3   OH2  653   2.194   4.278   2.489  0.0417 -0.5587  0.0296
  216TIP3    H1  654   2.133   4.248   2.557  0.3548  0.0668  0.5949
  216TIP3    H2  655   2.273   4.225   2.503  0.0227 -0.5922  0.0089
  217TIP3   OH2  656  -0.024   3.577   2.587  0.6343  0.0282 -0.0455
  217TIP3    H1  657  -0.013   3.619   2.502 -0.9874  0.7638  0.0791
  217TIP3    H2  658   0.048   3.514   2.592  0.3439 -0.5512 -2.2683
  218TIP3   OH2  659   1.869   1.378   3.640  0.7368 -0.5033 -0.2187
  218TIP3    H1  660   1.836   1.335   3.719  1.9186  0.2215  0.7074
  218TIP3    H2  661   1.797   1.373   3.578 -0.9624  0.6467  1.5558
  219TIP3   OH2  662   0.423   1.369   1.069 -0.1975  0.5642  0.0012
  219TIP3    H1  663   0.428   1.318   1.150  0.5714  0.3601 -0.1684
  219TIP3    H2  664   0.512   1.404   1.057  0.2315 -1.0014 -1.7909
  220TIP3   OH2  665   1.380   2.329   4.982  0.3637  0.6416  0.1960
  220TIP3    H1  666   1.314   2.361   4.921  1.3635 -0.8296 -1.7749
  220TIP3    H2  667   1.457   2.382   4.964  0.4968  0.6032  0.6395
  221TIP3   OH2  668   2.668   1.295   5.115 -0.1704  0.8528 -0.3868
  221TIP3    H1  669   2.672   1.386   5.145  0.5021  0.3601  1.0972
  221TIP3    H2  670   2.751   1.281   5.070 -0.5770  1.1663 -1.2602
  222TIP3   OH2  671   1.868   2.928   2.897 -0.4462  0.3833  0.1589
  222TIP3    H1  672   1.879   2.916   2.802  0.2465 -1.0943  0.3976
  222TIP3    H2  673   1.773   2.921   2.911 -0.5169  0.1971 -0.3849
  223TIP3   OH2  674   1.623   2.793   1.216  0.0619  0.0902  0.2771
  223TIP3    H1  675   1.566   2.762   1.286 -0.8220 -0.6847 -0.7618
  223TIP3    H2  676   1.697   2.733   1.217 -1.0060 -1.3087 -0.8522
  224TIP3   OH2  677   2.388   3.292   4.162  0.0054 -0.5059  0.1039
  224TIP3    H1  678   2.420   3.202   4.161  0.0457 -0.4983  0.5562
  224TIP3    H2  679   2.457   3.343   4.118 -0.5983 -0.8758 -1.3261
  225TIP3   OH2  680   1.471   2.229   2.865 -0.1362  0.1919  0.3825
  225TIP3    H1  681   1.505   2.305   2.911 -0.4561  1.2347 -1.0175
  225TIP3    H2  682   1.503   2.239   2.775 -1.7858 -0.2750 -0.3090
  226TIP3   OH2  683   0.788   2.788   2.050  0.2494 -0.1575  0.3202
  226TIP3    H1  684   0.874   2.817   2.079  0.1309  0.7806 -0.2271
  226TIP3    H2  685   0.754   2.735   2.123  1.0851 -0.1358  0.7312
  227TIP3   OH2  686   4.281   3.347   5.153  0.0842 -0.5611  0.4943
  227TIP3    H1  687   4.373   3.346   5.125  0.2276  1.0685  0.8099
  227TIP3    H2  688   4.234   3.306   5.081  0.9427 -0.3901 -0.1886
  228TIP3   OH2  689   3.500   1.817   0.798 -0.1250  0.5066 -0.8933
  228TIP3    H1  690   3.522   1.854   0.713 -0.9305  0.5832 -1.0698
  228TIP3    H2  691   3.420   1.768   0.784 -0.8119  1.3213  0.0236
  229TIP3   OH2  692   0.052   1.810   3.608  0.4463  0.5053  0.2986
  229TIP3    H1  693  -0.011   1.814   3.536  0.8890 -1.6422 -0.3024
  229TIP3    H2  694  -0.000   1.787   3.685  0.3994 -1.2150 -0.1872
  230TIP3   OH2  695   4.907   4.395   2.221 -0.4991 -0.1145  1.0846
  230TIP3    H1  696   4.877   4.476   2.260 -1.3331 -0.2414  0.7226
  230TIP3    H2  697   4.999   4.412   2.198 -0.9932  1.1649 -0.1150
  231TIP3   OH2  698   0.578   0.875   2.792 -0.5184  0.6900 -0.0654
  231TIP3    H1  699   0.639   0.889   2.864 -1.0989  1.9730  0.2101
  231TIP3    H2  700   0.513   0.945   2.802 -2.3389 -0.9106 -0.0311
  232TIP3   OH2  701   5.715   3.827   3.798  0.4213  0.2185 -0.0358
  232TIP3    H1  702   5.632   3.858   3.834  1.2258  2.8924 -0.2831
  232TIP3    H2  703   5.773   3.823   3.874  0.5205 -0.0832 -0.1250
  233TIP3   OH2  704   0.355   2.677   1.388  0.4295  0.3621 -0.2356
  233TIP3    H1  705   0.295   2.717   1.450  0.7687  0.0582  0.2935
  233TIP3    H2  706   0.342   2.726   1.307 -1.3244 -0.3734 -0.4510
  234TIP3   OH2  707   4.911   3.683   3.051 -0.5241  0.3456  0.4827
  234TIP3    H1  708   4.968   3.658   2.979 -0.2945 -0.2592  0.8731
  234TIP3    H2  709   4.838   3.621   3.047 -0.2312 -0.0534  1.1053
  235TIP3   OH2  710   4.752   0.660   3.213 -0.3007 -0.3465  0.0027
  235TIP3    H1  711   4.686   0.680   3.147 -0.0469 -1.9495 -0.7946
  235TIP3    H2  712   4.731   0.572   3.243 -0.2953  0.2759  1.9693
  236TIP3   OH2  713   5.601   0.283   2.674  0.1767 -0.0028 -0.1276
  236TIP3    H1  714   5.692   0.305   2.653  0.3873 -0.8506 -0.1516
  236TIP3    H2  715   5.601   0.187   2.680 -0.7610 -0.0239 -0.3519
  237TIP3   OH2  716   2.734   5.358   2.433 -0.3796  0.1169  0.4480
  237TIP3    H1  717   2.809   5.402   2.474 -1.0152  0.1026  1.6997
  237TIP3    H2  718   2.704   5.418   2.366 -1.4512  1.8345  2.3575
  238TIP3   OH2  719   1.234   2.179   2.525  0.1574 -0.4284 -0.1032
  238TIP3    H1  720   1.166   2.111   2.527  0.9226 -1.1938  0.6437
  238TIP3    H2  721   1.271   2.173   2.437  0.1450 -0.9131 -0.0788
  239TIP3   OH2  722   0.263   3.615   5.003 -0.4844 -0.0948  0.1576
  239TIP3    H1  723   0.354   3.620   5.031 -0.9097  0.9031  1.4406
  239TIP3    H2  724   0.247   3.522   4.988  0.1646 -0.5141  1.9374
  240TIP3   OH2  725   4.559   0.794   2.471 -0.1601  0.3490 -0.5485
  240TIP3    H1  726   4.633   0.811   2.414  0.8696 -3.7500 -0.6993
  240TIP3    H2  727   4.490   0.763   2.413 -1.6924  2.8315 -0.2326
  241TIP3   OH2  728   5.946   5.206   2.528 -0.3168 -0.5929  0.1627
  241TIP3    H1  729   5.981   5.124   2.563  1.6763 -0.1616 -0.6570
  241TIP3    H2  730   5.953   5.197   2.433 -0.3960  0.3751  0.0490
  242TIP3   OH2  731   2.452   5.150   0.585 -0.2857  0.4907  0.0763
  242TIP3    H1  732   2.416   5.086   0.524 -1.8209  1.0216  0.3928
  242TIP3    H2  733   2.547   5.147   0.569 -0.4201 -1.1126 -0.6176
  243TIP3   OH2  734   5.808   4.330   1.197  0.3071  0.2336  0.4347
  243TIP3    H1  735   5.868   4.381   1.252 -1.3160  1.9110  0.7454
  243TIP3    H2  736   5.828   4.360   1.108  1.2770 -0.7146  0.3071
  244TIP3   OH2  737   2.799   0.457   3.330  0.2836  0.1868 -0.0103
  244TIP3    H1  738   2.780   0.550   3.314  0.0065  0.2295  0.5640
  244TIP3    H2  739   2.759   0.412   3.256  0.2215  0.5046 -0.1731
  245TIP3   OH2  740   1.346   2.019   3.600 -0.1135  0.0337  0.5774
  245TIP3    H1  741   1.435   2.053   3.594  0.2428 -0.3189  2.8850
  245TIP3    H2  742   1.298   2.085   3.649 -0.9826 -0.0714 -0.0985
  246TIP3   OH2  743   5.854   3.896   2.784 -0.0225  1.0080  0.6001
  246TIP3    H1  744   5.820   3.848   2.709  1.4718  0.5463  0.1734
  246TIP3    H2  745   5.872   3.828   2.849 -1.0100  1.3722  1.2755
  247TIP3   OH2  746   4.150   0.329   1.430 -0.0059 -0.0652 -0.5554
  247TIP3    H1  747   4.082   0.265   1.412 -0.2674 -0.1271  0.6371
  247TIP3    H2  748   4.191   0.344   1.344 -0.0576 -1.6591 -0.8866
  248TIP3   OH2  749   5.933   4.657   1.942 -0.3776  0.4229 -0.0930
  248TIP3    H1  750   5.851   4.615   1.915 -0.0234 -0.4295  0.1295
  248TIP3    H2  751   5.916   4.689   2.030 -0.1865 -0.5766  0.3171
  249TIP3   OH2  752   0.083   5.411   4.564 -0.2341 -0.2860  0.5891
  249TIP3    H1  753   0.020   5.451   4.504  1.0629  0.6749 -0.1729
  249TIP3    H2  754   0.039   5.332   4.595 -1.5785  0.0480 -0.3730
  250TIP3   OH2  755   5.198   1.443   1.624 -0.2976 -0.0133  0.0429
  250TIP3    H1  756   5.277   1.430   1.571  0.0822  0.7487  0.4069
  250TIP3    H2  757   5.130   1.465   1.560 -0.3614 -1.2560 -0.3267
  251TIP3   OH2  758   0.339   5.099   0.204  0.4097  0.0098 -0.0685
  251TIP3    H1  759   0.281   5.165   0.243  0.4671 -1.2203  2.2335
  251TIP3    H2  760   0.423   5.113   0.247  0.6698 -0.9550 -0.2486
  252TIP3   OH2  761   3.823   2.842   0.053  0.2204  0.5243 -0.3783
  252TIP3    H1  762   3.895   2.852  -0.010  1.5537  0.0418  1.0259
  252TIP3    H2  763   3.813   2.748   0.063  1.1524  0.5557  1.3149
  253TIP3   OH2  764   4.225   0.764   4.212 -0.0571 -0.0023  0.2214
  253TIP3    H1  765   4.289   0.830   4.239  1.2094 -0.1936 -2.0296
  253TIP3    H2  766   4.182   0.737   4.293  2.1083  0.7851  1.7269
  254TIP3   OH2  767   1.325   4.120   0.810  0.3246 -0.8005 -0.1543
  254TIP3    H1  768   1.379   4.078   0.877 -1.0018 -1.7488  0.3606
  254TIP3    H2  769   1.383   4.185   0.770  1.5172 -1.0534  1.0842
  255TIP3   OH2  770   3.048   5.080   1.135  0.3016 -0.3063  0.2788
  255TIP3    H1  771   3.079   5.000   1.093 -0.7827 -0.5653 -0.0454
  255TIP3    H2  772   3.107   5.148   1.102  0.1489 -0.6886 -0.8089
  256TIP3   OH2  773   3.520   1.176   3.728  0.1244  0.0066  0.2208
  256TIP3    H1  774   3.598   1.218   3.764  0.7814 -0.1714 -0.9610
  256TIP3    H2  775   3.476   1.138   3.804  1.6806 -0.7224  0.7937
  257TIP3   OH2  776   0.573   4.765   5.157  0.1550  0.5113  0.7953
  257TIP3    H1  777   0.543   4.729   5.240  2.0899  0.4419  1.5087
  257TIP3    H2  778   0.649   4.712   5.134  0.2016  1.1259 -0.5663
  258TIP3   OH2  779   0.348   5.809   3.752  0.3969 -0.2522 -0.1066
  258TIP3    H1  780   0.333   5.812   3.657 -1.4721 -0.9600  0.1314
  258TIP3    H2  781   0.383   5.896   3.773 -1.7321  0.9113 -1.0783
  259TIP3   OH2  782   1.532   3.675   1.968  0.5268 -0.5421  0.5991
  259TIP3    H1  783   1.453   3.666   1.914  1.3431 -0.3237 -0.7006
  259TIP3    H2  784   1.553   3.585   1.994  0.8651 -0.8453 -0.6219
  260TIP3   OH2  785   6.108   3.410   1.348 -0.2082  0.2189  0.0916
  260TIP3    H1  786   6.090   3.406   1.254  0.9966 -1.0239 -0.1238
  260TIP3    H2  787   6.195   3.450   1.354 -0.1424  0.0062  0.6532
  261TIP3   OH2  788   4.517   4.591   1.577 -0.8943 -0.1642 -0.4184
  261TIP3    H1  789   4.595   4.616   1.627 -1.2465  1.0263 -0.4405
  261TIP3    H2  790   4.526   4.496   1.565  0.1611 -0.1650  0.2358
  262TIP3   OH2  791   0.889   3.116   1.240 -0.6315 -0.0073  0.5468
  262TIP3    H1  792   0.904   3.209   1.256 -0.8683  0.1040  0.1502
  262TIP3    H2  793   0.965   3.088   1.189 -1.1705  0.2852 -0.4643
  263TIP3   OH2  794   5.494   2.703   1.064  0.3114 -0.4625 -0.4133
  263TIP3    H1  795   5.542   2.735   1.140  0.1472  0.5837 -0.7309
  263TIP3    H2  796   5.523   2.759   0.992 -0.4949 -0.5916 -0.8496
  264TIP3   OH2  797   2.291   0.477   2.306 -0.1338  0.5644  0.7285
  264TIP3    H1  798   2.368   0.534   2.311 -0.6073  1.1465  1.6793
  264TIP3    H2  799   2.309   0.419   2.233  0.5675  1.6431  0.0095
  265TIP3   OH2  800   6.365   4.868   4.061  0.1153 -0.6495  0.2259
  265TIP3    H1  801   6.344   4.956   4.093  1.7898  0.3998 -1.3713
  265TIP3    H2  802   6.351   4.873   3.967 -0.1688 -2.2538  0.1507
  266TIP3   OH2  803   4.503   0.345   0.881 -0.1528  0.3283  0.0894
  266TIP3    H1  804   4.501   0.404   0.806  0.3245 -1.3348 -1.2693
  266TIP3    H2  805   4.590   0.359   0.920  0.1842  0.0854 -0.5756
  267TIP3   OH2  806   4.903   4.522   3.877 -0.3285  0.3127  0.3260
  267TIP3    H1  807   4.856   4.572   3.810 -0.8928  2.3120  2.0809
  267TIP3    H2  808   4.843   4.518   3.951  0.0897 -2.2382  0.6178
  268TIP3   OH2  809   3.238   4.482   3.108 -0.0650 -0.0303 -0.2019
  268TIP3    H1  810   3.321   4.454   3.071  0.3855  1.1264 -0.1263
  268TIP3    H2  811   3.205   4.406   3.155 -0.5770 -1.5192 -2.7731
  269TIP3   OH2  812   3.528   0.838   4.426 -0.1859 -0.1236  0.0480
  269TIP3    H1  813   3.451   0.871   4.473 -0.6478  0.1295 -0.8711
  269TIP3    H2  814   3.493   0.782   4.357  0.4438  0.1102 -0.4782
  270TIP3   OH2  815   6.013   1.987   0.618 -0.1690 -0.2743  0.2996
  270TIP3    H1  816   6.012   1.892   0.628 -0.2531 -0.4614 -1.1793
  270TIP3    H2  817   6.049   2.019   0.700  2.7459 -1.7829 -0.2367
  271TIP3   OH2  818   0.918   3.385   1.285  0.1515 -0.0674 -0.7393
  271TIP3    H1  819   0.885   3.470   1.254 -0.0884 -0.0889 -0.5447
  271TIP3    H2  820   0.981   3.408   1.354  0.0010 -0.0472 -0.6056
  272TIP3   OH2  821   2.290   3.978   0.797 -0.0437 -0.3266 -0.9954
  272TIP3    H1  822   2.235   4.047   0.760 -0.6743 -0.2933 -0.0345
  272TIP3    H2  823   2.379   4.014   0.796 -0.5820  1.2615  1.1299
  273TIP3   OH2  824   3.210   5.480   4.435  0.2826  0.4645 -0.0491
  273TIP3    H1  825   3.271   5.495   4.363 -0.9960 -1.2031 -1.5871
  273TIP3    H2  826   3.207   5.384   4.444 -2.6521  0.4155 -0.6220
  274TIP3   OH2  827   4.219   2.568   2.430  0.8836 -0.0371  0.5582
  274TIP3    H1  828   4.272   2.644   2.456  0.5580  1.1163 -1.8307
  274TIP3    H2  829   4.262   2.536   2.351 -1.7506  0.7762 -1.3099
  275TIP3   OH2  830   5.303   3.732   4.314  0.0662 -0.2176 -0.2627
  275TIP3    H1  831   5.349   3.784   4.380  0.2149  0.7198 -1.0780
  275TIP3    H2  832   5.372   3.702   4.255 -0.1901 -0.0679 -0.6429
  276TIP3   OH2  833   0.054   2.829   3.214  0.0310 -0.1152  0.4562
  276TIP3    H1  834  -0.004   2.840   3.138  0.6609 -0.2661 -0.0505
  276TIP3    H2  835   0.026   2.897   3.275  0.5898  1.0798 -0.5801
  277TIP3   OH2  836   5.144   3.984   3.793 -0.0499 -0.1729  0.2974
  277TIP3    H1  837   5.159   3.948   3.881 -1.0272 -1.1463  0.0938
  277TIP3    H2  838   5.206   3.936   3.737  1.3457  1.2183  0.5902
  278TIP3   OH2  839   3.827   3.402   4.175  0.0226  0.3080 -0.0611
  278TIP3    H1  840   3.749   3.399   4.230 -0.4378 -0.6106 -0.7181
  278TIP3    H2  841   3.836   3.493   4.149 -0.6751  0.4695  0.2529
  279TIP3   OH2  842   5.585   3.131   2.833 -0.1705  0.2397 -0.2260
  279TIP3    H1  843   5.599   3.041   2.805 -0.0654  0.0142  0.5262
  279TIP3    H2  844   5.497   3.153   2.802 -0.2263 -0.1497 -0.3453
  280TIP3   OH2  845   2.310   3.987   2.246 -0.0156 -0.7992 -0.0339
  280TIP3    H1  846   2.240   4.045   2.215 -0.6317 -1.5234 -0.0375
  280TIP3    H2  847   2.264   3.907   2.274  0.9253 -1.7994 -1.2385
  281TIP3   OH2  848   3.684   1.801   1.992  0.1072  0.2321  0.3081
  281TIP3    H1  849   3.700   1.865   2.061  0.8266 -0.7298  1.0725
  281TIP3    H2  850   3.650   1.852   1.919  1.2655  1.5892  0.6650
  282TIP3   OH2  851   6.315   0.402   4.639  0.2703 -0.0526 -0.5144
  282TIP3    H1  852   6.398   0.405   4.591 -0.1055  1.4692 -1.1018
  282TIP3    H2  853   6.290   0.494   4.650 -1.6630 -0.4959 -0.8909
  283TIP3   OH2  854   3.684   5.346   0.241  0.2494 -0.3241 -0.0292
  283TIP3    H1  855   3.697   5.441   0.242  2.3924 -0.5736  0.4579
  283TIP3    H2  856   3.724   5.315   0.322  1.0095 -1.7864 -0.9120
  284TIP3   OH2  857   2.123   2.967   3.018 -0.0926  0.3021  0.3914
  284TIP3    H1  858   2.168   2.994   3.098  0.1389 -2.1954  1.2202
  284TIP3    H2  859   2.108   3.048   2.969  1.4270  1.6902  2.0916
  285TIP3   OH2  860   2.183   5.480   4.895  0.2879  0.0835  0.2124
  285TIP3    H1  861   2.186   5.576   4.884  0.5676  0.4990  3.1149
  285TIP3    H2  862   2.272   5.457   4.921  0.0539 -0.8786  0.1881
  286TIP3   OH2  863   4.026   1.820   2.344 -0.0105 -0.2954 -0.3647
  286TIP3    H1  864   4.096   1.755   2.335  1.0950  1.0483 -2.0500
  286TIP3    H2  865   4.056   1.895   2.293 -1.2262  1.5928  1.5362
  287TIP3   OH2  866   4.940   0.874   1.645 -0.4143 -0.3331 -0.1685
  287TIP3    H1  867   5.010   0.938   1.638 -1.1703  0.4412 -0.8671
  287TIP3    H2  868   4.977   0.803   1.698  0.9162  0.0177 -0.6015
  288TIP3   OH2  869   0.740   5.531   0.845 -0.1799 -0.1352  0.4471
  288TIP3    H1  870   0.693   5.599   0.797  2.1797  1.1450 -0.2426
  288TIP3    H2  871   0.793   5.579   0.909  0.4417 -1.4513  0.9565
  289TIP3   OH2  872   4.593   0.865   4.565 -0.4478  0.1316 -0.2651
  289TIP3    H1  873   4.579   0.939   4.623 -0.2614 -0.2526  0.2804
  289TIP3    H2  874   4.584   0.788   4.621  0.1561 -0.2357 -0.6581
  290TIP3   OH2  875   0.274   5.280   0.719 -0.0108  0.4246  0.2834
  290TIP3    H1  876   0.274   5.214   0.789 -0.0116  2.4474  2.3215
  290TIP3    H2  877   0.182   5.308   0.713 -0.5798 -1.6697 -2.6080
  291TIP3   OH2  878   4.874   3.602   0.601 -0.1162 -0.2823 -0.0764
  291TIP3    H1  879   4.785   3.636   0.600 -0.6836 -1.4995 -3.1517
  291TIP3    H2  880   4.893   3.586   0.694 -3.2702 -0.3926  0.6591
  292TIP3   OH2  881   3.337   5.070   1.246 -0.0231  0.2550  0.4507
  292TIP3    H1  882   3.375   5.027   1.170  0.0214 -1.5652  1.4483
  292TIP3    H2  883   3.272   5.131   1.209  0.9408  0.4099 -1.0702
  293TIP3   OH2  884   3.240   2.041   3.149 -0.1902  0.4557 -0.5400
  293TIP3    H1  885   3.245   2.044   3.245 -1.4668 -0.6463 -0.4169
  293TIP3    H2  886   3.152   2.072   3.129  0.0876  0.7251 -1.3762
  294TIP3   OH2  887   4.726   4.183   1.376 -0.3655 -0.2052 -0.6797
  294TIP3    H1  888   4.816   4.153   1.384 -0.4784 -0.0251  2.2034
  294TIP3    H2  889   4.677   4.104   1.354  0.2449 -0.7263 -0.2105
  295TIP3   OH2  890   2.716   0.867   1.102  0.1451 -0.0413  0.5238
  295TIP3    H1  891   2.779   0.801   1.132 -0.1457 -0.4851  0.1770
  295TIP3    H2  892   2.641   0.816   1.073  0.0739  0.4238 -0.1283
  296TIP3   OH2  893   0.294   1.714   2.783 -0.0599  1.1489 -0.4143
  296TIP3    H1  894   0.294   1.702   2.688 -2.4258 -1.8380 -0.1674
  296TIP3    H2  895   0.314   1.807   2.795 -2.4128  2.3085 -3.9652
  297TIP3   OH2  896   5.682   4.115   0.805 -0.4197 -0.8087  0.5203
  297TIP3    H1  897   5.690   4.205   0.837  2.4587 -0.5526 -0.6646
  297TIP3    H2  898   5.636   4.124   0.722  0.2611 -0.3517  0.1849
  298TIP3   OH2  899   3.460   0.902   0.620 -0.0432  0.0236  0.4597
  298TIP3    H1  900   3.461   0.807   0.615  1.0426 -0.0937  1.9230
  298TIP3    H2  901   3.520   0.922   0.693  1.9219  1.9300 -1.5095
  299TIP3   OH2  902   4.876   2.790   5.069  0.3770 -0.3592 -0.3025
  299TIP3    H1  903   4.849   2.813   4.980  0.2908 -2.6987 -0.9370
  299TIP3    H2  904   4.941   2.721   5.058 -0.0553 -1.1188  1.4651
  300TIP3   OH2  905   4.641   3.406   2.354  0.0791  0.2506  0.5608
  300TIP3    H1  906   4.727   3.419   2.394  0.4955  2.2161 -0.7753
  300TIP3    H2  907   4.659   3.358   2.273 -0.1923 -0.1044  0.7113
  301TIP3   OH2  908   5.138   2.226   2.817  0.5759  0.2224  0.1696
  301TIP3    H1  909   5.142   2.131   2.821 -0.8798  0.1853  1.6023
  301TIP3    H2  910   5.228   2.253   2.798  1.0610 -1.4051 -0.0084
  302TIP3   OH2  911   2.904   2.609   2.384  0.1204 -0.3266 -0.3144
  302TIP3    H1  912   2.837   2.663   2.426  0.2628 -1.1011  0.9462
  302TIP3    H2  913   2.855   2.554   2.323 -0.3954 -0.7996  0.5096
  303TIP3   OH2  914   0.847   3.938   2.463 -0.4214  0.3419  0.4949
  303TIP3    H1  915   0.754   3.918   2.456 -0.4357  0.8434 -0.9633
  303TIP3    H2  916   0.866   3.993   2.387  1.3793 -1.0232 -0.1166
  304TIP3   OH2  917   4.515   0.334   2.998 -0.1571  0.4557 -0.1142
  304TIP3    H1  918   4.607   0.360   2.993 -0.0592  0.0128 -0.7451
  304TIP3    H2  919   4.512   0.272   3.072  0.3855 -0.7907 -1.0874
  305TIP3   OH2  920   4.000   3.182   1.156 -0.0820 -0.6434 -0.0186
  305TIP3    H1  921   4.040   3.197   1.241 -0.0750 -0.5486 -0.0386
  305TIP3    H2  922   3.906   3.187   1.171 -0.2387 -3.5236  0.5664
  306TIP3   OH2  923   2.295   4.726   0.539  0.3547 -0.4164  0.0660
  306TIP3    H1  924   2.334   4.669   0.473  0.0299 -0.3377 -0.1956
  306TIP3    H2  925   2.246   4.666   0.596  1.6345 -0.6324  0.9658
  307TIP3   OH2  926   2.134   3.257   3.275  0.0781  0.0814 -0.1442
  307TIP3    H1  927   2.157   3.201   3.349 -1.0131 -0.9552 -0.5526
  307TIP3    H2  928   2.205   3.244   3.212  0.5668  0.2830  0.3639
  308TIP3   OH2  929   4.794   1.088   3.176 -0.2619  0.1833 -0.2993
  308TIP3    H1  930   4.848   1.047   3.108  0.8141  0.8521  0.1205
  308TIP3    H2  931   4.763   1.170   3.136  1.8955  1.5116  0.5648
  309TIP3   OH2  932   0.251   5.108   2.297  0.3255 -0.0759 -0.1716
  309TIP3    H1  933   0.322   5.150   2.247 -0.6460  1.6105 -0.2112
  309TIP3    H2  934   0.234   5.168   2.370  0.4635 -1.5964  1.1748
  310TIP3   OH2  935   2.974   4.658   4.293  0.1135 -0.5874 -0.1185
  310TIP3    H1  936   2.958   4.641   4.386  1.2492 -0.7643  0.0547
  310TIP3    H2  937   3.039   4.727   4.292 -1.3074  0.8161 -0.8143
  311TIP3   OH2  938   1.781   4.421   3.782  0.0219 -0.1030  0.2128
  311TIP3    H1  939   1.770   4.494   3.842  2.4305  1.2649 -0.8371
  311TIP3    H2  940   1.815   4.461   3.702  0.7586 -2.2992 -0.6557
  312TIP3   OH2  941   2.837   3.853   0.220  0.0066  0.7721 -0.2005
  312TIP3    H1  942   2.778   3.884   0.290  0.2788 -0.8024  0.7930
  312TIP3    H2  943   2.782   3.795   0.168  0.4258 -0.0137  0.2104
  313TIP3   OH2  944   0.431   5.517   2.213 -0.2952  0.0653  0.3552
  313TIP3    H1  945   0.367   5.558   2.271  0.3803  0.6477  0.6976
  313TIP3    H2  946   0.378   5.466   2.152 -0.9951 -1.6028  2.2422
  314TIP3   OH2  947   2.584   4.409   0.925  0.8376  0.4074  0.0573
  314TIP3    H1  948   2.577   4.409   1.020  1.5524  1.2266  0.1268
  314TIP3    H2  949   2.495   4.423   0.894  0.6534  0.4879  0.6199
  315TIP3   OH2  950   4.792   5.828   2.143 -0.3704  0.0886 -0.2619
  315TIP3    H1  951   4.863   5.763   2.143 -0.5087 -0.0721 -0.9505
  315TIP3    H2  952   4.837   5.913   2.142 -0.1490 -0.0088 -2.1268
  316TIP3   OH2  953   0.475   5.986   1.008  0.0475  0.2517 -0.3978
  316TIP3    H1  954   0.532   6.035   0.950  2.9637 -2.0789  0.2393
  316TIP3    H2  955   0.426   5.927   0.950  0.8095 -0.0504 -0.7516
  317TIP3   OH2  956   1.358   3.952   2.399  0.3532  0.0052 -0.2073
  317TIP3    H1  957   1.380   3.898   2.322  1.5997  0.3806 -0.1382
  317TIP3    H2  958   1.364   3.892   2.473  0.1052 -0.1327 -0.2963
  318TIP3   OH2  959   2.988   3.549   1.374  0.6158 -0.1899  0.1409
  318TIP3    H1  960   2.922   3.607   1.337  0.4054 -0.8041 -0.4631
  318TIP3    H2  961   2.942   3.499   1.441  1.3751  2.1163  2.5370
  319TIP3   OH2  962   3.645   2.003   5.049 -0.3013 -0.8450  0.3348
  319TIP3    H1  963   3.610   2.002   4.960 -1.5074 -4.0385  0.7111
  319TIP3    H2  964   3.574   2.041   5.102  0.6626  1.6674 -0.0433
  320TIP3   OH2  965   4.869   3.600   2.664  0.3210 -0.2975  0.1813
  320TIP3    H1  966   4.862   3.686   2.706  1.4162  0.1781 -0.5782
  320TIP3    H2  967   4.939   3.556   2.711  0.3673 -0.4313 -0.0113
  321TIP3   OH2  968   1.726   3.298   0.334 -0.2980 -0.3336  0.2146
  321TIP3    H1  969   1.660   3.238   0.371 -0.9307  1.4175  2.1566
  321TIP3    H2  970   1.701   3.308   0.243 -0.8334 -2.1323  0.1284
  322TIP3   OH2  971   0.266   5.729   0.273 -0.1089  0.0460  0.0224
  322TIP3    H1  972   0.288   5.652   0.325 -0.0705 -0.2006 -0.3554
  322TIP3    H2  973   0.338   5.737   0.211 -1.5557 -1.4337 -1.9868
  323TIP3   OH2  974   5.838   2.513   1.575  0.5034  0.2416 -0.5831
  323TIP3    H1  975   5.871   2.439   1.625  0.4190 -0.1827 -1.1483
  323TIP3    H2  976   5.911   2.538   1.518  0.1604 -0.1386 -1.2035
  324TIP3   OH2  977   2.947   0.450   3.756  1.0020  0.0424  0.4752
  324TIP3    H1  978   2.989   0.368   3.730 -1.4542 -1.3715  0.6078
  324TIP3    H2  979   2.888   0.426   3.827  1.1440  2.2015  1.4107
  325TIP3   OH2  980   2.377   4.675   5.103  0.4718 -0.4128 -1.1931
  325TIP3    H1  981   2.392   4.676   5.009 -2.3360  1.5915 -1.7402
  325TIP3    H2  982   2.299   4.620   5.114  0.1645  0.1988 -0.1881
  326TIP3   OH2  983   0.229   0.784   0.097 -0.1895  0.5668 -0.0135
  326TIP3    H1  984   0.203   0.876   0.100 -1.6093  0.1719  1.9652
  326TIP3    H2  985   0.297   0.776   0.163  1.2461  0.5095 -1.4470
  327TIP3   OH2  986   4.880   2.753   3.819 -0.2012  0.1802 -0.2069
  327TIP3    H1  987   4.949   2.703   3.775  0.0782  0.5152 -0.1617
  327TIP3    H2  988   4.799   2.710   3.794 -0.0076  0.0674 -0.6485
  328TIP3   OH2  989   2.302   1.706   5.018 -0.1520 -0.5457 -0.0856
  328TIP3    H1  990   2.318   1.764   5.092  0.5884 -0.7931 -0.0479
  328TIP3    H2  991   2.302   1.764   4.942  3.2319 -0.7321 -0.3869
  329TIP3   OH2  992   0.935   1.499   4.078  0.2580 -0.1717  0.2734
  329TIP3    H1  993   0.902   1.588   4.089 -0.5311 -0.2799 -0.9547
  329TIP3    H2  994   0.953   1.493   3.984 -2.7185 -2.2763 -0.2975
  330TIP3   OH2  995   5.845   1.741   1.097  0.0882  0.6440  0.5289
  330TIP3    H1  996   5.832   1.656   1.055 -1.5766  0.6383  1.0096
  330TIP3    H2  997   5.762   1.787   1.084  1.1199  2.4077 -0.1536
  331TIP3   OH2  998   1.760   5.183   4.604  0.5682  0.3568  0.3524
  331TIP3    H1  999   1.824   5.122   4.641  0.0938  0.7093  1.8001
  331TIP3    H2 1000   1.794   5.202   4.516  1.1719 -1.3186  0.1722
  332TIP3   OH2 1001   5.612   2.003   1.689  0.3419 -0.1661  0.4103
  332TIP3    H1 1002   5.655   1.918   1.680  0.6739 -0.0891  1.1572
  332TIP3    H2 1003   5.522   1.982   1.712  0.2078 -0.3244 -0.2702
  333TIP3   OH2 1004   0.980   4.292   3.874 -0.0470  0.0517  0.1819
  333TIP3    H1 1005   0.996   4.302   3.780 -0.6114 -0.3280  0.0455
  333TIP3    H2 1006   0.887   4.310   3.885 -0.4161 -1.8384  0.3814
  334TIP3   OH2 1007   4.564   1.897   3.037 -0.1061 -0.1526 -0.2967
  334TIP3    H1 1008   4.576   1.948   3.118 -0.9425 -0.5401  0.0819
  334TIP3    H2 1009   4.475   1.918   3.009 -0.1893 -0.8274 -0.5502
  335TIP3   OH2 1010   2.588   4.059   0.050 -0.2337  0.4391 -0.6581
  335TIP3    H1 1011   2.564   4.148   0.025  0.8092  0.9879  0.2046
  335TIP3    H2 1012   2.649   4.031  -0.017  0.8333  1.0751  0.0116
  336TIP3   OH2 1013   0.224   1.298   4.327 -0.0756  0.2409  0.4260
  336TIP3    H1 1014   0.173   1.238   4.381 -0.0514 -0.3601 -0.2085
  336TIP3    H2 1015   0.302   1.316   4.379 -0.0142 -0.3917  0.5556
  337TIP3   OH2 1016   2.384   4.925   2.136  0.6006  0.4484 -0.1984
  337TIP3    H1 1017   2.316   4.983   2.102  0.0221 -0.2472 -0.2436
  337TIP3    H2 1018   2.340   4.873   2.203  2.0459  2.8112  2.7824
  338TIP3   OH2 1019   3.842   4.646   0.181 -0.2080 -0.2832  0.0185
  338TIP3    H1 1020   3.899   4.576   0.213  0.1669  1.0339  2.4113
  338TIP3    H2 1021   3.887   4.727   0.203 -1.4996  0.7815 -1.0166
  339TIP3   OH2 1022   5.516   3.079   0.316 -0.4475 -0.0580  0.2286
  339TIP3    H1 1023   5.462   3.104   0.392  0.7420  1.7868  0.5469
  339TIP3    H2 1024   5.480   3.129   0.243  0.5627  0.9565  0.3811
  340TIP3   OH2 1025   6.099   1.754   4.508 -0.0333  0.0579  0.5021
  340TIP3    H1 1026   6.155   1.725   4.436 -0.3405  1.1103 -0.1744
  340TIP3    H2 1027   6.028   1.689   4.510  0.0534 -0.0563 -0.0471
  341TIP3   OH2 1028   3.568   1.183   1.357 -0.3880  0.2414  0.0644
  341TIP3    H1 1029   3.591   1.146   1.271 -0.3663 -0.7003  0.4606
  341TIP3    H2 1030   3.613   1.267   1.359 -0.2424  0.1992 -0.7778
  342TIP3   OH2 1031   4.844   2.928   0.210 -0.0046 -0.3129 -0.6061
  342TIP3    H1 1032   4.836   2.899   0.119  0.4160  0.2519 -0.8264
  342TIP3    H2 1033   4.894   2.858   0.252 -0.2333 -0.5949 -0.7972
  343TIP3   OH2 1034   5.550   4.845   1.314  0.6533  0.3405  0.2469
  343TIP3    H1 1035   5.509   4.925   1.281 -0.5087 -0.5459 -0.5807
  343TIP3    H2 1036   5.476   4.791   1.341  1.4289 -0.3894  0.9503
  344TIP3   OH2 1037   5.132   2.804   4.333 -0.1595  0.0722  0.4272
  344TIP3    H1 1038   5.091   2.779   4.251  1.2361 -1.4636  0.1367
  344TIP3    H2 1039   5.200   2.738   4.347 -0.2179  0.4058  2.7175
  345TIP3   OH2 1040   0.649   2.550   2.294 -0.2951 -0.1074 -1.0084
  345TIP3    H1 1041   0.715   2.485   2.320 -0.5318 -0.3491 -0.9982
  345TIP3    H2 1042   0.599   2.506   2.224 -0.3377  0.1360 -1.1316
  346TIP3   OH2 1043   1.725   0.329   1.848 -0.3846 -0.2767 -1.1204
  346TIP3    H1 1044   1.700   0.240   1.823 -0.0344 -0.5418 -0.5488
  346TIP3    H2 1045   1.668   0.386   1.796 -1.2840 -0.8477 -0.7610
  347TIP3   OH2 1046   4.157   2.869   1.255  0.0110  0.5163 -0.5521
  347TIP3    H1 1047   4.090   2.899   1.194 -2.3278 -1.2780  0.9313
  347TIP3    H2 1048   4.108   2.840   1.332  2.7569  2.4432  2.1793
  348TIP3   OH2 1049   0.323   5.524   3.827  0.2781  0.6214 -0.6865
  348TIP3    H1 1050   0.351   5.604   3.783 -0.5177  1.2250 -0.1298
  348TIP3    H2 1051   0.372   5.523   3.909  0.4175  0.4355 -0.7691
  349TIP3   OH2 1052   3.839   5.564   0.728 -0.1038  0.7340  0.5015
  349TIP3    H1 1053   3.897   5.582   0.654  1.1183 -0.1728  1.1947
  349TIP3    H2 1054   3.795   5.647   0.745 -0.3105  0.9863 -1.1477
  350TIP3   OH2 1055   4.415   2.628   2.192 -0.1161 -0.4354  0.4630
  350TIP3    H1 1056   4.439   2.668   2.275  1.2280  1.1903 -0.6436
  350TIP3    H2 1057   4.492   2.640   2.136 -0.9791 -1.4715 -1.0220
  351TIP3   OH2 1058   1.982   5.496   3.870  0.0657 -0.1907 -0.2275
  351TIP3    H1 1059   1.890   5.482   3.894 -0.3673  0.7277 -1.2478
  351TIP3    H2 1060   1.984   5.585   3.833  1.3041 -0.3220 -0.5195
  352TIP3   OH2 1061   3.985   1.706   2.971  0.0197 -0.2833 -0.9654
  352TIP3    H1 1062   3.960   1.746   2.888  2.1177  1.0896 -1.0044
  352TIP3    H2 1063   3.993   1.780   3.032  0.8793 -0.9887 -0.1903
  353TIP3   OH2 1064   3.235   4.732   0.769 -0.1433  0.0883  0.4537
  353TIP3    H1 1065   3.215   4.815   0.812 -0.5811  0.3022 -0.1618
  353TIP3    H2 1066   3.281   4.756   0.689  0.6682 -0.3120  0.7923
  354TIP3   OH2 1067   0.262   3.002   2.772 -0.0462  0.0007  0.1372
  354TIP3    H1 1068   0.349   2.974   2.743 -0.0059 -1.1560  1.2905
  354TIP3    H2 1069   0.222   3.039   2.694  0.4123 -2.1003 -1.1795
  355TIP3   OH2 1070   3.153   2.718   2.413  0.7057  0.5916 -0.5926
  355TIP3    H1 1071   3.208   2.708   2.491 -0.7115  1.3865  0.5446
  355TIP3    H2 1072   3.064   2.698   2.443  0.4770 -2.5891 -2.8124
  356TIP3   OH2 1073   0.521   4.683   4.134  0.2128 -0.0047  0.4741
  356TIP3    H1 1074   0.473   4.606   4.167  1.1243 -0.7150  0.1735
  356TIP3    H2 1075   0.528   4.668   4.039 -2.4684  2.0583 -0.1862
  357TIP3   OH2 1076   3.963   4.185   1.753  0.0308  0.3598  0.2116
  357TIP3    H1 1077   3.952   4.182   1.658 -0.4458  0.1308  0.2669
  357TIP3    H2 1078   4.029   4.119   1.772  0.3057  0.5794  0.0150
  358TIP3   OH2 1079   3.459   1.673   3.525 -0.0123 -0.0847  0.2291
  358TIP3    H1 1080   3.534   1.725   3.495 -1.0968  0.9035 -0.8412
  358TIP3    H2 1081   3.466   1.592   3.474  0.4823 -0.1306  0.3564
  359TIP3   OH2 1082   3.655   2.749   4.998 -0.1764  0.6236 -0.1058
  359TIP3    H1 1083   3.615   2.729   4.913  0.2738  0.5426 -0.3066
  359TIP3    H2 1084   3.729   2.688   5.004 -0.4483  0.3546  0.5290
  360TIP3   OH2 1085   2.348   4.779   4.159  0.1297  0.1010 -0.0982
  360TIP3    H1 1086   2.332   4.823   4.243  1.3680  2.2426 -0.9051
  360TIP3    H2 1087   2.430   4.731   4.172 -0.7347 -1.2863  0.4908
  361TIP3   OH2 1088   5.353   5.960   2.533 -0.5305  0.2197 -0.4900
  361TIP3    H1 1089   5.411   5.981   2.607 -1.6290  0.7969  0.2329
  361TIP3    H2 1090   5.410   5.968   2.456  0.2827  1.0936  0.1670
  362TIP3   OH2 1091   6.349   0.400   1.484 -0.4431  0.2077 -0.7460
  362TIP3    H1 1092   6.391   0.483   1.462  0.8514 -0.0073  0.7458
  362TIP3    H2 1093   6.326   0.361   1.399  0.1767  1.4585 -1.5060
  363TIP3   OH2 1094   1.978   0.311   2.842  0.3993  0.4661  0.0583
  363TIP3    H1 1095   1.908   0.343   2.785 -0.4969 -1.9922 -0.3458
  363TIP3    H2 1096   1.933   0.283   2.922  0.9483 -0.6487  0.0037
  364TIP3   OH2 1097   3.100   0.471   0.113 -0.4307  0.3279  0.4476
  364TIP3    H1 1098   3.184   0.486   0.068 -0.8836 -0.1343 -0.5783
  364TIP3    H2 1099   3.038   0.454   0.043 -1.0015 -1.2470  1.2837
  365TIP3   OH2 1100   4.314   1.955   3.671 -0.0645 -0.2596  0.3374
  365TIP3    H1 1101   4.294   2.049   3.678  2.3903  0.3397 -0.0385
  365TIP3    H2 1102   4.340   1.930   3.760  1.7973  0.0705 -0.0911
  366TIP3   OH2 1103   3.726   2.415   2.479  0.3086 -0.7228 -0.2058
  366TIP3    H1 1104   3.805   2.380   2.439  1.6131  1.8529 -0.0568
  366TIP3    H2 1105   3.679   2.458   2.408 -0.6349 -1.5739 -0.1363
  367TIP3   OH2 1106   5.937   3.508   3.669  0.5869 -0.7312 -0.0462
  367TIP3    H1 1107   5.854   3.515   3.715 -0.3744 -1.1602 -1.6038
  367TIP3    H2 1108   5.986   3.587   3.692 -1.4696  1.0355 -1.3318
  368TIP3   OH2 1109   1.952   3.697   3.996  0.0297 -0.8827 -0.0458
  368TIP3    H1 1110   1.868   3.733   4.024  0.4291  0.1161 -0.0853
  368TIP3    H2 1111   1.929   3.625   3.937 -0.8028 -0.0980 -0.7138
  369TIP3   OH2 1112   0.494   3.718   4.674  0.0451  0.6241  0.8064
  369TIP3    H1 1113   0.580   3.720   4.716 -0.1432 -1.8239  1.4305
  369TIP3    H2 1114   0.507   3.667   4.594 -0.8731 -0.0458  1.0659
  370TIP3   OH2 1115   2.953   1.443   2.559  0.3903 -0.3802 -0.6095
  370TIP3    H1 1116   2.948   1.398   2.475  0.3146  1.1011 -1.4329
  370TIP3    H2 1117   2.936   1.535   2.538 -2.2938 -0.3102  1.3727
  371TIP3   OH2 1118   2.979   1.258   3.625  0.6783  0.0412 -0.0548
  371TIP3    H1 1119   2.972   1.171   3.587  2.9236 -1.4115  2.5225
  371TIP3    H2 1120   3.051   1.300   3.578  2.0742 -0.9796  1.0601
  372TIP3   OH2 1121   0.675   5.562   2.991  0.3336 -0.2563 -0.3373
  372TIP3    H1 1122   0.654   5.510   3.069  0.8367  0.2602  0.1403
  372TIP3    H2 1123   0.769   5.550   2.978  1.0349  2.6020  1.3357
  373TIP3   OH2 1124   0.329   0.942   1.339 -0.1586 -0.0369 -0.3509
  373TIP3    H1 1125   0.296   0.860   1.303 -1.3354  0.2831 -0.0290
  373TIP3    H2 1126   0.251   0.990   1.365  0.5843  0.4675  1.0453
  374TIP3   OH2 1127   0.324   2.811   3.170 -0.2136  0.5236  0.1194
  374TIP3    H1 1128   0.353   2.895   3.134  1.6973  0.2819  0.9970
  374TIP3    H2 1129   0.232   2.824   3.190 -0.5266  1.6815 -1.8232
  375TIP3   OH2 1130   5.316   5.705   2.459  0.4119  0.4075 -0.5637
  375TIP3    H1 1131   5.330   5.772   2.527  0.8169 -0.2749  0.0390
  375TIP3    H2 1132   5.404   5.681   2.431  0.2467  0.6856 -1.3502
  376TIP3   OH2 1133   1.258   5.910   0.749 -0.3971  0.2459  0.3548
  376TIP3    H1 1134   1.334   5.967   0.761  0.3655 -0.2651 -1.6036
  376TIP3    H2 1135   1.231   5.886   0.838 -0.4537  3.2009  1.2431
  377TIP3   OH2 1136   2.916   4.965   4.112  0.0256 -0.1949  0.1139
  377TIP3    H1 1137   2.883   4.911   4.040  0.5110  0.1582 -0.3878
  377TIP3    H2 1138   2.962   4.904   4.169 -0.5403 -0.5113  0.2358
  378TIP3   OH2 1139   0.126   3.000   4.553  0.2200  0.0742 -0.3042
  378TIP3    H1 1140   0.098   2.972   4.466  0.9870 -1.6304 -0.0312
  378TIP3    H2 1141   0.068   3.073   4.574 -1.1265 -0.5957 -1.5137
  379TIP3   OH2 1142   5.596   0.842   1.258  0.2024 -0.7176  0.1606
  379TIP3    H1 1143   5.512   0.820   1.299 -0.7211  2.7012  0.3902
  379TIP3    H2 1144   5.604   0.779   1.186 -3.3282 -0.3453 -0.7856
  380TIP3   OH2 1145   0.781   5.051   0.395 -0.4639 -0.3295 -0.1560
  380TIP3    H1 1146   0.848   5.092   0.450 -1.6050  0.6944  0.5010
  380TIP3    H2 1147   0.813   4.961   0.383  0.3588 -0.2644  1.2659
  381TIP3   OH2 1148   3.097   0.070   0.875 -0.0691 -0.1477  0.2956
  381TIP3    H1 1149   3.132   0.102   0.792  1.1485 -0.5616  0.6284
  381TIP3    H2 1150   3.019   0.123   0.890  1.4292  2.1646  0.4461
  382TIP3   OH2 1151   2.247   2.696   4.147 -0.6589  0.1962 -0.8795
  382TIP3    H1 1152   2.157   2.667   4.156 -0.6677  0.1479 -1.1166
  382TIP3    H2 1153   2.300   2.620   4.169 -0.6819 -0.0075 -1.5076
  383TIP3   OH2 1154   3.329   1.295   3.114  0.1415  0.5309 -0.0871
  383TIP3    H1 1155   3.302   1.307   3.023 -1.2886 -0.9145  0.0847
  383TIP3    H2 1156   3.265   1.233   3.149 -0.1914  2.1231  2.3224
  384TIP3   OH2 1157   3.606   0.085   3.320 -0.2337  0.2143 -0.3925
  384TIP3    H1 1158   3.518   0.047   3.315 -0.2665 -0.0159  1.2995
  384TIP3    H2 1159   3.606   0.133   3.402  0.1467  3.1229 -1.9776
  385TIP3   OH2 1160   4.490   4.936   1.243  0.4779  0.6768 -1.0924
  385TIP3    H1 1161   4.449   4.859   1.203  1.2262  0.8175 -2.1667
  385TIP3    H2 1162   4.557   4.900   1.301 -1.3702  0.4267  1.0140
  386TIP3   OH2 1163   1.052   2.603   3.113 -0.2324 -0.3478 -0.0863
  386TIP3    H1 1164   1.080   2.594   3.022  0.7863 -0.0191  0.1728
  386TIP3    H2 1165   1.075   2.520   3.154  0.1204 -0.1811  0.0623
  387TIP3   OH2 1166   6.334   0.203   2.207 -0.2463  0.0774  0.4220
  387TIP3    H1 1167   6.358   0.223   2.116  0.0908  0.7706  0.6534
  387TIP3    H2 1168   6.369   0.115   2.222  0.9736  0.5207  0.3096
  388TIP3   OH2 1169   3.629   4.734   0.316 -0.1185 -0.6495 -0.1389
  388TIP3    H1 1170   3.704   4.692   0.275  1.1572  1.1060  0.2843
  388TIP3    H2 1171   3.637   4.711   0.409  1.7959  2.0461  0.4802
  389TIP3   OH2 1172   5.351   5.758   4.724 -0.4061  0.3527  0.0920
  389TIP3    H1 1173   5.285   5.732   4.789 -0.2292  0.0257  0.1430
  389TIP3    H2 1174   5.429   5.709   4.748 -0.1492  0.7184  0.0115
  390TIP3   OH2 1175   4.283   5.904   0.165  0.3298  0.3829 -0.1735
  390TIP3    H1 1176   4.316   5.874   0.080  1.1179  0.7081  0.0071
  390TIP3    H2 1177   4.286   5.999   0.159 -0.8993  0.4233 -0.2636
  391TIP3   OH2 1178   2.840   3.815   3.520  0.0783 -1.2145 -0.0068
  391TIP3    H1 1179   2.903   3.746   3.543  1.5422  0.2884  0.6895
  391TIP3    H2 1180   2.891   3.878   3.470 -0.7348  0.3315  1.0621
  392TIP3   OH2 1181   1.103   1.634   2.454  0.5431 -0.3266  0.4536
  392TIP3    H1 1182   1.184   1.616   2.406  0.5891 -0.8697  0.7295
  392TIP3    H2 1183   1.078   1.722   2.427 -0.6323 -1.3931 -2.3063
  393TIP3   OH2 1184   5.288   5.729   3.505  0.3128  0.3298 -0.4463
  393TIP3    H1 1185   5.316   5.791   3.572  0.1135 -0.6271  0.5489
  393TIP3    H2 1186   5.213   5.771   3.463 -0.0035  0.6345  0.4150
  394TIP3   OH2 1187   5.701   2.101   3.435 -0.5382 -0.3023  0.1915
  394TIP3    H1 1188   5.794   2.093   3.415 -0.5853  0.5042 -0.3794
  394TIP3    H2 1189   5.682   2.025   3.489  0.4898 -0.3959  0.4445
  395TIP3   OH2 1190   3.647   1.239   0.785  0.2828  0.7454  0.6383
  395TIP3    H1 1191   3.578   1.228   0.850  1.1489 -0.0593  1.4711
  395TIP3    H2 1192   3.603   1.234   0.701 -0.6344 -0.0064  1.1465
  396TIP3   OH2 1193   1.851   5.361   5.076 -0.1371  0.0564 -0.6908
  396TIP3    H1 1194   1.831   5.275   5.113 -0.7156  0.6669  0.4832
  396TIP3    H2 1195   1.782   5.418   5.109  2.1026  1.7313  1.5217
  397TIP3   OH2 1196   2.428   1.479   3.847 -0.7367  0.5763 -0.3486
  397TIP3    H1 1197   2.447   1.453   3.756 -1.3327  0.3937 -0.4210
  397TIP3    H2 1198   2.445   1.573   3.848 -0.3528  0.5140 -0.5490
  398TIP3   OH2 1199   2.183   5.404   0.222 -0.5524  0.5761  0.2297
  398TIP3    H1 1200   2.247   5.457   0.270  0.9317 -0.2079 -0.7658
  398TIP3    H2 1201   2.152   5.340   0.286  3.4969 -2.2971 -0.2609
  399TIP3   OH2 1202   6.314   4.629   0.328 -0.3992  0.0623  0.0368
  399TIP3    H1 1203   6.291   4.656   0.239  0.5776 -0.9629 -0.5611
  399TIP3    H2 1204   6.384   4.565   0.315 -1.3665 -1.3496  1.4561
  400TIP3   OH2 1205   6.130   2.516   3.708  0.4822  0.0491 -0.3757
  400TIP3    H1 1206   6.108   2.606   3.735  1.4412 -0.0523  0.8504
  400TIP3    H2 1207   6.096   2.508   3.619 -0.5806  1.2741 -0.1028
  401TIP3   OH2 1208   0.041   5.967   3.909 -0.1043  0.8817  0.1308
  401TIP3    H1 1209  -0.009   6.027   3.853 -0.0545  0.0198 -0.8579
  401TIP3    H2 1210   0.047   5.886   3.859  2.0070  0.8432  0.3619
  402TIP3   OH2 1211   4.292   4.803   1.068 -0.0251 -0.1154 -0.2357
  402TIP3    H1 1212   4.204   4.821   1.101 -0.1337 -0.3786 -0.3847
  402TIP3    H2 1213   4.294   4.843   0.981 -0.8285 -2.2258 -1.2946
  403TIP3   OH2 1214   1.197   1.351   1.347 -0.6009  0.0163  0.1643
  403TIP3    H1 1215   1.133   1.420   1.364  0.9143  1.2409  1.1568
  403TIP3    H2 1216   1.282   1.393   1.360  0.3833 -2.0855  0.9569
  404TIP3   OH2 1217   2.272   2.488   0.730  0.2386  0.3618 -0.0817
  404TIP3    H1 1218   2.194   2.474   0.784 -0.7903  0.1143 -1.5692
  404TIP3    H2 1219   2.315   2.563   0.770 -1.3695  1.2157  0.1445
  405TIP3   OH2 1220   1.060   5.768   4.628 -0.3888  0.1761 -0.0663
  405TIP3    H1 1221   1.067   5.698   4.563  0.9802  0.3637 -0.1449
  405TIP3    H2 1222   1.070   5.849   4.577 -0.8869  0.3903  0.1715
  406TIP3   OH2 1223   2.448   1.856   1.103  0.2473 -0.1581  0.3335
  406TIP3    H1 1224   2.467   1.792   1.171  0.9361 -1.5661 -1.1201
  406TIP3    H2 1225   2.534   1.888   1.076  0.1487 -1.2018 -1.3152
  407TIP3   OH2 1226   0.057   1.425   4.972  0.4607  0.4075 -0.2640
  407TIP3    H1 1227   0.018   1.485   5.035  1.1759  0.6151 -0.0038
  407TIP3    H2 1228   0.103   1.360   5.026 -2.1240 -1.7320 -0.4409
  408TIP3   OH2 1229   2.939   3.649   2.878 -0.2713  0.0800  0.1289
  408TIP3    H1 1230   2.866   3.593   2.905 -0.5449  0.1098 -0.5176
  408TIP3    H2 1231   2.909   3.689   2.796  0.5882 -0.1198 -0.2936
  409TIP3   OH2 1232   2.101   5.872   3.108 -0.0285  0.4403 -0.2503
  409TIP3    H1 1233   2.081   5.838   3.021 -0.2730  0.2135 -0.1098
  409TIP3    H2 1234   2.196   5.865   3.116 -0.0978 -0.4367 -0.1361
  410TIP3   OH2 1235   2.775   4.421   2.358 -0.1429  0.3215  0.3161
  410TIP3    H1 1236   2.758   4.453   2.446 -0.8158  2.0790 -0.3989
  410TIP3    H2 1237   2.695   4.439   2.310  0.0837 -0.9475 -0.5803
  411TIP3   OH2 1238   6.256   5.462   2.455  0.2102  0.0868  0.2935
  411TIP3    H1 1239   6.190   5.525   2.483 -1.2705 -1.8172  1.3122
  411TIP3    H2 1240   6.280   5.490   2.367 -0.8218  1.7158  0.4983
  412TIP3   OH2 1241   4.857   0.792   0.209  0.7376  0.2901  0.0389
  412TIP3    H1 1242   4.858   0.784   0.113  1.9406 -1.0629  0.1322
  412TIP3    H2 1243   4.936   0.746   0.237 -0.0625 -0.0865  1.7530
  413TIP3   OH2 1244   0.154   4.839   0.620  0.6923 -1.0122 -0.0484
  413TIP3    H1 1245   0.079   4.815   0.566  0.6581 -1.0616  0.0211
  413TIP3    H2 1246   0.168   4.932   0.602  2.2191 -1.5469 -2.0563
  414TIP3   OH2 1247   3.514   4.005   4.599  0.4185 -0.2928 -0.8057
  414TIP3    H1 1248   3.607   4.009   4.578  0.3642 -0.0085 -0.9956
  414TIP3    H2 1249   3.492   4.093   4.629  0.5367 -0.7298  0.6532
  415TIP3   OH2 1250   2.529   3.117   0.321 -0.1020 -0.0776  0.0156
  415TIP3    H1 1251   2.435   3.119   0.340  0.1693  0.6880  1.3709
  415TIP3    H2 1252   2.565   3.055   0.384  0.2297 -0.9473 -0.9920
  416TIP3   OH2 1253   0.442   5.365   1.077  0.3405  0.1863  0.0634
  416TIP3    H1 1254   0.495   5.393   1.152 -0.0146  0.4013  0.2417
  416TIP3    H2 1255   0.369   5.317   1.116 -0.1898  0.8493 -0.0941
  417TIP3   OH2 1256   4.290   0.554   4.016  0.1263 -0.0081  1.1802
  417TIP3    H1 1257   4.277   0.642   4.051 -1.0157  0.4415 -0.2915
  417TIP3    H2 1258   4.206   0.510   4.029  0.9141 -1.1853  2.6257
  418TIP3   OH2 1259   1.370   5.985   2.356 -0.6936 -0.0396 -0.0374
  418TIP3    H1 1260   1.340   5.901   2.320 -0.7356 -0.3486  0.7025
  418TIP3    H2 1261   1.394   6.037   2.279 -1.5566 -0.3889 -0.5492
  419TIP3   OH2 1262   3.414   0.781   0.914  0.1421 -0.4442 -0.3222
  419TIP3    H1 1263   3.446   0.707   0.965  1.4187 -0.5098 -1.1689
  419TIP3    H2 1264   3.469   0.855   0.941 -0.8101  0.1129  0.1764
  420TIP3   OH2 1265   2.348   0.670   0.655 -0.1855 -0.0590 -0.2207
  420TIP3    H1 1266   2.308   0.734   0.714  0.2669 -0.9888  1.1489
  420TIP3    H2 1267   2.395   0.610   0.713 -1.4334 -2.2593 -1.3193
  421TIP3   OH2 1268   2.043   3.720   1.646  0.2633  0.4682 -0.0988
  421TIP3    H1 1269   2.124   3.692   1.603 -0.6822 -0.8457 -1.0830
  421TIP3    H2 1270   1.987   3.751   1.575 -0.6632 -0.0377  0.3888
  422TIP3   OH2 1271   1.332   4.956   3.871 -0.3421 -0.6990 -0.0569
  422TIP3    H1 1272   1.316   4.862   3.879  2.7724 -1.2868  0.5075
  422TIP3    H2 1273   1.320   4.991   3.959  0.3039 -0.9250  0.1253
  423TIP3   OH2 1274   4.421   1.234   1.094  0.8204 -0.0825  0.0436
  423TIP3    H1 1275   4.363   1.158   1.103 -0.4104  0.7206 -0.7919
  423TIP3    H2 1276   4.490   1.204   1.035  0.1923 -0.4867 -0.5062
  424TIP3   OH2 1277   2.136   0.499   0.656 -0.2133 -1.0364  0.2178
  424TIP3    H1 1278   2.206   0.557   0.627 -2.6697  0.9932 -2.2521
  424TIP3    H2 1279   2.125   0.519   0.749  0.4233  0.9676 -0.0955
  425TIP3   OH2 1280   4.369   1.597   1.323 -0.2518 -0.5928  0.1778
  425TIP3    H1 1281   4.415   1.676   1.350 -0.7011 -0.3891  0.3574
  425TIP3    H2 1282   4.439   1.537   1.297  0.2166 -0.7760  1.7338
  426TIP3   OH2 1283   6.214   4.895   4.446 -0.0250  0.1418  0.3502
  426TIP3    H1 1284   6.155   4.834   4.401  0.2769 -1.2763  1.7861
  426TIP3    H2 1285   6.301   4.874   4.412 -0.0848  0.7503 -0.1855
  427TIP3   OH2 1286   4.368   3.730   0.735 -0.4976  0.5768 -0.0363
  427TIP3    H1 1287   4.326   3.667   0.793  1.1731 -0.7602 -0.2149
  427TIP3    H2 1288   4.310   3.734   0.658 -0.7557 -0.5488  0.0814
  428TIP3   OH2 1289   1.399   3.518   3.425 -0.4419  0.4654 -0.3558
  428TIP3    H1 1290   1.411   3.515   3.520 -0.1766  0.2997 -0.3948
  428TIP3    H2 1291   1.329   3.456   3.408 -0.4609  0.4642 -0.2732
  429TIP3   OH2 1292   5.578   3.932   1.945 -0.3757 -0.7255 -0.4875
  429TIP3    H1 1293   5.512   3.899   1.884 -0.0892 -1.7782 -0.2520
  429TIP3    H2 1294   5.551   4.022   1.963  1.1292  0.7199 -4.4591
  430TIP3   OH2 1295   3.350   4.078   3.555  0.7066 -0.2561  0.0678
  430TIP3    H1 1296   3.432   4.114   3.590  0.2069 -0.3764  1.4439
  430TIP3    H2 1297   3.313   4.028   3.629 -0.6968 -0.0378 -0.4635
  431TIP3   OH2 1298   4.347   0.841   3.158 -0.3247  0.3120 -0.3012
  431TIP3    H1 1299   4.281   0.860   3.092  1.5814  1.9400 -1.8483
  431TIP3    H2 1300   4.368   0.926   3.196  1.8492  0.0810 -0.8585
  432TIP3   OH2 1301   2.004   4.782   0.385  0.0626 -0.3593 -0.0686
  432TIP3    H1 1302   2.033   4.733   0.462  0.9284 -0.5668 -0.5140
  432TIP3    H2 1303   2.085   4.809   0.342 -0.4048 -0.4728 -1.0460
  433TIP3   OH2 1304   1.371   2.598   2.187 -0.2820 -0.0262 -0.3021
  433TIP3    H1 1305   1.425   2.527   2.151  0.4246  0.8590 -1.0254
  433TIP3    H2 1306   1.433   2.652   2.237 -0.7302  0.3239 -0.1224
  434TIP3   OH2 1307   4.983   0.713   2.617 -0.4780 -0.6804 -0.3909
  434TIP3    H1 1308   5.043   0.706   2.542  1.6091 -0.6095  1.1761
  434TIP3    H2 1309   4.973   0.807   2.631  1.4035 -0.6146  1.0196
  435TIP3   OH2 1310   5.991   5.413   4.271 -0.5123  0.2655 -0.2159
  435TIP3    H1 1311   5.946   5.492   4.243  1.5542  0.9931 -1.6962
  435TIP3    H2 1312   5.980   5.352   4.199 -0.8112 -0.2712  0.2745
  436TIP3   OH2 1313   3.249   0.191   3.152  0.3226 -0.2857  0.5898
  436TIP3    H1 1314   3.321   0.251   3.130  0.4800 -0.7308 -0.1257
  436TIP3    H2 1315   3.290   0.105   3.156  0.1678 -0.3149  1.9979
  437TIP3   OH2 1316   3.356   3.131   3.294  0.1733  0.0905  0.1894
  437TIP3    H1 1317   3.449   3.138   3.316  0.4172 -0.4324 -0.6446
  437TIP3    H2 1318   3.354   3.091   3.207 -0.7536  2.4125 -0.9344
  438TIP3   OH2 1319   3.510   2.653   4.773 -0.1542  0.2511 -0.0139
  438TIP3    H1 1320   3.517   2.575   4.829 -1.2630 -0.3362 -0.6653
  438TIP3    H2 1321   3.435   2.636   4.717 -1.2669  2.3451  0.6984
  439TIP3   OH2 1322   0.972   1.645   4.770 -0.3224  0.0292  0.5184
  439TIP3    H1 1323   0.899   1.596   4.809  0.6735 -1.3495  0.7378
  439TIP3    H2 1324   1.032   1.577   4.739  1.3355  1.1127  1.2147
  440TIP3   OH2 1325   4.987   5.796   4.242  0.3546  0.2278 -0.2840
  440TIP3    H1 1326   5.065   5.782   4.189  0.1109  0.7935 -0.8022
  440TIP3    H2 1327   4.946   5.874   4.205  0.2618  0.7307  0.8426
  441TIP3   OH2 1328   1.896   1.582   0.080 -0.0914 -0.1419  0.3219
  441TIP3    H1 1329   1.825   1.627   0.125 -1.7865 -2.7912  0.5511
  441TIP3    H2 1330   1.870   1.581  -0.012  1.0438  1.1962 -0.0479
  442TIP3   OH2 1331   3.128   0.625   3.973 -0.4285 -0.0677  0.0839
  442TIP3    H1 1332   3.116   0.714   4.006  0.4392 -0.5473  1.8101
  442TIP3    H2 1333   3.049   0.578   4.002 -0.1015 -0.2578  0.6887
  443TIP3   OH2 1334   4.086   3.385   0.607 -0.2549  0.0513  0.2079
  443TIP3    H1 1335   4.084   3.358   0.515 -2.9298  1.6752 -0.2833
  443TIP3    H2 1336   4.013   3.445   0.617  1.3605  1.8010  2.8705
  444TIP3   OH2 1337   5.455   5.023   4.495  0.3405  0.5855 -0.3173
  444TIP3    H1 1338   5.545   4.990   4.501 -0.4721 -1.6634  0.7684
  444TIP3    H2 1339   5.404   4.947   4.469 -1.3074  1.7814 -0.7223
  445TIP3   OH2 1340   3.221   4.561   3.978 -0.4343  0.3489  0.4008
  445TIP3    H1 1341   3.228   4.479   3.930  0.1240  0.3453  0.4856
  445TIP3    H2 1342   3.246   4.539   4.068 -0.9636  0.4646  0.5790
  446TIP3   OH2 1343   0.596   5.101   2.426  0.2196  0.4040  0.3788
  446TIP3    H1 1344   0.632   5.046   2.357  0.3402  0.7695  0.1462
  446TIP3    H2 1345   0.513   5.061   2.449 -0.3050  0.8426 -0.6838
  447TIP3   OH2 1346   0.724   0.751   4.614  0.4114 -0.6071  0.1083
  447TIP3    H1 1347   0.713   0.727   4.706  0.5533  0.3806  0.3975
  447TIP3    H2 1348   0.800   0.700   4.584  0.3804 -0.9097  0.5438
  448TIP3   OH2 1349   6.103   1.155   0.864  0.3754 -0.3738 -0.2007
  448TIP3    H1 1350   6.163   1.220   0.900  1.7333 -1.7041  0.0304
  448TIP3    H2 1351   6.154   1.110   0.797 -0.0433 -2.1374  0.6197
  449TIP3   OH2 1352   4.893   2.781   2.265  0.0901 -0.2083  0.0448
  449TIP3    H1 1353   4.932   2.860   2.227 -0.4962 -0.1814 -0.5201
  449TIP3    H2 1354   4.968   2.727   2.292  0.5083  0.8655  1.1508
  450TIP3   OH2 1355   1.247   1.204   2.512 -0.3186  0.3557  0.5585
  450TIP3    H1 1356   1.204   1.119   2.525  0.1061  0.0028 -0.2539
  450TIP3    H2 1357   1.303   1.191   2.435  1.7251  0.5974  1.8976
  451TIP3   OH2 1358   5.501   4.044   3.571 -0.2539 -0.3863  0.1003
  451TIP3    H1 1359   5.571   4.091   3.525  1.2682 -1.2205  1.4726
  451TIP3    H2 1360   5.537   3.958   3.589 -1.2163 -0.4828  1.8110
  452TIP3   OH2 1361   0.669   2.966   1.143  0.1957 -0.6795  0.0995
  452TIP3    H1 1362   0.726   3.034   1.180  0.2672 -0.1158 -0.9992
  452TIP3    H2 1363   0.724   2.888   1.141  0.6721 -0.3438 -0.1921
  453TIP3   OH2 1364   3.097   1.337   2.074 -0.1937  0.1092 -0.1131
  453TIP3    H1 1365   3.117   1.309   1.985  1.5679  0.6162  0.0872
  453TIP3    H2 1366   3.163   1.403   2.094 -0.2167 -0.3705  1.7520
  454TIP3   OH2 1367   5.900   4.456   4.371 -0.6349 -0.2118 -0.6231
  454TIP3    H1 1368   5.915   4.494   4.285 -0.6197 -0.1944 -0.6127
  454TIP3    H2 1369   5.855   4.373   4.353 -1.0925  0.0334 -0.6165
  455TIP3   OH2 1370   1.702   4.852   1.872  0.2053 -0.0187 -0.7882
  455TIP3    H1 1371   1.778   4.872   1.817 -0.5421  0.9068 -1.5144
  455TIP3    H2 1372   1.627   4.880   1.820 -0.5876 -0.1023  0.2863
  456TIP3   OH2 1373   0.886   4.139   1.787 -0.7042 -0.4956  0.4141
  456TIP3    H1 1374   0.961   4.116   1.842 -0.7276 -1.4175  0.0941
  456TIP3    H2 1375   0.923   4.192   1.716 -0.4017 -0.6748  0.4354
  457TIP3   OH2 1376   5.530   3.294   1.530  0.3041  0.2197 -0.4514
  457TIP3    H1 1377   5.478   3.222   1.493  0.9036 -0.8966  0.7720
  457TIP3    H2 1378   5.466   3.352   1.571 -0.0662 -1.1486  1.0550
  458TIP3   OH2 1379   2.758   5.601   4.657  0.6106  0.2812 -0.4283
  458TIP3    H1 1380   2.731   5.668   4.594 -0.3386 -0.4644 -0.8315
  458TIP3    H2 1381   2.847   5.578   4.629  0.0379 -0.3843 -1.8404
  459TIP3   OH2 1382   1.518   1.974   0.394  0.6230  0.5842 -0.2307
  459TIP3    H1 1383   1.508   1.975   0.299  0.0710  0.7068 -0.1718
  459TIP3    H2 1384   1.611   1.993   0.408  1.1811 -1.4774 -0.8013
  460TIP3   OH2 1385   1.894   2.330   4.107 -0.7218  0.6715  0.1025
  460TIP3    H1 1386   1.871   2.394   4.175 -0.8451 -0.0703  0.7617
  460TIP3    H2 1387   1.952   2.268   4.151 -1.3400 -0.1987 -0.3010
  461TIP3   OH2 1388   6.321   3.503   0.115  0.1908 -0.0712  0.3575
  461TIP3    H1 1389   6.380   3.432   0.090 -0.1028  0.5812 -2.5762
  461TIP3    H2 1390   6.234   3.463   0.115  0.2040 -0.1062  0.6205
  462TIP3   OH2 1391   4.513   1.866   1.377 -0.0204  0.1160 -0.0137
  462TIP3    H1 1392   4.548   1.927   1.311 -0.8265 -1.1044 -1.6320
  462TIP3    H2 1393   4.474   1.923   1.444  1.5801  1.4100 -0.1056
  463TIP3   OH2 1394   4.926   0.866   2.024  0.2208  0.2200 -0.3764
  463TIP3    H1 1395   4.960   0.840   2.109 -0.7229  1.6266  0.4758
  463TIP3    H2 1396   4.992   0.926   1.988  0.4103 -0.0268 -0.4416
  464TIP3   OH2 1397   4.676   5.496   4.801  0.4474  0.1697  0.4828
  464TIP3    H1 1398   4.596   5.483   4.853  0.4926 -1.3403  0.2260
  464TIP3    H2 1399   4.647   5.484   4.710  1.0140 -0.7706  0.4132
  465TIP3   OH2 1400   5.117   4.234   1.037 -0.0001  0.1074 -0.0569
  465TIP3    H1 1401   5.127   4.316   1.086  0.0251  0.3085 -0.3958
  465TIP3    H2 1402   5.022   4.222   1.028 -0.0121 -0.1318  0.3759
  466TIP3   OH2 1403   2.374   3.516   2.594  0.7090  0.0440  0.7735
  466TIP3    H1 1404   2.445   3.452   2.604  2.8502  1.7516 -1.8323
  466TIP3    H2 1405   2.327   3.486   2.516  0.7434  0.7832  0.4646
  467TIP3   OH2 1406   5.611   5.104   5.027  0.5420 -0.3062 -0.2961
  467TIP3    H1 1407   5.624   5.123   4.935 -0.0178 -1.4317 -0.6333
  467TIP3    H2 1408   5.516   5.095   5.036  0.6451 -1.0244  0.2002
  468TIP3   OH2 1409   2.674   0.409   2.117  0.0744 -0.5281 -0.1021
  468TIP3    H1 1410   2.654   0.439   2.205 -1.0098 -0.1354 -0.4613
  468TIP3    H2 1411   2.769   0.403   2.114  0.1662  0.3114  0.8179
  469TIP3   OH2 1412   0.630   1.009   1.077 -0.2259  0.6783  0.4695
  469TIP3    H1 1413   0.592   1.039   0.994 -4.0413  0.1783  1.8438
  469TIP3    H2 1414   0.609   0.916   1.080 -0.7928  0.8397  2.2670
  470TIP3   OH2 1415   4.378   0.722   2.001 -0.7258 -0.0824  0.0587
  470TIP3    H1 1416   4.421   0.784   1.941  1.2291 -2.1223 -0.8319
  470TIP3    H2 1417   4.400   0.753   2.088  0.8974  0.0973 -0.3811
  471TIP3   OH2 1418   4.100   3.436   4.886  0.1368  0.0900  0.0263
  471TIP3    H1 1419   4.065   3.437   4.797 -2.5236 -3.4747  0.7971
  471TIP3    H2 1420   4.025   3.417   4.942  2.1016 -0.3638  2.7460
  472TIP3   OH2 1421   1.146   2.547   0.196 -0.4644 -0.3947 -0.5106
  472TIP3    H1 1422   1.055   2.543   0.226 -0.3215 -1.4439 -0.1935
  472TIP3    H2 1423   1.167   2.640   0.197 -1.3885 -0.1774 -0.1425
  473TIP3   OH2 1424   3.330   5.811   0.411  0.0284 -0.3795 -0.3306
  473TIP3    H1 1425   3.403   5.803   0.472 -0.9501  0.2208  0.9558
  473TIP3    H2 1426   3.258   5.765   0.453 -0.5934 -0.1885 -1.1602
  474TIP3   OH2 1427   1.793   1.050   4.573  0.2599  0.4030 -0.0559
  474TIP3    H1 1428   1.796   1.107   4.496  0.5432  0.6968  0.1704
  474TIP3    H2 1429   1.711   1.003   4.564 -0.2480  1.2448  0.0324
  475TIP3   OH2 1430   5.956   2.689   0.478  0.2506 -0.0690  0.4739
  475TIP3    H1 1431   6.031   2.697   0.537  0.5183 -1.8214  0.4282
  475TIP3    H2 1432   5.888   2.647   0.531  0.0265 -0.4179 -0.0835
  476TIP3   OH2 1433   1.741   5.008   0.104  0.2462  0.1091 -0.1802
  476TIP3    H1 1434   1.735   5.089   0.155  1.9494  1.0715 -1.3729
  476TIP3    H2 1435   1.691   5.026   0.025  2.0483  0.7490 -1.2513
  477TIP3   OH2 1436   2.017   3.689   1.370  0.3220 -0.7708  0.0923
  477TIP3    H1 1437   2.110   3.687   1.347  0.8626 -1.9968  2.1622
  477TIP3    H2 1438   1.983   3.604   1.343  0.1081 -0.8445  0.5968
  478TIP3   OH2 1439   0.229   1.126   3.418  0.6305 -0.3968  0.0052
  478TIP3    H1 1440   0.239   1.177   3.338 -0.7913  0.2842  0.2317
  478TIP3    H2 1441   0.231   1.191   3.488 -1.1592 -0.6323  0.3035
  479TIP3   OH2 1442   0.201   0.072   4.415  0.2450 -0.5584 -0.2980
  479TIP3    H1 1443   0.221   0.108   4.501 -0.5028  0.4145 -0.5123
  479TIP3    H2 1444   0.119   0.025   4.427  0.5154 -1.0375 -0.3202
  480TIP3   OH2 1445   0.231   1.995   0.455 -0.1860 -0.5187 -0.0753
  480TIP3    H1 1446   0.194   2.082   0.464 -0.7837 -0.8139  0.3811
  480TIP3    H2 1447   0.282   1.982   0.536  1.1590 -0.0195 -0.7998
  481TIP3   OH2 1448   2.371   0.652   1.962  0.2231 -0.1496  0.6028
  481TIP3    H1 1449   2.292   0.670   2.014 -1.2219 -0.4222 -1.3783
  481TIP3    H2 1450   2.361   0.707   1.885  1.1243 -1.4748 -0.4990
  482TIP3   OH2 1451   3.871   5.351   2.970 -0.3217 -0.0330  0.0239
  482TIP3    H1 1452   3.867   5.374   3.063  1.6634 -1.4149  0.5195
  482TIP3    H2 1453   3.816   5.272   2.963 -1.1208  0.5297 -0.1610
  483TIP3   OH2 1454   1.622   5.343   1.075 -0.0085 -0.0291 -0.5093
  483TIP3    H1 1455   1.598   5.251   1.076  1.2375 -0.4035  1.6427
  483TIP3    H2 1456   1.617   5.370   1.167  2.7762  1.1240 -0.5766
  484TIP3   OH2 1457   1.338   0.286   3.849 -0.2835 -0.9164  0.5643
  484TIP3    H1 1458   1.244   0.280   3.865 -0.5346  0.2240 -0.3287
  484TIP3    H2 1459   1.345   0.338   3.769  0.9941 -3.7399 -1.2980
  485TIP3   OH2 1460   3.395   2.400   1.264 -0.0205 -0.1642 -0.5469
  485TIP3    H1 1461   3.416   2.307   1.267  0.1118 -0.1126  1.4474
  485TIP3    H2 1462   3.481   2.443   1.259  0.0097 -0.1203  0.2705
  486TIP3   OH2 1463   2.741   0.370   1.803  0.0561 -0.1398 -0.1447
  486TIP3    H1 1464   2.737   0.415   1.719 -1.1768  0.6918  0.3288
  486TIP3    H2 1465   2.829   0.332   1.806  0.5998  0.9778 -1.2078
  487TIP3   OH2 1466   4.763   0.179   0.147 -0.1681 -0.2521 -0.0645
  487TIP3    H1 1467   4.783   0.251   0.207  0.0708 -1.0043  0.7790
  487TIP3    H2 1468   4.827   0.111   0.168  0.3021 -0.3208 -1.5847
  488TIP3   OH2 1469   3.192   0.403   2.195 -0.4669  0.4445  0.1754
  488TIP3    H1 1470   3.210   0.430   2.285  2.7225 -0.6008 -0.0094
  488TIP3    H2 1471   3.263   0.443   2.144 -2.1493  0.9318 -1.9000
  489TIP3   OH2 1472   0.237   1.249   3.162  0.9401  0.2524  0.6507
  489TIP3    H1 1473   0.282   1.332   3.142  0.1064  0.1355 -2.2112
  489TIP3    H2 1474   0.267   1.189   3.094 -0.6082 -0.9628  0.9921
  490TIP3   OH2 1475   5.973   0.793   3.928  0.1821 -0.3623 -0.5974
  490TIP3    H1 1476   5.924   0.715   3.951 -0.9852  0.4521 -0.2274
  490TIP3    H2 1477   5.923   0.833   3.857 -0.2659  0.9950  0.4352
  491TIP3   OH2 1478   3.832   2.713   1.721  0.3000  0.5780  0.1007
  491TIP3    H1 1479   3.791   2.671   1.796  1.9600  0.2931  0.8867
  491TIP3    H2 1480   3.821   2.651   1.649  1.0122 -0.3428  0.7744
  492TIP3   OH2 1481   3.107   4.218   4.130  0.4671  0.1002 -0.0950
  492TIP3    H1 1482   3.144   4.249   4.212 -0.1054 -0.3326  0.3425
  492TIP3    H2 1483   3.118   4.123   4.134 -1.0794 -0.0913  0.2706
  493TIP3   OH2 1484   2.714   3.407   1.840 -0.2564 -0.1904 -0.0016
  493TIP3    H1 1485   2.806   3.393   1.863 -0.3722 -1.4179 -0.2046
  493TIP3    H2 1486   2.678   3.318   1.830 -1.3411  0.2748 -0.3977
  494TIP3   OH2 1487   4.261   0.406   3.104 -0.2593 -0.2492 -0.1156
  494TIP3    H1 1488   4.335   0.372   3.053 -0.4579  1.2100 -1.4547
  494TIP3    H2 1489   4.210   0.456   3.041  0.4434  3.1708  1.7912
  495TIP3   OH2 1490   5.609   1.244   3.355 -0.4633  0.4487 -0.1146
  495TIP3    H1 1491   5.514   1.244   3.359 -0.4494 -0.5403  0.7337
  495TIP3    H2 1492   5.637   1.218   3.443  0.6041  1.0611 -0.2448
  496TIP3   OH2 1493   3.243   0.763   0.222  0.1771 -0.1816  0.1259
  496TIP3    H1 1494   3.184   0.831   0.254  0.3024 -0.3513  0.7201
  496TIP3    H2 1495   3.204   0.681   0.254  0.8334 -0.2800  0.6859
  497TIP3   OH2 1496   1.724   2.433   0.093  0.2126  0.4900 -0.5784
  497TIP3    H1 1497   1.775   2.507   0.059 -1.1912  0.3524 -3.2352
  497TIP3    H2 1498   1.635   2.468   0.103  0.0834 -0.1516  0.7886
  498TIP3   OH2 1499   3.370   1.423   4.042 -0.0032 -0.2656  0.7165
  498TIP3    H1 1500   3.275   1.429   4.028  0.1361  0.8917  0.1105
  498TIP3    H2 1501   3.408   1.466   3.966  1.0611 -1.8314  0.3286
  499TIP3   OH2 1502   0.284   1.990   2.248 -0.5010 -0.3411  0.3116
  499TIP3    H1 1503   0.334   1.957   2.322 -1.1383 -1.2935  0.3402
  499TIP3    H2 1504   0.348   2.005   2.179 -0.2964 -2.9757 -0.1663
  500TIP3   OH2 1505   0.550   5.473   3.232  0.5682 -0.0798  0.1930
  500TIP3    H1 1506   0.486   5.428   3.287 -0.2428 -1.1887 -1.5795
  500TIP3    H2 1507   0.504   5.551   3.200  1.0160  0.5243  0.9581
  501TIP3   OH2 1508   3.295   2.471   0.070 -0.4175  0.6560  0.0236
  501TIP3    H1 1509   3.220   2.413   0.055 -0.8386  1.3655 -0.7321
  501TIP3    H2 1510   3.316   2.506  -0.017 -1.6126  3.3600  0.6879
  502TIP3   OH2 1511   5.382   5.200   0.461  0.4043 -0.3993  0.5316
  502TIP3    H1 1512   5.325   5.273   0.486  2.4228  1.3515  0.3329
  502TIP3    H2 1513   5.353   5.176   0.373  0.1765  0.6823  0.2952
  503TIP3   OH2 1514   4.460   1.661   4.086  0.1804  0.4104  0.0810
  503TIP3    H1 1515   4.413   1.739   4.056  0.1747  0.2596 -0.3163
  503TIP3    H2 1516   4.551   1.689   4.093  0.1416  0.5154  0.1605
  504TIP3   OH2 1517   2.501   0.685   2.234  0.3533 -0.3315 -0.2899
  504TIP3    H1 1518   2.483   0.666   2.142  1.1391 -0.9570 -0.3213
  504TIP3    H2 1519   2.453   0.766   2.251  0.3759 -0.0875 -1.3118
  505TIP3   OH2 1520   3.645   4.159   1.232 -0.3123  0.2014 -0.6872
  505TIP3    H1 1521   3.621   4.067   1.228 -1.6144  0.3929  1.3106
  505TIP3    H2 1522   3.581   4.202   1.174 -1.3384  0.0879  0.3182
  506TIP3   OH2 1523   2.567   1.588   2.488  0.0074 -0.0123 -0.2305
  506TIP3    H1 1524   2.598   1.540   2.565  0.3721  0.5536 -0.0189
  506TIP3    H2 1525   2.647   1.608   2.439 -0.1668  0.1387 -0.4535
  507TIP3   OH2 1526   0.896   0.406   3.577  0.4708  0.1254  0.6308
  507TIP3    H1 1527   0.947   0.337   3.533  0.2374  1.5251 -2.0139
  507TIP3    H2 1528   0.944   0.486   3.558 -1.0480  1.1025  0.8362
  508TIP3   OH2 1529   4.040   0.734   2.712 -0.4116  0.4471  0.1260
  508TIP3    H1 1530   4.052   0.639   2.721 -1.0630  0.3070 -0.4139
  508TIP3    H2 1531   3.962   0.754   2.763 -0.7444  0.5600 -0.4152
  509TIP3   OH2 1532   4.518   2.055   0.013 -0.1663  0.1236  0.3763
  509TIP3    H1 1533   4.489   1.965   0.026  0.6906 -0.0456  1.2456
  509TIP3    H2 1534   4.444   2.098  -0.030 -0.3744 -1.1251 -0.5850
  510TIP3   OH2 1535   0.751   4.688   3.768  0.2831  0.2464 -0.3601
  510TIP3    H1 1536   0.756   4.741   3.690 -1.3154  0.9452 -0.0230
  510TIP3    H2 1537   0.827   4.715   3.821  1.3203 -0.1711 -1.5760
  511TIP3   OH2 1538   3.149   1.118   4.370 -0.0023 -0.1366 -0.8144
  511TIP3    H1 1539   3.130   1.063   4.445  0.9993  0.9831  0.3149
  511TIP3    H2 1540   3.237   1.092   4.342  1.5841  2.3389  1.2626
  512TIP3   OH2 1541   6.289   5.298   2.910  0.0685 -0.1515  0.0307
  512TIP3    H1 1542   6.291   5.227   2.974  0.1228 -1.1746 -1.0750
  512TIP3    H2 1543   6.341   5.266   2.837  0.8250  1.3907 -0.1467
  513TIP3   OH2 1544   0.986   4.533   4.667 -0.1956  0.1194 -0.1958
  513TIP3    H1 1545   1.008   4.569   4.753 -1.0868  0.2580 -0.0092
  513TIP3    H2 1546   1.070   4.512   4.627  0.2054 -2.8242  1.8964
  514TIP3   OH2 1547   1.838   1.307   3.251  0.3319 -0.0085 -0.2652
  514TIP3    H1 1548   1.787   1.281   3.328  1.4376 -1.3980  0.0559
  514TIP3    H2 1549   1.928   1.312   3.283  0.6560  0.4920 -1.2292
  515TIP3   OH2 1550   4.300   4.872   3.648  0.0665  0.0040 -0.2728
  515TIP3    H1 1551   4.322   4.789   3.606  2.4810 -0.1001  1.0620
  515TIP3    H2 1552   4.228   4.851   3.707  0.1697 -0.9681 -0.4829
  516TIP3   OH2 1553   2.440   0.535   0.290  0.7371  0.3512 -0.9293
  516TIP3    H1 1554   2.369   0.600   0.291  0.8692  0.5066  0.1314
  516TIP3    H2 1555   2.520   0.587   0.304  0.8319 -0.0277  0.0520
  517TIP3   OH2 1556   2.060   2.627   2.194  0.1897  0.2722  0.3894
  517TIP3    H1 1557   2.139   2.586   2.228 -0.1086  0.6767  1.6214
  517TIP3    H2 1558   2.050   2.592   2.105  2.4038  1.1197 -0.2478
  518TIP3   OH2 1559   0.685   3.920   0.396 -1.2597  0.2204  0.2537
  518TIP3    H1 1560   0.612   3.973   0.365 -0.4610  0.4912 -1.2665
  518TIP3    H2 1561   0.705   3.954   0.483 -0.2810  2.9918 -0.9565
  519TIP3   OH2 1562   2.161   3.516   5.100  0.0028 -0.3771  0.3710
  519TIP3    H1 1563   2.078   3.475   5.124 -0.8655  0.9381 -0.3073
  519TIP3    H2 1564   2.138   3.606   5.077  1.3425 -0.4680 -1.5418
  520TIP3   OH2 1565   4.122   1.721   4.393 -0.4450 -0.1027 -0.5134
  520TIP3    H1 1566   4.217   1.714   4.403 -0.6597 -0.8110  1.6254
  520TIP3    H2 1567   4.096   1.640   4.350 -0.0871  0.1778 -1.2806
  521TIP3   OH2 1568   5.424   3.120   1.353  0.3975 -0.1687  0.0180
  521TIP3    H1 1569   5.400   3.027   1.358 -0.5256  0.0874  0.7561
  521TIP3    H2 1570   5.346   3.162   1.314  0.8802  0.2777 -0.4827
  522TIP3   OH2 1571   0.294   1.017   3.800 -0.5774 -0.0848 -0.1209
  522TIP3    H1 1572   0.386   1.041   3.788 -1.0638  1.6408 -0.7433
  522TIP3    H2 1573   0.254   1.030   3.714 -1.0278 -2.8685 -0.4115
  523TIP3   OH2 1574   1.837   2.597   1.182  0.4110  0.1046  0.2917
  523TIP3    H1 1575   1.795   2.523   1.139 -0.2855 -0.7719  2.3652
  523TIP3    H2 1576   1.928   2.595   1.152  0.1017 -0.8195 -0.6287
  524TIP3   OH2 1577   1.216   3.452   2.010 -0.1758 -0.4971  0.0088
  524TIP3    H1 1578   1.286   3.387   2.015  0.1740 -0.2355 -1.1059
  524TIP3    H2 1579   1.248   3.516   1.946  0.8716  2.4580  3.1822
  525TIP3   OH2 1580   0.157   4.343   4.820 -0.2137  0.0732 -0.3217
  525TIP3    H1 1581   0.080   4.397   4.837 -0.5223 -0.9565  1.9210
  525TIP3    H2 1582   0.229   4.391   4.859 -0.0115  0.1576 -0.7891
  526TIP3   OH2 1583   3.929   1.293   4.026 -0.7906  0.5438  0.4292
  526TIP3    H1 1584   3.862   1.311   4.092 -0.1473  3.3544  0.4420
  526TIP3    H2 1585   3.994   1.240   4.072 -0.1364  2.8002  2.3266
  527TIP3   OH2 1586   4.855   0.893   4.454  0.2784  0.8610  0.0424
  527TIP3    H1 1587   4.762   0.897   4.478  0.0856  2.6486 -0.8416
  527TIP3    H2 1588   4.855   0.909   4.359  1.3355 -1.4907 -0.4212
  528TIP3   OH2 1589   4.532   5.355   0.771  0.2942 -0.6353 -0.1500
  528TIP3    H1 1590   4.627   5.342   0.769  0.6473  1.5715  0.3307
  528TIP3    H2 1591   4.511   5.366   0.863 -0.2595  0.0522 -0.3517
  529TIP3   OH2 1592   2.987   1.037   1.977 -0.1794 -0.2662 -0.1852
  529TIP3    H1 1593   2.894   1.023   1.994 -0.2300  1.0223  0.7332
  529TIP3    H2 1594   2.992   1.124   1.939  0.9250  1.2727  3.1154
  530TIP3   OH2 1595   0.087   4.709   3.612 -0.4618 -0.2331  0.0166
  530TIP3    H1 1596   0.157   4.736   3.671 -0.0493 -0.5829 -0.3153
  530TIP3    H2 1597   0.117   4.628   3.572 -0.1402  0.6538 -1.6668
  531TIP3   OH2 1598   5.838   2.431   4.784  0.2327  0.4016 -0.1939
  531TIP3    H1 1599   5.869   2.399   4.869 -2.0577 -2.7735 -0.3697
  531TIP3    H2 1600   5.855   2.359   4.723 -2.8661  0.3597 -1.2326
  532TIP3   OH2 1601   3.177   5.295   3.150  0.0034 -0.2175  0.0287
  532TIP3    H1 1602   3.117   5.366   3.128 -0.5550 -0.6634  0.0710
  532TIP3    H2 1603   3.206   5.313   3.239 -0.4441 -0.2533  0.1812
  533TIP3   OH2 1604   1.711   5.027   0.685  0.1141 -0.2501 -0.2543
  533TIP3    H1 1605   1.728   5.095   0.620 -0.6306 -0.5294 -0.7604
  533TIP3    H2 1606   1.796   4.988   0.703  0.4046  0.1942 -0.6570
  534TIP3   OH2 1607   4.263   0.536   0.598  0.3389  0.0640 -0.0811
  534TIP3    H1 1608   4.257   0.591   0.519  0.1945  0.3298  0.1113
  534TIP3    H2 1609   4.351   0.552   0.631  0.9434 -1.1912 -1.0040
  535TIP3   OH2 1610   3.272   5.075   1.524  0.2804  0.1191 -0.0870
  535TIP3    H1 1611   3.328   5.006   1.561  0.5940  0.8504  0.8342
  535TIP3    H2 1612   3.292   5.073   1.430  0.7666 -0.6006  0.0170
  536TIP3   OH2 1613   4.628   2.310   4.580  0.0582  0.2093 -0.2143
  536TIP3    H1 1614   4.613   2.377   4.514  0.1097 -1.7926 -2.3880
  536TIP3    H2 1615   4.541   2.290   4.614 -0.3670 -0.7170 -1.7700
  537TIP3   OH2 1616   3.840   0.095   1.043 -0.3428 -0.3295  0.3379
  537TIP3    H1 1617   3.831  -0.000   1.042  0.3814 -0.4036 -0.9100
  537TIP3    H2 1618   3.750   0.127   1.046 -0.6119 -1.0517  0.2223
  538TIP3   OH2 1619   3.399   5.258   2.577  0.0477 -0.0451  0.2920
  538TIP3    H1 1620   3.418   5.343   2.537 -1.5669 -0.0871 -0.6649
  538TIP3    H2 1621   3.408   5.195   2.506 -0.1014 -0.4936  0.6610
  539TIP3   OH2 1622   0.565   2.967   0.299 -0.4818  0.0176 -0.3295
  539TIP3    H1 1623   0.578   2.893   0.359 -1.2797 -0.5533 -0.8344
  539TIP3    H2 1624   0.577   3.045   0.353  0.4845 -0.4753  0.1901
  540TIP3   OH2 1625   4.848   4.166   1.033  0.1654 -0.2929  0.0470
  540TIP3    H1 1626   4.819   4.074   1.033 -0.8296  0.0039  0.2977
  540TIP3    H2 1627   4.775   4.214   0.994  0.7456  0.3827 -0.2255
  541TIP3   OH2 1628   1.304   4.422   0.066 -0.1807  0.0594  0.6381
  541TIP3    H1 1629   1.286   4.412  -0.027  0.3801  0.6807  0.4574
  541TIP3    H2 1630   1.384   4.371   0.081  0.6549  1.2684  0.4365
  542TIP3   OH2 1631   2.416   5.490   3.284  0.3860  0.0002 -0.4137
  542TIP3    H1 1632   2.418   5.494   3.380 -0.6737 -2.0919 -0.2592
  542TIP3    H2 1633   2.402   5.398   3.264  2.9435 -0.0322 -2.6741
  543TIP3   OH2 1634   0.483   1.537   5.154  0.2428 -0.4009  0.2409
  543TIP3    H1 1635   0.490   1.621   5.107 -0.6756  0.1887  1.1131
  543TIP3    H2 1636   0.511   1.557   5.243 -0.8186 -0.8020  0.6789
  544TIP3   OH2 1637   3.244   5.362   3.433  0.0492 -0.1382  0.3091
  544TIP3    H1 1638   3.167   5.381   3.487  0.1829  0.3799  0.3195
  544TIP3    H2 1639   3.292   5.296   3.483 -1.1174 -1.5495 -0.3722
  545TIP3   OH2 1640   6.325   3.857   2.768 -0.0014  0.3422  0.0042
  545TIP3    H1 1641   6.368   3.906   2.699  0.5330 -0.0551  0.0488
  545TIP3    H2 1642   6.308   3.771   2.730 -0.3897  0.3656  0.1195
  546TIP3   OH2 1643   6.153   2.497   2.708  0.1394  0.2147 -0.3663
  546TIP3    H1 1644   6.095   2.422   2.708 -1.5941  1.4853  0.2832
  546TIP3    H2 1645   6.232   2.467   2.754  0.0576 -1.5671 -1.3342
  547TIP3   OH2 1646   6.041   0.493   4.735 -0.1479  0.6299  0.1905
  547TIP3    H1 1647   5.995   0.572   4.762  1.1081  1.0602  1.1927
  547TIP3    H2 1648   6.134   0.515   4.743  0.2385 -0.6004 -0.5571
  548TIP3   OH2 1649   6.076   5.246   1.700  0.0251 -0.2006 -0.0508
  548TIP3    H1 1650   5.982   5.241   1.681  0.2812 -1.8239 -1.1240
  548TIP3    H2 1651   6.082   5.259   1.794 -1.2802  0.4408 -0.0436
  549TIP3   OH2 1652   4.823   2.800   4.795 -0.3396  0.2219  0.3467
  549TIP3    H1 1653   4.894   2.804   4.731  2.1482 -0.9860  2.8373
  549TIP3    H2 1654   4.778   2.718   4.776 -0.5644  0.5749 -0.7147
  550TIP3   OH2 1655   3.730   5.937   3.937  0.1376 -0.4474  0.1835
  550TIP3    H1 1656   3.698   5.925   4.026  0.6895  0.5743  0.5248
  550TIP3    H2 1657   3.824   5.950   3.946  0.3138 -1.0654 -0.6168
  551TIP3   OH2 1658   0.305   0.351   2.230  0.1447  0.2099 -0.1256
  551TIP3    H1 1659   0.396   0.322   2.236 -0.0665 -0.4608 -0.1541
  551TIP3    H2 1660   0.293   0.375   2.138 -0.1634 -1.2494 -0.4963
  552TIP3   OH2 1661   4.041   3.219   1.982 -0.1716  0.6209  0.3103
  552TIP3    H1 1662   4.058   3.217   2.076 -1.5779 -0.4626  0.5745
  552TIP3    H2 1663   4.067   3.307   1.955  1.4175  0.5464  1.4610
  553TIP3   OH2 1664  -0.004   0.766   5.003  0.5697 -0.3304  0.0318
  553TIP3    H1 1665   0.037   0.848   4.975 -0.2565  0.0583 -0.0691
  553TIP3    H2 1666   0.050   0.698   4.963  1.7666  0.1338  0.8090
  554TIP3   OH2 1667   5.803   3.036   1.985 -0.5830  0.1456  0.3372
  554TIP3    H1 1668   5.814   2.968   2.051 -0.3189  0.0262  0.1727
  554TIP3    H2 1669   5.778   2.989   1.905 -0.6054  0.2598  0.2752
  555TIP3   OH2 1670   0.832   2.280   0.625 -0.0502 -0.0020  0.1777
  555TIP3    H1 1671   0.792   2.271   0.711 -1.4723 -1.8993 -0.6295
  555TIP3    H2 1672   0.926   2.268   0.641 -0.1255  1.0429  1.6104
  556TIP3   OH2 1673   2.233   2.099   0.428 -0.4328 -0.2377 -0.4559
  556TIP3    H1 1674   2.324   2.081   0.404 -0.4742  1.0805 -1.7688
  556TIP3    H2 1675   2.238   2.149   0.509 -0.0929 -1.5299  0.3510
  557TIP3   OH2 1676   5.017   0.814   0.889 -0.9823  0.0875  0.1318
  557TIP3    H1 1677   4.970   0.762   0.954 -0.8534  1.6570  1.5384
  557TIP3    H2 1678   5.102   0.833   0.929 -0.4596  0.1495 -0.9646
  558TIP3   OH2 1679   4.597   4.319   0.363  0.0127  0.1789  0.4546
  558TIP3    H1 1680   4.584   4.225   0.359 -1.6567  0.3892  0.4097
  558TIP3    H2 1681   4.687   4.332   0.333 -0.8027 -1.1375 -3.0287
  559TIP3   OH2 1682   4.767   3.194   3.428  0.8229 -0.3513 -0.0378
  559TIP3    H1 1683   4.690   3.234   3.468  0.4873 -1.9510  0.9703
  559TIP3    H2 1684   4.795   3.258   3.362 -1.3169  0.3014 -0.3984
  560TIP3   OH2 1685   1.849   0.690   0.548  0.4745 -0.1818  0.4290
  560TIP3    H1 1686   1.784   0.757   0.569  1.3457  0.8045  0.0522
  560TIP3    H2 1687   1.815   0.610   0.589 -1.1038  0.2345 -0.0001
  561TIP3   OH2 1688   5.649   4.627   3.322  0.5314  0.0569  0.1404
  561TIP3    H1 1689   5.568   4.650   3.275 -0.9129 -0.4915  2.2027
  561TIP3    H2 1690   5.718   4.635   3.256 -0.9270  2.3515 -1.2540
  562TIP3   OH2 1691   1.216   3.583   4.727 -0.2916  0.0947 -0.4500
  562TIP3    H1 1692   1.195   3.675   4.743 -0.2915  0.0365 -0.1154
  562TIP3    H2 1693   1.285   3.562   4.790  0.6230  0.2166 -1.3775
  563TIP3   OH2 1694   5.280   0.216   1.361  0.1161  0.0524 -0.0719
  563TIP3    H1 1695   5.221   0.271   1.309  0.4394  1.3736  0.8999
  563TIP3    H2 1696   5.349   0.190   1.301  1.5877  3.1928  0.0429
  564TIP3   OH2 1697   5.760   5.813   1.343  0.3409  0.0700  0.1728
  564TIP3    H1 1698   5.854   5.792   1.348  0.5405  1.0630  0.9755
  564TIP3    H2 1699   5.750   5.855   1.257  0.7736  0.5823  0.3668
  565TIP3   OH2 1700   4.561   3.207   5.074 -0.0811 -0.1110  0.6599
  565TIP3    H1 1701   4.615   3.256   5.012 -0.1420  0.4703  1.0543
  565TIP3    H2 1702   4.472   3.214   5.040 -0.2007  0.7042  1.1080
  566TIP3   OH2 1703   4.029   5.451   1.816  0.1586 -0.3631 -0.4468
  566TIP3    H1 1704   3.940   5.484   1.804 -0.0704 -1.0649 -0.7725
  566TIP3    H2 1705   4.061   5.435   1.727  0.3487 -0.7722 -0.3090
  567TIP3   OH2 1706   1.188   1.835   5.061 -0.6691 -0.4224 -0.1647
  567TIP3    H1 1707   1.110   1.780   5.069 -1.2318  0.5415  1.3524
  567TIP3    H2 1708   1.259   1.781   5.096 -0.7801 -1.0045 -0.8041
  568TIP3   OH2 1709   4.039   3.361   4.390  0.1083 -0.4827 -0.1058
  568TIP3    H1 1710   3.962   3.346   4.445  0.7008  0.3519  0.9746
  568TIP3    H2 1711   4.003   3.397   4.309 -0.5970  0.7457  0.7203
  569TIP3   OH2 1712   5.841   4.379   0.903 -0.0306  0.3741  0.0499
  569TIP3    H1 1713   5.858   4.346   0.815  2.4031  0.1254  0.5470
  569TIP3    H2 1714   5.900   4.453   0.914 -0.4970  0.5901  1.3721
  570TIP3   OH2 1715   5.408   5.513   2.823  0.0500 -0.0125  0.4521
  570TIP3    H1 1716   5.439   5.582   2.881 -1.2703 -0.5300  1.8739
  570TIP3    H2 1717   5.475   5.505   2.755  1.0870  1.4235  1.2639
  571TIP3   OH2 1718   0.912   0.845   4.258 -0.1783  0.0112 -0.3303
  571TIP3    H1 1719   0.823   0.842   4.294  0.5137  0.6106  1.5281
  571TIP3    H2 1720   0.934   0.938   4.256 -0.0838 -0.0142 -2.1511
  572TIP3   OH2 1721   5.876   2.625   3.305 -0.4694  0.3453  0.2928
  572TIP3    H1 1722   5.856   2.542   3.262  0.4764 -0.2679  1.0175
  572TIP3    H2 1723   5.803   2.639   3.365 -0.4348 -0.1581  0.4533
  573TIP3   OH2 1724   5.124   3.076   0.224 -0.2688  0.0366  0.7958
  573TIP3    H1 1725   5.102   3.028   0.143  1.7457 -0.5690  0.5503
  573TIP3    H2 1726   5.085   3.024   0.294 -0.8071 -0.2235  0.3111
  574TIP3   OH2 1727   0.794   0.070   4.898  0.1751  0.4839 -0.7723
  574TIP3    H1 1728   0.802   0.132   4.971 -1.1553  0.1529 -0.3189
  574TIP3    H2 1729   0.762  -0.011   4.939 -1.3513  0.5243 -1.7970
  575TIP3   OH2 1730   3.475   1.593   3.812  0.1162  0.3377  0.1651
  575TIP3    H1 1731   3.557   1.591   3.861 -1.1773  0.9899  2.5500
  575TIP3    H2 1732   3.478   1.674   3.762  0.0462  1.5501  2.0245
  576TIP3   OH2 1733   3.558   3.583   0.113 -0.1452 -0.5349 -0.2069
  576TIP3    H1 1734   3.638   3.610   0.067  0.3926 -0.6197  0.6545
  576TIP3    H2 1735   3.489   3.590   0.047  0.2120  1.4999 -0.4345
  577TIP3   OH2 1736   4.572   4.292   1.609 -0.2771  0.1800 -0.5049
  577TIP3    H1 1737   4.611   4.242   1.538 -0.5911  0.2490 -0.7307
  577TIP3    H2 1738   4.644   4.309   1.670  0.5142  1.9836 -1.8429
  578TIP3   OH2 1739   4.648   2.104   1.818 -0.6864  0.1153  0.4878
  578TIP3    H1 1740   4.584   2.126   1.749  1.2427 -1.0896 -1.8652
  578TIP3    H2 1741   4.681   2.017   1.792  0.6606 -0.0669  2.5795
  579TIP3   OH2 1742   0.737   1.839   0.108 -0.1594  0.2638 -0.1075
  579TIP3    H1 1743   0.649   1.802   0.112 -0.1611  0.3492  0.8698
  579TIP3    H2 1744   0.753   1.872   0.197  1.3453 -0.8667  0.0758
  580TIP3   OH2 1745   3.714   5.928   0.160  0.1901  0.4346  0.4790
  580TIP3    H1 1746   3.731   5.835   0.173  0.0879  0.1876 -0.9569
  580TIP3    H2 1747   3.800   5.966   0.141  0.0960  0.4553  0.0932
  581TIP3   OH2 1748   5.925   5.327   0.943 -0.3011 -0.0265 -0.4086
  581TIP3    H1 1749   5.857   5.363   0.885 -1.8784 -0.3877  1.1248
  581TIP3    H2 1750   5.987   5.399   0.955 -0.2312  0.2329 -2.0508
  582TIP3   OH2 1751   4.834   2.062   2.657 -0.8469 -0.2202 -0.0590
  582TIP3    H1 1752   4.809   2.123   2.588  1.7364  2.6913  1.3232
  582TIP3    H2 1753   4.919   2.027   2.628  1.2323  2.4741  2.2174
  583TIP3   OH2 1754   6.265   2.704   1.574  0.1938 -0.1690  0.1911
  583TIP3    H1 1755   6.252   2.708   1.479  0.1188 -0.2896  0.1953
  583TIP3    H2 1756   6.179   2.725   1.611 -0.3110 -2.0827  0.2066
  584TIP3   OH2 1757   5.763   4.747   3.913 -0.3446  0.0016 -0.7199
  584TIP3    H1 1758   5.747   4.653   3.902  0.1465 -0.1069 -0.5172
  584TIP3    H2 1759   5.676   4.787   3.904 -0.7739 -0.5982  0.5152
  585TIP3   OH2 1760   1.119   1.817   1.613 -0.4806  0.3124  0.0583
  585TIP3    H1 1761   1.157   1.887   1.559  0.3715 -1.1569 -1.3342
  585TIP3    H2 1762   1.187   1.749   1.615 -1.5059 -0.7203  0.8902
  586TIP3   OH2 1763   0.899   3.178   0.100  0.2763  0.4460 -0.3473
  586TIP3    H1 1764   0.917   3.259   0.146  2.2338 -1.8844  3.4870
  586TIP3    H2 1765   0.805   3.164   0.111  0.4945  0.5263  2.2104
  587TIP3   OH2 1766   2.407   1.830   2.707 -0.2219  0.0368 -0.2397
  587TIP3    H1 1767   2.366   1.913   2.733 -3.1562 -1.0841 -0.9018
  587TIP3    H2 1768   2.395   1.826   2.612  1.5449 -0.3580 -0.4763
  588TIP3   OH2 1769   0.275   4.775   4.973  0.4778  0.3564 -0.5330
  588TIP3    H1 1770   0.301   4.787   5.064 -0.2798 -1.8986  0.0561
  588TIP3    H2 1771   0.181   4.794   4.973  0.6469  1.2667 -1.0779
  589TIP3   OH2 1772   1.077   5.156   1.859 -0.5492 -0.0040  0.0608
  589TIP3    H1 1773   1.157   5.113   1.829 -0.7718  0.0181 -0.5813
  589TIP3    H2 1774   1.107   5.219   1.924 -0.2859 -1.5886  1.5524
  590TIP3   OH2 1775   2.656   1.058   4.621 -0.2241 -0.5337  0.8294
  590TIP3    H1 1776   2.577   1.004   4.620 -1.1344  0.7531  0.8796
  590TIP3    H2 1777   2.639   1.125   4.687  0.3650  0.5467 -0.0794
  591TIP3   OH2 1778   0.562   4.189   0.436  0.1315 -0.8337 -0.3636
  591TIP3    H1 1779   0.563   4.279   0.470  0.2818 -1.4778  1.4076
  591TIP3    H2 1780   0.471   4.161   0.448 -0.1730 -0.5969 -1.8906
  592TIP3   OH2 1781   5.026   2.242   0.647 -0.1418  0.0740 -0.2777
  592TIP3    H1 1782   5.032   2.225   0.553 -0.5011 -0.1757 -0.2610
  592TIP3    H2 1783   5.104   2.293   0.668  0.5297 -0.8282 -0.5091
  593TIP3   OH2 1784   3.272   2.382   3.545  0.2634  0.0568 -0.6997
  593TIP3    H1 1785   3.303   2.409   3.631  0.0806 -0.6061 -0.4186
  593TIP3    H2 1786   3.202   2.319   3.564  0.7636 -0.6956 -1.3404
  594TIP3   OH2 1787   3.242   3.367   2.302  0.2386  0.3711  0.0717
  594TIP3    H1 1788   3.148   3.349   2.295  0.0150  1.5037 -0.1043
  594TIP3    H2 1789   3.264   3.347   2.393 -0.8838  2.9562  1.0297
  595TIP3   OH2 1790   5.481   0.242   3.525 -0.3749 -0.2194  0.1339
  595TIP3    H1 1791   5.413   0.194   3.479 -0.1197 -0.4737  0.0176
  595TIP3    H2 1792   5.562   0.194   3.505  0.0362  0.8149 -0.7941
  596TIP3   OH2 1793   5.096   5.829   1.544  0.4238  0.0045 -0.5668
  596TIP3    H1 1794   5.097   5.789   1.631 -1.7306  0.1431 -0.4257
  596TIP3    H2 1795   5.092   5.923   1.560 -1.1608 -0.0115 -0.7693
  597TIP3   OH2 1796   0.067   1.619   4.762  0.2319 -0.0110  0.1993
  597TIP3    H1 1797   0.077   1.553   4.830  0.6242 -0.5222 -0.3458
  597TIP3    H2 1798   0.026   1.573   4.689 -1.6145  0.8835  0.6054
  598TIP3   OH2 1799   3.472   0.121   5.030 -0.0183 -0.3181 -0.1178
  598TIP3    H1 1800   3.381   0.101   5.008  0.1130 -1.0273 -0.0268
  598TIP3    H2 1801   3.496   0.055   5.094  0.6849 -0.3681 -0.4299
  599TIP3   OH2 1802   3.999   4.932   2.516 -0.6431  0.0332  0.0429
  599TIP3    H1 1803   3.999   4.950   2.422 -0.6480 -0.5340 -0.0665
  599TIP3    H2 1804   4.060   4.996   2.553 -0.9661  0.5419 -0.2901
  600TIP3   OH2 1805   1.117   5.749   1.047  0.2773 -0.6614 -0.2825
  600TIP3    H1 1806   1.032   5.787   1.070  0.2862 -0.9742  0.2802
  600TIP3    H2 1807   1.174   5.825   1.035 -0.0240 -0.4566 -0.4333
  601TIP3   OH2 1808   1.317   1.811   0.442  0.3816  0.2995 -0.2646
  601TIP3    H1 1809   1.351   1.899   0.456  1.2155  0.2206 -1.6308
  601TIP3    H2 1810   1.339   1.790   0.351  0.6549 -1.5119  0.1641
  602TIP3   OH2 1811   5.814   5.082   3.682 -0.2992  0.1150 -0.1714
  602TIP3    H1 1812   5.836   4.992   3.705  1.7099  0.9946  1.6534
  602TIP3    H2 1813   5.740   5.074   3.622  0.2405 -2.7658 -0.5988
  603TIP3   OH2 1814   0.291   2.285   4.907 -0.4160  0.0107 -0.1732
  603TIP3    H1 1815   0.296   2.337   4.827  1.0667  0.3871  0.1423
  603TIP3    H2 1816   0.259   2.346   4.974  1.2594  0.5538  0.1822
  604TIP3   OH2 1817   3.595   1.232   0.245 -0.2575  0.3204 -0.1707
  604TIP3    H1 1818   3.525   1.280   0.289 -0.9993  0.4513 -1.4345
  604TIP3    H2 1819   3.568   1.228   0.154  1.1587 -0.0611 -0.6087
  605TIP3   OH2 1820   1.609   5.749   4.190 -0.0859  1.3230  0.5622
  605TIP3    H1 1821   1.560   5.672   4.218 -0.6033  1.7356  0.8034
  605TIP3    H2 1822   1.596   5.813   4.260  3.2534  0.4710  2.1750
  606TIP3   OH2 1823   0.849   4.055   3.787  0.6509 -0.1381 -0.2138
  606TIP3    H1 1824   0.876   4.146   3.803 -2.1510  0.6015  0.8608
  606TIP3    H2 1825   0.831   4.020   3.875  0.7731 -1.4591 -0.6887
  607TIP3   OH2 1826   0.600   5.911   2.990  0.1513 -0.2547  0.3304
  607TIP3    H1 1827   0.670   5.971   3.013  0.5308 -1.2700  1.9648
  607TIP3    H2 1828   0.643   5.825   2.986 -0.4175 -0.5134 -1.7364
  608TIP3   OH2 1829   4.267   3.937   4.645  0.3866  0.3993 -0.3819
  608TIP3    H1 1830   4.259   3.965   4.554  0.5903 -0.2103 -0.5960
  608TIP3    H2 1831   4.330   3.997   4.683  2.5418 -1.0622 -1.4225
  609TIP3   OH2 1832   2.111   5.583   0.021 -0.0592  0.1614  0.3860
  609TIP3    H1 1833   2.146   5.655   0.074 -1.1232  0.9533  0.0529
  609TIP3    H2 1834   2.153   5.504   0.056  3.3608  1.1505 -1.0598
  610TIP3   OH2 1835   1.708   0.472   4.540  0.3638 -0.0062 -0.2103
  610TIP3    H1 1836   1.620   0.434   4.550  0.7909 -1.4514 -1.5070
  610TIP3    H2 1837   1.697   0.564   4.565 -1.1423 -0.5242  1.2519
  611TIP3   OH2 1838   2.969   0.342   1.517  0.0432  0.0544  0.4272
  611TIP3    H1 1839   2.918   0.422   1.506  1.3431  0.9316  0.5606
  611TIP3    H2 1840   2.986   0.336   1.611  3.0586  1.6979  0.1080
  612TIP3   OH2 1841   6.039   5.161   2.890  0.1162  0.1938  0.4229
  612TIP3    H1 1842   5.975   5.196   2.952 -0.3815  0.2128 -0.0855
  612TIP3    H2 1843   6.114   5.219   2.897 -0.0986  0.4423  0.7073
  613TIP3   OH2 1844   3.084   3.534   2.599 -0.3118 -0.0819  0.5765
  613TIP3    H1 1845   3.094   3.445   2.567  0.8631  0.2781 -0.1425
  613TIP3    H2 1846   2.993   3.556   2.582  0.2897  0.2289 -3.1098
  614TIP3   OH2 1847   3.323   3.316   0.191 -0.6068 -0.0495 -0.0152
  614TIP3    H1 1848   3.259   3.253   0.159 -0.8910 -0.3775  1.1342
  614TIP3    H2 1849   3.386   3.263   0.240 -0.7105  0.5218  0.7545
  615TIP3   OH2 1850   0.960   3.538   0.031 -0.0663  0.1585 -0.2550
  615TIP3    H1 1851   0.886   3.477   0.032  1.0343 -1.2628 -0.9505
  615TIP3    H2 1852   0.942   3.599   0.102 -1.5478 -0.5950  0.0498
  616TIP3   OH2 1853   4.714   1.822   5.069 -0.1065  0.4247  1.1875
  616TIP3    H1 1854   4.642   1.820   5.132 -0.8137 -1.0564  0.3770
  616TIP3    H2 1855   4.749   1.733   5.069  0.6275  0.6970  0.3312
  617TIP3   OH2 1856   5.826   0.044   4.987 -0.3239 -0.7914  0.0684
  617TIP3    H1 1857   5.819   0.103   4.912 -0.3184 -0.5336  0.2693
  617TIP3    H2 1858   5.746  -0.008   4.985 -0.0510 -1.2055 -0.4674
  618TIP3   OH2 1859   1.419   3.768   2.585  0.2297 -0.1372 -0.0823
  618TIP3    H1 1860   1.408   3.842   2.646 -0.8733 -0.4529  0.1222
  618TIP3    H2 1861   1.441   3.694   2.641  0.1420 -0.2279 -0.1691
  619TIP3   OH2 1862   1.431   4.013   1.281 -0.7302  0.2194  0.4028
  619TIP3    H1 1863   1.436   3.957   1.204 -1.4021  0.0637  0.4616
  619TIP3    H2 1864   1.397   3.955   1.350 -0.1489  0.3592  0.8147
  620TIP3   OH2 1865   1.752   2.864   4.498 -0.2445  0.5841  0.4556
  620TIP3    H1 1866   1.703   2.936   4.459 -1.8015 -0.2097  0.8413
  620TIP3    H2 1867   1.696   2.787   4.484  0.5479 -0.2330  1.5825
  621TIP3   OH2 1868   5.187   4.118   4.249 -0.6189 -0.1591  1.0306
  621TIP3    H1 1869   5.135   4.157   4.179 -0.9607  0.7567  1.7745
  621TIP3    H2 1870   5.258   4.072   4.204 -2.1920 -1.6747 -0.0320
  622TIP3   OH2 1871   5.518   3.616   4.521 -0.2069  0.2501  0.0022
  622TIP3    H1 1872   5.500   3.671   4.597  0.0494 -1.0556  1.0410
  622TIP3    H2 1873   5.454   3.546   4.526 -0.5558  0.4474 -1.3255
  623TIP3   OH2 1874   4.659   5.552   4.511  0.1239 -0.3572  0.1038
  623TIP3    H1 1875   4.720   5.619   4.481 -0.7114  0.5262  0.3091
  623TIP3    H2 1876   4.573   5.587   4.490 -0.4522 -0.2320  2.3770
  624TIP3   OH2 1877   1.100   5.232   3.253  0.6881 -0.2305  0.3369
  624TIP3    H1 1878   1.092   5.325   3.273  0.0528 -0.4874  1.3526
  624TIP3    H2 1879   1.066   5.188   3.331 -2.2949 -1.3224 -1.4312
  625TIP3   OH2 1880   2.826   0.253   3.883 -0.2463 -0.0093  0.0947
  625TIP3    H1 1881   2.868   0.190   3.825 -2.1845  0.3184 -1.7651
  625TIP3    H2 1882   2.875   0.245   3.966  0.1847 -3.2593 -0.3328
  626TIP3   OH2 1883   3.684   1.652   3.212  0.2309  0.8536  0.4820
  626TIP3    H1 1884   3.597   1.613   3.212  0.2055  0.8254 -1.5211
  626TIP3    H2 1885   3.728   1.611   3.286 -0.6390 -1.0775 -0.0035
  627TIP3   OH2 1886   3.448   2.383   4.421  0.3532 -0.2624  0.3497
  627TIP3    H1 1887   3.379   2.319   4.403  0.3274 -0.4389  1.0525
  627TIP3    H2 1888   3.516   2.364   4.356 -0.1720 -0.2128 -0.2242
  628TIP3   OH2 1889   6.307   1.745   3.856  0.1619  0.0757  0.2966
  628TIP3    H1 1890   6.271   1.742   3.945 -0.0704  0.7331  0.2357
  628TIP3    H2 1891   6.394   1.706   3.863 -0.3427 -1.0186  0.5648
  629TIP3   OH2 1892   4.076   2.108   2.574  0.2054  0.4316 -0.5681
  629TIP3    H1 1893   4.047   2.028   2.618 -1.3702  0.8749 -0.7236
  629TIP3    H2 1894   4.171   2.107   2.580  0.1436 -0.9058  0.3843
  630TIP3   OH2 1895   0.243   5.341   0.307  0.3575 -0.3654  0.3554
  630TIP3    H1 1896   0.257   5.384   0.222  0.1881 -0.3202  0.3499
  630TIP3    H2 1897   0.196   5.405   0.359 -0.2952 -0.6983  0.1962
  631TIP3   OH2 1898   5.037   2.842   4.614 -0.2861 -0.1035 -0.4567
  631TIP3    H1 1899   5.030   2.818   4.522 -0.4020  1.1193 -0.7849
  631TIP3    H2 1900   5.124   2.812   4.640  0.0627  0.2322 -1.1932
  632TIP3   OH2 1901   2.548   2.726   1.815  0.0196 -0.1791  0.1926
  632TIP3    H1 1902   2.482   2.693   1.876  0.3500 -0.7410  0.2536
  632TIP3    H2 1903   2.623   2.749   1.870  0.5873 -1.3576 -0.0432
  633TIP3   OH2 1904   4.959   4.015   0.740  0.0249  0.6516 -0.0704
  633TIP3    H1 1905   5.009   4.081   0.787 -0.2908  0.4038  0.6281
  633TIP3    H2 1906   4.945   3.945   0.804  0.4260 -0.1344 -0.8170
  634TIP3   OH2 1907   0.526   0.607   1.502 -0.2630  0.7812  0.1637
  634TIP3    H1 1908   0.471   0.576   1.429 -0.8170 -0.4576  1.0775
  634TIP3    H2 1909   0.478   0.580   1.580  0.8931  1.0796  0.9842
  635TIP3   OH2 1910   0.466   3.262   5.072 -0.3063 -0.2778 -0.5082
  635TIP3    H1 1911   0.490   3.177   5.035 -1.7358 -1.5112  1.2849
  635TIP3    H2 1912   0.494   3.258   5.163 -0.3296  1.2288 -0.4050
  636TIP3   OH2 1913   0.845   1.320   2.794  0.2543 -0.1581  0.0173
  636TIP3    H1 1914   0.899   1.341   2.717 -1.0967  0.6279 -0.7526
  636TIP3    H2 1915   0.863   1.391   2.856 -0.4573  0.5459 -0.5561
  637TIP3   OH2 1916   3.570   3.235   0.845  0.0662 -0.1506  0.1447
  637TIP3    H1 1917   3.505   3.227   0.915  0.2254  1.3356  0.4938
  637TIP3    H2 1918   3.649   3.265   0.890 -0.2752  2.4928 -0.8196
  638TIP3   OH2 1919   5.736   1.778   1.671  0.2095 -0.0982  0.2675
  638TIP3    H1 1920   5.779   1.709   1.722  0.3240 -0.6390 -0.5370
  638TIP3    H2 1921   5.808   1.832   1.639  0.3037 -0.8883 -0.9147
  639TIP3   OH2 1922   4.131   0.667   5.063 -0.1250  0.3460  0.2052
  639TIP3    H1 1923   4.206   0.656   5.122 -0.2174 -1.1136  0.0713
  639TIP3    H2 1924   4.070   0.723   5.112 -0.1933 -0.8101  1.5104
  640TIP3   OH2 1925   5.070   4.226   4.682 -0.4452 -0.0654 -0.0290
  640TIP3    H1 1926   5.108   4.148   4.722  0.1353 -0.1287 -0.6933
  640TIP3    H2 1927   5.000   4.192   4.625 -0.7338 -0.0346  0.3026
  641TIP3   OH2 1928   3.653   0.097   2.155  0.0672  0.4750  0.3941
  641TIP3    H1 1929   3.725   0.037   2.170  0.1660  0.5454  0.2003
  641TIP3    H2 1930   3.654   0.113   2.061 -1.6818 -1.4020 -0.0216
  642TIP3   OH2 1931   4.622   2.369   0.938  0.0566 -0.3409  0.4430
  642TIP3    H1 1932   4.697   2.324   0.899  0.3381 -0.7300  1.4079
  642TIP3    H2 1933   4.548   2.309   0.923 -0.2110  0.3036 -1.0284
  643TIP3   OH2 1934   5.687   2.690   1.394  1.1600  0.0001  0.5801
  643TIP3    H1 1935   5.680   2.778   1.356 -1.7871 -0.2104  0.4141
  643TIP3    H2 1936   5.747   2.644   1.335 -0.1999  0.8368 -1.6013
  644TIP3   OH2 1937   0.335   0.232   3.386  0.0812 -0.1928 -0.2112
  644TIP3    H1 1938   0.262   0.219   3.447 -0.2496  1.3239 -0.2455
  644TIP3    H2 1939   0.350   0.326   3.388  0.2383 -0.1467 -2.2896
  645TIP3   OH2 1940   0.627   1.932   1.649 -0.8184  0.3351  0.3354
  645TIP3    H1 1941   0.664   1.959   1.733 -2.1552  0.1742  0.9924
  645TIP3    H2 1942   0.701   1.935   1.589 -0.0365  1.3482  1.3094
  646TIP3   OH2 1943   2.871   5.172   2.119  0.5866 -0.3549 -0.8201
  646TIP3    H1 1944   2.909   5.085   2.132  1.7991  0.3643  0.8065
  646TIP3    H2 1945   2.810   5.182   2.191 -0.2838 -0.2087 -1.5608
  647TIP3   OH2 1946   5.893   1.987   3.240  0.2161  0.1274 -0.8090
  647TIP3    H1 1947   5.924   1.905   3.279 -0.3064  0.2373 -0.1479
  647TIP3    H2 1948   5.940   2.055   3.288 -0.8374  0.2871  0.0361
  648TIP3   OH2 1949   4.114   5.061   3.536  0.3209 -0.5322  0.0085
  648TIP3    H1 1950   4.176   4.993   3.560 -1.2068 -1.4404  1.7357
  648TIP3    H2 1951   4.141   5.090   3.449  2.6094 -1.4426  0.3438
  649TIP3   OH2 1952   0.158   3.873   2.121  0.2474  0.4275  0.3924
  649TIP3    H1 1953   0.226   3.882   2.055  0.8438  1.3617  1.0970
  649TIP3    H2 1954   0.114   3.790   2.101  0.8130  0.4042 -0.7842
  650TIP3   OH2 1955   3.999   5.726   2.110  0.1946 -0.3417  0.5299
  650TIP3    H1 1956   4.085   5.685   2.121  0.1233 -0.7235 -0.2373
  650TIP3    H2 1957   4.017   5.804   2.056  0.0235 -0.6046  0.0844
  651TIP3   OH2 1958   4.035   5.097   2.038 -0.0039 -0.0281  0.1005
  651TIP3    H1 1959   4.021   5.188   2.064  1.4094  0.3612 -0.4566
  651TIP3    H2 1960   3.950   5.055   2.055 -0.9693  1.5760 -0.4861
  652TIP3   OH2 1961   1.700   3.776   4.485 -0.0198  0.1404  0.2682
  652TIP3    H1 1962   1.793   3.776   4.509 -0.2630  0.8936  1.3109
  652TIP3    H2 1963   1.691   3.851   4.427 -0.0640  0.4047  0.6085
  653TIP3   OH2 1964   3.431   2.648   2.137 -0.5221 -0.1132 -0.5880
  653TIP3    H1 1965   3.402   2.722   2.084  2.4532  1.8251  0.2700
  653TIP3    H2 1966   3.352   2.596   2.151 -2.4664  2.1641 -2.3416
  654TIP3   OH2 1967   3.556   4.136   0.724 -0.5490 -0.2147 -0.3046
  654TIP3    H1 1968   3.485   4.166   0.781  1.4172 -0.1743  2.2984
  654TIP3    H2 1969   3.566   4.205   0.660 -0.4371  1.6211  1.5875
  655TIP3   OH2 1970   1.459   4.008   4.164 -0.1635 -0.4893  0.2653
  655TIP3    H1 1971   1.458   4.100   4.136  3.4114 -0.2965  0.2599
  655TIP3    H2 1972   1.425   4.010   4.253 -2.5666  0.3706 -0.5983
  656TIP3   OH2 1973   1.789   1.995   3.277 -0.1209  0.2951  0.6576
  656TIP3    H1 1974   1.770   1.920   3.333  0.7038  0.3791  1.0502
  656TIP3    H2 1975   1.739   1.978   3.197  0.8770 -1.1940  0.3253
  657TIP3   OH2 1976   5.826   3.662   5.108  0.7418 -0.1959  0.2499
  657TIP3    H1 1977   5.897   3.713   5.147  0.0770  0.4052  0.7236
  657TIP3    H2 1978   5.747   3.693   5.154  0.1651 -0.7760 -0.3263
  658TIP3   OH2 1979   5.554   2.870   1.951 -0.4582  0.4087 -0.2707
  658TIP3    H1 1980   5.591   2.918   2.025  1.8487 -1.2695 -0.2011
  658TIP3    H2 1981   5.535   2.937   1.885  1.3804  1.5693  0.3090
  659TIP3   OH2 1982   3.430   3.562   4.312  0.0182  0.0799 -0.9275
  659TIP3    H1 1983   3.340   3.552   4.343  0.2441 -0.0387 -0.3060
  659TIP3    H2 1984   3.479   3.594   4.388  1.3510 -3.7542  0.0500
  660TIP3   OH2 1985   5.315   1.267   4.907  0.6973 -0.4053  0.0889
  660TIP3    H1 1986   5.220   1.276   4.911  0.7109  0.0632 -0.4780
  660TIP3    H2 1987   5.331   1.174   4.923  0.0200 -0.8481 -1.5919
  661TIP3   OH2 1988   5.956   5.524   2.027 -0.2169  0.1780 -0.0610
  661TIP3    H1 1989   5.920   5.480   1.950  1.5984 -1.6316  0.0378
  661TIP3    H2 1990   6.044   5.552   1.999  1.0813 -1.8316  1.7004
  662TIP3   OH2 1991   3.764   4.350   3.479  0.1052 -0.4457 -0.1316
  662TIP3    H1 1992   3.770   4.412   3.406 -0.0526 -0.7777 -0.4343
  662TIP3    H2 1993   3.772   4.264   3.437  1.5119 -0.6041  0.4068
  663TIP3   OH2 1994   4.032   2.794   3.665 -0.5159  0.4194  0.0992
  663TIP3    H1 1995   3.969   2.796   3.593 -1.1051  1.4044  0.6261
  663TIP3    H2 1996   3.980   2.805   3.744  0.4607  4.2444  0.4188
  664TIP3   OH2 1997   4.230   5.197   4.933  0.4356  0.6241  0.1435
  664TIP3    H1 1998   4.150   5.206   4.881  0.2081 -1.1163  0.1389
  664TIP3    H2 1999   4.213   5.248   5.012 -0.6505  0.3357  0.1100
  665TIP3   OH2 2000   2.476   2.212   0.141 -0.6116  0.3282 -0.0273
  665TIP3    H1 2001   2.412   2.275   0.108 -1.6993 -0.7784 -0.0855
  665TIP3    H2 2002   2.458   2.131   0.093 -0.4186 -0.5375  1.3083
  666TIP3   OH2 2003   4.761   0.083   3.928  0.3129 -0.7405 -0.5362
  666TIP3    H1 2004   4.665   0.075   3.925  0.1291  0.3018  1.4861
  666TIP3    H2 2005   4.785   0.059   4.017  1.8590  0.0318 -0.7138
  667TIP3   OH2 2006   3.208   3.422   4.800 -0.4929 -0.1641  0.7968
  667TIP3    H1 2007   3.207   3.342   4.853 -1.0439 -0.0071  1.0272
  667TIP3    H2 2008   3.116   3.438   4.779 -0.3642  0.2977  0.5721
  668TIP3   OH2 2009   5.932   0.002   3.346 -0.1085 -0.3051  0.1348
  668TIP3    H1 2010   5.995   0.061   3.388 -0.7471 -0.7383  1.7976
  668TIP3    H2 2011   5.937   0.024   3.253  1.8625  0.2496  0.3268
  669TIP3   OH2 2012   0.018   5.137   4.611  0.8274  0.4582 -0.0984
  669TIP3    H1 2013   0.093   5.080   4.629  0.2476 -0.3349 -0.1311
  669TIP3    H2 2014  -0.032   5.090   4.544  0.4298  1.0938 -0.2539
  670TIP3   OH2 2015   1.663   2.768   1.523 -0.7942  0.0391  0.1746
  670TIP3    H1 2016   1.572   2.785   1.498 -0.8759 -0.7072 -0.0628
  670TIP3    H2 2017   1.657   2.704   1.593 -0.4509 -0.0960  0.0801
  671TIP3   OH2 2018   4.946   5.205   4.461 -0.0184 -0.5117 -0.2341
  671TIP3    H1 2019   4.923   5.120   4.498 -3.7531  1.4557  2.7219
  671TIP3    H2 2020   5.022   5.234   4.512 -0.1576 -1.1333  0.3321
  672TIP3   OH2 2021   5.227   2.546   2.964  0.0332  0.4354 -0.6765
  672TIP3    H1 2022   5.250   2.635   2.938 -0.0107  0.3995 -0.8406
  672TIP3    H2 2023   5.174   2.513   2.891  1.2699 -0.2368 -1.3191
  673TIP3   OH2 2024   4.676   0.906   3.943 -0.3077  0.3161 -0.2710
  673TIP3    H1 2025   4.631   0.886   3.861  1.2616  0.8230 -1.3079
  673TIP3    H2 2026   4.669   1.001   3.952  0.2048  0.3608 -0.2668
  674TIP3   OH2 2027   1.951   3.160   0.666  0.0502  0.0025 -0.1835
  674TIP3    H1 2028   1.949   3.211   0.584  1.3253 -0.5336 -0.5831
  674TIP3    H2 2029   1.998   3.217   0.728 -0.7205  0.3167  0.1224
  675TIP3   OH2 2030   6.087   2.516   4.215  0.1391  0.3972 -0.6281
  675TIP3    H1 2031   6.173   2.475   4.213 -0.5024 -0.9814 -0.9026
  675TIP3    H2 2032   6.066   2.523   4.308 -0.2957 -1.1630 -0.5772
  676TIP3   OH2 2033   5.811   5.456   3.814 -0.2684  0.4533  0.3408
  676TIP3    H1 2034   5.896   5.484   3.849  0.4788 -1.0906 -0.1038
  676TIP3    H2 2035   5.757   5.439   3.891  0.2100  0.3920  0.6680
  677TIP3   OH2 2036   1.321   5.703   1.439 -0.1253 -0.0139  0.0232
  677TIP3    H1 2037   1.348   5.735   1.353 -1.3242  2.1116  0.3704
  677TIP3    H2 2038   1.237   5.659   1.424 -0.3191  0.3295  0.0927
  678TIP3   OH2 2039   6.013   4.135   2.795 -0.0547  0.8633 -0.0338
  678TIP3    H1 2040   5.977   4.047   2.795  0.5115  0.5900 -1.7913
  678TIP3    H2 2041   5.936   4.192   2.802 -0.4162  0.2511  1.2015
  679TIP3   OH2 2042   2.534   1.511   2.044  0.1748 -0.5583  0.7578
  679TIP3    H1 2043   2.600   1.478   1.983 -1.1531 -1.3111 -0.3339
  679TIP3    H2 2044   2.487   1.579   1.995  1.6052  1.6974  2.3250
  680TIP3   OH2 2045   1.622   2.821   3.755 -0.1081 -0.2858 -0.1603
  680TIP3    H1 2046   1.608   2.916   3.761 -0.7147 -0.3809  0.0117
  680TIP3    H2 2047   1.689   2.811   3.688  0.9021  0.3351  0.7289
  681TIP3   OH2 2048   2.863   2.206   1.238 -0.3383 -0.5053  0.3747
  681TIP3    H1 2049   2.786   2.198   1.293 -0.9290  0.2462 -0.3149
  681TIP3    H2 2050   2.885   2.299   1.240  0.8363 -0.7625  0.9151
  682TIP3   OH2 2051   3.605   5.518   5.103 -0.2896  0.0390  0.3285
  682TIP3    H1 2052   3.667   5.462   5.056 -0.1866 -0.0198  0.5342
  682TIP3    H2 2053   3.626   5.607   5.075  1.8396  0.3446  2.5791
  683TIP3   OH2 2054   0.255   4.612   4.641 -0.0616 -0.2108 -0.1322
  683TIP3    H1 2055   0.168   4.591   4.608  0.7228 -0.6839 -1.9934
  683TIP3    H2 2056   0.255   4.579   4.731 -1.1529 -1.9686 -0.7358
  684TIP3   OH2 2057   2.980   1.584   3.481  0.0071 -0.1388  0.0090
  684TIP3    H1 2058   3.050   1.649   3.473  0.1665 -0.2721  0.2900
  684TIP3    H2 2059   2.959   1.560   3.391  0.5201 -0.2980 -0.0752
  685TIP3   OH2 2060   5.122   1.114   1.657 -0.2446  0.1204 -0.1084
  685TIP3    H1 2061   5.197   1.157   1.699  0.5680 -0.5223 -0.8604
  685TIP3    H2 2062   5.159   1.035   1.616 -1.4615 -0.5973  0.1144
  686TIP3   OH2 2063   4.024   3.771   1.462 -0.1972  0.0222 -0.0709
  686TIP3    H1 2064   3.931   3.787   1.452 -0.0092  1.0581 -0.3139
  686TIP3    H2 2065   4.033   3.726   1.546 -0.9914 -0.8859 -0.4670
  687TIP3   OH2 2066   3.843   3.355   3.184 -0.6057  0.0983 -0.0041
  687TIP3    H1 2067   3.934   3.364   3.212 -0.2549 -2.9632  0.1768
  687TIP3    H2 2068   3.792   3.361   3.264 -0.3468 -0.3692  0.1995
  688TIP3   OH2 2069   4.796   2.790   1.286  0.0848  0.1764  0.1886
  688TIP3    H1 2070   4.794   2.878   1.250 -0.2288 -0.2716 -0.9213
  688TIP3    H2 2071   4.869   2.747   1.241 -0.1173 -0.3012  0.3068
  689TIP3   OH2 2072   3.191   4.263   2.691 -0.7961  0.0164 -0.0817
  689TIP3    H1 2073   3.185   4.174   2.658 -1.2928  0.2579 -0.6430
  689TIP3    H2 2074   3.186   4.253   2.786 -0.3114 -0.5913 -0.1099
  690TIP3   OH2 2075   4.584   0.246   1.969 -0.0680 -0.2406 -0.0725
  690TIP3    H1 2076   4.529   0.312   1.926  1.0626  0.3721 -0.6040
  690TIP3    H2 2077   4.523   0.199   2.026 -0.7210  2.0425  1.2782
  691TIP3   OH2 2078   0.200   1.630   3.927 -0.2736  0.5471 -0.0217
  691TIP3    H1 2079   0.269   1.691   3.899 -0.5678  1.3021  0.8399
  691TIP3    H2 2080   0.232   1.595   4.011  0.0378 -0.7536 -0.6492
  692TIP3   OH2 2081   2.426   4.878   2.604 -0.1072  0.3611  0.1101
  692TIP3    H1 2082   2.397   4.969   2.605  0.0917  0.4304 -0.1493
  692TIP3    H2 2083   2.472   4.866   2.687  1.3062  0.9903 -0.5390
  693TIP3   OH2 2084   1.271   2.542   4.774 -0.5966  0.0248 -0.1100
  693TIP3    H1 2085   1.192   2.515   4.821 -0.3956 -0.2040  0.0986
  693TIP3    H2 2086   1.253   2.633   4.750  0.2163  0.9791  2.5031
  694TIP3   OH2 2087   5.217   1.283   3.320  0.0725  0.1586  0.3137
  694TIP3    H1 2088   5.274   1.265   3.395 -0.1210 -1.6050  0.0905
  694TIP3    H2 2089   5.131   1.299   3.358  0.4919  1.9698  0.5963
  695TIP3   OH2 2090   5.607   1.954   4.650 -0.0378 -0.2317  0.2190
  695TIP3    H1 2091   5.654   1.883   4.694 -3.7928 -2.2646  1.4367
  695TIP3    H2 2092   5.574   2.009   4.721 -3.1906 -1.5188 -0.0966
  696TIP3   OH2 2093   2.905   1.089   3.406  0.1547 -0.0586  0.8605
  696TIP3    H1 2094   2.912   1.005   3.361  0.7598  1.1767 -1.5214
  696TIP3    H2 2095   2.963   1.147   3.357 -2.4496  2.5023  0.5390
  697TIP3   OH2 2096   3.316   1.517   2.111 -0.6584  0.0660 -0.3077
  697TIP3    H1 2097   3.317   1.553   2.023 -1.1157 -1.9830 -1.2078
  697TIP3    H2 2098   3.358   1.584   2.165 -0.3911  1.3754 -2.0582
  698TIP3   OH2 2099   0.250   4.307   3.830 -0.3539  0.2092 -0.3964
  698TIP3    H1 2100   0.222   4.249   3.759 -1.3609  0.2174 -0.0201
  698TIP3    H2 2101   0.313   4.366   3.789  0.3000 -0.8129 -0.9043
  699TIP3   OH2 2102   4.115   1.008   3.841  0.4101  0.4950  0.3250
  699TIP3    H1 2103   4.169   0.930   3.849  0.0372  0.1653 -0.3196
  699TIP3    H2 2104   4.034   0.977   3.802  0.1696  1.1682  0.2803
  700TIP3   OH2 2105   2.633   5.528   4.267  0.3867 -0.1359  0.3664
  700TIP3    H1 2106   2.655   5.582   4.191  0.6895  0.4773  0.8729
  700TIP3    H2 2107   2.696   5.457   4.266 -0.6466 -1.0867 -0.8899
  701TIP3   OH2 2108   1.099   3.994   3.521  0.5743  0.2792 -0.5298
  701TIP3    H1 2109   1.026   4.029   3.470  0.3145 -3.1586 -2.8299
  701TIP3    H2 2110   1.066   3.988   3.610 -1.2239  0.6690 -1.1329
  702TIP3   OH2 2111   2.147   2.170   0.919 -0.7104 -0.0259  0.2595
  702TIP3    H1 2112   2.135   2.080   0.887 -2.9587  0.5847 -0.7402
  702TIP3    H2 2113   2.171   2.159   1.011  1.5332 -1.6858 -0.4324
  703TIP3   OH2 2114   1.799   4.662   2.501 -0.3601 -0.4606  0.2836
  703TIP3    H1 2115   1.788   4.740   2.448 -0.8124  0.1589  1.2617
  703TIP3    H2 2116   1.891   4.662   2.525 -0.3691 -0.2028  0.3202
  704TIP3   OH2 2117   4.533   5.212   1.320  0.6620  0.2228  0.6693
  704TIP3    H1 2118   4.496   5.223   1.407 -0.8067  0.1892  0.0861
  704TIP3    H2 2119   4.542   5.117   1.310  0.6053  0.2154  0.6902
  705TIP3   OH2 2120   6.189   4.635   3.557 -0.2993 -0.0224 -0.0716
  705TIP3    H1 2121   6.160   4.654   3.467 -1.0776  3.3711  0.7667
  705TIP3    H2 2122   6.278   4.670   3.562 -0.9666  1.6325  0.9558
  706TIP3   OH2 2123   1.636   5.631   0.329  0.2476 -0.3083 -0.2551
  706TIP3    H1 2124   1.658   5.637   0.236  0.3697 -2.4659 -0.4316
  706TIP3    H2 2125   1.715   5.595   0.370  1.1082  2.8644  1.1827
  707TIP3   OH2 2126   4.784   5.210   0.786 -0.4329  0.1298 -0.0448
  707TIP3    H1 2127   4.744   5.153   0.721  2.1037 -0.7407 -0.9524
  707TIP3    H2 2128   4.866   5.167   0.808  1.0241  2.8219  0.1441
  708TIP3   OH2 2129   3.186   2.561   1.179 -0.1660  0.1783  0.0601
  708TIP3    H1 2130   3.270   2.516   1.181  0.9375  2.1447  2.0186
  708TIP3    H2 2131   3.141   2.533   1.258 -1.8455 -1.5591 -1.4097
  709TIP3   OH2 2132   0.219   0.863   3.456 -0.4618 -0.4677 -0.0088
  709TIP3    H1 2133   0.299   0.835   3.501  0.4481  0.2005 -1.1594
  709TIP3    H2 2134   0.219   0.958   3.463 -1.4544 -0.4956  0.4528
  710TIP3   OH2 2135   5.439   1.406   0.000 -0.5781  0.3759 -0.7495
  710TIP3    H1 2136   5.409   1.464   0.070  2.2442  0.2973  0.6730
  710TIP3    H2 2137   5.455   1.322   0.043  1.2644  0.3334 -1.4295
  711TIP3   OH2 2138   2.003   2.816   3.834 -0.4756  0.7565 -0.0872
  711TIP3    H1 2139   2.084   2.783   3.794 -1.6267 -2.2435 -0.1635
  711TIP3    H2 2140   1.983   2.752   3.903 -2.5625  1.6775  0.2192
  712TIP3   OH2 2141   4.196   2.787   4.566  0.7089 -0.2396 -0.3275
  712TIP3    H1 2142   4.237   2.788   4.652  1.0760 -0.0786 -0.5038
  712TIP3    H2 2143   4.164   2.877   4.555 -2.9627 -1.1284  1.3579
  713TIP3   OH2 2144   2.775   2.429   1.723  0.1402  0.3680  0.3977
  713TIP3    H1 2145   2.682   2.408   1.720  0.3937 -0.7829 -2.5987
  713TIP3    H2 2146   2.816   2.350   1.758  0.1477  0.1543 -0.0928
  714TIP3   OH2 2147   3.032   4.323   0.967 -0.5768  0.0782 -0.2790
  714TIP3    H1 2148   3.067   4.358   1.049  1.0972 -3.4877  0.7128
  714TIP3    H2 2149   3.108   4.306   0.913 -1.1233 -2.6859 -0.3141
  715TIP3   OH2 2150   4.573   4.920   1.659  0.3390 -0.9333  0.3118
  715TIP3    H1 2151   4.559   4.885   1.572 -0.7252  0.4893 -0.1342
  715TIP3    H2 2152   4.512   4.872   1.715 -0.1633 -0.7161 -0.0424
  716TIP3   OH2 2153   2.393   1.068   3.531  0.1992  0.1977  0.1756
  716TIP3    H1 2154   2.434   0.982   3.539  1.3755  0.8092  0.9700
  716TIP3    H2 2155   2.428   1.104   3.450 -0.6363 -0.2316 -0.3901
  717TIP3   OH2 2156   5.239   4.080   2.579 -0.0193  0.1683  0.1671
  717TIP3    H1 2157   5.188   4.024   2.637  1.8626 -0.9574  0.7866
  717TIP3    H2 2158   5.322   4.093   2.624  1.3011 -0.2942 -2.0117
  718TIP3   OH2 2159   3.294   0.333   3.414  0.2141 -0.3386  0.4805
  718TIP3    H1 2160   3.243   0.326   3.333 -0.4632  1.2704  0.7433
  718TIP3    H2 2161   3.316   0.425   3.421  2.3905 -0.8375  0.8899
  719TIP3   OH2 2162   2.909   1.040   1.271 -0.2150  0.1000 -0.5086
  719TIP3    H1 2163   2.930   1.133   1.267 -2.0260  0.6587  1.3653
  719TIP3    H2 2164   2.845   1.026   1.201  0.0544  0.2621 -0.7874
  720TIP3   OH2 2165   1.504   1.947   2.874 -0.1079  0.0230  0.6610
  720TIP3    H1 2166   1.509   2.041   2.891  0.8625  0.4477 -1.6755
  720TIP3    H2 2167   1.423   1.937   2.824  0.0587 -0.3093  0.4598
  721TIP3   OH2 2168   0.543   5.883   5.142  0.1262  0.3497 -0.5334
  721TIP3    H1 2169   0.458   5.924   5.124  0.9076  1.2003 -2.6294
  721TIP3    H2 2170   0.535   5.794   5.108  0.0298  0.3669 -0.5546
  722TIP3   OH2 2171   1.191  -0.024   1.565 -0.1208 -0.4548 -0.5278
  722TIP3    H1 2172   1.153   0.030   1.633  1.1536 -1.3170  0.9385
  722TIP3    H2 2173   1.209   0.036   1.493 -0.3718  0.7261  0.3727
  723TIP3   OH2 2174   1.215   2.407   2.314  0.2786  0.8198  0.1278
  723TIP3    H1 2175   1.256   2.410   2.400 -0.1883 -0.0901  0.3938
  723TIP3    H2 2176   1.269   2.465   2.260  1.6485  0.0310  0.5892
  724TIP3   OH2 2177   4.140   0.291   0.650  0.1593  0.3530  0.0285
  724TIP3    H1 2178   4.182   0.377   0.658  2.0500 -0.6347  1.6721
  724TIP3    H2 2179   4.076   0.289   0.721  0.7672  0.0902  0.5814
  725TIP3   OH2 2180   1.122   3.036   1.141 -0.1155 -0.0681  0.0413
  725TIP3    H1 2181   1.106   3.021   1.048  0.4689  1.9239 -0.4089
  725TIP3    H2 2182   1.135   2.948   1.177  1.6103 -0.7806 -2.1039
  726TIP3   OH2 2183   4.358   1.612   0.866 -0.1463 -0.7759  0.0015
  726TIP3    H1 2184   4.413   1.662   0.926 -0.9276 -0.8242  0.7847
  726TIP3    H2 2185   4.398   1.625   0.780  0.6232 -0.1753  0.4362
  727TIP3   OH2 2186   5.064   1.751   3.485 -0.0489 -0.3206 -0.0555
  727TIP3    H1 2187   5.119   1.680   3.519  0.8925  0.2419 -0.3370
  727TIP3    H2 2188   5.012   1.711   3.416  0.2535 -0.8099 -0.0078
  728TIP3   OH2 2189   3.951   0.799   4.605  0.1104 -0.0666  0.4645
  728TIP3    H1 2190   3.974   0.885   4.572 -0.3467  0.2190  0.8814
  728TIP3    H2 2191   3.970   0.803   4.699 -1.7861  0.2556  0.8730
  729TIP3   OH2 2192   5.043   5.580   1.434 -0.0692 -0.4646 -0.0470
  729TIP3    H1 2193   5.053   5.671   1.462 -0.1333 -0.2173 -0.8045
  729TIP3    H2 2194   5.056   5.528   1.514  1.6221  0.1239  0.0930
  730TIP3   OH2 2195   4.063   4.484   1.752 -0.7421  0.4643  0.5809
  730TIP3    H1 2196   4.022   4.398   1.739 -0.8799  0.7331 -0.8640
  730TIP3    H2 2197   4.157   4.467   1.747 -0.7807  0.4728 -0.2775
  731TIP3   OH2 2198   0.134   2.266   3.140  0.4969  0.1264 -0.2289
  731TIP3    H1 2199   0.202   2.202   3.163 -0.3185  0.0989  2.4278
  731TIP3    H2 2200   0.102   2.298   3.224  0.1997  3.3802 -1.4551
  732TIP3   OH2 2201   4.996   3.857   4.853  0.0188  0.6134 -0.6835
  732TIP3    H1 2202   5.084   3.888   4.832  0.4496 -0.5638 -0.6547
  732TIP3    H2 2203   4.966   3.814   4.773  0.3077 -0.8250 -0.0588
  733TIP3   OH2 2204   4.455   0.069   3.647 -0.0305 -0.2749  0.1145
  733TIP3    H1 2205   4.472   0.116   3.729  0.3635 -0.7054  0.2789
  733TIP3    H2 2206   4.486  -0.020   3.662  1.8356  0.1012 -1.1420
  734TIP3   OH2 2207   4.119   2.767   0.172  0.2255 -0.5306  1.0161
  734TIP3    H1 2208   4.141   2.854   0.204  0.5814 -0.8620  1.6755
  734TIP3    H2 2209   4.132   2.772   0.077 -1.0594  0.5171  0.8647
  735TIP3   OH2 2210   6.032   0.910   0.579  0.1110  0.7448  0.7256
  735TIP3    H1 2211   6.088   0.987   0.573  2.1458 -0.6404  1.1441
  735TIP3    H2 2212   6.056   0.869   0.661 -1.6386  0.1504  0.9779
  736TIP3   OH2 2213   0.736   4.959   3.605  0.0547 -0.0732 -0.4370
  736TIP3    H1 2214   0.800   5.007   3.657  0.0061  0.9934 -1.3256
  736TIP3    H2 2215   0.656   4.960   3.658  0.4646 -0.4994  0.2093
  737TIP3   OH2 2216   4.351   2.925   2.353  0.0023 -0.9553 -0.4374
  737TIP3    H1 2217   4.439   2.902   2.322  0.9483 -0.2631  1.5700
  737TIP3    H2 2218   4.347   2.890   2.442 -2.0045 -1.4719 -0.6947
  738TIP3   OH2 2219   4.523   1.559   0.225  0.2544  0.1046 -1.0216
  738TIP3    H1 2220   4.487   1.574   0.313  0.9676 -2.4292 -0.2022
  738TIP3    H2 2221   4.605   1.610   0.224  0.6600 -0.4874  0.1198
  739TIP3   OH2 2222   3.760   2.585   3.712 -1.0357 -0.7567 -0.1226
  739TIP3    H1 2223   3.673   2.620   3.731 -0.2674  1.0404  0.3131
  739TIP3    H2 2224   3.745   2.493   3.692 -2.7783 -1.0301  2.0975
  740TIP3   OH2 2225   3.611   5.091   0.446  0.3155  0.7390  0.4678
  740TIP3    H1 2226   3.671   5.160   0.474 -0.3644  0.9054  1.6025
  740TIP3    H2 2227   3.660   5.009   0.458  0.7099  0.9457  0.2645
  741TIP3   OH2 2228   5.613   1.536   4.542 -0.0489  0.3668  0.1915
  741TIP3    H1 2229   5.531   1.509   4.583 -0.4441  2.4121  0.8388
  741TIP3    H2 2230   5.587   1.603   4.479  1.0723  0.5731 -0.0727
  742TIP3   OH2 2231   5.123   4.401   0.448 -0.5577 -0.1694  0.1329
  742TIP3    H1 2232   5.168   4.328   0.491  0.4091  0.3294 -0.0041
  742TIP3    H2 2233   5.038   4.366   0.423 -0.3128 -1.0856  0.5629
  743TIP3   OH2 2234   5.327   4.161   2.111  0.6529 -0.1787  0.2829
  743TIP3    H1 2235   5.328   4.066   2.096  1.2829 -0.1534  0.1292
  743TIP3    H2 2236   5.373   4.197   2.035  0.1874  0.2699  0.2144
  744TIP3   OH2 2237   1.623   3.094   2.539  0.1624  0.6467  0.1771
  744TIP3    H1 2238   1.538   3.103   2.583  0.1685  0.6195  0.1943
  744TIP3    H2 2239   1.638   3.180   2.500 -0.6059  0.1967 -1.1793
  745TIP3   OH2 2240   0.186   2.685   4.551 -0.2037 -0.8607  0.7131
  745TIP3    H1 2241   0.279   2.665   4.543  0.2556  1.5512 -1.0965
  745TIP3    H2 2242   0.153   2.680   4.461 -1.4904 -0.2061  1.1192
  746TIP3   OH2 2243   3.809   2.902   4.254  0.1858 -0.3440 -0.0978
  746TIP3    H1 2244   3.757   2.923   4.332  0.7613 -1.8854  0.7596
  746TIP3    H2 2245   3.757   2.838   4.207  0.0641  0.2153 -0.7301
  747TIP3   OH2 2246   1.042   1.040   0.898  0.1392  0.2996 -0.4024
  747TIP3    H1 2247   1.007   1.050   0.986 -0.8340 -1.6571 -0.5035
  747TIP3    H2 2248   0.997   1.107   0.846  1.1425  1.8450  0.6422
  748TIP3   OH2 2249   5.251   3.475   4.767  0.1103  0.1371 -0.1984
  748TIP3    H1 2250   5.243   3.559   4.812  0.2192 -0.2483  0.5533
  748TIP3    H2 2251   5.187   3.418   4.810  1.3130 -0.6961  0.5502
  749TIP3   OH2 2252   5.423   4.790   2.839 -0.1480  0.1540  0.0713
  749TIP3    H1 2253   5.407   4.859   2.902 -0.0589 -1.3682  1.8351
  749TIP3    H2 2254   5.499   4.820   2.789 -1.1592  2.0698 -0.3911
  750TIP3   OH2 2255   1.730   4.256   1.908 -0.8106 -0.5532  0.5890
  750TIP3    H1 2256   1.763   4.271   1.820 -3.6259 -0.2225 -0.5342
  750TIP3    H2 2257   1.686   4.338   1.931  0.1794 -0.4929  2.5046
  751TIP3   OH2 2258   2.867   0.644   0.004 -0.1390 -0.2822 -0.1445
  751TIP3    H1 2259   2.828   0.557  -0.005 -0.7832 -0.2671  1.8338
  751TIP3    H2 2260   2.805   0.692   0.060  0.9186  0.9541  0.0159
  752TIP3   OH2 2261   5.225   3.484   0.087  0.1221  0.3504  0.0230
  752TIP3    H1 2262   5.255   3.432   0.161 -0.4133 -2.6626 -1.7208
  752TIP3    H2 2263   5.129   3.478   0.090  0.0925 -1.6554 -1.9858
  753TIP3   OH2 2264   5.522   2.086   2.701 -0.3720  0.5879 -0.4088
  753TIP3    H1 2265   5.493   2.168   2.741 -1.1272  0.5259 -0.8162
  753TIP3    H2 2266   5.589   2.052   2.761  0.6635  1.9816 -0.7341
  754TIP3   OH2 2267   4.083   2.377   0.654  0.2386 -0.2951 -0.3331
  754TIP3    H1 2268   4.023   2.449   0.673  1.9487  0.8760  1.0109
  754TIP3    H2 2269   4.112   2.347   0.740  2.1174 -0.2951 -0.9224
  755TIP3   OH2 2270   5.914   1.504   0.014  0.3973  0.2215  0.6725
  755TIP3    H1 2271   5.930   1.548   0.097  0.3839  0.0428  0.7720
  755TIP3    H2 2272   5.962   1.555  -0.051  0.2988  0.4382  0.7709
  756TIP3   OH2 2273   3.125   4.279   3.240  0.1336  0.6740  0.9777
  756TIP3    H1 2274   3.167   4.193   3.228  1.0363  1.3874 -1.9815
  756TIP3    H2 2275   3.032   4.259   3.245  0.2652 -0.4932 -0.3925
  757TIP3   OH2 2276   1.220   1.657   0.168 -0.1667 -0.4192  0.7830
  757TIP3    H1 2277   1.160   1.612   0.109 -0.7875  1.2073  0.1177
  757TIP3    H2 2278   1.306   1.621   0.147 -0.6162 -1.2022  0.2239
  758TIP3   OH2 2279   1.843   4.260   1.046 -0.6298  0.3542  0.3179
  758TIP3    H1 2280   1.825   4.208   0.968 -1.5004  0.4929  0.4112
  758TIP3    H2 2281   1.818   4.349   1.022 -2.5587  0.1243  1.2674
  759TIP3   OH2 2282   5.394   3.701   0.936  0.4315 -0.0817 -0.1342
  759TIP3    H1 2283   5.443   3.782   0.951 -1.1933  1.0666 -0.7292
  759TIP3    H2 2284   5.420   3.674   0.848 -0.3575  0.7973 -0.6474
  760TIP3   OH2 2285   3.835   3.510   0.620 -0.0080  0.1215 -0.0858
  760TIP3    H1 2286   3.743   3.506   0.645 -0.3123 -0.9407 -1.2360
  760TIP3    H2 2287   3.834   3.515   0.524  1.1248  1.5814 -0.0556
  761TIP3   OH2 2288   5.107   4.845   4.856  0.2520  0.1537 -0.1533
  761TIP3    H1 2289   5.107   4.935   4.891  0.3879  0.1461 -0.1341
  761TIP3    H2 2290   5.197   4.831   4.827  0.1763  0.1028 -0.3632
  762TIP3   OH2 2291   6.219   4.079   2.249 -0.0247  0.2557 -0.6051
  762TIP3    H1 2292   6.295   4.123   2.210 -0.0337 -0.8498 -1.9746
  762TIP3    H2 2293   6.256   4.009   2.302 -0.0236  1.5990  1.2322
  763TIP3   OH2 2294   3.482   0.112   4.283 -0.2853 -0.2767  0.9307
  763TIP3    H1 2295   3.500   0.202   4.310 -0.4561 -0.3045  1.1439
  763TIP3    H2 2296   3.396   0.093   4.321 -1.7694  0.5392 -1.7696
  764TIP3   OH2 2297   5.223   5.675   3.856  0.1185 -0.5907 -0.5942
  764TIP3    H1 2298   5.187   5.764   3.858  0.7027 -0.3549  0.4681
  764TIP3    H2 2299   5.173   5.628   3.923  1.4685 -0.3642  0.6257
  765TIP3   OH2 2300   5.488   3.406   0.192 -0.3543 -0.2909 -0.2570
  765TIP3    H1 2301   5.435   3.330   0.167  0.7921 -0.3815 -2.6930
  765TIP3    H2 2302   5.488   3.405   0.288 -2.1829 -2.0487 -0.2031
  766TIP3   OH2 2303   0.660   1.796   1.291 -0.3479  0.7745  0.1966
  766TIP3    H1 2304   0.739   1.784   1.239 -1.6717 -0.8402 -1.5671
  766TIP3    H2 2305   0.662   1.889   1.317  1.4749  1.0662 -0.8087
  767TIP3   OH2 2306   4.879   5.491   1.867  0.1542 -0.0502 -0.1454
  767TIP3    H1 2307   4.839   5.502   1.953  1.0302 -0.0249  0.2781
  767TIP3    H2 2308   4.943   5.421   1.880 -0.6000 -0.9510 -1.1013
  768TIP3   OH2 2309   5.867   4.303   0.629  0.2356 -0.0430  0.0827
  768TIP3    H1 2310   5.944   4.345   0.592 -0.4388  0.2499 -1.0488
  768TIP3    H2 2311   5.873   4.212   0.601 -0.4687  0.2610 -1.1251
  769TIP3   OH2 2312   1.783   5.775   2.015  0.3002  0.4222  0.4635
  769TIP3    H1 2313   1.813   5.720   1.942  0.2946  0.7226  0.2354
  769TIP3    H2 2314   1.834   5.856   2.007  0.3039  0.4532  0.7981
  770TIP3   OH2 2315   4.012   1.962   3.082 -0.3149 -0.1014 -0.1612
  770TIP3    H1 2316   4.054   2.042   3.050 -0.3213 -0.7184 -1.8215
  770TIP3    H2 2317   4.057   1.943   3.165  0.1391  1.2451 -0.0738
  771TIP3   OH2 2318   5.462   5.578   5.031  0.3809 -0.6380  0.3942
  771TIP3    H1 2319   5.380   5.608   4.992  2.2539  0.5644 -3.0536
  771TIP3    H2 2320   5.498   5.656   5.074  0.6956 -0.5423 -0.0309
  772TIP3   OH2 2321   0.632   1.257   2.238  0.2597 -0.3074  0.4150
  772TIP3    H1 2322   0.723   1.245   2.265  0.1102 -1.4931  0.4361
  772TIP3    H2 2323   0.638   1.306   2.156  0.8286  1.1416  1.2919
  773TIP3   OH2 2324   2.765   4.773   2.663  0.0197 -0.3188  0.0437
  773TIP3    H1 2325   2.700   4.703   2.651 -0.1675  0.0303 -1.2113
  773TIP3    H2 2326   2.782   4.775   2.757 -0.1362 -1.8987  0.1246
  774TIP3   OH2 2327   6.225   1.776   3.412 -0.1367 -0.1648 -0.6195
  774TIP3    H1 2328   6.151   1.754   3.468 -1.5498  1.8382 -1.5889
  774TIP3    H2 2329   6.188   1.830   3.342  2.3633  1.9159 -0.5295
  775TIP3   OH2 2330   1.032   3.174   4.559 -0.3189 -0.0423  0.0762
  775TIP3    H1 2331   1.078   3.141   4.482 -0.0468 -0.6417  0.4828
  775TIP3    H2 2332   0.955   3.118   4.567  0.1165 -0.5677  0.7417
  776TIP3   OH2 2333   4.758   4.738   2.724  0.3268 -0.5627  0.3628
  776TIP3    H1 2334   4.682   4.685   2.749 -0.7529  0.9904  0.4597
  776TIP3    H2 2335   4.793   4.695   2.646 -2.0889  0.0048 -1.1254
  777TIP3   OH2 2336   0.170   5.103   4.873  0.4881  0.5843  0.6026
  777TIP3    H1 2337   0.260   5.111   4.843  0.9382 -0.4802  1.5827
  777TIP3    H2 2338   0.148   5.011   4.859 -0.9819  1.1347 -1.0044
  778TIP3   OH2 2339   0.026   3.376   2.090  0.2249 -0.2425  0.4513
  778TIP3    H1 2340   0.055   3.467   2.081  1.0137 -0.5859 -0.7694
  778TIP3    H2 2341  -0.057   3.382   2.137  1.3498  0.9281  2.4533
  779TIP3   OH2 2342   0.781   5.088   1.007  0.8004  0.2291  0.1522
  779TIP3    H1 2343   0.876   5.098   1.012  0.9396 -0.7849 -0.3092
  779TIP3    H2 2344   0.755   5.141   0.932  1.3200 -1.3963 -1.2325
  780TIP3   OH2 2345   0.425   5.922   1.265 -0.0602 -0.1267  0.1270
  780TIP3    H1 2346   0.430   5.959   1.177  0.9820 -0.2151  0.1418
  780TIP3    H2 2347   0.349   5.965   1.304 -0.0826  0.4798 -0.5544
  781TIP3   OH2 2348   1.100   5.730   1.831  0.1192 -0.3980 -0.1758
  781TIP3    H1 2349   1.033   5.740   1.898 -1.8054  1.4994 -2.2418
  781TIP3    H2 2350   1.183   5.742   1.878 -1.0310 -0.9040  2.1186
  782TIP3   OH2 2351   2.240   1.888   0.901 -0.1335 -0.2270 -0.3591
  782TIP3    H1 2352   2.288   1.892   0.983 -0.0407 -1.5467 -0.3178
  782TIP3    H2 2353   2.304   1.857   0.837 -0.5513 -0.5984 -0.6104
  783TIP3   OH2 2354   2.785   1.456   3.744 -0.2346 -0.1708  0.0042
  783TIP3    H1 2355   2.832   1.379   3.776 -1.1047 -1.7118 -2.1989
  783TIP3    H2 2356   2.835   1.485   3.668 -0.6678  0.6022  0.0071
  784TIP3   OH2 2357   1.353   4.593   0.755 -0.2883 -0.0917  0.5273
  784TIP3    H1 2358   1.385   4.510   0.719  1.9330  0.7241  0.4368
  784TIP3    H2 2359   1.405   4.659   0.710 -4.5389  1.7653 -2.2698
  785TIP3   OH2 2360   4.550   1.196   2.504  0.3338 -0.1764  0.8405
  785TIP3    H1 2361   4.605   1.208   2.582  1.4841 -0.1362  0.0548
  785TIP3    H2 2362   4.611   1.167   2.436 -0.3511  1.3264 -0.4791
  786TIP3   OH2 2363   2.256   5.560   2.364 -0.2882 -0.3025  0.0662
  786TIP3    H1 2364   2.233   5.467   2.363  1.7897 -0.8496  0.0245
  786TIP3    H2 2365   2.188   5.601   2.310 -0.6370 -1.9416 -0.8232
  787TIP3   OH2 2366   0.349   3.788   4.094 -0.6680 -0.4636  0.2512
  787TIP3    H1 2367   0.313   3.776   4.182 -1.4993 -0.9966 -0.1420
  787TIP3    H2 2368   0.442   3.806   4.108 -0.4082 -2.2605  1.1898
  788TIP3   OH2 2369   5.858   1.902   2.468 -0.2022  0.3186 -0.3621
  788TIP3    H1 2370   5.785   1.955   2.501 -0.4082 -1.9774  3.5329
  788TIP3    H2 2371   5.819   1.847   2.400 -1.2746  1.3859 -0.6429
  789TIP3   OH2 2372   4.351   0.813   4.835  0.4811 -0.0517 -0.0668
  789TIP3    H1 2373   4.376   0.809   4.927 -0.1354 -1.0904  0.0648
  789TIP3    H2 2374   4.340   0.722   4.808 -0.3430  0.2702 -0.8891
  790TIP3   OH2 2375   5.590   4.630   0.485 -0.3232 -0.4412  0.0620
  790TIP3    H1 2376   5.605   4.604   0.394  1.3960  1.9688 -0.4734
  790TIP3    H2 2377   5.540   4.711   0.478 -0.7837 -0.6050  1.3090
  791TIP3   OH2 2378   3.461   3.138   0.371 -0.0568 -0.2738  0.6686
  791TIP3    H1 2379   3.462   3.044   0.384  1.6321 -0.3362  0.2685
  791TIP3    H2 2380   3.532   3.171   0.427  1.1153  0.4527 -1.1388
  792TIP3   OH2 2381   5.427   4.626   3.135 -0.2265  0.1306 -0.3214
  792TIP3    H1 2382   5.339   4.643   3.169 -0.6816 -1.8362 -0.4133
  792TIP3    H2 2383   5.431   4.675   3.053 -1.0533  0.6450 -0.0679
  793TIP3   OH2 2384   3.771   0.918   3.338 -0.7091 -0.2744 -0.3534
  793TIP3    H1 2385   3.728   1.001   3.318 -1.7467 -0.8228 -0.4829
  793TIP3    H2 2386   3.750   0.902   3.430 -0.7034 -0.4934 -0.3890
  794TIP3   OH2 2387   4.536   5.019   2.747  0.7114 -0.0604  0.2504
  794TIP3    H1 2388   4.580   4.992   2.666  0.8328  0.2611  0.2099
  794TIP3    H2 2389   4.494   4.939   2.779  0.4757 -0.1391 -0.2462
  795TIP3   OH2 2390   0.079   1.208   1.885 -0.2124  0.0015  0.2401
  795TIP3    H1 2391   0.036   1.154   1.951  1.0374 -1.8298 -0.3844
  795TIP3    H2 2392   0.058   1.166   1.802 -0.0238  1.0677 -0.3729
  796TIP3   OH2 2393   2.453   5.260   4.913 -0.1596  0.4896  0.1661
  796TIP3    H1 2394   2.410   5.280   4.830 -0.5401 -0.7962  0.0305
  796TIP3    H2 2395   2.534   5.311   4.912  0.1174  0.0464 -1.2427
  797TIP3   OH2 2396   0.128   4.923   2.459 -0.6138 -0.0610 -0.1363
  797TIP3    H1 2397   0.041   4.907   2.423 -0.5887  0.7700 -0.6003
  797TIP3    H2 2398   0.170   4.982   2.395  0.7672 -1.4735 -0.5945
  798TIP3   OH2 2399   4.405   2.271   1.229  0.3373  0.4734  0.3276
  798TIP3    H1 2400   4.389   2.188   1.185 -0.2184  0.8026 -0.1018
  798TIP3    H2 2401   4.494   2.295   1.204 -0.0792  0.8190 -0.9028
  799TIP3   OH2 2402   0.525   1.842   1.011 -0.1110  0.8677  0.4715
  799TIP3    H1 2403   0.557   1.837   1.101 -1.0585 -0.1641  0.7858
  799TIP3    H2 2404   0.431   1.859   1.020 -0.2603  0.4956 -0.3070
  800TIP3   OH2 2405   2.513   3.215   0.032  0.2197  0.3336 -0.3637
  800TIP3    H1 2406   2.455   3.194   0.105  1.6281 -1.4169  0.3214
  800TIP3    H2 2407   2.601   3.199   0.066  1.0380  1.6274 -1.7808
  801TIP3   OH2 2408   6.164   3.177   0.332 -0.4456  0.4145 -0.4743
  801TIP3    H1 2409   6.163   3.269   0.307 -0.2712  0.6996  0.5339
  801TIP3    H2 2410   6.124   3.175   0.419  1.5490 -0.1567  0.4836
  802TIP3   OH2 2411   6.011   4.231   2.158  0.4664 -0.3763  0.0304
  802TIP3    H1 2412   6.079   4.172   2.191  0.2862 -1.3318 -1.2735
  802TIP3    H2 2413   6.022   4.230   2.063 -2.0475 -1.4319 -0.3294
  803TIP3   OH2 2414   2.508   1.079   0.329 -0.5756 -0.2498 -0.2135
  803TIP3    H1 2415   2.573   1.015   0.356  0.9569  0.5995 -1.6608
  803TIP3    H2 2416   2.504   1.071   0.233 -0.7341  1.4120 -0.3857
  804TIP3   OH2 2417   5.053   3.223   4.890  0.0169 -0.5766  0.5732
  804TIP3    H1 2418   4.963   3.192   4.880 -0.3234  0.8661 -1.6301
  804TIP3    H2 2419   5.099   3.186   4.814  1.1257 -0.7132  1.2901
  805TIP3   OH2 2420   0.258   5.877   3.464  0.2818 -0.7588 -0.2972
  805TIP3    H1 2421   0.241   5.953   3.409 -0.1114 -1.4505 -1.1649
  805TIP3    H2 2422   0.173   5.834   3.472  0.0893 -0.0880  1.8019
  806TIP3   OH2 2423   1.821   5.654   1.263  0.0562 -0.1051 -0.5261
  806TIP3    H1 2424   1.891   5.591   1.247 -0.3595 -0.4120 -1.1971
  806TIP3    H2 2425   1.742   5.600   1.272  0.0704  0.1361  1.4667
  807TIP3   OH2 2426   0.022   1.691   1.617 -0.2023 -0.3779 -0.8534
  807TIP3    H1 2427  -0.039   1.619   1.632  0.5902 -0.9840 -0.4729
  807TIP3    H2 2428   0.072   1.665   1.540  2.2157 -1.7698  1.0171
  808TIP3   OH2 2429   1.551   5.042   3.726  0.2534 -0.0256  0.3305
  808TIP3    H1 2430   1.545   5.130   3.688  0.6964 -0.3744 -0.5769
  808TIP3    H2 2431   1.472   5.034   3.779  0.0018  0.7748  0.0998
  809TIP3   OH2 2432   1.152   4.286   3.312  0.0609 -0.3412 -0.0850
  809TIP3    H1 2433   1.209   4.226   3.360  0.8953 -0.7120 -1.4717
  809TIP3    H2 2434   1.196   4.371   3.317  0.1914 -0.3982 -0.2476
  810TIP3   OH2 2435   0.294   3.849   1.900  0.0202 -0.3198 -0.3298
  810TIP3    H1 2436   0.316   3.756   1.894 -0.8239 -0.5574  0.0988
  810TIP3    H2 2437   0.312   3.884   1.812 -0.8289 -1.1492 -0.8448
  811TIP3   OH2 2438   2.585   2.145   1.341 -0.9528  0.3049 -0.2089
  811TIP3    H1 2439   2.537   2.228   1.338  1.9128  2.1870  1.1382
  811TIP3    H2 2440   2.580   2.118   1.432  1.4955  1.2950  0.3092
  812TIP3   OH2 2441   4.127   5.297   3.936 -0.3802 -0.8531 -0.3023
  812TIP3    H1 2442   4.168   5.212   3.922 -1.4574 -1.1583 -1.8537
  812TIP3    H2 2443   4.126   5.338   3.850  0.6216  0.9949  0.5170
  813TIP3   OH2 2444   5.806   0.640   3.601 -0.4160 -1.0774 -0.0065
  813TIP3    H1 2445   5.819   0.567   3.661 -0.5964 -1.6313 -0.6223
  813TIP3    H2 2446   5.797   0.599   3.515  1.8308 -0.2094 -0.7356
  814TIP3   OH2 2447   5.879   3.550   4.845  0.2875 -0.6342  0.1177
  814TIP3    H1 2448   5.927   3.474   4.877 -0.1904 -0.5881  0.9931
  814TIP3    H2 2449   5.857   3.600   4.924 -1.0594 -0.5838 -0.2554
  815TIP3   OH2 2450   5.636   4.283   2.447  0.2834 -0.2202  0.2202
  815TIP3    H1 2451   5.568   4.235   2.400 -0.1412  0.1866  0.4044
  815TIP3    H2 2452   5.588   4.334   2.512  0.6482  1.1173 -0.5394
  816TIP3   OH2 2453   6.203   4.889   2.387  0.2362 -0.0869 -0.4286
  816TIP3    H1 2454   6.141   4.882   2.314  1.1269  0.8126 -1.3074
  816TIP3    H2 2455   6.216   4.983   2.398  0.6540 -0.2403  0.4272
  817TIP3   OH2 2456   3.041   0.431   4.984  0.0161 -0.0313  0.0383
  817TIP3    H1 2457   3.035   0.521   4.955 -1.5129 -0.6056 -1.5605
  817TIP3    H2 2458   3.041   0.437   5.080 -2.7555  1.5727  0.0515
  818TIP3   OH2 2459   5.836   1.019   4.198 -0.5756  0.0899  0.4604
  818TIP3    H1 2460   5.922   1.052   4.173 -0.6896  1.0464  1.2819
  818TIP3    H2 2461   5.800   0.984   4.116  0.3499  0.1928 -0.0160
  819TIP3   OH2 2462   1.828   0.303   2.090  0.1616 -0.1147  0.0809
  819TIP3    H1 2463   1.889   0.235   2.060  1.1783  0.4228  0.8614
  819TIP3    H2 2464   1.777   0.326   2.013  0.7547 -0.7845 -0.5205
  820TIP3   OH2 2465   2.234   1.315   0.639 -0.4724 -0.1353 -0.0193
  820TIP3    H1 2466   2.286   1.324   0.558  1.1361  0.4749  1.0304
  820TIP3    H2 2467   2.267   1.234   0.679  2.9577  2.3419  2.7839
  821TIP3   OH2 2468   1.266   5.707   2.273 -0.3729 -0.2912 -0.0534
  821TIP3    H1 2469   1.352   5.721   2.313 -1.6439  1.0437  2.4160
  821TIP3    H2 2470   1.241   5.619   2.299  0.2069 -0.6552 -0.7171
  822TIP3   OH2 2471   1.924   2.274   1.159  0.4343 -0.1185  0.4690
  822TIP3    H1 2472   1.844   2.327   1.160  0.6899  0.2799  1.6240
  822TIP3    H2 2473   1.993   2.337   1.137  0.2125 -0.8624 -2.7291
  823TIP3   OH2 2474   4.927   0.036   1.092 -0.3542 -0.0455 -0.1438
  823TIP3    H1 2475   4.842   0.071   1.065 -0.4869  2.6705  3.1752
  823TIP3    H2 2476   4.991   0.092   1.048 -0.3171 -0.5516 -0.7501
  824TIP3   OH2 2477   2.201   5.130   1.272 -0.2309  0.7919 -0.1156
  824TIP3    H1 2478   2.215   5.207   1.217 -0.7425  1.7565  1.0690
  824TIP3    H2 2479   2.105   5.121   1.275 -0.2430 -1.8274 -2.8135
  825TIP3   OH2 2480   2.345   2.306   1.762 -0.6819  0.0014 -0.5330
  825TIP3    H1 2481   2.372   2.226   1.718 -1.9596  0.0202 -1.4308
  825TIP3    H2 2482   2.297   2.276   1.839  0.5058 -0.0518  0.2005
  826TIP3   OH2 2483   0.868   1.326   0.210  0.7126 -0.1512 -0.2049
  826TIP3    H1 2484   0.879   1.410   0.255 -1.2078  1.3151 -2.2130
  826TIP3    H2 2485   0.791   1.287   0.251 -0.9538  1.1211 -1.9637
  827TIP3   OH2 2486   1.325   4.912   2.791 -0.3613 -0.5127  0.0011
  827TIP3    H1 2487   1.355   4.850   2.858 -0.9173 -0.5022  0.2645
  827TIP3    H2 2488   1.237   4.936   2.818  0.3804  1.6078  0.7681
  828TIP3   OH2 2489   0.779   0.741   2.640  0.3212 -0.2422  0.5485
  828TIP3    H1 2490   0.778   0.833   2.664  1.8752 -0.2416  0.7399
  828TIP3    H2 2491   0.703   0.703   2.685 -0.3503  0.9329  0.4337
  829TIP3   OH2 2492   4.017   2.374   3.169  0.1018 -0.2374  0.3563
  829TIP3    H1 2493   3.930   2.351   3.138  0.2322  0.0264 -0.2255
  829TIP3    H2 2494   4.075   2.307   3.133  0.0973 -0.6309  1.0554
  830TIP3   OH2 2495   3.733   4.018   1.724 -0.3383  0.4326  0.0718
  830TIP3    H1 2496   3.816   4.064   1.736 -0.0852  0.0860 -0.3146
  830TIP3    H2 2497   3.681   4.041   1.802  0.6272 -0.4334  1.0045
  831TIP3   OH2 2498   3.997   2.906   0.500  0.2161  0.0719  0.5390
  831TIP3    H1 2499   3.935   2.945   0.438  1.3267 -0.6263 -1.0871
  831TIP3    H2 2500   3.997   2.813   0.479  0.8298 -0.1337  1.4155
  832TIP3   OH2 2501   2.514   0.949   2.667 -0.0937 -0.0119  0.0967
  832TIP3    H1 2502   2.419   0.960   2.677  0.1482  1.0371  1.4300
  832TIP3    H2 2503   2.528   0.953   2.572 -1.4169 -0.5588 -0.1503
  833TIP3   OH2 2504   1.320  -0.004   3.839 -0.0634  0.0721  0.0961
  833TIP3    H1 2505   1.245   0.019   3.783 -1.0550 -0.4358  1.1837
  833TIP3    H2 2506   1.361   0.080   3.858 -0.5668  0.4011 -0.2253
  834TIP3   OH2 2507   2.376   5.109   3.468 -0.3849  0.1086 -0.3636
  834TIP3    H1 2508   2.334   5.157   3.396 -2.2187 -0.3906  0.2999
  834TIP3    H2 2509   2.440   5.170   3.505 -0.0926  0.7080 -1.8034
  835TIP3   OH2 2510   6.217   0.154   3.125  0.0132 -0.1311 -0.5915
  835TIP3    H1 2511   6.186   0.082   3.070  0.8173  0.0341 -1.2722
  835TIP3    H2 2512   6.226   0.228   3.065  2.1475 -0.2857 -0.5402
  836TIP3   OH2 2513   2.832   1.988   4.118  0.2623 -0.2647 -0.5386
  836TIP3    H1 2514   2.788   1.914   4.161 -0.4202  0.1433 -0.5122
  836TIP3    H2 2515   2.896   2.018   4.182 -0.5928  0.1961  0.1259
  837TIP3   OH2 2516   4.758   2.106   2.926  0.1021  0.3019 -0.0378
  837TIP3    H1 2517   4.796   2.102   2.839  0.5547  1.3278  0.0947
  837TIP3    H2 2518   4.730   2.017   2.945  3.2447 -0.7461  0.2097
  838TIP3   OH2 2519   3.394   0.164   2.864  0.4987 -0.1011 -0.1577
  838TIP3    H1 2520   3.444   0.178   2.945 -1.4148  1.1547  0.8753
  838TIP3    H2 2521   3.345   0.245   2.851 -0.4236 -0.8654 -1.7192
  839TIP3   OH2 2522   6.019   4.483   4.104  0.3726  0.6333 -0.1558
  839TIP3    H1 2523   6.038   4.545   4.034 -1.4775  1.4642  0.0048
  839TIP3    H2 2524   5.986   4.406   4.059  2.4393 -0.1888 -0.3422
  840TIP3   OH2 2525   5.841   5.156   2.271  0.5532  0.0987 -0.2881
  840TIP3    H1 2526   5.764   5.105   2.297  0.3431  1.0410  1.0166
  840TIP3    H2 2527   5.806   5.241   2.245  1.2011  0.8779  1.2665
  841TIP3   OH2 2528   4.576   1.664   3.301 -0.3081 -0.5385 -0.3057
  841TIP3    H1 2529   4.562   1.601   3.372 -1.3782  1.7401  1.6447
  841TIP3    H2 2530   4.496   1.660   3.249  0.3572 -2.0029 -1.2650
  842TIP3   OH2 2531   0.345   4.971   3.961 -0.3319  0.3306 -0.2900
  842TIP3    H1 2532   0.408   4.943   4.027 -1.7244  0.9565  1.3730
  842TIP3    H2 2533   0.313   4.890   3.922  1.7899  0.0149 -1.5175
  843TIP3   OH2 2534   2.823   4.404   3.103 -0.1935 -0.0215 -0.0337
  843TIP3    H1 2535   2.739   4.425   3.146  0.2137  0.9227  0.3323
  843TIP3    H2 2536   2.827   4.309   3.105 -0.7297 -0.0441  1.0056
  844TIP3   OH2 2537   3.909   5.676   0.095  0.0370 -0.2845 -0.4084
  844TIP3    H1 2538   3.839   5.619   0.064  0.5200  0.4878 -3.2861
  844TIP3    H2 2539   3.989   5.628   0.077  0.3504  0.2348 -0.4300
  845TIP3   OH2 2540   0.349   2.794   4.201  0.2612 -0.5355 -0.6869
  845TIP3    H1 2541   0.273   2.736   4.199 -1.3643  1.4086 -3.4343
  845TIP3    H2 2542   0.364   2.817   4.109  2.1540  1.6543  0.0630
  846TIP3   OH2 2543   1.899   5.950   2.614 -0.1305 -0.2952  0.2706
  846TIP3    H1 2544   1.896   5.998   2.697 -1.6470  2.6113 -1.3471
  846TIP3    H2 2545   1.981   5.979   2.573  0.0100 -0.7841  0.1984
  847TIP3   OH2 2546   5.033   0.951   4.011  0.5230 -0.0407 -0.2642
  847TIP3    H1 2547   4.984   1.024   3.973  1.3453  0.3113 -0.6834
  847TIP3    H2 2548   5.123   0.983   4.016  1.2972 -1.6471 -2.2077
  848TIP3   OH2 2549   5.549   1.815   5.083 -0.7454 -0.5609  0.0827
  848TIP3    H1 2550   5.460   1.790   5.106 -0.6363 -1.1505 -0.1228
  848TIP3    H2 2551   5.602   1.739   5.104 -0.5945 -1.0366 -1.7800
  849TIP3   OH2 2552   5.904   0.669   0.031 -0.2382 -0.0211 -0.1526
  849TIP3    H1 2553   5.819   0.633   0.004 -1.6693 -0.0385  3.7848
  849TIP3    H2 2554   5.944   0.599   0.082  1.3751  0.6485 -0.4548
  850TIP3   OH2 2555   0.749   3.883   3.112  0.2731  0.0697 -0.4211
  850TIP3    H1 2556   0.767   3.976   3.129  0.3050 -0.1215  0.6364
  850TIP3    H2 2557   0.832   3.839   3.130 -0.0743 -0.3057  0.2795
  851TIP3   OH2 2558   5.300   5.704   1.256 -0.4882  0.4220  0.4806
  851TIP3    H1 2559   5.377   5.685   1.203 -0.0516  0.2486  1.1676
  851TIP3    H2 2560   5.231   5.649   1.219 -0.3700  0.8068 -0.3333
  852TIP3   OH2 2561   5.391   0.042   1.892 -0.4446  0.3957 -0.2739
  852TIP3    H1 2562   5.357   0.010   1.809  1.1668  0.3473 -0.9475
  852TIP3    H2 2563   5.336   0.000   1.958 -0.3922 -1.2873 -1.2370
  853TIP3   OH2 2564   4.271   3.311   2.892  0.2600 -0.1087 -0.2902
  853TIP3    H1 2565   4.263   3.398   2.852  0.1794 -0.6201 -1.4252
  853TIP3    H2 2566   4.325   3.261   2.831  1.2687 -0.5381  0.9141
  854TIP3   OH2 2567   1.592   0.248   1.321  0.1999  0.6194  0.5494
  854TIP3    H1 2568   1.555   0.172   1.277  1.0099 -0.1932  1.2236
  854TIP3    H2 2569   1.556   0.323   1.274  2.8732 -0.1371 -3.1973
  855TIP3   OH2 2570   3.706   4.552   2.228 -0.4474  0.5238  0.6342
  855TIP3    H1 2571   3.647   4.596   2.167 -1.6788 -2.0007 -0.1045
  855TIP3    H2 2572   3.682   4.588   2.314 -2.4303  0.2711  0.2305
  856TIP3   OH2 2573   4.097   0.530   1.127 -0.1897 -0.2846 -0.6275
  856TIP3    H1 2574   4.011   0.491   1.109  0.4754 -1.1639 -2.0174
  856TIP3    H2 2575   4.160   0.463   1.100  0.9987 -0.9745  3.1833
  857TIP3   OH2 2576   1.326   3.123   4.127  0.3449  0.4158 -0.5491
  857TIP3    H1 2577   1.339   3.200   4.181 -2.3252  0.9058 -0.4933
  857TIP3    H2 2578   1.406   3.071   4.139  1.1546  1.9941  1.3102
  858TIP3   OH2 2579   1.898   2.502   1.439 -0.0061  0.7793 -0.3282
  858TIP3    H1 2580   1.854   2.529   1.359 -1.3019  0.5632  0.2806
  858TIP3    H2 2581   1.930   2.414   1.421 -1.1309  0.3521 -0.3125
  859TIP3   OH2 2582   6.331   2.905   5.040  0.1949  0.1639 -0.6119
  859TIP3    H1 2583   6.324   2.875   5.130 -0.9721 -0.6381 -0.9524
  859TIP3    H2 2584   6.323   2.826   4.987  0.8354  0.6277 -1.4361
  860TIP3   OH2 2585   4.386   3.160   2.692  0.1640  0.5498  0.2938
  860TIP3    H1 2586   4.445   3.147   2.618 -2.0075  0.2115 -1.4695
  860TIP3    H2 2587   4.379   3.074   2.733 -2.6730 -0.6796 -2.4003
  861TIP3   OH2 2588   5.217   5.558   4.395  0.0760 -0.2076  0.2634
  861TIP3    H1 2589   5.286   5.492   4.402  0.1454 -0.1662 -0.0253
  861TIP3    H2 2590   5.251   5.621   4.332  0.1769  0.3145  0.8233
  862TIP3   OH2 2591   6.243   2.192   1.764  0.1550  0.3023 -0.5742
  862TIP3    H1 2592   6.248   2.098   1.746 -0.4075  0.0705  0.4216
  862TIP3    H2 2593   6.274   2.201   1.854  0.0627  1.0537 -0.6125
  863TIP3   OH2 2594   4.996   0.667   4.173  0.1082  0.6535 -0.2632
  863TIP3    H1 2595   4.911   0.637   4.142 -1.8380  2.6716  2.6334
  863TIP3    H2 2596   5.033   0.591   4.220 -1.3890  0.5351  0.7879
  864TIP3   OH2 2597   6.296   2.376   4.840 -0.4943 -0.5217  0.1220
  864TIP3    H1 2598   6.201   2.365   4.849 -0.2084 -2.6065  1.3227
  864TIP3    H2 2599   6.333   2.305   4.893  1.7276 -0.6567 -1.4873
  865TIP3   OH2 2600   5.392   5.447   3.224  0.0301  0.2367  0.3483
  865TIP3    H1 2601   5.385   5.404   3.139 -0.5008 -0.7547  0.8812
  865TIP3    H2 2602   5.465   5.403   3.268 -0.7058 -0.3574  1.0120
  866TIP3   OH2 2603   0.023   3.323   3.186 -0.3915  0.3738  0.2127
  866TIP3    H1 2604  -0.036   3.398   3.188 -1.4195 -0.3508 -0.9932
  866TIP3    H2 2605   0.108   3.358   3.213 -1.1593  1.6510  1.0356
  867TIP3   OH2 2606   2.950   1.456   0.080 -0.6570 -0.3691  0.0398
  867TIP3    H1 2607   3.041   1.481   0.096 -1.2307  0.8138  1.9575
  867TIP3    H2 2608   2.922   1.510   0.006  0.1954 -0.7761 -0.5863
  868TIP3   OH2 2609   6.034   5.617   1.183 -0.3079 -0.8351 -0.2820
  868TIP3    H1 2610   6.009   5.544   1.240 -2.0904  0.4814  0.7123
  868TIP3    H2 2611   6.046   5.691   1.243 -0.5229  0.1657 -1.4503
  869TIP3   OH2 2612   5.850   2.704   4.234 -0.0004  0.6883  0.4133
  869TIP3    H1 2613   5.780   2.676   4.175  1.4205  0.2800 -1.1636
  869TIP3    H2 2614   5.915   2.635   4.229  1.7929  2.3369 -0.4495
  870TIP3   OH2 2615   1.920   3.390   2.501 -1.0597  0.0010  0.0102
  870TIP3    H1 2616   1.883   3.342   2.427 -1.2311  0.8735 -0.4751
  870TIP3    H2 2617   1.918   3.327   2.574  2.0466 -2.0240 -1.4072
  871TIP3   OH2 2618   2.482   5.775   2.726  0.7046 -0.1205 -0.0294
  871TIP3    H1 2619   2.522   5.820   2.801  0.1358  0.6249 -0.1618
  871TIP3    H2 2620   2.537   5.698   2.713 -0.3849 -1.4642  2.4724
  872TIP3   OH2 2621   0.575   0.531   2.432  0.0259 -0.1641 -0.1443
  872TIP3    H1 2622   0.517   0.580   2.373 -0.0499 -1.4540 -1.1924
  872TIP3    H2 2623   0.571   0.441   2.400  1.2919 -0.5946  0.8206
  873TIP3   OH2 2624   6.279   1.357   0.315 -0.4338 -0.5263 -0.3527
  873TIP3    H1 2625   6.188   1.333   0.301 -0.7937 -0.0126  0.9727
  873TIP3    H2 2626   6.280   1.453   0.311  0.0989 -0.5358 -0.6186
  874TIP3   OH2 2627   1.993   0.414   3.758 -0.5502 -0.0131  0.1990
  874TIP3    H1 2628   2.021   0.408   3.849  0.0567  0.2013  0.0331
  874TIP3    H2 2629   1.897   0.411   3.762 -0.5213 -2.3877  0.6710
  875TIP3   OH2 2630   1.151   3.401   0.269  0.2727 -0.2080 -0.0279
  875TIP3    H1 2631   1.203   3.345   0.326 -0.2658 -1.6752 -0.9206
  875TIP3    H2 2632   1.061   3.387   0.298  0.0467 -0.5352 -0.8467
  876TIP3   OH2 2633   2.613   0.483   2.368 -0.6984  0.6222 -0.1671
  876TIP3    H1 2634   2.553   0.467   2.442 -1.2610 -0.9300 -0.9217
  876TIP3    H2 2635   2.576   0.560   2.325 -2.0910 -0.1792 -0.4979
  877TIP3   OH2 2636   2.869   3.636   4.922 -0.2450 -0.3082 -0.0107
  877TIP3    H1 2637   2.897   3.727   4.912 -0.4112 -0.2714 -0.1563
  877TIP3    H2 2638   2.923   3.602   4.993 -0.4263  0.0049  0.2831
  878TIP3   OH2 2639   6.186   5.294   3.845  0.2885  0.8756 -0.1455
  878TIP3    H1 2640   6.266   5.344   3.827  1.1583  0.3864  2.0262
  878TIP3    H2 2641   6.196   5.215   3.793  0.4946  1.4703 -1.0346
  879TIP3   OH2 2642   2.396   1.537   4.328  0.4926  0.0706  0.3978
  879TIP3    H1 2643   2.454   1.497   4.264  0.2861  0.6491 -0.1674
  879TIP3    H2 2644   2.374   1.466   4.389  2.6142  0.0676  1.2661
  880TIP3   OH2 2645   0.434   0.669   4.546 -0.9604 -0.3065  0.0428
  880TIP3    H1 2646   0.390   0.751   4.523 -0.4017 -0.0493 -0.1250
  880TIP3    H2 2647   0.484   0.690   4.625  0.5539  0.0109 -0.9509
  881TIP3   OH2 2648   2.379   0.113   3.310  0.0494  0.2342 -0.2617
  881TIP3    H1 2649   2.332   0.196   3.312  0.0018  0.2077 -0.2907
  881TIP3    H2 2650   2.403   0.101   3.218  0.0531  0.2136 -0.2581
  882TIP3   OH2 2651   4.305   3.922   4.365 -0.2326 -0.1459  0.4675
  882TIP3    H1 2652   4.367   3.976   4.316  0.3772 -0.3714  0.9779
  882TIP3    H2 2653   4.354   3.843   4.387 -0.5195 -0.1035  1.3327
  883TIP3   OH2 2654   2.353   3.853   2.585  0.0427 -0.5320  0.4955
  883TIP3    H1 2655   2.287   3.807   2.637  1.7596 -2.5617  1.0787
  883TIP3    H2 2656   2.335   3.827   2.494 -0.1665 -0.8247  0.6185
  884TIP3   OH2 2657   4.794   0.139   2.807 -0.2466  0.3586  0.4919
  884TIP3    H1 2658   4.792   0.168   2.716 -1.4883  2.0019  0.9818
  884TIP3    H2 2659   4.882   0.103   2.819  0.0151  0.3309 -1.2869
  885TIP3   OH2 2660   5.369   2.855  -0.007  0.3302 -0.3952  0.3201
  885TIP3    H1 2661   5.281   2.889  -0.020 -0.3219 -1.8557  0.6057
  885TIP3    H2 2662   5.373   2.833   0.086 -0.2096 -3.3048 -0.2321
  886TIP3   OH2 2663   1.283   3.380   2.334 -0.2479  0.0731  0.4656
  886TIP3    H1 2664   1.265   3.413   2.421  0.0354  0.0729  0.5249
  886TIP3    H2 2665   1.203   3.397   2.284 -0.7184 -0.6985  0.9505
  887TIP3   OH2 2666   4.486   5.679   1.426  0.2513  0.4721 -0.3290
  887TIP3    H1 2667   4.439   5.666   1.343 -0.2327 -1.2878  0.1846
  887TIP3    H2 2668   4.534   5.598   1.440 -0.7430  0.1773  1.7626
  888TIP3   OH2 2669   0.435   3.119   2.012 -0.3538  0.6044  0.2504
  888TIP3    H1 2670   0.364   3.178   1.986 -0.6737 -0.2873 -1.0060
  888TIP3    H2 2671   0.403   3.078   2.092 -1.7347 -0.5087 -0.8123
  889TIP3   OH2 2672   2.460   0.406   1.887 -0.9308 -0.4459 -0.2620
  889TIP3    H1 2673   2.410   0.483   1.913 -1.2842 -1.1620  1.3483
  889TIP3    H2 2674   2.551   0.434   1.892 -1.0429  1.0893 -3.9422
  890TIP3   OH2 2675   0.655   1.497   3.516  0.2020  0.6001 -0.3585
  890TIP3    H1 2676   0.589   1.528   3.578 -0.2268  1.7977 -1.3789
  890TIP3    H2 2677   0.728   1.558   3.524  1.3106 -0.7985  0.8669
  891TIP3   OH2 2678   3.625   5.090   0.908 -0.1705 -0.4704 -0.3028
  891TIP3    H1 2679   3.631   5.118   0.999 -1.9351 -0.6711 -0.0878
  891TIP3    H2 2680   3.707   5.044   0.892  0.6476  0.5335  0.8340
  892TIP3   OH2 2681   1.655   5.097   1.698 -0.0598 -0.1083  1.0285
  892TIP3    H1 2682   1.564   5.075   1.681  0.0143  0.1236  0.2894
  892TIP3    H2 2683   1.654   5.189   1.725 -0.1346 -0.3616  1.9101
  893TIP3   OH2 2684   6.103   5.845   4.885  0.2793  0.3969 -0.0234
  893TIP3    H1 2685   6.083   5.926   4.931 -2.9393 -0.4102  0.2523
  893TIP3    H2 2686   6.122   5.873   4.795 -1.3829  1.4865 -0.0870
  894TIP3   OH2 2687   1.295   1.671   4.845 -0.2052 -0.1810 -0.0091
  894TIP3    H1 2688   1.380   1.715   4.849 -0.9524  1.4606 -1.0393
  894TIP3    H2 2689   1.241   1.718   4.908 -1.0395  0.4911 -1.1754
  895TIP3   OH2 2690   1.122   5.716   2.900 -0.3245 -0.1344 -0.3689
  895TIP3    H1 2691   1.127   5.810   2.880 -0.9517  0.1202  0.6210
  895TIP3    H2 2692   1.066   5.711   2.978  1.8534 -1.0820  1.2459
  896TIP3   OH2 2693   2.413   3.601   5.073  0.4247  0.2088 -0.0293
  896TIP3    H1 2694   2.416   3.670   5.140  1.6956  0.5992 -0.4532
  896TIP3    H2 2695   2.322   3.572   5.073  0.4124  0.1249  1.9299
  897TIP3   OH2 2696   2.501   1.526   0.883 -0.1464  0.1401  0.4350
  897TIP3    H1 2697   2.530   1.441   0.918 -0.6952 -0.3077 -0.1721
  897TIP3    H2 2698   2.444   1.561   0.951 -2.7431 -1.5939 -0.7105
  898TIP3   OH2 2699   3.718   3.539   3.849  0.4666  0.9736  0.0905
  898TIP3    H1 2700   3.676   3.557   3.766 -0.1589  0.2784  0.2421
  898TIP3    H2 2701   3.654   3.565   3.915  0.1302 -0.3385  0.3216
  899TIP3   OH2 2702   2.942   0.784   0.635 -0.0320  0.1191 -0.3108
  899TIP3    H1 2703   3.028   0.801   0.675  0.2031  1.1065 -1.1717
  899TIP3    H2 2704   2.903   0.871   0.627 -1.2695 -0.3565  0.3780
  900TIP3   OH2 2705   0.367   5.277   4.355  0.1373  0.1673  0.1870
  900TIP3    H1 2706   0.339   5.195   4.396 -1.2410  0.5050 -0.0251
  900TIP3    H2 2707   0.374   5.339   4.427  0.7143 -0.0011  0.2842
  901TIP3   OH2 2708   2.761   2.641   0.094  0.2965  0.1787 -0.0240
  901TIP3    H1 2709   2.698   2.712   0.092  0.7135  0.5785  0.5622
  901TIP3    H2 2710   2.783   2.631   0.187 -1.3998 -2.1895  0.2303
  902TIP3   OH2 2711   6.273   2.769   2.653  0.0707  0.3718  0.5498
  902TIP3    H1 2712   6.226   2.686   2.644 -0.3525  0.6199  0.4449
  902TIP3    H2 2713   6.285   2.780   2.747 -0.9802  0.7973  0.6461
  903TIP3   OH2 2714   5.140   0.945   4.296 -0.0424 -0.2889 -0.3312
  903TIP3    H1 2715   5.227   0.922   4.262  0.2717 -0.2391  0.4190
  903TIP3    H2 2716   5.085   0.870   4.272  0.2713 -0.4460 -0.5721
  904TIP3   OH2 2717   5.252   1.534   2.038  0.5470  0.0885 -0.2280
  904TIP3    H1 2718   5.322   1.483   2.078 -1.4577 -1.5291  1.4476
  904TIP3    H2 2719   5.239   1.607   2.099 -1.1578 -1.2767  1.1513
  905TIP3   OH2 2720   5.879   5.306   3.071  0.1153  0.1961 -0.3581
  905TIP3    H1 2721   5.862   5.393   3.036  0.2918  0.3644 -0.0314
  905TIP3    H2 2722   5.929   5.321   3.151  0.6812 -0.2294 -0.6236
  906TIP3   OH2 2723   3.818   1.622   5.167  0.2416 -0.2739 -0.1374
  906TIP3    H1 2724   3.860   1.706   5.183  1.3477 -0.5891 -1.2292
  906TIP3    H2 2725   3.858   1.563   5.231 -1.4951  0.2602  1.5444
  907TIP3   OH2 2726   4.644   1.497   3.812  0.4301 -0.2031 -0.4344
  907TIP3    H1 2727   4.648   1.506   3.907  1.5496 -0.0121 -0.4822
  907TIP3    H2 2728   4.585   1.567   3.783 -0.4139 -0.6505  0.1538
  908TIP3   OH2 2729   5.065   2.906   0.845 -0.2677  0.0406  0.7295
  908TIP3    H1 2730   4.989   2.898   0.903  0.7615  1.0608  2.2987
  908TIP3    H2 2731   5.071   2.821   0.802 -1.7237 -0.3869  1.3156
  909TIP3   OH2 2732   4.210   2.049   3.307 -0.8611  0.1204  0.6175
  909TIP3    H1 2733   4.272   1.981   3.330 -0.0908  0.7940  0.5913
  909TIP3    H2 2734   4.222   2.117   3.373 -0.7350  0.7690 -0.0452
  910TIP3   OH2 2735   4.466   4.600   4.124  0.1153 -0.1571  0.5920
  910TIP3    H1 2736   4.374   4.616   4.146  0.6186  1.1789  1.9157
  910TIP3    H2 2737   4.511   4.679   4.154  1.2265  0.9863 -3.4336
  911TIP3   OH2 2738   3.797   1.156   3.150 -0.0498  0.4052 -0.2860
  911TIP3    H1 2739   3.888   1.144   3.123  0.0807  0.5523  0.0693
  911TIP3    H2 2740   3.800   1.233   3.208 -0.5277  0.8962 -0.9061
  912TIP3   OH2 2741   4.920   5.640   2.979 -0.3387  0.4055 -0.0999
  912TIP3    H1 2742   4.999   5.614   2.931 -0.5414  0.6842 -0.5890
  912TIP3    H2 2743   4.864   5.681   2.913  0.1138  2.4417  0.7098
  913TIP3   OH2 2744   0.414   5.242   3.624 -0.4284 -0.3140  0.1070
  913TIP3    H1 2745   0.381   5.238   3.534 -0.9277  0.5709  0.2339
  913TIP3    H2 2746   0.380   5.325   3.658  0.4916 -0.2140  0.8272
  914TIP3   OH2 2747   0.383   0.843   0.839  0.3388  0.2736 -0.2135
  914TIP3    H1 2748   0.401   0.936   0.855 -0.1516  0.3741 -0.2305
  914TIP3    H2 2749   0.441   0.796   0.899  1.6132  0.5597 -1.1819
  915TIP3   OH2 2750   2.716   0.913   0.382  0.0732 -0.1054 -0.0467
  915TIP3    H1 2751   2.795   0.915   0.437 -0.1795 -0.1123  0.3193
  915TIP3    H2 2752   2.655   0.857   0.430 -1.1036  1.9376  0.9774
  916TIP3   OH2 2753   0.131   2.809   2.456 -0.6450 -0.2206  0.0397
  916TIP3    H1 2754   0.078   2.782   2.531 -0.8658 -1.1286 -0.4196
  916TIP3    H2 2755   0.082   2.883   2.418 -1.6984 -1.1442 -0.4665
  917TIP3   OH2 2756   1.303   2.565   1.863 -0.2194  0.3241  0.2772
  917TIP3    H1 2757   1.387   2.609   1.873 -0.4024  1.0227 -0.9865
  917TIP3    H2 2758   1.238   2.635   1.871 -0.7036 -0.2276  1.3720
  918TIP3   OH2 2759   3.520   1.849   1.606  0.1986  0.3459 -0.1371
  918TIP3    H1 2760   3.535   1.762   1.643 -1.6207  0.2271  0.3811
  918TIP3    H2 2761   3.564   1.846   1.521 -0.4935 -1.3598 -0.4795
  919TIP3   OH2 2762   4.241   1.088   3.185  0.2171 -0.0992  0.0025
  919TIP3    H1 2763   4.173   1.126   3.130  0.7522 -0.8364 -1.2023
  919TIP3    H2 2764   4.286   1.163   3.223 -2.5895  0.4753  2.6465
  920TIP3   OH2 2765   3.320   0.622   2.612  0.2723  0.0383  0.8852
  920TIP3    H1 2766   3.320   0.692   2.546  1.0836  0.3650  1.2137
  920TIP3    H2 2767   3.389   0.647   2.673  1.0371 -1.3901  0.6489
  921TIP3   OH2 2768   3.454   2.669   0.230  0.0441  0.8083 -0.0892
  921TIP3    H1 2769   3.369   2.653   0.190  0.3860  1.4998 -1.1299
  921TIP3    H2 2770   3.515   2.675   0.156  0.9107  0.8440  0.6092
  922TIP3   OH2 2771   3.556   4.374   4.279 -0.0792  0.7056  0.0775
  922TIP3    H1 2772   3.482   4.434   4.275 -0.1104  0.7580  1.0935
  922TIP3    H2 2773   3.574   4.365   4.373  0.9769  0.4215 -0.1413
  923TIP3   OH2 2774   2.298   3.178   3.674  0.6265 -0.1148 -0.3255
  923TIP3    H1 2775   2.304   3.127   3.755  1.0303 -0.6014 -0.6553
  923TIP3    H2 2776   2.294   3.269   3.703 -2.1126 -0.3822  0.3650
  924TIP3   OH2 2777   1.337   0.338   1.547  0.3166 -0.2144  0.4916
  924TIP3    H1 2778   1.338   0.260   1.491  2.5688 -0.5227  0.8348
  924TIP3    H2 2779   1.254   0.334   1.593 -0.2419 -1.6352 -0.5653
  925TIP3   OH2 2780   6.214   3.604   1.887  0.8994  0.1231 -0.1093
  925TIP3    H1 2781   6.211   3.658   1.808  0.4088  0.2939  0.0206
  925TIP3    H2 2782   6.140   3.543   1.877  0.2732  0.7386  0.6249
  926TIP3   OH2 2783   0.084   0.105   1.189  0.1836  0.8417 -0.3992
  926TIP3    H1 2784   0.074   0.057   1.271  1.2093 -2.6865 -2.1388
  926TIP3    H2 2785   0.006   0.160   1.185 -1.5374 -1.2369  1.5043
  927TIP3   OH2 2786   1.542   1.254   2.582 -0.0240 -0.1756 -0.0383
  927TIP3    H1 2787   1.487   1.326   2.550  0.7780  0.8772  0.8589
  927TIP3    H2 2788   1.528   1.184   2.519  0.9402  1.5509 -2.3070
  928TIP3   OH2 2789   2.168   2.179   3.590  0.0896  0.9073 -0.0885
  928TIP3    H1 2790   2.219   2.229   3.653 -0.6472  0.9894  0.4519
  928TIP3    H2 2791   2.192   2.088   3.606  2.2905  1.0936 -1.8251
  929TIP3   OH2 2792   4.954   4.487   3.335  0.4600  0.3108  0.0021
  929TIP3    H1 2793   4.912   4.505   3.251  0.5323  0.9750  0.1015
  929TIP3    H2 2794   5.048   4.495   3.318  0.5722 -1.3182 -0.2516
  930TIP3   OH2 2795   3.317   4.215   0.831 -0.0219 -0.1218 -0.2485
  930TIP3    H1 2796   3.259   4.141   0.813 -0.3396  0.1162 -0.1955
  930TIP3    H2 2797   3.277   4.289   0.786  0.5721 -0.0876 -0.7298
  931TIP3   OH2 2798   2.687   5.103   4.145 -0.2178 -0.0216  0.3287
  931TIP3    H1 2799   2.765   5.052   4.123  1.0578  1.0025  2.2201
  931TIP3    H2 2800   2.660   5.069   4.231 -1.3932  0.1843  0.0583
  932TIP3   OH2 2801   6.154   5.960   4.651  0.5075 -0.4570  0.3826
  932TIP3    H1 2802   6.245   5.932   4.647  0.6284 -0.2556  1.3000
  932TIP3    H2 2803   6.152   6.043   4.604  1.5911  1.3482  3.2375
  933TIP3   OH2 2804   0.199   4.830   1.030 -0.5106 -0.0902  0.3771
  933TIP3    H1 2805   0.109   4.803   1.012 -0.2160 -0.3082 -0.8281
  933TIP3    H2 2806   0.219   4.793   1.116 -0.7285 -2.2051 -0.4243
  934TIP3   OH2 2807   5.995   2.125   3.464 -0.0799 -0.7412  0.4775
  934TIP3    H1 2808   6.008   2.085   3.550  0.0027  0.3184  0.9765
  934TIP3    H2 2809   6.067   2.187   3.455 -0.2019 -0.7029 -0.2780
  935TIP3   OH2 2810   6.228   5.960   3.497  0.1764  0.3478 -0.3634
  935TIP3    H1 2811   6.244   6.018   3.572 -0.7314 -0.8383  0.7987
  935TIP3    H2 2812   6.309   5.909   3.488  0.9194  1.6255 -1.2925
  936TIP3   OH2 2813   0.768   2.898   1.472  0.0182 -0.0515  0.3775
  936TIP3    H1 2814   0.843   2.904   1.414  0.5972 -1.5151  0.9326
  936TIP3    H2 2815   0.715   2.975   1.451  1.8250  1.2069  0.2239
  937TIP3   OH2 2816   0.839   1.762   4.016 -0.1235  0.1448 -0.4014
  937TIP3    H1 2817   0.922   1.785   4.057 -1.0608  1.7813  0.7024
  937TIP3    H2 2818   0.853   1.775   3.922  0.5085  1.6585 -0.1198
  938TIP3   OH2 2819   5.616   5.198   3.031 -0.0294 -0.6420 -0.0480
  938TIP3    H1 2820   5.632   5.141   2.955  0.5807  0.1894 -0.5628
  938TIP3    H2 2821   5.695   5.252   3.038  0.6018 -1.7462  2.1505
  939TIP3   OH2 2822   5.436   5.403   1.067 -0.4016 -1.0750 -0.1242
  939TIP3    H1 2823   5.499   5.336   1.042 -0.4580 -0.7593 -1.1486
  939TIP3    H2 2824   5.487   5.467   1.116 -0.0978 -1.2268 -0.2433
  940TIP3   OH2 2825   1.674   4.524   1.890 -0.1371 -0.1217  0.0701
  940TIP3    H1 2826   1.647   4.521   1.798 -2.5389  1.0745  0.6394
  940TIP3    H2 2827   1.709   4.612   1.902  0.6212 -0.4377  0.2001
  941TIP3   OH2 2828   2.389   1.655   0.649 -0.1829 -0.0883 -0.0438
  941TIP3    H1 2829   2.431   1.614   0.724 -0.6688 -0.7772 -0.1452
  941TIP3    H2 2830   2.454   1.650   0.579 -0.3060 -0.8702 -0.1104
  942TIP3   OH2 2831   3.014   2.415   0.627  0.1304  0.0809  0.6644
  942TIP3    H1 2832   2.951   2.466   0.678  0.5219  0.5897  0.6438
  942TIP3    H2 2833   3.009   2.452   0.539 -1.2184 -1.3992  0.0769
  943TIP3   OH2 2834   6.205   2.062   0.817 -0.0090 -0.1064  0.5632
  943TIP3    H1 2835   6.257   2.024   0.746  0.6708 -0.3823  1.2078
  943TIP3    H2 2836   6.211   2.000   0.889  0.0341  0.5929  1.1786
  944TIP3   OH2 2837   3.562   2.126   1.256  0.0642 -0.4983  0.4598
  944TIP3    H1 2838   3.618   2.164   1.188  0.6537  0.1719  1.3121
  944TIP3    H2 2839   3.599   2.039   1.271 -0.8442 -1.1862 -0.9643
  945TIP3   OH2 2840   4.542   0.605   3.528 -0.2994  0.0908 -0.1110
  945TIP3    H1 2841   4.459   0.631   3.489 -0.8174 -0.2594  0.7299
  945TIP3    H2 2842   4.521   0.526   3.577  0.4352  0.2705  0.5025
  946TIP3   OH2 2843   6.180   1.122   4.782 -0.5056  0.7142  0.5197
  946TIP3    H1 2844   6.182   1.218   4.779 -0.0257  0.7915 -4.3726
  946TIP3    H2 2845   6.272   1.097   4.783 -0.4934  0.4668 -2.0101
  947TIP3   OH2 2846   5.605   5.027   3.526 -0.2293  0.1185  0.0014
  947TIP3    H1 2847   5.552   5.104   3.509 -0.5333 -0.2746 -0.9047
  947TIP3    H2 2848   5.602   4.977   3.445 -1.1669 -1.5230  0.9876
  948TIP3   OH2 2849   0.370   3.982   0.173 -0.4179  0.1053  0.4272
  948TIP3    H1 2850   0.297   4.017   0.122  0.0065  3.5402  1.9288
  948TIP3    H2 2851   0.448   4.018   0.131  0.1706 -0.1304  1.2951
  949TIP3   OH2 2852   2.791   3.726   1.291 -0.6215  0.2789 -0.2790
  949TIP3    H1 2853   2.780   3.677   1.210 -0.2397 -0.4214  0.0759
  949TIP3    H2 2854   2.863   3.786   1.273  1.0416 -1.4424  0.2009
  950TIP3   OH2 2855   4.996   1.193   0.986 -0.0661  0.2174  0.7363
  950TIP3    H1 2856   4.956   1.126   0.931 -1.1550  0.4169  1.2652
  950TIP3    H2 2857   5.051   1.143   1.047 -0.0454 -0.1136  0.4533
  951TIP3   OH2 2858   2.531   3.895   5.078  0.3875  0.6871 -0.1715
  951TIP3    H1 2859   2.479   3.948   5.018 -0.6513 -0.8372 -0.6897
  951TIP3    H2 2860   2.484   3.900   5.161 -0.1065  0.0485 -0.4022
  952TIP3   OH2 2861   4.272   5.062   3.891 -0.4279  0.2915 -0.2865
  952TIP3    H1 2862   4.296   5.060   3.798  0.5820  1.2281 -0.0733
  952TIP3    H2 2863   4.353   5.039   3.936 -0.9282 -0.2147  0.3703
  953TIP3   OH2 2864   4.380   2.638   0.690  0.3661 -0.1771 -0.7251
  953TIP3    H1 2865   4.468   2.675   0.694  0.3360 -0.1925  0.0512
  953TIP3    H2 2866   4.394   2.551   0.652  0.8271 -0.6133  0.4070
  954TIP3   OH2 2867   2.249   4.826   0.204  0.2977  0.4011 -0.0396
  954TIP3    H1 2868   2.246   4.733   0.179  2.1523  1.1010 -3.4963
  954TIP3    H2 2869   2.342   4.844   0.214 -0.1455  1.3323  3.5914
  955TIP3   OH2 2870   3.650   0.220   4.685 -0.0600 -0.1529  0.4203
  955TIP3    H1 2871   3.559   0.249   4.678  0.1181  0.6748  1.3196
  955TIP3    H2 2872   3.701   0.291   4.647  0.1571 -1.2941 -1.5463
  956TIP3   OH2 2873   1.314   0.776   2.984  0.2012 -0.2259 -0.1795
  956TIP3    H1 2874   1.403   0.756   2.956  0.3164  3.5034 -3.5870
  956TIP3    H2 2875   1.324   0.825   3.065  1.1518 -0.8676  0.0947
  957TIP3   OH2 2876   3.830   1.440   4.446  0.4149 -0.0844 -0.6495
  957TIP3    H1 2877   3.754   1.428   4.390  1.5239  0.9295 -2.4840
  957TIP3    H2 2878   3.794   1.467   4.530 -1.2899 -1.0119 -1.0389
  958TIP3   OH2 2879   4.757   3.552   2.003  0.0547  0.0325 -0.6668
  958TIP3    H1 2880   4.736   3.601   2.083  1.0138 -1.4270  0.5278
  958TIP3    H2 2881   4.834   3.597   1.967  3.9266 -2.9307  2.8871
  959TIP3   OH2 2882   0.066   1.064   1.382 -0.6482  0.3158 -0.0501
  959TIP3    H1 2883  -0.016   1.034   1.343 -0.8469 -0.5457  0.9863
  959TIP3    H2 2884   0.093   1.138   1.326 -2.0072  0.4873 -0.5312
  960TIP3   OH2 2885   4.431   5.379   4.401 -0.6569 -0.2712 -0.3348
  960TIP3    H1 2886   4.396   5.378   4.490 -0.8057  0.5856 -0.3772
  960TIP3    H2 2887   4.526   5.382   4.413 -0.6396 -1.0835 -0.2158
  961TIP3   OH2 2888   0.876   0.423   0.155 -0.6132  0.9074 -0.5253
  961TIP3    H1 2889   0.842   0.512   0.157 -0.7885  0.8332 -0.0847
  961TIP3    H2 2890   0.927   0.415   0.236 -2.6514 -0.1923  0.7222
  962TIP3   OH2 2891   5.767   3.636   4.262  0.1529 -0.3486  0.2070
  962TIP3    H1 2892   5.692   3.610   4.209 -0.4556  0.1946  0.7852
  962TIP3    H2 2893   5.782   3.561   4.321  0.1242 -0.4928  0.0304
  963TIP3   OH2 2894   3.041   2.548   0.349  0.3951  0.2880 -0.2121
  963TIP3    H1 2895   3.055   2.606   0.274  0.8581 -0.0509 -0.3943
  963TIP3    H2 2896   2.952   2.514   0.337 -0.6703  2.4392  0.9309
  964TIP3   OH2 2897   4.599   3.262   0.201  0.2332 -0.7812 -0.0217
  964TIP3    H1 2898   4.690   3.286   0.180  0.1501  0.3205  0.8523
  964TIP3    H2 2899   4.606   3.205   0.277  0.0595  1.6070  1.8823
  965TIP3   OH2 2900   3.094   1.966   4.296  0.3414  0.1884 -0.1312
  965TIP3    H1 2901   3.069   1.903   4.364 -0.4422 -0.2713 -0.8310
  965TIP3    H2 2902   3.119   1.912   4.222  0.9911  0.6942 -0.2817
  966TIP3   OH2 2903   0.502   4.323   0.944  0.1765  0.1356 -0.1856
  966TIP3    H1 2904   0.532   4.402   0.990  0.0416  0.5021 -0.7208
  966TIP3    H2 2905   0.537   4.250   0.996 -0.0610  0.5403  0.5525
  967TIP3   OH2 2906   2.236   1.025   0.279  0.0117  0.1707 -0.6038
  967TIP3    H1 2907   2.302   1.048   0.345 -0.0877 -0.2837 -0.3427
  967TIP3    H2 2908   2.212   1.109   0.239 -3.5662  1.4034  3.3278
  968TIP3   OH2 2909   5.297   3.057   4.361  0.2257 -0.1884  0.0450
  968TIP3    H1 2910   5.228   2.991   4.367 -0.5677  0.5479 -0.5684
  968TIP3    H2 2911   5.346   3.049   4.442 -0.7445 -0.5800  0.6088
  969TIP3   OH2 2912   2.206   0.069   1.835  0.4487 -0.0260  0.0011
  969TIP3    H1 2913   2.187   0.002   1.769  2.0698 -0.8591  0.3369
  969TIP3    H2 2914   2.285   0.112   1.803  1.5129 -0.7228  1.5588
  970TIP3   OH2 2915   4.057   1.770   0.750 -0.3679  0.1533 -0.2459
  970TIP3    H1 2916   4.058   1.764   0.655 -0.5537  0.2089 -0.2529
  970TIP3    H2 2917   4.044   1.681   0.781  1.0660 -0.0764 -0.2324
  971TIP3   OH2 2918   3.810   5.665   1.510 -0.0271 -0.1629  0.6202
  971TIP3    H1 2919   3.760   5.746   1.513  1.4288  0.7393  1.5319
  971TIP3    H2 2920   3.892   5.689   1.467 -0.2421 -1.5652 -0.6743
  972TIP3   OH2 2921   4.900   1.434   4.284  0.2068 -0.7785 -0.2013
  972TIP3    H1 2922   4.909   1.518   4.328 -0.4454 -0.2798 -0.9916
  972TIP3    H2 2923   4.990   1.402   4.273  0.5011  0.1338 -0.4933
  973TIP3   OH2 2924   3.554   2.152   3.855  0.6961 -0.4356  0.5326
  973TIP3    H1 2925   3.491   2.141   3.926 -0.4684 -0.8053 -0.5341
  973TIP3    H2 2926   3.544   2.074   3.801 -0.5776  1.1358 -1.6643
  974TIP3   OH2 2927   5.834   5.483   1.681 -0.3404 -0.1738  0.0039
  974TIP3    H1 2928   5.755   5.520   1.641  0.6130 -0.3292 -2.1142
  974TIP3    H2 2929   5.828   5.389   1.664  1.3721  0.0496 -2.3146
  975TIP3   OH2 2930   2.037   1.809   3.218  0.2104  0.5526 -0.1138
  975TIP3    H1 2931   2.019   1.903   3.218 -0.6115  0.3983 -0.4234
  975TIP3    H2 2932   2.013   1.780   3.307 -0.0636  0.5416 -0.1896
  976TIP3   OH2 2933   3.713   3.075   3.181  0.2166 -0.7522 -0.1911
  976TIP3    H1 2934   3.785   3.138   3.178  0.6001 -1.2162 -1.1430
  976TIP3    H2 2935   3.646   3.113   3.124  0.0075 -0.6873  0.0943
  977TIP3   OH2 2936   4.411   4.039   2.701  0.2423 -0.2043  0.9406
  977TIP3    H1 2937   4.417   3.962   2.645 -1.6337 -0.6363  1.2526
  977TIP3    H2 2938   4.439   4.008   2.787  4.5382  0.8079  0.1161
  978TIP3   OH2 2939   2.319   2.753   1.410 -0.1795  0.4496 -0.1456
  978TIP3    H1 2940   2.325   2.684   1.475  1.8713  1.1118  0.4537
  978TIP3    H2 2941   2.356   2.714   1.330 -1.3632  0.0893 -0.5330
  979TIP3   OH2 2942   1.633   2.446   2.980  0.0464 -0.5323 -0.2414
  979TIP3    H1 2943   1.707   2.494   2.941 -0.3084 -0.1378 -0.4343
  979TIP3    H2 2944   1.673   2.393   3.049  0.1273  2.0812  1.8930
  980TIP3   OH2 2945   5.866   4.710   0.504  0.5096 -0.0787 -0.4781
  980TIP3    H1 2946   5.894   4.799   0.526  0.9905 -0.6644  1.5014
  980TIP3    H2 2947   5.771   4.711   0.512  0.6514 -0.4221  2.8101
  981TIP3   OH2 2948   0.414   5.715   4.911 -0.1243 -0.0344  0.0924
  981TIP3    H1 2949   0.379   5.641   4.960  1.4778 -1.3322 -0.5941
  981TIP3    H2 2950   0.428   5.680   4.823 -3.3352  2.3277 -1.5563
  982TIP3   OH2 2951   4.187   1.478   1.964  0.1661 -0.2083 -0.2434
  982TIP3    H1 2952   4.241   1.479   2.044 -0.3121  0.4053  0.0822
  982TIP3    H2 2953   4.098   1.462   1.996 -0.3256  1.8368 -0.4424
  983TIP3   OH2 2954   0.388   4.304   4.647 -0.2335 -0.0417 -0.3695
  983TIP3    H1 2955   0.340   4.317   4.566 -0.7462 -1.1382 -0.2554
  983TIP3    H2 2956   0.321   4.282   4.712  0.1477  0.9963  0.4044
  984TIP3   OH2 2957   2.315   5.137   0.201 -0.0200  0.1763 -0.1968
  984TIP3    H1 2958   2.378   5.080   0.156 -0.5287  0.6525 -1.5676
  984TIP3    H2 2959   2.232   5.122   0.156 -0.4507  1.0273  0.2818
  985TIP3   OH2 2960   1.614   0.184   3.538 -0.2442 -0.8515 -0.5991
  985TIP3    H1 2961   1.640   0.109   3.484 -1.1373 -0.3646 -1.7465
  985TIP3    H2 2962   1.585   0.249   3.475  1.4186  0.8593  0.2994
  986TIP3   OH2 2963   3.947   0.238   2.218  0.0877  0.5521 -0.3756
  986TIP3    H1 2964   3.922   0.262   2.129  0.2522 -0.1951 -0.6313
  986TIP3    H2 2965   3.932   0.317   2.269 -1.2637  0.6053 -0.8170
  987TIP3   OH2 2966   2.769   0.500   2.864 -0.1431 -0.3403  0.4908
  987TIP3    H1 2967   2.676   0.523   2.866 -0.2832 -0.7068 -0.9431
  987TIP3    H2 2968   2.814   0.583   2.879 -0.6964 -0.1345  1.0532
  988TIP3   OH2 2969   6.222   2.611   0.810 -0.2129 -0.4367  0.1618
  988TIP3    H1 2970   6.243   2.564   0.729  3.0923  0.5614  0.2578
  988TIP3    H2 2971   6.154   2.673   0.784  0.2280 -0.6547 -1.7012
  989TIP3   OH2 2972   0.999   4.847   0.323 -0.3997  0.4015 -0.1420
  989TIP3    H1 2973   1.046   4.896   0.255  0.9668 -1.1969 -0.4258
  989TIP3    H2 2974   1.068   4.803   0.372 -1.5479 -1.8227 -0.3918
  990TIP3   OH2 2975   2.878   3.876   1.537 -0.6760 -0.2476 -0.3353
  990TIP3    H1 2976   2.791   3.845   1.511 -1.5363  1.3662  0.4680
  990TIP3    H2 2977   2.894   3.834   1.622 -1.7534  1.2622  0.6609
  991TIP3   OH2 2978   1.374   1.300   2.121  0.0165  0.7004  0.0469
  991TIP3    H1 2979   1.405   1.219   2.162  0.0859  1.5010  1.6369
  991TIP3    H2 2980   1.281   1.284   2.104  0.3328 -0.2053 -0.9637
  992TIP3   OH2 2981   1.457   1.202   1.106  0.7820 -0.0428 -0.0843
  992TIP3    H1 2982   1.425   1.275   1.052  1.9199  1.1718  0.8184
  992TIP3    H2 2983   1.440   1.229   1.196 -1.1957 -2.1040  0.2401
  993TIP3   OH2 2984   1.473   1.953   3.990  0.1846  0.0770 -0.0293
  993TIP3    H1 2985   1.560   1.967   3.953  0.8175 -1.0919  0.9395
  993TIP3    H2 2986   1.488   1.943   4.084 -1.1349  0.9157  0.3070
  994TIP3   OH2 2987   6.107   5.125   4.312 -0.3391 -0.6519 -0.3170
  994TIP3    H1 2988   6.125   5.045   4.361 -1.8765 -1.0657 -0.3869
  994TIP3    H2 2989   6.118   5.195   4.376  1.4888 -0.8444 -0.3682
  995TIP3   OH2 2990   5.314   4.215   4.469  0.1372 -0.1632  0.3992
  995TIP3    H1 2991   5.309   4.310   4.460  2.4077 -0.0724 -0.5860
  995TIP3    H2 2992   5.240   4.182   4.417  0.9489  1.0427 -1.6252
  996TIP3   OH2 2993   3.190   4.144   0.187 -0.2418 -0.0040  0.3460
  996TIP3    H1 2994   3.197   4.110   0.276  2.0337 -1.4186 -0.3085
  996TIP3    H2 2995   3.251   4.218   0.185 -0.9877  0.6308  0.1755
  997TIP3   OH2 2996   0.149   3.950   3.091 -0.1117  0.4263  0.5048
  997TIP3    H1 2997   0.161   4.004   3.169 -0.6683 -1.0738  1.6947
  997TIP3    H2 2998   0.056   3.929   3.091  0.1148 -0.6805  0.2328
  998TIP3   OH2 2999   2.422   1.170   1.457 -0.1826 -0.2413  0.8685
  998TIP3    H1 3000   2.463   1.233   1.398 -0.9083 -0.1964  0.4007
  998TIP3    H2 3001   2.446   1.084   1.422 -0.3985 -0.2145  0.6465
  999TIP3   OH2 3002   0.375   2.842   3.928  0.3235  0.4188 -0.2834
  999TIP3    H1 3003   0.309   2.780   3.894  0.2275  0.4294 -0.1162
  999TIP3    H2 3004   0.369   2.917   3.869 -1.1250  1.2190  0.8146
 1000TIP3   OH2 3005   5.480   2.785   0.798 -0.2178  0.2686 -0.0094
 1000TIP3    H1 3006   5.500   2.692   0.795 -1.2202  0.0386 -0.1054
 1000TIP3    H2 3007   5.534   2.824   0.729  0.3383 -0.2058  0.1517
 1001TIP3   OH2 3008   3.594   3.894   1.244  0.5624 -0.4299  0.3398
 1001TIP3    H1 3009   3.528   3.866   1.307  1.8534  0.2536  2.0508
 1001TIP3    H2 3010   3.651   3.818   1.233  1.6440  0.1245  1.7884
 1002TIP3   OH2 3011   5.667   5.635   1.516 -0.2446  0.4558  0.5499
 1002TIP3    H1 3012   5.572   5.629   1.519 -0.2891 -0.1581 -1.0260
 1002TIP3    H2 3013   5.685   5.698   1.446  0.4933 -1.6332 -1.2405
 1003TIP3   OH2 3014   5.569   4.983   3.242 -0.1723  0.4866  0.4280
 1003TIP3    H1 3015   5.582   5.039   3.165 -0.2770 -2.2805 -1.7759
 1003TIP3    H2 3016   5.482   5.006   3.274  0.2363  2.3234  0.3521
 1004TIP3   OH2 3017   6.166   5.434   5.149  0.2589  0.0859  0.7791
 1004TIP3    H1 3018   6.185   5.521   5.115 -1.1080 -0.3251 -1.2374
 1004TIP3    H2 3019   6.190   5.375   5.078  2.8868 -1.4293  2.7516
 1005TIP3   OH2 3020   4.786   4.314   1.751  0.6249  0.0255  0.3382
 1005TIP3    H1 3021   4.842   4.240   1.730 -0.6748 -0.8966  0.0375
 1005TIP3    H2 3022   4.803   4.377   1.681 -1.0148 -1.5545 -1.6018
 1006TIP3   OH2 3023   5.330   4.439   4.142  0.2485 -0.0446 -0.3767
 1006TIP3    H1 3024   5.339   4.344   4.139  1.4301  0.0750 -1.0680
 1006TIP3    H2 3025   5.265   4.454   4.211 -1.7502 -1.4371 -1.8146
 1007TIP3   OH2 3026   4.214   1.515   0.446 -0.1372 -0.0603 -0.1292
 1007TIP3    H1 3027   4.183   1.597   0.407 -1.0415 -1.0093 -1.5343
 1007TIP3    H2 3028   4.175   1.514   0.533 -0.7809  0.6505 -0.3941
 1008TIP3   OH2 3029   1.332   1.784   3.409 -0.0700 -1.1428  0.0080
 1008TIP3    H1 3030   1.243   1.816   3.422  0.2162 -0.1055 -0.5113
 1008TIP3    H2 3031   1.382   1.825   3.480  0.1280 -1.2075 -0.0952
 1009TIP3   OH2 3032   3.488   0.356   4.419 -0.4097 -0.5479 -0.1205
 1009TIP3    H1 3033   3.428   0.346   4.493  0.3954 -1.4629  0.4207
 1009TIP3    H2 3034   3.572   0.378   4.458 -0.3410  0.6540 -0.8749
 1010TIP3   OH2 3035   3.384   3.946   1.718 -0.1919 -0.0224  0.0433
 1010TIP3    H1 3036   3.325   3.873   1.700  0.9739 -0.7990 -0.7489
 1010TIP3    H2 3037   3.409   3.978   1.631 -0.9932  1.6075  0.3722
 1011TIP3   OH2 3038   0.346   2.500   3.126 -0.0161 -0.4177 -0.4989
 1011TIP3    H1 3039   0.251   2.483   3.128 -0.2574  0.9335  0.5106
 1011TIP3    H2 3040   0.375   2.460   3.044 -0.8729 -3.7003  0.6056
 1012TIP3   OH2 3041   5.701   2.549   4.086 -0.1739 -0.5487 -0.0410
 1012TIP3    H1 3042   5.712   2.479   4.151 -0.9624 -0.6392 -0.0059
 1012TIP3    H2 3043   5.735   2.511   4.005  0.7841 -0.4465  0.2964
 1013TIP3   OH2 3044   1.005   1.877   3.830 -0.4231  0.2515  0.5162
 1013TIP3    H1 3045   1.062   1.803   3.807  1.4530  1.2064  1.8410
 1013TIP3    H2 3046   0.975   1.910   3.745  2.1353  0.5272 -0.3671
 1014TIP3   OH2 3047   3.750   0.648   1.485 -0.1935 -0.2624 -0.2411
 1014TIP3    H1 3048   3.808   0.675   1.556 -0.0593 -0.2607 -0.3517
 1014TIP3    H2 3049   3.732   0.556   1.503 -0.4882 -0.1545  0.0230
 1015TIP3   OH2 3050   3.356   1.636   1.888  0.2318 -0.1577  0.1567
 1015TIP3    H1 3051   3.444   1.648   1.851 -0.1420  2.7421 -0.0124
 1015TIP3    H2 3052   3.351   1.700   1.959 -1.9769  0.2483 -0.2889
 1016TIP3   OH2 3053   4.148   2.034   2.237  0.2374  0.4152  0.2103
 1016TIP3    H1 3054   4.117   2.114   2.195 -1.6358  0.2824  1.2315
 1016TIP3    H2 3055   4.192   2.064   2.317 -0.5610  0.4468  0.6500
 1017TIP3   OH2 3056   0.193   4.162   3.576  0.4596  0.1598 -0.8679
 1017TIP3    H1 3057   0.184   4.245   3.531  1.4502  0.7120 -0.0970
 1017TIP3    H2 3058   0.104   4.128   3.584  0.0489  1.1414 -1.1905
 1018TIP3   OH2 3059   4.172   2.100   0.064 -0.4627 -0.0537  0.3293
 1018TIP3    H1 3060   4.248   2.157   0.053 -0.9851  1.3149  3.0162
 1018TIP3    H2 3061   4.108   2.132   0.001  0.3507  0.3212 -0.3125
 1019TIP3   OH2 3062   4.511   4.946   3.932  0.3688 -0.4759  0.0001
 1019TIP3    H1 3063   4.511   4.970   4.025  0.2452  0.3016 -0.1962
 1019TIP3    H2 3064   4.602   4.920   3.914  0.2434 -1.2999  0.4994
 1020TIP3   OH2 3065   2.342   2.037   2.952  0.1502 -0.1663  0.2518
 1020TIP3    H1 3066   2.367   2.073   2.867  1.9693  0.5443  1.0286
 1020TIP3    H2 3067   2.309   2.113   3.000  0.8891 -0.1831  0.7949
 1021TIP3   OH2 3068   1.432   5.484   5.146 -0.1053 -0.1247  0.2256
 1021TIP3    H1 3069   1.411   5.531   5.227  1.2016  1.7719 -0.4512
 1021TIP3    H2 3070   1.376   5.523   5.079  0.6460  0.1596 -0.2602
 1022TIP3   OH2 3071   5.178   1.874   4.438 -0.1672 -0.0078  0.4321
 1022TIP3    H1 3072   5.204   1.952   4.486 -0.4006 -0.3880  1.2004
 1022TIP3    H2 3073   5.145   1.906   4.354 -0.3374  0.7211  0.7740
 1023TIP3   OH2 3074   2.672   3.380   3.750  0.0623 -0.6359 -0.0178
 1023TIP3    H1 3075   2.643   3.324   3.677 -0.2035  0.5014 -0.8117
 1023TIP3    H2 3076   2.754   3.340   3.780  0.2237 -1.0827 -1.0075
 1024TIP3   OH2 3077   3.020   5.579   2.333  0.2676 -0.3950 -0.4086
 1024TIP3    H1 3078   3.052   5.505   2.281  0.3202 -1.7338  1.4188
 1024TIP3    H2 3079   2.971   5.633   2.272  1.7993 -0.9507 -2.2076
 1025TIP3   OH2 3080   0.542   3.692   0.634 -0.2182  0.2407  0.0430
 1025TIP3    H1 3081   0.602   3.627   0.598 -0.3358  0.0030  0.2686
 1025TIP3    H2 3082   0.455   3.659   0.614 -0.2826  1.0414 -1.0899
 1026TIP3   OH2 3083   0.422   1.132   2.115  0.7659  0.1932 -0.4019
 1026TIP3    H1 3084   0.386   1.196   2.053 -1.7125  0.3191  1.0458
 1026TIP3    H2 3085   0.480   1.184   2.171  0.2063  0.8228 -0.3896
 1027TIP3   OH2 3086   5.704   1.761   0.391 -0.5002  0.2807 -0.0034
 1027TIP3    H1 3087   5.773   1.827   0.384 -1.1089  0.8651 -0.5836
 1027TIP3    H2 3088   5.747   1.686   0.432  0.2956  0.9001  0.3192
 1028TIP3   OH2 3089   5.155   4.483   1.131 -0.1322 -0.0416 -0.3663
 1028TIP3    H1 3090   5.165   4.523   1.045  1.6037  1.2555  0.3722
 1028TIP3    H2 3091   5.198   4.544   1.191 -0.2757 -1.4673  1.2733
 1029TIP3   OH2 3092   2.178   2.193   2.290  0.3963  0.0076  0.5154
 1029TIP3    H1 3093   2.104   2.241   2.327 -0.2274  0.5418 -1.3348
 1029TIP3    H2 3094   2.242   2.189   2.362 -1.2143 -0.0600  1.9922
 1030TIP3   OH2 3095   3.778   4.111   2.948  0.1559  0.1874  0.4668
 1030TIP3    H1 3096   3.772   4.054   2.872 -0.1170  2.4657 -1.3496
 1030TIP3    H2 3097   3.688   4.139   2.964  0.4599  1.3412  0.2657
 1031TIP3   OH2 3098   0.720   4.394   3.155  0.2783 -0.1346 -0.0582
 1031TIP3    H1 3099   0.759   4.471   3.113  0.2995  0.3098  0.7496
 1031TIP3    H2 3100   0.688   4.427   3.239  1.1557 -1.2134  0.7240
 1032TIP3   OH2 3101   4.710   5.931   4.905  0.2377 -0.2976 -0.0121
 1032TIP3    H1 3102   4.685   5.881   4.827  1.1601 -0.2830 -0.3298
 1032TIP3    H2 3103   4.631   5.980   4.929  0.1850  0.3662 -1.4494
 1033TIP3   OH2 3104   6.046   4.063   1.438 -0.1573  0.5350  0.6459
 1033TIP3    H1 3105   6.023   4.025   1.522 -0.4965 -2.2967 -0.6084
 1033TIP3    H2 3106   5.962   4.085   1.398 -0.4901 -3.0987 -1.0015
 1034TIP3   OH2 3107   2.136   2.784   0.044 -0.0116 -0.0635 -0.2375
 1034TIP3    H1 3108   2.188   2.716   0.086  0.0702 -0.4842 -0.9907
 1034TIP3    H2 3109   2.156   2.775  -0.050 -2.2930 -1.0188 -0.7222
 1035TIP3   OH2 3110   0.493   4.681   2.424 -0.0340  0.0399 -0.3607
 1035TIP3    H1 3111   0.426   4.690   2.357  0.5179  0.9956 -0.8099
 1035TIP3    H2 3112   0.516   4.588   2.423 -0.4082 -0.0532 -1.1330
 1036TIP3   OH2 3113   5.250   0.210   4.445 -0.0213 -0.0030 -0.0516
 1036TIP3    H1 3114   5.333   0.243   4.481 -0.9394  1.7470  0.6011
 1036TIP3    H2 3115   5.183   0.244   4.504 -1.2754 -0.7584 -0.9824
 1037TIP3   OH2 3116   3.604   3.844   2.579  0.4512 -0.0853 -0.4157
 1037TIP3    H1 3117   3.626   3.766   2.631  0.5495 -0.6094 -1.2099
 1037TIP3    H2 3118   3.688   3.876   2.547  0.3848  0.1578 -0.3457
 1038TIP3   OH2 3119   0.004   1.572   3.270  0.7646  0.2556  0.1818
 1038TIP3    H1 3120   0.082   1.562   3.324  0.7910 -0.1718  0.0654
 1038TIP3    H2 3121  -0.041   1.648   3.307  1.0220  0.2498  0.5084
 1039TIP3   OH2 3122   1.416   3.750   4.149 -0.6586  0.1012 -0.5421
 1039TIP3    H1 3123   1.419   3.697   4.229 -1.3476  1.0029  0.0884
 1039TIP3    H2 3124   1.443   3.837   4.176 -0.6898  0.3681 -1.3369
 1040TIP3   OH2 3125   0.959   4.025   4.838  0.0114 -0.4366  0.0196
 1040TIP3    H1 3126   0.874   4.031   4.881  0.0676 -2.1866  0.4770
 1040TIP3    H2 3127   0.943   4.054   4.748 -1.8259 -3.3812 -0.7587
 1041TIP3   OH2 3128   6.080   2.637   4.946  0.1862  0.4486 -0.1926
 1041TIP3    H1 3129   6.097   2.557   4.896 -0.1966  0.5755 -0.5281
 1041TIP3    H2 3130   5.995   2.622   4.988  0.2393  0.5681 -0.0422
 1042TIP3   OH2 3131   1.608   1.808   2.234 -0.3556  0.6373 -0.1971
 1042TIP3    H1 3132   1.609   1.773   2.145  0.0092  1.5658 -0.5675
 1042TIP3    H2 3133   1.672   1.754   2.282 -2.1085 -1.3028  0.0995
 1043TIP3   OH2 3134   4.492   1.483   2.943 -0.0882 -0.1078  0.0991
 1043TIP3    H1 3135   4.443   1.546   2.996  1.2064  1.7680 -0.8032
 1043TIP3    H2 3136   4.437   1.468   2.867 -0.6349 -0.4918  0.5624
 1044TIP3   OH2 3137   3.124   3.276   1.287  0.1009 -0.7936 -0.1205
 1044TIP3    H1 3138   3.031   3.274   1.312  0.3350 -2.5043  0.8272
 1044TIP3    H2 3139   3.158   3.356   1.327 -0.8300 -0.4796  0.0756
 1045TIP3   OH2 3140   3.724   0.408   1.594 -0.3957  0.4789 -0.3037
 1045TIP3    H1 3141   3.743   0.367   1.509 -0.9790  0.3531 -0.3795
 1045TIP3    H2 3142   3.801   0.391   1.647  0.2643  1.1251 -1.0182
 1046TIP3   OH2 3143   3.996   4.429   1.133  0.1239 -0.1465 -0.3856
 1046TIP3    H1 3144   3.988   4.359   1.198 -1.2622 -1.3382 -1.7551
 1046TIP3    H2 3145   3.919   4.484   1.146 -0.9000 -1.1565 -1.8029
 1047TIP3   OH2 3146   6.380   4.853   4.836  0.4097 -0.2577  0.0416
 1047TIP3    H1 3147   6.305   4.865   4.895  0.9339 -0.2353  0.7145
 1047TIP3    H2 3148   6.355   4.780   4.780  0.2871 -0.9183  0.9324
 1048TIP3   OH2 3149   1.211   0.457   1.902  0.2353 -0.5424 -0.3957
 1048TIP3    H1 3150   1.125   0.491   1.874  0.6003 -0.8892 -2.0795
 1048TIP3    H2 3151   1.274   0.516   1.860  0.8681  0.5625  1.9477
 1049TIP3   OH2 3152   3.363   0.987   2.244 -0.3150  0.0654  0.8599
 1049TIP3    H1 3153   3.390   0.933   2.170  2.5984  1.2422  0.9166
 1049TIP3    H2 3154   3.441   0.993   2.299 -1.3897  1.9455  2.3215
 1050TIP3   OH2 3155   0.487   2.600   4.508  0.7794 -0.4215 -0.2489
 1050TIP3    H1 3156   0.570   2.642   4.530  0.7321 -0.1545 -0.5796
 1050TIP3    H2 3157   0.501   2.561   4.421  1.1826 -2.0587  0.5012
 1051TIP3   OH2 3158   5.098   0.666   1.757  0.6174 -0.3563  0.2216
 1051TIP3    H1 3159   5.098   0.594   1.693  3.2148  0.6474 -1.0450
 1051TIP3    H2 3160   5.095   0.622   1.842 -0.9794 -1.8008 -0.5225
 1052TIP3   OH2 3161   2.439   3.885   0.201  0.1084 -0.3711  0.3141
 1052TIP3    H1 3162   2.439   3.801   0.155  0.1274 -0.2348  0.0586
 1052TIP3    H2 3163   2.505   3.936   0.155  0.7441 -0.5238  1.0420
 1053TIP3   OH2 3164   5.078   2.050   3.360 -0.0032 -0.0725 -0.2802
 1053TIP3    H1 3165   4.991   2.010   3.355 -0.4741  0.8906 -0.2056
 1053TIP3    H2 3166   5.139   1.977   3.354 -0.8238 -0.8080  0.1268
 1054TIP3   OH2 3167   0.810   5.617   1.278  0.4247 -0.0453  0.8872
 1054TIP3    H1 3168   0.723   5.583   1.261  0.1613  1.1286 -0.2079
 1054TIP3    H2 3169   0.798   5.682   1.348  0.3534  0.3451  0.5194
 1055TIP3   OH2 3170   0.455   4.652   2.761  0.2174  0.5877  0.2871
 1055TIP3    H1 3171   0.398   4.597   2.707 -0.3694  1.4812 -0.0189
 1055TIP3    H2 3172   0.540   4.649   2.717  0.7153 -1.5097  1.2487
 1056TIP3   OH2 3173   1.076   5.577   0.466 -0.1941  0.0759 -0.0415
 1056TIP3    H1 3174   1.113   5.656   0.426 -0.1271 -0.4844 -1.1299
 1056TIP3    H2 3175   1.077   5.595   0.560 -1.3180  1.8687 -0.3074
 1057TIP3   OH2 3176   5.877   2.739   3.761 -0.2427  0.1831  0.5277
 1057TIP3    H1 3177   5.934   2.814   3.744  1.1957 -0.8870  0.4453
 1057TIP3    H2 3178   5.893   2.715   3.852  0.5462 -0.9862  0.1145
 1058TIP3   OH2 3179   3.985   1.132   4.718  0.1565  0.1961 -0.6443
 1058TIP3    H1 3180   4.039   1.116   4.641  0.3941  0.0665 -0.4551
 1058TIP3    H2 3181   3.910   1.073   4.709  1.4742 -1.7875  0.5004
 1059TIP3   OH2 3182   3.233   1.514   3.731 -0.0913 -1.2480 -1.1841
 1059TIP3    H1 3183   3.326   1.522   3.754 -0.4475 -1.5618  0.4705
 1059TIP3    H2 3184   3.233   1.493   3.638  1.4655 -0.4020 -1.4131
 1060TIP3   OH2 3185   2.959   3.310   2.202  0.0334 -0.2202 -0.5271
 1060TIP3    H1 3186   2.936   3.230   2.155 -0.2148  0.7620 -2.1446
 1060TIP3    H2 3187   2.894   3.317   2.272  0.4378 -1.7349  0.0418
 1061TIP3   OH2 3188   1.724   2.339   5.108  0.1863 -0.3106 -0.1538
 1061TIP3    H1 3189   1.685   2.420   5.073 -0.7002 -0.3133  0.8040
 1061TIP3    H2 3190   1.792   2.317   5.044 -1.9424 -0.8079 -2.4180
 1062TIP3   OH2 3191   5.423   5.878   4.469  0.0169  0.0656 -0.3051
 1062TIP3    H1 3192   5.436   5.972   4.482  0.1928  0.2709 -1.7805
 1062TIP3    H2 3193   5.401   5.845   4.556 -0.2429  1.4997  0.2119
 1063TIP3   OH2 3194   0.972   2.591   0.538  0.7752 -0.3188  0.1224
 1063TIP3    H1 3195   0.914   2.663   0.562 -1.4769 -1.7212 -0.8822
 1063TIP3    H2 3196   1.043   2.596   0.602  1.3980  3.4848 -0.6286
 1064TIP3   OH2 3197   4.884   3.678   4.621  0.4505  0.3084  0.1874
 1064TIP3    H1 3198   4.819   3.733   4.579  0.7304  0.0750 -0.5675
 1064TIP3    H2 3199   4.838   3.595   4.636  0.9941 -0.3861 -1.7521
 1065TIP3   OH2 3200   4.889   4.258   3.809  0.3808 -0.0330  0.0211
 1065TIP3    H1 3201   4.845   4.342   3.822 -0.5951 -0.4522 -0.4161
 1065TIP3    H2 3202   4.940   4.269   3.729 -1.2215 -0.3856 -1.1170
 1066TIP3   OH2 3203   4.523   2.143   2.057 -0.6116  0.0951 -0.6898
 1066TIP3    H1 3204   4.562   2.122   1.972 -2.1971  0.9303 -1.6805
 1066TIP3    H2 3205   4.539   2.065   2.111  0.1776 -0.5701 -1.8412
 1067TIP3   OH2 3206   0.173   3.120   2.508  0.0442 -0.3522  0.7104
 1067TIP3    H1 3207   0.257   3.095   2.470  0.3178  1.9612 -0.3854
 1067TIP3    H2 3208   0.109   3.107   2.437 -0.0563  0.4090  0.6462
 1068TIP3   OH2 3209   0.022   5.382   1.110  0.3635  0.4833  0.6087
 1068TIP3    H1 3210   0.111   5.347   1.108  0.0335 -0.4457 -2.0652
 1068TIP3    H2 3211  -0.034   5.306   1.128  0.0169  0.7860  0.8305
 1069TIP3   OH2 3212   3.597   5.019   4.451 -0.1931  0.0873 -0.0501
 1069TIP3    H1 3213   3.650   5.071   4.391  1.6750 -1.7383 -0.0749
 1069TIP3    H2 3214   3.609   5.062   4.536  0.6347  0.2156 -0.2254
 1070TIP3   OH2 3215  -0.003   0.594   2.041  0.6887  0.0939  0.1085
 1070TIP3    H1 3216   0.053   0.539   1.988  3.7872  2.6689  0.3992
 1070TIP3    H2 3217   0.014   0.566   2.131  1.2015  0.5750  0.1672
 1071TIP3   OH2 3218   0.590   1.718   1.937  0.2674 -0.5205 -0.1816
 1071TIP3    H1 3219   0.668   1.671   1.907 -0.1111 -1.9952  1.0163
 1071TIP3    H2 3220   0.518   1.657   1.922 -0.6546  0.7300 -1.0389
 1072TIP3   OH2 3221   4.220   2.361   4.867  0.1526 -0.3113 -0.3978
 1072TIP3    H1 3222   4.266   2.304   4.929  3.0192  2.1271 -0.0818
 1072TIP3    H2 3223   4.199   2.439   4.918 -1.4377 -0.0004 -1.4585
 1073TIP3   OH2 3224   5.912   5.015   1.777  0.3736 -0.2555  0.3825
 1073TIP3    H1 3225   5.898   4.934   1.728  1.5653 -0.5472  0.4892
 1073TIP3    H2 3226   5.846   5.012   1.846 -1.0707 -0.0230 -0.9398
 1074TIP3   OH2 3227   3.225   1.857   2.786  0.5762 -0.1939  0.1006
 1074TIP3    H1 3228   3.175   1.818   2.858 -1.0133  1.0713 -0.2647
 1074TIP3    H2 3229   3.294   1.793   2.767 -2.2326 -3.2041 -0.8820
 1075TIP3   OH2 3230   4.922   0.711   3.859 -0.3292  0.2307 -0.3667
 1075TIP3    H1 3231   4.944   0.785   3.915 -1.2773 -0.7460  1.3805
 1075TIP3    H2 3232   4.843   0.673   3.898  0.9020 -2.5385 -0.2969
 1076TIP3   OH2 3233   5.430   3.974   4.345 -0.0123 -0.1426 -0.1595
 1076TIP3    H1 3234   5.520   3.941   4.342 -0.1603 -0.5191 -1.6291
 1076TIP3    H2 3235   5.440   4.069   4.350  0.5984  0.0982 -3.5208
 1077TIP3   OH2 3236   3.029   5.824   3.453  0.2122 -0.3004  0.2485
 1077TIP3    H1 3237   3.022   5.758   3.384 -0.7039  0.9600 -0.9000
 1077TIP3    H2 3238   2.969   5.794   3.521 -1.2797  0.0473 -0.8772
 1078TIP3   OH2 3239   4.526   1.198   3.683  0.0460 -0.7422  0.2597
 1078TIP3    H1 3240   4.578   1.120   3.702 -0.6006 -1.4688 -0.8060
 1078TIP3    H2 3241   4.473   1.173   3.607  0.2564  0.9434 -0.4789
 1079TIP3   OH2 3242   4.862   1.437   1.088  0.6086 -0.0510 -0.0477
 1079TIP3    H1 3243   4.768   1.419   1.098  0.2837 -0.1615 -2.6202
 1079TIP3    H2 3244   4.901   1.352   1.070  0.8270  0.2711 -1.1751
 1080TIP3   OH2 3245   3.130   2.944   3.547 -0.2828  0.0899  0.1421
 1080TIP3    H1 3246   3.143   2.924   3.639 -0.6335 -1.5402 -0.1309
 1080TIP3    H2 3247   3.196   2.892   3.501  0.5066  1.5817 -0.5140
 1081TIP3   OH2 3248   3.593   2.877   1.632 -0.3951 -0.1691  0.3919
 1081TIP3    H1 3249   3.568   2.795   1.589  1.0730  0.5292 -2.0064
 1081TIP3    H2 3250   3.679   2.858   1.671  0.5010  0.4686 -1.1725
 1082TIP3   OH2 3251   0.354   2.290   4.225  0.9264 -0.0809  0.3189
 1082TIP3    H1 3252   0.437   2.319   4.186  1.6606  0.6726  2.2938
 1082TIP3    H2 3253   0.351   2.196   4.208  2.0636 -0.0737  0.0075
 1083TIP3   OH2 3254   2.169   1.656   4.522  0.0164  0.0104 -0.5544
 1083TIP3    H1 3255   2.137   1.585   4.465 -1.3321  0.2980 -0.1915
 1083TIP3    H2 3256   2.234   1.614   4.578 -2.1602 -1.4917  1.0295
 1084TIP3   OH2 3257   5.945   5.756   0.156  0.7829  0.1576 -0.0968
 1084TIP3    H1 3258   6.017   5.811   0.187  1.8337 -1.0214 -0.3593
 1084TIP3    H2 3259   5.985   5.670   0.140 -0.3664 -0.1403 -1.6680
 1085TIP3   OH2 3260   2.335   2.176   0.714 -0.2189  0.6487  0.2169
 1085TIP3    H1 3261   2.390   2.111   0.758  1.7289  1.1821 -1.2970
 1085TIP3    H2 3262   2.272   2.203   0.781  0.2470 -1.2477  1.5092
 1086TIP3   OH2 3263   6.285   5.708   0.254 -0.2604 -0.2591 -0.1811
 1086TIP3    H1 3264   6.247   5.772   0.314  0.3199 -1.8556  1.9828
 1086TIP3    H2 3265   6.312   5.760   0.178  2.1942  2.4772  2.3317
 1087TIP3   OH2 3266   5.098   3.496   4.270  0.3884 -0.0662 -0.1497
 1087TIP3    H1 3267   5.164   3.554   4.308 -1.3640  2.5058 -0.7543
 1087TIP3    H2 3268   5.086   3.428   4.335  2.3384  0.3539  0.7450
 1088TIP3   OH2 3269   4.135   4.249   3.487 -0.4046 -0.1869  0.4814
 1088TIP3    H1 3270   4.185   4.179   3.531 -0.8810 -1.6917 -1.2364
 1088TIP3    H2 3271   4.051   4.251   3.532 -0.8943 -1.7248 -0.2747
 1089TIP3   OH2 3272   2.950   2.821   2.625 -0.1283 -0.1184  0.2076
 1089TIP3    H1 3273   3.003   2.835   2.703  1.3929 -0.2054 -0.7646
 1089TIP3    H2 3274   2.984   2.885   2.562 -0.3074 -1.0422 -0.8491
 1090TIP3   OH2 3275   2.142   2.505   2.565  0.2448 -0.0060 -0.2511
 1090TIP3    H1 3276   2.126   2.599   2.551  1.7782  0.1454 -1.1949
 1090TIP3    H2 3277   2.229   2.490   2.528  1.0489 -1.3402  2.0318
 1091TIP3   OH2 3278   5.220   5.426   0.572 -0.8308  0.2292 -0.2727
 1091TIP3    H1 3279   5.262   5.398   0.653 -4.2000 -1.0474  1.2374
 1091TIP3    H2 3280   5.215   5.522   0.580  1.2820  0.4011 -0.3712
 1092TIP3   OH2 3281   3.705   3.827   4.229 -0.0266 -0.2253 -0.0774
 1092TIP3    H1 3282   3.747   3.912   4.242 -1.1039 -0.0111  2.5034
 1092TIP3    H2 3283   3.648   3.840   4.153  0.5446  1.0436 -0.3177
 1093TIP3   OH2 3284   2.297   3.057   0.973  0.0850  0.0961 -0.0602
 1093TIP3    H1 3285   2.338   2.983   1.017  0.2525  0.5401  0.5374
 1093TIP3    H2 3286   2.221   3.079   1.027 -1.3187 -1.0967 -1.4742
 1094TIP3   OH2 3287   1.901   4.505   3.542 -0.1182  0.1013 -0.2446
 1094TIP3    H1 3288   1.920   4.412   3.532 -0.4822 -0.1579  1.1583
 1094TIP3    H2 3289   1.831   4.523   3.479 -0.9443 -0.8913  0.3631
 1095TIP3   OH2 3290   1.770   2.052   0.495  0.6204  0.1093  0.2778
 1095TIP3    H1 3291   1.860   2.020   0.501  0.4976  0.1056  3.0329
 1095TIP3    H2 3292   1.777   2.146   0.513  0.1502  0.3124 -0.5200
 1096TIP3   OH2 3293   1.600   3.466   4.890 -0.1023 -0.3819 -0.0558
 1096TIP3    H1 3294   1.690   3.452   4.920 -0.3640  1.5575  1.8735
 1096TIP3    H2 3295   1.608   3.494   4.799  1.2873  0.2920  0.2611
 1097TIP3   OH2 3296   3.108   4.534   1.458 -0.0401 -0.8715 -0.0449
 1097TIP3    H1 3297   3.111   4.513   1.552  1.4986  0.0547  0.1446
 1097TIP3    H2 3298   3.197   4.516   1.427 -0.2423 -0.1196 -1.0993
 1098TIP3   OH2 3299   3.799   3.298   4.799 -0.8213 -0.0064  0.1833
 1098TIP3    H1 3300   3.821   3.350   4.876 -0.8528  1.0975 -0.5345
 1098TIP3    H2 3301   3.882   3.260   4.771 -0.4864  1.0244 -0.2584
 1099TIP3   OH2 3302   2.711   1.111   2.805  0.1748  0.2556  0.2630
 1099TIP3    H1 3303   2.766   1.108   2.727 -0.7164 -1.4767 -0.3635
 1099TIP3    H2 3304   2.626   1.078   2.775 -0.8358  1.6433  1.4804
 1100TIP3   OH2 3305   2.217   5.249   0.678 -0.1248  0.1725  0.3838
 1100TIP3    H1 3306   2.147   5.262   0.614 -1.5315 -2.6297  1.1992
 1100TIP3    H2 3307   2.292   5.219   0.627 -0.2163  1.0047 -0.2597
 1101TIP3   OH2 3308   2.830   4.116   3.034  0.0589 -0.4113 -0.1884
 1101TIP3    H1 3309   2.873   4.124   2.949  0.9612  0.1736  0.3035
 1101TIP3    H2 3310   2.856   4.030   3.067  0.6946 -0.1542  0.0055
 1102TIP3   OH2 3311   4.494   4.650   0.922 -0.1211  0.1399  0.4410
 1102TIP3    H1 3312   4.444   4.582   0.876  1.5113 -1.9612  1.6205
 1102TIP3    H2 3313   4.427   4.703   0.966 -1.4372 -0.8159 -0.3399
 1103TIP3   OH2 3314   2.263   4.550   0.149  0.0324 -0.2621 -0.4295
 1103TIP3    H1 3315   2.170   4.532   0.133 -0.5342  0.4311  1.7425
 1103TIP3    H2 3316   2.301   4.464   0.167  0.4540 -0.9195 -3.7264
 1104TIP3   OH2 3317   1.991   2.804   5.081 -0.2375 -0.5591 -0.1976
 1104TIP3    H1 3318   2.067   2.766   5.124 -1.1723 -3.2142 -0.7353
 1104TIP3    H2 3319   2.025   2.843   5.001  0.5220 -2.3424 -0.7926
 1105TIP3   OH2 3320   3.312   4.242   3.891  0.5510 -0.4170 -0.0850
 1105TIP3    H1 3321   3.304   4.148   3.872  2.1293 -0.9466  1.5504
 1105TIP3    H2 3322   3.354   4.245   3.977 -2.0233  1.7918  1.2558
 1106TIP3   OH2 3323   4.073   2.277   1.681 -0.0005  0.4471 -0.0011
 1106TIP3    H1 3324   4.059   2.187   1.712  0.0382  0.5730  0.3892
 1106TIP3    H2 3325   4.150   2.270   1.624  0.4016  0.3368  0.5387
 1107TIP3   OH2 3326   1.364   3.924   2.987  0.9854  0.5228  0.0379
 1107TIP3    H1 3327   1.385   3.942   2.896 -1.0021 -0.5352 -0.7038
 1107TIP3    H2 3328   1.411   3.990   3.037  0.6265  2.3315 -1.9080
 1108TIP3   OH2 3329   4.745   3.333   0.727  0.3355  0.2255  0.5073
 1108TIP3    H1 3330   4.659   3.299   0.752  0.5797 -0.5828  0.2733
 1108TIP3    H2 3331   4.726   3.401   0.662 -0.1583  0.4818  0.9163
 1109TIP3   OH2 3332   2.294   0.338   1.474 -0.4488  0.4315 -0.5440
 1109TIP3    H1 3333   2.232   0.411   1.477 -0.1423  0.7348 -1.3565
 1109TIP3    H2 3334   2.285   0.302   1.386  0.2307  0.2062 -0.5263
 1110TIP3   OH2 3335   1.336   3.856   0.075  0.2503  0.6405  0.0828
 1110TIP3    H1 3336   1.263   3.831   0.132  0.9047  1.2206  1.2085
 1110TIP3    H2 3337   1.304   3.931   0.026  0.0637  0.8665  0.5448
 1111TIP3   OH2 3338   5.168   1.296   2.741  0.2273  0.0504 -0.0149
 1111TIP3    H1 3339   5.196   1.381   2.709 -0.4645 -0.1142 -1.0930
 1111TIP3    H2 3340   5.123   1.315   2.824  0.3944  0.6818 -0.0656
 1112TIP3   OH2 3341   4.669   1.819   1.802 -0.0197  0.5546  0.6606
 1112TIP3    H1 3342   4.581   1.785   1.822  0.2339 -1.5037 -1.3155
 1112TIP3    H2 3343   4.724   1.784   1.872 -0.3701 -0.2601  0.5390
 1113TIP3   OH2 3344   0.643   0.841   4.324 -0.0113 -0.4723  0.2975
 1113TIP3    H1 3345   0.591   0.765   4.301 -0.5756  0.1006 -0.3536
 1113TIP3    H2 3346   0.661   0.830   4.418  1.6306 -2.4114 -0.1631
 1114TIP3   OH2 3347   2.502   3.264   1.010 -0.2888 -0.4079  0.1505
 1114TIP3    H1 3348   2.434   3.197   1.016  2.1710 -3.0770  0.4667
 1114TIP3    H2 3349   2.530   3.263   0.919 -0.0556  0.0003  0.2123
 1115TIP3   OH2 3350   0.937   3.390   2.469  0.4726  0.6305  0.2207
 1115TIP3    H1 3351   0.880   3.467   2.469  0.6895  0.7942  0.5874
 1115TIP3    H2 3352   0.960   3.377   2.377 -0.2149  0.5182  0.0636
 1116TIP3   OH2 3353   4.249   0.137   2.540  0.0379 -0.1342  0.7594
 1116TIP3    H1 3354   4.337   0.166   2.514  0.6425 -1.4120  1.2914
 1116TIP3    H2 3355   4.261   0.104   2.630 -0.4820 -2.3641  0.0784
 1117TIP3   OH2 3356   0.843   1.692   2.686  0.7756 -1.1092 -0.1946
 1117TIP3    H1 3357   0.791   1.659   2.612  1.3748 -2.4330 -0.0684
 1117TIP3    H2 3358   0.929   1.708   2.649  0.6137 -0.0793 -0.1446
 1118TIP3   OH2 3359   3.044   2.040   0.422  0.3552  0.0185  0.4030
 1118TIP3    H1 3360   2.982   1.970   0.401  0.1168  0.4011 -0.1937
 1118TIP3    H2 3361   3.015   2.072   0.507 -2.9958  3.0515 -1.5828
 1119TIP3   OH2 3362   0.231   5.213   1.141  0.6115  0.5392 -0.4647
 1119TIP3    H1 3363   0.277   5.168   1.070  1.7186  0.4447  0.2846
 1119TIP3    H2 3364   0.218   5.146   1.208  0.3727  0.8353 -0.2094
 1120TIP3   OH2 3365   0.815   5.215   3.430 -0.3008  0.1224 -0.0547
 1120TIP3    H1 3366   0.854   5.142   3.478  0.1790  0.2626 -0.2213
 1120TIP3    H2 3367   0.762   5.262   3.495  1.6899  1.3132  0.8079
 1121TIP3   OH2 3368   1.437   3.467   1.593  0.2062 -0.1734 -0.1887
 1121TIP3    H1 3369   1.519   3.455   1.641  0.5777  1.4109 -0.3742
 1121TIP3    H2 3370   1.424   3.384   1.547  1.5219 -0.5760  0.1141
 1122TIP3   OH2 3371   1.570   5.944   1.921 -0.5084  0.4259 -0.2354
 1122TIP3    H1 3372   1.554   5.928   1.828 -1.1519 -0.2107 -0.0321
 1122TIP3    H2 3373   1.644   5.888   1.943 -1.1620 -0.4101 -0.0934
 1123TIP3   OH2 3374   3.748   2.294   0.512  0.0530 -0.6000 -0.4299
 1123TIP3    H1 3375   3.681   2.349   0.471 -0.0167 -0.3104  0.0749
 1123TIP3    H2 3376   3.831   2.336   0.489  0.2093 -1.8206 -2.4126
 1124TIP3   OH2 3377   1.524   4.856   2.621 -0.0410 -0.1056  0.1106
 1124TIP3    H1 3378   1.508   4.863   2.527  0.5959 -1.2746 -0.0992
 1124TIP3    H2 3379   1.443   4.888   2.662  0.0378  1.3151 -0.8097
 1125TIP3   OH2 3380   5.474   3.588   4.982  0.0144  0.0369 -0.1966
 1125TIP3    H1 3381   5.509   3.520   5.039  0.4251  1.7463  1.6938
 1125TIP3    H2 3382   5.380   3.586   4.998  0.0739  0.1933  0.1751
 1126TIP3   OH2 3383   5.840   0.773   1.436  0.0094 -0.7960  0.0590
 1126TIP3    H1 3384   5.786   0.809   1.366  1.0240 -2.4926 -1.6925
 1126TIP3    H2 3385   5.778   0.753   1.507 -1.2528 -0.3497 -0.8876
 1127TIP3   OH2 3386   2.697   4.166   4.264  0.8795 -0.0733 -0.4118
 1127TIP3    H1 3387   2.623   4.220   4.292 -0.7600 -2.3092 -0.1870
 1127TIP3    H2 3388   2.744   4.221   4.202 -1.7297  0.9847 -1.6060
 1128TIP3   OH2 3389   0.925   2.986   1.740 -0.8926  0.3934  0.4454
 1128TIP3    H1 3390   0.871   3.000   1.817 -1.0893 -1.9273  0.8126
 1128TIP3    H2 3391   0.899   2.900   1.708 -0.3570  1.0292 -1.8579
 1129TIP3   OH2 3392   1.457   1.451   1.375 -1.0746 -0.0019 -0.1107
 1129TIP3    H1 3393   1.540   1.476   1.336  0.1521 -0.1503  2.2388
 1129TIP3    H2 3394   1.407   1.533   1.381 -0.9940  0.1398 -1.2299
 1130TIP3   OH2 3395   5.313   2.233   1.605 -0.1489 -0.4586 -0.7125
 1130TIP3    H1 3396   5.289   2.250   1.513  1.9341 -0.0184 -1.2241
 1130TIP3    H2 3397   5.350   2.145   1.604  0.4770 -0.2026 -0.4283
 1131TIP3   OH2 3398   0.097   0.225   3.592 -0.4246  0.4883 -0.2338
 1131TIP3    H1 3399   0.121   0.285   3.663  1.0072  1.7666 -1.6999
 1131TIP3    H2 3400   0.038   0.276   3.536  0.1917  0.2814 -1.0905
 1132TIP3   OH2 3401   5.911   5.417   2.686  0.0061  0.3811 -0.3807
 1132TIP3    H1 3402   5.930   5.330   2.650  0.7656 -0.1383  1.1854
 1132TIP3    H2 3403   5.992   5.444   2.727  0.0204  2.2284 -1.5189
 1133TIP3   OH2 3404   1.049   4.599   1.652 -0.3737 -0.5454 -0.5670
 1133TIP3    H1 3405   1.089   4.620   1.567 -1.4203  0.5086 -0.8285
 1133TIP3    H2 3406   1.122   4.602   1.714  0.0679  0.7884 -1.1174
 1134TIP3   OH2 3407  -0.008   2.334   2.929  0.0692 -0.0085 -0.5198
 1134TIP3    H1 3408  -0.018   2.242   2.905 -1.7930 -0.1265  0.4754
 1134TIP3    H2 3409   0.035   2.332   3.015  0.5596  0.0668 -0.7670
 1135TIP3   OH2 3410   4.359   1.146   3.478 -0.1186 -0.0832  0.3320
 1135TIP3    H1 3411   4.400   1.175   3.396 -0.3887 -0.6646 -0.0184
 1135TIP3    H2 3412   4.366   1.050   3.475  0.9747 -0.0598  1.5760
 1136TIP3   OH2 3413   0.405   2.372   0.593  0.3797  0.4478  0.0740
 1136TIP3    H1 3414   0.418   2.323   0.675  1.5580 -0.5158 -0.6526
 1136TIP3    H2 3415   0.314   2.401   0.597 -0.0464 -0.8903  1.0460
 1137TIP3   OH2 3416   4.152   5.923   1.960  0.1375 -0.3245 -0.1550
 1137TIP3    H1 3417   4.234   5.949   2.002 -0.2018  1.1299 -0.3425
 1137TIP3    H2 3418   4.176   5.903   1.870  0.2066  0.7387 -0.3869
 1138TIP3   OH2 3419   2.114   2.980   3.454 -0.3077  0.4622  0.3660
 1138TIP3    H1 3420   2.208   2.982   3.439  0.2283 -0.7639  2.9422
 1138TIP3    H2 3421   2.090   2.888   3.451 -1.1281  0.6281  1.1171
 1139TIP3   OH2 3422   4.461   0.957   1.927  0.1880  0.3823 -0.3617
 1139TIP3    H1 3423   4.527   0.974   1.994 -2.7171  0.2788  2.8222
 1139TIP3    H2 3424   4.415   1.040   1.917 -0.9428 -0.2179 -0.3650
 1140TIP3   OH2 3425   3.657   3.453   2.227 -0.4673  0.2025 -0.0110
 1140TIP3    H1 3426   3.751   3.469   2.231 -0.2290 -1.1586  0.5001
 1140TIP3    H2 3427   3.618   3.532   2.263  0.6042 -0.0804  1.9483
 1141TIP3   OH2 3428   3.988   3.857   2.723 -0.4236 -0.2702  0.0520
 1141TIP3    H1 3429   4.006   3.791   2.657 -1.7473  0.1797 -0.8063
 1141TIP3    H2 3430   3.961   3.934   2.674  0.7220  0.8113  1.0487
 1142TIP3   OH2 3431   5.818   0.188   3.508 -0.3023 -0.4777 -0.3671
 1142TIP3    H1 3432   5.805   0.154   3.596  0.2914  1.2906  0.4493
 1142TIP3    H2 3433   5.854   0.114   3.459  1.6095 -0.9071  1.4946
 1143TIP3   OH2 3434   1.259   0.442   3.278  0.5655 -0.2848 -0.4837
 1143TIP3    H1 3435   1.239   0.351   3.257  0.5122 -0.5895  0.7891
 1143TIP3    H2 3436   1.212   0.493   3.212 -2.1887 -1.0629  0.7261
 1144TIP3   OH2 3437   2.177   3.249   2.313  0.0797  0.3566 -0.8678
 1144TIP3    H1 3438   2.205   3.181   2.251  0.4944 -0.3974  0.1082
 1144TIP3    H2 3439   2.084   3.232   2.326  0.1825 -0.0304 -0.6272
 1145TIP3   OH2 3440   2.644   1.931   2.856 -0.5764 -0.7735  0.1725
 1145TIP3    H1 3441   2.593   1.871   2.801  0.5564 -1.0169 -0.6416
 1145TIP3    H2 3442   2.656   1.883   2.939 -3.2894  0.0577  1.1575
 1146TIP3   OH2 3443   3.641   5.484   2.613 -0.6133 -0.3955 -0.7707
 1146TIP3    H1 3444   3.669   5.405   2.566  1.2348 -0.2770  0.0389
 1146TIP3    H2 3445   3.668   5.556   2.556 -0.1729 -0.3059 -0.4565
 1147TIP3   OH2 3446   2.751   0.978   3.686  0.1329  0.9594  0.1196
 1147TIP3    H1 3447   2.701   1.056   3.711 -1.6568 -0.0818 -0.0063
 1147TIP3    H2 3448   2.761   0.930   3.768 -0.8380  0.2210 -0.1774
 1148TIP3   OH2 3449   0.837   2.745   1.155  0.4539  0.2179  0.1295
 1148TIP3    H1 3450   0.777   2.676   1.126 -0.1401  0.7283  0.1210
 1148TIP3    H2 3451   0.900   2.700   1.211 -0.6619 -0.1361  1.1360
 1149TIP3   OH2 3452   2.671   5.008   2.546  0.7567  0.3061  0.4145
 1149TIP3    H1 3453   2.672   4.927   2.597 -1.1667  0.6453  1.0584
 1149TIP3    H2 3454   2.749   5.055   2.574  1.8299 -1.2279  0.1414
 1150TIP3   OH2 3455   3.491   5.505   1.135 -0.8524  0.2757  0.1098
 1150TIP3    H1 3456   3.503   5.422   1.180  2.2438  1.3156  1.4744
 1150TIP3    H2 3457   3.531   5.492   1.049 -0.4050  0.3148  0.3078
 1151TIP3   OH2 3458   0.228   5.618   2.392 -0.0528  0.5505 -0.3497
 1151TIP3    H1 3459   0.246   5.654   2.479  1.1836 -1.8198  0.4448
 1151TIP3    H2 3460   0.165   5.680   2.354 -2.3829  0.5606  3.0573
 1152TIP3   OH2 3461   5.021   2.282   4.090 -0.2290 -0.0527  0.0990
 1152TIP3    H1 3462   4.977   2.314   4.168 -0.6802 -0.6833  0.1103
 1152TIP3    H2 3463   4.954   2.285   4.021 -0.3885 -1.2553  0.1734
 1153TIP3   OH2 3464   0.254   2.487   2.687  0.1627  0.2923 -0.2929
 1153TIP3    H1 3465   0.294   2.554   2.631 -1.0767  0.4898 -0.9768
 1153TIP3    H2 3466   0.257   2.407   2.634 -0.0096  0.2189 -0.1914
 1154TIP3   OH2 3467   0.594   0.016  -0.001  0.4847 -0.0405 -0.7462
 1154TIP3    H1 3468   0.533   0.056   0.061 -0.3503 -0.5802 -1.1963
 1154TIP3    H2 3469   0.670   0.074  -0.001  0.4291  0.0612  0.6393
 1155TIP3   OH2 3470   1.386   3.758   1.413  0.5060  0.1190  0.6218
 1155TIP3    H1 3471   1.292   3.740   1.412  0.2567  0.8284 -2.6212
 1155TIP3    H2 3472   1.425   3.681   1.370  1.1656  0.5939  0.3531
 1156TIP3   OH2 3473   2.909   3.136   4.947  0.5015 -0.2910 -0.2298
 1156TIP3    H1 3474   2.905   3.041   4.936 -1.5158 -0.2677 -0.0431
 1156TIP3    H2 3475   2.955   3.149   5.030  1.7892 -1.0237 -0.7950
 1157TIP3   OH2 3476   4.413   1.631   3.653  0.2928 -0.6244 -0.3955
 1157TIP3    H1 3477   4.346   1.629   3.585  0.5504  0.0313 -0.6765
 1157TIP3    H2 3478   4.367   1.657   3.732 -0.4138 -3.3088  0.1827
 1158TIP3   OH2 3479   0.510   2.578   5.093 -0.1096  0.4511  0.2350
 1158TIP3    H1 3480   0.448   2.529   5.038  1.4175  1.2169 -2.3215
 1158TIP3    H2 3481   0.475   2.667   5.093  0.7032  0.7885 -0.8467
 1159TIP3   OH2 3482   4.945   1.679   4.423 -0.5089 -0.2447  0.0920
 1159TIP3    H1 3483   5.037   1.695   4.445 -0.5434 -0.0298  0.0895
 1159TIP3    H2 3484   4.931   1.729   4.342 -0.5776 -0.4314 -0.0114
 1160TIP3   OH2 3485   5.540   4.438   2.745 -0.0758 -0.1370 -0.1968
 1160TIP3    H1 3486   5.550   4.532   2.759 -1.4400 -0.0534  0.3770
 1160TIP3    H2 3487   5.445   4.425   2.737  0.1846 -1.2333 -2.0660
 1161TIP3   OH2 3488   6.082   3.766   2.328 -0.4162 -0.5551  0.3697
 1161TIP3    H1 3489   6.053   3.685   2.370 -0.0759 -0.7458  0.2465
 1161TIP3    H2 3490   6.019   3.832   2.355 -2.9023 -1.5470 -2.4001
 1162TIP3   OH2 3491   5.721   3.735   1.092  0.0897  0.0862  0.0918
 1162TIP3    H1 3492   5.658   3.800   1.062 -0.7078 -1.2175 -1.2165
 1162TIP3    H2 3493   5.703   3.658   1.038  0.2750 -1.5794  2.2870
 1163TIP3   OH2 3494   0.352   5.079   2.001  0.1386 -0.2402  0.5400
 1163TIP3    H1 3495   0.411   5.133   2.054  2.4424 -2.0255 -0.0343
 1163TIP3    H2 3496   0.306   5.142   1.946  1.0510  1.2963  1.4426
 1164TIP3   OH2 3497   4.502   3.246   1.882  0.2869  0.0070  0.3382
 1164TIP3    H1 3498   4.429   3.307   1.870  0.1297 -0.4669 -1.2779
 1164TIP3    H2 3499   4.571   3.279   1.825  0.0018 -1.5925 -1.0128
 1165TIP3   OH2 3500   1.116   4.704   1.367  0.7061  0.3931  0.2636
 1165TIP3    H1 3501   1.141   4.620   1.326 -3.4795 -1.2199  0.5411
 1165TIP3    H2 3502   1.061   4.747   1.301  3.6808  3.7063 -0.3536
 1166TIP3   OH2 3503   3.036   0.628   3.570 -0.3040 -0.4256  0.4591
 1166TIP3    H1 3504   3.007   0.563   3.635 -2.7517 -0.3685 -0.4579
 1166TIP3    H2 3505   3.064   0.575   3.495 -2.4574 -0.5252 -0.3529
 1167TIP3   OH2 3506   0.898   2.847   3.179 -0.0372  0.0475  0.0695
 1167TIP3    H1 3507   0.938   2.766   3.147 -0.3352 -0.7856  1.7189
 1167TIP3    H2 3508   0.968   2.912   3.174  0.6441 -0.6682  0.1312
 1168TIP3   OH2 3509   1.077   4.916   0.715  0.2396  0.0866 -0.3547
 1168TIP3    H1 3510   0.981   4.909   0.721  0.2604 -0.4189 -0.5431
 1168TIP3    H2 3511   1.093   5.007   0.688 -0.1252  0.5428  0.9206
 1169TIP3   OH2 3512   0.868   1.292   4.446 -0.4189 -0.8611  0.2214
 1169TIP3    H1 3513   0.846   1.284   4.353 -2.0385 -1.9575  0.6504
 1169TIP3    H2 3514   0.952   1.337   4.447 -0.5553 -0.4668 -1.7566
 1170TIP3   OH2 3515   5.167   2.820   2.970  0.2390  0.7835  0.6333
 1170TIP3    H1 3516   5.096   2.820   3.035  1.5009  0.1554  2.0777
 1170TIP3    H2 3517   5.188   2.912   2.957  0.6927  0.8829  1.9583
 1171TIP3   OH2 3518   4.960   4.747   1.500  0.5687 -0.0997 -0.6066
 1171TIP3    H1 3519   4.977   4.840   1.516  2.1301 -0.5472  0.5872
 1171TIP3    H2 3520   5.032   4.719   1.443  1.1083 -0.9116  0.4186
 1172TIP3   OH2 3521   5.615   1.977   2.250  0.2642  0.1182  0.1043
 1172TIP3    H1 3522   5.641   2.041   2.316  0.3863  0.0424  0.1311
 1172TIP3    H2 3523   5.521   1.964   2.263  0.0960  0.8082 -0.3509
 1173TIP3   OH2 3524   4.539   0.586   1.798  0.1383 -0.4597  0.5187
 1173TIP3    H1 3525   4.543   0.666   1.745  0.7254 -1.3786 -0.8969
 1173TIP3    H2 3526   4.630   0.559   1.807  0.1106  0.0116  2.6080
 1174TIP3   OH2 3527   2.161   1.333   1.064  0.3346  0.0138  0.5089
 1174TIP3    H1 3528   2.219   1.394   1.110 -0.6765 -0.0734  1.9911
 1174TIP3    H2 3529   2.176   1.350   0.971  2.5491  0.1432  0.8340
 1175TIP3   OH2 3530   3.773   0.625   4.902  0.4779 -0.8171  0.0992
 1175TIP3    H1 3531   3.858   0.613   4.944  0.3934 -1.2849  0.1426
 1175TIP3    H2 3532   3.732   0.538   4.906 -0.2191 -0.4728  0.5412
 1176TIP3   OH2 3533   1.043   1.991   2.427  0.1031 -0.5449  0.8648
 1176TIP3    H1 3534   0.992   1.910   2.426  0.4265 -0.7687 -0.7172
 1176TIP3    H2 3535   1.036   2.025   2.337  1.9679 -0.1218  0.8309
 1177TIP3   OH2 3536   2.100   5.099   0.956  0.1146 -0.5950  0.0356
 1177TIP3    H1 3537   2.070   5.083   0.866 -0.8905  0.5883  0.1303
 1177TIP3    H2 3538   2.192   5.123   0.947 -0.0929 -0.0559 -0.7361
 1178TIP3   OH2 3539   0.272   1.737   4.290 -0.0447  0.5793  0.1655
 1178TIP3    H1 3540   0.365   1.750   4.273  0.0443  0.1597  0.3246
 1178TIP3    H2 3541   0.228   1.770   4.212  0.2678  0.2721 -0.1431
 1179TIP3   OH2 3542   0.823   1.029   4.634  0.4025  0.1234  0.0337
 1179TIP3    H1 3543   0.911   1.031   4.596  0.1467  2.6290 -0.5707
 1179TIP3    H2 3544   0.793   0.939   4.619  2.9291 -0.9036  0.5282
 1180TIP3   OH2 3545   4.412   2.255   4.370 -0.4528 -0.3676 -0.0506
 1180TIP3    H1 3546   4.472   2.322   4.339  0.7586 -1.8102 -0.9480
 1180TIP3    H2 3547   4.361   2.299   4.438  0.7226  1.2705 -0.1575
 1181TIP3   OH2 3548   4.215   1.845   0.195 -0.1753  0.0383  0.6816
 1181TIP3    H1 3549   4.223   1.940   0.182  0.3737 -0.1732 -0.6749
 1181TIP3    H2 3550   4.129   1.823   0.160  1.0373 -0.4298 -2.2723
 1182TIP3   OH2 3551   6.366   3.275   1.838  0.3413 -0.3538 -0.1952
 1182TIP3    H1 3552   6.356   3.180   1.835  1.2172 -0.5813  2.1356
 1182TIP3    H2 3553   6.361   3.297   1.931  0.3719  1.8683 -0.6592
 1183TIP3   OH2 3554   4.858   4.243   2.999 -1.0000  0.5837  0.0264
 1183TIP3    H1 3555   4.770   4.208   2.986 -0.4839 -0.8745  0.2774
 1183TIP3    H2 3556   4.854   4.332   2.963 -2.1330 -0.0382 -1.4861
 1184TIP3   OH2 3557   3.472   4.141   2.924  0.4407 -0.0685 -0.5537
 1184TIP3    H1 3558   3.486   4.066   2.866  0.9727  0.4447 -1.0918
 1184TIP3    H2 3559   3.386   4.175   2.900  0.3796 -0.2508 -0.5937
 1185TIP3   OH2 3560   2.095   5.470   3.593 -0.6112 -0.2381  0.1958
 1185TIP3    H1 3561   2.133   5.553   3.623 -0.3059 -0.8695  1.6562
 1185TIP3    H2 3562   2.164   5.430   3.540 -1.4072  1.2103 -2.0648
 1186TIP3   OH2 3563   1.036   3.381   2.926 -0.0033 -0.2911 -0.3394
 1186TIP3    H1 3564   0.944   3.404   2.909 -0.4846 -1.6919  0.2544
 1186TIP3    H2 3565   1.084   3.461   2.906 -1.5003  0.9610  0.7959
 1187TIP3   OH2 3566   6.164   0.875   4.426 -0.5376 -0.5995 -0.6781
 1187TIP3    H1 3567   6.241   0.911   4.381 -0.3761 -1.9970 -1.6127
 1187TIP3    H2 3568   6.114   0.834   4.356 -2.2522  0.4295 -0.1066
 1188TIP3   OH2 3569   3.611   4.150   2.193 -0.4563 -0.3402 -0.1311
 1188TIP3    H1 3570   3.678   4.212   2.166 -1.7989  1.3850  0.2885
 1188TIP3    H2 3571   3.593   4.097   2.116  0.3394  0.1635 -0.6677
 1189TIP3   OH2 3572   0.977   0.586   3.800  0.5418 -0.1694 -0.7566
 1189TIP3    H1 3573   0.888   0.623   3.793  0.8848  0.9214  0.1753
 1189TIP3    H2 3574   1.028   0.634   3.735  0.4310 -0.8771 -1.3706
 1190TIP3   OH2 3575   1.515   0.374   3.380 -0.0256  0.2065 -0.2483
 1190TIP3    H1 3576   1.420   0.389   3.381  0.0978  1.2672 -1.3828
 1190TIP3    H2 3577   1.551   0.450   3.427  0.2489 -0.5540  0.8136
 1191TIP3   OH2 3578   1.581   1.741   2.673 -0.0857 -0.2890 -0.1108
 1191TIP3    H1 3579   1.584   1.824   2.721  1.0628  1.2162 -2.5792
 1191TIP3    H2 3580   1.519   1.757   2.601  0.4542 -1.4161 -0.8603
 1192TIP3   OH2 3581   1.189   0.495   2.171 -0.0667 -0.6484  0.0366
 1192TIP3    H1 3582   1.163   0.474   2.081  0.7955 -0.3885 -0.2820
 1192TIP3    H2 3583   1.195   0.590   2.173  1.1868 -0.7146  0.0004
 1193TIP3   OH2 3584   1.997   0.567   0.244  0.4313 -0.1059  0.9015
 1193TIP3    H1 3585   1.929   0.602   0.301  0.2596  2.1019 -0.5533
 1193TIP3    H2 3586   2.058   0.639   0.232  0.3697 -0.4106 -1.8144
 1194TIP3   OH2 3587   2.930   5.405   3.059 -0.2405 -0.1827  0.9868
 1194TIP3    H1 3588   2.887   5.418   3.144 -0.2769 -0.7291  1.0530
 1194TIP3    H2 3589   2.927   5.491   3.018 -1.5582 -0.2401  0.9142
 1195TIP3   OH2 3590   3.743   2.945   4.514 -0.1333 -0.4817  0.5023
 1195TIP3    H1 3591   3.741   2.864   4.565  1.7723  0.4417  2.1643
 1195TIP3    H2 3592   3.699   3.009   4.570  0.8296  0.2481  0.4463
 1196TIP3   OH2 3593   6.057   2.838   1.726  0.7515 -0.1810  0.0013
 1196TIP3    H1 3594   5.988   2.903   1.717  0.2189 -0.8432 -0.9547
 1196TIP3    H2 3595   6.127   2.882   1.775  0.0711  0.8223  0.0829
 1197TIP3   OH2 3596   1.265   1.735   4.349 -0.3912  0.3702  0.2453
 1197TIP3    H1 3597   1.245   1.693   4.433  3.1813  0.0387  1.1054
 1197TIP3    H2 3598   1.269   1.664   4.286  0.3361  0.1327  0.5535
 1198TIP3   OH2 3599   1.774   0.074   3.881  0.0944  0.1540  0.2450
 1198TIP3    H1 3600   1.745   0.034   3.963 -0.5619 -1.0766 -0.5619
 1198TIP3    H2 3601   1.771   0.003   3.817  0.4880  1.1207 -0.8824
 1199TIP3   OH2 3602   2.623   5.261   3.058 -0.5071 -0.2736  0.2188
 1199TIP3    H1 3603   2.592   5.349   3.040  0.8628  0.3225  0.6651
 1199TIP3    H2 3604   2.688   5.244   2.990  0.0651 -0.4874  0.8120
 1200TIP3   OH2 3605   4.619   2.472   0.170  0.3810  0.1866 -0.1453
 1200TIP3    H1 3606   4.615   2.547   0.230  1.2384 -0.2957  0.5288
 1200TIP3    H2 3607   4.706   2.435   0.184 -0.2884 -1.3616  0.0401
 1201TIP3   OH2 3608   5.193   0.646   2.430  0.4242  0.0964 -0.1709
 1201TIP3    H1 3609   5.165   0.556   2.414 -0.1428  0.3297 -0.5501
 1201TIP3    H2 3610   5.288   0.643   2.423  0.4166 -0.4923 -0.0748
 1202TIP3   OH2 3611   1.834   4.519   2.971 -0.1207 -0.5005 -0.2330
 1202TIP3    H1 3612   1.882   4.601   2.983 -1.0698 -0.1764  1.8356
 1202TIP3    H2 3613   1.844   4.498   2.878 -0.1856  2.1739 -0.9289
 1203TIP3   OH2 3614   1.268   1.248   4.654 -0.4430  0.4123 -0.0784
 1203TIP3    H1 3615   1.252   1.161   4.692  0.5438  0.5660  0.7184
 1203TIP3    H2 3616   1.281   1.305   4.730 -2.6386  1.6134 -0.5186
 1204TIP3   OH2 3617   2.433   2.846   2.130  0.2235  0.4038  0.6488
 1204TIP3    H1 3618   2.467   2.903   2.061  1.3528  0.1653  0.9796
 1204TIP3    H2 3619   2.431   2.759   2.090  0.7001  0.2976  0.8477
 1205TIP3   OH2 3620   3.516   1.396   2.344  0.1762  0.0819  0.0547
 1205TIP3    H1 3621   3.435   1.345   2.334  0.8645 -1.1456  0.5737
 1205TIP3    H2 3622   3.491   1.485   2.318 -0.7452 -0.7422 -2.1806
 1206TIP3   OH2 3623   4.795   3.033   3.822  0.4649  0.0148 -0.4723
 1206TIP3    H1 3624   4.852   2.958   3.806  1.4206  0.3078  1.2625
 1206TIP3    H2 3625   4.709   3.005   3.791  1.4570 -0.5225 -2.9632
 1207TIP3   OH2 3626   5.488   2.420   1.016  0.3793  0.2703  0.0544
 1207TIP3    H1 3627   5.473   2.509   1.048 -1.1583  0.0180  0.0792
 1207TIP3    H2 3628   5.482   2.427   0.921 -0.0262  0.1411  0.0712
 1208TIP3   OH2 3629   3.828   1.658   4.214 -0.1999  0.0846 -0.0434
 1208TIP3    H1 3630   3.753   1.653   4.273 -0.3478 -1.5711 -0.3402
 1208TIP3    H2 3631   3.888   1.590   4.246  0.1332 -0.1876 -1.2104
 1209TIP3   OH2 3632   2.677   1.992   2.455  0.6243  0.6878 -0.4601
 1209TIP3    H1 3633   2.668   1.997   2.550  1.0764 -1.8078 -0.2196
 1209TIP3    H2 3634   2.771   2.003   2.440  0.6117  0.6491 -0.5642
 1210TIP3   OH2 3635   0.574   5.455   1.298  0.7577  0.2528  0.3930
 1210TIP3    H1 3636   0.521   5.509   1.356 -0.7283 -1.4771  0.7554
 1210TIP3    H2 3637   0.632   5.407   1.358  1.7042  1.0427  0.1231
 1211TIP3   OH2 3638   0.829   0.624   4.127  0.0687  0.1292 -0.5972
 1211TIP3    H1 3639   0.787   0.645   4.044  1.9834 -1.1511 -1.9631
 1211TIP3    H2 3640   0.874   0.705   4.151 -0.7261  0.5964 -0.6260
 1212TIP3   OH2 3641   0.110   5.748   4.931 -0.2578 -0.0785 -0.3047
 1212TIP3    H1 3642   0.204   5.765   4.921 -0.1016 -0.4205  0.4942
 1212TIP3    H2 3643   0.073   5.832   4.958 -0.3618  0.3284 -1.6596
 1213TIP3   OH2 3644   3.172   0.505   4.471  0.6195 -0.1278  0.2352
 1213TIP3    H1 3645   3.198   0.549   4.552 -2.1107  1.0874  0.5622
 1213TIP3    H2 3646   3.169   0.575   4.406 -2.4704  0.0996  0.4532
 1214TIP3   OH2 3647   5.598   5.019   2.314  0.0840  0.3120 -0.2158
 1214TIP3    H1 3648   5.507   5.032   2.286  0.6174 -0.9940 -2.9603
 1214TIP3    H2 3649   5.592   4.987   2.404 -2.1432  0.6750 -0.1886
 1215TIP3   OH2 3650   3.051   4.321   1.249  0.1628  0.0624  0.0157
 1215TIP3    H1 3651   3.085   4.232   1.247 -0.6406 -0.2504 -0.0240
 1215TIP3    H2 3652   3.109   4.367   1.310  0.6404 -0.4578 -0.0393
 1216TIP3   OH2 3653   4.347   1.300   3.876 -0.0740  0.5593  0.1651
 1216TIP3    H1 3654   4.268   1.285   3.824 -0.2996  2.5548 -0.1745
 1216TIP3    H2 3655   4.420   1.282   3.816 -0.2139 -1.4587  0.5333
 1217TIP3   OH2 3656   3.068   2.193   3.617  0.0150  0.3275 -0.3361
 1217TIP3    H1 3657   3.025   2.109   3.609  0.3268 -0.1054  1.8245
 1217TIP3    H2 3658   2.997   2.257   3.620 -0.3872 -0.1610  0.9249
 1218TIP3   OH2 3659   6.005   1.275   3.171  0.1594 -0.6097 -0.3590
 1218TIP3    H1 3660   6.024   1.351   3.116  1.3564 -1.1102 -0.6671
 1218TIP3    H2 3661   5.965   1.212   3.111  0.4563 -0.7409 -0.4228
 1219TIP3   OH2 3662   4.627   3.685   3.811  0.0700 -0.3905  0.4992
 1219TIP3    H1 3663   4.565   3.629   3.857  0.1268  1.3281  2.8336
 1219TIP3    H2 3664   4.576   3.761   3.783  1.0099  1.0993  2.5474
 1220TIP3   OH2 3665   4.122   5.774   1.137 -0.7543 -0.6332 -0.0966
 1220TIP3    H1 3666   4.083   5.861   1.131  0.9159  0.2076  0.4863
 1220TIP3    H2 3667   4.071   5.721   1.076 -0.6132  1.2148 -1.9604
 1221TIP3   OH2 3668   5.807   4.501   3.121 -0.6313 -0.5822  0.2907
 1221TIP3    H1 3669   5.722   4.457   3.125  0.0106 -1.8913 -0.3715
 1221TIP3    H2 3670   5.858   4.461   3.191  0.1400 -1.3131 -0.6675
 1222TIP3   OH2 3671   5.389   3.338   1.090  0.2222  0.1085 -0.1162
 1222TIP3    H1 3672   5.368   3.374   1.176  0.6012  1.1212 -0.4371
 1222TIP3    H2 3673   5.305   3.305   1.057  0.3064 -1.5655  1.1917
 1223TIP3   OH2 3674   4.425   0.776   5.099 -0.2197 -0.9002 -0.0705
 1223TIP3    H1 3675   4.369   0.811   5.169 -0.7426  1.1139 -1.4204
 1223TIP3    H2 3676   4.514   0.799   5.125 -0.3082 -1.1696  0.4789
 1224TIP3   OH2 3677   5.619   5.513   2.663  0.2195  0.4036  0.2860
 1224TIP3    H1 3678   5.688   5.576   2.643  1.6489 -1.0552  0.3662
 1224TIP3    H2 3679   5.624   5.449   2.592  0.0599 -0.5974  1.1446
 1225TIP3   OH2 3680   6.044   5.828   3.731  0.3379 -0.1693  0.3875
 1225TIP3    H1 3681   6.038   5.805   3.639 -1.3218  2.3946 -0.2351
 1225TIP3    H2 3682   6.030   5.745   3.778  0.5587 -1.3937 -1.6222
 1226TIP3   OH2 3683   5.053   2.092   0.154  0.2989 -0.0698  0.2816
 1226TIP3    H1 3684   5.031   2.118   0.065 -0.0361  1.1921  0.7170
 1226TIP3    H2 3685   5.145   2.069   0.151 -0.1841 -2.0930 -0.8307
 1227TIP3   OH2 3686   2.675   2.316   4.656 -0.4682  0.0968 -0.2537
 1227TIP3    H1 3687   2.752   2.291   4.706 -0.4751 -1.8553 -1.1279
 1227TIP3    H2 3688   2.704   2.389   4.602  0.1805  0.6831  0.8429
 1228TIP3   OH2 3689   5.670   3.603   0.859 -0.2221  0.0657 -0.4242
 1228TIP3    H1 3690   5.676   3.507   0.869 -1.7447 -0.0938 -0.7964
 1228TIP3    H2 3691   5.601   3.616   0.794 -1.6941  1.4629  1.3227
 1229TIP3   OH2 3692   1.054   0.321   3.880 -0.1151  0.0963 -0.2450
 1229TIP3    H1 3693   1.048   0.408   3.840  0.3153  1.2418  2.0466
 1229TIP3    H2 3694   0.987   0.321   3.948  1.0142 -0.7331  0.9017
 1230TIP3   OH2 3695   5.424   5.546   1.756  0.4152  0.6056  0.3780
 1230TIP3    H1 3696   5.359   5.476   1.753 -1.4525  2.2106  1.3461
 1230TIP3    H2 3697   5.397   5.605   1.685 -0.0170  1.9511  1.6349
 1231TIP3   OH2 3698   5.305   3.653   2.176 -0.0945 -0.0269  0.3541
 1231TIP3    H1 3699   5.323   3.744   2.151 -2.3566  0.0940 -1.1726
 1231TIP3    H2 3700   5.386   3.606   2.157  1.0023  1.5889  0.8468
 1232TIP3   OH2 3701   5.905   6.015   0.721  0.5026  0.5465  0.5982
 1232TIP3    H1 3702   5.837   6.042   0.659 -0.3772  1.8575  2.0530
 1232TIP3    H2 3703   5.888   5.922   0.737  0.1700  0.4266 -0.3871
 1233TIP3   OH2 3704   0.264   1.652   3.197  0.2580 -0.2045  0.1944
 1233TIP3    H1 3705   0.201   1.720   3.174  2.1028  1.5490  0.0277
 1233TIP3    H2 3706   0.307   1.686   3.276  2.1463 -0.4981 -0.6649
 1234TIP3   OH2 3707   1.158   5.817   0.380 -0.3539  0.0762 -0.3766
 1234TIP3    H1 3708   1.226   5.864   0.428 -0.5123  0.9379 -0.9795
 1234TIP3    H2 3709   1.199   5.791   0.298  0.1408 -2.0447  0.4807
 1235TIP3   OH2 3710   1.710   0.237   0.879 -0.1014 -0.2325  0.4513
 1235TIP3    H1 3711   1.732   0.303   0.814  0.2424 -0.3002  0.4977
 1235TIP3    H2 3712   1.709   0.154   0.830 -0.6693 -0.1789  0.3645
 1236TIP3   OH2 3713   0.804   3.451   4.964  0.2002  0.4443  0.1579
 1236TIP3    H1 3714   0.796   3.375   4.906 -1.8929  0.7624 -0.0419
 1236TIP3    H2 3715   0.878   3.500   4.929  0.0570 -0.2645 -1.1947
 1237TIP3   OH2 3716   4.193   3.539   2.730  0.0809 -0.4807  0.2263
 1237TIP3    H1 3717   4.125   3.550   2.797  0.9064  0.5555  0.9332
 1237TIP3    H2 3718   4.161   3.587   2.654 -0.6840 -1.3304 -0.0037
 1238TIP3   OH2 3719   5.766   1.444   3.631 -0.2155 -0.2229 -0.2051
 1238TIP3    H1 3720   5.845   1.392   3.617  0.7189  0.6877  1.4944
 1238TIP3    H2 3721   5.771   1.513   3.565  0.7345  0.1796  0.2712
 1239TIP3   OH2 3722   0.789   1.667   3.768  0.1260  0.0729  0.5280
 1239TIP3    H1 3723   0.809   1.700   3.680 -0.2054  0.1626  0.4840
 1239TIP3    H2 3724   0.696   1.687   3.780 -0.0098 -0.5817  0.6190
 1240TIP3   OH2 3725   1.818   1.946   2.721  0.0155  0.0242  0.8638
 1240TIP3    H1 3726   1.819   1.983   2.809  0.7059  0.4285  0.6978
 1240TIP3    H2 3727   1.892   1.886   2.718  0.7729  0.9436  0.1979
 1241TIP3   OH2 3728   4.062   4.238   3.219  0.7797 -0.0875  0.5297
 1241TIP3    H1 3729   4.092   4.187   3.294  2.6891 -0.5429 -0.4553
 1241TIP3    H2 3730   4.039   4.323   3.255 -2.9132 -1.6091  2.3000
 1242TIP3   OH2 3731   0.338   3.327   3.702  0.3016 -0.0140 -0.0787
 1242TIP3    H1 3732   0.261   3.298   3.653  0.6303  0.6804 -1.0356
 1242TIP3    H2 3733   0.302   3.373   3.778 -0.3253  2.8402 -1.9810
 1243TIP3   OH2 3734   1.240   2.008   3.102 -0.1021  0.3212 -0.1329
 1243TIP3    H1 3735   1.236   1.914   3.090 -1.1954  0.2975  0.3254
 1243TIP3    H2 3736   1.332   2.027   3.121  0.7376 -0.2807 -3.1209
 1244TIP3   OH2 3737   4.018   4.304   1.493  0.4216  0.4287  0.4105
 1244TIP3    H1 3738   4.050   4.220   1.462  2.0137  0.9472  0.5619
 1244TIP3    H2 3739   4.096   4.359   1.500 -0.4170  1.5574  1.4681
 1245TIP3   OH2 3740   1.011   3.887   1.001  0.0252 -0.1993  0.1237
 1245TIP3    H1 3741   1.062   3.833   0.941 -0.8915  0.6120 -1.4225
 1245TIP3    H2 3742   0.920   3.866   0.982 -0.3280  1.2354  0.1040
 1246TIP3   OH2 3743   3.294   4.862   3.940  0.3433  0.1165 -0.9270
 1246TIP3    H1 3744   3.254   4.776   3.945  0.7243  0.0110  2.5228
 1246TIP3    H2 3745   3.386   4.845   3.918  0.6429 -0.5108  0.6727
 1247TIP3   OH2 3746   6.247   4.876   2.060  0.0023 -0.5692  0.5658
 1247TIP3    H1 3747   6.176   4.861   2.122  0.1464 -1.5550  0.5004
 1247TIP3    H2 3748   6.226   4.822   1.984  0.4418 -0.2887  0.2328
 1248TIP3   OH2 3749   3.597   4.388   0.560  0.6599 -0.5866 -0.1554
 1248TIP3    H1 3750   3.689   4.373   0.540  1.0913  0.3752  1.0213
 1248TIP3    H2 3751   3.588   4.483   0.565  0.2680 -0.6888  2.5615
 1249TIP3   OH2 3752   3.022   3.990   4.468 -0.0027 -0.0180  0.3331
 1249TIP3    H1 3753   3.023   4.086   4.469  0.9060  0.0225 -1.3059
 1249TIP3    H2 3754   3.113   3.965   4.480 -0.2158 -0.6890  0.5754
 1250TIP3   OH2 3755   0.148   1.569   3.504  0.2455 -0.0394 -0.2796
 1250TIP3    H1 3756   0.142   1.652   3.551 -0.8086 -0.4582  0.3527
 1250TIP3    H2 3757   0.232   1.573   3.458  1.0314  0.6316  1.1657
 1251TIP3   OH2 3758   4.411   5.362   3.625 -0.6731 -0.0590  0.2976
 1251TIP3    H1 3759   4.481   5.368   3.691  0.5630  0.3082 -0.9790
 1251TIP3    H2 3760   4.402   5.268   3.609 -0.3679 -0.1072  0.3821
 1252TIP3   OH2 3761   4.149   0.135   3.956  0.2429  0.2927  0.3849
 1252TIP3    H1 3762   4.144   0.139   3.860  0.2051 -2.0278  0.2399
 1252TIP3    H2 3763   4.068   0.175   3.985 -0.3032 -0.0451 -0.6104
 1253TIP3   OH2 3764   0.469   0.832   3.596  0.4616 -0.5263  0.1231
 1253TIP3    H1 3765   0.479   0.917   3.640 -1.2493  0.2730 -0.9399
 1253TIP3    H2 3766   0.451   0.770   3.667  0.9952  0.1228  0.8477
 1254TIP3   OH2 3767   2.442   0.988   3.269  0.1982  0.0904  0.0651
 1254TIP3    H1 3768   2.393   0.907   3.256 -0.3640  0.2039  1.3441
 1254TIP3    H2 3769   2.532   0.965   3.245 -0.4000 -0.1581 -2.1510
 1255TIP3   OH2 3770   1.985   1.556   4.790 -0.4046  0.4154 -0.2785
 1255TIP3    H1 3771   1.937   1.615   4.732  0.4406  1.5284  0.1108
 1255TIP3    H2 3772   2.034   1.499   4.730 -0.0778  1.0962 -0.6787
 1256TIP3   OH2 3773   3.215   3.673   0.646 -0.2463  0.3123  0.2934
 1256TIP3    H1 3774   3.157   3.598   0.636 -0.6903  0.8017 -1.0766
 1256TIP3    H2 3775   3.177   3.741   0.590  1.1244  0.9536  0.0844
 1257TIP3   OH2 3776   3.104   1.391   4.662 -0.5228  0.0762  0.5386
 1257TIP3    H1 3777   3.047   1.359   4.592  0.4067 -0.6195  0.0854
 1257TIP3    H2 3778   3.044   1.433   4.724 -1.4439 -0.0079 -0.2732
 1258TIP3   OH2 3779   0.056   0.986   4.325 -0.1687  0.2653  0.0883
 1258TIP3    H1 3780   0.071   1.031   4.242  1.1464  0.9705  0.6875
 1258TIP3    H2 3781   0.115   0.910   4.321  0.0131  0.3878  0.4413
 1259TIP3   OH2 3782   3.481   5.439   3.096 -0.6897  0.2759 -0.1922
 1259TIP3    H1 3783   3.417   5.368   3.098 -0.4391  0.0706  0.6330
 1259TIP3    H2 3784   3.430   5.518   3.112 -0.8161  0.1785 -0.1150
 1260TIP3   OH2 3785   4.430   5.563   3.168 -0.4121 -0.1042  0.1031
 1260TIP3    H1 3786   4.345   5.604   3.152 -2.5450 -3.3802  1.7891
 1260TIP3    H2 3787   4.448   5.580   3.260 -0.4488 -1.3460  0.3569
 1261TIP3   OH2 3788   5.428   1.395   2.461 -0.3371 -0.1744 -0.3893
 1261TIP3    H1 3789   5.421   1.356   2.548  1.3235  0.0912 -0.0958
 1261TIP3    H2 3790   5.487   1.470   2.473  0.1478 -0.3037 -1.7896
 1262TIP3   OH2 3791   4.955   4.043   5.034 -0.3116  0.4598  0.8613
 1262TIP3    H1 3792   4.987   4.126   4.999 -0.4743  0.8155  1.5303
 1262TIP3    H2 3793   4.989   3.977   4.974 -0.0701  0.9979  0.3935
 1263TIP3   OH2 3794   2.027   0.050   4.129  0.3970  0.0124 -0.2773
 1263TIP3    H1 3795   2.091   0.008   4.072  0.4265  0.0676 -0.2852
 1263TIP3    H2 3796   1.997   0.126   4.079  0.8701  0.4052  0.0237
 1264TIP3   OH2 3797   4.472   5.196   1.610 -0.6591 -0.0715  0.6079
 1264TIP3    H1 3798   4.483   5.102   1.624 -0.9777 -0.0999  0.6707
 1264TIP3    H2 3799   4.543   5.236   1.660  0.3091 -0.3391 -0.4979
 1265TIP3   OH2 3800   5.090   1.529   2.392 -0.2070  0.5412  0.2473
 1265TIP3    H1 3801   5.183   1.530   2.368 -0.3842 -1.4519 -0.7588
 1265TIP3    H2 3802   5.065   1.621   2.391  1.2759  1.0085 -1.5428
 1266TIP3   OH2 3803   5.876   0.897   1.999  0.2516 -0.1388 -0.3646
 1266TIP3    H1 3804   5.836   0.883   1.913  0.6674 -0.6166 -0.4861
 1266TIP3    H2 3805   5.846   0.823   2.052 -2.2965  1.5797  0.7854
 1267TIP3   OH2 3806   5.213   5.370   1.713  0.4375  0.3941 -0.7094
 1267TIP3    H1 3807   5.185   5.363   1.804  3.1194  1.8064  0.3372
 1267TIP3    H2 3808   5.133   5.356   1.662 -1.5309  1.3320  1.8922
 1268TIP3   OH2 3809   5.180   3.634   4.990 -0.2982 -0.4381 -0.2781
 1268TIP3    H1 3810   5.110   3.630   5.054 -0.1171 -0.0942 -0.0597
 1268TIP3    H2 3811   5.158   3.708   4.934  1.1818  1.3048  1.3174
 1269TIP3   OH2 3812   0.845   5.377   2.867  0.6094 -0.1176  0.5004
 1269TIP3    H1 3813   0.793   5.316   2.920 -0.9364  0.3047 -0.4924
 1269TIP3    H2 3814   0.916   5.323   2.832 -0.6245 -1.3466 -0.2174
 1270TIP3   OH2 3815   0.435   3.320   1.314  0.3127  0.0637 -1.0076
 1270TIP3    H1 3816   0.346   3.355   1.325  0.2016 -0.7983  1.1211
 1270TIP3    H2 3817   0.422   3.235   1.273 -0.1043 -1.1673  1.5160
 1271TIP3   OH2 3818   5.471   5.128   1.255 -1.2764 -0.7733 -0.1796
 1271TIP3    H1 3819   5.475   5.189   1.182 -2.3877 -0.4588  0.0062
 1271TIP3    H2 3820   5.538   5.159   1.316  1.0672 -2.1653 -1.8624
 1272TIP3   OH2 3821   5.897   2.846   2.595 -0.1212 -0.5368  0.1651
 1272TIP3    H1 3822   5.802   2.844   2.585 -0.0821  0.5475 -0.6104
 1272TIP3    H2 3823   5.911   2.870   2.687 -0.6316  0.9739 -0.1185
 1273TIP3   OH2 3824   3.940   1.719   1.964 -0.3927  0.1758 -0.2734
 1273TIP3    H1 3825   3.957   1.697   1.873  0.5911  1.0961 -0.3287
 1273TIP3    H2 3826   3.856   1.766   1.962  0.3165  1.4680 -0.9192
 1274TIP3   OH2 3827   1.444   4.900   2.365 -0.9777  0.1603 -0.1319
 1274TIP3    H1 3828   1.363   4.865   2.329 -1.1426  0.8403 -0.4240
 1274TIP3    H2 3829   1.436   4.995   2.357  0.4044  0.2030 -1.3993
 1275TIP3   OH2 3830   3.745   4.314   1.839 -0.3077 -0.0454 -0.2500
 1275TIP3    H1 3831   3.775   4.324   1.930  0.3560 -0.5285 -0.4081
 1275TIP3    H2 3832   3.820   4.276   1.793 -1.4003 -2.0660 -0.4829
 1276TIP3   OH2 3833   4.873   4.842   4.138  0.0501  0.0264 -0.6831
 1276TIP3    H1 3834   4.935   4.774   4.114 -1.2492 -1.2303 -0.6310
 1276TIP3    H2 3835   4.838   4.873   4.054 -0.9251 -0.9108 -0.6362
 1277TIP3   OH2 3836   5.626   5.998   4.655  0.1219 -0.1317  0.2419
 1277TIP3    H1 3837   5.636   5.918   4.605 -2.8084  0.0259 -0.8018
 1277TIP3    H2 3838   5.596   6.063   4.591 -0.3312  1.0144  1.5523
 1278TIP3   OH2 3839   5.211   2.967   2.221  0.4795 -0.5646 -0.0410
 1278TIP3    H1 3840   5.159   2.971   2.141 -1.4363 -0.3732  1.1455
 1278TIP3    H2 3841   5.216   2.874   2.243  1.8678 -0.7204 -0.8589
 1279TIP3   OH2 3842   4.360   0.425   1.911  0.2914  0.1082  0.6673
 1279TIP3    H1 3843   4.313   0.467   1.984 -0.5709  1.2800 -0.5172
 1279TIP3    H2 3844   4.405   0.497   1.867 -0.0955 -0.4010 -0.6028
 1280TIP3   OH2 3845   4.057   3.223   2.772 -0.4236  0.1356 -0.0904
 1280TIP3    H1 3846   4.000   3.233   2.849 -1.3050  0.9801 -0.8153
 1280TIP3    H2 3847   4.146   3.222   2.808 -0.8746 -2.2590  1.1720
 1281TIP3   OH2 3848   1.559   1.673   2.005  0.3437 -0.3576 -0.4236
 1281TIP3    H1 3849   1.586   1.601   2.062  0.1059 -0.8682 -0.9412
 1281TIP3    H2 3850   1.472   1.647   1.973  0.3075  0.0998 -0.7087
 1282TIP3   OH2 3851   0.350   1.258   1.892 -0.2294  0.1018  0.4560
 1282TIP3    H1 3852   0.262   1.222   1.903 -0.3335  0.0985 -0.3291
 1282TIP3    H2 3853   0.386   1.212   1.816  0.5605 -0.0901  0.9231
 1283TIP3   OH2 3854  -0.011   4.562   1.767 -0.3682 -0.1417 -0.6756
 1283TIP3    H1 3855   0.078   4.593   1.785 -0.2322 -0.1023 -1.4044
 1283TIP3    H2 3856   0.000   4.482   1.716 -0.7456 -0.7060  0.0975
 1284TIP3   OH2 3857   1.849   1.891   4.097 -0.1710  0.7070 -0.1131
 1284TIP3    H1 3858   1.839   1.889   4.002  1.3908 -0.4621 -0.2983
 1284TIP3    H2 3859   1.928   1.839   4.114  0.5743  2.2750  1.6829
 1285TIP3   OH2 3860   4.352   4.474   0.751 -0.0475  0.2792 -0.0208
 1285TIP3    H1 3861   4.442   4.452   0.728 -0.8721 -1.3119 -2.1098
 1285TIP3    H2 3862   4.313   4.390   0.777 -1.4184  0.5476 -1.1147
 1286TIP3   OH2 3863   4.515   3.912   1.051  0.0677 -0.3584  0.2848
 1286TIP3    H1 3864   4.482   3.961   0.976  0.8095  0.1006  0.2569
 1286TIP3    H2 3865   4.490   3.821   1.032 -1.0211 -0.0599  0.1849
 1287TIP3   OH2 3866   1.082   0.837   4.958 -0.1654 -0.0229 -0.2720
 1287TIP3    H1 3867   1.015   0.896   4.925 -1.3070 -1.3855 -0.4515
 1287TIP3    H2 3868   1.100   0.868   5.047  1.3551  2.3247 -1.2918
 1288TIP3   OH2 3869   1.542   2.696   4.461  0.9714 -0.3991 -0.4517
 1288TIP3    H1 3870   1.462   2.747   4.445  1.7283  0.8271 -0.4394
 1288TIP3    H2 3871   1.513   2.623   4.515  0.0499  0.6935  0.5796
 1289TIP3   OH2 3872   0.297   3.179   0.590 -0.8822 -0.1443  0.4319
 1289TIP3    H1 3873   0.210   3.191   0.553  0.3116  0.6018 -2.5035
 1289TIP3    H2 3874   0.284   3.123   0.666 -3.7035 -1.7734 -1.0762
 1290TIP3   OH2 3875   2.647   1.807   0.587 -0.0467 -0.0790  0.1250
 1290TIP3    H1 3876   2.595   1.842   0.514 -0.8053 -0.5379  0.4328
 1290TIP3    H2 3877   2.662   1.716   0.565  0.8777  0.1120 -0.0849
 1291TIP3   OH2 3878   1.255   0.169   4.488 -0.5267 -0.6452 -0.9733
 1291TIP3    H1 3879   1.189   0.188   4.421 -0.9538  1.2584 -0.0745
 1291TIP3    H2 3880   1.307   0.249   4.494  1.6042 -1.9466 -1.3081
 1292TIP3   OH2 3881   5.131   4.573   0.666 -0.2178  0.4512  0.1984
 1292TIP3    H1 3882   5.150   4.663   0.641  0.2825  0.4092  0.4272
 1292TIP3    H2 3883   5.147   4.522   0.587  2.2146  0.1989  0.7700
 1293TIP3   OH2 3884   3.103   0.455   0.700  0.0955 -0.3960  0.2819
 1293TIP3    H1 3885   3.170   0.522   0.716  1.3008 -1.3718 -0.5351
 1293TIP3    H2 3886   3.143   0.373   0.728 -0.5607 -1.0704 -0.6811
 1294TIP3   OH2 3887   1.377   1.470   2.515 -0.2818  0.7249  0.0193
 1294TIP3    H1 3888   1.338   1.535   2.456 -0.1088  1.2178  0.4404
 1294TIP3    H2 3889   1.303   1.417   2.544 -0.4829  0.9771 -0.0239
 1295TIP3   OH2 3890   4.525   4.998   4.434 -0.1925 -0.0395 -0.5368
 1295TIP3    H1 3891   4.499   5.069   4.494  1.6761 -0.8496  1.3524
 1295TIP3    H2 3892   4.460   4.930   4.449  0.7492 -0.6001  1.3767
 1296TIP3   OH2 3893   4.522   0.453   1.233  0.0320 -0.0187  0.9923
 1296TIP3    H1 3894   4.527   0.394   1.308 -0.6905 -0.0109  1.0556
 1296TIP3    H2 3895   4.474   0.403   1.167  1.5039 -0.4025  0.1528
 1297TIP3   OH2 3896   6.171   4.082   0.590  0.2410  0.4299 -0.6437
 1297TIP3    H1 3897   6.086   4.060   0.629  0.7412 -0.3304  0.0401
 1297TIP3    H2 3898   6.235   4.056   0.656  1.0169  0.9227 -1.1907
 1298TIP3   OH2 3899   2.327   0.530   0.049  0.2432 -0.5880  0.0392
 1298TIP3    H1 3900   2.246   0.482   0.032 -0.3913  0.5411 -0.2302
 1298TIP3    H2 3901   2.342   0.519   0.143 -0.6815 -0.1181  0.2493
 1299TIP3   OH2 3902   3.914   2.707   2.745  0.0335  0.3870 -0.6838
 1299TIP3    H1 3903   3.979   2.777   2.754 -0.5996  1.0398 -1.0717
 1299TIP3    H2 3904   3.963   2.627   2.764  0.9920  0.8435 -1.1333
 1300TIP3   OH2 3905   3.970   5.991   0.088  0.1235  0.4977  0.0897
 1300TIP3    H1 3906   4.048   6.019   0.039  0.5237 -1.5636 -0.5734
 1300TIP3    H2 3907   3.970   5.896   0.079 -1.9900  0.3818  0.8649
 1301TIP3   OH2 3908   0.929   5.336   4.918 -0.3046  0.6248 -0.4055
 1301TIP3    H1 3909   0.972   5.263   4.873  0.2671  0.4248  0.4462
 1301TIP3    H2 3910   0.981   5.413   4.893 -1.0394  0.7985 -1.4829
 1302TIP3   OH2 3911   3.536   1.521   4.585 -0.4861  0.2772 -0.1120
 1302TIP3    H1 3912   3.535   1.458   4.658 -0.4341  1.6607  1.1314
 1302TIP3    H2 3913   3.490   1.476   4.514 -0.9266 -0.9585  0.9120
 1303TIP3   OH2 3914   5.779   4.691   0.854  0.5434  0.3936 -0.0477
 1303TIP3    H1 3915   5.870   4.712   0.836  1.1809 -1.3031  1.0280
 1303TIP3    H2 3916   5.764   4.721   0.943  0.6625 -1.1290  0.5053
 1304TIP3   OH2 3917   5.829   4.070   0.387 -0.6266 -0.6488  0.0327
 1304TIP3    H1 3918   5.901   4.006   0.383 -0.1478 -0.0957 -0.3749
 1304TIP3    H2 3919   5.862   4.146   0.340 -0.3456  0.7288  2.3032
 1305TIP3   OH2 3920   5.928   1.461   4.799 -0.1429  0.1418  0.1786
 1305TIP3    H1 3921   6.019   1.436   4.815  0.6260  2.8600  0.5624
 1305TIP3    H2 3922   5.923   1.475   4.705 -0.3346 -0.6208  0.0759
 1306TIP3   OH2 3923   2.847   5.698   2.118 -0.0370 -0.0790  0.3318
 1306TIP3    H1 3924   2.773   5.758   2.113 -0.7088 -0.7125  1.8841
 1306TIP3    H2 3925   2.825   5.627   2.058 -0.1558  0.2879 -0.0588
 1307TIP3   OH2 3926   4.039   3.798   3.586  0.1917 -0.3162  0.7584
 1307TIP3    H1 3927   4.105   3.752   3.639  0.5303 -0.9710 -0.1938
 1307TIP3    H2 3928   4.025   3.880   3.632  0.2432 -0.9861  2.0284
 1308TIP3   OH2 3929   5.171   0.460   1.597  0.1268 -0.4926 -0.9802
 1308TIP3    H1 3930   5.204   0.374   1.624  0.2813 -0.4633 -1.0758
 1308TIP3    H2 3931   5.214   0.477   1.513  0.7763  0.0684 -0.5414
 1309TIP3   OH2 3932   3.205   5.208   4.421  0.1377  0.1987 -0.3055
 1309TIP3    H1 3933   3.116   5.188   4.389 -0.5276 -1.8721  2.4727
 1309TIP3    H2 3934   3.261   5.148   4.372 -0.6331 -1.6918  1.0198
 1310TIP3   OH2 3935   5.047   4.996   1.222  0.3072 -0.4910  0.4013
 1310TIP3    H1 3936   5.004   4.940   1.157 -0.4692  1.3321 -0.7370
 1310TIP3    H2 3937   5.124   4.947   1.249 -0.7847 -2.4680  0.1060
 1311TIP3   OH2 3938   3.798   1.959   1.555 -0.0891  0.1283  0.4209
 1311TIP3    H1 3939   3.764   1.959   1.645 -1.0182 -1.2314  0.0944
 1311TIP3    H2 3940   3.761   2.038   1.516 -0.2263  0.3784  1.0388
 1312TIP3   OH2 3941   1.284   1.147   0.536 -0.3720 -0.5052 -0.3147
 1312TIP3    H1 3942   1.364   1.151   0.485 -0.7304  1.3638 -0.8087
 1312TIP3    H2 3943   1.313   1.150   0.627  0.1246  2.9528 -0.4732
 1313TIP3   OH2 3944   2.193   5.785   1.600 -0.4679  0.1397  0.2130
 1313TIP3    H1 3945   2.261   5.749   1.543 -1.3152 -1.0280 -0.1105
 1313TIP3    H2 3946   2.192   5.879   1.581 -0.3896 -0.1494 -1.3403
 1314TIP3   OH2 3947   4.823   0.938   4.194  0.2137 -0.0904  0.2093
 1314TIP3    H1 3948   4.907   0.943   4.149  0.1669 -1.7111 -0.0977
 1314TIP3    H2 3949   4.765   0.893   4.133 -0.0055 -1.8278  1.6184
 1315TIP3   OH2 3950   6.339   0.740   2.815  0.3817  0.3488  0.7552
 1315TIP3    H1 3951   6.336   0.645   2.806  2.2641  0.3564 -0.5522
 1315TIP3    H2 3952   6.387   0.756   2.896  1.2360  0.1691  0.2895
 1316TIP3   OH2 3953   2.318   0.665   3.746  0.0080  0.5924  0.1728
 1316TIP3    H1 3954   2.268   0.654   3.827  0.6168 -1.0007  0.3782
 1316TIP3    H2 3955   2.363   0.581   3.734  2.0449  1.6884 -0.3995
 1317TIP3   OH2 3956   3.425   0.092   0.273 -0.2895  0.2069 -0.4214
 1317TIP3    H1 3957   3.428   0.029   0.345  0.7536  0.4756 -0.2111
 1317TIP3    H2 3958   3.502   0.148   0.287 -0.1409  0.3448 -1.6833
 1318TIP3   OH2 3959   6.051   2.326   4.986  0.2592  0.0335  0.0459
 1318TIP3    H1 3960   6.026   2.235   4.970  1.6756 -0.3154 -0.3506
 1318TIP3    H2 3961   6.083   2.327   5.076  0.1060  0.1684  0.0987
 1319TIP3   OH2 3962   6.219   1.862   4.819  0.5957 -0.0934 -0.7964
 1319TIP3    H1 3963   6.313   1.854   4.830  0.4616 -1.0756 -0.2106
 1319TIP3    H2 3964   6.203   1.835   4.728  0.8597 -0.1481 -0.8255
 1320TIP3   OH2 3965   4.840   3.057   0.642 -0.3111 -0.2487 -0.4592
 1320TIP3    H1 3966   4.812   3.137   0.686 -0.3078  0.1488 -1.1601
 1320TIP3    H2 3967   4.786   2.988   0.681 -1.3758  0.3138 -0.8745
 1321TIP3   OH2 3968   6.169   1.186   3.817  0.1246 -0.1846 -0.2656
 1321TIP3    H1 3969   6.239   1.236   3.775 -0.8374  2.7627  1.3804
 1321TIP3    H2 3970   6.094   1.194   3.758  0.0392  0.0996 -0.1179
 1322TIP3   OH2 3971   1.852   4.546   0.219 -0.3333  0.1389  0.2898
 1322TIP3    H1 3972   1.899   4.621   0.256  1.4790 -0.6838 -0.2282
 1322TIP3    H2 3973   1.761   4.574   0.216 -0.2258  1.1176  3.1154
 1323TIP3   OH2 3974   3.725   1.065   2.454 -0.3257 -0.2489 -0.1372
 1323TIP3    H1 3975   3.720   0.973   2.425  0.6818  0.0928 -1.4738
 1323TIP3    H2 3976   3.703   1.116   2.376  0.1954  0.6685  0.3030
 1324TIP3   OH2 3977   4.524   0.240   2.549  0.2336  0.1636  0.0206
 1324TIP3    H1 3978   4.615   0.237   2.580  1.0469 -0.2543 -2.2630
 1324TIP3    H2 3979   4.500   0.333   2.556  0.7563  0.2587  0.7843
 1325TIP3   OH2 3980   1.582   5.297   2.462  0.2424 -0.2758 -0.1833
 1325TIP3    H1 3981   1.642   5.224   2.475  1.0459  0.5564  1.0565
 1325TIP3    H2 3982   1.636   5.375   2.474 -0.6842  0.5211 -1.0346
 1326TIP3   OH2 3983   5.510   2.474   0.492  0.0444 -0.3319 -0.4863
 1326TIP3    H1 3984   5.421   2.480   0.457 -0.8254  1.3237  1.7334
 1326TIP3    H2 3985   5.566   2.464   0.415 -1.7268  2.7411 -2.3776
 1327TIP3   OH2 3986   1.906   5.072   5.149  0.1375  0.2115  0.0675
 1327TIP3    H1 3987   1.961   5.086   5.226  1.1403 -3.4723  0.2367
 1327TIP3    H2 3988   1.838   5.012   5.179  0.8476 -1.7485 -1.8806
 1328TIP3   OH2 3989   0.150   2.430   4.095  0.1759 -0.3204 -0.3469
 1328TIP3    H1 3990   0.083   2.430   4.164 -0.1242  1.3318 -0.5926
 1328TIP3    H2 3991   0.213   2.364   4.123 -1.6723 -2.1742 -0.2556
 1329TIP3   OH2 3992   5.904   5.008   0.577 -0.2348 -0.1682 -0.0188
 1329TIP3    H1 3993   5.835   5.068   0.551  0.9018  0.4276 -1.9440
 1329TIP3    H2 3994   5.985   5.053   0.553  0.8376 -0.9717  1.8594
 1330TIP3   OH2 3995   1.971   2.768   0.809 -0.1345  0.2610 -0.1722
 1330TIP3    H1 3996   1.903   2.701   0.802 -1.8462  1.6336  2.0999
 1330TIP3    H2 3997   1.924   2.851   0.804  1.2970  1.2574  1.7109
 1331TIP3   OH2 3998   4.300   5.127   3.316  0.0041  0.9443  0.4761
 1331TIP3    H1 3999   4.370   5.189   3.334 -0.6571  1.7693  0.2588
 1331TIP3    H2 4000   4.335   5.071   3.247  1.4130 -0.3223  2.0983
 1332TIP3   OH2 4001   5.641   1.656   3.783  0.1435  0.0650  0.2744
 1332TIP3    H1 4002   5.686   1.648   3.867 -1.1289 -2.1828  0.8247
 1332TIP3    H2 4003   5.647   1.568   3.744 -1.0121  0.5369 -1.0522
 1333TIP3   OH2 4004   1.540   2.575   5.189  0.1328  0.5007  0.3902
 1333TIP3    H1 4005   1.515   2.576   5.096  1.3823  1.2125  0.0259
 1333TIP3    H2 4006   1.552   2.483   5.210  1.7877  0.3990 -0.7540
 1334TIP3   OH2 4007   5.490   2.112   4.455 -0.1655 -0.0445 -0.1910
 1334TIP3    H1 4008   5.531   2.044   4.508  1.2245  2.2188  1.8692
 1334TIP3    H2 4009   5.498   2.080   4.365  1.4670 -2.0770  0.5883
 1335TIP3   OH2 4010   6.088   3.730   3.709  0.0949  0.3284 -0.1597
 1335TIP3    H1 4011   6.066   3.811   3.756  0.5169  1.8431 -2.4130
 1335TIP3    H2 4012   6.146   3.758   3.639 -0.0982 -1.8836 -1.2962
 1336TIP3   OH2 4013   4.921   2.355   3.256  0.0981  0.2872 -0.2775
 1336TIP3    H1 4014   4.918   2.366   3.161  0.4143 -0.9649 -0.4523
 1336TIP3    H2 4015   4.831   2.368   3.285  0.0554  0.9899 -0.7002
 1337TIP3   OH2 4016   4.413   4.289   4.154 -0.4425 -0.5036  0.4095
 1337TIP3    H1 4017   4.437   4.285   4.062 -2.6566 -2.4364 -0.2138
 1337TIP3    H2 4018   4.482   4.240   4.199  0.5013  0.1997 -0.2353
 1338TIP3   OH2 4019   3.241   3.399   0.973  0.5705  0.6993  0.4545
 1338TIP3    H1 4020   3.250   3.480   1.025 -0.1638  1.3726 -0.4419
 1338TIP3    H2 4021   3.146   3.387   0.965  0.6772 -0.2259  0.5156
 1339TIP3   OH2 4022   1.013   5.930   0.618 -0.2449  0.1903 -0.0573
 1339TIP3    H1 4023   1.098   5.913   0.659  0.4029  2.9457 -0.0393
 1339TIP3    H2 4024   1.029   5.921   0.524 -0.0239  0.3466 -0.0352
 1340TIP3   OH2 4025   2.427   0.257   4.825  0.1648  0.1159  0.1616
 1340TIP3    H1 4026   2.492   0.205   4.871  2.0549  2.5884  0.4642
 1340TIP3    H2 4027   2.428   0.342   4.868 -1.5851  0.9833 -1.3443
 1341TIP3   OH2 4028   3.183   4.879   4.264 -0.4403 -0.1913  0.3940
 1341TIP3    H1 4029   3.262   4.838   4.300  0.8847  1.0816 -0.9380
 1341TIP3    H2 4030   3.212   4.921   4.184 -2.6834 -0.4235 -0.6210
 1342TIP3   OH2 4031   3.177   0.695   1.241  0.5573  0.0126 -0.6296
 1342TIP3    H1 4032   3.084   0.713   1.255  0.8431  0.1238  1.5684
 1342TIP3    H2 4033   3.199   0.742   1.161 -0.8044  1.8578  0.0044
 1343TIP3   OH2 4034   0.085   5.233   3.653 -0.5923  0.0936  0.2958
 1343TIP3    H1 4035   0.092   5.142   3.623  0.2921  0.8795 -2.1375
 1343TIP3    H2 4036   0.115   5.230   3.744  0.1762 -1.9242  0.0404
 1344TIP3   OH2 4037   4.909   2.012   4.637  0.3841  0.1014  0.3014
 1344TIP3    H1 4038   4.899   1.919   4.657 -0.3176 -0.0978 -0.8948
 1344TIP3    H2 4039   5.000   2.031   4.657  0.9321 -1.2093 -0.8225
 1345TIP3   OH2 4040   6.134   5.499   2.813  0.7887 -0.3301 -0.3338
 1345TIP3    H1 4041   6.115   5.496   2.907 -1.8987  1.9141 -0.6810
 1345TIP3    H2 4042   6.213   5.446   2.803  0.7851 -1.2069  3.0695
 1346TIP3   OH2 4043   1.250   4.522   4.604 -0.4561 -0.3518  0.3911
 1346TIP3    H1 4044   1.301   4.555   4.530 -0.1807 -0.6639  0.4381
 1346TIP3    H2 4045   1.248   4.427   4.591 -1.0489 -0.3402  0.3761
 1347TIP3   OH2 4046   2.791   2.182   2.115  0.3378  0.0503  0.3502
 1347TIP3    H1 4047   2.816   2.119   2.047  0.1435  2.1715 -1.8337
 1347TIP3    H2 4048   2.696   2.189   2.107  0.5781  2.5431 -1.3819
 1348TIP3   OH2 4049   2.672   2.426   2.599  0.1900 -0.6697 -0.0607
 1348TIP3    H1 4050   2.655   2.356   2.662 -0.1247 -1.2007 -0.7255
 1348TIP3    H2 4051   2.746   2.474   2.635  0.1941 -1.1454  0.5684
 1349TIP3   OH2 4052   2.118   3.470   0.420 -0.0283  0.2574  0.0627
 1349TIP3    H1 4053   2.071   3.396   0.381 -0.9490  1.0425 -0.3473
 1349TIP3    H2 4054   2.065   3.546   0.397  1.2504  1.1231 -0.0651
 1350TIP3   OH2 4055   1.286   5.571   3.965  0.2119 -0.1613 -0.3771
 1350TIP3    H1 4056   1.332   5.580   3.881  0.7043  0.9351  0.0027
 1350TIP3    H2 4057   1.286   5.477   3.982  0.7779 -0.3295 -1.2357
 1351TIP3   OH2 4058   4.425   1.963   1.614  0.1051  0.7558 -0.4910
 1351TIP3    H1 4059   4.465   1.904   1.677  1.8038  2.3705  0.0575
 1351TIP3    H2 4060   4.365   2.017   1.666 -1.1465 -0.1857 -0.9178
 1352TIP3   OH2 4061   3.536   5.416   0.493 -0.3837 -0.4869  0.3362
 1352TIP3    H1 4062   3.548   5.509   0.512 -0.1937 -0.1732 -1.2110
 1352TIP3    H2 4063   3.619   5.376   0.518 -0.8988 -0.4801  2.2118
 1353TIP3   OH2 4064   3.357   5.120   0.007  0.0130 -0.0481 -0.2051
 1353TIP3    H1 4065   3.440   5.132   0.052 -2.1946  1.5754  4.0291
 1353TIP3    H2 4066   3.336   5.027   0.020  0.3285 -0.0342  0.4785
 1354TIP3   OH2 4067   2.697   3.610   4.431 -0.7217  0.9082  0.4443
 1354TIP3    H1 4068   2.690   3.705   4.426 -0.2626  0.9340  0.2693
 1354TIP3    H2 4069   2.762   3.594   4.500 -0.2709  0.7411 -0.0099
 1355TIP3   OH2 4070   4.166   1.285   2.649 -0.4542  0.3649 -0.5911
 1355TIP3    H1 4071   4.085   1.321   2.684 -0.5640 -1.5451  1.3924
 1355TIP3    H2 4072   4.183   1.208   2.704  1.8628 -0.2039 -1.9680
 1356TIP3   OH2 4073   1.193   3.467   3.630 -0.3681 -0.3340  0.5014
 1356TIP3    H1 4074   1.135   3.536   3.599  0.5309 -0.1822 -0.9366
 1356TIP3    H2 4075   1.273   3.513   3.657  0.2474 -0.7676 -0.4936
 1357TIP3   OH2 4076   4.179   2.467   0.218 -0.5755 -0.1423 -0.1604
 1357TIP3    H1 4077   4.229   2.484   0.137 -2.2147  0.2421 -1.1325
 1357TIP3    H2 4078   4.126   2.545   0.230 -0.0710 -0.0282  1.5542
 1358TIP3   OH2 4079   3.621   2.264   2.844 -0.2518 -0.5152 -0.1640
 1358TIP3    H1 4080   3.685   2.201   2.813  0.6776  0.5395 -0.4703
 1358TIP3    H2 4081   3.565   2.214   2.903  0.2555 -1.6839 -0.6389
 1359TIP3   OH2 4082   4.522   5.907   3.202 -0.0112  0.0826  0.4565
 1359TIP3    H1 4083   4.604   5.857   3.197  0.8793  1.5593 -0.6951
 1359TIP3    H2 4084   4.518   5.955   3.119 -0.5102  2.3266  1.6808
 1360TIP3   OH2 4085   3.531   0.618   1.094 -0.1829 -0.2419  0.8723
 1360TIP3    H1 4086   3.622   0.603   1.070 -0.2647  1.5293 -0.7693
 1360TIP3    H2 4087   3.535   0.677   1.169  0.0194 -0.1736  0.8078
 1361TIP3   OH2 4088   3.416   0.622   4.292  0.2746  0.3940 -0.4056
 1361TIP3    H1 4089   3.411   0.541   4.344  1.1037  1.0649  0.7907
 1361TIP3    H2 4090   3.405   0.594   4.202 -1.7841 -0.7576  0.1606
 1362TIP3   OH2 4091   5.485   1.055   5.084  0.2429 -0.2352 -0.1538
 1362TIP3    H1 4092   5.423   1.113   5.128 -0.3654 -1.7917  1.1673
 1362TIP3    H2 4093   5.430   1.003   5.025  0.3269 -1.3025  0.6808
 1363TIP3   OH2 4094   0.351   2.860   2.177  0.2168 -0.1577  0.0595
 1363TIP3    H1 4095   0.282   2.807   2.219 -0.3933  1.0327  0.5909
 1363TIP3    H2 4096   0.382   2.805   2.105 -1.1861 -0.7993 -0.0989
 1364TIP3   OH2 4097   6.296   1.814   0.947 -0.3988 -0.0714  0.2602
 1364TIP3    H1 4098   6.266   1.810   0.856 -0.5305 -2.1779  0.3394
 1364TIP3    H2 4099   6.226   1.770   0.997  0.5888 -0.7348  1.0911
 1365TIP3   OH2 4100   5.205   2.862   3.642 -0.1965  0.5292  0.0597
 1365TIP3    H1 4101   5.184   2.798   3.710  0.2753  0.1532 -0.1475
 1365TIP3    H2 4102   5.237   2.938   3.690  1.0137 -0.0675  0.2310
 1366TIP3   OH2 4103   2.217   3.665   2.745  0.0691 -0.4115 -0.1734
 1366TIP3    H1 4104   2.194   3.613   2.821  0.1822 -1.2195 -0.6849
 1366TIP3    H2 4105   2.259   3.604   2.685  0.4695  0.3259 -0.6679
 1367TIP3   OH2 4106   2.370   0.578   4.598  0.0547 -0.1290 -0.4522
 1367TIP3    H1 4107   2.408   0.492   4.613 -1.5140 -1.1677 -2.0388
 1367TIP3    H2 4108   2.296   0.583   4.659  0.8702  0.6422  0.5091
 1368TIP3   OH2 4109   5.151   3.121   0.706 -0.2937  0.2371  0.5882
 1368TIP3    H1 4110   5.103   3.151   0.629  1.8178  0.2003 -0.8146
 1368TIP3    H2 4111   5.129   3.028   0.714  0.6525 -0.1552 -0.9569
 1369TIP3   OH2 4112   1.430   2.888   1.017  0.0845 -0.3315 -0.4583
 1369TIP3    H1 4113   1.488   2.924   0.950 -1.0180  0.7805 -0.8486
 1369TIP3    H2 4114   1.483   2.891   1.097  0.8460 -0.1117 -0.9552
 1370TIP3   OH2 4115   4.714   1.184   2.287 -0.7191 -0.3555  0.0833
 1370TIP3    H1 4116   4.761   1.248   2.341 -0.3116 -0.4636 -0.1316
 1370TIP3    H2 4117   4.779   1.157   2.221 -0.6811 -1.4411  0.5337
 1371TIP3   OH2 4118   2.899   4.681   3.189  0.1433  0.3015 -0.1127
 1371TIP3    H1 4119   2.874   4.608   3.246  0.5685  1.4427  1.6091
 1371TIP3    H2 4120   2.985   4.657   3.155 -0.0738 -0.3498 -0.2241
 1372TIP3   OH2 4121   0.943   5.241   2.467 -0.3116  0.0114 -0.0131
 1372TIP3    H1 4122   0.863   5.293   2.471  0.2328  0.9343 -0.7652
 1372TIP3    H2 4123   0.942   5.202   2.379 -1.6268 -2.8168  1.1164
 1373TIP3   OH2 4124   0.416   4.436   3.664 -0.6703  0.4414  0.1120
 1373TIP3    H1 4125   0.352   4.452   3.595 -0.9072  0.1649  0.2684
 1373TIP3    H2 4126   0.484   4.384   3.621 -0.4683  0.8689 -0.0942
 1374TIP3   OH2 4127   1.058   1.840   4.169  0.4848 -0.2606 -0.4946
 1374TIP3    H1 4128   1.117   1.800   4.234  1.9012  1.5672 -0.5824
 1374TIP3    H2 4129   1.053   1.932   4.195 -1.8388 -0.2039 -0.9137
 1375TIP3   OH2 4130   1.474   1.188   1.441  0.6409 -0.5964  0.0426
 1375TIP3    H1 4131   1.475   1.175   1.536  2.2441  0.6467  0.2317
 1375TIP3    H2 4132   1.473   1.283   1.429  2.4494 -0.6692 -1.1364
 1376TIP3   OH2 4133   2.607   5.239   3.599  0.3075 -0.0707  0.0704
 1376TIP3    H1 4134   2.686   5.201   3.638  1.0343  2.0428  0.7750
 1376TIP3    H2 4135   2.634   5.263   3.510  0.5280  0.8112  0.3689
 1377TIP3   OH2 4136   4.617   4.914   2.498 -0.0482 -0.0868  0.5153
 1377TIP3    H1 4137   4.629   4.973   2.424 -0.9648 -0.8979 -0.3097
 1377TIP3    H2 4138   4.540   4.862   2.475  0.0941 -0.8693  1.7051
 1378TIP3   OH2 4139   6.047   3.197   1.957 -0.3795  0.2006  0.5403
 1378TIP3    H1 4140   6.042   3.280   1.909  0.5188 -0.4355 -0.7120
 1378TIP3    H2 4141   5.960   3.158   1.947 -0.0679 -0.1449 -1.0342
 1379TIP3   OH2 4142   2.089   3.990   0.994 -0.1091 -0.1653  0.1959
 1379TIP3    H1 4143   2.149   3.970   0.922  0.1358 -0.8241  0.5723
 1379TIP3    H2 4144   2.146   4.016   1.066 -0.4450  3.5525 -0.6968
 1380TIP3   OH2 4145   3.575   2.966   0.119 -0.4411 -0.5895  0.2287
 1380TIP3    H1 4146   3.587   3.057   0.146 -0.6857  0.4646 -2.7983
 1380TIP3    H2 4147   3.664   2.931   0.113  0.0291  0.8489 -2.6098
 1381TIP3   OH2 4148   2.355   3.772   1.198 -0.2401  0.4614 -0.1552
 1381TIP3    H1 4149   2.342   3.695   1.142 -0.7052  1.5628 -1.6339
 1381TIP3    H2 4150   2.440   3.807   1.172 -0.2705  0.7492  0.1169
 1382TIP3   OH2 4151   0.104   0.868   4.652  0.1457 -0.2163 -0.2260
 1382TIP3    H1 4152   0.143   0.901   4.571  1.5744  1.9816  1.2314
 1382TIP3    H2 4153   0.070   0.782   4.629  0.8303  0.1645 -3.0485
 1383TIP3   OH2 4154   2.959   2.875   0.292 -0.4072  0.2984  0.9298
 1383TIP3    H1 4155   2.964   2.867   0.196  1.2389 -0.6817  1.0458
 1383TIP3    H2 4156   2.870   2.848   0.314 -0.9489  0.9643 -0.3494
 1384TIP3   OH2 4157   2.399   2.353   1.329 -0.0620  0.2737 -0.2334
 1384TIP3    H1 4158   2.352   2.374   1.409 -0.4204 -0.5578 -0.2209
 1384TIP3    H2 4159   2.394   2.433   1.277 -0.4167  0.5954  0.2890
 1385TIP3   OH2 4160   5.739   2.346   3.579 -0.0600 -0.0651  0.8708
 1385TIP3    H1 4161   5.758   2.266   3.530 -0.1047  0.2209  0.3864
 1385TIP3    H2 4162   5.648   2.337   3.605  0.3038 -0.7856  1.9750
 1386TIP3   OH2 4163   1.006   3.271   3.630  0.2470  0.1594 -0.3961
 1386TIP3    H1 4164   1.092   3.311   3.643 -0.1248  0.8567  0.0063
 1386TIP3    H2 4165   0.960   3.331   3.571 -0.2862  0.2976  0.1422
 1387TIP3   OH2 4166   5.023   2.272   4.713 -0.3039 -0.2990 -0.4850
 1387TIP3    H1 4167   5.035   2.254   4.806 -0.9396 -0.6239 -0.4594
 1387TIP3    H2 4168   4.944   2.327   4.710  0.2493  0.5032 -0.7598
 1388TIP3   OH2 4169   0.096   2.761   1.138 -0.3503  0.0471 -0.5116
 1388TIP3    H1 4170   0.184   2.755   1.102  0.7781 -2.0280  2.3257
 1388TIP3    H2 4171   0.088   2.852   1.166  0.0672  0.7648 -2.4941
 1389TIP3   OH2 4172   1.997   0.710   1.909 -0.3567  0.6753 -0.5546
 1389TIP3    H1 4173   1.909   0.686   1.878 -0.3244 -0.7399  0.3699
 1389TIP3    H2 4174   2.053   0.638   1.879  0.3154  1.1038 -0.3375
 1390TIP3   OH2 4175   2.919   0.052   1.844  0.0227 -0.2929 -0.5967
 1390TIP3    H1 4176   2.928  -0.042   1.857  1.2161 -0.1107  0.0865
 1390TIP3    H2 4177   2.826   0.066   1.829 -0.1807 -1.5647 -0.5991
 1391TIP3   OH2 4178   2.897   5.070   3.077  0.0676 -0.3678  0.0774
 1391TIP3    H1 4179   2.965   5.136   3.090  0.2144 -0.6782  0.9552
 1391TIP3    H2 4180   2.837   5.110   3.015  0.3746  0.4339  0.2830
 1392TIP3   OH2 4181   1.104   3.462   0.876  0.4294  1.0359  0.5574
 1392TIP3    H1 4182   1.066   3.422   0.798  0.7717  2.7506 -0.5510
 1392TIP3    H2 4183   1.195   3.435   0.875  0.1856  0.1781  0.9773
 1393TIP3   OH2 4184   5.906   3.718   0.723 -0.3911  0.1692 -0.0906
 1393TIP3    H1 4185   5.825   3.676   0.752 -0.0476 -0.2852  0.2234
 1393TIP3    H2 4186   5.917   3.688   0.633 -0.2470 -0.2695  0.0699
 1394TIP3   OH2 4187   1.260   3.682   1.075  0.2380  0.4485  0.2798
 1394TIP3    H1 4188   1.258   3.657   0.983 -1.5745  0.7334  0.1997
 1394TIP3    H2 4189   1.339   3.735   1.085  0.6096  0.1568 -1.0310
 1395TIP3   OH2 4190   4.734   5.185   2.297 -0.3885  0.3534 -0.2527
 1395TIP3    H1 4191   4.768   5.105   2.258  0.0413 -0.6749  2.0895
 1395TIP3    H2 4192   4.794   5.254   2.267 -0.0790 -0.3799 -1.3563
 1396TIP3   OH2 4193   3.306   0.548   5.095 -0.7005 -0.4459 -0.3695
 1396TIP3    H1 4194   3.395   0.527   5.124  0.0627  0.2362 -2.0495
 1396TIP3    H2 4195   3.252   0.539   5.173  1.1194  0.8187  1.1088
 1397TIP3   OH2 4196   1.015   2.124   1.665  0.5461 -0.3446 -0.5647
 1397TIP3    H1 4197   0.963   2.060   1.713  1.0240  0.0990  0.5790
 1397TIP3    H2 4198   1.105   2.095   1.676  0.9246  1.3350  1.3011
 1398TIP3   OH2 4199   5.501   1.837   0.747  0.0184 -0.0457  0.2158
 1398TIP3    H1 4200   5.504   1.887   0.665 -0.4004 -0.5542 -0.1154
 1398TIP3    H2 4201   5.450   1.893   0.806 -1.2442 -0.4633 -0.4351
 1399TIP3   OH2 4202   0.628   0.889   5.092 -0.6104 -0.5274  0.0521
 1399TIP3    H1 4203   0.606   0.928   5.007  0.7608  1.1073  0.3817
 1399TIP3    H2 4204   0.723   0.902   5.100 -0.4224 -2.2265  1.0949
 1400TIP3   OH2 4205   0.169   0.737   2.438 -0.0530 -0.4486  0.2781
 1400TIP3    H1 4206   0.228   0.760   2.510  0.5513 -1.6124  0.1792
 1400TIP3    H2 4207   0.227   0.707   2.369 -0.6811 -0.1056 -0.4125
 1401TIP3   OH2 4208   0.291   0.648   0.669 -0.6428  0.3957 -0.3087
 1401TIP3    H1 4209   0.335   0.568   0.696  0.9605  0.9419 -1.2067
 1401TIP3    H2 4210   0.332   0.717   0.722 -0.6857  0.8682 -0.8861
 1402TIP3   OH2 4211   3.184   0.094   5.050  0.7570 -0.2245 -0.0950
 1402TIP3    H1 4212   3.219   0.042   4.978  2.2835  0.0441  0.4257
 1402TIP3    H2 4213   3.091   0.069   5.054  0.7845 -0.7132 -1.7221
 1403TIP3   OH2 4214   4.426   4.759   1.858 -0.0026  0.8787  0.2916
 1403TIP3    H1 4215   4.370   4.756   1.935 -0.1128 -0.1380  0.1952
 1403TIP3    H2 4216   4.389   4.693   1.799  0.9507  0.5876 -0.0064
 1404TIP3   OH2 4217   1.129   2.084   1.980 -0.6747 -0.7810 -0.2418
 1404TIP3    H1 4218   1.204   2.033   1.950 -1.6518 -1.5889 -1.3800
 1404TIP3    H2 4219   1.132   2.164   1.928  0.0062 -0.3154  0.4918
 1405TIP3   OH2 4220   1.481   0.193   2.016 -0.3576  0.2326  0.7635
 1405TIP3    H1 4221   1.532   0.132   1.961  0.5831  1.6324  0.0244
 1405TIP3    H2 4222   1.391   0.163   2.006 -0.2275  0.3677 -1.5560
 1406TIP3   OH2 4223   6.109   0.496   3.780 -0.6228 -0.3356  0.0220
 1406TIP3    H1 4224   6.131   0.409   3.814 -1.0076  0.1690  1.6761
 1406TIP3    H2 4225   6.134   0.556   3.851  0.3074  0.9816 -1.3666
 1407TIP3   OH2 4226   5.041   1.046   0.038 -0.4443 -0.3185 -0.6853
 1407TIP3    H1 4227   5.006   0.977  -0.018 -1.5122 -0.0255 -0.4096
 1407TIP3    H2 4228   5.134   1.026   0.047 -0.9389 -2.4187  0.3743
 1408TIP3   OH2 4229   1.427   1.047   1.673 -0.4456  0.4256 -0.0568
 1408TIP3    H1 4230   1.450   1.031   1.764 -1.5988  1.9821  0.5409
 1408TIP3    H2 4231   1.355   0.986   1.655  0.0431 -0.1586 -0.0722
 1409TIP3   OH2 4232   1.731   2.969   0.591 -0.1950  0.3583 -0.1880
 1409TIP3    H1 4233   1.719   2.918   0.510  1.6012  1.2100 -1.0516
 1409TIP3    H2 4234   1.821   3.000   0.586 -0.5158  1.6716  1.4589
 1410TIP3   OH2 4235   1.656   4.802   4.232  0.0540 -0.0987 -0.0962
 1410TIP3    H1 4236   1.750   4.785   4.232 -0.1773 -1.5249 -0.1435
 1410TIP3    H2 4237   1.647   4.890   4.269  1.4386  0.3503 -0.7790
 1411TIP3   OH2 4238   2.745   0.964   2.066  0.3680 -0.5132  0.2514
 1411TIP3    H1 4239   2.774   0.900   2.130 -2.1744 -1.2978  0.7292
 1411TIP3    H2 4240   2.730   1.044   2.116 -1.0399 -0.9549  0.5729
 1412TIP3   OH2 4241   0.298   4.590   1.807  0.2469 -0.2222 -0.8070
 1412TIP3    H1 4242   0.366   4.546   1.857 -2.1530 -1.2943  1.7547
 1412TIP3    H2 4243   0.324   4.683   1.808  1.6343 -0.5887  0.0527
 1413TIP3   OH2 4244   5.369   3.160   0.107  0.4925  0.0865 -0.1069
 1413TIP3    H1 4245   5.380   3.104   0.030  1.6868 -0.5397  0.4925
 1413TIP3    H2 4246   5.279   3.143   0.137  0.2627 -0.1984 -0.9350
 1414TIP3   OH2 4247   3.272   0.202   0.676  0.3892  0.1920  0.2160
 1414TIP3    H1 4248   3.356   0.199   0.722  0.2280 -1.2360  0.4618
 1414TIP3    H2 4249   3.243   0.111   0.673 -1.3448  0.6889  0.4974
 1415TIP3   OH2 4250   2.928   0.423   1.136 -0.1258 -0.0832  0.5533
 1415TIP3    H1 4251   2.857   0.358   1.133 -0.1195 -0.1119  1.0869
 1415TIP3    H2 4252   2.926   0.463   1.049  0.1418 -1.0821  0.0746
 1416TIP3   OH2 4253   5.626   1.018   2.076  0.4511 -0.4153 -0.8314
 1416TIP3    H1 4254   5.719   0.999   2.091  0.6206  0.8582 -0.1878
 1416TIP3    H2 4255   5.626   1.091   2.015 -0.1634 -0.8787 -1.4085
 1417TIP3   OH2 4256   4.216   1.069   2.799 -0.2899  0.4530  0.2941
 1417TIP3    H1 4257   4.309   1.060   2.817 -0.3835 -1.0976  0.1229
 1417TIP3    H2 4258   4.174   1.007   2.859 -1.2006  0.9595  0.2060
 1418TIP3   OH2 4259   0.891   4.206   0.418 -0.7486 -0.0284 -0.0757
 1418TIP3    H1 4260   0.841   4.195   0.499 -0.8701 -2.2822 -0.4000
 1418TIP3    H2 4261   0.845   4.277   0.371 -2.2576 -0.4704  0.6625
 1419TIP3   OH2 4262   1.328   5.501   4.562 -0.3286  0.2780  0.5338
 1419TIP3    H1 4263   1.356   5.532   4.649  0.1369 -1.3079  0.9767
 1419TIP3    H2 4264   1.336   5.406   4.567 -2.1238  0.0212 -0.6380
 1420TIP3   OH2 4265   3.777   5.099   2.931  0.0507 -0.1558 -0.0235
 1420TIP3    H1 4266   3.693   5.060   2.911  0.2463 -0.3178 -0.5471
 1420TIP3    H2 4267   3.812   5.047   3.003  0.5886 -1.3680 -1.1212
 1421TIP3   OH2 4268   1.155   1.719   2.107 -0.0795 -0.0744  0.1341
 1421TIP3    H1 4269   1.170   1.766   2.025 -0.0691 -0.3047  0.0011
 1421TIP3    H2 4270   1.062   1.698   2.107 -0.5007  1.6200  1.1049
 1422TIP3   OH2 4271   6.076   3.956   0.363  0.2887 -0.5155  0.2728
 1422TIP3    H1 4272   6.100   3.968   0.455  0.6104 -0.7704  0.2223
 1422TIP3    H2 4273   6.078   3.861   0.350  0.1475 -0.4856  0.0253
 1423TIP3   OH2 4274   2.556   4.539   3.244  0.1959  0.2889  0.5836
 1423TIP3    H1 4275   2.583   4.510   3.332  0.7027 -0.4971  0.1830
 1423TIP3    H2 4276   2.512   4.462   3.207  1.6882 -0.0568 -0.5577
 1424TIP3   OH2 4277   1.369   4.225   2.475  0.1912  0.0834  0.2224
 1424TIP3    H1 4278   1.354   4.135   2.444 -2.7207  0.5851 -0.1440
 1424TIP3    H2 4279   1.464   4.234   2.478  0.5775 -2.8965 -0.0469
 1425TIP3   OH2 4280   2.592   4.326   3.829 -0.2181  0.4107  0.1501
 1425TIP3    H1 4281   2.671   4.272   3.834 -0.0464  0.7538  1.9246
 1425TIP3    H2 4282   2.542   4.289   3.756  1.2310 -0.2795 -0.5360
 1426TIP3   OH2 4283   5.174   3.758   3.319 -0.5296  0.0852  0.4191
 1426TIP3    H1 4284   5.209   3.733   3.405  1.2425  1.6538  0.2319
 1426TIP3    H2 4285   5.230   3.713   3.256 -2.7433 -2.2539 -0.0076
 1427TIP3   OH2 4286   6.056   3.819   5.079  0.6285  0.0911 -0.2322
 1427TIP3    H1 4287   6.053   3.732   5.039  0.2546  0.2399 -0.5309
 1427TIP3    H2 4288   6.100   3.874   5.014 -0.9248  0.5780 -0.9348
 1428TIP3   OH2 4289   4.020   0.367   1.662  0.3910 -0.1912 -0.2061
 1428TIP3    H1 4290   4.051   0.300   1.723  2.2685  1.5390  0.8729
 1428TIP3    H2 4291   4.081   0.364   1.589  0.8045  0.6510  0.0905
 1429TIP3   OH2 4292   0.490   1.442   4.841 -0.7651 -0.4557 -0.6077
 1429TIP3    H1 4293   0.461   1.533   4.840  0.0310 -0.1213  1.5005
 1429TIP3    H2 4294   0.465   1.411   4.928  1.2997 -1.4576 -0.3259
 1430TIP3   OH2 4295   4.413   2.858   0.035 -0.1447  0.5751 -0.1659
 1430TIP3    H1 4296   4.363   2.892   0.110  0.2853 -1.3422  1.0736
 1430TIP3    H2 4297   4.435   2.935  -0.016 -0.7175  1.9349  1.5400
 1431TIP3   OH2 4298   1.610   3.258   1.862  0.2882  0.2925 -0.7287
 1431TIP3    H1 4299   1.520   3.255   1.893  0.4308 -1.3056 -0.3407
 1431TIP3    H2 4300   1.608   3.215   1.777  0.5154  1.2847 -1.2526
 1432TIP3   OH2 4301   3.969   1.311   0.516 -0.0485 -0.5460 -0.5279
 1432TIP3    H1 4302   3.964   1.241   0.451 -0.6440 -0.6281 -0.4005
 1432TIP3    H2 4303   3.901   1.372   0.490 -0.0617 -0.4110 -0.1768
 1433TIP3   OH2 4304   6.047   1.448   2.627 -0.0557  0.8504 -0.3981
 1433TIP3    H1 4305   6.022   1.514   2.563  0.2742  0.8264 -0.5519
 1433TIP3    H2 4306   6.115   1.396   2.584  0.0306  0.7130 -0.1037
 1434TIP3   OH2 4307   5.898   5.163   1.429  0.4288  0.0592 -0.3079
 1434TIP3    H1 4308   5.867   5.072   1.425 -1.1190  0.4961  0.6463
 1434TIP3    H2 4309   5.859   5.197   1.510  1.8433  1.2795 -0.1137
 1435TIP3   OH2 4310   4.603   3.081   2.511  0.7040 -0.4476 -0.1381
 1435TIP3    H1 4311   4.669   3.034   2.561  2.5971  0.7211 -1.4168
 1435TIP3    H2 4312   4.613   3.049   2.421  0.3101  0.5748 -0.5655
 1436TIP3   OH2 4313   2.619   5.724   3.111  0.3605 -0.2591 -0.0846
 1436TIP3    H1 4314   2.525   5.732   3.126  0.5744  0.2715  1.1511
 1436TIP3    H2 4315   2.638   5.788   3.042  0.0773  0.9235  0.9030
 1437TIP3   OH2 4316   5.630   5.342   0.340 -0.1283 -0.4801  0.2670
 1437TIP3    H1 4317   5.629   5.437   0.352  0.8160 -0.5048  0.6600
 1437TIP3    H2 4318   5.549   5.312   0.381 -0.6300  0.1883 -0.2117
 1438TIP3   OH2 4319   4.313   3.250   4.901  0.0105  0.1560 -0.2321
 1438TIP3    H1 4320   4.241   3.313   4.896 -0.3164 -0.2506 -0.7391
 1438TIP3    H2 4321   4.329   3.225   4.810  0.4756 -0.1233 -0.0799
 1439TIP3   OH2 4322   6.085   1.659   3.612  0.3162  0.1423 -0.3390
 1439TIP3    H1 4323   6.032   1.640   3.689 -0.3199 -0.3635 -0.8843
 1439TIP3    H2 4324   6.131   1.577   3.593 -0.1961 -0.0016 -0.9943
 1440TIP3   OH2 4325   5.343   4.266   1.475 -0.2174  0.0976  0.1101
 1440TIP3    H1 4326   5.339   4.301   1.564  0.4163 -0.3891  0.3425
 1440TIP3    H2 4327   5.274   4.311   1.427 -0.3886  0.5547  0.7859
 1441TIP3   OH2 4328   2.896   2.978   3.036 -0.6098 -0.0940 -0.5385
 1441TIP3    H1 4329   2.853   2.895   3.016 -1.5124  0.3940 -0.6787
 1441TIP3    H2 4330   2.841   3.044   2.995 -0.2470  0.6224  0.0993
 1442TIP3   OH2 4331   1.420   2.463   1.434 -0.3478 -0.6256 -0.0289
 1442TIP3    H1 4332   1.438   2.374   1.403 -0.4880 -0.0913 -1.7878
 1442TIP3    H2 4333   1.496   2.486   1.487  0.0128 -1.5556 -0.1235
 1443TIP3   OH2 4334   0.790   2.731   2.723  0.2561 -0.3175 -0.4353
 1443TIP3    H1 4335   0.854   2.799   2.745 -0.8005  0.4301  0.4013
 1443TIP3    H2 4336   0.805   2.713   2.630 -0.1494  1.8448 -0.9709
 1444TIP3   OH2 4337   1.291   2.826   4.595 -0.3274 -0.3340  0.7086
 1444TIP3    H1 4338   1.312   2.919   4.587  0.1740 -0.5774 -1.1817
 1444TIP3    H2 4339   1.262   2.800   4.508  3.5573 -2.8796 -0.0710
 1445TIP3   OH2 4340   5.092   4.264   3.143 -0.0795 -0.6263 -0.4689
 1445TIP3    H1 4341   5.117   4.196   3.206 -0.0651  1.0908  1.4585
 1445TIP3    H2 4342   5.003   4.239   3.116 -1.0050 -0.2499  1.9745
 1446TIP3   OH2 4343   1.030   0.766   1.849 -0.0937 -1.2454  0.0894
 1446TIP3    H1 4344   0.953   0.714   1.872 -1.0292  0.3264  0.6041
 1446TIP3    H2 4345   1.010   0.802   1.763  0.5515 -1.7143 -0.2645
 1447TIP3   OH2 4346   6.102   5.081   3.724  0.9581  0.3492  0.0364
 1447TIP3    H1 4347   6.120   4.996   3.765 -0.5567  1.8437  4.3419
 1447TIP3    H2 4348   6.009   5.078   3.701  0.9137  0.8278  0.1373
 1448TIP3   OH2 4349   4.485   5.081   3.644  0.0247  0.6090  0.7415
 1448TIP3    H1 4350   4.424   5.008   3.629 -0.0763  1.0918 -1.6163
 1448TIP3    H2 4351   4.520   5.065   3.731 -0.7074 -1.7484  0.6852
 1449TIP3   OH2 4352   0.921   5.311   1.302  0.5739 -0.0816  0.1042
 1449TIP3    H1 4353   0.853   5.315   1.370 -0.1854  0.2403 -0.6443
 1449TIP3    H2 4354   0.926   5.401   1.268 -0.2260 -0.5480 -1.3508
 1450TIP3   OH2 4355   4.973   0.887   3.263  0.2848 -0.6019  0.4362
 1450TIP3    H1 4356   4.913   0.816   3.240  0.0216 -0.0869 -0.5407
 1450TIP3    H2 4357   4.918   0.965   3.267  0.7919 -0.2153  0.0522
 1451TIP3   OH2 4358   6.139   0.006   2.256 -0.3157 -0.2356  0.0970
 1451TIP3    H1 4359   6.091   0.058   2.320  0.8020 -0.8864  1.4908
 1451TIP3    H2 4360   6.126   0.053   2.173 -0.9777  1.1404  0.9463
 1452TIP3   OH2 4361   0.631   0.125   3.282  0.1015 -0.0596 -0.4466
 1452TIP3    H1 4362   0.556   0.074   3.253  0.1832 -0.0263 -0.7165
 1452TIP3    H2 4363   0.593   0.202   3.324 -0.0177  0.3510 -1.2819
 1453TIP3   OH2 4364   1.237   5.477   2.871  0.3624 -0.5561  0.3690
 1453TIP3    H1 4365   1.184   5.432   2.806  1.5954 -1.7576  0.1624
 1453TIP3    H2 4366   1.175   5.533   2.917 -0.5996  0.1287 -1.6321
 1454TIP3   OH2 4367   3.887   2.067   4.572  0.5205 -0.1853 -0.6787
 1454TIP3    H1 4368   3.976   2.034   4.558  0.4971 -0.6627  0.2024
 1454TIP3    H2 4369   3.832   1.988   4.572  0.3881 -0.1293  0.9047
 1455TIP3   OH2 4370   0.942   0.594   4.574 -0.4173  0.2131 -0.1124
 1455TIP3    H1 4371   0.987   0.597   4.490  0.4501 -0.4908  0.3029
 1455TIP3    H2 4372   0.891   0.512   4.571  0.3301 -0.2858  0.3756
 1456TIP3   OH2 4373   1.639   2.073   5.019  0.0834  0.5177 -0.4333
 1456TIP3    H1 4374   1.630   2.029   5.104  2.5686  1.3951  0.3929
 1456TIP3    H2 4375   1.597   2.158   5.031  0.3386  0.6001 -0.0875
 1457TIP3   OH2 4376   1.335   0.588   1.391  0.0300 -0.3482  0.1739
 1457TIP3    H1 4377   1.400   0.575   1.322 -0.1795 -1.0040  0.0882
 1457TIP3    H2 4378   1.358   0.524   1.458 -0.3118 -0.3435  0.2993
 1458TIP3   OH2 4379   4.548   2.814   3.441  0.1010 -0.3295 -0.6087
 1458TIP3    H1 4380   4.472   2.834   3.386  0.6263 -2.2055 -2.1081
 1458TIP3    H2 4381   4.543   2.879   3.512 -0.5969  2.2367 -2.8158
 1459TIP3   OH2 4382   1.876   3.901   0.631 -0.4540  0.3123  0.6106
 1459TIP3    H1 4383   1.938   3.840   0.591  0.5532  0.7003  1.5299
 1459TIP3    H2 4384   1.813   3.920   0.562  0.4044 -0.1601 -0.3227
 1460TIP3   OH2 4385   3.330   2.580   1.462  0.2792  0.2239  0.3012
 1460TIP3    H1 4386   3.350   2.508   1.403  2.2054 -1.4896  2.8611
 1460TIP3    H2 4387   3.345   2.659   1.409  2.4020 -1.1869 -1.3520
 1461TIP3   OH2 4388   2.155   1.388   4.410 -0.4652  0.7381 -0.0128
 1461TIP3    H1 4389   2.124   1.315   4.462  1.3165  1.2982  1.9519
 1461TIP3    H2 4390   2.167   1.352   4.322  0.3897 -1.3457  0.9105
 1462TIP3   OH2 4391   2.983   5.985   3.066  0.1151  0.0006 -0.0641
 1462TIP3    H1 4392   2.924   6.058   3.085 -2.9238 -1.8120 -1.7122
 1462TIP3    H2 4393   2.937   5.908   3.100  1.8187 -1.4778 -0.9683
 1463TIP3   OH2 4394   4.084   1.102   1.941  0.3692  0.1936  0.1377
 1463TIP3    H1 4395   4.084   1.113   2.036 -1.0530  0.8194  0.0756
 1463TIP3    H2 4396   4.170   1.135   1.914  1.2528 -1.0244  1.2897
 1464TIP3   OH2 4397   4.355   4.906   0.808 -0.1053  0.1481  0.6229
 1464TIP3    H1 4398   4.403   4.955   0.874 -1.8218  1.2097  1.1544
 1464TIP3    H2 4399   4.291   4.969   0.773  0.4947 -0.4997 -1.7825
 1465TIP3   OH2 4400   1.680   3.978   4.791 -0.3923 -0.2698  0.4664
 1465TIP3    H1 4401   1.662   4.033   4.714 -0.2041  0.0860  0.6740
 1465TIP3    H2 4402   1.595   3.938   4.811 -1.5021  2.7153  2.4911
 1466TIP3   OH2 4403   4.695   3.295   2.106 -0.4272 -0.2779  0.2216
 1466TIP3    H1 4404   4.621   3.276   2.048 -0.0281  0.6838 -0.6529
 1466TIP3    H2 4405   4.740   3.369   2.063 -0.8209  1.3111  2.3855
 1467TIP3   OH2 4406   4.385   2.537   0.040 -0.4226 -0.2396  0.1758
 1467TIP3    H1 4407   4.391   2.630   0.022 -3.1494  0.0965  0.6529
 1467TIP3    H2 4408   4.467   2.516   0.084  1.4555  1.2852 -2.3029
 1468TIP3   OH2 4409   4.410   1.960   2.738  0.4804 -0.2968  0.0725
 1468TIP3    H1 4410   4.491   1.966   2.687  1.0681 -0.1901  0.9934
 1468TIP3    H2 4411   4.405   2.044   2.784 -0.2277 -0.2537 -0.0770
 1469TIP3   OH2 4412   2.966   2.810   2.196 -0.0806 -0.0639 -0.1680
 1469TIP3    H1 4413   3.054   2.839   2.219 -0.5227  1.3379 -0.1441
 1469TIP3    H2 4414   2.960   2.721   2.230  0.5677  0.6123  1.8543
 1470TIP3   OH2 4415   1.305   3.468   1.290 -0.1758  0.4144  0.2509
 1470TIP3    H1 4416   1.261   3.434   1.369 -0.3847  0.6763  0.2486
 1470TIP3    H2 4417   1.243   3.531   1.254 -0.0476  0.3485 -0.0859
 1471TIP3   OH2 4418   2.738   1.665   3.565  0.0540 -0.2645  0.3923
 1471TIP3    H1 4419   2.757   1.743   3.616 -2.5726  2.6112 -2.6173
 1471TIP3    H2 4420   2.824   1.634   3.535  1.2866  0.2751  3.1180
 1472TIP3   OH2 4421   0.666   1.983   2.029 -0.1902 -0.5322 -0.1541
 1472TIP3    H1 4422   0.758   1.965   2.051  0.3449  0.7398 -1.2014
 1472TIP3    H2 4423   0.627   1.896   2.019  1.5383 -1.1839 -2.1215
 1473TIP3   OH2 4424   1.689   4.206   4.448  0.0591  0.3428 -0.6854
 1473TIP3    H1 4425   1.623   4.245   4.505 -0.0466 -0.9489  0.1120
 1473TIP3    H2 4426   1.654   4.120   4.425  1.5830 -0.5184  0.0446
 1474TIP3   OH2 4427   1.382   3.304   4.308  0.2718 -0.2819  0.5253
 1474TIP3    H1 4428   1.461   3.357   4.311  0.3798 -0.4190  0.1184
 1474TIP3    H2 4429   1.324   3.344   4.373  0.5588  0.0014  0.6089
 1475TIP3   OH2 4430   2.052   1.396   2.274  0.3136 -0.2253 -0.2829
 1475TIP3    H1 4431   2.048   1.397   2.178  2.4284  0.4680 -0.4197
 1475TIP3    H2 4432   2.014   1.479   2.300 -2.3926 -1.3473 -0.3173
 1476TIP3   OH2 4433   2.907   1.915   3.827 -0.0022 -0.0738  0.3646
 1476TIP3    H1 4434   3.000   1.900   3.807  0.0266 -2.3032  1.7602
 1476TIP3    H2 4435   2.900   1.899   3.921 -1.5754  1.5434  0.5667
 1477TIP3   OH2 4436   3.378   4.767   0.538 -0.1846 -0.1388 -0.0402
 1477TIP3    H1 4437   3.459   4.741   0.495  0.1941 -1.1639  1.2412
 1477TIP3    H2 4438   3.363   4.857   0.508  0.2517 -0.6689 -1.9759
 1478TIP3   OH2 4439   4.106   3.041   3.150 -0.4128  0.5376  0.0969
 1478TIP3    H1 4440   4.049   2.977   3.107  1.3564 -1.2969  0.3860
 1478TIP3    H2 4441   4.067   3.053   3.237 -2.8919  2.8113 -1.1496
 1479TIP3   OH2 4442   2.334   0.864   1.746  0.6744 -0.4186  0.4209
 1479TIP3    H1 4443   2.409   0.920   1.767  0.1643  0.2631  0.4732
 1479TIP3    H2 4444   2.257   0.921   1.758  0.1806 -0.9439 -0.1535
 1480TIP3   OH2 4445   5.738   2.417   2.872 -0.1269  0.7553 -0.0950
 1480TIP3    H1 4446   5.758   2.327   2.897 -3.0887 -0.0767 -0.3855
 1480TIP3    H2 4447   5.666   2.443   2.929  0.6517  2.9840 -0.0201
 1481TIP3   OH2 4448   3.238   4.464   1.717  0.2776  0.3820  0.2028
 1481TIP3    H1 4449   3.330   4.444   1.733  0.4171  0.4147 -0.5244
 1481TIP3    H2 4450   3.191   4.384   1.741  0.6322 -0.1198 -0.7181
 1482TIP3   OH2 4451   1.709   0.978   3.944  0.3089  0.5440  0.2312
 1482TIP3    H1 4452   1.744   0.996   3.857 -0.1640 -0.2381 -0.1342
 1482TIP3    H2 4453   1.787   0.967   3.999  0.6080  1.5183  0.0242
 1483TIP3   OH2 4454   0.776   0.668   0.237 -0.1375 -0.6694  0.1308
 1483TIP3    H1 4455   0.713   0.688   0.306  0.4594 -0.7206  0.7005
 1483TIP3    H2 4456   0.795   0.753   0.197  0.5299 -0.4329  0.9235
 1484TIP3   OH2 4457   6.268   1.120   5.094 -0.0044  0.2651 -0.3997
 1484TIP3    H1 4458   6.219   1.052   5.140  1.0482  0.8123  1.6209
 1484TIP3    H2 4459   6.290   1.080   5.010 -0.7913 -1.2914  0.0845
 1485TIP3   OH2 4460   0.525   5.321   0.603  0.6609 -0.3369 -0.0269
 1485TIP3    H1 4461   0.574   5.289   0.679  0.0064  1.5761  1.2699
 1485TIP3    H2 4462   0.435   5.331   0.635  0.0335 -0.9100 -1.5097
 1486TIP3   OH2 4463   4.295   4.706   1.443 -0.3065 -0.3266  0.2994
 1486TIP3    H1 4464   4.280   4.631   1.385 -0.5619 -0.3685  0.4166
 1486TIP3    H2 4465   4.380   4.689   1.483  0.4589  0.2927 -0.9731
 1487TIP3   OH2 4466   5.670   2.281   4.994  0.4166 -0.2110  0.0641
 1487TIP3    H1 4467   5.667   2.331   5.075  0.5038 -1.1550  0.6710
 1487TIP3    H2 4468   5.622   2.201   5.014 -0.0142 -0.2273 -0.9857
 1488TIP3   OH2 4469   5.359   5.451   0.808 -0.1003 -0.0582 -0.3505
 1488TIP3    H1 4470   5.438   5.472   0.758 -0.5398 -0.1818 -1.1071
 1488TIP3    H2 4471   5.387   5.454   0.900  0.8439 -0.3428 -0.6213
 1489TIP3   OH2 4472   5.863   0.389   3.699 -0.7871 -0.1702  0.0453
 1489TIP3    H1 4473   5.954   0.402   3.727 -1.1195  0.1674  1.0031
 1489TIP3    H2 4474   5.852   0.294   3.699 -0.5359 -0.2016  0.2505
 1490TIP3   OH2 4475   3.659   0.721   0.442  0.1647  0.3571  0.5497
 1490TIP3    H1 4476   3.598   0.663   0.397  0.5863  0.8544 -0.7180
 1490TIP3    H2 4477   3.653   0.804   0.394  0.4031  1.0118  1.6185
 1491TIP3   OH2 4478   3.332   4.013   4.362  0.2003 -0.1934 -0.0079
 1491TIP3    H1 4479   3.337   3.939   4.302 -0.6317 -1.4620  1.3910
 1491TIP3    H2 4480   3.384   3.987   4.438 -0.1552  0.6259  0.5410
 1492TIP3   OH2 4481   0.482   3.489   4.367  0.6084 -0.3527 -0.0420
 1492TIP3    H1 4482   0.573   3.498   4.338  1.3957 -0.2431  2.2420
 1492TIP3    H2 4483   0.453   3.579   4.384 -0.2520 -0.3139 -1.5658
 1493TIP3   OH2 4484   6.377   3.232   3.774 -0.0959 -0.2627 -0.1778
 1493TIP3    H1 4485   6.367   3.138   3.759 -1.1581 -0.4030  1.2464
 1493TIP3    H2 4486   6.288   3.266   3.780  0.2732  0.6141  0.5973
 1494TIP3   OH2 4487   1.982   4.194   3.830  0.2397  0.1128  0.2460
 1494TIP3    H1 4488   1.912   4.236   3.881  0.4108 -0.1399  0.6970
 1494TIP3    H2 4489   2.034   4.266   3.796  0.7082  0.2725  1.2666
 1495TIP3   OH2 4490   4.254   3.723   2.385 -0.0847  0.4483 -0.1513
 1495TIP3    H1 4491   4.297   3.638   2.373 -0.1232  0.4047  0.0262
 1495TIP3    H2 4492   4.162   3.702   2.401  0.1209  0.4587  1.1422
 1496TIP3   OH2 4493   0.922   3.645   3.063 -0.2897  0.7388 -0.3557
 1496TIP3    H1 4494   0.852   3.611   3.008 -0.9886  2.0916 -0.3494
 1496TIP3    H2 4495   1.003   3.615   3.022 -0.7769 -3.0822  1.0301
 1497TIP3   OH2 4496   3.845   4.935   0.498  0.1534 -0.5928 -0.1094
 1497TIP3    H1 4497   3.902   5.011   0.509 -1.9291  0.9604  0.6071
 1497TIP3    H2 4498   3.881   4.868   0.557  0.8285  0.5777  0.8337
 1498TIP3   OH2 4499   5.014   3.008   2.049  0.1440 -0.1808 -0.0287
 1498TIP3    H1 4500   4.946   3.021   2.115  0.7663  0.9081  0.4156
 1498TIP3    H2 4501   4.970   2.958   1.980 -0.7123 -0.7032  0.8767
 1499TIP3   OH2 4502   0.923   1.170   3.470  0.3380  0.5082  0.2979
 1499TIP3    H1 4503   0.971   1.251   3.450 -0.0526  0.5259 -0.6177
 1499TIP3    H2 4504   0.950   1.109   3.402 -0.2481  0.2294  0.3106
 1500TIP3   OH2 4505   4.337   2.785   2.589 -0.8770 -0.0072  0.5128
 1500TIP3    H1 4506   4.355   2.849   2.658  0.2538 -1.2855  1.4857
 1500TIP3    H2 4507   4.363   2.701   2.628 -3.5682 -1.2676 -0.2088
 1501TIP3   OH2 4508   1.485   0.675   0.081 -0.2731 -0.4731 -0.3580
 1501TIP3    H1 4509   1.411   0.670   0.021 -0.7026 -1.3631  0.2308
 1501TIP3    H2 4510   1.446   0.681   0.168  0.3488 -0.2442 -0.0815
 1502TIP3   OH2 4511   2.918   4.683   0.404 -0.0940 -0.5051  0.6275
 1502TIP3    H1 4512   2.988   4.726   0.353  1.4529 -3.1956  0.3040
 1502TIP3    H2 4513   2.965   4.636   0.473 -1.5661 -2.3363  0.4483
 1503TIP3   OH2 4514   5.378   3.051   2.584 -0.2826 -0.0546  0.2101
 1503TIP3    H1 4515   5.297   3.098   2.604  0.3279  1.5664 -0.9107
 1503TIP3    H2 4516   5.395   3.070   2.492  0.6393 -1.5479  0.0284
 1504TIP3   OH2 4517   4.824   5.949   3.060  0.1432 -0.0962 -0.2286
 1504TIP3    H1 4518   4.872   5.871   3.090 -1.6716 -0.4355  2.0488
 1504TIP3    H2 4519   4.886   6.021   3.071  0.1036 -0.4203  3.2322
 1505TIP3   OH2 4520   0.514   3.750   3.159  0.3940 -0.0097 -0.3472
 1505TIP3    H1 4521   0.498   3.796   3.242  1.6281  0.7242 -0.4925
 1505TIP3    H2 4522   0.583   3.801   3.117 -2.0519  1.2851 -3.1055
 1506TIP3   OH2 4523   3.079   3.177   3.040 -0.4540 -0.2563  0.1927
 1506TIP3    H1 4524   3.023   3.106   3.070 -0.0196 -0.4453  0.5525
 1506TIP3    H2 4525   3.167   3.140   3.038  0.0418  0.7319  1.9842
 1507TIP3   OH2 4526   6.042   0.015   1.683  0.3311  0.5245  0.9527
 1507TIP3    H1 4527   6.122  -0.029   1.712 -0.3565 -0.4953  1.3525
 1507TIP3    H2 4528   6.067   0.107   1.677  1.3337  0.3380  1.8318
 1508TIP3   OH2 4529   4.942   2.621   3.022  0.2236 -0.0919 -0.4151
 1508TIP3    H1 4530   4.889   2.547   2.993 -0.1828  0.2485 -0.5557
 1508TIP3    H2 4531   5.031   2.588   3.024  0.3496 -0.0065 -2.4870
 1509TIP3   OH2 4532   0.047   2.174   5.003 -0.0665 -0.2530  0.0745
 1509TIP3    H1 4533   0.133   2.208   4.978 -0.5393  0.5986 -0.4406
 1509TIP3    H2 4534   0.060   2.080   5.008  0.5203 -0.3056 -1.6147
 1510TIP3   OH2 4535   5.108   0.785   0.347  0.5487 -0.0753  0.1145
 1510TIP3    H1 4536   5.112   0.863   0.290 -1.0572  0.4648  0.6789
 1510TIP3    H2 4537   5.146   0.814   0.430  0.6033 -0.1147  0.1035
 1511TIP3   OH2 4538   0.294   5.276   2.553  0.5591 -0.1604 -0.5103
 1511TIP3    H1 4539   0.369   5.242   2.602  1.2405  1.3299 -0.4663
 1511TIP3    H2 4540   0.262   5.349   2.606 -0.8044 -0.6307 -0.6420
 1512TIP3   OH2 4541   6.247   2.778   0.411 -0.2366 -0.7795  0.2475
 1512TIP3    H1 4542   6.177   2.818   0.358  0.0408  0.1946  0.5975
 1512TIP3    H2 4543   6.267   2.696   0.365  1.1272  0.7790 -2.1374
 1513TIP3   OH2 4544   5.711   2.263   2.179  0.0346 -0.0336 -0.5994
 1513TIP3    H1 4545   5.715   2.331   2.111 -0.9844 -0.5789 -1.2233
 1513TIP3    H2 4546   5.794   2.273   2.226 -0.1365  1.7193 -0.5885
 1514TIP3   OH2 4547   0.193   5.746   2.652  0.3829  0.6735 -0.0857
 1514TIP3    H1 4548   0.166   5.770   2.741 -2.5173 -0.1949 -0.6453
 1514TIP3    H2 4549   0.209   5.830   2.609  3.2669  1.0997  1.5508
 1515TIP3   OH2 4550   5.436   5.975   4.073  0.4195  0.2975 -0.2078
 1515TIP3    H1 4551   5.491   6.046   4.106  1.5142 -0.5240 -0.2057
 1515TIP3    H2 4552   5.478   5.949   3.990  0.1490 -0.4600 -0.1172
 1516TIP3   OH2 4553   4.626   3.029   3.586 -0.1204 -0.1064 -0.2149
 1516TIP3    H1 4554   4.697   3.084   3.556  0.0246  1.9134  3.3044
 1516TIP3    H2 4555   4.548   3.084   3.581 -0.9133 -1.2538 -1.1211
 1517TIP3   OH2 4556   3.524   4.556   3.359  0.4313 -0.3555  0.3615
 1517TIP3    H1 4557   3.461   4.626   3.375  1.0377 -0.1515  2.1476
 1517TIP3    H2 4558   3.599   4.599   3.318  0.1440 -0.2573 -0.0568
 1518TIP3   OH2 4559   2.853   1.617   4.643  0.2722  0.2698  0.1969
 1518TIP3    H1 4560   2.812   1.685   4.696  0.5540  2.3704 -2.0989
 1518TIP3    H2 4561   2.779   1.563   4.611 -0.1162  0.4793  0.7354
 1519TIP3   OH2 4562   4.079   0.675   3.498 -0.3619  0.2771  0.3179
 1519TIP3    H1 4563   4.015   0.609   3.471 -1.3276  0.8634  1.0918
 1519TIP3    H2 4564   4.161   0.646   3.460 -1.0715 -0.5522 -0.6298
 1520TIP3   OH2 4565   2.178   4.548   3.962  0.4005  0.2002 -0.2557
 1520TIP3    H1 4566   2.199   4.641   3.972  1.6527 -0.1637  0.8106
 1520TIP3    H2 4567   2.088   4.547   3.930  0.7934  1.8031 -1.5672
 1521TIP3   OH2 4568   4.574   4.410   1.316  0.1080 -0.6972 -0.1198
 1521TIP3    H1 4569   4.625   4.338   1.353 -0.6071 -0.7576  0.7923
 1521TIP3    H2 4570   4.535   4.373   1.236 -1.6142 -1.9295  1.1854
 1522TIP3   OH2 4571   1.540   3.712   3.904  0.1598 -0.1157 -0.6419
 1522TIP3    H1 4572   1.620   3.764   3.909  1.3536 -1.9306  0.4288
 1522TIP3    H2 4573   1.512   3.703   3.995  0.3545 -1.8306 -0.7221
 1523TIP3   OH2 4574   0.625   2.926   1.860  0.2239 -0.1706  0.3220
 1523TIP3    H1 4575   0.665   2.876   1.789 -1.1106 -0.8780  0.0363
 1523TIP3    H2 4576   0.651   2.878   1.940  1.9886  0.8076  0.3832
 1524TIP3   OH2 4577   2.536   2.863   3.205 -0.2508 -0.5220  0.1131
 1524TIP3    H1 4578   2.454   2.831   3.242  0.4970 -0.9922  1.4483
 1524TIP3    H2 4579   2.522   2.957   3.193 -0.6510 -0.4190  1.2756
 1525TIP3   OH2 4580   5.477   5.541   2.023 -0.1269  0.2360  0.5059
 1525TIP3    H1 4581   5.462   5.544   1.929  0.7279  1.2531  0.3791
 1525TIP3    H2 4582   5.483   5.633   2.049 -0.8392 -0.0168  1.6489
 1526TIP3   OH2 4583   0.926   4.354   1.589 -0.6610  0.1339 -0.0459
 1526TIP3    H1 4584   0.975   4.427   1.627  0.7025 -0.1779 -1.0986
 1526TIP3    H2 4585   0.844   4.393   1.560 -0.9055  0.7649  1.3903
 1527TIP3   OH2 4586   5.888   1.542   4.539  0.2941  0.2229 -0.0053
 1527TIP3    H1 4587   5.919   1.464   4.493  0.1123 -1.3363  2.3127
 1527TIP3    H2 4588   5.794   1.529   4.548  0.2379  0.7815  0.2867
 1528TIP3   OH2 4589   2.712   2.807   2.489  0.5283  0.2413  0.1303
 1528TIP3    H1 4590   2.624   2.775   2.508  0.9545 -0.4967  0.9272
 1528TIP3    H2 4591   2.754   2.814   2.574  2.2264 -2.3551 -0.3954
 1529TIP3   OH2 4592   0.053   5.911   4.588 -0.2001 -0.0945  0.2177
 1529TIP3    H1 4593   0.148   5.909   4.576 -0.0349 -0.0449  1.4583
 1529TIP3    H2 4594   0.021   5.841   4.530  0.4641  0.6687 -1.1233
 1530TIP3   OH2 4595   3.869   4.312   0.469  0.1801 -0.0767  0.4452
 1530TIP3    H1 4596   3.896   4.271   0.551  0.5079  0.3078  0.5303
 1530TIP3    H2 4597   3.940   4.373   0.448  0.0580 -0.1065 -0.0771
 1531TIP3   OH2 4598   6.140   5.019   0.900  0.1714 -0.4843  0.2752
 1531TIP3    H1 4599   6.197   5.057   0.967 -0.1806 -1.1541  0.9745
 1531TIP3    H2 4600   6.055   5.060   0.915  0.4732  0.6109 -0.8521
 1532TIP3   OH2 4601   3.347   4.214   2.112 -0.0676 -0.6505  0.4391
 1532TIP3    H1 4602   3.439   4.190   2.123  0.1969  0.9878  2.4867
 1532TIP3    H2 4603   3.311   4.213   2.201 -1.8117 -0.3624 -0.2106
 1533TIP3   OH2 4604   6.015   4.597   3.846 -0.8657  0.1561  0.0364
 1533TIP3    H1 4605   5.926   4.625   3.824 -0.6769  0.8189  0.0864
 1533TIP3    H2 4606   6.040   4.538   3.775 -1.4404 -0.2499  0.1612
 1534TIP3   OH2 4607   0.397   0.157   3.889  0.8756 -0.4295  0.2284
 1534TIP3    H1 4608   0.313   0.185   3.924  1.2572  2.6149 -0.9852
 1534TIP3    H2 4609   0.394   0.061   3.891 -3.0358 -0.4726 -0.7754
 1535TIP3   OH2 4610   1.370   0.616   4.378 -0.4632  0.6690 -1.0480
 1535TIP3    H1 4611   1.281   0.611   4.342 -0.0815  1.7608 -2.2137
 1535TIP3    H2 4612   1.427   0.620   4.301  0.6729 -0.8025 -0.3257
 1536TIP3   OH2 4613   6.340   4.799   0.068 -0.0613  0.2523  0.2941
 1536TIP3    H1 4614   6.285   4.877   0.073 -1.4669 -0.7798  1.7001
 1536TIP3    H2 4615   6.319   4.760  -0.017  0.9956  1.6067 -0.6202
 1537TIP3   OH2 4616   0.107   4.298   4.098 -0.2743  0.4605  0.8586
 1537TIP3    H1 4617   0.161   4.280   4.021  1.1028 -1.4791  2.1891
 1537TIP3    H2 4618   0.036   4.354   4.065  1.1019  0.9634 -1.4725
 1538TIP3   OH2 4619   2.545   2.611   0.971  0.3889  0.2541  0.1467
 1538TIP3    H1 4620   2.526   2.667   0.895 -2.1000 -0.9633 -0.2468
 1538TIP3    H2 4621   2.567   2.526   0.933 -1.4569 -0.5349  0.7012
 1539TIP3   OH2 4622   5.455   5.860   0.978 -0.1355  0.0189  0.7731
 1539TIP3    H1 4623   5.393   5.921   1.020 -2.0309 -0.2765 -1.3960
 1539TIP3    H2 4624   5.526   5.916   0.947 -1.0239  0.9004  0.2868
 1540TIP3   OH2 4625   3.566   3.532   0.639  0.0464  0.5834  0.2242
 1540TIP3    H1 4626   3.556   3.464   0.705  0.2544  1.8775  1.6504
 1540TIP3    H2 4627   3.534   3.612   0.681  3.9638  2.3192  0.3687
 1541TIP3   OH2 4628   1.778   3.808   3.575  0.1269  0.4615  0.7847
 1541TIP3    H1 4629   1.826   3.735   3.615  0.4197 -0.0183 -0.4218
 1541TIP3    H2 4630   1.749   3.860   3.650  1.0417 -0.1742  1.6147
 1542TIP3   OH2 4631   1.358   5.319   4.253  0.3781  0.4340 -0.0730
 1542TIP3    H1 4632   1.451   5.308   4.234  0.2246  1.9314 -2.0345
 1542TIP3    H2 4633   1.350   5.408   4.286 -0.1944 -0.1832  1.5345
 1543TIP3   OH2 4634   4.266   2.174   1.468  0.2707 -0.5696  0.0736
 1543TIP3    H1 4635   4.325   2.204   1.399  0.2466 -0.8583 -0.0751
 1543TIP3    H2 4636   4.281   2.079   1.473 -2.2624 -1.2068 -2.0120
 1544TIP3   OH2 4637   1.341   5.588   2.629 -0.1074 -0.1660 -0.0618
 1544TIP3    H1 4638   1.328   5.546   2.713 -1.1349  0.1092 -0.0655
 1544TIP3    H2 4639   1.351   5.681   2.650 -2.9806  0.2919 -0.3797
 1545TIP3   OH2 4640   0.929   0.511   1.861  0.2494  0.3379  0.2779
 1545TIP3    H1 4641   0.877   0.499   1.782  0.6884  0.5253 -0.0401
 1545TIP3    H2 4642   0.869   0.489   1.933  0.1371 -0.8057 -0.1444
 1546TIP3   OH2 4643   4.166   1.779   1.595  0.1008 -0.2419 -0.3263
 1546TIP3    H1 4644   4.218   1.712   1.638  1.0258  0.7931  0.2271
 1546TIP3    H2 4645   4.151   1.745   1.507  0.1848 -1.3451  0.0683
 1547TIP3   OH2 4646   1.243   4.711   2.534 -0.5993 -0.6249  0.3388
 1547TIP3    H1 4647   1.325   4.669   2.507 -0.4930 -0.5023  0.4631
 1547TIP3    H2 4648   1.208   4.750   2.454  0.5280  1.1170  0.6368
 1548TIP3   OH2 4649   5.042   1.208   2.507  0.3060  0.1864 -0.1814
 1548TIP3    H1 4650   4.962   1.260   2.496 -0.3963 -0.3326  1.9655
 1548TIP3    H2 4651   5.073   1.229   2.595  0.4887 -2.3124  0.4361
 1549TIP3   OH2 4652   3.395   5.362   0.747  0.0919  0.4766  0.2119
 1549TIP3    H1 4653   3.474   5.351   0.800 -0.0478 -1.1121  0.1477
 1549TIP3    H2 4654   3.425   5.346   0.657 -0.2415  0.1958  0.1502
 1550TIP3   OH2 4655   0.527   5.692   0.694  0.5109 -0.5362  0.4111
 1550TIP3    H1 4656   0.449   5.678   0.747 -0.4591 -2.1156 -1.3259
 1550TIP3    H2 4657   0.534   5.787   0.687 -1.0086 -0.3539  0.9665
 1551TIP3   OH2 4658   2.397   1.293   2.194 -0.1993 -0.4492  0.5523
 1551TIP3    H1 4659   2.413   1.369   2.138 -0.8657 -0.2787  0.5837
 1551TIP3    H2 4660   2.339   1.238   2.142  0.8085 -1.2627  0.2576
 1552TIP3   OH2 4661   0.736   2.532   1.027 -0.4436 -0.1454  0.9394
 1552TIP3    H1 4662   0.810   2.483   1.061  0.2083  0.5582  0.5529
 1552TIP3    H2 4663   0.660   2.498   1.076  0.1010 -0.9701  1.2281
 1553TIP3   OH2 4664   1.040   3.453   2.215 -0.5342 -0.2137  0.4174
 1553TIP3    H1 4665   0.950   3.425   2.197 -0.1345 -1.2613 -0.0213
 1553TIP3    H2 4666   1.082   3.455   2.129  0.1293 -0.7211  0.7150
 1554TIP3   OH2 4667   3.770   4.310   3.842  0.0882  0.2906 -0.1332
 1554TIP3    H1 4668   3.834   4.324   3.773  0.3419  0.6753  0.1774
 1554TIP3    H2 4669   3.690   4.352   3.810  0.6615  1.9303  0.5071
 1555TIP3   OH2 4670   5.067   3.582   2.861 -0.4968 -0.1842  0.0217
 1555TIP3    H1 4671   5.147   3.597   2.811 -1.5423 -0.1719 -1.7137
 1555TIP3    H2 4672   5.093   3.523   2.932  1.6786  2.1448  1.3233
 1556TIP3   OH2 4673   3.032   2.256   4.079 -0.3243  0.2161 -0.0358
 1556TIP3    H1 4674   3.016   2.244   4.172  0.2886 -0.9208 -0.0596
 1556TIP3    H2 4675   2.945   2.259   4.040 -0.5717 -0.0835  0.4830
 1557TIP3   OH2 4676   2.535   1.432   4.109  0.0916 -0.3744  0.2857
 1557TIP3    H1 4677   2.492   1.440   4.023 -1.3659 -0.8030  0.9361
 1557TIP3    H2 4678   2.603   1.366   4.096 -0.9887 -1.4399 -0.2547
 1558TIP3   OH2 4679   1.321   3.632   1.791  0.2226  0.4711 -0.1809
 1558TIP3    H1 4680   1.366   3.575   1.728  0.9022  1.8943 -1.0451
 1558TIP3    H2 4681   1.238   3.653   1.749 -0.1013  0.0042  0.2125
 1559TIP3   OH2 4682   0.283   2.605   4.899  0.2945  0.2295 -0.6104
 1559TIP3    H1 4683   0.192   2.632   4.896 -0.7267 -2.3556  2.1845
 1559TIP3    H2 4684   0.291   2.540   4.828 -0.9833 -1.7403  0.9430
 1560TIP3   OH2 4685   3.779   4.087   0.340  0.0675  0.0575  0.2170
 1560TIP3    H1 4686   3.762   4.147   0.268 -0.1639 -2.4080 -1.9190
 1560TIP3    H2 4687   3.794   4.144   0.416  2.4101  2.8891 -2.1230
 1561TIP3   OH2 4688   6.134   1.743   4.074 -0.5829  0.2792  0.8744
 1561TIP3    H1 4689   6.055   1.786   4.106 -0.5974  0.3079  0.8002
 1561TIP3    H2 4690   6.103   1.686   4.003 -0.8244 -1.1541  2.0645
 1562TIP3   OH2 4691   5.851   1.099   3.463 -0.1141  0.3911  0.0038
 1562TIP3    H1 4692   5.859   1.021   3.409 -0.8153 -0.5105  1.1342
 1562TIP3    H2 4693   5.866   1.172   3.404  0.6581 -0.6074 -1.0589
 1563TIP3   OH2 4694   5.233   2.510   0.381 -0.6457  0.5038  0.2353
 1563TIP3    H1 4695   5.253   2.531   0.290  3.3360  1.8996  1.2067
 1563TIP3    H2 4696   5.171   2.578   0.408  1.3740  2.7679 -0.4404
 1564TIP3   OH2 4697   6.160   1.480   1.568  0.1027  0.1324 -0.5148
 1564TIP3    H1 4698   6.074   1.500   1.604 -0.5143 -0.3446 -1.6859
 1564TIP3    H2 4699   6.157   1.387   1.548  0.1932  0.4901 -2.3414
 1565TIP3   OH2 4700   4.644   2.711   2.078  0.5369  0.4539  0.6269
 1565TIP3    H1 4701   4.733   2.680   2.092 -0.1284 -0.7921  2.6280
 1565TIP3    H2 4702   4.629   2.700   1.984  1.4492 -2.4027  0.7070
 1566TIP3   OH2 4703   0.699   0.081   2.112  0.3940  0.0378  0.0912
 1566TIP3    H1 4704   0.737   0.046   2.031 -0.4691  1.8323 -1.1608
 1566TIP3    H2 4705   0.775   0.102   2.167  1.0641  0.1089 -0.8315
 1567TIP3   OH2 4706   6.292   4.092   3.580 -0.8350 -0.3506  0.0853
 1567TIP3    H1 4707   6.216   4.085   3.637 -1.0707  1.1172  0.0048
 1567TIP3    H2 4708   6.256   4.122   3.496 -0.3279 -1.0476 -0.3891
 1568TIP3   OH2 4709   5.718   3.064   4.654 -0.3711 -0.5927 -0.0330
 1568TIP3    H1 4710   5.690   2.995   4.714  1.4091 -2.8126 -1.6000
 1568TIP3    H2 4711   5.743   3.137   4.711 -1.6060 -1.4682  1.7136
 1569TIP3   OH2 4712   3.968   2.584   4.477  0.8622  0.3907  0.0493
 1569TIP3    H1 4713   3.888   2.552   4.518 -0.0299 -1.0631 -2.6317
 1569TIP3    H2 4714   3.984   2.669   4.519 -2.0825  0.7437  0.6473
 1570TIP3   OH2 4715   3.557   0.708   4.754 -0.0160 -0.1272 -0.3832
 1570TIP3    H1 4716   3.629   0.678   4.811 -0.4583 -1.2543 -0.3921
 1570TIP3    H2 4717   3.592   0.786   4.711  0.7862  0.0153  0.4795
 1571TIP3   OH2 4718   3.048   5.065   4.789  0.2100  0.5670 -0.7698
 1571TIP3    H1 4719   3.117   4.999   4.788  1.5413  1.9111 -0.2474
 1571TIP3    H2 4720   2.985   5.032   4.853 -1.2459 -2.1644 -3.3355
 1572TIP3   OH2 4721   5.660   3.502   1.394  0.1155 -0.0597  0.1497
 1572TIP3    H1 4722   5.611   3.425   1.423  1.1124 -0.2826  1.3609
 1572TIP3    H2 4723   5.665   3.493   1.299  0.3616 -1.6006  0.2780
 1573TIP3   OH2 4724   5.095   1.069   1.931  0.5906 -0.6968 -0.8680
 1573TIP3    H1 4725   5.177   1.069   1.980 -1.1704  0.2242  2.3831
 1573TIP3    H2 4726   5.118   1.106   1.846  3.2988  0.8722  0.4029
 1574TIP3   OH2 4727   3.946   0.836   3.688  0.2092  0.0446  0.5330
 1574TIP3    H1 4728   3.987   0.770   3.632 -0.6130  0.9995 -1.2690
 1574TIP3    H2 4729   3.867   0.863   3.640  0.5524  2.3909  1.1640
 1575TIP3   OH2 4730   2.249   1.778   2.982  0.2410  0.3084 -0.1126
 1575TIP3    H1 4731   2.279   1.869   2.971  1.3345  0.0909  0.8758
 1575TIP3    H2 4732   2.318   1.725   2.941  1.1350 -0.1841  1.8724
 1576TIP3   OH2 4733   4.634   1.893   3.567  0.2589  0.0919  0.3360
 1576TIP3    H1 4734   4.619   1.871   3.659 -1.7031 -0.9047 -0.1665
 1576TIP3    H2 4735   4.555   1.862   3.522  1.3523  0.1921 -1.7518
 1577TIP3   OH2 4736   0.546   1.080   3.720 -0.3608 -0.9442  0.6791
 1577TIP3    H1 4737   0.563   1.134   3.643 -2.7645  0.3259  0.9468
 1577TIP3    H2 4738   0.631   1.073   3.764  0.1428  2.5660  0.5478
 1578TIP3   OH2 4739   6.191   4.723   4.666 -0.0898 -0.8439  0.4361
 1578TIP3    H1 4740   6.199   4.795   4.603  0.8729 -1.2299  0.1048
 1578TIP3    H2 4741   6.106   4.736   4.706  0.1016  0.5463  0.4426
 1579TIP3   OH2 4742   5.219   5.435   2.518 -0.2229 -0.0975  0.2305
 1579TIP3    H1 4743   5.131   5.416   2.553 -0.3367 -1.0765 -0.5597
 1579TIP3    H2 4744   5.228   5.530   2.528 -0.5426 -0.2219  2.2260
 1580TIP3   OH2 4745   5.303   5.082   4.033  0.4392  0.4899 -0.0209
 1580TIP3    H1 4746   5.398   5.074   4.030  0.3494 -1.7258  0.9661
 1580TIP3    H2 4747   5.281   5.084   4.126 -0.5322 -0.4787 -0.1990
 1581TIP3   OH2 4748   3.056   5.785   1.937 -0.0458 -0.8138 -0.1653
 1581TIP3    H1 4749   2.985   5.724   1.919  1.4169 -2.7347  0.2095
 1581TIP3    H2 4750   3.108   5.741   2.005  1.7357  0.3041 -0.7419
 1582TIP3   OH2 4751   2.373   2.238   3.398  0.2500  0.4085  0.0941
 1582TIP3    H1 4752   2.360   2.186   3.477 -0.1322  0.9396  0.3892
 1582TIP3    H2 4753   2.395   2.174   3.330  2.1133  0.0794  0.9433
 1583TIP3   OH2 4754   1.402   2.920   1.958  0.5891  0.6483  0.1031
 1583TIP3    H1 4755   1.437   2.831   1.965  0.1634  0.4839  0.1766
 1583TIP3    H2 4756   1.367   2.938   2.045 -1.6706 -0.1106 -0.5698
 1584TIP3   OH2 4757   4.305   1.158   4.290  0.1611 -0.0323 -0.6906
 1584TIP3    H1 4758   4.256   1.223   4.342  1.2283 -0.6194  1.1440
 1584TIP3    H2 4759   4.250   1.143   4.213 -0.8735  1.8567 -0.3945
 1585TIP3   OH2 4760   3.963   5.365   1.211 -0.0445  0.3498 -0.2939
 1585TIP3    H1 4761   3.953   5.403   1.124 -2.2224  1.2251  0.2613
 1585TIP3    H2 4762   4.038   5.411   1.249 -0.3565  1.4563 -0.9733
 1586TIP3   OH2 4763   0.905   3.682   4.061 -0.4075 -0.0288 -0.0462
 1586TIP3    H1 4764   0.935   3.602   4.106 -1.2112  0.4035  1.3313
 1586TIP3    H2 4765   0.871   3.651   3.977  0.5191 -0.9552 -0.1033
 1587TIP3   OH2 4766   4.402   5.579   3.812  0.3248  0.2351  0.3598
 1587TIP3    H1 4767   4.358   5.517   3.755  1.0987 -0.2998  0.3246
 1587TIP3    H2 4768   4.462   5.526   3.864  1.3280  0.9801  0.0100
 1588TIP3   OH2 4769   3.324   2.560   4.573  0.4160  0.3185 -0.0841
 1588TIP3    H1 4770   3.252   2.585   4.515  0.5849 -1.7879 -1.3098
 1588TIP3    H2 4771   3.376   2.499   4.521  1.1839 -0.8231  1.9180
 1589TIP3   OH2 4772   2.060   5.804   3.442  0.0554 -0.0665 -0.4731
 1589TIP3    H1 4773   2.011   5.736   3.395 -0.6489  1.6229 -2.3328
 1589TIP3    H2 4774   2.015   5.812   3.526 -0.6964 -0.9386 -0.7738
 1590TIP3   OH2 4775   3.311   1.966   0.437  0.2071  0.2033 -0.1355
 1590TIP3    H1 4776   3.216   1.974   0.425  0.5815  1.6707 -3.2380
 1590TIP3    H2 4777   3.332   1.879   0.401  0.0312 -0.2318  0.7964
 1591TIP3   OH2 4778   0.183   1.959   3.778 -0.1047  0.3159  0.6449
 1591TIP3    H1 4779   0.144   1.922   3.698 -2.1180  0.5381  1.4534
 1591TIP3    H2 4780   0.111   2.005   3.820  1.5423  2.4135  1.3349
 1592TIP3   OH2 4781   0.150   2.788   1.569 -0.2130 -0.0072  0.1624
 1592TIP3    H1 4782   0.057   2.766   1.570  0.2878 -2.4749  0.7924
 1592TIP3    H2 4783   0.171   2.812   1.659  0.0738 -1.2026  0.4351
 1593TIP3   OH2 4784   2.223   3.641   0.127 -0.4360 -0.7923  0.2255
 1593TIP3    H1 4785   2.241   3.597   0.210  1.1802 -1.4185 -0.4074
 1593TIP3    H2 4786   2.166   3.580   0.080 -1.4665 -0.3728  0.9168
 1594TIP3   OH2 4787   3.403   3.140   1.964  0.7171  0.0363 -0.2675
 1594TIP3    H1 4788   3.423   3.177   2.050 -0.8189 -1.6768  0.9198
 1594TIP3    H2 4789   3.344   3.204   1.924  0.3096  0.2044  0.5762
 1595TIP3   OH2 4790   6.020   4.372   1.382 -0.2079 -0.0368  0.2615
 1595TIP3    H1 4791   5.998   4.323   1.461 -3.6619  0.3342 -0.3178
 1595TIP3    H2 4792   6.087   4.319   1.339  1.1858 -0.6413  2.9993
 1596TIP3   OH2 4793   4.760   0.145   1.696  0.1487 -0.4522  0.8030
 1596TIP3    H1 4794   4.776   0.237   1.678  0.5297 -0.3847  1.4666
 1596TIP3    H2 4795   4.846   0.104   1.690 -0.2179 -1.0449 -1.0101
 1597TIP3   OH2 4796   2.677   1.845   5.060 -0.4606 -0.3600 -0.2843
 1597TIP3    H1 4797   2.745   1.900   5.021  0.2913 -2.0549 -1.4915
 1597TIP3    H2 4798   2.656   1.888   5.143 -0.0267  1.7910 -1.2327
 1598TIP3   OH2 4799   0.401   4.669   0.938 -0.0370  0.1136  0.1810
 1598TIP3    H1 4800   0.327   4.725   0.961  0.7939  1.0533  0.6558
 1598TIP3    H2 4801   0.409   4.678   0.843 -0.6471 -0.1539  0.0974
 1599TIP3   OH2 4802   5.922   4.863   4.738  0.6724  0.0247 -0.0724
 1599TIP3    H1 4803   5.884   4.885   4.653  0.1604 -0.0779  0.1257
 1599TIP3    H2 4804   5.847   4.850   4.796  1.0203  1.1570  0.6736
 1600TIP3   OH2 4805   5.377   5.135   4.742  0.1357  1.0114  0.0407
 1600TIP3    H1 4806   5.368   5.090   4.658  0.0567 -1.3233  1.1974
 1600TIP3    H2 4807   5.456   5.188   4.733 -0.0179  1.0017 -1.5782
 1601TIP3   OH2 4808   0.319   4.012   0.448  0.3293 -0.3530 -0.7487
 1601TIP3    H1 4809   0.225   3.996   0.438  0.3068 -0.5591 -0.2264
 1601TIP3    H2 4810   0.352   4.011   0.358 -0.3206  0.7034 -1.0239
 1602TIP3   OH2 4811   1.455   2.487   4.186 -0.2730  0.1105 -0.2539
 1602TIP3    H1 4812   1.432   2.431   4.260  0.9562 -0.8146 -0.5358
 1602TIP3    H2 4813   1.446   2.431   4.109 -2.7444  1.4028 -1.0160
 1603TIP3   OH2 4814   6.330   1.196   4.489  0.3242  0.0857 -0.5878
 1603TIP3    H1 4815   6.236   1.183   4.503  0.5998 -0.9809  0.3537
 1603TIP3    H2 4816   6.362   1.112   4.457  1.0802  0.1975 -0.1590
 1604TIP3   OH2 4817   3.194   5.864   2.979 -0.2003 -0.8693  0.5728
 1604TIP3    H1 4818   3.183   5.859   2.884  3.3611  0.7804 -0.1347
 1604TIP3    H2 4819   3.118   5.912   3.010 -0.3501  0.6488 -1.8640
 1605TIP3   OH2 4820   4.594   5.584   1.846 -0.3289  0.4907 -0.3521
 1605TIP3    H1 4821   4.621   5.561   1.935 -2.1767  1.6495  0.5558
 1605TIP3    H2 4822   4.569   5.501   1.806 -0.5493  0.0850  0.5972
 1606TIP3   OH2 4823   4.458   4.076   0.582  0.3473  0.2079  0.4719
 1606TIP3    H1 4824   4.413   4.080   0.498  0.5656  2.2919  0.4093
 1606TIP3    H2 4825   4.551   4.077   0.560  0.4049  0.5589  0.7253
 1607TIP3   OH2 4826   2.153   3.894   3.998 -0.6193 -0.6501 -0.0378
 1607TIP3    H1 4827   2.151   3.954   4.073 -1.7376 -1.6434  0.7565
 1607TIP3    H2 4828   2.079   3.835   4.013 -0.0808 -1.6659 -1.2726
 1608TIP3   OH2 4829   2.559   5.442   1.907  0.1247  0.1863  0.0458
 1608TIP3    H1 4830   2.632   5.502   1.893 -0.2608  0.7915  0.5763
 1608TIP3    H2 4831   2.566   5.380   1.835  1.1640  0.2251  0.0909
 1609TIP3   OH2 4832   5.997   0.047   4.698  0.2886  0.0445 -0.1610
 1609TIP3    H1 4833   5.959   0.122   4.743  0.2195 -0.2838  0.3297
 1609TIP3    H2 4834   6.071   0.084   4.649  0.1866  0.4486 -0.0182
 1610TIP3   OH2 4835   0.068   1.150   0.897  0.1100  0.4069  0.2880
 1610TIP3    H1 4836   0.099   1.075   0.846  0.8606  0.6336  0.4048
 1610TIP3    H2 4837   0.112   1.225   0.858  0.8023  0.5709  1.3475
 1611TIP3   OH2 4838   2.969   1.820   3.106  0.0462  0.1260  0.1590
 1611TIP3    H1 4839   2.888   1.777   3.133 -0.1238 -0.0898 -0.6402
 1611TIP3    H2 4840   2.994   1.774   3.026  0.4008  0.8661 -0.1677
 1612TIP3   OH2 4841   0.589   3.865   2.463  0.2709 -0.2864  0.6789
 1612TIP3    H1 4842   0.549   3.902   2.541 -0.2887  1.2410 -0.2753
 1612TIP3    H2 4843   0.516   3.829   2.413  0.1469  1.4645 -0.5140
 1613TIP3   OH2 4844   1.523   2.564   1.087  0.2407  1.1194 -0.1483
 1613TIP3    H1 4845   1.520   2.652   1.125  4.6099  1.0259  0.9287
 1613TIP3    H2 4846   1.581   2.573   1.012  1.5439 -0.9657  0.5321
 1614TIP3   OH2 4847   3.355   0.249   4.629  0.1511 -0.0377  0.0065
 1614TIP3    H1 4848   3.316   0.172   4.588  0.7796 -0.5619  0.3884
 1614TIP3    H2 4849   3.323   0.248   4.719 -1.7040  1.4377 -0.5530
 1615TIP3   OH2 4850   1.716   0.747   1.791  0.3620  0.4079  0.6188
 1615TIP3    H1 4851   1.724   0.842   1.787 -1.1044  0.5271 -0.3688
 1615TIP3    H2 4852   1.655   0.731   1.863 -0.6567  0.3458 -0.2251
 1616TIP3   OH2 4853   0.766   2.449   4.324 -0.5833  0.0594  0.5314
 1616TIP3    H1 4854   0.753   2.540   4.350  0.5904 -0.0422  1.5119
 1616TIP3    H2 4855   0.690   2.430   4.268 -0.9848  1.5433  0.5211
 1617TIP3   OH2 4856   5.316   2.380   4.104 -0.7947  0.5781 -0.2812
 1617TIP3    H1 4857   5.372   2.368   4.027 -0.8141 -0.3192 -0.1721
 1617TIP3    H2 4858   5.230   2.401   4.067 -0.2617  2.7279 -0.4357
 1618TIP3   OH2 4859   0.694   4.027   4.950  0.1580 -0.5556 -0.3306
 1618TIP3    H1 4860   0.702   4.120   4.972  0.2869 -0.4687 -0.7367
 1618TIP3    H2 4861   0.633   4.025   4.877 -3.6507 -1.1823  2.5599
 1619TIP3   OH2 4862   2.659   0.715   0.189  0.3954 -0.5018  0.1633
 1619TIP3    H1 4863   2.715   0.767   0.246  0.8371  0.5252 -1.1294
 1619TIP3    H2 4864   2.583   0.771   0.173  0.7372 -0.3251 -1.0118
 1620TIP3   OH2 4865   5.531   0.402   3.147 -0.2140 -0.2876  0.0272
 1620TIP3    H1 4866   5.448   0.411   3.101 -0.6173 -0.1844  0.7571
 1620TIP3    H2 4867   5.571   0.324   3.110 -1.0064 -0.7931  0.2327
 1621TIP3   OH2 4868   5.519   2.676   4.421 -0.1774  0.0739  0.0321
 1621TIP3    H1 4869   5.585   2.621   4.463 -0.3532  0.1458  0.4100
 1621TIP3    H2 4870   5.562   2.761   4.408 -0.3569  0.2834  0.7605
 1622TIP3   OH2 4871   5.785   1.379   2.610 -0.2785 -0.2111 -0.4704
 1622TIP3    H1 4872   5.770   1.299   2.659  0.3085 -0.3154 -0.4524
 1622TIP3    H2 4873   5.873   1.408   2.637 -0.6844  0.7037 -0.0967
 1623TIP3   OH2 4874   2.145   4.716   4.613 -0.0158 -0.2425 -0.6217
 1623TIP3    H1 4875   2.169   4.649   4.676  0.8476 -0.0524 -0.7264
 1623TIP3    H2 4876   2.056   4.741   4.636  0.2267 -0.2963  0.4092
 1624TIP3   OH2 4877   6.214   0.590   3.135  0.3909  0.1065 -0.0423
 1624TIP3    H1 4878   6.139   0.576   3.193 -0.4583  0.4281 -1.0292
 1624TIP3    H2 4879   6.288   0.600   3.194 -0.5580  1.1712  1.0208
 1625TIP3   OH2 4880   1.877   1.757   1.623  0.1704  0.1700  0.3016
 1625TIP3    H1 4881   1.804   1.717   1.671  0.1303  1.3021  1.2206
 1625TIP3    H2 4882   1.920   1.813   1.688 -0.0702  1.9986 -1.0672
 1626TIP3   OH2 4883   2.337   1.862   4.756  0.0479 -0.5405  0.5968
 1626TIP3    H1 4884   2.288   1.841   4.676  2.3015  0.7839 -1.2683
 1626TIP3    H2 4885   2.429   1.855   4.730  0.9089  2.8129  2.1930
 1627TIP3   OH2 4886   4.476   2.759   1.875 -0.3446  0.2523  0.0246
 1627TIP3    H1 4887   4.524   2.784   1.796 -0.4557  2.5761  0.6210
 1627TIP3    H2 4888   4.415   2.831   1.890 -1.1179 -0.6745  1.5930
 1628TIP3   OH2 4889   3.297   1.392   4.455 -0.5230 -0.4140  0.0411
 1628TIP3    H1 4890   3.243   1.412   4.531  0.7343 -0.2099  0.9265
 1628TIP3    H2 4891   3.264   1.308   4.423 -0.4771 -0.9811  1.4013
 1629TIP3   OH2 4892   1.099   2.312   1.318 -0.2478  0.3540 -0.6712
 1629TIP3    H1 4893   1.043   2.355   1.253  1.3275 -0.7652 -2.8954
 1629TIP3    H2 4894   1.038   2.271   1.379 -1.8751 -0.2218 -2.5776
 1630TIP3   OH2 4895   2.524   4.312   4.926  0.3552 -0.2518 -0.2100
 1630TIP3    H1 4896   2.484   4.225   4.919  1.2472 -0.8152  1.3465
 1630TIP3    H2 4897   2.472   4.367   4.866 -2.0374 -1.1990  0.8881
 1631TIP3   OH2 4898   6.352   5.733   3.781 -0.2312  0.3332  0.4295
 1631TIP3    H1 4899   6.272   5.744   3.731 -0.8094 -1.7555  0.7862
 1631TIP3    H2 4900   6.343   5.647   3.822  0.9655  1.2141  2.7551
 1632TIP3   OH2 4901   1.451   0.411   2.192  0.4188 -0.0422  0.0868
 1632TIP3    H1 4902   1.452   0.354   2.115 -0.6028 -1.1064  0.8213
 1632TIP3    H2 4903   1.360   0.441   2.198 -0.0680 -1.6788  2.0415
 1633TIP3   OH2 4904   4.794   5.490   1.160 -0.0259  0.5152 -0.4342
 1633TIP3    H1 4905   4.788   5.575   1.202 -0.1319  0.8097 -1.0408
 1633TIP3    H2 4906   4.820   5.509   1.070 -0.1054 -0.0867 -0.5897
 1634TIP3   OH2 4907   2.673   4.266   5.155 -0.5840  0.5593  0.1026
 1634TIP3    H1 4908   2.631   4.266   5.069  1.1365  0.2137 -0.7812
 1634TIP3    H2 4909   2.745   4.204   5.146 -1.2265 -0.5735  2.2521
 1635TIP3   OH2 4910   1.634   5.559   4.822 -0.1308  0.0470 -0.4154
 1635TIP3    H1 4911   1.674   5.603   4.746 -2.1142  0.3231 -1.3861
 1635TIP3    H2 4912   1.652   5.466   4.808 -0.0939  0.1364 -1.0229
 1636TIP3   OH2 4913   5.565   4.746   2.009 -0.1529 -0.1693  0.1252
 1636TIP3    H1 4914   5.606   4.681   1.953  0.5766  1.4722 -1.3524
 1636TIP3    H2 4915   5.471   4.736   1.993  0.0271  0.0194 -1.1286
 1637TIP3   OH2 4916   4.376   0.194   2.149 -0.2117 -0.0304  0.0948
 1637TIP3    H1 4917   4.326   0.120   2.183  1.6721 -2.2710 -1.6425
 1637TIP3    H2 4918   4.326   0.271   2.176 -1.5653 -1.7997  3.1993
 1638TIP3   OH2 4919   3.013   2.257   4.579  0.1164  0.0241 -0.0128
 1638TIP3    H1 4920   2.958   2.255   4.657 -0.0554  0.8331 -0.1024
 1638TIP3    H2 4921   3.103   2.250   4.613  0.0359  0.2488  0.2569
 1639TIP3   OH2 4922   3.095   5.316   5.179  0.2661  0.2905 -0.0758
 1639TIP3    H1 4923   3.118   5.249   5.114  0.2172  1.2610 -1.1125
 1639TIP3    H2 4924   3.168   5.377   5.177  0.8499 -0.2894  1.6929
 1640TIP3   OH2 4925   2.574   1.326   1.257  0.3874  0.4850 -0.4364
 1640TIP3    H1 4926   2.563   1.416   1.288  0.9806  0.5381 -0.3631
 1640TIP3    H2 4927   2.555   1.331   1.163 -1.8820  0.2323 -0.0488
 1641TIP3   OH2 4928   5.421   1.186   2.941  0.2500  0.2257  0.4142
 1641TIP3    H1 4929   5.413   1.099   2.979 -1.5057 -1.0386 -2.5062
 1641TIP3    H2 4930   5.347   1.235   2.977 -0.4171 -0.4196 -0.0565
 1642TIP3   OH2 4931   4.333   4.808   2.915  0.8387  0.7205 -0.0336
 1642TIP3    H1 4932   4.324   4.796   2.820 -0.5415  0.8494  0.0545
 1642TIP3    H2 4933   4.295   4.729   2.953 -0.2215  1.4241  0.4191
 1643TIP3   OH2 4934   3.787   3.613   4.377  0.3462  0.1622  0.0980
 1643TIP3    H1 4935   3.869   3.643   4.416  1.1108  0.0464 -1.3441
 1643TIP3    H2 4936   3.759   3.687   4.322 -0.6582  0.2941  0.7578
 1644TIP3   OH2 4937   3.673   4.634   2.502 -0.5744  0.4197 -0.0730
 1644TIP3    H1 4938   3.702   4.692   2.572  0.1683  1.5181 -1.2335
 1644TIP3    H2 4939   3.591   4.598   2.533 -1.1817  2.2779  0.6170
 1645TIP3   OH2 4940   2.972   3.891   5.018  0.4412  0.2902  0.3284
 1645TIP3    H1 4941   3.052   3.912   5.067 -0.4007  0.5504  1.6208
 1645TIP3    H2 4942   2.905   3.878   5.085 -0.6526  0.2536 -0.7412
 1646TIP3   OH2 4943   5.343   3.471   1.617 -0.3216 -0.6134  0.2674
 1646TIP3    H1 4944   5.395   3.535   1.666  0.7016 -0.5256 -0.8833
 1646TIP3    H2 4945   5.253   3.485   1.647 -0.0248  0.9293  0.5112
 1647TIP3   OH2 4946   4.879   1.711   0.876 -0.0341 -0.4576 -0.1910
 1647TIP3    H1 4947   4.842   1.780   0.821 -1.2561 -1.5081 -0.7176
 1647TIP3    H2 4948   4.809   1.689   0.938  0.5629 -0.7964  0.3772
 1648TIP3   OH2 4949   1.335   1.649   2.315  0.4623  0.0395 -0.2914
 1648TIP3    H1 4950   1.285   1.689   2.243  1.0877 -1.0979 -1.4022
 1648TIP3    H2 4951   1.426   1.671   2.295  0.5658  0.7721  0.8694
 1649TIP3   OH2 4952   5.633   5.374   1.348  0.5234 -0.5388 -0.6190
 1649TIP3    H1 4953   5.721   5.336   1.339  0.3084 -1.0858 -0.4687
 1649TIP3    H2 4954   5.643   5.465   1.322  1.7923  0.2549  2.2100
 1650TIP3   OH2 4955   5.296   3.881   1.999  0.2732  0.3034  0.2147
 1650TIP3    H1 4956   5.208   3.899   1.965  0.4363  0.9697  0.1359
 1650TIP3    H2 4957   5.322   3.800   1.956  0.2235  0.8044 -0.7704
 1651TIP3   OH2 4958   1.172   1.643   2.765 -0.2249  0.6424 -0.7929
 1651TIP3    H1 4959   1.193   1.555   2.798  2.1762  1.1649 -0.7488
 1651TIP3    H2 4960   1.173   1.633   2.670  0.0325  0.6088 -0.7881
 1652TIP3   OH2 4961   1.512   2.341   3.940 -0.4227 -0.1688  0.1714
 1652TIP3    H1 4962   1.577   2.286   3.984 -1.5303 -1.7969 -0.1290
 1652TIP3    H2 4963   1.562   2.396   3.880  0.8740  0.3170  1.6459
 1653TIP3   OH2 4964   0.294   0.996   5.015 -0.0705  0.2296  0.1257
 1653TIP3    H1 4965   0.311   0.928   5.079 -0.1457  0.1618  0.0739
 1653TIP3    H2 4966   0.379   1.035   4.996  0.2643 -1.1042 -1.2726
 1654TIP3   OH2 4967   0.117   0.654   1.496 -0.3212 -0.1237  0.7545
 1654TIP3    H1 4968   0.083   0.726   1.549  0.3870 -0.3730  1.5588
 1654TIP3    H2 4969   0.149   0.696   1.417 -2.5842  0.1204 -0.1204
 1655TIP3   OH2 4970   2.307   1.701   2.477  0.6045  0.3261  0.3009
 1655TIP3    H1 4971   2.261   1.623   2.509  0.8972  0.2104  0.4361
 1655TIP3    H2 4972   2.394   1.671   2.454  0.8974  0.7227  0.8714
 1656TIP3   OH2 4973   5.113   1.994   2.524 -0.0418 -0.2516 -0.0981
 1656TIP3    H1 4974   5.127   2.088   2.513 -0.4868  0.0257  1.4503
 1656TIP3    H2 4975   5.201   1.957   2.535  0.0743  0.1293  0.2632
 1657TIP3   OH2 4976   5.366   3.992   1.332 -0.0777 -0.2738 -0.1861
 1657TIP3    H1 4977   5.294   3.973   1.272  1.1517  2.0551 -2.6113
 1657TIP3    H2 4978   5.384   3.909   1.376 -3.1502 -1.2985 -0.6124
 1658TIP3   OH2 4979   4.994   4.930   0.697  0.2807 -0.3362  0.4735
 1658TIP3    H1 4980   4.907   4.918   0.736 -1.4409  2.5219 -2.0025
 1658TIP3    H2 4981   5.049   4.956   0.771 -1.0673 -1.6944  2.0436
 1659TIP3   OH2 4982   4.867   4.034   4.050  0.2883  0.0594 -0.4438
 1659TIP3    H1 4983   4.932   3.964   4.056  0.8364  0.5486 -0.4846
 1659TIP3    H2 4984   4.815   4.013   3.973 -0.7105 -1.2526  0.5644
 1660TIP3   OH2 4985   6.303   4.521   4.859 -0.0015  0.0414  0.4878
 1660TIP3    H1 4986   6.229   4.467   4.888 -0.3547 -0.2103 -0.8303
 1660TIP3    H2 4987   6.272   4.611   4.871 -1.5933  0.0060 -2.3992
 1661TIP3   OH2 4988   2.869   4.930   1.389 -0.2813  0.4416  0.3153
 1661TIP3    H1 4989   2.792   4.914   1.443  0.0673 -0.0917  0.6716
 1661TIP3    H2 4990   2.940   4.884   1.434 -0.0386 -0.2789 -0.7467
 1662TIP3   OH2 4991   2.752   5.016   1.098 -0.3051  0.0226 -0.7282
 1662TIP3    H1 4992   2.726   4.925   1.113 -0.9717 -0.2888 -3.3205
 1662TIP3    H2 4993   2.727   5.033   1.007  1.5720  2.2108 -0.9018
 1663TIP3   OH2 4994   2.922   5.312   4.883 -0.5338  0.5509 -0.4904
 1663TIP3    H1 4995   2.960   5.234   4.844  1.1040 -0.0130  2.0181
 1663TIP3    H2 4996   2.962   5.385   4.835 -0.4139 -0.1270 -1.4282
 1664TIP3   OH2 4997   1.712   5.102   2.036  0.2886  0.3532  0.3300
 1664TIP3    H1 4998   1.784   5.099   2.098 -0.9054 -2.8835  1.7935
 1664TIP3    H2 4999   1.746   5.059   1.957  0.7526  1.3119 -0.0023
 1665TIP3   OH2 5000   0.726   1.390   1.288  0.4978 -0.3336  0.3181
 1665TIP3    H1 5001   0.730   1.322   1.356 -2.4272 -2.4555 -1.3832
 1665TIP3    H2 5002   0.638   1.426   1.297  0.0161 -0.6736 -2.2454
 1666TIP3   OH2 5003   1.032   1.116   2.909  0.6706  0.0374 -0.8093
 1666TIP3    H1 5004   1.107   1.147   2.859  2.8330 -1.9629  0.9697
 1666TIP3    H2 5005   1.026   1.023   2.890 -0.3729 -0.1482  0.2734
 1667TIP3   OH2 5006   2.908   4.222   3.959 -0.0241  0.0365 -0.1197
 1667TIP3    H1 5007   2.867   4.291   4.011  3.0882  1.5341  0.5617
 1667TIP3    H2 5008   2.997   4.215   3.993  0.7280 -2.2167 -2.2119
 1668TIP3   OH2 5009   2.688   3.110   1.521  0.3279 -0.2616 -0.2331
 1668TIP3    H1 5010   2.624   3.177   1.498  0.7558  0.0495 -0.5348
 1668TIP3    H2 5011   2.636   3.032   1.538 -0.1639  0.1092 -0.0213
 1669TIP3   OH2 5012   2.085   1.252   3.327 -0.1470 -0.5893 -0.0855
 1669TIP3    H1 5013   2.119   1.308   3.397  1.0447  0.2279 -1.2627
 1669TIP3    H2 5014   2.159   1.240   3.268 -0.9403 -1.8241 -0.8697
 1670TIP3   OH2 5015   0.233   3.722   4.719 -0.3235 -0.4127  0.4786
 1670TIP3    H1 5016   0.208   3.689   4.806  0.4301  1.4705  1.4567
 1670TIP3    H2 5017   0.327   3.707   4.713 -0.0844  0.8838  0.6715
 1671TIP3   OH2 5018   4.827   3.930   2.457  0.0098  0.3277 -0.0913
 1671TIP3    H1 5019   4.805   3.985   2.532 -0.5567 -0.0488  0.0228
 1671TIP3    H2 5020   4.855   3.847   2.495  2.5953  1.0697 -0.1842
 1672TIP3   OH2 5021   4.532   1.320   2.139  0.1654  0.1016  0.3535
 1672TIP3    H1 5022   4.606   1.287   2.190  1.0109  1.4216  0.0443
 1672TIP3    H2 5023   4.570   1.345   2.055 -0.6517  0.7149  0.1551
 1673TIP3   OH2 5024   3.642   0.338   2.299 -0.0296  0.4880  0.2431
 1673TIP3    H1 5025   3.731   0.346   2.334  0.0801 -1.2222  0.4291
 1673TIP3    H2 5026   3.641   0.254   2.254 -2.0789 -0.4124  1.8289
 1674TIP3   OH2 5027   2.743   2.112   0.034 -0.1069  0.2512 -0.0724
 1674TIP3    H1 5028   2.821   2.161   0.057 -1.2552  2.6277 -0.9519
 1674TIP3    H2 5029   2.691   2.110   0.114  0.1838 -0.0036  0.1096
 1675TIP3   OH2 5030   5.563   4.148   0.278 -0.1185  0.1944  0.2453
 1675TIP3    H1 5031   5.625   4.206   0.235 -0.0305  0.2255  0.4115
 1675TIP3    H2 5032   5.618   4.086   0.326 -0.2159  0.1931  0.3555
 1676TIP3   OH2 5033   3.602   4.493   4.554  0.3760  0.3978  0.2898
 1676TIP3    H1 5034   3.590   4.418   4.613  0.7388  0.9436  1.0904
 1676TIP3    H2 5035   3.694   4.488   4.527  0.2522  0.2392 -0.1031
 1677TIP3   OH2 5036   1.554   2.235   0.372 -0.6462  0.1177  0.0990
 1677TIP3    H1 5037   1.609   2.273   0.440  0.0988  0.3465 -0.6091
 1677TIP3    H2 5038   1.503   2.167   0.417  1.0065 -0.8571  0.5682
 1678TIP3   OH2 5039   4.487   4.321   5.144  0.3065 -0.0833 -0.0040
 1678TIP3    H1 5040   4.508   4.380   5.216 -0.8347 -0.5108  0.7017
 1678TIP3    H2 5041   4.449   4.377   5.077 -0.2255  0.0820  0.4292
 1679TIP3   OH2 5042   0.302   4.273   1.975 -0.6605  0.4109 -0.4173
 1679TIP3    H1 5043   0.374   4.336   1.965 -0.7791  0.4076 -1.3266
 1679TIP3    H2 5044   0.340   4.203   2.028  0.1216  0.2362 -1.1896
 1680TIP3   OH2 5045   1.046   3.333   0.604  0.2516  0.0967  0.2837
 1680TIP3    H1 5046   0.993   3.275   0.659  0.8459  1.4415  2.4117
 1680TIP3    H2 5047   1.112   3.276   0.565 -0.0834 -0.8916  1.1195
 1681TIP3   OH2 5048   5.959   3.261   4.014  0.0805  0.0665 -0.2402
 1681TIP3    H1 5049   5.985   3.187   4.068 -1.6316 -0.4059 -0.0259
 1681TIP3    H2 5050   5.871   3.285   4.045 -0.0939  1.1066 -1.4292
 1682TIP3   OH2 5051   1.035   4.508   4.359 -0.1968 -0.2863  0.1455
 1682TIP3    H1 5052   1.099   4.442   4.333 -1.2626 -0.9019 -1.0250
 1682TIP3    H2 5053   0.951   4.471   4.332 -0.8995  1.1665  0.2869
 1683TIP3   OH2 5054   2.004   5.555   2.224  0.1545 -0.1089  0.1247
 1683TIP3    H1 5055   2.012   5.506   2.142  0.1235  0.3952 -0.1866
 1683TIP3    H2 5056   2.023   5.645   2.199 -1.1130  0.2656  0.4136
 1684TIP3   OH2 5057   1.651   1.546   3.200  0.0553  0.1258 -0.2292
 1684TIP3    H1 5058   1.665   1.568   3.108  2.3765  2.3897  0.5544
 1684TIP3    H2 5059   1.700   1.465   3.212  1.3863  0.8294 -0.6241
 1685TIP3   OH2 5060   5.296   0.511   4.773 -0.4685 -0.3789  0.3781
 1685TIP3    H1 5061   5.343   0.547   4.698 -1.1617  1.1429  0.6501
 1685TIP3    H2 5062   5.365   0.480   4.831  0.1431  0.1464 -0.0483
 1686TIP3   OH2 5063   3.038   3.324   4.453 -0.1384  0.3808  0.1225
 1686TIP3    H1 5064   2.995   3.265   4.391  0.8544 -0.1986 -0.0217
 1686TIP3    H2 5065   2.966   3.360   4.505 -0.8871  0.1016 -0.6921
 1687TIP3   OH2 5066   0.296   5.872   0.819 -0.3947 -0.2895 -0.1722
 1687TIP3    H1 5067   0.236   5.928   0.868 -0.7215 -0.7722 -0.0111
 1687TIP3    H2 5068   0.288   5.786   0.860 -0.3273 -0.5902 -0.7737
 1688TIP3   OH2 5069   4.121   1.110   4.094 -0.3597 -0.5823 -0.0163
 1688TIP3    H1 5070   4.064   1.044   4.133 -2.5954  0.0871 -1.9328
 1688TIP3    H2 5071   4.149   1.071   4.011  0.9445 -0.3515  0.2871
 1689TIP3   OH2 5072   3.347   4.019   4.933 -0.6149 -0.3473  0.3506
 1689TIP3    H1 5073   3.425   3.970   4.906 -0.7143 -0.6459  0.6063
 1689TIP3    H2 5074   3.274   3.967   4.900 -0.7338 -0.6202  1.0354
 1690TIP3   OH2 5075   1.236   0.333   0.518 -0.0485 -0.4822  0.2766
 1690TIP3    H1 5076   1.213   0.345   0.610  0.4539 -0.3625  0.3903
 1690TIP3    H2 5077   1.154   0.346   0.471 -0.4486 -1.1862  0.7535
 1691TIP3   OH2 5078   4.754   4.787   2.995  0.4483  0.0705  0.0885
 1691TIP3    H1 5079   4.770   4.766   2.903  0.5995 -0.0778  0.1476
 1691TIP3    H2 5080   4.760   4.882   2.999  2.5366 -0.0289  0.3206
 1692TIP3   OH2 5081   5.587   5.623   0.407 -0.3889 -0.0256  0.4934
 1692TIP3    H1 5082   5.576   5.714   0.435 -0.2801 -0.3581  1.6524
 1692TIP3    H2 5083   5.649   5.628   0.334  0.0420  0.7752  0.9023
 1693TIP3   OH2 5084   3.380   5.343   2.221 -0.3156  0.4051  0.3173
 1693TIP3    H1 5085   3.410   5.397   2.295 -1.2406  1.4482 -0.0428
 1693TIP3    H2 5086   3.288   5.367   2.210 -1.5425 -3.1025  1.7422
 1694TIP3   OH2 5087   5.192   1.071   3.654  0.1028 -0.3846 -0.5730
 1694TIP3    H1 5088   5.142   1.000   3.613  0.0397 -0.9814  0.5173
 1694TIP3    H2 5089   5.127   1.137   3.676 -0.0561 -0.6604 -0.2033
 1695TIP3   OH2 5090   1.921   2.374   2.302  0.3592 -0.0255  0.4946
 1695TIP3    H1 5091   1.956   2.446   2.250 -0.7686  0.8007  0.8365
 1695TIP3    H2 5092   1.875   2.319   2.239  0.4705  0.0343  0.3604
 1696TIP3   OH2 5093   0.623   1.290   3.136  0.3012  0.4026 -0.3157
 1696TIP3    H1 5094   0.559   1.220   3.121 -1.2243  1.3332  1.4258
 1696TIP3    H2 5095   0.704   1.257   3.098 -0.3423 -2.3140  0.4355
 1697TIP3   OH2 5096   0.196   5.995   0.346  0.0707  0.6797  0.1757
 1697TIP3    H1 5097   0.228   6.035   0.266  3.4715 -0.2077  0.9693
 1697TIP3    H2 5098   0.195   5.901   0.329 -2.1319  0.6202  0.2700
 1698TIP3   OH2 5099   6.143   2.400   1.210  0.4541  0.0482  0.1230
 1698TIP3    H1 5100   6.156   2.308   1.187 -0.6157 -0.2433  0.6110
 1698TIP3    H2 5101   6.195   2.449   1.146 -0.4057 -0.8240 -1.2961
 1699TIP3   OH2 5102   0.094   1.261   1.189 -0.4775  0.0570  0.3180
 1699TIP3    H1 5103   0.065   1.351   1.178  0.8917  0.4755 -0.1246
 1699TIP3    H2 5104   0.087   1.223   1.101 -0.5891 -0.1216  0.4042
 1700TIP3   OH2 5105   4.866   0.374   4.849  0.4804 -0.1863  0.1505
 1700TIP3    H1 5106   4.950   0.417   4.860  0.6717 -0.5851  0.2796
 1700TIP3    H2 5107   4.830   0.370   4.938 -0.1859  0.9866 -0.0440
 1701TIP3   OH2 5108   2.468   3.385   2.299  0.2192 -0.1655  0.3024
 1701TIP3    H1 5109   2.429   3.321   2.358  0.8703  0.1399  1.0720
 1701TIP3    H2 5110   2.445   3.354   2.211  1.6859 -2.2503  0.5918
 1702TIP3   OH2 5111   1.083   3.752   2.219  0.0562  0.1338  0.0332
 1702TIP3    H1 5112   1.164   3.701   2.219 -0.9248 -1.4886  0.4327
 1702TIP3    H2 5113   1.022   3.700   2.166 -1.2187  0.4668  1.1161
 1703TIP3   OH2 5114   0.746   2.530   3.953  0.3135  0.0890 -0.6911
 1703TIP3    H1 5115   0.754   2.606   3.896 -1.1333  0.7919  0.0056
 1703TIP3    H2 5116   0.829   2.527   4.001  0.9901  0.3010 -1.8214
 1704TIP3   OH2 5117   2.378   2.075   3.921 -0.3372  0.3092  0.4386
 1704TIP3    H1 5118   2.326   2.046   3.996 -1.2633  1.7934  0.4146
 1704TIP3    H2 5119   2.370   2.171   3.922 -0.5422  0.3539 -1.6639
 1705TIP3   OH2 5120   0.539   1.362   2.464 -0.3264 -0.2471 -0.2166
 1705TIP3    H1 5121   0.553   1.295   2.531 -0.3764  0.4002  0.4555
 1705TIP3    H2 5122   0.536   1.313   2.382  1.0388 -0.9267  0.1089
 1706TIP3   OH2 5123   2.891   2.574   3.400 -0.2522 -0.3318  0.1259
 1706TIP3    H1 5124   2.958   2.549   3.337 -0.4522 -1.1588  0.2306
 1706TIP3    H2 5125   2.844   2.646   3.358 -1.3076 -1.7976 -1.3278
 1707TIP3   OH2 5126   3.562   1.946   3.515 -0.2424 -0.3074  0.4953
 1707TIP3    H1 5127   3.472   1.979   3.523  0.1689  0.5595  1.6422
 1707TIP3    H2 5128   3.601   2.000   3.447 -0.3374 -0.1399  0.5743
 1708TIP3   OH2 5129   2.921   5.331   3.504 -0.2107 -0.1099 -0.5707
 1708TIP3    H1 5130   2.945   5.287   3.585 -1.1520  2.2360  1.0731
 1708TIP3    H2 5131   2.858   5.272   3.462  0.1210 -1.2526  0.4999
 1709TIP3   OH2 5132   2.541   2.347   0.448 -0.2714  0.5522 -0.0154
 1709TIP3    H1 5133   2.539   2.258   0.414  0.8053  0.7767 -0.7318
 1709TIP3    H2 5134   2.533   2.337   0.543 -0.6327 -0.2690 -0.1248
 1710TIP3   OH2 5135   5.423   5.964   2.995 -0.2889 -0.0724 -0.0719
 1710TIP3    H1 5136   5.498   5.937   3.049 -1.1402 -0.5368  0.9061
 1710TIP3    H2 5137   5.349   5.963   3.055 -0.8497  1.7777 -0.6672
 1711TIP3   OH2 5138   5.149   5.252   2.722  0.0743 -0.1533  0.7036
 1711TIP3    H1 5139   5.077   5.277   2.780  1.1865 -0.8488  2.4712
 1711TIP3    H2 5140   5.228   5.264   2.775  1.2560  0.3017 -1.0740
 1712TIP3   OH2 5141   6.138   1.501   0.820  0.4703 -0.0762  0.5279
 1712TIP3    H1 5142   6.228   1.513   0.789  0.8723 -0.6659  1.4195
 1712TIP3    H2 5143   6.147   1.482   0.913 -0.6441  0.6837  0.8100
 1713TIP3   OH2 5144   4.849   2.241   0.852 -0.0423  0.1216 -0.1007
 1713TIP3    H1 5145   4.911   2.237   0.779 -0.0161 -1.3867 -0.0229
 1713TIP3    H2 5146   4.896   2.200   0.925 -1.0522 -0.9018  0.0004
 1714TIP3   OH2 5147   2.684   1.342   3.261  0.1868 -0.5648 -0.8114
 1714TIP3    H1 5148   2.599   1.328   3.219 -1.8941  1.1827  2.3649
 1714TIP3    H2 5149   2.670   1.315   3.352  2.2714  1.9134  0.3730
 1715TIP3   OH2 5150   0.302   1.309   4.642  0.4179  0.0275  0.2239
 1715TIP3    H1 5151   0.381   1.324   4.693 -0.0760  1.8816  0.4961
 1715TIP3    H2 5152   0.267   1.396   4.626 -1.1290 -0.7160 -0.6076
 1716TIP3   OH2 5153   2.273   2.667   4.756  0.3407 -0.3569 -0.2736
 1716TIP3    H1 5154   2.241   2.611   4.826  0.8825 -2.1651 -1.4077
 1716TIP3    H2 5155   2.346   2.715   4.795 -0.0902 -0.4878  0.7028
 1717TIP3   OH2 5156   2.412   2.222   4.656 -0.3236  0.3613 -0.3196
 1717TIP3    H1 5157   2.438   2.314   4.653 -0.0296  0.2687 -1.8699
 1717TIP3    H2 5158   2.324   2.222   4.693  0.4364  1.0430  1.6243
 1718TIP3   OH2 5159   5.908   0.353   1.780  0.1581  0.9990 -0.3975
 1718TIP3    H1 5160   5.988   0.312   1.749  0.4545  1.4903 -0.2901
 1718TIP3    H2 5161   5.891   0.424   1.717  0.1208  1.2526 -0.1052
 1719TIP3   OH2 5162   4.822   2.011   3.367  0.3476 -0.0194  0.0486
 1719TIP3    H1 5163   4.754   2.036   3.305  1.5153  3.0672 -0.1834
 1719TIP3    H2 5164   4.774   1.987   3.446 -1.1251  2.3646 -0.0007
 1720TIP3   OH2 5165   1.968   0.732   4.585 -0.5122 -0.3753  0.4475
 1720TIP3    H1 5166   1.875   0.745   4.568 -0.5256  0.5802  1.1440
 1720TIP3    H2 5167   1.977   0.638   4.599 -1.9959 -0.2059  3.5818
 1721TIP3   OH2 5168   2.637   0.980   0.091  0.1323 -0.2819  0.2143
 1721TIP3    H1 5169   2.603   0.949   0.007 -0.2054  0.4773  0.0686
 1721TIP3    H2 5170   2.716   1.029   0.069  1.5387 -2.2577  0.5741
 1722TIP3   OH2 5171   5.999   3.936   3.105 -0.0519 -0.2885 -0.4624
 1722TIP3    H1 5172   6.072   3.998   3.105 -0.1087 -0.2191  0.1611
 1722TIP3    H2 5173   6.018   3.877   3.178 -1.3494  0.6133  0.6493
 1723TIP3   OH2 5174   2.246   5.181   4.175 -0.2225 -0.4984 -0.1669
 1723TIP3    H1 5175   2.257   5.254   4.114 -2.5364  0.2890  0.2402
 1723TIP3    H2 5176   2.255   5.220   4.261  1.3313 -1.2837  0.0639
 1724TIP3   OH2 5177   4.733   1.533   4.074  0.3886 -0.5364  0.2895
 1724TIP3    H1 5178   4.793   1.486   4.132  0.5241 -1.3293 -0.4666
 1724TIP3    H2 5179   4.777   1.615   4.054  0.3213 -0.2319  1.3241
 1725TIP3   OH2 5180   2.900   3.424   4.054 -0.4078 -0.3158 -0.1353
 1725TIP3    H1 5181   2.903   3.396   3.962 -0.0233 -0.1018 -0.1910
 1725TIP3    H2 5182   2.957   3.363   4.099 -0.6515 -0.4628 -0.0279
 1726TIP3   OH2 5183   2.685   3.195   3.199  0.5945  0.0475 -0.4394
 1726TIP3    H1 5184   2.601   3.154   3.174 -1.2578  3.1079  0.2845
 1726TIP3    H2 5185   2.728   3.214   3.116  0.6019 -1.4854 -0.8231
 1727TIP3   OH2 5186   1.097   5.140   0.529  0.0754 -0.1780 -0.2613
 1727TIP3    H1 5187   1.058   5.219   0.566  0.8717 -0.1106  0.4662
 1727TIP3    H2 5188   1.120   5.164   0.439  1.2134  0.7582  0.2487
 1728TIP3   OH2 5189   5.737   2.495   4.483 -0.3279 -0.3241 -0.5051
 1728TIP3    H1 5190   5.745   2.400   4.480  0.9642 -0.2492 -0.2132
 1728TIP3    H2 5191   5.826   2.527   4.466 -0.5903  0.8036  0.1318
 1729TIP3   OH2 5192   2.257   5.980   0.866 -0.1096 -0.3688 -0.3056
 1729TIP3    H1 5193   2.257   6.068   0.828  1.0861 -0.0081  0.4507
 1729TIP3    H2 5194   2.324   5.932   0.817 -0.8307 -0.9097 -0.7873
 1730TIP3   OH2 5195   5.737   1.365   2.112  0.2981  0.6657  0.2699
 1730TIP3    H1 5196   5.822   1.356   2.068 -0.2388 -0.2751 -0.6333
 1730TIP3    H2 5197   5.758   1.368   2.205  1.2344 -1.9828  0.2361
 1731TIP3   OH2 5198   1.468   4.420   2.019 -0.1960  0.1613 -0.1378
 1731TIP3    H1 5199   1.499   4.402   2.108  1.5913 -3.2388 -1.2737
 1731TIP3    H2 5200   1.537   4.474   1.980 -0.6347  1.0423  0.2723
 1732TIP3   OH2 5201   1.888   1.308   1.971 -0.0684  0.2319  0.4808
 1732TIP3    H1 5202   1.799   1.283   1.994 -0.4695  0.7023 -0.5046
 1732TIP3    H2 5203   1.919   1.238   1.915 -0.4811  0.9238 -0.6497
 1733TIP3   OH2 5204   5.588   1.584   3.044  0.5444 -0.0772 -0.2512
 1733TIP3    H1 5205   5.667   1.535   3.018  1.2943  0.3538  1.1283
 1733TIP3    H2 5206   5.540   1.523   3.099 -0.6861 -0.7319 -1.9557
 1734TIP3   OH2 5207   3.953   2.450   1.497  0.6610 -0.9136 -0.5084
 1734TIP3    H1 5208   4.001   2.418   1.574  1.0771  2.5781  0.8736
 1734TIP3    H2 5209   3.861   2.445   1.523  0.8299  0.9668  0.6362
 1735TIP3   OH2 5210   5.270   0.428   3.083 -0.2358 -0.6127  0.3476
 1735TIP3    H1 5211   5.191   0.463   3.123  0.6933  0.4636  1.3368
 1735TIP3    H2 5212   5.255   0.334   3.078 -1.3683 -0.4820  1.0104
 1736TIP3   OH2 5213   3.203   4.213   2.972  0.0789 -0.4277  0.0504
 1736TIP3    H1 5214   3.184   4.120   2.979  0.2958 -0.3683  2.1574
 1736TIP3    H2 5215   3.151   4.254   3.041 -0.9153  1.1957 -1.5571
 1737TIP3   OH2 5216   0.770   5.674   0.431  0.1889 -0.4133  0.7452
 1737TIP3    H1 5217   0.755   5.686   0.525 -0.3471 -0.1882  0.6366
 1737TIP3    H2 5218   0.863   5.656   0.424 -0.0115 -1.9479  1.4732
 1738TIP3   OH2 5219   5.179   5.956   3.130 -0.6197 -0.3744  0.2498
 1738TIP3    H1 5220   5.193   5.862   3.143 -1.3256 -0.4180  0.7607
 1738TIP3    H2 5221   5.148   5.987   3.215 -3.2180 -0.2481 -0.6413
 1739TIP3   OH2 5222   2.110   3.632   0.717  0.4059  0.3904  0.0076
 1739TIP3    H1 5223   2.066   3.608   0.636  0.4332 -0.3677  0.2150
 1739TIP3    H2 5224   2.175   3.697   0.691  2.5886 -2.0591 -1.1044
 1740TIP3   OH2 5225   0.297   2.529   2.316  0.8364  0.1717 -0.0228
 1740TIP3    H1 5226   0.207   2.541   2.284  0.2744  0.2066  1.4857
 1740TIP3    H2 5227   0.334   2.462   2.258 -0.4835 -0.5572 -0.0763
 1741TIP3   OH2 5228   0.805   2.730   1.730  0.0430  0.5533 -0.1070
 1741TIP3    H1 5229   0.721   2.730   1.685 -1.0139  1.0847  1.7657
 1741TIP3    H2 5230   0.841   2.643   1.714 -0.6715  0.4598 -1.2610
 1742TIP3   OH2 5231   6.168   3.422   4.177  0.6208 -0.3458 -0.1344
 1742TIP3    H1 5232   6.163   3.468   4.261  1.3482 -1.4836  0.5553
 1742TIP3    H2 5233   6.261   3.405   4.164  0.6599  0.8598 -1.7882
 1743TIP3   OH2 5234   3.919   0.615   0.447 -0.1089  0.2683  0.1308
 1743TIP3    H1 5235   3.830   0.649   0.451  0.0014  0.4887  0.7508
 1743TIP3    H2 5236   3.972   0.689   0.417 -0.0790  0.2402  0.1132
 1744TIP3   OH2 5237   1.541   0.500   1.221 -0.4896  0.3401 -0.3187
 1744TIP3    H1 5238   1.518   0.497   1.128 -0.6175  0.0138 -0.2808
 1744TIP3    H2 5239   1.631   0.530   1.223 -0.8259  1.3955 -0.4893
 1745TIP3   OH2 5240   3.939   0.989   4.377  0.2388  0.0120  0.3436
 1745TIP3    H1 5241   3.925   0.923   4.309  1.5460  2.1097 -2.1239
 1745TIP3    H2 5242   3.852   1.019   4.400 -0.2189 -0.1948 -1.0367
 1746TIP3   OH2 5243   1.725   3.121   3.944  0.3770  0.5409 -0.1775
 1746TIP3    H1 5244   1.795   3.103   3.881 -0.3640 -0.1715 -0.8291
 1746TIP3    H2 5245   1.650   3.144   3.889 -0.0381  0.7925  0.4916
 1747TIP3   OH2 5246   3.356   4.782   3.264  0.3360  0.1467 -0.2527
 1747TIP3    H1 5247   3.294   4.853   3.250 -0.1080 -0.2526 -0.3469
 1747TIP3    H2 5248   3.322   4.710   3.212 -1.2085 -1.2912  2.4898
 1748TIP3   OH2 5249   6.197   4.818   3.825 -0.5280  0.4064  0.6163
 1748TIP3    H1 5250   6.126   4.760   3.852 -0.2369 -0.5372 -0.5672
 1748TIP3    H2 5251   6.259   4.761   3.780  1.6769  0.9595  2.7862
 1749TIP3   OH2 5252   2.133   0.770   0.819  0.5174 -0.2653  0.2226
 1749TIP3    H1 5253   2.128   0.856   0.862  2.2876 -0.6801  1.4016
 1749TIP3    H2 5254   2.074   0.715   0.870 -1.8561  0.5427 -1.4969
 1750TIP3   OH2 5255   4.697   0.267   3.708 -0.4870 -0.4229 -0.6434
 1750TIP3    H1 5256   4.650   0.320   3.772  0.8977 -1.5998  1.4746
 1750TIP3    H2 5257   4.757   0.214   3.760  2.7367  0.4773 -3.1003
 1751TIP3   OH2 5258   5.377   1.471   4.664  0.3048 -0.7324 -0.2565
 1751TIP3    H1 5259   5.396   1.545   4.722  1.3201 -1.8517  0.8997
 1751TIP3    H2 5260   5.300   1.499   4.614 -0.0149  0.6632  0.9443
 1752TIP3   OH2 5261   4.874   1.017   0.772  0.6327  0.1334  0.7016
 1752TIP3    H1 5262   4.818   0.972   0.709  2.2526  1.6606 -2.0462
 1752TIP3    H2 5263   4.937   0.950   0.801 -0.6800 -0.8110  1.4506
 1753TIP3   OH2 5264   1.687   3.922   4.022 -0.3611 -0.2144  0.2412
 1753TIP3    H1 5265   1.609   3.967   4.054  0.3539  0.8993  0.4652
 1753TIP3    H2 5266   1.742   3.909   4.100 -0.9826 -2.4287  0.3707
 1754TIP3   OH2 5267   0.990   4.382   0.707 -1.1447  0.2021  0.2937
 1754TIP3    H1 5268   0.923   4.315   0.722  0.9816 -2.6470 -1.6887
 1754TIP3    H2 5269   1.062   4.357   0.765 -0.1807  0.5247 -0.7223
 1755TIP3   OH2 5270   5.468   0.685   2.233  0.1691  0.0202  0.4692
 1755TIP3    H1 5271   5.511   0.729   2.306  0.4839  0.4722  0.0220
 1755TIP3    H2 5272   5.438   0.601   2.269  1.9802 -0.5906  0.6658
 1756TIP3   OH2 5273   1.058   1.958   0.684  0.1832  0.1190  0.2636
 1756TIP3    H1 5274   1.054   2.053   0.690  0.8411  0.0850  1.4787
 1756TIP3    H2 5275   1.151   1.939   0.673 -0.0201 -0.3622 -0.7680
 1757TIP3   OH2 5276   2.526   5.505   2.965 -0.3173  0.0833  0.1771
 1757TIP3    H1 5277   2.520   5.585   3.016  1.4502 -0.1003  0.7269
 1757TIP3    H2 5278   2.582   5.528   2.890 -0.1240 -0.5254  0.1261
 1758TIP3   OH2 5279   0.915   1.767   2.305 -0.3227 -0.2094  0.0554
 1758TIP3    H1 5280   0.848   1.698   2.307 -1.4702  0.8485 -0.5779
 1758TIP3    H2 5281   0.899   1.814   2.223  0.9119  0.3576  0.1177
 1759TIP3   OH2 5282   5.632   0.988   3.693 -0.1633  0.0089 -0.0461
 1759TIP3    H1 5283   5.593   1.075   3.681  1.8332  0.7733 -1.4618
 1759TIP3    H2 5284   5.586   0.932   3.632 -1.5891 -0.0166  0.9992
 1760TIP3   OH2 5285   0.204   1.776   2.452 -0.0921  0.5108  0.0404
 1760TIP3    H1 5286   0.266   1.849   2.460  1.4669 -0.7995  0.3822
 1760TIP3    H2 5287   0.186   1.771   2.358  0.1648  1.0403 -0.0413
 1761TIP3   OH2 5288   5.678   2.925   1.141 -0.4375  0.6420  0.0123
 1761TIP3    H1 5289   5.698   2.980   1.217 -1.1737  0.5902  0.2488
 1761TIP3    H2 5290   5.631   2.983   1.081 -1.4285  0.2271  0.3628
 1762TIP3   OH2 5291   5.076   5.634   1.745  0.9497 -0.0578  0.4778
 1762TIP3    H1 5292   5.147   5.659   1.804  1.0308 -1.3928  0.9880
 1762TIP3    H2 5293   5.012   5.590   1.801  0.3767 -0.1068 -0.1993
 1763TIP3   OH2 5294   5.601   3.136   0.689 -0.5781 -0.1940  0.2711
 1763TIP3    H1 5295   5.524   3.122   0.634 -0.0510  1.0120 -0.8306
 1763TIP3    H2 5296   5.567   3.140   0.779 -1.7665  0.1758 -0.1896
 1764TIP3   OH2 5297   4.421   1.666   4.393 -0.1223  0.1957  0.0427
 1764TIP3    H1 5298   4.470   1.701   4.319  0.6473  1.1928  0.9934
 1764TIP3    H2 5299   4.470   1.693   4.470 -2.7315  2.2683  1.1379
 1765TIP3   OH2 5300   5.836  -0.035   0.610  0.0071  0.1095 -0.5584
 1765TIP3    H1 5301   5.902   0.022   0.569 -0.2664  0.7099 -0.1759
 1765TIP3    H2 5302   5.769   0.026   0.642 -0.5764 -0.4727 -0.6563
 1766TIP3   OH2 5303   0.624   1.155   1.477 -0.2736 -0.1396  0.0882
 1766TIP3    H1 5304   0.629   1.063   1.452  1.1799  0.3909 -1.7318
 1766TIP3    H2 5305   0.533   1.180   1.457  0.2742 -0.2691 -3.0039
 1767TIP3   OH2 5306   1.119   2.512   0.769  0.2269 -0.6680 -0.0551
 1767TIP3    H1 5307   1.077   2.584   0.816 -1.1981  0.0772 -2.3271
 1767TIP3    H2 5308   1.213   2.524   0.786 -0.1418  0.3430  1.4417
 1768TIP3   OH2 5309   1.505   0.042   2.446  0.1201 -0.0581 -0.4522
 1768TIP3    H1 5310   1.544   0.074   2.365  0.8014 -0.7751 -0.4077
 1768TIP3    H2 5311   1.573   0.053   2.512  0.3589 -1.5498 -0.4232
 1769TIP3   OH2 5312   1.062   5.278   2.710  0.0268  0.1365 -0.6965
 1769TIP3    H1 5313   1.032   5.285   2.620  1.3493 -0.7148 -1.2350
 1769TIP3    H2 5314   1.147   5.233   2.704 -0.3165 -0.8397  1.0476
 1770TIP3   OH2 5315   3.599   1.032   1.734 -0.4663  0.1355  0.2123
 1770TIP3    H1 5316   3.636   0.944   1.726 -0.7816  0.0945 -0.8715
 1770TIP3    H2 5317   3.673   1.090   1.719 -0.8390  0.0545 -2.2237
 1771TIP3   OH2 5318   0.916   1.812   1.778 -0.1171  0.0896 -0.1729
 1771TIP3    H1 5319   0.873   1.727   1.766 -0.2086  0.1272 -0.1186
 1771TIP3    H2 5320   0.966   1.826   1.698 -1.3817  0.7196 -0.8876
 1772TIP3   OH2 5321   1.009   4.865   1.159 -0.5102 -0.6554 -0.2738
 1772TIP3    H1 5322   1.072   4.828   1.098 -0.2274  0.0410 -0.4180
 1772TIP3    H2 5323   0.989   4.952   1.124  0.0683 -0.0243  0.8876
 1773TIP3   OH2 5324   1.161   3.040   0.102  0.1487 -0.2254 -0.8401
 1773TIP3    H1 5325   1.088   3.102   0.097  0.0488 -0.3009 -0.3420
 1773TIP3    H2 5326   1.223   3.070   0.036 -0.2031  0.0105 -1.0652
 1774TIP3   OH2 5327   6.027   2.566   1.867 -0.2739 -0.7989 -0.2237
 1774TIP3    H1 5328   6.005   2.617   1.789 -0.4377  0.6796  0.7352
 1774TIP3    H2 5329   6.116   2.535   1.852 -0.2414 -0.3773 -0.9333
 1775TIP3   OH2 5330   3.283   1.860   5.152 -0.0463 -0.5063 -0.0144
 1775TIP3    H1 5331   3.270   1.903   5.067  1.7034 -2.1553 -1.1992
 1775TIP3    H2 5332   3.202   1.811   5.166 -0.3910 -0.1506 -0.6680
 1776TIP3   OH2 5333   5.749   1.041   1.491 -0.1091 -0.8111  0.3333
 1776TIP3    H1 5334   5.665   1.020   1.450  0.1635 -2.3451  0.5111
 1776TIP3    H2 5335   5.796   1.091   1.424  0.0588 -2.6665 -1.0276
 1777TIP3   OH2 5336   0.938   4.558   3.082  0.0335 -0.3712  0.5536
 1777TIP3    H1 5337   0.997   4.630   3.058 -0.8475 -0.5344 -2.6105
 1777TIP3    H2 5338   0.995   4.481   3.088  0.5239 -0.0312  0.3104
 1778TIP3   OH2 5339   4.447   5.464   2.504 -0.0486  0.1424  0.5750
 1778TIP3    H1 5340   4.379   5.499   2.561  0.1268  0.0304  0.8565
 1778TIP3    H2 5341   4.407   5.463   2.417 -0.4779 -0.1100  0.7687
 1779TIP3   OH2 5342   0.421   5.752   3.275 -0.0042 -0.1997  0.9492
 1779TIP3    H1 5343   0.364   5.675   3.281 -1.0732  0.6480  2.3020
 1779TIP3    H2 5344   0.391   5.810   3.346  1.5343  0.9609  0.7092
 1780TIP3   OH2 5345   0.641   4.520   3.386  0.4625  0.2997  0.4825
 1780TIP3    H1 5346   0.633   4.479   3.472  1.0356 -0.2101  0.3084
 1780TIP3    H2 5347   0.664   4.611   3.404 -2.7265  1.1281  0.9255
 1781TIP3   OH2 5348   3.230   2.223   1.961  0.0146  0.1797 -0.1639
 1781TIP3    H1 5349   3.274   2.142   1.937  1.6620  1.0747 -0.2425
 1781TIP3    H2 5350   3.174   2.198   2.035  0.9309 -0.9134  0.1854
 1782TIP3   OH2 5351   5.062   3.557   1.635 -0.5512 -0.2059 -0.1367
 1782TIP3    H1 5352   5.070   3.612   1.713 -0.7966 -0.1616 -0.1428
 1782TIP3    H2 5353   4.991   3.496   1.656 -0.9904  0.1622 -0.5403
 1783TIP3   OH2 5354   3.368   4.976   0.991 -0.4722  0.2434  0.3201
 1783TIP3    H1 5355   3.314   4.971   0.912 -0.1905  0.0926  0.1356
 1783TIP3    H2 5356   3.442   5.032   0.966 -1.6859  2.3992  1.2562
 1784TIP3   OH2 5357   5.687   5.749   4.007 -0.0467  0.1144  0.1943
 1784TIP3    H1 5358   5.705   5.820   3.946 -1.5446  0.0022 -0.4283
 1784TIP3    H2 5359   5.617   5.699   3.965 -1.8312  0.5870  2.3936
 1785TIP3   OH2 5360   2.247   0.614   1.153 -0.5410 -0.2023 -0.3980
 1785TIP3    H1 5361   2.160   0.644   1.178 -0.1172  0.6234  0.1454
 1785TIP3    H2 5362   2.251   0.523   1.183 -1.4209 -0.4293 -0.9626
 1786TIP3   OH2 5363   0.898   2.562   0.276  0.3152  0.0550 -0.2241
 1786TIP3    H1 5364   0.811   2.523   0.283  0.2538  0.3955  1.0580
 1786TIP3    H2 5365   0.932   2.562   0.365  0.6555  2.1656 -0.3137
 1787TIP3   OH2 5366   1.941   0.326   0.117 -0.0751 -0.3141 -0.2900
 1787TIP3    H1 5367   2.009   0.335   0.050 -0.6839 -0.1810 -0.9063
 1787TIP3    H2 5368   1.938   0.412   0.160 -1.0847  0.2871 -1.4884
 1788TIP3   OH2 5369   0.473   5.514   2.497  1.0224 -0.0915  0.1327
 1788TIP3    H1 5370   0.389   5.480   2.467  1.7573 -0.5602 -1.4571
 1788TIP3    H2 5371   0.472   5.606   2.471  0.8847 -0.0106  0.4117
 1789TIP3   OH2 5372   3.222   5.260   1.928 -0.4141  0.1710  0.4981
 1789TIP3    H1 5373   3.274   5.183   1.906 -1.1000 -0.2155  0.2098
 1789TIP3    H2 5374   3.215   5.309   1.846 -0.6653  0.1268  0.4932
 1790TIP3   OH2 5375   4.167   5.358   5.153 -0.4034  0.2975  0.5308
 1790TIP3    H1 5376   4.237   5.369   5.217  1.3892  0.2375 -1.3286
 1790TIP3    H2 5377   4.098   5.418   5.183  0.4621  0.4613  2.3400
 1791TIP3   OH2 5378   2.665   2.307   0.990 -0.3990  0.0255 -0.0044
 1791TIP3    H1 5379   2.700   2.373   1.049 -0.3880 -0.4416  0.5213
 1791TIP3    H2 5380   2.742   2.257   0.961 -0.2751  0.8922 -1.2325
 1792TIP3   OH2 5381   6.098   3.152   4.249  0.0240  0.0364 -0.2160
 1792TIP3    H1 5382   6.050   3.134   4.330 -1.7328  0.7338 -1.0346
 1792TIP3    H2 5383   6.120   3.245   4.253 -0.7512  0.2634 -0.8371
 1793TIP3   OH2 5384   6.389   3.941   0.401 -0.1929  0.3856 -0.2614
 1793TIP3    H1 5385   6.318   3.970   0.457  0.6445 -0.7385  1.4648
 1793TIP3    H2 5386   6.381   3.846   0.399  0.2591  0.3508 -1.4514
 1794TIP3   OH2 5387   4.722   4.694   1.729  0.1049 -0.7653  0.6902
 1794TIP3    H1 5388   4.775   4.699   1.649  0.8103  0.8089  1.2256
 1794TIP3    H2 5389   4.697   4.784   1.747 -1.8444 -1.3495  1.0943
 1795TIP3   OH2 5390   2.370   4.015   3.874 -0.1570  0.0888 -0.4562
 1795TIP3    H1 5391   2.350   4.088   3.931 -1.9989  0.8766 -1.9846
 1795TIP3    H2 5392   2.296   3.955   3.884  0.3644 -0.6100 -0.6799
 1796TIP3   OH2 5393   0.335   5.944   3.084 -0.0824 -0.0142 -0.3942
 1796TIP3    H1 5394   0.412   5.955   3.028 -0.3271  0.2223 -0.6828
 1796TIP3    H2 5395   0.361   5.876   3.146  1.0892  1.4120  0.7609
 1797TIP3   OH2 5396   0.565   1.204   4.274  0.1054 -0.2905  0.1085
 1797TIP3    H1 5397   0.543   1.295   4.295  1.2534 -0.1835  0.9619
 1797TIP3    H2 5398   0.661   1.203   4.275  0.1454 -1.1929 -1.3296
 1798TIP3   OH2 5399   5.646   2.868   4.843  0.2125 -0.0141 -0.0130
 1798TIP3    H1 5400   5.634   2.795   4.782  0.7912 -0.7564  0.7547
 1798TIP3    H2 5401   5.587   2.850   4.915 -1.9522  1.8668 -1.1777
 1799TIP3   OH2 5402   5.652   4.802   4.885  0.3660 -0.3138 -0.5410
 1799TIP3    H1 5403   5.564   4.819   4.852  0.4951 -0.1338 -0.7979
 1799TIP3    H2 5404   5.645   4.720   4.933  0.0460 -0.2703 -0.5151
 1800TIP3   OH2 5405   5.305   5.465   3.488  0.7113  0.1828 -0.3945
 1800TIP3    H1 5406   5.304   5.554   3.523  0.8927  0.1527 -0.3115
 1800TIP3    H2 5407   5.313   5.476   3.393 -0.8182  0.2928 -0.5373
 1801TIP3   OH2 5408   0.625   3.139   4.051  0.0068  0.2371 -0.2840
 1801TIP3    H1 5409   0.577   3.129   4.134 -0.1424  1.2385 -0.2365
 1801TIP3    H2 5410   0.598   3.225   4.018 -1.5154 -0.9512 -2.3981
 1802TIP3   OH2 5411   3.206   2.549   2.205  0.0305 -0.6257 -1.0218
 1802TIP3    H1 5412   3.181   2.597   2.284  1.6242 -0.2001 -0.7309
 1802TIP3    H2 5413   3.156   2.468   2.210 -0.3439 -0.3501  0.1315
 1803TIP3   OH2 5414   3.225   3.714   4.528 -0.5463  0.1703  0.0691
 1803TIP3    H1 5415   3.240   3.620   4.535 -1.3734  0.1217  1.6158
 1803TIP3    H2 5416   3.297   3.747   4.474 -0.7834 -1.4681 -1.3211
 1804TIP3   OH2 5417   3.264   3.051   1.202 -0.6526 -0.4086  0.0876
 1804TIP3    H1 5418   3.203   3.118   1.233 -1.7387 -1.4028  0.1966
 1804TIP3    H2 5419   3.264   3.060   1.107 -1.1222 -0.5266  0.0757
 1805TIP3   OH2 5420   4.473   0.103   0.098  0.5325  0.1308  0.5441
 1805TIP3    H1 5421   4.417   0.175   0.070 -0.6907 -0.7905  0.5123
 1805TIP3    H2 5422   4.562   0.136   0.089 -0.0003  1.5738  0.4013
 1806TIP3   OH2 5423   4.708   1.305   0.522 -0.5377  0.2533  0.0894
 1806TIP3    H1 5424   4.620   1.316   0.486 -0.5184  1.3602  0.3373
 1806TIP3    H2 5425   4.722   1.383   0.576  0.5514  0.0402  0.1488
 1807TIP3   OH2 5426   3.208   4.412  -0.001 -0.0850  0.7730 -0.1004
 1807TIP3    H1 5427   3.260   4.357  -0.060  1.0982 -0.8996  2.3238
 1807TIP3    H2 5428   3.272   4.446   0.062 -1.3964  1.9040  0.6793
 1808TIP3   OH2 5429   4.929   0.241   2.251  0.1323 -0.4854 -0.4117
 1808TIP3    H1 5430   4.878   0.248   2.170  0.1582 -1.1670 -0.4889
 1808TIP3    H2 5431   4.959   0.150   2.253 -0.0625 -0.5364  0.4741
 1809TIP3   OH2 5432   1.077   4.276   0.140 -0.1786 -0.0820  0.8202
 1809TIP3    H1 5433   1.157   4.324   0.121 -0.0893 -0.2784  0.6985
 1809TIP3    H2 5434   1.104   4.205   0.198  0.1245 -1.4357 -0.8845
 1810TIP3   OH2 5435   1.721   5.811   1.054 -0.4350  0.0890 -0.0142
 1810TIP3    H1 5436   1.686   5.739   1.001 -0.1955 -0.5965  0.7315
 1810TIP3    H2 5437   1.783   5.769   1.114 -0.5852  0.8537  0.7076
 1811TIP3   OH2 5438   0.288   2.393   0.186  0.3326 -0.4582 -0.7034
 1811TIP3    H1 5439   0.354   2.442   0.137 -1.5375  0.8312 -2.0455
 1811TIP3    H2 5440   0.262   2.322   0.127 -0.1393 -0.4109 -0.5534
 1812TIP3   OH2 5441   5.058   0.869   3.528 -0.2731  0.1333 -0.1919
 1812TIP3    H1 5442   5.030   0.786   3.566 -1.1640  0.7599  0.5838
 1812TIP3    H2 5443   5.025   0.868   3.439 -1.7864  0.3525  0.3427
 1813TIP3   OH2 5444   1.064   5.608   0.729 -0.0579 -0.0424  0.7765
 1813TIP3    H1 5445   1.009   5.674   0.772  0.3634  0.2930  0.8101
 1813TIP3    H2 5446   1.028   5.524   0.757 -1.2839  0.1637 -0.1452
 1814TIP3   OH2 5447   5.561   2.522   0.762 -0.6741  0.5211  0.0432
 1814TIP3    H1 5448   5.532   2.499   0.674  1.9789  1.5520 -1.2308
 1814TIP3    H2 5449   5.655   2.503   0.761 -0.6869 -0.1309  2.9405
 1815TIP3   OH2 5450   1.904   3.566   3.595 -0.1793  0.1705  0.2803
 1815TIP3    H1 5451   1.876   3.529   3.511 -1.0122 -0.5557  0.8641
 1815TIP3    H2 5452   1.986   3.521   3.614  0.7282  1.3099 -0.7725
 1816TIP3   OH2 5453   5.674   5.806   3.669  0.1231 -0.0098  0.4794
 1816TIP3    H1 5454   5.708   5.854   3.745 -1.1480  0.3439  0.8394
 1816TIP3    H2 5455   5.588   5.775   3.697  0.0388 -0.6887 -0.4989
 1817TIP3   OH2 5456   3.488   4.334   1.070  0.4550  0.2537  0.3536
 1817TIP3    H1 5457   3.420   4.321   1.004 -0.0415  1.8826  0.4922
 1817TIP3    H2 5458   3.552   4.391   1.027  2.2813 -1.9748 -0.0971
 1818TIP3   OH2 5459   3.448   1.480   0.168  0.6879  0.1407  0.4538
 1818TIP3    H1 5460   3.392   1.420   0.217 -0.0381  0.2142 -0.2818
 1818TIP3    H2 5461   3.491   1.425   0.103  2.0202 -0.0473  1.4305
 1819TIP3   OH2 5462   0.388   1.824   5.112  0.0998 -0.0387 -0.7300
 1819TIP3    H1 5463   0.354   1.798   5.198 -1.5509  0.0043 -1.3448
 1819TIP3    H2 5464   0.423   1.912   5.126  0.2322 -0.1956 -0.0173
 1820TIP3   OH2 5465   2.134   1.749   0.087 -0.0748 -0.0917  0.2582
 1820TIP3    H1 5466   2.142   1.791   0.173 -0.5902 -1.9102  1.2564
 1820TIP3    H2 5467   2.054   1.697   0.093 -0.9711  0.9185 -1.8964
 1821TIP3   OH2 5468   5.522   1.636   1.573  0.2999 -0.0595  0.1899
 1821TIP3    H1 5469   5.599   1.680   1.610  0.2092  1.2884 -1.1561
 1821TIP3    H2 5470   5.456   1.642   1.642  0.9305  0.0960  0.7928
 1822TIP3   OH2 5471   3.531   4.272   3.255  0.2953  0.0570 -0.2878
 1822TIP3    H1 5472   3.516   4.360   3.290  0.8379 -0.4746  1.3849
 1822TIP3    H2 5473   3.618   4.276   3.215  1.1529 -0.1287  1.4222
 1823TIP3   OH2 5474   1.721   2.984   4.751 -1.0620  0.1500 -0.5726
 1823TIP3    H1 5475   1.750   2.971   4.661 -0.6116 -0.1522 -0.3869
 1823TIP3    H2 5476   1.673   2.905   4.773 -0.1331 -0.3157 -0.1505
 1824TIP3   OH2 5477   6.341   1.852   1.282 -0.0016 -0.3376 -0.2608
 1824TIP3    H1 5478   6.297   1.769   1.302  0.4843 -0.3509  0.8416
 1824TIP3    H2 5479   6.430   1.839   1.315 -0.2812  1.0940  1.1354
 1825TIP3   OH2 5480   5.257   3.573   3.531 -0.3582  0.6022  0.2833
 1825TIP3    H1 5481   5.350   3.561   3.517 -0.8040 -1.7556 -1.1795
 1825TIP3    H2 5482   5.243   3.548   3.622  0.6020  2.4947  1.0027
 1826TIP3   OH2 5483   3.322   0.173   3.800 -0.2687  0.2391 -0.2271
 1826TIP3    H1 5484   3.387   0.103   3.797 -0.5716 -0.0199 -0.9038
 1826TIP3    H2 5485   3.365   0.244   3.848  0.2211 -0.2223  0.0190
 1827TIP3   OH2 5486   1.286   0.906   4.267  0.2386 -0.2302 -0.2398
 1827TIP3    H1 5487   1.314   0.907   4.176  1.5419 -0.0525  0.1400
 1827TIP3    H2 5488   1.245   0.821   4.280 -1.5899  0.4043 -1.4339
 1828TIP3   OH2 5489   2.342   5.219   5.195 -0.0697 -0.2805  0.1113
 1828TIP3    H1 5490   2.359   5.169   5.114 -0.9622  0.2495 -0.4148
 1828TIP3    H2 5491   2.251   5.246   5.188  0.1564  0.7074  0.7983
 1829TIP3   OH2 5492   5.102   5.919   2.621 -0.2974 -0.2475  0.4560
 1829TIP3    H1 5493   5.156   5.964   2.686  0.4307  0.9283 -0.9188
 1829TIP3    H2 5494   5.152   5.925   2.539 -2.2384  0.4204 -0.7533
 1830TIP3   OH2 5495   0.354   4.105   0.702  0.1587 -0.6328  0.0528
 1830TIP3    H1 5496   0.303   4.186   0.708 -0.9262 -1.3126  0.3751
 1830TIP3    H2 5497   0.343   4.077   0.611  3.7795  1.5708 -1.2440
 1831TIP3   OH2 5498   4.159   5.370   3.184  0.2396  0.2606  0.5774
 1831TIP3    H1 5499   4.244   5.361   3.139 -0.5902  0.3752 -1.1149
 1831TIP3    H2 5500   4.131   5.280   3.199  0.5831  0.2208  0.9985
 1832TIP3   OH2 5501   2.610   3.528   1.599  0.1184 -0.4110 -0.1830
 1832TIP3    H1 5502   2.654   3.488   1.673  0.8535 -0.8074 -0.8210
 1832TIP3    H2 5503   2.568   3.455   1.554  0.6400 -0.3439 -0.7949
 1833TIP3   OH2 5504   4.343   4.262   2.586 -0.2252 -0.0739 -0.1823
 1833TIP3    H1 5505   4.379   4.174   2.583 -0.7683 -0.3167  0.3454
 1833TIP3    H2 5506   4.412   4.317   2.549  0.3365 -0.6493 -0.0032
 1834TIP3   OH2 5507   0.829   1.319   0.550 -0.1767  0.1260 -0.9205
 1834TIP3    H1 5508   0.842   1.413   0.564 -2.7832  0.3644  0.6128
 1834TIP3    H2 5509   0.757   1.315   0.486 -0.6982 -0.7920 -0.2980
 1835TIP3   OH2 5510   2.737   1.414   1.867 -0.0365  0.2197 -0.1546
 1835TIP3    H1 5511   2.697   1.429   1.781  0.1778  1.2107 -0.0974
 1835TIP3    H2 5512   2.820   1.461   1.862 -0.1317  0.4857  0.6720
 1836TIP3   OH2 5513   3.888   5.350   4.071  0.5472 -0.6894  0.0837
 1836TIP3    H1 5514   3.836   5.329   3.993 -0.0085 -0.1325  0.2909
 1836TIP3    H2 5515   3.978   5.332   4.046  0.2906 -1.3356 -0.4047
 1837TIP3   OH2 5516   0.496   2.757   4.836  0.2121 -0.2332  0.3558
 1837TIP3    H1 5517   0.414   2.724   4.871 -0.3798 -0.9055 -1.5541
 1837TIP3    H2 5518   0.543   2.679   4.806  2.0091  0.0323  2.2423
 1838TIP3   OH2 5519   0.069   3.234   2.909  0.1617 -0.1332 -0.4893
 1838TIP3    H1 5520   0.033   3.240   2.998 -0.8371 -0.8514 -0.8154
 1838TIP3    H2 5521   0.143   3.295   2.908  0.0887  0.0030  0.7822
 1839TIP3   OH2 5522   1.329   3.114   2.218 -0.3705 -0.0287 -0.9351
 1839TIP3    H1 5523   1.257   3.075   2.267  0.9527  0.7400  1.7794
 1839TIP3    H2 5524   1.329   3.206   2.243  1.4374  0.0219 -0.9959
 1840TIP3   OH2 5525   1.899   0.259   2.393 -0.0775 -0.3492 -0.3381
 1840TIP3    H1 5526   1.887   0.352   2.373 -0.6968 -0.3462  0.0319
 1840TIP3    H2 5527   1.924   0.220   2.309  0.7141  0.2354 -0.3859
 1841TIP3   OH2 5528   5.523   4.990   1.602 -0.1630 -0.0170  0.1908
 1841TIP3    H1 5529   5.437   5.027   1.583  0.2993  1.0438  0.1406
 1841TIP3    H2 5530   5.507   4.895   1.607 -1.3665  0.1823  0.3996
 1842TIP3   OH2 5531   3.791   4.722   1.521  0.2645 -0.0861 -0.2134
 1842TIP3    H1 5532   3.886   4.730   1.520  0.2270  0.3986 -0.6062
 1842TIP3    H2 5533   3.761   4.795   1.466 -0.1512 -2.6455 -3.7116
 1843TIP3   OH2 5534   5.667   4.616   2.409 -0.1019  0.3004 -0.2318
 1843TIP3    H1 5535   5.722   4.630   2.486  1.8034 -0.6659 -1.3477
 1843TIP3    H2 5536   5.715   4.553   2.356 -2.3810 -0.7086 -1.2328
 1844TIP3   OH2 5537   2.424   5.341   0.050  0.2611 -0.4378 -0.1464
 1844TIP3    H1 5538   2.418   5.437   0.057  0.8409 -0.3701 -0.4840
 1844TIP3    H2 5539   2.375   5.308   0.125 -2.3266  0.0701 -1.5127
 1845TIP3   OH2 5540   4.865   4.713   0.509  0.0815 -0.4973 -0.4252
 1845TIP3    H1 5541   4.807   4.689   0.581  0.4183  0.6991  0.2544
 1845TIP3    H2 5542   4.915   4.788   0.541  2.1378 -1.5606 -0.9193
 1846TIP3   OH2 5543   2.396   0.802   3.019  0.0051  0.4000 -0.3118
 1846TIP3    H1 5544   2.329   0.814   3.086  0.1552 -0.3486 -0.0123
 1846TIP3    H2 5545   2.383   0.712   2.987  1.6221 -0.2207  0.6219
 1847TIP3   OH2 5546   5.775   1.290   0.397 -0.3854  0.2993  0.3885
 1847TIP3    H1 5547   5.686   1.301   0.364 -1.1542 -2.7235  1.2017
 1847TIP3    H2 5548   5.828   1.274   0.318 -0.7342  0.9208  0.0151
 1848TIP3   OH2 5549   3.757   3.302   1.735  0.5930  0.3308 -0.5620
 1848TIP3    H1 5550   3.677   3.251   1.723  2.3430 -3.6559  2.3931
 1848TIP3    H2 5551   3.727   3.383   1.777 -1.9069 -1.8467  2.3374
 1849TIP3   OH2 5552   1.602   0.861   5.161  0.7476 -0.4534 -0.4213
 1849TIP3    H1 5553   1.687   0.904   5.149  0.6539 -0.7019 -2.3079
 1849TIP3    H2 5554   1.621   0.768   5.149  0.7487 -0.9075  2.5061
 1850TIP3   OH2 5555   1.913   4.140   4.962 -0.6319  0.1612  0.2397
 1850TIP3    H1 5556   1.832   4.113   4.918 -0.4690 -0.6290  0.4061
 1850TIP3    H2 5557   1.979   4.139   4.893 -0.6743  0.3850  0.1946
 1851TIP3   OH2 5558   2.881   2.993   3.830  0.0579  0.4136  0.1869
 1851TIP3    H1 5559   2.883   2.993   3.735  0.6970  0.9164  0.2005
 1851TIP3    H2 5560   2.796   2.954   3.852 -1.9767  3.9636 -0.6403
 1852TIP3   OH2 5561   3.245   2.353   2.819  0.0116 -0.7884  0.2844
 1852TIP3    H1 5562   3.298   2.324   2.745  2.8055 -0.0551  1.8719
 1852TIP3    H2 5563   3.190   2.277   2.840  0.5716 -1.6788 -1.2800
 1853TIP3   OH2 5564   2.973   3.018   0.991 -0.4040 -0.1187  0.3944
 1853TIP3    H1 5565   3.058   3.062   0.996 -0.1499 -0.4561 -0.6376
 1853TIP3    H2 5566   2.945   3.009   1.082  0.2448  0.8048  0.7016
 1854TIP3   OH2 5567   3.908   1.273   2.168 -0.2968 -0.1995 -0.0701
 1854TIP3    H1 5568   3.938   1.355   2.206  0.7330 -1.3099  1.6104
 1854TIP3    H2 5569   3.814   1.270   2.188 -0.3427  0.5392 -0.1408
 1855TIP3   OH2 5570   6.335   1.068   1.634 -0.2093 -0.2304 -0.3068
 1855TIP3    H1 5571   6.396   1.083   1.561  1.1617  0.0469  0.8540
 1855TIP3    H2 5572   6.357   0.981   1.665 -1.0633 -0.5054 -0.4646
 1856TIP3   OH2 5573   3.369   3.448   3.460  0.2965  0.1101 -0.2984
 1856TIP3    H1 5574   3.304   3.379   3.467  1.1342 -0.5761  1.1254
 1856TIP3    H2 5575   3.400   3.443   3.370  0.5846 -1.6152 -0.1258
 1857TIP3   OH2 5576   1.889   4.268   3.376 -0.2683  0.4874 -0.0980
 1857TIP3    H1 5577   1.868   4.175   3.368 -0.4335  0.4500  0.6230
 1857TIP3    H2 5578   1.803   4.312   3.384 -0.1691  0.5719  0.6584
 1858TIP3   OH2 5579   2.568   3.914   2.157  0.6392  0.3653  0.4783
 1858TIP3    H1 5580   2.494   3.947   2.207  0.0415 -1.0841  0.5894
 1858TIP3    H2 5581   2.533   3.842   2.105  1.7707  0.2540 -0.1865
 1859TIP3   OH2 5582   4.209   1.338   0.225  0.8408  0.0868 -0.3079
 1859TIP3    H1 5583   4.224   1.404   0.293 -1.1299  0.1534  0.1275
 1859TIP3    H2 5584   4.252   1.259   0.258  0.6583  0.3604  0.6030
 1860TIP3   OH2 5585   4.622   5.862   4.646  0.2894  0.1157  0.1708
 1860TIP3    H1 5586   4.562   5.796   4.680  1.3684 -0.2255  1.5210
 1860TIP3    H2 5587   4.569   5.941   4.638 -0.3896 -0.2324  1.1068
 1861TIP3   OH2 5588   0.887   1.491   1.101  0.3399 -0.0391 -0.1691
 1861TIP3    H1 5589   0.909   1.399   1.092  1.2631  0.2709 -1.3781
 1861TIP3    H2 5590   0.805   1.492   1.150  1.2403 -1.4099  1.4693
 1862TIP3   OH2 5591   4.106   4.232   4.512  0.4641  0.2494 -0.2735
 1862TIP3    H1 5592   4.189   4.208   4.472  0.3943 -1.4260  0.4932
 1862TIP3    H2 5593   4.127   4.242   4.605 -0.1285  0.1403 -0.1254
 1863TIP3   OH2 5594   1.427   5.687   3.056 -0.2793  0.0131  0.1356
 1863TIP3    H1 5595   1.401   5.630   2.983 -0.9255 -0.9836  1.1038
 1863TIP3    H2 5596   1.472   5.760   3.014 -1.0736 -0.2685 -1.3026
 1864TIP3   OH2 5597   0.332   2.106   3.253 -0.1259  0.5470 -0.4743
 1864TIP3    H1 5598   0.360   2.070   3.337  0.5563  0.2633 -0.8081
 1864TIP3    H2 5599   0.413   2.114   3.202 -0.2737  2.3912 -0.4932
 1865TIP3   OH2 5600   4.472   0.077   3.959  0.4441  0.0760  0.2352
 1865TIP3    H1 5601   4.413   0.068   4.034  0.8364  1.1842  0.6970
 1865TIP3    H2 5602   4.468   0.170   3.937  1.9698  0.1605  0.2487
 1866TIP3   OH2 5603   3.327   0.008   1.010 -0.2492  0.0828 -0.9336
 1866TIP3    H1 5604   3.233   0.017   0.993 -0.2221  0.9988 -0.6320
 1866TIP3    H2 5605   3.352   0.089   1.054  0.4247 -0.6816  0.1676
 1867TIP3   OH2 5606   4.174   2.275   0.918  0.0528 -0.0936  0.1582
 1867TIP3    H1 5607   4.125   2.205   0.961  0.7790 -1.0528 -0.5443
 1867TIP3    H2 5608   4.166   2.350   0.978 -0.0901 -0.9882  1.2953
 1868TIP3   OH2 5609   0.979   4.865   1.998 -0.3729 -0.0263  0.0684
 1868TIP3    H1 5610   1.046   4.933   2.001 -0.8123  0.4349 -0.3458
 1868TIP3    H2 5611   1.028   4.783   2.003  0.1685  0.3144  0.4751
 1869TIP3   OH2 5612   0.508   0.658   4.171  0.0343 -0.3890 -0.2125
 1869TIP3    H1 5613   0.563   0.600   4.223 -1.7692  0.7839  3.3843
 1869TIP3    H2 5614   0.433   0.605   4.146 -0.9930 -0.0940  1.9733
 1870TIP3   OH2 5615   3.192   0.821   3.250 -0.5547  0.4221 -0.2416
 1870TIP3    H1 5616   3.236   0.783   3.326 -1.0438 -0.8819 -0.5838
 1870TIP3    H2 5617   3.158   0.746   3.202 -1.4835  1.3030 -1.0032
 1871TIP3   OH2 5618   5.373   4.349   0.220  0.1679  0.2945  0.1153
 1871TIP3    H1 5619   5.280   4.358   0.201 -0.3881  0.9836  2.7950
 1871TIP3    H2 5620   5.383   4.260   0.254  0.2073  0.6831  1.1440
 1872TIP3   OH2 5621   1.762   5.092   2.529  0.2748  0.4552  0.4075
 1872TIP3    H1 5622   1.791   5.080   2.619 -2.6203 -1.5190  1.2047
 1872TIP3    H2 5623   1.773   5.006   2.488  0.0748  0.9079 -0.6333
 1873TIP3   OH2 5624   5.072   2.247   0.364  0.5482 -0.0755 -0.3356
 1873TIP3    H1 5625   5.137   2.310   0.333 -0.0003  0.0417 -1.2601
 1873TIP3    H2 5626   5.067   2.181   0.295 -0.3374 -0.0760 -0.2830
 1874TIP3   OH2 5627   2.668   5.553   2.701 -0.4430 -0.0096 -0.2368
 1874TIP3    H1 5628   2.744   5.537   2.644  0.3546  0.7246  0.5894
 1874TIP3    H2 5629   2.608   5.481   2.680  0.5822 -0.7624 -0.7287
 1875TIP3   OH2 5630   6.148   2.476   0.579 -0.0800 -0.4590  0.7698
 1875TIP3    H1 5631   6.156   2.520   0.494 -1.2050  0.9863  1.3666
 1875TIP3    H2 5632   6.139   2.383   0.557  2.0415 -0.4124 -0.5574
 1876TIP3   OH2 5633   6.115   1.667   1.097  0.2181  0.7028 -0.5912
 1876TIP3    H1 5634   6.106   1.684   1.191  1.3235  2.0805 -0.7071
 1876TIP3    H2 5635   6.036   1.706   1.058 -0.5879 -0.4792 -0.1998
 1877TIP3   OH2 5636   3.229   3.766   0.347 -0.3018 -0.5151  0.4351
 1877TIP3    H1 5637   3.288   3.841   0.344 -0.6007 -0.2847 -2.1042
 1877TIP3    H2 5638   3.287   3.690   0.356  0.0918 -0.1149  1.5262
 1878TIP3   OH2 5639   2.296   4.790   3.835 -0.2559 -0.0875  0.5311
 1878TIP3    H1 5640   2.362   4.724   3.857  0.1135 -0.5906 -1.8093
 1878TIP3    H2 5641   2.298   4.851   3.909  2.2557 -0.5220  0.9383
 1879TIP3   OH2 5642   0.050   3.479   4.332  0.0728 -0.2126 -0.4685
 1879TIP3    H1 5643   0.123   3.447   4.384 -1.3621  0.3503  2.0704
 1879TIP3    H2 5644   0.044   3.572   4.354 -1.4682 -0.2881 -0.4710
 1880TIP3   OH2 5645   1.261   2.955   0.488 -0.0375  0.5077 -1.3945
 1880TIP3    H1 5646   1.282   2.863   0.476  1.4854  0.9016 -2.0320
 1880TIP3    H2 5647   1.281   2.973   0.580 -0.1600  0.2419 -1.3174
 1881TIP3   OH2 5648   2.406   1.843   4.427  0.2057  0.0657  0.2356
 1881TIP3    H1 5649   2.379   1.754   4.405  0.4001 -0.3085  1.4325
 1881TIP3    H2 5650   2.443   1.878   4.346 -2.7114  0.1991 -1.1920
 1882TIP3   OH2 5651   3.731   4.263   0.142  0.1682  0.4325  0.1335
 1882TIP3    H1 5652   3.826   4.268   0.126  0.2082  1.0404  0.5622
 1882TIP3    H2 5653   3.692   4.289   0.058  0.3839  1.8707  0.4666
 1883TIP3   OH2 5654   4.751   3.466   2.983 -0.2676  0.2497  0.2183
 1883TIP3    H1 5655   4.701   3.443   2.904 -1.7433  0.4441  1.0697
 1883TIP3    H2 5656   4.755   3.385   3.034  1.6589 -0.1770 -0.5204
 1884TIP3   OH2 5657   1.877   1.052   3.727  0.2264 -0.1567  0.4906
 1884TIP3    H1 5658   1.854   1.042   3.634  0.9586  0.0200  0.2869
 1884TIP3    H2 5659   1.972   1.064   3.727  0.6200 -2.6672  1.4428
 1885TIP3   OH2 5660   0.346   2.720   0.862 -0.8352 -0.1304  0.4627
 1885TIP3    H1 5661   0.433   2.684   0.847 -0.8429  0.8062 -2.3763
 1885TIP3    H2 5662   0.287   2.644   0.853 -0.4007 -0.6771  1.9238
 1886TIP3   OH2 5663   2.777   1.866   1.459 -0.3466 -0.0931  0.0180
 1886TIP3    H1 5664   2.858   1.903   1.422  0.3629 -1.6027 -0.0405
 1886TIP3    H2 5665   2.730   1.833   1.382 -0.5757 -0.0332  0.1351
 1887TIP3   OH2 5666   3.112   4.889   0.397 -0.6686  0.1903 -0.2588
 1887TIP3    H1 5667   3.172   4.962   0.379 -2.0097  1.0931 -1.3102
 1887TIP3    H2 5668   3.045   4.926   0.454 -0.7153 -0.5674  0.1925
 1888TIP3   OH2 5669   0.403   2.826   1.132  0.1765  0.2954 -0.2790
 1888TIP3    H1 5670   0.412   2.773   1.053  0.4015 -0.2081  0.0776
 1888TIP3    H2 5671   0.489   2.866   1.144  0.8535 -1.3910  0.9309
 1889TIP3   OH2 5672   5.383   3.684   3.165  0.1405 -0.3388  0.0461
 1889TIP3    H1 5673   5.432   3.604   3.184  0.6207 -0.2006 -0.5764
 1889TIP3    H2 5674   5.441   3.735   3.109  0.2021  0.8656  1.1876
 1890TIP3   OH2 5675   4.313   0.669   2.752  0.6855 -0.1094  0.2328
 1890TIP3    H1 5676   4.397   0.699   2.786  0.7761 -2.1346  2.0081
 1890TIP3    H2 5677   4.259   0.748   2.749  2.1718  0.9651  0.5144
 1891TIP3   OH2 5678   0.902   0.151   5.141  0.1653 -0.2021  0.1793
 1891TIP3    H1 5679   0.915   0.160   5.235  1.1496  3.2327 -0.1538
 1891TIP3    H2 5680   0.945   0.228   5.103 -0.2734 -1.3951 -3.0943
 1892TIP3   OH2 5681   2.304   3.765   1.527  0.9051  0.5601 -0.5105
 1892TIP3    H1 5682   2.387   3.771   1.480  0.3882  0.0323 -1.5358
 1892TIP3    H2 5683   2.327   3.778   1.619  2.3811 -1.2871 -0.5651
 1893TIP3   OH2 5684   4.278   1.706   2.278  0.3687  0.1786 -0.1441
 1893TIP3    H1 5685   4.310   1.748   2.197  0.2222  2.3265  0.8407
 1893TIP3    H2 5686   4.290   1.612   2.263 -0.5006  0.4214 -3.0288
 1894TIP3   OH2 5687   4.620   0.572   2.079 -0.3038  0.0542 -0.5918
 1894TIP3    H1 5688   4.583   0.568   1.990 -0.2114  0.7282 -0.6692
 1894TIP3    H2 5689   4.546   0.557   2.137 -0.4663  0.1352 -0.7766
 1895TIP3   OH2 5690   6.003   2.802   2.087 -0.3488  0.0054 -0.5462
 1895TIP3    H1 5691   6.020   2.744   2.013  1.3368  1.1963 -1.1517
 1895TIP3    H2 5692   6.044   2.759   2.162 -0.7397 -0.4709 -0.6034
 1896TIP3   OH2 5693   4.275   1.847   2.956  0.3446 -0.4632 -0.3618
 1896TIP3    H1 5694   4.183   1.825   2.940 -0.8674  3.0934  0.7711
 1896TIP3    H2 5695   4.305   1.886   2.873  0.5167 -0.6823 -0.4034
 1897TIP3   OH2 5696   1.426   4.479   2.721  0.4740  1.0376  0.0269
 1897TIP3    H1 5697   1.369   4.481   2.644 -0.5975  1.5616  0.8025
 1897TIP3    H2 5698   1.515   4.481   2.685 -0.0021  1.5496 -1.1842
 1898TIP3   OH2 5699   2.808   4.851   3.890  0.8599  0.1823 -0.2237
 1898TIP3    H1 5700   2.720   4.864   3.854  0.2001 -0.9717  0.8829
 1898TIP3    H2 5701   2.844   4.777   3.841  0.8102 -0.0132  0.0370
 1899TIP3   OH2 5702   3.711   4.970   1.726  0.4237 -0.1343 -0.1121
 1899TIP3    H1 5703   3.671   5.007   1.805 -2.3948 -2.2171 -0.4139
 1899TIP3    H2 5704   3.716   4.876   1.743 -0.4020 -0.6684 -2.4338
 1900TIP3   OH2 5705   5.448   3.312   4.224  0.5352  0.0428  0.3035
 1900TIP3    H1 5706   5.431   3.363   4.304 -3.1236 -0.7456  0.1983
 1900TIP3    H2 5707   5.435   3.221   4.250  1.0447 -0.3597 -0.7967
 1901TIP3   OH2 5708   4.554   5.875   3.962 -0.0177  0.2133  0.1127
 1901TIP3    H1 5709   4.562   5.908   4.052 -1.8539  0.1705  0.3219
 1901TIP3    H2 5710   4.478   5.817   3.964 -0.2088  0.3639 -1.5174
 1902TIP3   OH2 5711   3.454   3.238   2.736 -0.0291  0.5350 -0.0997
 1902TIP3    H1 5712   3.372   3.284   2.720 -0.6350 -0.3940  0.2016
 1902TIP3    H2 5713   3.455   3.168   2.671 -0.4848 -0.6967  1.1528
 1903TIP3   OH2 5714   0.701   5.873   3.584 -0.3856  0.1746  0.1104
 1903TIP3    H1 5715   0.736   5.833   3.504 -1.2521 -0.9446  0.2672
 1903TIP3    H2 5716   0.631   5.931   3.554  0.1835  0.8137 -0.0290
 1904TIP3   OH2 5717   3.917   0.112   0.039 -0.3482 -0.0508  0.0434
 1904TIP3    H1 5718   3.984   0.082   0.101 -0.7514 -1.4490 -0.1704
 1904TIP3    H2 5719   3.935   0.205   0.028  1.3825 -0.3313  0.2165
 1905TIP3   OH2 5720   1.872   4.382   2.699 -0.5120 -0.2956 -0.0495
 1905TIP3    H1 5721   1.923   4.449   2.654 -0.8616  0.6529  0.9304
 1905TIP3    H2 5722   1.926   4.303   2.693  0.4488  0.3589 -0.1859
 1906TIP3   OH2 5723   2.417   4.295   3.208 -0.0605 -0.0119 -0.9212
 1906TIP3    H1 5724   2.370   4.226   3.254 -1.8313  0.7025 -1.5510
 1906TIP3    H2 5725   2.471   4.249   3.143  1.8199 -0.9709  1.1977
 1907TIP3   OH2 5726   1.646   3.989   1.882 -0.2106 -0.0415  0.2676
 1907TIP3    H1 5727   1.614   3.977   1.793 -2.2584 -0.2360  0.9776
 1907TIP3    H2 5728   1.666   4.082   1.888 -2.1314  0.4168  0.2040
 1908TIP3   OH2 5729   5.230   2.654   0.950  0.5496  0.8271  0.8278
 1908TIP3    H1 5730   5.213   2.635   0.858  0.7328  0.0772  0.9454
 1908TIP3    H2 5731   5.324   2.670   0.955  1.3043 -2.9099  1.4740
 1909TIP3   OH2 5732   2.973   0.033   4.901 -0.0394 -0.0323 -0.0855
 1909TIP3    H1 5733   3.001   0.074   4.820 -0.7344  1.0154  0.1760
 1909TIP3    H2 5734   2.896  -0.018   4.877 -0.7560  0.9553  0.0399
 1910TIP3   OH2 5735   6.098   1.334   4.119 -0.3764  0.2970 -0.4475
 1910TIP3    H1 5736   6.194   1.333   4.125 -0.3973  1.2244  0.3106
 1910TIP3    H2 5737   6.076   1.252   4.075  0.7053 -0.4679  0.3777
 1911TIP3   OH2 5738   2.796   1.983   3.410  0.0681  0.1374 -0.5220
 1911TIP3    H1 5739   2.742   1.941   3.342  0.6969  0.0086 -0.9477
 1911TIP3    H2 5740   2.886   1.961   3.386  0.3315  0.6372 -0.0025
 1912TIP3   OH2 5741   3.475   3.486   1.288 -0.2696 -0.1079 -0.4515
 1912TIP3    H1 5742   3.416   3.560   1.302  0.2705  0.1458  0.6106
 1912TIP3    H2 5743   3.432   3.413   1.334  1.3670  0.6585  2.5963
 1913TIP3   OH2 5744   0.313   0.505   4.044 -0.1640  0.0747 -0.3328
 1913TIP3    H1 5745   0.251   0.576   4.026 -1.9132 -1.4502 -0.6828
 1913TIP3    H2 5746   0.259   0.436   4.083  1.8470 -0.3207  1.9522
 1914TIP3   OH2 5747   0.727   0.234   2.988 -0.6295  0.2593 -0.6085
 1914TIP3    H1 5748   0.641   0.275   2.979 -0.3206  0.9021 -0.6836
 1914TIP3    H2 5749   0.766   0.276   3.065  0.3564  1.3481 -1.6628
 1915TIP3   OH2 5750   6.106   0.348   5.098 -0.9199 -0.0860  0.3247
 1915TIP3    H1 5751   6.123   0.438   5.072 -0.2547  0.0356  1.1470
 1915TIP3    H2 5752   6.039   0.354   5.166 -1.4343 -0.2798 -0.1535
 1916TIP3   OH2 5753   3.613   1.182   2.212 -0.4443  0.2369 -0.0858
 1916TIP3    H1 5754   3.547   1.181   2.142  0.8471 -0.0142 -1.3283
 1916TIP3    H2 5755   3.593   1.260   2.263 -4.2992 -1.8723  2.1693
 1917TIP3   OH2 5756   5.626   2.645   0.143  0.5815 -0.3274 -0.0719
 1917TIP3    H1 5757   5.660   2.712   0.084  1.5628 -1.3424 -0.6997
 1917TIP3    H2 5758   5.548   2.685   0.182 -0.5730  0.1256 -2.6127
 1918TIP3   OH2 5759   1.367   5.947   0.488  0.0042 -0.6047 -0.8168
 1918TIP3    H1 5760   1.353   5.997   0.569 -0.7799  0.9676 -1.8826
 1918TIP3    H2 5761   1.426   5.876   0.514  0.7369  0.5574  0.8746
 1919TIP3   OH2 5762   1.071   2.148   3.874 -0.1651 -0.1374  0.8236
 1919TIP3    H1 5763   1.020   2.069   3.892  0.9246 -0.9669  0.4144
 1919TIP3    H2 5764   1.154   2.133   3.919  0.7251 -0.0367 -0.7046
 1920TIP3   OH2 5765   4.306   0.878   3.486 -0.0824  0.0087  0.7617
 1920TIP3    H1 5766   4.215   0.909   3.489  0.7263  2.6066  3.0378
 1920TIP3    H2 5767   4.316   0.826   3.566 -0.3185 -3.2247 -1.1073
 1921TIP3   OH2 5768   6.342   1.462   4.552 -0.7390 -0.1426  0.3151
 1921TIP3    H1 5769   6.322   1.517   4.477  0.8760  1.0729  0.7216
 1921TIP3    H2 5770   6.353   1.374   4.515  0.0350  0.4336 -0.8934
 1922TIP3   OH2 5771   5.058   5.051   1.752  0.1993 -0.4931 -0.3643
 1922TIP3    H1 5772   5.001   5.119   1.786 -0.2518 -0.7797 -0.5297
 1922TIP3    H2 5773   5.047   4.977   1.812 -0.1511 -0.7940 -0.7861
 1923TIP3   OH2 5774   2.423   5.954   1.095  0.1416  0.2116  0.2556
 1923TIP3    H1 5775   2.351   5.966   1.033 -0.1146 -0.1650  0.4695
 1923TIP3    H2 5776   2.480   6.029   1.081  0.6686 -0.4154 -1.2021
 1924TIP3   OH2 5777   4.688   1.619   4.577 -0.0013 -0.2771  0.2888
 1924TIP3    H1 5778   4.690   1.523   4.576 -0.2619 -0.2851 -0.4860
 1924TIP3    H2 5779   4.773   1.646   4.542 -0.0278 -0.2321  0.2584
 1925TIP3   OH2 5780   0.980   0.249   4.364 -0.2168  0.3488  0.0899
 1925TIP3    H1 5781   0.924   0.267   4.288 -0.4901  1.1464  0.4699
 1925TIP3    H2 5782   0.951   0.164   4.396  2.4355 -1.9438 -2.9643
 1926TIP3   OH2 5783  -0.035   1.741   2.606  0.7807  0.2075  0.2327
 1926TIP3    H1 5784  -0.001   1.757   2.694  0.6388  0.2959  0.2720
 1926TIP3    H2 5785   0.037   1.765   2.547  1.0534 -0.3347  0.3404
 1927TIP3   OH2 5786   4.238   2.857   0.827  0.0798 -0.0707  0.1536
 1927TIP3    H1 5787   4.294   2.787   0.792 -0.2801 -0.5586  0.5308
 1927TIP3    H2 5788   4.291   2.897   0.896  0.1481 -0.2202  0.1890
 1928TIP3   OH2 5789   4.660   2.727   3.199 -0.2660 -0.3791  0.4889
 1928TIP3    H1 5790   4.750   2.695   3.193 -0.6290 -1.7409  1.6455
 1928TIP3    H2 5791   4.649   2.751   3.291 -0.0047  3.3364 -0.3052
 1929TIP3   OH2 5792   3.713   3.592   3.065 -0.0745 -0.0004  0.2593
 1929TIP3    H1 5793   3.751   3.527   3.124  2.3987 -1.4459 -2.6386
 1929TIP3    H2 5794   3.774   3.666   3.069  0.9588 -0.7060 -1.4486
 1930TIP3   OH2 5795   3.471   3.279   1.092  0.5166  0.2852  0.8542
 1930TIP3    H1 5796   3.416   3.245   1.163  2.1492 -0.1123  1.9690
 1930TIP3    H2 5797   3.422   3.354   1.058 -1.9045 -1.5002  0.0983
 1931TIP3   OH2 5798   0.035   5.164   0.059  0.3283 -0.1073 -0.0543
 1931TIP3    H1 5799   0.039   5.145  -0.035  2.2124  0.3496 -0.0954
 1931TIP3    H2 5800  -0.036   5.109   0.091  0.3395 -1.0616 -1.5625
 1932TIP3   OH2 5801   3.363   1.675   2.343  0.2249 -0.9723  0.0517
 1932TIP3    H1 5802   3.317   1.639   2.419 -1.2520  1.2348  0.3116
 1932TIP3    H2 5803   3.383   1.766   2.367  0.1976 -0.3704 -1.9647
 1933TIP3   OH2 5804   2.757   3.795   5.201 -0.3842  0.4025  0.2520
 1933TIP3    H1 5805   2.761   3.699   5.207  0.7702  0.3175 -1.2761
 1933TIP3    H2 5806   2.683   3.812   5.143  0.5281  0.3367 -0.9537
 1934TIP3   OH2 5807   2.742   0.440   4.972  0.0998  0.2392 -0.8831
 1934TIP3    H1 5808   2.747   0.457   5.066  1.1976  0.4235 -0.9686
 1934TIP3    H2 5809   2.833   0.439   4.942  0.0501 -3.2618 -1.3544
 1935TIP3   OH2 5810   6.176   4.468   2.381  0.1343 -0.2338  0.4665
 1935TIP3    H1 5811   6.170   4.519   2.463  1.7570  0.1518  0.3798
 1935TIP3    H2 5812   6.122   4.517   2.319  0.5294  0.6100  0.7701
 1936TIP3   OH2 5813   2.925   1.031   3.106  0.0505 -0.2328  0.3542
 1936TIP3    H1 5814   2.934   0.989   3.020  0.4259  1.7424 -0.6374
 1936TIP3    H2 5815   3.008   1.013   3.150  0.0024 -0.9594  0.1577
 1937TIP3   OH2 5816   4.799   5.866   2.777  0.6571 -0.2769  0.1425
 1937TIP3    H1 5817   4.873   5.881   2.718 -0.3001 -0.3576 -1.1088
 1937TIP3    H2 5818   4.821   5.918   2.855  0.3677  2.7359 -1.6180
 1938TIP3   OH2 5819   3.214   5.761   0.171  0.3513 -0.2220  0.7276
 1938TIP3    H1 5820   3.250   5.784   0.257 -0.8031  0.9482  0.9101
 1938TIP3    H2 5821   3.128   5.724   0.189 -0.0279  0.3029  0.0684
 1939TIP3   OH2 5822   2.277   2.965   4.195  0.8097 -0.8371 -0.2251
 1939TIP3    H1 5823   2.352   2.984   4.139  0.5408  0.4593 -0.1598
 1939TIP3    H2 5824   2.257   2.873   4.178  1.4601 -0.7786 -1.3678
 1940TIP3   OH2 5825   0.105   3.135   1.510 -0.2757 -0.0427 -0.1020
 1940TIP3    H1 5826   0.059   3.061   1.550 -1.9460  0.2197 -1.4125
 1940TIP3    H2 5827   0.087   3.127   1.417  0.0924  1.6157 -0.3532
 1941TIP3   OH2 5828   5.328   1.908   1.686 -0.0558  0.0903  0.5405
 1941TIP3    H1 5829   5.330   1.824   1.731  1.0879  0.3079  0.9379
 1941TIP3    H2 5830   5.278   1.892   1.606  0.6854 -1.1361  0.2966
 1942TIP3   OH2 5831   4.253   2.556   4.404  0.6686 -0.6938 -0.0365
 1942TIP3    H1 5832   4.225   2.643   4.431  0.6850 -1.0960  1.3461
 1942TIP3    H2 5833   4.190   2.529   4.337  1.2914  0.7912 -1.2730
 1943TIP3   OH2 5834   1.224   1.581   0.725  0.0976 -0.9220 -0.1362
 1943TIP3    H1 5835   1.299   1.637   0.704  0.5803 -1.3749  0.3149
 1943TIP3    H2 5836   1.190   1.554   0.640 -0.3867  0.3555 -0.3618
 1944TIP3   OH2 5837   2.982   1.719   0.570  0.1726 -0.6741 -0.0890
 1944TIP3    H1 5838   3.017   1.778   0.638  0.4507 -0.0202 -0.7908
 1944TIP3    H2 5839   2.948   1.644   0.619 -0.8751  0.3953  0.8812
 1945TIP3   OH2 5840   1.585   5.530   0.041  0.3054 -0.3825  0.7376
 1945TIP3    H1 5841   1.590   5.549  -0.053 -0.1301  2.3110  1.1952
 1945TIP3    H2 5842   1.661   5.574   0.079 -0.2223 -0.3657  1.8082
 1946TIP3   OH2 5843   4.023   5.673   3.810  0.6710  0.0228 -0.5365
 1946TIP3    H1 5844   4.027   5.752   3.756  1.2574  0.1793 -0.2692
 1946TIP3    H2 5845   4.110   5.666   3.849  0.5197 -0.5717 -0.2939
 1947TIP3   OH2 5846   2.195   2.752   4.464  0.0233 -0.1771 -0.0704
 1947TIP3    H1 5847   2.214   2.695   4.539  0.9100 -0.4981 -0.5213
 1947TIP3    H2 5848   2.275   2.748   4.411  0.4862  2.2468  0.3543
 1948TIP3   OH2 5849   4.349   1.192   1.914  0.0554 -0.3759 -0.1908
 1948TIP3    H1 5850   4.403   1.232   1.982 -1.7528  0.5635  0.7459
 1948TIP3    H2 5851   4.390   1.220   1.832  0.5149  1.0153  0.4896
 1949TIP3   OH2 5852   4.220   5.683   3.541 -0.1259 -0.4751 -0.0251
 1949TIP3    H1 5853   4.159   5.672   3.468  0.1627  0.0448 -0.3468
 1949TIP3    H2 5854   4.300   5.641   3.511  0.3627  0.7366 -0.4825
 1950TIP3   OH2 5855   5.666   3.182   2.508 -0.4879 -0.2123  0.9342
 1950TIP3    H1 5856   5.578   3.144   2.509 -0.0141 -1.3624  2.6902
 1950TIP3    H2 5857   5.663   3.252   2.573 -0.6347  1.1612 -0.4797
 1951TIP3   OH2 5858   3.250   6.004   0.051  0.3780  0.0424  0.4866
 1951TIP3    H1 5859   3.342   6.010   0.025 -0.0769 -0.0372 -1.2600
 1951TIP3    H2 5860   3.245   5.921   0.099  1.2027  0.0196  0.5518
 1952TIP3   OH2 5861   4.463   5.883   0.615  0.1898  0.5961 -0.4443
 1952TIP3    H1 5862   4.455   5.792   0.642  1.8550  0.9805  1.6427
 1952TIP3    H2 5863   4.374   5.912   0.598 -0.5081 -1.0281  0.2760
 1953TIP3   OH2 5864   5.559   2.160   0.978  0.2305 -0.0587 -0.1484
 1953TIP3    H1 5865   5.563   2.197   0.890 -0.1076  0.2298 -0.0455
 1953TIP3    H2 5866   5.580   2.233   1.036  0.1068 -0.1639  0.0300
 1954TIP3   OH2 5867   5.334   0.540   1.376  0.4698  0.8437 -0.1356
 1954TIP3    H1 5868   5.316   0.634   1.365  2.6468  1.0052 -3.7863
 1954TIP3    H2 5869   5.424   0.536   1.409  0.6151  0.0478 -0.5978
 1955TIP3   OH2 5870   5.013   4.841   1.913  0.5617 -0.0277  0.7069
 1955TIP3    H1 5871   4.969   4.777   1.858  3.5230 -1.0645 -0.7122
 1955TIP3    H2 5872   5.077   4.790   1.963  0.2093  1.3447  2.6531
 1956TIP3   OH2 5873   5.457   1.701   4.800 -0.6269 -0.6038  0.2159
 1956TIP3    H1 5874   5.545   1.707   4.763 -0.7003  0.2984  0.1707
 1956TIP3    H2 5875   5.471   1.669   4.889  0.1433  2.9519  1.5616
 1957TIP3   OH2 5876   4.643   3.645   2.485  0.7015 -0.6390  0.0352
 1957TIP3    H1 5877   4.632   3.564   2.435  1.5117 -0.4473 -0.4740
 1957TIP3    H2 5878   4.724   3.632   2.534  1.6218  0.4047 -1.1516
 1958TIP3   OH2 5879   4.363   1.918   3.938 -0.3905 -0.5793 -0.0102
 1958TIP3    H1 5880   4.408   1.978   3.996 -0.5825  1.2762 -1.6955
 1958TIP3    H2 5881   4.273   1.952   3.932 -0.3752 -0.6941 -1.3799
 1959TIP3   OH2 5882   0.643   5.087   3.219 -0.1664  0.0503  0.5464
 1959TIP3    H1 5883   0.703   5.097   3.294 -0.4471 -1.6850  1.0534
 1959TIP3    H2 5884   0.674   5.008   3.175 -1.7828 -0.6167  0.5413
 1960TIP3   OH2 5885   3.428   5.789   1.175  0.3605 -0.1668 -0.0824
 1960TIP3    H1 5886   3.449   5.696   1.184  0.4917 -0.1324 -0.0369
 1960TIP3    H2 5887   3.502   5.827   1.129  0.7158  0.0792  0.6684
 1961TIP3   OH2 5888   0.245   4.862   0.067  0.2135 -0.3113  0.4353
 1961TIP3    H1 5889   0.150   4.859   0.066  0.1964 -0.0876  1.0777
 1961TIP3    H2 5890   0.266   4.954   0.083  0.5172 -0.5461  1.4743
 1962TIP3   OH2 5891   6.053   3.342   0.699  0.6473 -0.2081  0.3351
 1962TIP3    H1 5892   6.072   3.322   0.791  0.0933  0.0646  0.5144
 1962TIP3    H2 5893   6.139   3.345   0.657  0.8757 -0.7851  0.7481
 1963TIP3   OH2 5894   0.920   2.794   0.093  0.9085  0.0857 -0.4151
 1963TIP3    H1 5895   0.930   2.797   0.188  0.2975  0.0237 -0.3438
 1963TIP3    H2 5896   0.902   2.702   0.073 -2.8437  0.6041 -0.1396
 1964TIP3   OH2 5897   3.808   0.257   1.359  0.6091  0.2407 -0.1509
 1964TIP3    H1 5898   3.866   0.216   1.423  0.8662  1.2134  0.2600
 1964TIP3    H2 5899   3.768   0.184   1.313  0.7456 -0.4779  0.8319
 1965TIP3   OH2 5900   2.868   2.523   2.011  0.3364  0.8881 -0.0368
 1965TIP3    H1 5901   2.910   2.442   2.040 -2.1260  0.0545  1.5526
 1965TIP3    H2 5902   2.867   2.517   1.915 -0.1374 -1.1899  0.0542
 1966TIP3   OH2 5903   2.401   0.229   1.694  0.1307  0.2028  0.4872
 1966TIP3    H1 5904   2.361   0.271   1.618 -1.0717 -0.7328  0.5698
 1966TIP3    H2 5905   2.429   0.301   1.750 -1.0825  0.8951  0.2239
 1967TIP3   OH2 5906   1.526   5.736   0.563 -0.4021  0.3155 -0.3463
 1967TIP3    H1 5907   1.570   5.698   0.488 -1.4622  1.4078 -1.5722
 1967TIP3    H2 5908   1.473   5.664   0.598  0.3391 -0.2844 -0.4255
 1968TIP3   OH2 5909   2.720   3.439   2.926 -0.2249  0.6312  0.0386
 1968TIP3    H1 5910   2.747   3.348   2.915 -1.5762  0.1184  0.7689
 1968TIP3    H2 5911   2.710   3.473   2.837  1.1488  0.3555 -0.2407
 1969TIP3   OH2 5912   3.767   1.990   2.849 -0.0614  0.1828  0.1278
 1969TIP3    H1 5913   3.730   1.909   2.884  0.8649 -0.3972 -0.2142
 1969TIP3    H2 5914   3.841   2.010   2.906 -0.0481  0.5881 -0.0253
 1970TIP3   OH2 5915   4.324   3.397   4.325  0.0086  0.1495  0.0887
 1970TIP3    H1 5916   4.372   3.330   4.277  0.2407  1.0920 -1.0682
 1970TIP3    H2 5917   4.243   3.354   4.352 -0.1710 -0.4180 -1.2591
 1971TIP3   OH2 5918   6.141   5.955   0.369  0.9156 -0.6120  0.7080
 1971TIP3    H1 5919   6.179   6.013   0.434  2.4158 -0.9208  0.1667
 1971TIP3    H2 5920   6.118   6.012   0.296 -0.1287 -0.3603  1.2164
 1972TIP3   OH2 5921   6.187   4.158   3.326  0.0949 -0.1566  0.4267
 1972TIP3    H1 5922   6.093   4.140   3.325  0.3253 -1.5200 -0.9312
 1972TIP3    H2 5923   6.205   4.195   3.239  0.8763 -0.2953  0.5233
 1973TIP3   OH2 5924   3.301   2.351   0.344  0.1285 -0.1151 -0.2749
 1973TIP3    H1 5925   3.300   2.431   0.291  1.9451 -0.9893 -1.7331
 1973TIP3    H2 5926   3.238   2.294   0.300 -1.1765  0.4646  0.7730
 1974TIP3   OH2 5927   2.173   0.226   4.688 -0.1234  0.0487 -0.3870
 1974TIP3    H1 5928   2.177   0.176   4.606 -0.7843  1.9117 -1.6052
 1974TIP3    H2 5929   2.259   0.211   4.728  0.0994 -1.1615 -1.2420
 1975TIP3   OH2 5930   0.983   3.080   4.991  0.3282  0.3929 -0.0702
 1975TIP3    H1 5931   1.069   3.073   4.949  1.1496  0.4097  1.5094
 1975TIP3    H2 5932   1.001   3.066   5.084 -1.5355 -0.5795  0.1866
 1976TIP3   OH2 5933   5.727   3.440   0.641  0.2008 -0.1716 -0.3714
 1976TIP3    H1 5934   5.783   3.414   0.715 -0.4706 -0.6854 -0.0347
 1976TIP3    H2 5935   5.658   3.374   0.639 -0.3456  0.4021 -0.8377
 1977TIP3   OH2 5936   3.617   0.076   1.317 -0.5463  0.2854  0.3927
 1977TIP3    H1 5937   3.577   0.113   1.396  0.0952  0.1732  0.7754
 1977TIP3    H2 5938   3.581  -0.013   1.311 -1.2630  0.5936  0.0717
 1978TIP3   OH2 5939   5.311   4.222   3.797 -0.0847  0.4008  0.1630
 1978TIP3    H1 5940   5.256   4.289   3.839 -0.8061 -0.7641  1.1549
 1978TIP3    H2 5941   5.258   4.143   3.799  0.4352 -0.0318 -1.7436
 1979TIP3   OH2 5942   4.342   1.633   3.113 -0.2004 -0.3593 -0.1215
 1979TIP3    H1 5943   4.255   1.605   3.143 -0.2336  2.1320  2.5682
 1979TIP3    H2 5944   4.324   1.708   3.056  0.1430 -0.1309  0.0671
 1980TIP3   OH2 5945   1.945   5.044   2.181  0.1866 -0.1068 -0.0619
 1980TIP3    H1 5946   1.949   5.028   2.275  1.9967  0.7563  0.0428
 1980TIP3    H2 5947   2.036   5.055   2.154 -0.2180 -1.2314 -2.0910
 1981TIP3   OH2 5948   0.644   3.075   4.736  0.0882 -0.2926  0.2444
 1981TIP3    H1 5949   0.599   3.114   4.661  0.2922 -1.4627 -0.5083
 1981TIP3    H2 5950   0.696   3.147   4.772 -0.0957  0.3214 -0.6752
 1982TIP3   OH2 5951   1.559   0.526   1.718 -0.2650 -0.1158 -0.5563
 1982TIP3    H1 5952   1.478   0.570   1.743  0.5109  1.3246 -0.4418
 1982TIP3    H2 5953   1.628   0.585   1.749  0.8050 -0.4349 -2.2129
 1983TIP3   OH2 5954   0.839   4.861   3.163  0.1466 -0.2523  0.3851
 1983TIP3    H1 5955   0.923   4.817   3.153 -0.3684 -1.0328 -0.7517
 1983TIP3    H2 5956   0.792   4.841   3.082 -0.6702  1.2011  0.4790
 1984TIP3   OH2 5957   0.036   3.992   1.863  0.7164  0.5109  0.1617
 1984TIP3    H1 5958   0.040   3.986   1.768  1.9068  0.4477  0.2046
 1984TIP3    H2 5959   0.124   3.968   1.893  0.2466  0.1273  1.3001
 1985TIP3   OH2 5960   2.548   4.487   3.505  0.2541 -0.1358 -0.2188
 1985TIP3    H1 5961   2.503   4.411   3.542  0.3002  0.3374  0.8262
 1985TIP3    H2 5962   2.587   4.531   3.580  0.5167  0.7348 -0.8531
 1986TIP3   OH2 5963   4.461   5.694   4.825  0.2058 -0.1663 -0.7931
 1986TIP3    H1 5964   4.413   5.772   4.853  1.5575  0.6342 -0.6018
 1986TIP3    H2 5965   4.509   5.665   4.903  1.5550  0.2367 -1.4356
 1987TIP3   OH2 5966   5.118   4.851   2.638 -0.7552  0.0645 -0.3420
 1987TIP3    H1 5967   5.144   4.800   2.715  0.1838  0.7511 -0.1854
 1987TIP3    H2 5968   5.054   4.913   2.671 -1.5394 -0.6672 -0.4395
 1988TIP3   OH2 5969   3.006   3.564   3.386 -0.2779  0.5081 -0.3104
 1988TIP3    H1 5970   2.926   3.512   3.382  0.4818 -0.7740  0.4553
 1988TIP3    H2 5971   3.017   3.584   3.479  0.6921  0.0048 -0.3059
 1989TIP3   OH2 5972   3.952   2.562   3.909  0.3982 -0.6233 -0.3952
 1989TIP3    H1 5973   3.910   2.567   3.823  0.2641 -0.3678 -0.3188
 1989TIP3    H2 5974   3.932   2.475   3.941 -0.9910 -0.1454  0.0953
 1990TIP3   OH2 5975   3.383   4.747   4.740  0.6084  0.2639 -0.3419
 1990TIP3    H1 5976   3.403   4.738   4.647  1.9651  0.4052 -0.0851
 1990TIP3    H2 5977   3.408   4.663   4.778 -0.9741 -0.1974 -0.2494
 1991TIP3   OH2 5978   0.568   3.057   0.014  0.2880 -0.0372  0.0105
 1991TIP3    H1 5979   0.560   3.034   0.107 -0.0244 -0.7879 -0.2007
 1991TIP3    H2 5980   0.491   3.020  -0.027 -0.2068  1.3321 -0.3655
 1992TIP3   OH2 5981   5.503   3.854   5.066  0.2339 -0.4581 -0.5067
 1992TIP3    H1 5982   5.480   3.767   5.032 -0.5899 -0.5422  0.2172
 1992TIP3    H2 5983   5.575   3.837   5.126  1.0562 -0.4325 -1.4531
 1993TIP3   OH2 5984   0.105   0.860   0.547  0.3896 -0.1657 -0.3043
 1993TIP3    H1 5985   0.122   0.766   0.555 -1.1693 -0.4523 -0.1376
 1993TIP3    H2 5986   0.192   0.898   0.532  1.2174 -1.4844  0.8454
 1994TIP3   OH2 5987   2.596   0.696   4.746  0.1813 -0.0530 -0.0000
 1994TIP3    H1 5988   2.510   0.691   4.704  0.2059  0.1706 -0.0771
 1994TIP3    H2 5989   2.641   0.617   4.717 -0.0196 -0.2027  0.0908
 1995TIP3   OH2 5990   2.660   3.672   2.255 -0.1002 -0.1125  0.2061
 1995TIP3    H1 5991   2.655   3.764   2.229  0.4296 -0.0086  0.4532
 1995TIP3    H2 5992   2.576   3.635   2.230 -1.1687  0.9399  2.0596
 1996TIP3   OH2 5993   5.699   0.737   2.685 -0.4723 -0.3409  0.1520
 1996TIP3    H1 5994   5.738   0.810   2.733  1.1488 -0.5918 -0.7000
 1996TIP3    H2 5995   5.668   0.775   2.603  0.6975 -0.6409 -0.4482
 1997TIP3   OH2 5996   2.002   5.402   1.233  0.2071 -0.3787 -0.4315
 1997TIP3    H1 5997   1.952   5.321   1.223 -1.2341  0.7052 -3.0147
 1997TIP3    H2 5998   2.075   5.393   1.172  1.5170 -0.6758  1.0960
 1998TIP3   OH2 5999   2.704   5.851   1.309 -0.1599 -0.2017  0.5817
 1998TIP3    H1 6000   2.747   5.774   1.272 -0.5425  0.1999 -0.7706
 1998TIP3    H2 6001   2.714   5.918   1.241  0.2484  0.9806  1.7674
 1999TIP3   OH2 6002   4.847   5.283   4.872 -0.2014 -0.1418 -0.8317
 1999TIP3    H1 6003   4.942   5.278   4.887 -0.4427  0.5447  1.2965
 1999TIP3    H2 6004   4.833   5.371   4.839 -0.1484 -0.0799 -0.6899
 2000TIP3   OH2 6005   3.790   0.589   0.992 -0.1865 -0.1671  0.0651
 2000TIP3    H1 6006   3.837   0.510   1.021  1.4366  0.5206 -0.5608
 2000TIP3    H2 6007   3.805   0.591   0.897 -0.5976  0.6658  0.0147
 2001TIP3   OH2 6008   0.660   2.047   3.911  0.8693  0.0864 -0.0009
 2001TIP3    H1 6009   0.671   2.028   3.817  1.7704 -0.4517  0.1941
 2001TIP3    H2 6010   0.649   2.142   3.915  1.6027  0.2109 -0.6053
 2002TIP3   OH2 6011   2.589   6.009   0.591  0.1718  0.1129 -0.0728
 2002TIP3    H1 6012   2.567   5.956   0.667  0.4125  0.1733  0.0403
 2002TIP3    H2 6013   2.679   5.985   0.571 -0.2572 -0.7737 -1.0598
 2003TIP3   OH2 6014   2.046   3.869   2.654  0.8449 -0.0495 -0.0024
 2003TIP3    H1 6015   2.022   3.798   2.594  1.3975  0.6503 -1.0813
 2003TIP3    H2 6016   2.099   3.827   2.721 -0.7614 -1.0621  0.6814
 2004TIP3   OH2 6017   1.981   3.003   1.986 -0.0147 -0.1921  0.4016
 2004TIP3    H1 6018   1.923   2.996   1.911 -0.8229  1.8850  0.7611
 2004TIP3    H2 6019   1.934   2.959   2.057 -1.5267  2.0018  0.8474
 2005TIP3   OH2 6020   6.249   5.717   5.101 -0.0603  0.3290 -0.0435
 2005TIP3    H1 6021   6.195   5.759   5.033 -0.4626  3.1685  1.8387
 2005TIP3    H2 6022   6.325   5.683   5.054 -1.8464 -0.7749 -2.3189
 2006TIP3   OH2 6023   3.261   1.662   0.834 -0.2616  0.3746  1.1403
 2006TIP3    H1 6024   3.196   1.733   0.831 -1.4804 -0.7315  0.6063
 2006TIP3    H2 6025   3.221   1.596   0.891 -0.3538 -1.0140 -0.4764
 2007TIP3   OH2 6026   5.729   0.421   5.076  0.4814 -0.1151 -0.2129
 2007TIP3    H1 6027   5.719   0.516   5.085 -1.0827 -0.3783  1.4640
 2007TIP3    H2 6028   5.651   0.385   5.118  1.1366 -2.1629 -0.6539
 2008TIP3   OH2 6029   5.549   5.577   0.676  0.5101 -0.0987 -0.0270
 2008TIP3    H1 6030   5.508   5.660   0.701 -1.7724 -0.4583 -2.1137
 2008TIP3    H2 6031   5.557   5.582   0.581  0.9538 -2.0040 -0.1330
 2009TIP3   OH2 6032   1.169   2.181   4.651  0.7195 -0.1264  0.3059
 2009TIP3    H1 6033   1.076   2.200   4.663  1.0973  1.5941  0.7679
 2009TIP3    H2 6034   1.200   2.162   4.740  1.0486  0.5456  0.3405
 2010TIP3   OH2 6035   0.622   2.743   0.489  0.1443 -0.2116 -0.0727
 2010TIP3    H1 6036   0.557   2.715   0.424 -0.4879  0.8046  0.1064
 2010TIP3    H2 6037   0.649   2.662   0.533  0.6262 -0.9364 -1.6227
 2011TIP3   OH2 6038   1.448   5.848   3.764 -0.1946 -0.4181 -0.1901
 2011TIP3    H1 6039   1.537   5.815   3.759  0.1126  0.5246 -2.0419
 2011TIP3    H2 6040   1.393   5.772   3.747  0.2337 -0.9972  0.9175
 2012TIP3   OH2 6041   1.131   3.023   3.198 -0.7795  0.4686  0.2721
 2012TIP3    H1 6042   1.206   3.020   3.256  0.6528  0.2150 -1.5034
 2012TIP3    H2 6043   1.102   3.115   3.200 -0.2135  0.6378  0.7243
 2013TIP3   OH2 6044   0.514   5.790   2.764 -0.3282 -0.0347 -0.8114
 2013TIP3    H1 6045   0.421   5.768   2.758 -0.2957 -0.7512  0.7929
 2013TIP3    H2 6046   0.524   5.825   2.853  0.1379  4.1581 -2.2537
 2014TIP3   OH2 6047   0.682   2.297   3.786 -0.1586 -0.1641 -0.3060
 2014TIP3    H1 6048   0.667   2.386   3.818 -0.4194  0.5987 -2.4057
 2014TIP3    H2 6049   0.768   2.300   3.745 -0.5183 -0.6220 -1.1288
 2015TIP3   OH2 6050   2.453   2.548   4.588  0.1292 -0.6123  0.4105
 2015TIP3    H1 6051   2.540   2.570   4.621  0.0495 -1.4562  1.2331
 2015TIP3    H2 6052   2.394   2.571   4.660 -0.6720  2.4415 -1.0759
 2016TIP3   OH2 6053   3.505   2.017   4.827 -0.4297 -0.1145  0.5346
 2016TIP3    H1 6054   3.536   2.057   4.746 -1.4824  1.3131  0.8106
 2016TIP3    H2 6055   3.413   1.998   4.811 -0.3860 -0.8082  1.0434
 2017TIP3   OH2 6056   3.883   4.086   2.593 -0.4609 -0.5397  0.8000
 2017TIP3    H1 6057   3.845   4.174   2.593 -0.2938 -0.4562  1.7400
 2017TIP3    H2 6058   3.870   4.054   2.504 -1.7404 -0.0812  0.7974
 2018TIP3   OH2 6059   3.357   0.127   1.850  0.0565 -0.0684  0.4100
 2018TIP3    H1 6060   3.416   0.102   1.778  2.0513 -1.0024  2.2436
 2018TIP3    H2 6061   3.359   0.223   1.851  1.7187 -0.0718  0.4992
 2019TIP3   OH2 6062   0.629   3.794   1.590 -0.0686  0.4446  0.0133
 2019TIP3    H1 6063   0.643   3.840   1.507  0.1813  0.8830  0.2947
 2019TIP3    H2 6064   0.550   3.835   1.626 -0.6302 -0.2810 -0.3724
 2020TIP3   OH2 6065   0.600   4.893   4.279  0.8029 -0.1567  0.6829
 2020TIP3    H1 6066   0.530   4.871   4.340 -0.3151  0.8979 -0.1918
 2020TIP3    H2 6067   0.602   4.819   4.217  1.1068 -0.6222  1.2311
 2021TIP3   OH2 6068   2.760   2.107   0.342 -0.6143  0.2435  0.1836
 2021TIP3    H1 6069   2.766   2.140   0.432  0.2048 -1.8805  0.9560
 2021TIP3    H2 6070   2.840   2.057   0.328  0.1743  1.9968 -2.4298
 2022TIP3   OH2 6071   3.106   3.504   0.211 -0.1012 -0.2736  0.0692
 2022TIP3    H1 6072   3.047   3.500   0.287  0.2704 -1.0392  0.3264
 2022TIP3    H2 6073   3.194   3.502   0.249  0.1074  0.9494 -0.3088
 2023TIP3   OH2 6074   0.805   1.985   3.675 -0.2527  0.3070  0.0886
 2023TIP3    H1 6075   0.830   2.077   3.667 -1.7943  0.7462 -0.0164
 2023TIP3    H2 6076   0.749   1.969   3.598 -0.5999 -0.5092  0.4979
 2024TIP3   OH2 6077   0.865   1.553   2.928 -0.2495 -0.3208  0.0826
 2024TIP3    H1 6078   0.877   1.617   2.999 -0.5546 -0.4023  0.2091
 2024TIP3    H2 6079   0.840   1.606   2.852  1.0822 -0.1180 -0.2514
 2025TIP3   OH2 6080   4.625   1.302   3.072 -0.3075  0.4616  0.1109
 2025TIP3    H1 6081   4.606   1.234   3.008  1.2962  0.8789 -0.8720
 2025TIP3    H2 6082   4.552   1.363   3.066  1.2405  2.2847 -3.8487
 2026TIP3   OH2 6083   1.662   0.491   0.340 -0.2570 -0.6193 -0.2695
 2026TIP3    H1 6084   1.606   0.568   0.355 -0.6425 -0.5985 -1.6535
 2026TIP3    H2 6085   1.640   0.431   0.411  0.0081  0.5177  0.8100
 2027TIP3   OH2 6086   1.082   1.899   0.155 -0.3585 -0.3165  0.0536
 2027TIP3    H1 6087   1.131   1.825   0.192  4.8894  3.3313  1.5664
 2027TIP3    H2 6088   0.997   1.896   0.200  0.3849 -4.0984  1.6354
 2028TIP3   OH2 6089   2.443   1.907   1.933  0.2956  0.2955  0.1329
 2028TIP3    H1 6090   2.458   1.930   1.841  0.4641 -1.2909 -0.2535
 2028TIP3    H2 6091   2.529   1.880   1.965  0.3463  1.3394  0.9253
 2029TIP3   OH2 6092   4.406   2.054   0.493 -0.3322  0.7138 -0.2305
 2029TIP3    H1 6093   4.492   2.094   0.502 -0.6792  1.2827  0.6923
 2029TIP3    H2 6094   4.378   2.037   0.583  0.4524 -3.0579 -0.5403
 2030TIP3   OH2 6095   5.046   2.308   1.716  0.2702 -0.1628 -0.4799
 2030TIP3    H1 6096   5.044   2.213   1.724 -0.2621 -0.1672 -0.6128
 2030TIP3    H2 6097   5.138   2.329   1.702  0.5028 -0.5957  0.3043
 2031TIP3   OH2 6098   4.227   5.919   4.434 -0.2654  0.0209  0.0007
 2031TIP3    H1 6099   4.138   5.912   4.469 -0.9134  1.0548 -1.3454
 2031TIP3    H2 6100   4.218   5.899   4.341  0.9072  0.1891 -0.1671
 2032TIP3   OH2 6101   5.364   0.574   0.693  0.4010 -0.7133  0.1822
 2032TIP3    H1 6102   5.356   0.650   0.751 -1.3832  0.1063 -1.0341
 2032TIP3    H2 6103   5.421   0.604   0.622  0.2778 -0.7586  0.0646
 2033TIP3   OH2 6104   1.882   4.058   3.061 -0.3014  0.5589  0.1395
 2033TIP3    H1 6105   1.948   4.127   3.071  0.9227 -0.4543 -0.5616
 2033TIP3    H2 6106   1.841   4.051   3.147  1.7026  0.0795  1.1215
 2034TIP3   OH2 6107   5.170   5.322   1.065  0.2981  0.0208  0.0702
 2034TIP3    H1 6108   5.129   5.398   1.108  0.6258 -0.1839  0.7456
 2034TIP3    H2 6109   5.262   5.345   1.058  0.1453  0.3414 -1.1606
 2035TIP3   OH2 6110   4.418   3.170   3.541 -0.0225  0.1506 -0.2603
 2035TIP3    H1 6111   4.352   3.211   3.485 -0.1665 -2.6549 -2.3258
 2035TIP3    H2 6112   4.370   3.102   3.589  1.0607 -0.8670 -0.5885
 2036TIP3   OH2 6113   5.909   5.810   2.327  0.4610  0.8486  0.3253
 2036TIP3    H1 6114   5.852   5.869   2.376 -0.0445  0.6923 -0.0610
 2036TIP3    H2 6115   5.941   5.747   2.392 -1.0462 -0.0069  0.2979
 2037TIP3   OH2 6116   0.370   0.818   2.603 -0.4416 -0.0795 -0.5555
 2037TIP3    H1 6117   0.371   0.889   2.668  0.1749 -0.7926  0.2417
 2037TIP3    H2 6118   0.444   0.763   2.628 -1.2584 -1.3113 -0.8059
 2038TIP3   OH2 6119   2.625   0.135   4.937  0.4932  0.2152  0.1623
 2038TIP3    H1 6120   2.682   0.211   4.947 -0.6619  1.2378 -0.6409
 2038TIP3    H2 6121   2.684   0.061   4.930  1.7093  1.1889 -0.2707
 2039TIP3   OH2 6122   0.214   5.213   3.128  0.1330 -0.1892  0.4025
 2039TIP3    H1 6123   0.249   5.129   3.099 -0.4376 -0.1046 -0.5905
 2039TIP3    H2 6124   0.194   5.260   3.047  0.7246  1.0367  0.9360
 2040TIP3   OH2 6125   1.801   3.486   3.860 -0.1364 -0.0058 -0.2149
 2040TIP3    H1 6126   1.787   3.515   3.770  0.0137  0.2426 -0.1601
 2040TIP3    H2 6127   1.715   3.455   3.890 -0.2832  0.3093 -0.3026
 2041TIP3   OH2 6128   2.535   4.834   0.710  0.5721 -0.1787  0.1492
 2041TIP3    H1 6129   2.463   4.850   0.649  0.2289 -1.6523  0.1494
 2041TIP3    H2 6130   2.590   4.770   0.666 -0.2914 -2.1823  1.8314
 2042TIP3   OH2 6131   1.014   5.057   4.864 -0.4226  0.1513 -0.2261
 2042TIP3    H1 6132   1.087   5.035   4.922 -0.1310  0.9847 -0.2614
 2042TIP3    H2 6133   1.018   4.993   4.794  0.3979  0.3104 -0.3330
 2043TIP3   OH2 6134   5.637   3.457   1.116 -0.5474 -0.4251  0.0362
 2043TIP3    H1 6135   5.548   3.423   1.106 -0.8627  0.7057 -1.2501
 2043TIP3    H2 6136   5.685   3.419   1.043  0.5733 -2.4930  1.7041
 2044TIP3   OH2 6137   2.572   3.619   4.817  0.5247 -0.1050 -0.5508
 2044TIP3    H1 6138   2.531   3.630   4.903  1.0907 -0.9586 -0.1518
 2044TIP3    H2 6139   2.664   3.599   4.837  1.0550  1.3193 -1.4049
 2045TIP3   OH2 6140   6.270   1.035   0.641  0.1423  0.0382 -0.3579
 2045TIP3    H1 6141   6.335   0.966   0.623 -0.7608 -1.0201  0.2572
 2045TIP3    H2 6142   6.316   1.117   0.622  2.2796 -0.5407  1.7743
 2046TIP3   OH2 6143   0.524   3.486   0.280 -0.7695  0.3037  0.1106
 2046TIP3    H1 6144   0.471   3.557   0.245 -1.7979 -0.1407  0.7130
 2046TIP3    H2 6145   0.586   3.528   0.340 -1.8335  0.6381  1.0033
 2047TIP3   OH2 6146   5.292   0.926   0.110 -0.0552 -1.1171  0.4505
 2047TIP3    H1 6147   5.351   0.853   0.093 -0.1475 -0.6489 -2.3440
 2047TIP3    H2 6148   5.347   0.990   0.156  1.8405 -0.5839 -2.3024
 2048TIP3   OH2 6149   1.010   0.662   2.497 -0.0655 -0.4695 -0.3304
 2048TIP3    H1 6150   0.922   0.679   2.532 -0.2740  0.6183 -1.3208
 2048TIP3    H2 6151   0.996   0.646   2.404  0.8364  0.2293 -0.5954
 2049TIP3   OH2 6152   1.217   2.822   1.646 -0.1431 -0.2036 -0.1715
 2049TIP3    H1 6153   1.155   2.816   1.719  0.2196  0.6501  0.2242
 2049TIP3    H2 6154   1.197   2.746   1.591 -1.1987 -0.2149  0.2066
 2050TIP3   OH2 6155   0.335   1.284   1.556 -0.5250  0.0474  0.4904
 2050TIP3    H1 6156   0.244   1.306   1.534 -0.5245 -1.1714 -0.9148
 2050TIP3    H2 6157   0.335   1.188   1.560  1.3155 -0.2462 -2.8241
 2051TIP3   OH2 6158   4.014   5.316   4.795  0.4345 -0.7748 -0.3563
 2051TIP3    H1 6159   4.015   5.410   4.776 -1.8573 -0.9646 -1.9213
 2051TIP3    H2 6160   3.946   5.306   4.862  4.2657 -0.8528  3.9304
 2052TIP3   OH2 6161   2.728   5.658   4.041  0.1635  0.2858 -0.7049
 2052TIP3    H1 6162   2.696   5.702   3.963  1.2168  2.6218  0.0801
 2052TIP3    H2 6163   2.793   5.718   4.078  1.1090 -1.5945  0.9323
 2053TIP3   OH2 6164   2.980   1.250   2.332  0.1488  0.0507 -0.1091
 2053TIP3    H1 6165   3.076   1.246   2.336  0.2790  2.4118  0.3151
 2053TIP3    H2 6166   2.961   1.282   2.244 -0.1446  1.2978  0.3897
 2054TIP3   OH2 6167   1.378   4.175   1.913 -0.3937  0.4092 -0.0950
 2054TIP3    H1 6168   1.452   4.115   1.923 -0.6921  0.2276  1.2040
 2054TIP3    H2 6169   1.410   4.258   1.948 -0.7905  0.3268  0.4841
 2055TIP3   OH2 6170   1.665   3.791   2.425 -0.4017 -0.5654  0.0718
 2055TIP3    H1 6171   1.733   3.733   2.461  0.2959  1.7702  3.0085
 2055TIP3    H2 6172   1.584   3.762   2.466  0.1327  1.0488  2.5134
 2056TIP3   OH2 6173   1.027   1.491   1.703  0.3981  0.5427 -0.1857
 2056TIP3    H1 6174   1.064   1.472   1.789 -1.4612 -2.6786  0.0440
 2056TIP3    H2 6175   0.935   1.510   1.720  0.1357  0.4482 -1.4021
 2057TIP3   OH2 6176   5.799   0.642   0.413 -0.2864 -0.1526 -0.2807
 2057TIP3    H1 6177   5.757   0.573   0.362  0.2229 -1.1722  0.6499
 2057TIP3    H2 6178   5.815   0.603   0.499  1.1952  0.6817 -0.1402
 2058TIP3   OH2 6179   0.490   4.820   3.198 -0.2089  0.8840 -0.4184
 2058TIP3    H1 6180   0.407   4.831   3.244 -0.9109 -2.6076 -0.5796
 2058TIP3    H2 6181   0.556   4.817   3.268 -0.8834 -1.2147  0.1835
 2059TIP3   OH2 6182   1.965   1.902   0.853 -0.3443  0.3592  0.3656
 2059TIP3    H1 6183   2.053   1.867   0.865  0.3325  2.2487  1.2293
 2059TIP3    H2 6184   1.916   1.872   0.930 -0.2094  0.0738  0.3419
 2060TIP3   OH2 6185   2.517   5.908   1.828 -0.1207 -0.0309  0.4569
 2060TIP3    H1 6186   2.535   5.855   1.751  1.8620  1.0417  0.1106
 2060TIP3    H2 6187   2.542   5.997   1.803 -0.9164  0.6285  1.8406
 2061TIP3   OH2 6188   2.731   1.541   2.251 -0.2930 -0.4646  0.2012
 2061TIP3    H1 6189   2.763   1.463   2.206 -0.8566 -1.2378  1.1202
 2061TIP3    H2 6190   2.657   1.572   2.198  0.0621 -0.4212 -0.2754
 2062TIP3   OH2 6191   3.879   2.345   1.901 -0.5369  0.3487  0.3125
 2062TIP3    H1 6192   3.936   2.325   1.827  0.6849 -0.5383  1.4485
 2062TIP3    H2 6193   3.791   2.350   1.862 -0.1474 -1.5733 -0.9854
 2063TIP3   OH2 6194   0.601   1.884   3.295 -0.6591  0.1577 -0.1858
 2063TIP3    H1 6195   0.653   1.918   3.368 -1.4684 -0.3033  0.6188
 2063TIP3    H2 6196   0.641   1.799   3.274  1.8285  1.7376 -2.6742
 2064TIP3   OH2 6197   2.183   1.971   2.031  0.0082 -0.1368 -0.0888
 2064TIP3    H1 6198   2.197   1.938   2.119 -3.4300 -2.5402 -0.2543
 2064TIP3    H2 6199   2.265   1.952   1.985  1.4917  0.2412  2.2396
 2065TIP3   OH2 6200   2.838   1.375   4.397 -0.6579  0.4541 -0.0092
 2065TIP3    H1 6201   2.813   1.284   4.379  1.1434  0.0613 -0.7780
 2065TIP3    H2 6202   2.762   1.412   4.442 -1.6057 -1.3017 -0.0512
 2066TIP3   OH2 6203   3.783   0.114   1.605 -0.1532  0.1211  0.0114
 2066TIP3    H1 6204   3.695   0.086   1.581 -0.2507  1.1057 -0.8204
 2066TIP3    H2 6205   3.824   0.035   1.642 -1.0972 -0.5619 -0.3704
 2067TIP3   OH2 6206   3.915   4.532   3.281  0.1015  0.6397  0.2731
 2067TIP3    H1 6207   3.944   4.595   3.348  0.9510  1.8670 -1.1759
 2067TIP3    H2 6208   3.939   4.573   3.198 -0.2867 -1.1518 -0.7753
 2068TIP3   OH2 6209   4.458   1.370   0.531  0.1550 -0.2639  0.0064
 2068TIP3    H1 6210   4.379   1.402   0.485 -0.2129 -1.7672 -0.4701
 2068TIP3    H2 6211   4.473   1.435   0.599 -0.8822  0.6207 -0.5550
 2069TIP3   OH2 6212   3.912   1.788   1.235 -0.6060 -0.5004 -0.5220
 2069TIP3    H1 6213   3.962   1.848   1.290 -0.6225  0.3060 -1.3700
 2069TIP3    H2 6214   3.978   1.744   1.181 -0.7405  0.0553 -1.1491
 2070TIP3   OH2 6215   1.900   1.024   2.774  0.3081  0.3257  0.1044
 2070TIP3    H1 6216   1.807   1.047   2.779  0.3454  0.3211  1.0771
 2070TIP3    H2 6217   1.940   1.095   2.724 -0.4895 -0.5872 -1.9446
 2071TIP3   OH2 6218   1.380   5.865   4.686 -0.4808  0.4621  0.0877
 2071TIP3    H1 6219   1.433   5.943   4.701  0.1107  0.2197 -0.6910
 2071TIP3    H2 6220   1.389   5.848   4.593 -0.4053 -0.6808  0.2937
 2072TIP3   OH2 6221   3.951   5.488   0.418  0.0993 -0.4702 -0.2357
 2072TIP3    H1 6222   4.021   5.488   0.352  0.5737 -1.0063  0.2608
 2072TIP3    H2 6223   3.964   5.569   0.467  0.5840 -0.7299  0.0709
 2073TIP3   OH2 6224   2.622   0.078   3.460 -0.1907  0.6554  0.0479
 2073TIP3    H1 6225   2.538   0.076   3.413 -0.1504 -1.7147 -0.0249
 2073TIP3    H2 6226   2.687   0.090   3.391 -0.2752 -0.7925 -0.3147
 2074TIP3   OH2 6227   6.052   1.072   4.019 -0.0876 -0.3900 -0.2062
 2074TIP3    H1 6228   6.090   1.122   3.947 -1.5315 -1.3549 -1.6913
 2074TIP3    H2 6229   6.042   0.983   3.984 -0.9042 -0.8626  1.1501
 2075TIP3   OH2 6230   1.425   5.900   4.025 -0.3740  0.2789 -0.1837
 2075TIP3    H1 6231   1.520   5.885   4.028 -0.2923  0.9325  1.0459
 2075TIP3    H2 6232   1.403   5.894   3.932  0.5766 -1.5590 -0.3211
 2076TIP3   OH2 6233   4.605   1.160   4.036  0.2303 -0.0260  0.5890
 2076TIP3    H1 6234   4.548   1.228   4.071 -0.4744 -0.4110  0.2166
 2076TIP3    H2 6235   4.665   1.206   3.978  0.5872  0.4420  1.3141
 2077TIP3   OH2 6236   6.178   5.014   0.149  0.2320 -0.0635 -0.1642
 2077TIP3    H1 6237   6.092   4.997   0.111 -0.0511  0.7512  0.0940
 2077TIP3    H2 6238   6.162   5.019   0.243  0.5823 -0.0290 -0.1038
 2078TIP3   OH2 6239   1.986   3.681   4.387  0.4815 -0.0753  0.1611
 2078TIP3    H1 6240   2.020   3.601   4.349 -0.7373  0.1839 -1.6077
 2078TIP3    H2 6241   2.063   3.730   4.415  1.3156 -1.1177 -0.2672
 2079TIP3   OH2 6242   4.875   2.538   4.212 -0.1770 -0.0585  0.1110
 2079TIP3    H1 6243   4.787   2.514   4.240 -0.2726 -0.1906 -0.3020
 2079TIP3    H2 6244   4.932   2.502   4.280 -0.3869 -0.6300 -0.0095
 2080TIP3   OH2 6245   3.455   4.816   2.367 -0.0013 -0.3911  0.0426
 2080TIP3    H1 6246   3.404   4.753   2.315  0.4873  0.1389 -1.1269
 2080TIP3    H2 6247   3.430   4.798   2.457 -1.2532 -1.0303 -0.3964
 2081TIP3   OH2 6248   5.698   3.507   3.795 -0.2991 -0.4631  0.5410
 2081TIP3    H1 6249   5.630   3.449   3.762 -0.3688  0.6684 -1.4915
 2081TIP3    H2 6250   5.653   3.566   3.856 -1.0197 -0.1535 -0.2742
 2082TIP3   OH2 6251   3.864   1.365   1.900 -0.1632 -0.2420  0.3099
 2082TIP3    H1 6252   3.774   1.383   1.928  0.1267  2.1677 -0.0580
 2082TIP3    H2 6253   3.893   1.295   1.957 -2.1796 -0.9140  0.6097
 2083TIP3   OH2 6254   2.888   5.933   2.553  0.4756  0.3322 -0.2014
 2083TIP3    H1 6255   2.918   5.912   2.641  2.0342 -0.5680 -0.9130
 2083TIP3    H2 6256   2.919   6.022   2.537 -0.7836  0.9319  0.5418
 2084TIP3   OH2 6257   2.739   1.698   1.691 -0.3387 -0.3677 -0.3830
 2084TIP3    H1 6258   2.718   1.736   1.605 -0.8612 -1.7641 -0.9050
 2084TIP3    H2 6259   2.656   1.663   1.723  0.0022 -0.5135  0.3558
 2085TIP3   OH2 6260   5.681   5.646   0.146  0.1718 -0.1721 -0.7030
 2085TIP3    H1 6261   5.696   5.576   0.083 -0.1051  0.5813 -1.6216
 2085TIP3    H2 6262   5.768   5.684   0.161  0.4919 -1.2916  0.5375
 2086TIP3   OH2 6263   1.804   3.743   4.955  0.6250  0.2497  0.8236
 2086TIP3    H1 6264   1.803   3.678   4.885  0.5280  0.1502  0.9167
 2086TIP3    H2 6265   1.785   3.826   4.911  0.0394  0.1140  0.8033
 2087TIP3   OH2 6266   4.847   1.379   2.793 -1.0217 -0.6497 -0.4115
 2087TIP3    H1 6267   4.835   1.295   2.747  0.4283  0.0147 -2.1149
 2087TIP3    H2 6268   4.807   1.444   2.735  0.9778  0.2298 -0.9011
 2088TIP3   OH2 6269   2.850   0.800   4.810  0.1158 -0.1273 -0.3230
 2088TIP3    H1 6270   2.778   0.746   4.779  1.5153 -2.2266 -0.1359
 2088TIP3    H2 6271   2.918   0.737   4.836  2.0690  1.7423 -0.6074
 2089TIP3   OH2 6272   5.014   5.594   3.604 -0.0932 -0.3128 -0.0919
 2089TIP3    H1 6273   4.963   5.531   3.657 -0.2044 -0.3996 -0.3018
 2089TIP3    H2 6274   5.105   5.566   3.615 -0.2740 -1.5698 -1.5661
 2090TIP3   OH2 6275   5.188   3.319   3.362 -0.1060  0.9735  0.3488
 2090TIP3    H1 6276   5.157   3.362   3.442  3.1459  1.6214  1.4256
 2090TIP3    H2 6277   5.179   3.225   3.381 -0.4213  1.1249  0.9933
 2091TIP3   OH2 6278   4.040   3.009   4.489  0.2430 -0.1400  0.3114
 2091TIP3    H1 6279   4.073   3.024   4.401  1.3348 -1.7850  0.3742
 2091TIP3    H2 6280   3.950   2.979   4.477  0.2418  0.0752 -0.2130
 2092TIP3   OH2 6281   3.385   2.935   0.787 -0.1037 -0.0998  0.6094
 2092TIP3    H1 6282   3.337   2.904   0.863 -0.4565 -0.5571  0.2073
 2092TIP3    H2 6283   3.443   2.862   0.764  0.2482  0.1645  0.6385
 2093TIP3   OH2 6284   3.534   4.013   5.170 -0.2039  0.1391 -0.0947
 2093TIP3    H1 6285   3.467   4.071   5.208  0.2162  0.4757  0.1385
 2093TIP3    H2 6286   3.485   3.958   5.109 -0.4459  1.5238 -1.2133
 2094TIP3   OH2 6287   1.938   1.687   2.963 -0.4438  0.4551 -0.2578
 2094TIP3    H1 6288   1.853   1.643   2.954 -0.6853  0.6034  1.1185
 2094TIP3    H2 6289   1.969   1.697   2.873 -0.3880 -2.4512 -0.6659
 2095TIP3   OH2 6290   0.301   5.061   0.898  0.1077 -0.4040 -0.3617
 2095TIP3    H1 6291   0.263   4.977   0.920  1.0644 -1.1098 -1.2892
 2095TIP3    H2 6292   0.394   5.052   0.920  0.2633  0.3115 -0.6857
 2096TIP3   OH2 6293   1.179   1.918   1.152  0.2243  0.3995  0.0057
 2096TIP3    H1 6294   1.226   1.996   1.181  0.4021 -0.1225  1.1867
 2096TIP3    H2 6295   1.235   1.879   1.086  1.8611 -0.5844  1.8744
 2097TIP3   OH2 6296   0.273   3.445   3.278  0.4021  0.1548  0.0268
 2097TIP3    H1 6297   0.305   3.419   3.364  2.1014 -0.8089 -0.8490
 2097TIP3    H2 6298   0.320   3.526   3.258  0.9783 -0.3071 -0.5202
 2098TIP3   OH2 6299   0.179   3.383   0.809  0.6490  0.3630 -0.1289
 2098TIP3    H1 6300   0.181   3.471   0.773  3.9623  0.5448  0.2128
 2098TIP3    H2 6301   0.271   3.358   0.818 -0.1497 -2.9447  0.3004
 2099TIP3   OH2 6302   1.355   5.607   3.702  0.6022 -0.9710  0.0009
 2099TIP3    H1 6303   1.427   5.570   3.652  1.0246 -1.3312  0.8583
 2099TIP3    H2 6304   1.282   5.611   3.639  1.6815  0.5729 -1.2277
 2100TIP3   OH2 6305   1.530   1.874   1.756 -0.6657  0.2684 -0.0574
 2100TIP3    H1 6306   1.556   1.785   1.733 -0.2624 -0.1519  1.8795
 2100TIP3    H2 6307   1.612   1.919   1.774 -0.9642  0.5403  0.6427
 2101TIP3   OH2 6308   1.899   0.316   4.135 -0.0908 -0.0433 -0.3376
 2101TIP3    H1 6309   1.911   0.410   4.124 -2.2679  0.3904  0.5200
 2101TIP3    H2 6310   1.936   0.297   4.222 -2.7182  0.7590  1.0695
 2102TIP3   OH2 6311   6.296   2.539   1.049  0.0057  0.0825 -0.4595
 2102TIP3    H1 6312   6.376   2.590   1.059  0.4337 -0.3122 -1.6766
 2102TIP3    H2 6313   6.264   2.562   0.961 -2.1141  1.4572  0.5778
 2103TIP3   OH2 6314   5.897   1.911   4.095 -0.3434  0.1917 -0.1260
 2103TIP3    H1 6315   5.865   1.992   4.055  2.9480  0.7747 -2.0323
 2103TIP3    H2 6316   5.930   1.938   4.181 -2.3439  0.0867  0.7304
 2104TIP3   OH2 6317   1.527   5.193   0.799  0.0247  0.6027 -0.4145
 2104TIP3    H1 6318   1.462   5.157   0.859 -0.1587  1.3423 -0.1535
 2104TIP3    H2 6319   1.573   5.117   0.764  0.3982  0.1736  0.9597
 2105TIP3   OH2 6320   5.278   4.101   0.390  0.8976  0.2892  0.0981
 2105TIP3    H1 6321   5.373   4.102   0.391  1.0110 -2.3438  2.0624
 2105TIP3    H2 6322   5.254   4.014   0.422 -2.1944 -0.2294 -3.0025
 2106TIP3   OH2 6323   2.226   5.846   4.189 -0.3706 -0.2898  0.3599
 2106TIP3    H1 6324   2.308   5.835   4.237 -0.4511  1.2339  0.8772
 2106TIP3    H2 6325   2.176   5.909   4.240 -1.7079 -0.8731 -0.1773
 2107TIP3   OH2 6326   0.364   1.881   1.609 -0.1792  0.3642  0.2453
 2107TIP3    H1 6327   0.458   1.878   1.587 -0.4784  0.8799 -1.2181
 2107TIP3    H2 6328   0.336   1.790   1.607  0.2118  0.2384  0.3278
 2108TIP3   OH2 6329   0.968   0.259   2.093 -0.0711 -0.1390 -0.1054
 2108TIP3    H1 6330   0.948   0.261   2.186  0.1993 -0.1994 -0.0441
 2108TIP3    H2 6331   0.910   0.324   2.054  1.4812  1.6628  0.4357
 2109TIP3   OH2 6332   1.668   2.517   2.667  0.3652 -0.0015  0.0994
 2109TIP3    H1 6333   1.593   2.459   2.656 -0.8797  1.7200 -0.9457
 2109TIP3    H2 6334   1.637   2.585   2.727  0.7222  1.2495 -1.0816
 2110TIP3   OH2 6335   0.445   1.666   0.621 -0.2642  0.1105 -0.7265
 2110TIP3    H1 6336   0.517   1.640   0.678 -0.2340 -0.9761 -1.2322
 2110TIP3    H2 6337   0.483   1.670   0.534 -1.0860 -1.9641 -1.2467
 2111TIP3   OH2 6338   4.069   3.571   1.257 -0.4060 -0.0441  0.1903
 2111TIP3    H1 6339   4.039   3.596   1.345  0.5642 -0.0108  0.5202
 2111TIP3    H2 6340   4.088   3.654   1.214  0.4430 -0.1040  0.4338
 2112TIP3   OH2 6341   2.702   4.932   4.374 -0.0896  0.1788  0.1307
 2112TIP3    H1 6342   2.662   4.916   4.459  0.6108 -0.2759  0.3870
 2112TIP3    H2 6343   2.784   4.882   4.377  0.0203  0.2986 -0.7446
 2113TIP3   OH2 6344   0.527   1.852   4.256 -0.7647 -0.2141  0.0025
 2113TIP3    H1 6345   0.621   1.844   4.273 -0.6167  0.2759 -0.5797
 2113TIP3    H2 6346   0.514   1.943   4.232 -1.2306 -0.4956 -0.8621
 2114TIP3   OH2 6347   5.274   2.801   0.482  0.3979 -0.2091  0.3328
 2114TIP3    H1 6348   5.325   2.792   0.563  0.9661 -2.1599 -0.1818
 2114TIP3    H2 6349   5.191   2.756   0.501 -0.6448  1.7372  0.6968
 2115TIP3   OH2 6350   5.625   0.252   4.195  0.1152  0.2765  0.2245
 2115TIP3    H1 6351   5.600   0.173   4.243  0.9705 -1.4812 -2.0323
 2115TIP3    H2 6352   5.548   0.308   4.200 -1.2120 -1.4546  0.4108
 2116TIP3   OH2 6353   0.667   2.572   4.753  0.0037  0.0670  0.5961
 2116TIP3    H1 6354   0.720   2.629   4.697 -2.0821 -0.1542 -1.8210
 2116TIP3    H2 6355   0.695   2.484   4.730 -0.5127 -0.0130  0.2638
 2117TIP3   OH2 6356   0.370   0.006   1.655 -0.2824  0.1123  0.3957
 2117TIP3    H1 6357   0.290   0.053   1.680 -0.1746 -0.1997  1.3687
 2117TIP3    H2 6358   0.397  -0.039   1.735  1.8313  1.5588  0.5574
 2118TIP3   OH2 6359   0.615   0.269   4.022 -0.3871 -0.3435  0.1209
 2118TIP3    H1 6360   0.655   0.300   3.941 -0.3528  0.8154  0.5609
 2118TIP3    H2 6361   0.531   0.232   3.996 -0.4208  0.1138 -0.4286
 2119TIP3   OH2 6362   6.268   3.795   1.356  0.4616  0.1081 -0.0048
 2119TIP3    H1 6363   6.264   3.700   1.343  0.4553  0.1473 -0.2979
 2119TIP3    H2 6364   6.178   3.818   1.380  0.4637  0.0399  0.0717
 2120TIP3   OH2 6365   5.145   2.636   1.634 -0.2003  0.3159 -0.3544
 2120TIP3    H1 6366   5.072   2.687   1.599 -0.9109 -0.8616 -0.6493
 2120TIP3    H2 6367   5.168   2.576   1.563 -1.4671 -1.9246  1.0172
 2121TIP3   OH2 6368   4.443   2.326   2.266  0.0671 -0.0414 -0.8794
 2121TIP3    H1 6369   4.424   2.396   2.204  0.9888  0.2398 -0.8533
 2121TIP3    H2 6370   4.493   2.262   2.216 -1.0680 -0.8680 -0.9983
 2122TIP3   OH2 6371   4.071   2.325   4.489  0.7821 -0.2249  0.5679
 2122TIP3    H1 6372   4.083   2.419   4.487  0.6653 -0.1639  1.7302
 2122TIP3    H2 6373   3.976   2.312   4.491  0.7990 -0.3231  1.1243
 2123TIP3   OH2 6374   5.685   3.208   2.215  0.3536 -0.0225 -0.0734
 2123TIP3    H1 6375   5.730   3.232   2.296  3.9079  0.5730 -2.0007
 2123TIP3    H2 6376   5.714   3.118   2.198 -0.8302 -0.3509 -0.4046
 2124TIP3   OH2 6377   2.035   0.293   4.367  0.2045 -0.3714 -0.1387
 2124TIP3    H1 6378   2.111   0.240   4.391 -0.7256 -1.8771 -0.4019
 2124TIP3    H2 6379   2.015   0.343   4.445  2.0057  0.7590 -0.3403
 2125TIP3   OH2 6380   3.249   4.327   3.519  0.3823 -0.7582  0.1821
 2125TIP3    H1 6381   3.283   4.238   3.509 -3.2311 -2.0791 -2.0580
 2125TIP3    H2 6382   3.220   4.351   3.432 -1.8820  1.2241  1.3924
 2126TIP3   OH2 6383   1.377   0.694   1.802  0.5346  0.8062  0.0632
 2126TIP3    H1 6384   1.321   0.735   1.736 -1.5326 -0.5168  0.9055
 2126TIP3    H2 6385   1.404   0.767   1.858 -0.4526  1.4674 -0.2911
 2127TIP3   OH2 6386   3.405   1.986   2.282 -0.0713  0.0988  0.6808
 2127TIP3    H1 6387   3.318   1.986   2.322 -0.9914  0.8671 -1.2167
 2127TIP3    H2 6388   3.450   2.060   2.324 -1.0061  0.8830  0.3353
 2128TIP3   OH2 6389   1.111   5.898   1.585  0.1604  0.0039  1.0491
 2128TIP3    H1 6390   1.109   5.835   1.656 -1.1646 -0.6895  0.4308
 2128TIP3    H2 6391   1.044   5.962   1.608  1.0673  0.8735  1.3636
 2129TIP3   OH2 6392   6.117   2.633   3.459 -0.5845 -0.3968 -0.3980
 2129TIP3    H1 6393   6.037   2.640   3.407 -1.2842 -2.2459  0.3579
 2129TIP3    H2 6394   6.148   2.723   3.467 -2.0553  0.2506 -1.5196
 2130TIP3   OH2 6395   6.169   0.859   4.825 -0.5016  0.0764 -0.5155
 2130TIP3    H1 6396   6.150   0.953   4.820 -1.5023 -0.1040 -0.2151
 2130TIP3    H2 6397   6.228   0.851   4.900 -2.1603  0.2251  0.8681
 2131TIP3   OH2 6398   2.344   2.514   2.211 -0.4789  0.1445 -0.2425
 2131TIP3    H1 6399   2.358   2.420   2.203 -1.1438  0.0365 -0.1387
 2131TIP3    H2 6400   2.432   2.552   2.201 -0.0650 -0.5393  0.6583
 2132TIP3   OH2 6401   4.048   5.580   4.774  0.2130 -0.1165 -0.4811
 2132TIP3    H1 6402   4.054   5.614   4.685  0.3201  0.2103 -0.3507
 2132TIP3    H2 6403   4.036   5.657   4.829 -1.7144 -0.4337 -0.3797
 2133TIP3   OH2 6404   0.986   2.448   1.120 -0.0291 -0.5344  0.1469
 2133TIP3    H1 6405   1.047   2.521   1.133 -1.5192  1.4048 -2.6198
 2133TIP3    H2 6406   1.039   2.381   1.077  0.8432 -0.1493  0.5770
 2134TIP3   OH2 6407   3.820   1.796   3.821  0.0342 -0.7153  0.3879
 2134TIP3    H1 6408   3.879   1.847   3.876 -0.2327  0.7094 -0.6041
 2134TIP3    H2 6409   3.849   1.814   3.731 -1.6215 -0.3423 -0.1039
 2135TIP3   OH2 6410   6.042   3.081   2.767  0.2004  0.0058  0.2338
 2135TIP3    H1 6411   6.098   3.026   2.821  0.1498  0.1626  0.4509
 2135TIP3    H2 6412   6.098   3.110   2.695  0.1411 -0.5749 -0.0457
 2136TIP3   OH2 6413   0.874   5.964   0.055  0.1808 -0.6258 -0.2926
 2136TIP3    H1 6414   0.790   6.006   0.037  1.3112  1.3228 -1.4229
 2136TIP3    H2 6415   0.860   5.872   0.034 -1.6262 -0.3252 -0.5513
 2137TIP3   OH2 6416   3.018   1.053   4.911  0.1317  0.1036 -0.0410
 2137TIP3    H1 6417   2.941   1.005   4.879  0.1934  0.7680 -1.2487
 2137TIP3    H2 6418   3.047   1.003   4.987 -1.7350  0.0657  0.7119
 2138TIP3   OH2 6419   4.158   4.938   1.367 -0.4450  0.0044  0.0744
 2138TIP3    H1 6420   4.225   4.876   1.393 -1.9744 -1.1974  1.3177
 2138TIP3    H2 6421   4.095   4.886   1.317 -0.4717  1.1165 -1.1114
 2139TIP3   OH2 6422   1.076   4.748   2.770 -0.5027  0.8994  0.1184
 2139TIP3    H1 6423   1.134   4.761   2.694 -1.1358 -0.3649 -0.6218
 2139TIP3    H2 6424   1.004   4.809   2.756 -0.0346  1.5217  0.3448
 2140TIP3   OH2 6425   4.682   4.529   4.719 -0.0369  0.0268 -0.3982
 2140TIP3    H1 6426   4.677   4.553   4.812 -0.6277 -2.2745  0.2283
 2140TIP3    H2 6427   4.747   4.589   4.682 -1.9394  3.0722  0.7712
 2141TIP3   OH2 6428   2.078   2.498   1.079  0.0709  0.0943 -0.1521
 2141TIP3    H1 6429   2.163   2.542   1.078  1.0575 -1.6585  0.8946
 2141TIP3    H2 6430   2.058   2.483   0.987  1.5213 -0.5338 -0.3940
 2142TIP3   OH2 6431   2.063   5.829   0.975  0.0411 -0.1415  0.5038
 2142TIP3    H1 6432   2.085   5.824   1.068 -0.5681 -1.3725  0.6127
 2142TIP3    H2 6433   2.144   5.853   0.931  0.4030  0.1621  1.3314
 2143TIP3   OH2 6434   0.982   0.074   4.684 -0.4455 -0.4953 -0.0210
 2143TIP3    H1 6435   0.911   0.081   4.747 -0.6126  2.1201 -0.4220
 2143TIP3    H2 6436   0.957  -0.001   4.629 -2.0777 -0.6015  0.8071
 2144TIP3   OH2 6437   0.212   3.265   4.195 -0.5259 -0.3749 -0.0302
 2144TIP3    H1 6438   0.167   3.195   4.147 -0.7471 -0.3531  0.1454
 2144TIP3    H2 6439   0.183   3.345   4.151  0.5598 -0.4451 -0.9260
 2145TIP3   OH2 6440   5.220   4.148   3.520 -1.1204 -0.1370 -0.2624
 2145TIP3    H1 6441   5.294   4.108   3.566 -1.4191  0.2537  0.5652
 2145TIP3    H2 6442   5.225   4.241   3.541 -2.4003 -0.2418  0.6103
 2146TIP3   OH2 6443   5.270   4.715   1.746 -0.3322 -0.0943  0.0326
 2146TIP3    H1 6444   5.342   4.746   1.692 -0.4185  1.1373  0.5809
 2146TIP3    H2 6445   5.255   4.786   1.809 -0.9499 -1.0202  0.9616
 2147TIP3   OH2 6446   1.634   2.211   4.188  0.3627 -0.3209  0.9144
 2147TIP3    H1 6447   1.647   2.124   4.149 -0.2128  0.6632 -1.6374
 2147TIP3    H2 6448   1.705   2.264   4.154 -0.0627  0.5647  1.3720
 2148TIP3   OH2 6449   5.822   5.032   4.265 -0.6089 -0.2010  0.0181
 2148TIP3    H1 6450   5.901   5.075   4.233  0.3474 -1.3689  0.7223
 2148TIP3    H2 6451   5.830   4.941   4.234 -0.6919 -0.8212  1.7426
 2149TIP3   OH2 6452   4.023   4.126   4.023  0.2149  0.4819  0.7064
 2149TIP3    H1 6453   3.981   4.150   4.105 -3.1139 -1.7332 -0.1691
 2149TIP3    H2 6454   4.108   4.090   4.048 -0.3337  0.7060  3.0495
 2150TIP3   OH2 6455   6.269   1.288   2.606  0.5202  0.5592  0.0431
 2150TIP3    H1 6456   6.257   1.271   2.700  0.9933  1.5447  0.2957
 2150TIP3    H2 6457   6.364   1.296   2.595  0.5211 -0.2649 -0.6633
 2151TIP3   OH2 6458   2.097   0.771   0.521 -0.4635  0.3521 -0.3467
 2151TIP3    H1 6459   2.131   0.753   0.609 -1.3581  1.6368  0.2882
 2151TIP3    H2 6460   2.007   0.737   0.523  0.2233 -1.7486 -1.5597
 2152TIP3   OH2 6461   2.816   1.148   2.543 -0.0250 -0.0430 -0.4888
 2152TIP3    H1 6462   2.887   1.189   2.493  1.3899 -2.0560 -0.2184
 2152TIP3    H2 6463   2.769   1.096   2.478 -0.6747  0.5031 -0.4673
 2153TIP3   OH2 6464   4.299   4.360   1.434  0.2362  0.0187  0.5845
 2153TIP3    H1 6465   4.307   4.298   1.362  0.1931 -0.4964  1.0193
 2153TIP3    H2 6466   4.388   4.395   1.446  0.2364  0.1263  0.2651
 2154TIP3   OH2 6467   5.810   1.682   1.365 -0.0470  0.7257 -0.7870
 2154TIP3    H1 6468   5.846   1.740   1.432 -1.0709  0.5412 -0.0572
 2154TIP3    H2 6469   5.823   1.729   1.283 -0.6587  1.8904 -0.2352
 2155TIP3   OH2 6470   5.351   1.745   3.795 -0.2960 -0.1465 -0.4296
 2155TIP3    H1 6471   5.341   1.708   3.708  0.0422 -1.5325  0.0876
 2155TIP3    H2 6472   5.370   1.670   3.851 -0.9085  0.6506  0.9085
 2156TIP3   OH2 6473   4.077   4.713   4.022  0.1114  0.6353 -0.4961
 2156TIP3    H1 6474   4.105   4.639   4.074  0.4159 -1.0542 -2.9013
 2156TIP3    H2 6475   4.117   4.789   4.064 -0.2403 -0.5042  2.0576
 2157TIP3   OH2 6476   0.343   0.823   3.210 -0.1609 -0.3657  0.0962
 2157TIP3    H1 6477   0.320   0.797   3.299  0.8012  0.6950  0.6796
 2157TIP3    H2 6478   0.400   0.753   3.179  0.5529 -0.1124  0.8017
 2158TIP3   OH2 6479   1.978   0.969   1.984 -0.1558 -0.2386  0.0134
 2158TIP3    H1 6480   1.991   0.876   1.968 -2.1614 -0.6645  0.4978
 2158TIP3    H2 6481   1.941   1.003   1.903 -2.7654 -0.6980  0.8864
 2159TIP3   OH2 6482   4.073   5.108   0.540  0.3113 -0.5556  0.6068
 2159TIP3    H1 6483   4.137   5.088   0.609  1.7245 -1.3638 -0.8679
 2159TIP3    H2 6484   4.110   5.183   0.493 -0.9427  0.3882  1.0610
 2160TIP3   OH2 6485   5.134   0.313   3.342 -0.1990  0.5807 -0.3995
 2160TIP3    H1 6486   5.207   0.260   3.311 -1.3320 -0.7765 -0.8614
 2160TIP3    H2 6487   5.126   0.291   3.435  0.4304  1.3088 -0.1608
 2161TIP3   OH2 6488   2.119   0.120   0.527  0.4646  0.3040  1.2347
 2161TIP3    H1 6489   2.162   0.052   0.475 -0.6953  0.1384  0.4663
 2161TIP3    H2 6490   2.167   0.200   0.505  0.3816  0.1264  0.3867
 2162TIP3   OH2 6491   5.290   4.887   2.177 -0.3273 -0.0226  0.1287
 2162TIP3    H1 6492   5.251   4.903   2.263 -0.7551  0.2266 -0.1124
 2162TIP3    H2 6493   5.256   4.801   2.151 -0.3793  0.0073  0.1006
 2163TIP3   OH2 6494   2.154   0.908   3.662 -0.7622 -0.0693  0.6264
 2163TIP3    H1 6495   2.222   0.974   3.650  0.2565 -1.2210 -0.0748
 2163TIP3    H2 6496   2.200   0.825   3.659 -1.5650 -0.8216  4.4591
 2164TIP3   OH2 6497   5.415   3.379   4.564  0.2248 -0.0767  0.7614
 2164TIP3    H1 6498   5.339   3.418   4.606 -1.7985 -1.9130 -0.9478
 2164TIP3    H2 6499   5.472   3.353   4.636 -1.8587 -0.7235  2.2723
 2165TIP3   OH2 6500   4.597   2.802   2.367 -0.4063 -0.1281  0.1958
 2165TIP3    H1 6501   4.605   2.750   2.448 -1.9253  0.3458  0.6810
 2165TIP3    H2 6502   4.676   2.781   2.318  2.0534  1.7212  3.0088
 2166TIP3   OH2 6503   5.187   0.638   3.988 -0.4254 -0.3346 -0.3644
 2166TIP3    H1 6504   5.140   0.659   3.907  0.1370  4.3580  0.2185
 2166TIP3    H2 6505   5.121   0.648   4.057 -0.3493 -1.9408 -0.0201
 2167TIP3   OH2 6506   2.849   2.334   3.552  0.1466 -0.3681  0.0084
 2167TIP3    H1 6507   2.777   2.318   3.613  0.6294 -0.1260  0.6576
 2167TIP3    H2 6508   2.843   2.427   3.531  1.1850  0.0329  1.3044
 2168TIP3   OH2 6509   4.217   3.794   0.493  0.4532  0.4517 -0.3212
 2168TIP3    H1 6510   4.179   3.793   0.405  0.2573  1.6068 -0.2655
 2168TIP3    H2 6511   4.307   3.822   0.480  0.6496 -0.1405 -0.2324
 2169TIP3   OH2 6512   1.958   4.643   1.146  0.3697 -0.1113  0.6263
 2169TIP3    H1 6513   2.019   4.695   1.094  0.7153 -2.2291 -1.2161
 2169TIP3    H2 6514   2.013   4.585   1.199  0.0159 -1.5211 -0.4987
 2170TIP3   OH2 6515   4.715   2.054   1.362  0.3856 -0.0650  0.2121
 2170TIP3    H1 6516   4.801   2.019   1.385  0.1187 -0.0885  1.2041
 2170TIP3    H2 6517   4.724   2.149   1.377  0.7982  0.2029 -1.4998
 2171TIP3   OH2 6518   3.088   0.973   0.342  0.1403 -0.2166  0.0950
 2171TIP3    H1 6519   3.049   1.043   0.394  0.4752  0.5290 -0.6390
 2171TIP3    H2 6520   3.023   0.955   0.274  1.4174  1.7573 -1.7756
 2172TIP3   OH2 6521   5.617   4.129   1.471  0.2631 -0.2613  0.6447
 2172TIP3    H1 6522   5.653   4.185   1.540  2.1603  1.0267 -1.2817
 2172TIP3    H2 6523   5.664   4.046   1.481  1.1429  0.1991  0.4042
 2173TIP3   OH2 6524   1.635   3.865   2.166 -0.3788 -0.4107  0.0932
 2173TIP3    H1 6525   1.624   3.819   2.249 -2.1111  1.1867  0.8205
 2173TIP3    H2 6526   1.648   3.957   2.191  0.4366 -0.0825 -1.3791
 2174TIP3   OH2 6527   4.317   0.835   0.442  0.3950  0.0107 -0.0422
 2174TIP3    H1 6528   4.355   0.918   0.412  2.1858 -0.5781  0.5076
 2174TIP3    H2 6529   4.369   0.811   0.518 -1.1200 -0.8565  0.7673
 2175TIP3   OH2 6530   1.798   3.744   1.872  0.3980  0.6925 -0.2438
 2175TIP3    H1 6531   1.845   3.685   1.931  1.0989  0.6429 -0.8435
 2175TIP3    H2 6532   1.827   3.719   1.784 -0.7847  0.6306 -0.6416
 2176TIP3   OH2 6533   2.294   5.599   0.377 -0.0564 -0.0934  0.1102
 2176TIP3    H1 6534   2.360   5.540   0.414  0.8852  0.0501 -1.2703
 2176TIP3    H2 6535   2.281   5.666   0.444 -0.7623 -1.5395  1.4937
 2177TIP3   OH2 6536   4.554   4.222   2.884 -0.4114  0.4409  0.0343
 2177TIP3    H1 6537   4.479   4.187   2.836 -1.5872  0.0899  2.0440
 2177TIP3    H2 6538   4.530   4.313   2.903  0.2321  0.7035 -0.3607
 2178TIP3   OH2 6539   6.323   3.737   4.647  0.2076 -0.3981 -0.3645
 2178TIP3    H1 6540   6.266   3.670   4.683 -0.2207  1.2219  2.2099
 2178TIP3    H2 6541   6.409   3.720   4.686  0.2284  0.1969 -0.1354
 2179TIP3   OH2 6542   3.568   3.146   3.593 -0.3132 -0.4781  0.0012
 2179TIP3    H1 6543   3.613   3.071   3.556 -0.4901  0.0540 -1.3458
 2179TIP3    H2 6544   3.560   3.126   3.686  3.4323 -0.2607  0.5242
 2180TIP3   OH2 6545   4.248   0.492   2.476  0.3351 -0.0296 -0.0088
 2180TIP3    H1 6546   4.309   0.507   2.549 -0.4740  0.6024  0.5505
 2180TIP3    H2 6547   4.215   0.579   2.455  0.0777 -0.2959 -0.7157
 2181TIP3   OH2 6548   0.585   4.481   4.349  0.1538  0.4378  0.5832
 2181TIP3    H1 6549   0.670   4.513   4.318 -0.0522 -0.3528 -0.8587
 2181TIP3    H2 6550   0.580   4.391   4.316 -1.1102  0.3696  0.9318
 2182TIP3   OH2 6551   0.735   0.287   0.649 -0.4446  0.3677 -0.2304
 2182TIP3    H1 6552   0.674   0.319   0.582  0.2670  0.3366 -0.9058
 2182TIP3    H2 6553   0.775   0.210   0.609  0.2307  0.5435  0.0994
 2183TIP3   OH2 6554   4.037   2.942   2.839  0.8298 -0.1181 -0.1064
 2183TIP3    H1 6555   3.973   2.961   2.907  0.1970  0.2349 -0.7872
 2183TIP3    H2 6556   4.024   3.011   2.774  0.5767 -1.1369 -1.1707
 2184TIP3   OH2 6557   2.312   3.989   0.416 -0.3168 -0.5492 -0.3045
 2184TIP3    H1 6558   2.359   3.950   0.342  0.3851 -0.8319  0.2804
 2184TIP3    H2 6559   2.280   3.914   0.466  0.1813 -0.3718  0.2854
 2185TIP3   OH2 6560   0.537   3.076   1.433 -0.4179 -0.1885 -0.0941
 2185TIP3    H1 6561   0.543   3.169   1.412 -0.5881 -0.0058  0.6494
 2185TIP3    H2 6562   0.466   3.070   1.496  0.8849 -0.5326  1.4070
 2186TIP3   OH2 6563   5.842   5.975   1.907 -0.2262 -0.4974  0.2654
 2186TIP3    H1 6564   5.794   5.965   1.825  1.4943 -1.0920 -0.7261
 2186TIP3    H2 6565   5.840   5.889   1.947  0.8582 -0.8098 -0.3047
 2187TIP3   OH2 6566   0.304   0.728   5.129  0.2701  0.0314 -0.1482
 2187TIP3    H1 6567   0.236   0.708   5.193  0.9382 -0.0746  0.5411
 2187TIP3    H2 6568   0.286   0.669   5.056 -0.9758  0.7157 -0.4108
 2188TIP3   OH2 6569   4.443   5.078   0.445  0.1960  0.1821  0.2224
 2188TIP3    H1 6570   4.537   5.094   0.458  1.3169 -2.7333 -2.7536
 2188TIP3    H2 6571   4.423   5.122   0.362 -0.3900 -1.2372 -0.4165
 2189TIP3   OH2 6572   4.166   5.153   1.042  0.4881  0.1372 -0.1960
 2189TIP3    H1 6573   4.261   5.159   1.037  0.3817  2.1577 -0.8313
 2189TIP3    H2 6574   4.146   5.169   1.134  0.7762 -0.6524  0.0054
 2190TIP3   OH2 6575   0.479   4.481   1.965  0.1690  0.7266 -0.2834
 2190TIP3    H1 6576   0.535   4.464   2.040 -0.5460 -1.4332 -0.1702
 2190TIP3    H2 6577   0.538   4.479   1.890  0.6954  1.6862  0.0840
 2191TIP3   OH2 6578   3.770   0.701   4.424 -0.3405  0.1601 -0.2370
 2191TIP3    H1 6579   3.698   0.764   4.424 -1.0220 -0.5729  1.2315
 2191TIP3    H2 6580   3.828   0.732   4.494 -0.9507 -1.0905  0.8651
 2192TIP3   OH2 6581   5.842   5.475   0.542 -0.0082 -0.4365  0.0805
 2192TIP3    H1 6582   5.838   5.476   0.638 -2.1305  0.8518  0.0314
 2192TIP3    H2 6583   5.851   5.567   0.518 -0.6308 -0.6459 -0.9844
 2193TIP3   OH2 6584   2.001   2.051   3.866  0.1052  0.4322  0.0675
 2193TIP3    H1 6585   1.968   2.112   3.801 -0.5163  0.0207 -0.0146
 2193TIP3    H2 6586   2.042   2.106   3.933  1.7722  0.8083 -1.2132
 2194TIP3   OH2 6587   5.006   3.116   4.618 -0.7194  0.0232  0.3085
 2194TIP3    H1 6588   5.002   3.020   4.618  0.9183 -0.1026 -1.3943
 2194TIP3    H2 6589   4.925   3.143   4.660 -1.8139 -2.1011 -0.2750
 2195TIP3   OH2 6590   2.682   1.266   0.468  0.0603 -0.4124 -0.2813
 2195TIP3    H1 6591   2.621   1.207   0.424  0.1860 -0.5123 -0.3231
 2195TIP3    H2 6592   2.759   1.268   0.411 -0.2352  0.3906 -0.6568
 2196TIP3   OH2 6593   0.260   4.890   3.346  0.0651  0.4181  0.2551
 2196TIP3    H1 6594   0.197   4.903   3.275 -0.7927 -1.3881  0.6225
 2196TIP3    H2 6595   0.215   4.922   3.424 -0.6229 -1.2127  0.5797
 2197TIP3   OH2 6596   0.433   3.752   4.404  0.1575 -0.3378  0.7163
 2197TIP3    H1 6597   0.446   3.827   4.345  3.2107 -0.5060  1.0579
 2197TIP3    H2 6598   0.412   3.791   4.489 -0.9647 -0.0162  0.3208
 2198TIP3   OH2 6599   1.924   1.967   0.247 -0.7620  0.1936  0.4948
 2198TIP3    H1 6600   1.869   2.045   0.255 -0.3572  0.4556  0.8505
 2198TIP3    H2 6601   1.981   1.986   0.172 -1.5366 -0.3269 -0.2387
 2199TIP3   OH2 6602   2.242   5.564   4.187 -0.3039  0.3896  0.1593
 2199TIP3    H1 6603   2.214   5.523   4.105 -0.3240  1.1257 -0.2073
 2199TIP3    H2 6604   2.203   5.651   4.185  0.7889  0.8988  0.3279
 2200TIP3   OH2 6605   0.364   0.052   0.449 -0.5693 -0.3318 -0.7782
 2200TIP3    H1 6606   0.441  -0.004   0.458  0.0172  0.8455  3.3301
 2200TIP3    H2 6607   0.297   0.010   0.503 -0.6348  1.9194  1.0224
 2201TIP3   OH2 6608   2.477   5.859   0.014 -0.3054 -0.0759  0.2915
 2201TIP3    H1 6609   2.430   5.939   0.039  0.0499  0.1859  0.1304
 2201TIP3    H2 6610   2.466   5.800   0.089 -0.6552  0.0868  0.3672
 2202TIP3   OH2 6611   3.361   3.087   5.128 -0.5211  0.3641  0.0651
 2202TIP3    H1 6612   3.339   3.004   5.086  0.0952  0.6437 -0.8230
 2202TIP3    H2 6613   3.450   3.106   5.100 -0.3403  0.8981  0.9591
 2203TIP3   OH2 6614   3.784   1.415   2.408 -0.4775  0.7627 -0.3802
 2203TIP3    H1 6615   3.828   1.462   2.337 -2.5007  1.5402 -1.1919
 2203TIP3    H2 6616   3.692   1.415   2.384 -0.8789 -1.5233  0.8381
 2204TIP3   OH2 6617   1.647   3.530   4.620  0.3977  0.2965 -0.1131
 2204TIP3    H1 6618   1.658   3.470   4.546  1.4868 -0.3416  0.5343
 2204TIP3    H2 6619   1.676   3.615   4.586  2.3976 -0.2884 -0.0399
 2205TIP3   OH2 6620   1.663   3.060   5.001 -0.1167 -0.4136  0.6491
 2205TIP3    H1 6621   1.713   3.047   5.081  2.6746  1.1056 -0.6971
 2205TIP3    H2 6622   1.709   3.007   4.936 -1.4486 -0.4720 -0.2795
 2206TIP3   OH2 6623   4.314   5.950   1.433 -0.2156  0.1087  0.0103
 2206TIP3    H1 6624   4.221   5.926   1.424  0.0182 -0.4176 -1.1683
 2206TIP3    H2 6625   4.360   5.867   1.430  0.2874  0.3434  0.9615
 2207TIP3   OH2 6626   0.729   3.924   0.919 -0.1565 -0.7051  0.2225
 2207TIP3    H1 6627   0.750   3.831   0.927  3.3009 -0.2703 -2.0663
 2207TIP3    H2 6628   0.680   3.931   0.837  0.8989 -0.3597 -0.3870
 2208TIP3   OH2 6629   6.359   4.548   4.512  0.7523  0.5255  0.6707
 2208TIP3    H1 6630   6.299   4.618   4.539 -0.4744 -0.4159  0.4568
 2208TIP3    H2 6631   6.352   4.546   4.417  1.0185  0.3115  0.6553
 2209TIP3   OH2 6632   1.896   5.490   0.416  0.3189  0.6782  0.0942
 2209TIP3    H1 6633   1.931   5.440   0.490 -1.1468  1.3405  1.2825
 2209TIP3    H2 6634   1.973   5.533   0.378  1.1946 -0.1992  0.8033
 2210TIP3   OH2 6635   6.113   3.632   4.348  0.1661 -0.1484 -0.1258
 2210TIP3    H1 6636   6.082   3.663   4.433  1.3381  1.8526 -0.3785
 2210TIP3    H2 6637   6.042   3.652   4.287 -0.0429 -0.1758  0.1068
 2211TIP3   OH2 6638   5.111   1.494   4.943 -0.2443 -0.7409  0.5391
 2211TIP3    H1 6639   5.144   1.571   4.989 -0.0992 -1.3220  1.4163
 2211TIP3    H2 6640   5.100   1.428   5.011 -0.4587 -1.4682 -0.1912
 2212TIP3   OH2 6641   4.820   0.496   1.841  0.2070 -0.2938 -0.1562
 2212TIP3    H1 6642   4.769   0.485   1.921  1.2204  1.1992  0.7604
 2212TIP3    H2 6643   4.910   0.476   1.867  0.5515  0.2366 -0.9006
 2213TIP3   OH2 6644   3.247   5.324   1.630 -0.0836  0.1056 -0.3865
 2213TIP3    H1 6645   3.245   5.229   1.614  1.2545  0.4539 -3.2693
 2213TIP3    H2 6646   3.303   5.358   1.560 -1.7622  3.2063 -0.3562
 2214TIP3   OH2 6647   2.735   2.220   4.035 -0.3893 -0.0555 -0.4108
 2214TIP3    H1 6648   2.719   2.281   4.107  0.7757  0.0911 -0.2513
 2214TIP3    H2 6649   2.767   2.140   4.079 -1.3398 -0.5780 -0.6540
 2215TIP3   OH2 6650   2.019   3.358   3.761 -0.0675  0.0187  0.6839
 2215TIP3    H1 6651   2.027   3.270   3.798 -1.6646 -0.3467  0.2683
 2215TIP3    H2 6652   1.950   3.400   3.813 -0.6641  0.3341 -0.3333
 2216TIP3   OH2 6653   5.167   3.749   1.467  0.0551  0.5322  0.7128
 2216TIP3    H1 6654   5.162   3.671   1.523  0.5443 -0.3233 -0.3823
 2216TIP3    H2 6655   5.087   3.745   1.414  0.6744  0.0536 -0.2170
 2217TIP3   OH2 6656   1.464   5.860   1.663 -0.4041  0.1107  0.6352
 2217TIP3    H1 6657   1.409   5.934   1.638 -0.6291  0.3793  1.8822
 2217TIP3    H2 6658   1.433   5.788   1.608 -0.0544  0.9599 -0.7347
 2218TIP3   OH2 6659   2.766   1.555   0.276 -0.0350  0.0255  0.2441
 2218TIP3    H1 6660   2.815   1.635   0.293 -1.1217  0.7374  0.0866
 2218TIP3    H2 6661   2.810   1.516   0.200 -0.5389  1.3785 -0.7827
 2219TIP3   OH2 6662   1.397   2.302   3.693 -0.6377 -0.3936  0.0775
 2219TIP3    H1 6663   1.408   2.340   3.780  0.3366 -0.4937  0.0036
 2219TIP3    H2 6664   1.349   2.369   3.644  0.6043  0.5433  0.0966
 2220TIP3   OH2 6665   2.229   0.505   4.101 -0.4971  0.7646  0.1946
 2220TIP3    H1 6666   2.295   0.442   4.071 -0.6859  0.9836 -0.7023
 2220TIP3    H2 6667   2.247   0.515   4.195 -0.2159 -0.3201  0.2780
 2221TIP3   OH2 6668   4.483   3.167   4.421 -0.0155  0.1570  0.2714
 2221TIP3    H1 6669   4.539   3.207   4.354 -0.1439 -0.4223 -0.1949
 2221TIP3    H2 6670   4.405   3.139   4.373  0.3755 -1.2846  0.4176
 2222TIP3   OH2 6671   4.225   0.760   4.541  0.0663 -0.2466  0.6409
 2222TIP3    H1 6672   4.142   0.728   4.574  0.2644 -1.5874 -0.0686
 2222TIP3    H2 6673   4.282   0.683   4.542  0.3311 -0.1696 -1.9012
 2223TIP3   OH2 6674   4.354   1.347   3.233  0.3438 -0.1008  0.3854
 2223TIP3    H1 6675   4.313   1.413   3.178 -0.1428  0.2371  1.1439
 2223TIP3    H2 6676   4.387   1.395   3.309  0.8231 -0.5873  0.4953
 2224TIP3   OH2 6677   6.076   1.486   2.906  0.2123 -0.2156 -0.2313
 2224TIP3    H1 6678   6.156   1.489   2.958  0.1805 -1.7492 -0.0310
 2224TIP3    H2 6679   6.105   1.468   2.817  0.1336  0.0134 -0.3040
 2225TIP3   OH2 6680   3.411   3.547   0.342 -0.0538 -0.5927  0.3475
 2225TIP3    H1 6681   3.373   3.461   0.326  1.8896 -1.6525  1.1577
 2225TIP3    H2 6682   3.441   3.575   0.255 -0.3107 -0.8956  0.1549
 2226TIP3   OH2 6683   4.924   3.342   0.918  0.0819  0.3081  0.5663
 2226TIP3    H1 6684   4.859   3.347   0.848  0.1436  1.1672  0.5591
 2226TIP3    H2 6685   4.880   3.294   0.989 -0.9298  1.7226  0.9456
 2227TIP3   OH2 6686   6.363   2.485   4.312  0.2928  0.1747  0.4116
 2227TIP3    H1 6687   6.359   2.580   4.308  2.6933  0.3085 -0.9999
 2227TIP3    H2 6688   6.359   2.464   4.405  1.2828  1.7797  0.8428
 2228TIP3   OH2 6689   6.285   0.897   0.308  0.5270  0.3049 -0.1478
 2228TIP3    H1 6690   6.235   0.819   0.331 -0.6791  1.2263  0.4488
 2228TIP3    H2 6691   6.356   0.899   0.373 -0.3016  0.4990  0.7663
 2229TIP3   OH2 6692   2.610   2.128   4.364 -0.3919 -0.0536  0.9207
 2229TIP3    H1 6693   2.618   2.127   4.459  0.3616 -0.6073  0.8538
 2229TIP3    H2 6694   2.676   2.066   4.333  0.2365  1.0528 -0.0312
 2230TIP3   OH2 6695   0.503   4.996   3.719 -0.1034 -0.2732  0.4919
 2230TIP3    H1 6696   0.444   4.964   3.787 -1.1747 -1.8708 -1.1026
 2230TIP3    H2 6697   0.477   5.087   3.706  0.3755  0.2039  2.4008
 2231TIP3   OH2 6698   5.890   2.197   2.733 -0.4851  0.0751  0.2975
 2231TIP3    H1 6699   5.864   2.276   2.686 -0.4907  0.9064  1.6419
 2231TIP3    H2 6700   5.979   2.180   2.703 -0.1914  1.0548  0.5603
 2232TIP3   OH2 6701   2.680   5.250   3.332 -0.5101  0.8727 -0.0317
 2232TIP3    H1 6702   2.625   5.210   3.265 -1.9785  1.0870  1.0132
 2232TIP3    H2 6703   2.718   5.326   3.290 -1.6868  1.1963 -0.5392
 2233TIP3   OH2 6704   1.181   0.358   4.205 -0.1734  0.2204  0.1070
 2233TIP3    H1 6705   1.104   0.349   4.261  0.1214 -1.2685  0.3139
 2233TIP3    H2 6706   1.146   0.388   4.121 -0.6185  2.5622  1.0245
 2234TIP3   OH2 6707   1.685   1.349   1.703  0.3487 -0.6470 -0.1744
 2234TIP3    H1 6708   1.753   1.315   1.645  0.6970 -1.5822  0.7432
 2234TIP3    H2 6709   1.680   1.285   1.774  0.9315  1.1672  1.5787
 2235TIP3   OH2 6710   1.567   1.990   1.022  0.1009 -0.5164 -0.1859
 2235TIP3    H1 6711   1.593   2.007   0.932  0.2047  0.6905  0.0510
 2235TIP3    H2 6712   1.540   2.076   1.056 -0.7678 -1.1006  0.6680
 2236TIP3   OH2 6713   1.668   2.533   3.838  0.2751 -0.0944 -0.1725
 2236TIP3    H1 6714   1.756   2.571   3.828  0.4824 -0.5225 -0.0093
 2236TIP3    H2 6715   1.608   2.606   3.820  0.6613  0.1465 -0.5076
 2237TIP3   OH2 6716   3.486   1.372   4.806 -0.2056  0.6519 -0.2314
 2237TIP3    H1 6717   3.407   1.405   4.849 -1.0161 -1.2322 -0.1412
 2237TIP3    H2 6718   3.550   1.365   4.877 -1.2684 -1.6188  0.6346
 2238TIP3   OH2 6719   5.954   1.236   3.684 -0.5124  0.3870  0.3051
 2238TIP3    H1 6720   5.957   1.195   3.598  1.6430 -0.0456  0.5212
 2238TIP3    H2 6721   5.870   1.208   3.721 -0.6716 -0.9188 -0.9574
 2239TIP3   OH2 6722   3.710   5.467   4.694 -0.3084 -0.1533 -0.1363
 2239TIP3    H1 6723   3.628   5.501   4.660  0.1400  0.8161 -0.3030
 2239TIP3    H2 6724   3.744   5.410   4.625 -0.6288 -0.2125 -0.2458
 2240TIP3   OH2 6725   0.959   4.521   2.253  0.0512 -0.2603 -0.4233
 2240TIP3    H1 6726   1.033   4.470   2.284  0.8692  1.4204  0.5206
 2240TIP3    H2 6727   0.996   4.582   2.189 -0.0796  1.9765  1.5258
 2241TIP3   OH2 6728   2.054   5.241   0.404 -0.1173  0.2996 -0.8097
 2241TIP3    H1 6729   2.101   5.158   0.398  0.1433  0.4127 -0.4002
 2241TIP3    H2 6730   1.969   5.218   0.443  0.8643  0.5249  1.6829
 2242TIP3   OH2 6731   0.520   5.069   4.639 -0.3034 -0.0477  0.4569
 2242TIP3    H1 6732   0.479   5.150   4.669 -1.5282 -0.3976 -0.2021
 2242TIP3    H2 6733   0.458   5.001   4.663  0.4449 -0.7358  0.4808
 2243TIP3   OH2 6734   3.723   0.505   3.603 -0.6779 -0.1077  0.5469
 2243TIP3    H1 6735   3.647   0.458   3.569 -0.9803  1.0839 -0.4991
 2243TIP3    H2 6736   3.686   0.584   3.643 -0.2338 -0.9460  2.7656
 2244TIP3   OH2 6737   5.306   4.938   1.894 -0.3842 -0.3775  0.2287
 2244TIP3    H1 6738   5.369   5.008   1.878 -0.3597 -0.2028  1.0231
 2244TIP3    H2 6739   5.290   4.943   1.989  0.1665 -1.9065  0.4237
 2245TIP3   OH2 6740   4.939   5.321   2.935  0.5113 -0.3147 -0.0477
 2245TIP3    H1 6741   4.857   5.331   2.887  1.0830  0.1472 -0.9745
 2245TIP3    H2 6742   4.994   5.393   2.903  0.8083  0.1884  1.5483
 2246TIP3   OH2 6743   1.380   3.167   1.536  0.2449  0.0243  0.1663
 2246TIP3    H1 6744   1.284   3.156   1.536  0.2672 -0.2845 -0.7279
 2246TIP3    H2 6745   1.411   3.110   1.605 -0.1658 -0.4837 -0.0590
 2247TIP3   OH2 6746   5.345   0.453   2.314 -0.6610  0.0736 -0.2479
 2247TIP3    H1 6747   5.269   0.454   2.256 -0.5155 -1.7371 -0.5093
 2247TIP3    H2 6748   5.353   0.362   2.343  0.1823  0.6313  1.4148
 2248TIP3   OH2 6749   3.133   3.365   3.701  0.1726 -0.5450  0.3120
 2248TIP3    H1 6750   3.220   3.405   3.703 -0.0463 -0.0904  0.7635
 2248TIP3    H2 6751   3.125   3.331   3.611  0.2337  0.7116 -0.1854
 2249TIP3   OH2 6752   3.764   4.812   4.558 -0.1768 -0.1535 -0.5654
 2249TIP3    H1 6753   3.751   4.718   4.544 -1.6751 -0.4306  2.0705
 2249TIP3    H2 6754   3.704   4.853   4.495 -1.5863 -1.0840  0.1130
 2250TIP3   OH2 6755   0.017   1.426   3.864  0.6757  0.3448 -0.2646
 2250TIP3    H1 6756   0.024   1.382   3.948 -1.8497  0.7392  0.2390
 2250TIP3    H2 6757   0.073   1.503   3.872 -1.4100  1.7800  2.1044
 2251TIP3   OH2 6758   1.247   0.054   0.616 -0.4308  0.2872  0.2713
 2251TIP3    H1 6759   1.179   0.070   0.681  0.4474 -0.0036  1.2752
 2251TIP3    H2 6760   1.306   0.129   0.624  0.8856 -0.8304  1.3787
 2252TIP3   OH2 6761   4.883   2.398   0.258  0.5460  0.3994 -0.4452
 2252TIP3    H1 6762   4.935   2.332   0.303  0.5504  1.9299  1.9356
 2252TIP3    H2 6763   4.885   2.475   0.315 -1.3176  1.7408 -2.0170
 2253TIP3   OH2 6764   2.686   1.936   3.672  0.0169 -0.1307  0.2302
 2253TIP3    H1 6765   2.761   1.939   3.732 -0.3266  0.8411  0.6284
 2253TIP3    H2 6766   2.724   1.955   3.586 -0.0368  2.5123  0.7254
 2254TIP3   OH2 6767   4.786   0.569   1.244  0.0885  0.5009 -0.0172
 2254TIP3    H1 6768   4.808   0.638   1.307  0.1173 -0.4587  1.0616
 2254TIP3    H2 6769   4.698   0.542   1.268 -0.1346  0.5289 -0.7851
 2255TIP3   OH2 6770   1.930   1.123   1.725 -0.7154 -0.3917 -0.3395
 2255TIP3    H1 6771   2.024   1.141   1.727 -0.7597 -0.1834  0.4036
 2255TIP3    H2 6772   1.908   1.117   1.632 -0.1923  0.7927 -0.5591
 2256TIP3   OH2 6773   2.696   4.644   0.576  0.2232 -0.0456  0.8057
 2256TIP3    H1 6774   2.772   4.663   0.521  1.3998 -1.7304  1.7649
 2256TIP3    H2 6775   2.641   4.587   0.521 -0.7261  1.6958 -0.1299
 2257TIP3   OH2 6776   1.313   0.864   2.427  0.0727  0.6092 -0.0020
 2257TIP3    H1 6777   1.223   0.888   2.447 -0.0882 -0.0848  0.1203
 2257TIP3    H2 6778   1.353   0.945   2.394 -0.2860  1.1998  0.9765
 2258TIP3   OH2 6779   2.684   2.890   2.211 -0.3656  0.3342 -0.1088
 2258TIP3    H1 6780   2.597   2.855   2.190 -1.5532  3.4162 -0.7557
 2258TIP3    H2 6781   2.698   2.865   2.303 -1.9552 -0.1569  0.0303
 2259TIP3   OH2 6782   1.756   1.450   4.511  0.5069 -0.0735 -0.6076
 2259TIP3    H1 6783   1.826   1.479   4.452  1.7401  0.4204  1.0163
 2259TIP3    H2 6784   1.691   1.520   4.506  0.5905 -0.0401 -1.3825
 2260TIP3   OH2 6785   2.074   0.024   3.125  0.3012  0.0420 -0.0536
 2260TIP3    H1 6786   2.075   0.073   3.207 -1.3467 -1.0611  0.6938
 2260TIP3    H2 6787   2.108  -0.063   3.149  1.7421  0.2951 -1.0197
 2261TIP3   OH2 6788   2.523   2.499   4.882 -0.2532 -0.0402  0.4507
 2261TIP3    H1 6789   2.567   2.558   4.821  0.2693 -1.2139 -0.3511
 2261TIP3    H2 6790   2.547   2.531   4.969  0.9871  0.2266  0.0294
 2262TIP3   OH2 6791   2.060   5.773   2.841 -0.6528 -0.0972  0.3635
 2262TIP3    H1 6792   2.077   5.849   2.786  0.7251 -0.2872  0.4940
 2262TIP3    H2 6793   2.003   5.717   2.789  0.6113 -0.2680 -0.8831
 2263TIP3   OH2 6794   4.888   3.984   3.763  0.6624 -0.3088  0.2513
 2263TIP3    H1 6795   4.981   3.967   3.776  1.1751  1.0880 -1.2579
 2263TIP3    H2 6796   4.875   4.073   3.796  0.6747  0.8667 -2.6366
 2264TIP3   OH2 6797   5.442   5.411   4.449  0.4473 -0.4997  0.2392
 2264TIP3    H1 6798   5.471   5.367   4.529 -0.3029 -0.8115  0.3497
 2264TIP3    H2 6799   5.491   5.493   4.448  0.4668 -0.4882  1.0246
 2265TIP3   OH2 6800   3.504   4.387   1.744 -0.3827 -0.6756  0.3840
 2265TIP3    H1 6801   3.533   4.330   1.673  1.9395 -0.5161  1.1122
 2265TIP3    H2 6802   3.576   4.386   1.807 -0.7319  2.1043  0.9853
 2266TIP3   OH2 6803   0.801   4.727   2.381  0.3965 -0.1103  0.4041
 2266TIP3    H1 6804   0.714   4.687   2.385 -0.7803  2.2935  0.6222
 2266TIP3    H2 6805   0.857   4.659   2.342 -2.0580 -0.9725 -1.9286
 2267TIP3   OH2 6806   1.940   2.789   0.439 -0.6684  1.0959 -0.1891
 2267TIP3    H1 6807   1.866   2.814   0.385 -1.5535 -2.9439 -1.2411
 2267TIP3    H2 6808   1.900   2.743   0.513  0.7210  1.0809  0.5805
 2268TIP3   OH2 6809   3.937   5.201   0.905  0.2304 -0.1685 -0.4440
 2268TIP3    H1 6810   3.976   5.188   0.818 -1.0692  1.5487 -1.3495
 2268TIP3    H2 6811   4.011   5.203   0.965  1.4653  1.6628 -1.9257
 2269TIP3   OH2 6812   2.614   1.397   2.679  0.0816  0.1595 -0.5517
 2269TIP3    H1 6813   2.662   1.319   2.650 -0.1819  1.0161 -3.6549
 2269TIP3    H2 6814   2.529   1.362   2.709 -0.0428 -0.7820 -1.9031
 2270TIP3   OH2 6815   1.382   1.787   3.801 -0.7023 -0.4652  0.2139
 2270TIP3    H1 6816   1.363   1.845   3.727 -0.6262 -1.2643 -0.4407
 2270TIP3    H2 6817   1.427   1.843   3.864  4.6819 -0.9214 -2.6796
 2271TIP3   OH2 6818   3.871   5.239   4.566 -0.0519 -0.4370 -0.1009
 2271TIP3    H1 6819   3.816   5.167   4.598  0.3775 -0.8591 -0.2858
 2271TIP3    H2 6820   3.919   5.269   4.643  0.8872 -1.3672 -0.2920
 2272TIP3   OH2 6821   6.270   4.914   0.514  0.2978  0.1276 -0.0666
 2272TIP3    H1 6822   6.264   4.857   0.437 -0.0419  0.4463 -0.2848
 2272TIP3    H2 6823   6.222   4.993   0.488  0.4301  0.3545  0.3708
 2273TIP3   OH2 6824   0.087   4.576   2.101  0.0327  0.5351 -0.4672
 2273TIP3    H1 6825   0.009   4.537   2.063  1.9494 -1.9512 -2.2763
 2273TIP3    H2 6826   0.111   4.646   2.041  0.5302 -0.3901 -1.3952
 2274TIP3   OH2 6827   4.735   0.291   5.090  0.1593 -0.0251  0.0946
 2274TIP3    H1 6828   4.770   0.216   5.137  0.4403 -1.4784 -2.2756
 2274TIP3    H2 6829   4.644   0.269   5.074 -0.4429  1.2813  1.4537
 2275TIP3   OH2 6830   1.703   3.690   3.330 -0.1537  0.0303 -0.4010
 2275TIP3    H1 6831   1.709   3.710   3.423  2.9462 -0.9300 -0.2923
 2275TIP3    H2 6832   1.731   3.599   3.323 -0.5203  0.0142 -2.2707
 2276TIP3   OH2 6833   1.139   2.605   4.299  0.5764  0.2277 -0.4734
 2276TIP3    H1 6834   1.058   2.652   4.319  1.5108  2.1921 -1.0607
 2276TIP3    H2 6835   1.116   2.513   4.311 -1.8559  0.6747 -1.0038
 2277TIP3   OH2 6836   3.950   1.809   3.384  0.0865 -0.2364 -0.3271
 2277TIP3    H1 6837   3.950   1.853   3.469 -0.4457 -0.5087 -0.1785
 2277TIP3    H2 6838   3.882   1.742   3.392 -1.0909  0.7555 -1.4902
 2278TIP3   OH2 6839   2.547   5.807   1.575  0.1026 -0.1506  0.5654
 2278TIP3    H1 6840   2.536   5.815   1.480  1.2479  0.8167  0.4891
 2278TIP3    H2 6841   2.598   5.727   1.587 -0.8536 -0.7857  0.4397
 2279TIP3   OH2 6842   3.648   5.364   2.133 -0.2780 -0.1503  0.1738
 2279TIP3    H1 6843   3.687   5.338   2.217  1.8729 -0.7541 -0.9216
 2279TIP3    H2 6844   3.554   5.366   2.149 -0.0122 -1.4806  2.2685
 2280TIP3   OH2 6845   4.203   3.562   0.101  0.4621 -0.2026 -0.5767
 2280TIP3    H1 6846   4.185   3.641   0.050 -1.0743 -1.1192 -1.5430
 2280TIP3    H2 6847   4.258   3.592   0.173  0.9201  1.5234 -1.5779
 2281TIP3   OH2 6848   4.160   4.005   1.921  0.1915  0.0229 -0.3603
 2281TIP3    H1 6849   4.181   4.098   1.929  2.3597 -0.3671 -0.9804
 2281TIP3    H2 6850   4.122   3.981   2.006 -0.3974  1.4399 -0.1913
 2282TIP3   OH2 6851   4.969   2.110   1.454  0.1042 -0.5863  0.2219
 2282TIP3    H1 6852   5.059   2.137   1.435 -0.4080 -0.1862 -1.8804
 2282TIP3    H2 6853   4.965   2.105   1.550  2.1051  0.2315  0.3925
 2283TIP3   OH2 6854   0.592   3.821   2.064  0.0893 -0.3936 -0.3405
 2283TIP3    H1 6855   0.567   3.814   1.972 -0.9415  2.0173 -0.3257
 2283TIP3    H2 6856   0.515   3.790   2.112 -0.5805  1.1488 -0.3369
 2284TIP3   OH2 6857   3.537   3.148   1.676  0.1528 -0.4417  0.5180
 2284TIP3    H1 6858   3.543   3.058   1.644 -1.5949 -0.3775 -0.1000
 2284TIP3    H2 6859   3.504   3.139   1.765 -1.5314 -0.4145 -0.0552
 2285TIP3   OH2 6860   2.213   3.339   0.090 -0.3803 -0.8260 -0.6173
 2285TIP3    H1 6861   2.123   3.347   0.121  0.1625  0.2001  0.7731
 2285TIP3    H2 6862   2.217   3.251   0.052 -2.2338 -0.4957 -1.6827
 2286TIP3   OH2 6863   2.249   0.583   4.835 -0.7539 -0.1128 -0.1264
 2286TIP3    H1 6864   2.324   0.545   4.881 -0.5030  0.6747  0.1521
 2286TIP3    H2 6865   2.173   0.539   4.872 -0.4545 -0.5725 -0.0537
 2287TIP3   OH2 6866   5.149   2.803   1.307  0.0584  0.2241  0.0429
 2287TIP3    H1 6867   5.179   2.873   1.249  0.5188 -1.3594 -1.7560
 2287TIP3    H2 6868   5.091   2.751   1.252 -2.1149  0.4246  2.0062
 2288TIP3   OH2 6869   2.293   2.634   1.657  0.1303  0.3699  0.2288
 2288TIP3    H1 6870   2.339   2.612   1.738  1.8561  2.0008 -0.2461
 2288TIP3    H2 6871   2.289   2.551   1.609 -0.0062 -0.4008  1.5247
 2289TIP3   OH2 6872   0.577   2.569   0.810 -0.0599  0.4756 -0.1180
 2289TIP3    H1 6873   0.625   2.546   0.730  0.4854  2.1752 -0.3298
 2289TIP3    H2 6874   0.642   2.560   0.880 -0.3218 -0.2593  0.0364
 2290TIP3   OH2 6875   1.085   0.928   3.343  0.3243  0.0496  0.1950
 2290TIP3    H1 6876   1.124   0.850   3.302 -0.0948  0.0947 -0.2959
 2290TIP3    H2 6877   1.116   0.925   3.434 -1.6321 -2.0542  0.9040
 2291TIP3   OH2 6878   4.774   1.522   0.684  0.0333 -0.9411  0.2191
 2291TIP3    H1 6879   4.793   1.539   0.777 -1.1004 -0.2354  0.3383
 2291TIP3    H2 6880   4.852   1.552   0.638 -0.7627  2.0878  0.6520
 2292TIP3   OH2 6881   0.930   4.248   0.984  0.0601 -0.1628 -0.2946
 2292TIP3    H1 6882   0.950   4.181   0.919 -1.6364 -0.6088 -0.4231
 2292TIP3    H2 6883   1.014   4.285   1.009  0.9557 -1.7462 -0.8684
 2293TIP3   OH2 6884   5.548   4.374   3.164  0.1019  0.6297 -0.0377
 2293TIP3    H1 6885   5.500   4.455   3.146 -0.2061  0.6463  0.8468
 2293TIP3    H2 6886   5.521   4.315   3.093  0.3644  1.3007 -0.7172
 2294TIP3   OH2 6887   5.537   5.896   2.721 -0.1771 -0.0396 -0.1459
 2294TIP3    H1 6888   5.487   5.905   2.803 -0.2167  1.0366 -0.2650
 2294TIP3    H2 6889   5.615   5.848   2.745 -0.4125 -0.1397  0.4304
 2295TIP3   OH2 6890   0.023   4.133   4.961  0.5168  0.0236 -0.4632
 2295TIP3    H1 6891  -0.011   4.098   5.043 -2.1030  0.2472 -1.3719
 2295TIP3    H2 6892   0.042   4.225   4.980 -0.7564  0.2583 -0.2693
 2296TIP3   OH2 6893   3.355   0.391   0.008 -0.7143  0.2742 -0.0047
 2296TIP3    H1 6894   3.435   0.387   0.060 -0.7248 -1.8618 -0.0812
 2296TIP3    H2 6895   3.309   0.310   0.028 -3.0232  1.5682  0.2418
 2297TIP3   OH2 6896   1.313   1.455   4.019 -0.2233  0.3120  0.4510
 2297TIP3    H1 6897   1.261   1.375   4.009 -0.3086  0.5132 -0.8479
 2297TIP3    H2 6898   1.248   1.525   4.027 -0.2171  0.1301  3.6226
 2298TIP3   OH2 6899   0.021   3.628   2.318 -0.3583 -0.4289  0.3727
 2298TIP3    H1 6900   0.074   3.596   2.245  1.9255  2.0489  0.7834
 2298TIP3    H2 6901  -0.067   3.595   2.299  0.8074 -2.7930 -1.6019
 2299TIP3   OH2 6902   1.248   0.140   1.348  0.0878 -1.0442  0.3025
 2299TIP3    H1 6903   1.323   0.137   1.288  0.6271 -1.7946  0.9956
 2299TIP3    H2 6904   1.172   0.145   1.291  0.6825  0.9839 -0.4153
 2300TIP3   OH2 6905   6.157   5.968   2.932  0.6553  0.2241 -0.5385
 2300TIP3    H1 6906   6.068   5.950   2.959  0.5214  0.7269 -0.6323
 2300TIP3    H2 6907   6.195   6.018   3.004  0.7408  0.3432 -0.6650
 2301TIP3   OH2 6908   0.555   4.728   0.146  0.1271  0.0832 -0.4449
 2301TIP3    H1 6909   0.573   4.777   0.065  1.3374  0.5576  0.0938
 2301TIP3    H2 6910   0.477   4.770   0.182  0.1339  0.4855 -0.8801
 2302TIP3   OH2 6911   2.215   2.391   1.524 -0.5461  0.0395 -0.5090
 2302TIP3    H1 6912   2.159   2.322   1.488  0.8357 -0.3344 -2.0554
 2302TIP3    H2 6913   2.240   2.359   1.611 -0.0819 -1.3567 -1.1184
 2303TIP3   OH2 6914   4.539   4.048   2.355  0.0117  0.5781  0.8886
 2303TIP3    H1 6915   4.627   4.084   2.357  0.5877 -0.7318  0.2302
 2303TIP3    H2 6916   4.532   3.996   2.435  0.4091 -0.5376  0.2301
 2304TIP3   OH2 6917   1.403   4.331   3.046  0.3266  0.1387  0.1999
 2304TIP3    H1 6918   1.393   4.291   2.960 -0.9879 -2.3679  1.4204
 2304TIP3    H2 6919   1.469   4.277   3.090 -0.4555  0.1419  1.4199
 2305TIP3   OH2 6920   5.195   3.035   3.382 -0.3943 -0.2004  0.1351
 2305TIP3    H1 6921   5.220   2.995   3.464 -1.8514  0.8211  1.1362
 2305TIP3    H2 6922   5.277   3.058   3.339  0.3984  0.5197  1.9580
 2306TIP3   OH2 6923   3.766   6.005   1.281 -0.1616  0.2686  0.3148
 2306TIP3    H1 6924   3.725   5.942   1.222  0.5258 -0.6402  0.7895
 2306TIP3    H2 6925   3.739   5.978   1.369 -1.6865  1.9805  0.4382
 2307TIP3   OH2 6926   1.373   1.402   4.848 -0.1091 -0.7154 -0.2313
 2307TIP3    H1 6927   1.355   1.375   4.938  1.4970  2.1412  1.0875
 2307TIP3    H2 6928   1.362   1.497   4.848  3.3020 -0.1434 -2.0839
 2308TIP3   OH2 6929   0.593   3.970   0.669  0.1126  0.2207  0.2352
 2308TIP3    H1 6930   0.518   4.030   0.670 -0.0301  0.2804 -3.1043
 2308TIP3    H2 6931   0.555   3.883   0.662  0.3534  0.1293  0.0428
 2309TIP3   OH2 6932   2.053   5.217   2.647  0.9568  0.2161  0.1056
 2309TIP3    H1 6933   1.985   5.183   2.706  0.3777 -0.2570 -0.8134
 2309TIP3    H2 6934   2.050   5.312   2.660 -1.3651  0.4379 -1.4203
 2310TIP3   OH2 6935   6.213   2.996   1.884 -0.1708  0.0833 -0.1713
 2310TIP3    H1 6936   6.151   3.065   1.909 -2.0382 -1.2888 -0.7270
 2310TIP3    H2 6937   6.199   2.928   1.949  1.9346  0.3378  0.6031
 2311TIP3   OH2 6938   4.939   3.057   2.492  0.0502 -0.0567  0.0822
 2311TIP3    H1 6939   4.939   3.015   2.405  0.8971 -0.2890  0.1821
 2311TIP3    H2 6940   4.913   3.147   2.475  0.8587  0.0818 -0.5231
 2312TIP3   OH2 6941   0.374   4.856   1.779  0.3765  0.1116 -0.3119
 2312TIP3    H1 6942   0.444   4.874   1.717  0.4378  1.4914  0.1210
 2312TIP3    H2 6943   0.364   4.937   1.828  0.8631 -1.1382  2.0343
 2313TIP3   OH2 6944   0.635   5.903   4.833 -0.0643  0.3058 -0.0727
 2313TIP3    H1 6945   0.641   5.890   4.738  0.8599 -0.4574  0.0830
 2313TIP3    H2 6946   0.561   5.848   4.860 -0.9371  1.2461 -0.4593
 2314TIP3   OH2 6947   1.802   5.981   2.958  0.0513  0.3100 -0.3672
 2314TIP3    H1 6948   1.796   5.974   3.053  0.0006  1.4643 -0.2671
 2314TIP3    H2 6949   1.887   6.022   2.942 -0.3652  1.0353 -0.7545
 2315TIP3   OH2 6950   2.455   5.679   1.003  0.3424  0.1899  0.1648
 2315TIP3    H1 6951   2.471   5.766   1.039  0.1483  0.4071 -0.2634
 2315TIP3    H2 6952   2.401   5.635   1.069  0.3332  0.4366  0.3235
 2316TIP3   OH2 6953   2.815   5.835   0.511 -0.2774  0.5713 -0.1213
 2316TIP3    H1 6954   2.780   5.821   0.599 -0.8538 -0.4013 -0.4879
 2316TIP3    H2 6955   2.907   5.808   0.517  0.0829  1.8608  0.5162
 2317TIP3   OH2 6956   0.618   5.429   1.771 -0.1795  0.1318  0.4347
 2317TIP3    H1 6957   0.693   5.418   1.829  0.7785 -0.8907 -0.9200
 2317TIP3    H2 6958   0.623   5.520   1.741  0.7734 -0.0390  0.0447
 2318TIP3   OH2 6959   4.546   5.379   1.066 -0.2309  0.3026 -0.3356
 2318TIP3    H1 6960   4.641   5.390   1.079  0.1246 -0.9221 -1.6487
 2318TIP3    H2 6961   4.516   5.341   1.149  0.6451 -0.3744 -0.3019
 2319TIP3   OH2 6962   3.432   3.234   1.419  0.4002  0.5127  0.5732
 2319TIP3    H1 6963   3.355   3.178   1.431  0.9690 -0.8968 -1.7235
 2319TIP3    H2 6964   3.503   3.185   1.462  0.1420  1.6663  2.4237
 2320TIP3   OH2 6965   4.907   4.495   1.578  0.2655 -0.1396 -0.4111
 2320TIP3    H1 6966   4.956   4.494   1.661  1.9637  0.9589 -1.3478
 2320TIP3    H2 6967   4.917   4.584   1.545  0.2450 -0.7402 -2.1427
 2321TIP3   OH2 6968   4.821   3.401   3.248 -0.0336 -0.7192  0.1102
 2321TIP3    H1 6969   4.895   3.450   3.283 -0.1294 -1.1439  0.9265
 2321TIP3    H2 6970   4.744   3.450   3.277 -0.1120 -1.0417  0.4508
 2322TIP3   OH2 6971   2.860   5.223   0.739 -0.4394  0.1267 -0.9115
 2322TIP3    H1 6972   2.824   5.299   0.694 -1.1379  1.0236  1.0575
 2322TIP3    H2 6973   2.930   5.258   0.794 -0.2095 -0.7784 -0.6106
 2323TIP3   OH2 6974   5.901   1.667   4.280  0.4714  0.4873  0.2442
 2323TIP3    H1 6975   5.826   1.721   4.303 -1.2692 -1.1104 -1.2855
 2323TIP3    H2 6976   5.886   1.584   4.327  1.3409  0.1830  0.0112
 2324TIP3   OH2 6977   4.435   3.641   1.052  0.2374 -0.2063 -0.4788
 2324TIP3    H1 6978   4.494   3.628   0.978 -0.3297 -2.5660 -0.5870
 2324TIP3    H2 6979   4.472   3.586   1.121  0.0072  0.9216  0.5687
 2325TIP3   OH2 6980   4.488   0.632   1.025  0.2997 -0.3318 -0.4092
 2325TIP3    H1 6981   4.499   0.601   1.115  2.8863  1.5133  0.0206
 2325TIP3    H2 6982   4.393   0.633   1.012 -0.0996 -2.0274  1.7586
 2326TIP3   OH2 6983   0.881   3.386   0.312 -0.3462  0.4139 -0.1175
 2326TIP3    H1 6984   0.857   3.333   0.388  1.2183 -0.7884 -0.3929
 2326TIP3    H2 6985   0.851   3.474   0.332 -0.0984  0.0870  1.8323
 2327TIP3   OH2 6986   1.246   3.375   4.532 -0.2280 -0.5459 -0.1390
 2327TIP3    H1 6987   1.174   3.319   4.562 -2.5972  1.7420 -1.1868
 2327TIP3    H2 6988   1.260   3.438   4.602  2.0680 -1.9809  0.8088
 2328TIP3   OH2 6989   0.644   0.386   0.411 -0.3832  0.2726  0.3762
 2328TIP3    H1 6990   0.655   0.469   0.458  0.4070 -0.8578  2.3134
 2328TIP3    H2 6991   0.606   0.411   0.327 -2.0253  2.4237  1.6379
 2329TIP3   OH2 6992   1.041   4.240   2.399 -0.2736  0.2330 -0.4036
 2329TIP3    H1 6993   1.115   4.298   2.385 -1.3729  1.8580  0.2879
 2329TIP3    H2 6994   1.080   4.156   2.422  1.3441  1.0960  0.1336
 2330TIP3   OH2 6995   0.049   5.472   3.885 -0.1075  0.3655 -0.0477
 2330TIP3    H1 6996   0.132   5.486   3.840 -1.1722 -2.3003 -3.2726
 2330TIP3    H2 6997   0.072   5.429   3.967  1.7222 -0.0363 -0.7394
 2331TIP3   OH2 6998   3.694   0.923   3.620  0.2621  0.0406 -0.6869
 2331TIP3    H1 6999   3.629   0.858   3.645  0.5483  0.0419  0.1029
 2331TIP3    H2 7000   3.657   1.007   3.649  1.0486 -0.0669  0.7234
 2332TIP3   OH2 7001   6.043   4.100   3.691 -0.1313  0.1766  0.0595
 2332TIP3    H1 7002   5.986   4.165   3.731  0.6945  0.6510  0.4937
 2332TIP3    H2 7003   6.042   4.026   3.752 -1.6339 -0.5493 -0.7759
 2333TIP3   OH2 7004   0.915   0.264   2.629  0.3130  0.6022  0.1365
 2333TIP3    H1 7005   0.910   0.184   2.681  0.3181  0.8198  0.4724
 2333TIP3    H2 7006   0.998   0.305   2.655  1.1531 -0.1215 -1.2633
 2334TIP3   OH2 7007   0.200   0.578   4.905 -0.1285  0.4356 -0.3314
 2334TIP3    H1 7008   0.286   0.535   4.902 -0.0344  0.6671 -2.7255
 2334TIP3    H2 7009   0.137   0.506   4.901 -0.0071  0.3414 -0.5977
 2335TIP3   OH2 7010   1.812   2.832   3.571  0.5429 -0.4916  0.1578
 2335TIP3    H1 7011   1.852   2.913   3.603 -0.4080  0.0283  0.0842
 2335TIP3    H2 7012   1.880   2.790   3.519  0.8633  0.5777 -0.3178
 2336TIP3   OH2 7013   6.070   5.572   0.921  0.5607 -0.2960 -0.1201
 2336TIP3    H1 7014   6.165   5.568   0.906  0.4452 -1.4714 -0.6573
 2336TIP3    H2 7015   6.062   5.589   1.014  1.2861  1.9578 -0.4002
 2337TIP3   OH2 7016   0.501   2.348   2.491  0.2930  0.3779 -0.6151
 2337TIP3    H1 7017   0.594   2.324   2.483  0.2671 -0.1458  0.4428
 2337TIP3    H2 7018   0.499   2.442   2.472  1.2884  0.7187  0.7871
 2338TIP3   OH2 7019   0.575   4.167   0.126 -0.0623 -0.5038 -0.7439
 2338TIP3    H1 7020   0.632   4.175   0.202 -1.0945 -2.0275  0.2484
 2338TIP3    H2 7021   0.552   4.257   0.103  0.3556 -0.0189  0.6849
 2339TIP3   OH2 7022   6.255   3.807   3.514 -0.2969 -0.0899  0.3730
 2339TIP3    H1 7023   6.285   3.865   3.444 -1.3580 -2.6432 -2.4257
 2339TIP3    H2 7024   6.333   3.756   3.537 -0.0910  0.3354  0.6382
 2340TIP3   OH2 7025   1.366   4.497   3.947  0.0473  0.2166  0.3839
 2340TIP3    H1 7026   1.425   4.562   3.984  2.6117 -1.5729 -0.3586
 2340TIP3    H2 7027   1.347   4.529   3.858 -0.0655  0.7627  0.6023
 2341TIP3   OH2 7028   1.517   3.255   3.560 -0.7377  0.5972  0.2552
 2341TIP3    H1 7029   1.470   3.280   3.481 -0.7623 -1.1538 -0.3256
 2341TIP3    H2 7030   1.602   3.224   3.529 -1.0551 -0.9106  0.7917
 2342TIP3   OH2 7031   3.240   0.557   0.450 -0.2081  0.0149 -0.1513
 2342TIP3    H1 7032   3.148   0.578   0.465 -0.3383 -0.3236 -0.4686
 2342TIP3    H2 7033   3.283   0.581   0.532 -0.4428  0.9546 -0.2824
 2343TIP3   OH2 7034   4.822   2.499   2.494 -0.3447  0.0943  0.0354
 2343TIP3    H1 7035   4.861   2.579   2.459  2.5856 -0.5309  1.5042
 2343TIP3    H2 7036   4.864   2.428   2.444 -2.4739 -0.6238 -0.8610
 2344TIP3   OH2 7037   3.373   2.824   1.295 -0.3761  0.2919 -0.1201
 2344TIP3    H1 7038   3.460   2.790   1.274 -1.3452 -2.1080 -0.6717
 2344TIP3    H2 7039   3.377   2.917   1.272  1.6415 -0.0359 -1.3606
 2345TIP3   OH2 7040   4.827   2.743   3.455 -0.0916  0.1640 -0.0906
 2345TIP3    H1 7041   4.743   2.782   3.480 -0.6042  0.0440 -1.5350
 2345TIP3    H2 7042   4.871   2.812   3.405  1.3505  0.7597  1.8642
 2346TIP3   OH2 7043   3.598   1.594   1.173 -0.3506 -0.2861  0.5879
 2346TIP3    H1 7044   3.642   1.640   1.102 -0.2775  0.2522  0.9758
 2346TIP3    H2 7045   3.534   1.537   1.130 -1.0706  0.8364  0.1261
 2347TIP3   OH2 7046   1.618   2.736   2.200  0.2347 -0.3257  0.2047
 2347TIP3    H1 7047   1.627   2.831   2.201 -0.3118 -0.2549 -0.4545
 2347TIP3    H2 7048   1.705   2.703   2.220  0.0986  0.3047  2.0972
 2348TIP3   OH2 7049   1.687   3.915   0.423 -0.0847 -0.1178 -0.1280
 2348TIP3    H1 7050   1.602   3.953   0.443 -0.1150 -0.3406  0.1761
 2348TIP3    H2 7051   1.703   3.939   0.332 -0.5665 -0.2569 -0.2518
 2349TIP3   OH2 7052   1.907   1.238   1.183 -0.6812 -0.1724 -0.1620
 2349TIP3    H1 7053   1.919   1.144   1.180  1.6388 -0.0033  1.3119
 2349TIP3    H2 7054   1.982   1.274   1.136 -2.5972  0.9848 -2.5350
 2350TIP3   OH2 7055   1.285   5.023   3.520 -0.0484 -0.8044  0.3701
 2350TIP3    H1 7056   1.307   5.038   3.612 -0.7711 -0.4912  0.4987
 2350TIP3    H2 7057   1.302   5.107   3.477 -2.0811 -0.1593  0.6984
 2351TIP3   OH2 7058   1.236   0.546   5.116 -0.1297  0.6190 -0.5342
 2351TIP3    H1 7059   1.171   0.614   5.133 -1.5124 -1.4059  3.5896
 2351TIP3    H2 7060   1.186   0.465   5.118  2.2915 -0.9392  1.4008
 2352TIP3   OH2 7061   3.308   2.682   3.972 -0.0395  0.1368 -0.1389
 2352TIP3    H1 7062   3.347   2.702   4.057  1.1617 -1.6658 -0.2215
 2352TIP3    H2 7063   3.330   2.758   3.917  0.2076  0.7747  0.8219
 2353TIP3   OH2 7064   1.693   0.924   3.489 -0.2587  0.1517 -0.2115
 2353TIP3    H1 7065   1.680   0.875   3.408 -0.6117 -0.3970  0.1713
 2353TIP3    H2 7066   1.740   0.863   3.547 -0.7042  0.2638  0.2747
 2354TIP3   OH2 7067   3.589   1.548   1.440 -0.0776  0.2685 -0.0641
 2354TIP3    H1 7068   3.662   1.487   1.447  0.0630  0.4299 -0.1265
 2354TIP3    H2 7069   3.593   1.581   1.350 -1.1090 -0.8291 -0.5436
 2355TIP3   OH2 7070   5.184   4.443   3.839  0.3800  0.0738  0.1949
 2355TIP3    H1 7071   5.149   4.430   3.751  0.7946 -0.2616  0.0754
 2355TIP3    H2 7072   5.107   4.442   3.896  0.3252 -6.1896  0.6771
 2356TIP3   OH2 7073   3.864   5.963   0.921 -0.3276 -0.6488  0.4941
 2356TIP3    H1 7074   3.917   5.972   1.000 -0.5082 -0.3059  0.5789
 2356TIP3    H2 7075   3.928   5.945   0.852  0.3302  2.7766  0.0198
 2357TIP3   OH2 7076   4.093   0.823   1.847 -0.0216  0.3143  0.2482
 2357TIP3    H1 7077   4.158   0.834   1.778 -0.4143  1.0765 -0.0126
 2357TIP3    H2 7078   4.089   0.907   1.891 -1.2421  0.4805 -0.1233
 2358TIP3   OH2 7079   5.960   5.998   3.364 -0.3980  0.4341 -0.1503
 2358TIP3    H1 7080   5.906   5.920   3.378  0.8286 -0.2636  0.9004
 2358TIP3    H2 7081   6.045   5.976   3.402 -0.4649  2.8444  1.6501
 2359TIP3   OH2 7082   4.766   1.904   1.147  0.3060 -0.5487 -0.7010
 2359TIP3    H1 7083   4.747   1.970   1.214  1.9590 -0.8641  0.1412
 2359TIP3    H2 7084   4.810   1.953   1.077  2.2155 -0.8116  0.2525
 2360TIP3   OH2 7085   1.123   3.668   0.349 -0.0709 -0.0967 -0.0113
 2360TIP3    H1 7086   1.137   3.584   0.304  1.0513 -1.8614  3.2716
 2360TIP3    H2 7087   1.115   3.732   0.278 -1.0569 -2.9235 -2.7218
 2361TIP3   OH2 7088   1.990   1.663   4.182 -0.3304  0.1420 -0.4369
 2361TIP3    H1 7089   2.076   1.668   4.224 -0.6854  1.8866  0.1193
 2361TIP3    H2 7090   2.010   1.632   4.093  1.0353  1.7114 -0.7281
 2362TIP3   OH2 7091   4.817   2.366   2.981  0.1270 -0.0918  0.4362
 2362TIP3    H1 7092   4.737   2.396   2.937 -0.4918 -1.6312  0.4401
 2362TIP3    H2 7093   4.813   2.270   2.974  2.3773 -0.1887 -0.2772
 2363TIP3   OH2 7094   1.822   0.083   0.108 -0.5590 -0.4339 -0.1232
 2363TIP3    H1 7095   1.856   0.172   0.117 -0.6292 -0.5307  1.4172
 2363TIP3    H2 7096   1.886   0.039   0.053 -0.4566  0.5321 -0.8045
 2364TIP3   OH2 7097   3.933   2.661   4.885  0.3678 -0.0567 -0.1462
 2364TIP3    H1 7098   3.985   2.739   4.905  2.6246 -0.6466 -3.0174
 2364TIP3    H2 7099   3.968   2.593   4.942  0.2543  0.3917  0.4622
 2365TIP3   OH2 7100   1.422   3.336   2.897 -0.1978  0.3323 -0.0689
 2365TIP3    H1 7101   1.349   3.278   2.878  1.3785 -1.4730 -0.9676
 2365TIP3    H2 7102   1.409   3.363   2.988 -0.9360 -1.5455  0.4187
 2366TIP3   OH2 7103   2.235   5.227   4.705  0.2757  0.0393 -0.1618
 2366TIP3    H1 7104   2.207   5.314   4.674  1.1387  0.4014  0.0409
 2366TIP3    H2 7105   2.271   5.185   4.626  1.7491  0.6652  0.1307
 2367TIP3   OH2 7106   4.810   6.024   1.036 -0.0205 -0.3339 -0.0114
 2367TIP3    H1 7107   4.866   5.976   0.975  0.6573  0.0813  0.2678
 2367TIP3    H2 7108   4.737   5.965   1.054 -0.3217 -0.3857 -1.3626
 2368TIP3   OH2 7109   1.064   2.238   0.717  0.2356  0.7901 -0.3544
 2368TIP3    H1 7110   1.139   2.190   0.751  1.7926  2.2879 -1.4584
 2368TIP3    H2 7111   1.067   2.322   0.763  0.5770  1.6838 -1.9282
 2369TIP3   OH2 7112   5.597   2.810   3.713 -0.2241 -0.0740  0.6056
 2369TIP3    H1 7113   5.688   2.784   3.729 -0.5743 -0.7572  1.5329
 2369TIP3    H2 7114   5.554   2.800   3.797 -1.1024  0.5421  0.2453
 2370TIP3   OH2 7115   4.132   3.830   0.224 -0.4767  0.1305  0.1781
 2370TIP3    H1 7116   4.103   3.908   0.272 -0.1191  0.9132 -0.8282
 2370TIP3    H2 7117   4.064   3.765   0.240 -0.3170  0.3365  1.8061
 2371TIP3   OH2 7118   0.975   0.244   3.345  0.2858  0.5352 -0.8032
 2371TIP3    H1 7119   0.936   0.160   3.370  0.7707  0.1482 -1.3195
 2371TIP3    H2 7120   1.043   0.221   3.281  0.3139  1.3367 -1.0730
 2372TIP3   OH2 7121   1.886   2.001   4.709 -0.1916 -0.1139  0.1878
 2372TIP3    H1 7122   1.832   2.062   4.658 -2.5591 -0.7397  1.7863
 2372TIP3    H2 7123   1.927   1.945   4.643 -3.4819 -1.1876 -1.1539
 2373TIP3   OH2 7124   3.282   2.275   3.954  1.2507  0.4392 -0.0793
 2373TIP3    H1 7125   3.317   2.217   4.021 -0.9646  1.0834  1.7508
 2373TIP3    H2 7126   3.187   2.272   3.966  0.8319  1.6039 -2.3662
 2374TIP3   OH2 7127   1.357   1.610   3.222 -0.3822  0.3891 -0.3884
 2374TIP3    H1 7128   1.320   1.677   3.280 -0.5874 -0.5816  0.6307
 2374TIP3    H2 7129   1.443   1.645   3.197 -0.9213  1.5143 -0.7505
 2375TIP3   OH2 7130   3.685   1.960   2.575 -0.0695  0.0057  0.1739
 2375TIP3    H1 7131   3.756   1.967   2.638 -0.4413 -0.1177  0.6149
 2375TIP3    H2 7132   3.606   1.949   2.629 -0.4565  0.4201 -0.2950
 2376TIP3   OH2 7133   4.537   3.985   4.177  0.0144  0.5114  0.3077
 2376TIP3    H1 7134   4.597   3.924   4.133 -0.5543  1.2474 -1.5684
 2376TIP3    H2 7135   4.595   4.048   4.220  0.5971  0.2484 -0.0785
 2377TIP3   OH2 7136   2.602   1.323   0.144 -0.1189  0.7167  0.1226
 2377TIP3    H1 7137   2.616   1.365   0.059  1.5282 -0.5150 -0.2686
 2377TIP3    H2 7138   2.674   1.260   0.152 -0.3361  0.6653  2.3585
 2378TIP3   OH2 7139   1.300   5.036   4.155  0.0063  0.5780 -0.1897
 2378TIP3    H1 7140   1.246   5.041   4.234 -2.1782  0.2724 -1.5870
 2378TIP3    H2 7141   1.337   5.124   4.145  1.2388  0.3459  1.7159
 2379TIP3   OH2 7142   4.410   2.025   1.083  0.1533  0.1083 -0.6008
 2379TIP3    H1 7143   4.459   1.979   1.014 -0.5660 -0.7214 -0.5802
 2379TIP3    H2 7144   4.377   1.955   1.139  0.6719  0.7763  0.5651
 2380TIP3   OH2 7145   0.062   0.117   0.563 -0.2712 -0.5593  0.3864
 2380TIP3    H1 7146   0.122   0.187   0.588  0.4705 -1.1187  0.2248
 2380TIP3    H2 7147   0.030   0.142   0.476  0.1566 -0.5290  0.2372
 2381TIP3   OH2 7148   3.565   2.488   2.718 -0.2707 -0.4939  0.2802
 2381TIP3    H1 7149   3.593   2.411   2.768  0.7143 -0.2218  0.1553
 2381TIP3    H2 7150   3.588   2.468   2.627  0.8967  0.3511  0.3759
 2382TIP3   OH2 7151   1.648   1.024   1.015  0.0469  0.5607 -0.1633
 2382TIP3    H1 7152   1.622   0.949   0.962  1.1939  1.0590 -1.4945
 2382TIP3    H2 7153   1.566   1.068   1.036 -0.5642 -0.5357 -0.1523
 2383TIP3   OH2 7154   5.738   2.218   4.470 -0.1625  0.2072  0.0304
 2383TIP3    H1 7155   5.803   2.200   4.538 -0.6353 -1.0890  0.1809
 2383TIP3    H2 7156   5.656   2.188   4.508 -0.7619  1.2999 -0.3769
 2384TIP3   OH2 7157   3.793   5.874   1.873 -0.0754 -0.3206 -0.6811
 2384TIP3    H1 7158   3.711   5.919   1.895  0.4177  0.1870  0.1563
 2384TIP3    H2 7159   3.840   5.936   1.818  0.9943  0.6072  1.1957
 2385TIP3   OH2 7160   3.411   3.463   3.815 -0.1249 -0.0957 -0.1417
 2385TIP3    H1 7161   3.496   3.453   3.773 -1.1607  0.4678 -2.5529
 2385TIP3    H2 7162   3.388   3.374   3.844  0.4497 -0.6059 -1.1907
 2386TIP3   OH2 7163   4.813   4.514   3.068  0.5272  0.0983  0.6432
 2386TIP3    H1 7164   4.735   4.464   3.093  1.3625 -0.9395  1.2421
 2386TIP3    H2 7165   4.778   4.596   3.033 -0.9608 -1.2555 -1.3254
 2387TIP3   OH2 7166   5.733   4.923   2.887 -0.4841  0.1771  0.4618
 2387TIP3    H1 7167   5.812   4.978   2.883 -0.2406 -0.0032  2.0685
 2387TIP3    H2 7168   5.716   4.898   2.796  1.3055  0.2340  0.0809
 2388TIP3   OH2 7169   2.362   3.471   3.113 -0.3352 -0.4186  0.8863
 2388TIP3    H1 7170   2.416   3.510   3.182 -0.2013  0.1467  0.4688
 2388TIP3    H2 7171   2.360   3.378   3.135  1.2850 -0.5552  0.6246
 2389TIP3   OH2 7172   4.941   1.578   1.484  0.4986  0.4966  0.3852
 2389TIP3    H1 7173   4.874   1.646   1.481 -0.0816 -0.0613 -2.4179
 2389TIP3    H2 7174   4.906   1.511   1.542 -0.2535  1.2952  0.8626
 2390TIP3   OH2 7175   2.456   1.879   4.094  0.0194 -0.1196  0.2125
 2390TIP3    H1 7176   2.469   1.905   4.003  0.1504  1.3137  0.6069
 2390TIP3    H2 7177   2.536   1.832   4.117  1.4310  2.2258  0.4541
 2391TIP3   OH2 7178   0.811   4.729   1.607  0.6657 -0.1402  0.6097
 2391TIP3    H1 7179   0.891   4.679   1.624  2.1284  2.1177  0.9401
 2391TIP3    H2 7180   0.796   4.778   1.689 -1.8192 -1.4223  1.0048
 2392TIP3   OH2 7181   0.050   2.862   0.838 -0.1430 -0.4223 -0.8571
 2392TIP3    H1 7182   0.106   2.784   0.842 -1.8855 -1.6958  0.1337
 2392TIP3    H2 7183   0.016   2.862   0.749 -1.0061 -1.4727 -0.5474
 2393TIP3   OH2 7184   5.546   3.748   1.465 -0.5151 -0.3861  0.2443
 2393TIP3    H1 7185   5.579   3.679   1.407 -0.4768 -0.6509  0.5801
 2393TIP3    H2 7186   5.617   3.812   1.469 -0.8519  0.0651 -0.6990
 2394TIP3   OH2 7187   3.246   0.291   4.861 -0.3094  0.5964 -0.0094
 2394TIP3    H1 7188   3.211   0.360   4.916 -4.6028 -1.0686 -0.2091
 2394TIP3    H2 7189   3.228   0.210   4.909  2.8297 -0.6132 -0.6026
 2395TIP3   OH2 7190   3.063   5.520   0.826  0.5059  0.5065  0.5241
 2395TIP3    H1 7191   3.048   5.579   0.753  2.5368 -0.3983 -0.7115
 2395TIP3    H2 7192   3.114   5.572   0.889 -1.9400  1.5453  1.7693
 2396TIP3   OH2 7193   5.688   5.873   0.510  0.0966  0.2529  0.0434
 2396TIP3    H1 7194   5.721   5.933   0.444 -2.0458 -0.5497 -1.8912
 2396TIP3    H2 7195   5.621   5.924   0.556  0.3685  0.2658  0.4270
 2397TIP3   OH2 7196   2.242   4.453   4.206  0.1020  0.3405  0.7829
 2397TIP3    H1 7197   2.170   4.486   4.259 -0.8162 -1.2918  0.6233
 2397TIP3    H2 7198   2.246   4.511   4.130 -0.2979  1.1098  1.3394
 2398TIP3   OH2 7199   4.198   0.710   0.151  0.4098  0.0702  0.4481
 2398TIP3    H1 7200   4.262   0.652   0.192 -2.1440 -1.7615  2.1486
 2398TIP3    H2 7201   4.151   0.654   0.089  0.9426  1.5931 -1.4214
 2399TIP3   OH2 7202   0.280   4.709   3.886 -0.8231 -0.5374 -0.6447
 2399TIP3    H1 7203   0.216   4.645   3.918  0.4961 -0.4272  2.4857
 2399TIP3    H2 7204   0.358   4.657   3.867  0.5692  0.0506  2.7935
 2400TIP3   OH2 7205   2.352   2.517   5.151  0.0948 -0.2617  0.8584
 2400TIP3    H1 7206   2.358   2.452   5.081 -0.1131  1.3801 -0.7834
 2400TIP3    H2 7207   2.399   2.478   5.224 -2.0993 -3.2920  0.8430
 2401TIP3   OH2 7208   1.203   3.176   2.913  0.0159 -0.1265 -0.3302
 2401TIP3    H1 7209   1.150   3.130   2.847 -1.0837  0.5485  0.0625
 2401TIP3    H2 7210   1.151   3.252   2.937  0.4585 -0.2776  1.2172
 2402TIP3   OH2 7211   5.523   3.474   3.465 -0.0759 -0.0260 -0.1998
 2402TIP3    H1 7212   5.492   3.416   3.395 -0.2218 -1.2433  0.8386
 2402TIP3    H2 7213   5.617   3.453   3.473 -0.3667 -1.0155  0.9619
 2403TIP3   OH2 7214   3.511   4.647   1.609 -0.1577  0.3958  0.2318
 2403TIP3    H1 7215   3.586   4.675   1.662  1.0288  0.9262 -1.6305
 2403TIP3    H2 7216   3.483   4.564   1.649  1.7542 -0.0830  0.6628
 2404TIP3   OH2 7217   3.102   5.608   3.804  0.0569  0.2438  0.2397
 2404TIP3    H1 7218   3.036   5.653   3.752 -0.4456 -2.2339 -1.4298
 2404TIP3    H2 7219   3.091   5.515   3.783  3.5137 -0.3876  0.5386
 2405TIP3   OH2 7220   4.271   3.160   1.583 -0.1805 -0.1658 -0.3417
 2405TIP3    H1 7221   4.320   3.225   1.633 -0.6393 -0.2594  0.2506
 2405TIP3    H2 7222   4.248   3.093   1.648  0.0160 -0.7605 -0.8770
 2406TIP3   OH2 7223   2.929   5.629   2.904 -0.0778  0.1535 -0.2571
 2406TIP3    H1 7224   2.897   5.639   2.814 -0.8020  0.6047  0.0387
 2406TIP3    H2 7225   3.023   5.648   2.899  0.2817 -1.6437 -1.2290
 2407TIP3   OH2 7226   4.766   3.226   1.130 -0.4490  0.1498 -0.1825
 2407TIP3    H1 7227   4.680   3.252   1.163  0.2584 -0.0318  1.9274
 2407TIP3    H2 7228   4.820   3.217   1.208  1.4857  0.1846 -1.4511
 2408TIP3   OH2 7229   1.649   5.649   1.733 -0.2661 -0.3596  0.3937
 2408TIP3    H1 7230   1.554   5.644   1.747 -0.1211  1.4778  2.7637
 2408TIP3    H2 7231   1.663   5.737   1.698  0.6509 -0.0320  1.5118
 2409TIP3   OH2 7232   5.409   3.585   1.854 -0.0504  0.1062 -0.1460
 2409TIP3    H1 7233   5.496   3.595   1.894 -0.1601  0.8268 -0.0676
 2409TIP3    H2 7234   5.363   3.525   1.912  0.6475 -0.9014 -0.6106
 2410TIP3   OH2 7235   3.413   0.624   3.364  0.1223 -0.1217  0.0876
 2410TIP3    H1 7236   3.374   0.572   3.294 -0.5078 -1.0794  1.1202
 2410TIP3    H2 7237   3.472   0.684   3.319  0.9536 -1.7903 -1.1462
 2411TIP3   OH2 7238   3.058   2.289   2.177 -0.0440 -0.3316  0.1118
 2411TIP3    H1 7239   2.968   2.257   2.168 -0.2147 -0.0503  0.7646
 2411TIP3    H2 7240   3.078   2.276   2.270  0.5996 -0.4122 -0.0379
 2412TIP3   OH2 7241   2.998   4.824   2.447 -0.3515 -0.1362 -0.5556
 2412TIP3    H1 7242   3.041   4.746   2.480  0.5009  0.5522 -0.0004
 2412TIP3    H2 7243   2.926   4.840   2.508 -0.1966 -0.1777 -0.3641
 2413TIP3   OH2 7244   0.786   0.902   0.817  0.6426 -0.2347 -0.0642
 2413TIP3    H1 7245   0.787   0.935   0.727  0.6555 -1.0382 -0.3624
 2413TIP3    H2 7246   0.860   0.947   0.859  2.4700 -1.9755 -1.2462
 2414TIP3   OH2 7247   5.046   4.873   4.362 -0.4376  0.2977 -0.7122
 2414TIP3    H1 7248   5.008   4.865   4.274 -2.3790 -2.4836  0.2307
 2414TIP3    H2 7249   4.978   4.917   4.413 -0.5646 -0.6834 -0.0047
 2415TIP3   OH2 7250   6.092   1.800   2.825  0.0824 -0.4010 -0.4927
 2415TIP3    H1 7251   6.003   1.768   2.840  0.0272 -0.9042 -1.7564
 2415TIP3    H2 7252   6.146   1.721   2.818  0.5113 -0.1240 -0.3844
 2416TIP3   OH2 7253   4.326   4.050   3.555  0.1641 -0.0266  0.1309
 2416TIP3    H1 7254   4.356   4.023   3.468  0.8964  0.6697  0.1534
 2416TIP3    H2 7255   4.396   4.107   3.588 -0.8182  1.0055  0.5230
 2417TIP3   OH2 7256   1.250   0.805   1.594  0.7474 -0.2324  0.0759
 2417TIP3    H1 7257   1.294   0.842   1.517  1.6318  2.1874  1.6231
 2417TIP3    H2 7258   1.164   0.846   1.594  0.4904 -0.7691  0.0149
 2418TIP3   OH2 7259   1.575   1.219   1.925 -0.0874  0.3426  0.0610
 2418TIP3    H1 7260   1.554   1.128   1.942  0.8311  0.4419  2.0635
 2418TIP3    H2 7261   1.524   1.269   1.990  1.6799  0.9758  1.0457
 2419TIP3   OH2 7262   5.914   3.926   4.681  0.0399  0.0615 -0.0401
 2419TIP3    H1 7263   5.845   3.874   4.722  0.0673  0.3276  0.3567
 2419TIP3    H2 7264   5.881   4.016   4.683  0.5812  0.2615  0.5829
 2420TIP3   OH2 7265   6.338   5.079   1.072 -0.3146 -0.2736  0.5690
 2420TIP3    H1 7266   6.372   4.990   1.078  0.3815  0.0080  1.0370
 2420TIP3    H2 7267   6.321   5.104   1.163  0.1617  0.3082  0.5051
 2421TIP3   OH2 7268   2.928   5.107   2.641  0.5358  0.8285 -0.1302
 2421TIP3    H1 7269   2.944   5.128   2.549 -3.0095  0.8530 -0.8989
 2421TIP3    H2 7270   2.968   5.021   2.654  2.5750  1.5600 -1.1361
 2422TIP3   OH2 7271   4.111   4.546   4.700 -0.8385  0.3113  0.1340
 2422TIP3    H1 7272   4.055   4.493   4.756 -0.1997  1.1453  1.6252
 2422TIP3    H2 7273   4.137   4.619   4.755  0.8892  0.4756 -0.8296
 2423TIP3   OH2 7274   4.807   3.122   4.876 -0.4658 -0.0453 -0.1275
 2423TIP3    H1 7275   4.805   3.027   4.878 -1.7130 -0.0285  0.7434
 2423TIP3    H2 7276   4.751   3.146   4.802 -0.7614  0.0080  0.1095
 2424TIP3   OH2 7277   0.778   4.911   0.661  0.2859  0.1150  0.3878
 2424TIP3    H1 7278   0.723   4.846   0.704  0.9830 -0.0339  1.0742
 2424TIP3    H2 7279   0.730   4.935   0.582  0.0573 -1.2907  0.0823
 2425TIP3   OH2 7280   0.345   3.932   5.005  0.3496  0.4051 -0.3527
 2425TIP3    H1 7281   0.393   3.992   5.063 -0.3560  0.2876  0.3777
 2425TIP3    H2 7282   0.312   3.864   5.064  0.0336  0.0115 -0.9781
 2426TIP3   OH2 7283   4.366   2.114   2.443  0.3260 -0.2615 -0.2277
 2426TIP3    H1 7284   4.454   2.085   2.468  0.6542 -2.0543 -3.0509
 2426TIP3    H2 7285   4.379   2.200   2.403  0.6838 -0.2269 -0.0432
 2427TIP3   OH2 7286   3.210   1.240   0.094  0.3539  0.4601 -0.4653
 2427TIP3    H1 7287   3.182   1.169   0.035  2.4226 -0.6487 -0.1968
 2427TIP3    H2 7288   3.212   1.200   0.181  3.5362  0.1338 -0.5780
 2428TIP3   OH2 7289   5.319   4.592   0.885 -0.3965  0.2059 -0.0705
 2428TIP3    H1 7290   5.250   4.603   0.820  0.3147  1.4867 -0.6518
 2428TIP3    H2 7291   5.398   4.576   0.833  0.4378  2.5365  0.3435
 2429TIP3   OH2 7292   3.873   1.925   0.886 -0.3452 -0.1598 -0.3861
 2429TIP3    H1 7293   3.905   2.016   0.891 -0.8093  0.0340 -0.8579
 2429TIP3    H2 7294   3.937   1.880   0.831  0.6012 -0.4477  0.8998
 2430TIP3   OH2 7295   3.195   1.964   4.910 -0.2630 -0.1718 -0.6779
 2430TIP3    H1 7296   3.112   1.962   4.958 -0.2310  0.6764 -0.5679
 2430TIP3    H2 7297   3.176   1.920   4.827 -0.3399 -1.5952  0.0603
 2431TIP3   OH2 7298   5.593   0.211   3.934  0.2117  0.3121  0.3114
 2431TIP3    H1 7299   5.623   0.221   4.024  0.9607  1.0562 -0.0055
 2431TIP3    H2 7300   5.525   0.278   3.924 -0.1273 -0.0069  0.4132
 2432TIP3   OH2 7301   1.963   3.748   2.943 -0.0192  0.3673  0.5831
 2432TIP3    H1 7302   1.899   3.771   2.875  2.4778  0.4325 -1.9562
 2432TIP3    H2 7303   1.985   3.657   2.925  0.3254  0.2229  1.6781
 2433TIP3   OH2 7304   2.715   5.134   2.815  0.2313 -0.8639  0.2563
 2433TIP3    H1 7305   2.791   5.145   2.758  1.0981  0.6861  1.6226
 2433TIP3    H2 7306   2.641   5.165   2.763  1.0881  1.1040  0.1466
 2434TIP3   OH2 7307   0.313   0.882   4.421 -0.1269  0.6301  0.6216
 2434TIP3    H1 7308   0.354   0.870   4.336 -2.4817  1.4280 -0.7321
 2434TIP3    H2 7309   0.357   0.958   4.459 -0.0940  1.2409 -0.6041
 2435TIP3   OH2 7310   4.295   5.530   0.423 -0.0696  0.1977 -0.2181
 2435TIP3    H1 7311   4.262   5.442   0.407 -0.0925 -0.5740  3.3675
 2435TIP3    H2 7312   4.248   5.585   0.360 -2.8128 -1.8619 -0.1425
 2436TIP3   OH2 7313   0.879   0.550   1.356 -0.4083  0.4904  0.0775
 2436TIP3    H1 7314   0.941   0.548   1.428 -0.0533 -0.0681 -0.2363
 2436TIP3    H2 7315   0.863   0.643   1.340 -0.0207  0.6246  0.4739
 2437TIP3   OH2 7316   3.831   5.622   1.775  0.0364  0.4400 -0.0099
 2437TIP3    H1 7317   3.844   5.700   1.829 -1.8098  0.9280 -0.2105
 2437TIP3    H2 7318   3.832   5.656   1.685 -1.6532  0.4237 -0.0724
 2438TIP3   OH2 7319   2.238   4.015   1.239 -0.1299 -0.1618 -0.6753
 2438TIP3    H1 7320   2.272   3.927   1.226  2.9699  0.8876 -0.6010
 2438TIP3    H2 7321   2.215   4.019   1.332  0.3263 -0.7109 -0.5347
 2439TIP3   OH2 7322  -0.008   0.819   3.319  0.4805  0.2840  0.3528
 2439TIP3    H1 7323   0.069   0.844   3.371  1.7365 -0.0183 -1.2971
 2439TIP3    H2 7324  -0.050   0.903   3.297  2.5399  0.8289 -1.9339
 2440TIP3   OH2 7325   3.198   1.085   3.237  0.2922 -0.5604 -0.1555
 2440TIP3    H1 7326   3.214   1.081   3.331 -2.3091  1.1177  0.4720
 2440TIP3    H2 7327   3.211   0.995   3.206 -0.4821 -1.5193  2.1307
 2441TIP3   OH2 7328   1.119   4.078   5.063 -0.5503  0.5413 -0.1592
 2441TIP3    H1 7329   1.103   4.039   5.149 -1.4401  1.1046 -0.0568
 2441TIP3    H2 7330   1.061   4.030   5.004 -0.1450  0.3414 -0.3964
 2442TIP3   OH2 7331   4.895   1.162   2.097  0.5339 -0.3390  0.4394
 2442TIP3    H1 7332   4.915   1.250   2.129  0.4111  0.1096 -0.6622
 2442TIP3    H2 7333   4.973   1.136   2.048  1.2523 -1.5514  2.1039
 2443TIP3   OH2 7334   4.704   4.114   2.631  0.1413 -0.0947  0.0354
 2443TIP3    H1 7335   4.637   4.057   2.668  1.9700 -1.2781  1.7563
 2443TIP3    H2 7336   4.693   4.197   2.677 -0.0347 -0.3212  0.4021
 2444TIP3   OH2 7337   4.309   0.580   3.346 -0.0596 -0.4076 -0.3928
 2444TIP3    H1 7338   4.281   0.517   3.280 -1.0820  0.6055 -0.9690
 2444TIP3    H2 7339   4.323   0.661   3.297  2.2708 -0.4029  0.1486
 2445TIP3   OH2 7340   4.928   5.620   4.774 -0.0160 -0.2212  0.1343
 2445TIP3    H1 7341   4.964   5.638   4.687  0.1674  1.7815  0.5654
 2445TIP3    H2 7342   4.836   5.598   4.757  0.7749 -3.1913 -0.7840
 2446TIP3   OH2 7343   0.864   1.184   3.116 -0.4478  0.5012  0.2960
 2446TIP3    H1 7344   0.893   1.144   3.034 -2.5315 -0.5055 -0.0133
 2446TIP3    H2 7345   0.942   1.182   3.172  0.3669 -1.1135 -0.7962
 2447TIP3   OH2 7346   6.313   4.769   1.013  0.4257 -0.1069 -0.2526
 2447TIP3    H1 7347   6.240   4.761   1.074  0.4299  2.2610  0.1816
 2447TIP3    H2 7348   6.277   4.742   0.928 -1.1046  1.2727 -0.1040
 2448TIP3   OH2 7349   2.877   0.157   0.526  0.0471 -0.5164 -0.2577
 2448TIP3    H1 7350   2.846   0.202   0.605  2.4821  1.4364 -0.2752
 2448TIP3    H2 7351   2.800   0.114   0.491 -1.4445 -0.1854  2.3556
 2449TIP3   OH2 7352   3.596   3.559   3.613 -0.0187 -0.7203 -0.2540
 2449TIP3    H1 7353   3.551   3.642   3.598  0.6758 -0.2316  0.2975
 2449TIP3    H2 7354   3.541   3.493   3.571 -1.1065 -0.1035  0.1889
 2450TIP3   OH2 7355   5.023   4.647   5.059 -0.0509  0.8531 -0.2072
 2450TIP3    H1 7356   4.940   4.609   5.030 -0.7815  1.2891  1.2273
 2450TIP3    H2 7357   5.076   4.652   4.980 -0.6758 -1.2131 -0.8260
 2451TIP3   OH2 7358   5.178   3.016   1.152  0.1411  0.4839 -0.0370
 2451TIP3    H1 7359   5.138   3.089   1.104  1.3029  0.7708 -0.6216
 2451TIP3    H2 7360   5.252   2.990   1.097  0.6119 -0.1713  0.8890
 2452TIP3   OH2 7361   2.769   0.047   1.421 -0.0861 -0.0382  0.4680
 2452TIP3    H1 7362   2.743   0.138   1.411 -0.5810 -0.1620  0.6148
 2452TIP3    H2 7363   2.694  -0.004   1.390  0.0060 -0.3969  0.8164
 2453TIP3   OH2 7364   3.438   2.905   2.663 -0.4165  0.2810  0.4793
 2453TIP3    H1 7365   3.463   2.913   2.571 -0.2068 -0.8749  0.4264
 2453TIP3    H2 7366   3.515   2.936   2.711  0.1937 -0.8965  0.2829
 2454TIP3   OH2 7367   0.891   1.274   0.805  0.4241 -0.3079  0.0236
 2454TIP3    H1 7368   0.802   1.291   0.837  0.8084  1.7535  0.1393
 2454TIP3    H2 7369   0.890   1.305   0.714  0.8928 -0.8031 -0.1580
 2455TIP3   OH2 7370   5.511   1.872   1.982 -0.7635  0.4441  0.0225
 2455TIP3    H1 7371   5.575   1.887   2.052  1.5466  1.9385 -2.1938
 2455TIP3    H2 7372   5.457   1.952   1.981 -1.1339  0.1984  0.4233
 2456TIP3   OH2 7373   0.170   3.392   2.573 -0.2091 -0.1256  0.7865
 2456TIP3    H1 7374   0.250   3.372   2.621  0.8026 -1.2040 -1.2088
 2456TIP3    H2 7375   0.138   3.307   2.544 -2.7590  0.1561  2.4499
 2457TIP3   OH2 7376   4.604   3.442   0.514 -0.1690  0.4992 -0.6780
 2457TIP3    H1 7377   4.551   3.518   0.540 -1.3280  0.1492 -1.9137
 2457TIP3    H2 7378   4.677   3.480   0.465 -0.8298  0.8421 -1.4353
 2458TIP3   OH2 7379   5.285   3.601   2.707  0.3657 -0.3333  0.1615
 2458TIP3    H1 7380   5.310   3.602   2.615 -0.8994 -0.6164 -0.2100
 2458TIP3    H2 7381   5.358   3.642   2.753 -0.1529  2.4393 -1.2740
 2459TIP3   OH2 7382   2.130   3.378   1.069 -0.2842 -0.0486 -0.2032
 2459TIP3    H1 7383   2.125   3.284   1.085  0.6378 -0.1003 -0.1668
 2459TIP3    H2 7384   2.145   3.386   0.975  3.6324 -0.1358  0.2815
 2460TIP3   OH2 7385   3.106   1.294   1.504 -0.0933  0.0510 -0.2158
 2460TIP3    H1 7386   3.058   1.366   1.545 -0.2086  0.1557 -0.5314
 2460TIP3    H2 7387   3.196   1.304   1.535 -0.5432 -1.0489  1.6302
 2461TIP3   OH2 7388   0.478   5.541   4.269 -0.4596  0.3937 -0.1556
 2461TIP3    H1 7389   0.440   5.455   4.250 -1.7236  1.0538 -0.7231
 2461TIP3    H2 7390   0.433   5.570   4.348 -0.1961  0.6458 -0.0973
 2462TIP3   OH2 7391   5.184   4.726   1.336 -0.1893  0.4343 -0.3632
 2462TIP3    H1 7392   5.223   4.798   1.385  1.8980 -0.5816 -0.3968
 2462TIP3    H2 7393   5.227   4.729   1.251  0.0327 -0.8695 -0.3283
 2463TIP3   OH2 7394   5.158   5.848   1.931  0.1114  0.0818 -0.5648
 2463TIP3    H1 7395   5.121   5.929   1.896 -0.0060  0.2363 -0.0909
 2463TIP3    H2 7396   5.251   5.868   1.945 -0.1695  0.5554  0.7529
 2464TIP3   OH2 7397   5.211   3.248   3.847 -0.2601 -0.0456  0.6287
 2464TIP3    H1 7398   5.118   3.248   3.826 -0.3602 -0.6100  1.0484
 2464TIP3    H2 7399   5.219   3.186   3.920  0.2309  1.0629  1.5377
 2465TIP3   OH2 7400   2.424   2.032   3.235  0.3309 -0.3662  0.5317
 2465TIP3    H1 7401   2.392   1.969   3.299  0.3061 -0.2141  0.6683
 2465TIP3    H2 7402   2.369   2.016   3.157 -1.9100  1.6440  1.5832
 2466TIP3   OH2 7403   2.020   4.912   0.753  0.8829  0.1988  0.6735
 2466TIP3    H1 7404   2.029   4.817   0.764  0.5332  0.0378 -0.3109
 2466TIP3    H2 7405   2.072   4.932   0.675 -0.2921  0.5613 -0.0475
 2467TIP3   OH2 7406   1.087   5.002   2.567  0.1241  0.3869 -0.2987
 2467TIP3    H1 7407   0.997   5.026   2.544 -0.5001 -0.0983  1.4287
 2467TIP3    H2 7408   1.142   5.057   2.511 -1.2086 -0.2674 -2.3757
 2468TIP3   OH2 7409   1.176   1.726   3.054  0.3407 -0.0757 -0.0701
 2468TIP3    H1 7410   1.181   1.692   2.965 -0.6583 -1.0029  0.1922
 2468TIP3    H2 7411   1.233   1.668   3.105 -0.1083 -0.3644  0.1085
 2469TIP3   OH2 7412   4.679   0.888   0.607  0.0578  0.2998  0.1480
 2469TIP3    H1 7413   4.613   0.957   0.610  0.5901  0.8958 -0.9280
 2469TIP3    H2 7414   4.651   0.824   0.671 -0.5278  1.4650  1.0902
 2470TIP3   OH2 7415   1.745   1.177   2.206 -0.4080  0.3403  0.1456
 2470TIP3    H1 7416   1.797   1.113   2.254 -0.1552  0.4856  0.0718
 2470TIP3    H2 7417   1.655   1.161   2.233 -0.2751  0.3728  0.6099
 2471TIP3   OH2 7418   2.196   2.757   0.981  0.1433 -0.2366 -0.0323
 2471TIP3    H1 7419   2.108   2.744   0.945  0.5170 -1.4934 -0.5412
 2471TIP3    H2 7420   2.244   2.801   0.911  0.1554 -0.3139 -0.0722
 2472TIP3   OH2 7421   0.098   4.614   4.066 -0.0127  0.2853 -0.5653
 2472TIP3    H1 7422   0.034   4.581   4.129 -1.8700 -0.0843 -2.5177
 2472TIP3    H2 7423   0.098   4.708   4.079  0.9045  0.0946  1.0768
 2473TIP3   OH2 7424   4.182   3.712   4.963 -0.2425 -0.0279 -0.1481
 2473TIP3    H1 7425   4.152   3.714   5.053  0.4707 -0.2005  0.0992
 2473TIP3    H2 7426   4.195   3.618   4.944  0.0118  0.0337 -0.2894
 2474TIP3   OH2 7427   3.058   1.001   2.774  0.0780  0.3779  0.2683
 2474TIP3    H1 7428   3.028   0.974   2.687  1.3678  0.5146 -0.2398
 2474TIP3    H2 7429   3.027   1.091   2.782  1.2406  0.9005 -0.7166
 2475TIP3   OH2 7430   2.523   3.559   3.315 -0.1981  0.5878 -0.2307
 2475TIP3    H1 7431   2.615   3.554   3.341 -0.3307  1.5167  0.4735
 2475TIP3    H2 7432   2.475   3.575   3.396 -1.3872 -3.0204 -0.0702
 2476TIP3   OH2 7433   1.007   1.459   3.804  0.1585  0.5942  0.0721
 2476TIP3    H1 7434   1.050   1.511   3.735  1.4504 -0.6367 -0.0958
 2476TIP3    H2 7435   0.913   1.473   3.789  0.4402  1.3611 -1.1501
 2477TIP3   OH2 7436   4.008   0.353   2.556  0.0398  0.1631 -0.4374
 2477TIP3    H1 7437   4.049   0.410   2.491  1.5732 -1.0979 -0.6348
 2477TIP3    H2 7438   4.079   0.299   2.589 -1.1119 -0.6958  0.7410
 2478TIP3   OH2 7439   1.053   4.087   0.803  0.5286  0.4665 -0.0051
 2478TIP3    H1 7440   1.061   4.036   0.884  0.5184 -1.6499 -1.2643
 2478TIP3    H2 7441   1.143   4.100   0.774  0.5494  1.5508  0.5211
 2479TIP3   OH2 7442   6.286   3.770   3.025  0.3465  0.1541  0.4249
 2479TIP3    H1 7443   6.277   3.826   2.947  0.3305  0.1589  0.4305
 2479TIP3    H2 7444   6.249   3.686   2.998 -0.6014  0.4514  0.7547
 2480TIP3   OH2 7445   0.482   0.943   2.377  0.4249 -0.0536  0.1032
 2480TIP3    H1 7446   0.423   1.018   2.371 -0.5787 -0.7533  0.7810
 2480TIP3    H2 7447   0.437   0.882   2.435  1.0477 -1.3404 -0.7130
 2481TIP3   OH2 7448   4.622   4.799   4.207 -0.2156 -0.0642 -0.4745
 2481TIP3    H1 7449   4.602   4.840   4.292  0.2131 -3.6972  1.5498
 2481TIP3    H2 7450   4.714   4.821   4.191 -0.2713  0.5779  0.0196
 2482TIP3   OH2 7451   5.926   5.317   3.606  0.0635  0.2284  0.0688
 2482TIP3    H1 7452   5.897   5.230   3.634  0.4392  0.4156  1.1072
 2482TIP3    H2 7453   5.918   5.371   3.685 -2.2423  1.6966 -1.0709
 2483TIP3   OH2 7454   6.194   3.520   3.215  0.5721  0.1436 -0.1964
 2483TIP3    H1 7455   6.146   3.500   3.135  0.3234  0.4256 -0.1199
 2483TIP3    H2 7456   6.245   3.598   3.194  2.7201 -1.3430 -0.9816
 2484TIP3   OH2 7457   3.215   5.923   3.728  0.0473  0.6341 -0.0526
 2484TIP3    H1 7458   3.309   5.929   3.747 -0.0022  0.4983  0.2582
 2484TIP3    H2 7459   3.206   5.952   3.638  0.8570 -2.7378 -1.3620
 2485TIP3   OH2 7460   5.169   3.243   0.948 -0.2048 -0.2571 -0.1822
 2485TIP3    H1 7461   5.073   3.252   0.949 -0.2497  0.1335 -2.4281
 2485TIP3    H2 7462   5.186   3.182   0.877  1.2300 -0.2890  0.1741
 2486TIP3   OH2 7463   3.366   2.305   1.598 -0.8069  0.3721  0.0505
 2486TIP3    H1 7464   3.293   2.247   1.576  0.3934 -1.2426  0.1192
 2486TIP3    H2 7465   3.384   2.286   1.691 -1.2891  1.9191  0.4868
 2487TIP3   OH2 7466   5.393   4.139   4.052  0.5949 -0.1538 -0.0097
 2487TIP3    H1 7467   5.396   4.139   3.957 -0.2916  1.8900 -0.1063
 2487TIP3    H2 7468   5.463   4.200   4.078 -2.3637  3.5063  0.2728
 2488TIP3   OH2 7469   4.999   1.816   1.672 -0.0513 -0.5201 -0.1765
 2488TIP3    H1 7470   4.913   1.808   1.631 -1.2018 -0.7462  2.1156
 2488TIP3    H2 7471   5.058   1.767   1.616 -1.5814 -1.0475 -1.3739
 2489TIP3   OH2 7472   2.137   1.528   0.839  0.0869  0.2637  0.2758
 2489TIP3    H1 7473   2.154   1.452   0.784  1.6043 -1.4609  2.9091
 2489TIP3    H2 7474   2.224   1.566   0.854 -0.1566  0.1835  2.0697
 2490TIP3   OH2 7475   3.203   4.274   4.399 -0.4616  0.1246 -0.1929
 2490TIP3    H1 7476   3.285   4.228   4.418 -1.2715 -0.6865  1.5635
 2490TIP3    H2 7477   3.201   4.346   4.462 -0.5301  0.9317 -1.0838
 2491TIP3   OH2 7478   1.136   0.435   0.764  0.0163  0.3542  1.2963
 2491TIP3    H1 7479   1.198   0.384   0.816  0.4797  1.3147  1.7037
 2491TIP3    H2 7480   1.051   0.396   0.783  0.4772 -0.9814  0.7282
 2492TIP3   OH2 7481   3.843   1.139   1.657 -0.0730 -0.0036 -0.1586
 2492TIP3    H1 7482   3.877   1.123   1.569 -0.0375 -0.8493  0.0023
 2492TIP3    H2 7483   3.905   1.201   1.696 -1.6261  2.7882 -1.7163
 2493TIP3   OH2 7484   5.668   2.842   3.217  0.2719 -0.4469  0.3212
 2493TIP3    H1 7485   5.761   2.856   3.200 -0.0006 -0.7069 -1.6273
 2493TIP3    H2 7486   5.665   2.772   3.282  1.4275 -0.0385  0.8438
 2494TIP3   OH2 7487   3.047   3.807   2.458  0.1755  0.6976  0.0597
 2494TIP3    H1 7488   3.125   3.765   2.423 -0.0683  0.0910  0.2301
 2494TIP3    H2 7489   3.035   3.885   2.404  1.0162  0.9050  0.1716
 2495TIP3   OH2 7490   3.093   4.793   3.656  0.5965 -0.3692 -0.0182
 2495TIP3    H1 7491   3.050   4.710   3.637  0.2500 -1.2443  3.7532
 2495TIP3    H2 7492   3.187   4.771   3.658  0.5854 -0.4248 -0.1331
 2496TIP3   OH2 7493   5.925   3.657   4.587  0.0072 -0.5633 -0.8164
 2496TIP3    H1 7494   5.922   3.753   4.581  3.5989 -0.2951 -0.7956
 2496TIP3    H2 7495   5.912   3.639   4.680  1.4595  0.1481 -0.4393
 2497TIP3   OH2 7496   3.541   0.972   1.109 -0.4370 -0.1061  0.0863
 2497TIP3    H1 7497   3.633   0.998   1.105 -0.5320  0.1510 -0.8862
 2497TIP3    H2 7498   3.538   0.898   1.169  0.7606 -1.5445 -1.5333
 2498TIP3   OH2 7499   2.671   2.421   2.285  0.2431 -0.5914 -0.0498
 2498TIP3    H1 7500   2.656   2.431   2.379 -1.5096 -1.2795 -0.2239
 2498TIP3    H2 7501   2.685   2.327   2.273 -2.8555 -1.0517 -0.8320
 2499TIP3   OH2 7502   2.387   4.738   3.045 -0.4907 -0.3652  0.8655
 2499TIP3    H1 7503   2.370   4.651   3.010  0.0201 -0.4255  0.7569
 2499TIP3    H2 7504   2.367   4.731   3.139 -1.1231 -0.4069  0.7309
 2500TIP3   OH2 7505   4.030   4.801   1.183  0.2800 -0.4767 -0.4429
 2500TIP3    H1 7506   4.013   4.782   1.090 -1.4559  0.0684 -0.2797
 2500TIP3    H2 7507   3.960   4.755   1.230  0.6261 -0.0291  0.5368
 2501TIP3   OH2 7508   0.385   4.487   3.020  0.1612  0.7580  0.2468
 2501TIP3    H1 7509   0.302   4.441   3.013  0.4627  0.1946  0.3210
 2501TIP3    H2 7510   0.392   4.536   2.938 -0.4525  1.1776  0.4367
 2502TIP3   OH2 7511   4.783   2.436   2.058 -0.6337 -0.5368  0.1294
 2502TIP3    H1 7512   4.805   2.419   1.966 -0.4736  0.5973 -0.0583
 2502TIP3    H2 7513   4.694   2.469   2.056 -0.2112  0.6411  0.2412
 2503TIP3   OH2 7514   0.137   0.352   4.319  0.0910  0.2660  0.1139
 2503TIP3    H1 7515   0.159   0.272   4.366 -0.6899 -0.3589 -0.5474
 2503TIP3    H2 7516   0.178   0.422   4.369  0.9813 -0.5658  0.5737
 2504TIP3   OH2 7517   1.677   2.068   2.532 -0.3760 -0.7357  0.2699
 2504TIP3    H1 7518   1.690   2.019   2.614  0.8620 -0.1833  0.4219
 2504TIP3    H2 7519   1.679   2.001   2.464  1.7843 -0.9026  0.4318
 2505TIP3   OH2 7520   3.669   4.886   0.067 -0.4487 -0.0055 -0.1988
 2505TIP3    H1 7521   3.689   4.816   0.129  0.6981  0.6115  0.1457
 2505TIP3    H2 7522   3.642   4.960   0.122  0.3981  0.4881 -0.4240
 2506TIP3   OH2 7523   1.677   2.493   1.604 -0.4981  0.3081  0.2456
 2506TIP3    H1 7524   1.753   2.471   1.550  0.5598 -0.4461  1.9628
 2506TIP3    H2 7525   1.652   2.411   1.646 -1.9438  0.6620  0.1409
 2507TIP3   OH2 7526   3.262   1.432   1.719 -0.1014 -0.4379  0.4404
 2507TIP3    H1 7527   3.297   1.462   1.635 -0.7913  0.8424  0.5856
 2507TIP3    H2 7528   3.290   1.499   1.781  0.9497 -1.6981  1.3768
 2508TIP3   OH2 7529   0.805   1.115   3.776 -0.2923  0.1336 -0.2049
 2508TIP3    H1 7530   0.842   1.130   3.689  1.3733 -0.2433  0.4022
 2508TIP3    H2 7531   0.788   1.203   3.810  0.3101  0.3412 -0.4154
 2509TIP3   OH2 7532   4.523   4.479   3.002 -0.0158 -0.2894  0.5106
 2509TIP3    H1 7533   4.544   4.521   2.918  0.6479  2.4032  1.9051
 2509TIP3    H2 7534   4.436   4.512   3.023 -0.2843 -1.1550  0.7698
 2510TIP3   OH2 7535   1.621   5.290   4.804  1.1024 -0.0652 -0.0384
 2510TIP3    H1 7536   1.671   5.246   4.735 -1.5235 -1.7320 -1.0295
 2510TIP3    H2 7537   1.659   5.259   4.886  3.3717  0.8623 -0.6604
 2511TIP3   OH2 7538   2.832   2.152   2.679  0.0745  0.1707 -0.0280
 2511TIP3    H1 7539   2.754   2.187   2.721 -0.2684 -0.0194 -0.5002
 2511TIP3    H2 7540   2.896   2.224   2.684 -0.1570  0.3584  0.2779
 2512TIP3   OH2 7541   5.676   2.258   1.797  0.1219  0.6879 -0.0486
 2512TIP3    H1 7542   5.632   2.184   1.754  1.3748  0.1262 -0.4237
 2512TIP3    H2 7543   5.739   2.218   1.856 -0.5926  1.4747  1.2777
 2513TIP3   OH2 7544   2.648   5.438   4.859 -0.0215  0.4551  0.3899
 2513TIP3    H1 7545   2.733   5.394   4.870  0.4220  1.4634  1.1651
 2513TIP3    H2 7546   2.651   5.472   4.769 -0.8572 -2.0355 -0.6553
 2514TIP3   OH2 7547   1.348   1.549   1.887 -0.2537 -0.3203 -0.1751
 2514TIP3    H1 7548   1.333   1.542   1.793  1.2318  0.3523 -0.5003
 2514TIP3    H2 7549   1.294   1.481   1.926 -2.0759  0.3901 -1.3685
 2515TIP3   OH2 7550   1.128   4.405   0.459  0.5532  0.2309  0.2066
 2515TIP3    H1 7551   1.059   4.403   0.526 -0.0158  0.8983 -0.3355
 2515TIP3    H2 7552   1.080   4.399   0.377  1.1761  0.3367 -0.1645
 2516TIP3   OH2 7553   3.163   3.331   2.839 -0.2951 -0.2582 -0.3654
 2516TIP3    H1 7554   3.134   3.279   2.914 -1.3417 -0.3649 -0.8185
 2516TIP3    H2 7555   3.153   3.422   2.868 -1.1479 -0.2897 -0.5071
 2517TIP3   OH2 7556   6.275   2.068   2.439  0.1454 -0.0401 -0.2941
 2517TIP3    H1 7557   6.276   2.067   2.534  0.8173  3.5728 -0.0935
 2517TIP3    H2 7558   6.183   2.081   2.415 -0.0820 -1.3993 -0.1837
 2518TIP3   OH2 7559   4.735   4.497   4.125 -0.1747  0.1683 -0.1955
 2518TIP3    H1 7560   4.651   4.542   4.116 -0.2364  0.2024  0.4954
 2518TIP3    H2 7561   4.781   4.545   4.194 -0.5288 -1.2312  1.0731
 2519TIP3   OH2 7562   2.908   3.268   3.835 -0.4406 -0.5053  0.0606
 2519TIP3    H1 7563   2.918   3.179   3.868  0.7174  0.3647  2.2763
 2519TIP3    H2 7564   2.986   3.283   3.782  0.5352 -0.1015  1.5565
 2520TIP3   OH2 7565   1.201   3.125   3.875  0.7115 -0.2556  0.2627
 2520TIP3    H1 7566   1.254   3.144   3.953 -0.4033 -1.4484  1.3702
 2520TIP3    H2 7567   1.129   3.187   3.880  0.5012 -0.5030  0.3362
 2521TIP3   OH2 7568   0.501   5.107   1.374  0.2922  0.6405  0.3709
 2521TIP3    H1 7569   0.570   5.169   1.396  0.3324  0.1356  1.7731
 2521TIP3    H2 7570   0.481   5.063   1.457 -1.9290  1.0000  0.1033
 2522TIP3   OH2 7571   5.193   1.099   0.350 -0.0880  0.1945 -0.2166
 2522TIP3    H1 7572   5.266   1.111   0.410  1.0806  0.2897 -1.6060
 2522TIP3    H2 7573   5.138   1.033   0.392  0.6616  0.2945  0.9683
 2523TIP3   OH2 7574   4.552   4.051   5.028 -0.7938 -0.1979 -0.6537
 2523TIP3    H1 7575   4.515   3.976   5.075 -0.9993 -0.3464 -1.0525
 2523TIP3    H2 7576   4.530   4.126   5.083  0.5087 -0.5451  0.4061
 2524TIP3   OH2 7577   5.410   3.390   0.483  0.3820  0.1562  0.4621
 2524TIP3    H1 7578   5.342   3.346   0.431  0.9121 -0.8800  0.6132
 2524TIP3    H2 7579   5.365   3.419   0.562  0.1962 -0.9652  0.7867
 2525TIP3   OH2 7580   1.107   5.291   4.138 -0.0475  0.1964  0.2088
 2525TIP3    H1 7581   1.191   5.308   4.179  0.5713 -0.9476 -0.5214
 2525TIP3    H2 7582   1.043   5.336   4.193  0.9205  0.1189  1.4247
 2526TIP3   OH2 7583   3.803   4.340   2.117 -0.6621  0.3406 -0.2888
 2526TIP3    H1 7584   3.755   4.413   2.156 -1.2875  0.4786 -1.2957
 2526TIP3    H2 7585   3.868   4.317   2.183 -0.7943  1.4678  0.2639
 2527TIP3   OH2 7586   3.383   1.338   2.637 -0.1348  0.3887  0.0808
 2527TIP3    H1 7587   3.432   1.383   2.568 -0.5514  0.0177 -0.4658
 2527TIP3    H2 7588   3.425   1.253   2.646 -0.1413  0.3992  0.2240
 2528TIP3   OH2 7589   3.016   1.985   1.297  0.5624 -0.0176 -0.2288
 2528TIP3    H1 7590   2.971   2.070   1.298 -2.8821 -1.6707 -0.2828
 2528TIP3    H2 7591   3.101   2.004   1.257 -0.0173  3.3842 -0.1925
 2529TIP3   OH2 7592   3.425   2.740   4.206  0.3505 -0.5628  0.4190
 2529TIP3    H1 7593   3.447   2.825   4.243  1.6959 -0.1548 -1.2248
 2529TIP3    H2 7594   3.451   2.677   4.274  1.8063  0.2041  0.5908
 2530TIP3   OH2 7595   3.691   3.381   3.398  0.0394 -0.1033 -0.0438
 2530TIP3    H1 7596   3.664   3.316   3.462  1.2310  1.1382  1.8377
 2530TIP3    H2 7597   3.706   3.461   3.450  1.5011  0.8403 -1.7855
 2531TIP3   OH2 7598   4.905   2.019   4.104  0.1142 -0.0049 -0.2615
 2531TIP3    H1 7599   4.854   2.085   4.152  0.4288  0.8832 -1.1036
 2531TIP3    H2 7600   4.979   2.068   4.069  0.7273 -0.9642 -0.3352
 2532TIP3   OH2 7601   5.534   4.607   1.074 -0.2759  0.2701  0.0559
 2532TIP3    H1 7602   5.561   4.696   1.050 -2.3006  0.6860 -0.9467
 2532TIP3    H2 7603   5.482   4.577   0.999  1.3783 -2.2828 -0.1827
 2533TIP3   OH2 7604   5.510   1.491   4.219  0.0652 -0.3091 -0.5932
 2533TIP3    H1 7605   5.446   1.518   4.284 -0.5916 -0.8304 -1.0052
 2533TIP3    H2 7606   5.564   1.568   4.204 -1.1681  0.5027 -1.0609
 2534TIP3   OH2 7607   3.176   1.386   0.944  0.0623  0.4595 -0.2281
 2534TIP3    H1 7608   3.164   1.302   0.988 -1.0994  0.5421 -0.3443
 2534TIP3    H2 7609   3.118   1.446   0.991  1.5491  1.4292  0.4255
 2535TIP3   OH2 7610   2.414   1.173   2.450  0.2370 -0.4446  0.1960
 2535TIP3    H1 7611   2.449   1.229   2.381 -2.4229  1.4145  0.2345
 2535TIP3    H2 7612   2.437   1.218   2.531  0.4740 -0.9032  0.3916
 2536TIP3   OH2 7613   6.293   2.366   1.487 -0.6428 -0.2793 -0.8311
 2536TIP3    H1 7614   6.303   2.271   1.490  2.2947 -0.1337 -2.8150
 2536TIP3    H2 7615   6.258   2.384   1.400 -0.4850  0.4962 -0.7431
 2537TIP3   OH2 7616   3.240   2.168   4.708  0.0567 -0.0122  0.0850
 2537TIP3    H1 7617   3.275   2.184   4.796  3.0434 -1.7271 -0.6248
 2537TIP3    H2 7618   3.194   2.085   4.716  0.4866 -0.2608  0.0113
 2538TIP3   OH2 7619   3.583   0.310   3.457 -0.6410  0.0281  0.2590
 2538TIP3    H1 7620   3.491   0.308   3.431 -1.0263 -0.5467  1.5768
 2538TIP3    H2 7621   3.587   0.251   3.532  0.4588  1.4059  1.3186
 2539TIP3   OH2 7622   5.073   5.318   1.960  0.0887 -0.3640  0.7136
 2539TIP3    H1 7623   5.090   5.226   1.980  1.2864 -0.5706 -1.0845
 2539TIP3    H2 7624   5.122   5.366   2.027  1.1354 -1.0291  0.4458
 2540TIP3   OH2 7625   5.297   5.139   1.617  0.2334 -0.2011 -0.0394
 2540TIP3    H1 7626   5.234   5.100   1.678  1.2908 -2.2883 -0.1839
 2540TIP3    H2 7627   5.290   5.233   1.631 -1.2787 -0.5171  1.5615
 2541TIP3   OH2 7628   2.885   4.816   0.117  0.0213 -0.1867 -0.0310
 2541TIP3    H1 7629   2.858   4.820   0.025  1.6020  0.2835 -0.4920
 2541TIP3    H2 7630   2.968   4.864   0.120 -0.2739  0.2730  1.7479
 2542TIP3   OH2 7631   3.883   3.255   0.866 -0.0995  0.5335  0.0489
 2542TIP3    H1 7632   3.929   3.172   0.851 -0.2375  0.5270 -0.3478
 2542TIP3    H2 7633   3.867   3.290   0.778 -0.1568  0.9176  0.2113
 2543TIP3   OH2 7634   4.872   4.964   2.572 -0.0372 -0.3725  0.1111
 2543TIP3    H1 7635   4.777   4.974   2.568 -0.2226 -1.5944  0.9501
 2543TIP3    H2 7636   4.889   4.881   2.528  0.6666 -0.1109 -0.1304
 2544TIP3   OH2 7637   0.877   1.582   0.643  0.2117  0.5311 -0.1932
 2544TIP3    H1 7638   0.874   1.607   0.736  0.2679  0.2230 -0.1096
 2544TIP3    H2 7639   0.893   1.664   0.597 -3.8541  1.5170 -0.2539
 2545TIP3   OH2 7640   0.444   3.359   2.789  0.2120  0.0590 -0.1675
 2545TIP3    H1 7641   0.502   3.289   2.761  0.8460  0.0647  1.0576
 2545TIP3    H2 7642   0.503   3.431   2.812 -0.2326 -0.0260  1.3577
 2546TIP3   OH2 7643   0.788   5.531   3.494  0.4625  0.2085 -0.5699
 2546TIP3    H1 7644   0.729   5.567   3.561 -0.7591  2.4193 -2.6804
 2546TIP3    H2 7645   0.743   5.453   3.462  0.0297  0.3448 -0.3060
 2547TIP3   OH2 7646   3.401   1.173   4.187  0.4662 -0.1122 -0.2770
 2547TIP3    H1 7647   3.412   1.121   4.108  1.4737  0.0017 -0.2276
 2547TIP3    H2 7648   3.371   1.258   4.156 -1.1021 -0.6761 -0.3656
 2548TIP3   OH2 7649   2.759   4.743   1.113 -0.9957  0.0899 -0.2661
 2548TIP3    H1 7650   2.680   4.698   1.082 -0.9157 -0.2857  0.0666
 2548TIP3    H2 7651   2.810   4.675   1.157  0.4058 -0.0951 -2.0785
 2549TIP3   OH2 7652   0.090   1.880   5.043  0.0696  0.0356  0.0327
 2549TIP3    H1 7653   0.001   1.861   5.073  0.0286 -0.0071 -0.1150
 2549TIP3    H2 7654   0.141   1.805   5.071  0.0249 -0.0203 -0.0375
 2550TIP3   OH2 7655   4.734   1.069   1.614  0.2269  0.3922  0.0024
 2550TIP3    H1 7656   4.813   1.015   1.617  0.5125  0.7796 -0.3660
 2550TIP3    H2 7657   4.743   1.121   1.534 -0.3179  0.5696  0.0485
 2551TIP3   OH2 7658   1.684   2.076   3.873 -0.2786  0.3102  0.3572
 2551TIP3    H1 7659   1.773   2.108   3.889 -0.1974 -0.0268  0.5965
 2551TIP3    H2 7660   1.682   2.056   3.780  0.0390 -0.0952  0.4328
 2552TIP3   OH2 7661   4.680   1.115   4.390  0.7302 -0.9991 -0.0702
 2552TIP3    H1 7662   4.710   1.198   4.354  0.0845 -0.7033  0.0605
 2552TIP3    H2 7663   4.703   1.050   4.324 -0.1526 -0.5070 -0.8851
 2553TIP3   OH2 7664   1.821   5.656   0.095 -0.1760  0.1049 -0.0211
 2553TIP3    H1 7665   1.916   5.653   0.102 -0.0259  0.6921 -1.4506
 2553TIP3    H2 7666   1.803   5.738   0.048 -1.5673  1.4205  2.5692
 2554TIP3   OH2 7667   0.070   1.352   1.503 -0.1681 -0.4842  0.1695
 2554TIP3    H1 7668   0.120   1.381   1.427  1.9781 -0.5814  1.4406
 2554TIP3    H2 7669  -0.012   1.400   1.498  0.4492  0.4790 -1.4992
 2555TIP3   OH2 7670   1.465   3.997   4.482 -0.2683 -0.5366  0.1328
 2555TIP3    H1 7671   1.374   4.009   4.455 -0.0139 -1.8478 -1.4038
 2555TIP3    H2 7672   1.460   3.961   4.570 -1.1862  0.7675  0.6403
 2556TIP3   OH2 7673   5.087   1.969   0.692 -0.2880  0.4780 -0.0930
 2556TIP3    H1 7674   5.054   2.058   0.682  0.8284  0.7848 -1.6273
 2556TIP3    H2 7675   5.028   1.915   0.639  0.1802  0.6482 -0.8148
 2557TIP3   OH2 7676   4.783   1.566   2.218  0.5423 -0.2690 -0.0159
 2557TIP3    H1 7677   4.855   1.627   2.232  0.8148 -0.8216  1.0646
 2557TIP3    H2 7678   4.823   1.493   2.171  0.3900  0.0015 -0.5809
 2558TIP3   OH2 7679   3.531   1.057   3.312 -0.3395 -0.0407 -0.1912
 2558TIP3    H1 7680   3.443   1.033   3.342 -0.5878  1.8417  0.7092
 2558TIP3    H2 7681   3.540   1.012   3.228 -2.3238  0.0331 -0.5028
 2559TIP3   OH2 7682   3.340   5.042   0.424  0.2164 -0.1633  0.3071
 2559TIP3    H1 7683   3.434   5.030   0.435  0.3207  0.5615  0.2753
 2559TIP3    H2 7684   3.330   5.135   0.406 -0.6775  0.1582  2.1875
 2560TIP3   OH2 7685   3.402   1.819   2.066 -0.4787  0.0950 -0.5518
 2560TIP3    H1 7686   3.394   1.877   2.142 -0.9275 -0.5515 -0.0873
 2560TIP3    H2 7687   3.396   1.877   1.990  1.0827  0.9010 -0.1045
 2561TIP3   OH2 7688   3.706   1.502   2.814 -0.2521 -0.4881 -0.3430
 2561TIP3    H1 7689   3.748   1.441   2.753  2.5428 -0.8916  1.7690
 2561TIP3    H2 7690   3.652   1.448   2.870 -0.8614 -0.4521 -0.8854
 2562TIP3   OH2 7691   6.277   2.496   1.755  0.1963  0.2673  0.3457
 2562TIP3    H1 7692   6.273   2.561   1.685 -2.0279 -1.1991 -0.9770
 2562TIP3    H2 7693   6.283   2.412   1.710 -2.5806 -0.8180  1.7880
 2563TIP3   OH2 7694   2.757   0.644   2.565  0.6541  0.1246  0.1638
 2563TIP3    H1 7695   2.710   0.667   2.485  0.1330  1.0778  0.7401
 2563TIP3    H2 7696   2.691   0.608   2.623  0.9874 -0.3091  0.2886
 2564TIP3   OH2 7697   5.812   0.834   4.402 -0.4979  0.0546  0.1599
 2564TIP3    H1 7698   5.822   0.909   4.344 -0.8378 -0.8960 -1.1498
 2564TIP3    H2 7699   5.893   0.784   4.391 -0.1760  0.3162  1.1970
 2565TIP3   OH2 7700   4.031   0.055   1.455  0.0424 -0.2774  0.1500
 2565TIP3    H1 7701   4.038  -0.037   1.428 -0.7619 -0.4088  0.3683
 2565TIP3    H2 7702   3.986   0.052   1.540  1.4507  0.2138  0.9508
 2566TIP3   OH2 7703   4.659   0.872   2.103 -0.9122 -0.1889 -0.1594
 2566TIP3    H1 7704   4.751   0.877   2.077 -0.4895 -1.0598  1.0406
 2566TIP3    H2 7705   4.628   0.789   2.066 -0.9158 -0.3796  0.2595
 2567TIP3   OH2 7706   0.131   0.175   1.660 -0.0414 -0.2001  0.6203
 2567TIP3    H1 7707   0.138   0.255   1.608  2.8943 -0.2196  0.8416
 2567TIP3    H2 7708   0.101   0.108   1.598  2.3013  0.0287 -0.8729
 2568TIP3   OH2 7709   5.154   1.952   2.835 -0.0596  0.1212 -0.5257
 2568TIP3    H1 7710   5.094   1.877   2.837 -1.9821  1.5413 -0.9810
 2568TIP3    H2 7711   5.210   1.936   2.760 -1.8128  0.0764 -1.8983
 2569TIP3   OH2 7712   5.698   3.416   4.399  0.2567  0.0069 -0.5374
 2569TIP3    H1 7713   5.728   3.360   4.471 -2.3769 -0.7805  0.0765
 2569TIP3    H2 7714   5.622   3.462   4.435 -0.5814  0.2875 -2.5456
 2570TIP3   OH2 7715   2.319   5.190   2.600  0.0065 -0.5941  0.0597
 2570TIP3    H1 7716   2.319   5.218   2.509 -0.5257  0.2535  0.3108
 2570TIP3    H2 7717   2.229   5.205   2.630  0.5214  0.5859  1.1462
 2571TIP3   OH2 7718   5.947   4.936   1.202 -0.1997  0.1439 -0.1302
 2571TIP3    H1 7719   6.035   4.900   1.217 -0.4493 -0.1526  0.7314
 2571TIP3    H2 7720   5.905   4.931   1.288 -1.2610 -0.2637 -0.6572
 2572TIP3   OH2 7721   3.686   4.709   3.158  0.2529  0.5823  0.0028
 2572TIP3    H1 7722   3.759   4.714   3.096  0.9415  0.6531  0.8121
 2572TIP3    H2 7723   3.611   4.741   3.109  0.7880  0.6272 -0.8016
 2573TIP3   OH2 7724   5.521   2.434   1.579 -0.7148  0.0915  0.1977
 2573TIP3    H1 7725   5.541   2.390   1.496  0.7195  0.3870  0.3667
 2573TIP3    H2 7726   5.445   2.387   1.612  1.5814 -3.3826  1.1209
 2574TIP3   OH2 7727   2.451   3.396   4.433 -0.4408 -0.5751  0.4316
 2574TIP3    H1 7728   2.399   3.385   4.354 -0.5895 -0.5807  0.5290
 2574TIP3    H2 7729   2.386   3.396   4.504 -0.9538  4.0140  0.3042
 2575TIP3   OH2 7730   5.599   4.514   1.328 -0.0501 -0.5097 -0.1078
 2575TIP3    H1 7731   5.577   4.546   1.240 -1.2458 -0.7808  0.0706
 2575TIP3    H2 7732   5.616   4.421   1.316  0.2522 -0.4522 -0.1255
 2576TIP3   OH2 7733   2.947   0.057   4.592 -0.5632  0.2819  0.2482
 2576TIP3    H1 7734   2.976   0.135   4.639  0.4138 -1.8331  3.4737
 2576TIP3    H2 7735   3.022   0.030   4.540  0.4676 -0.5009  2.0543
 2577TIP3   OH2 7736   5.540   3.153   0.963  0.6707  0.4467  0.3224
 2577TIP3    H1 7737   5.513   3.239   0.995  0.4729 -0.1093  1.7472
 2577TIP3    H2 7738   5.461   3.099   0.973  1.0136 -0.0801  0.2034
 2578TIP3   OH2 7739   0.478   1.710   4.783 -0.4964 -0.9199 -0.2178
 2578TIP3    H1 7740   0.541   1.757   4.729 -0.8137  0.1802  0.3488
 2578TIP3    H2 7741   0.442   1.776   4.841  0.3113 -2.1937  1.8183
 2579TIP3   OH2 7742   5.009   5.699   0.232  0.0709 -0.8740  0.8549
 2579TIP3    H1 7743   4.918   5.671   0.221 -1.2829  2.7507  1.4566
 2579TIP3    H2 7744   5.029   5.748   0.153  1.8660 -2.2721  0.3718
 2580TIP3   OH2 7745   3.309   4.496   4.561 -0.4797  0.2076 -0.0014
 2580TIP3    H1 7746   3.303   4.467   4.652  1.3502  0.0440  0.1088
 2580TIP3    H2 7747   3.403   4.501   4.544 -0.7872  0.9990 -1.6491
 2581TIP3   OH2 7748   1.863   1.000   5.139 -0.0384 -0.2304  0.2323
 2581TIP3    H1 7749   1.889   1.044   5.058  0.6270  0.5026  0.8246
 2581TIP3    H2 7750   1.886   1.062   5.208  1.0731 -1.5636  1.1084
 2582TIP3   OH2 7751   2.961   2.697   1.036 -0.0571  0.4916 -0.4540
 2582TIP3    H1 7752   3.022   2.645   1.087 -2.4869 -0.8818  1.2458
 2582TIP3    H2 7753   2.997   2.785   1.038  1.9200 -0.2722  0.3012
 2583TIP3   OH2 7754   1.173   1.086   1.921  0.0532 -0.2782 -0.2239
 2583TIP3    H1 7755   1.266   1.062   1.915  0.3410  0.7948 -0.3043
 2583TIP3    H2 7756   1.172   1.179   1.900 -0.6788  0.4317  2.6349
 2584TIP3   OH2 7757   0.055   4.987   3.546 -0.5677  0.7822  0.5317
 2584TIP3    H1 7758   0.080   4.902   3.582  0.1720  0.3860 -0.8509
 2584TIP3    H2 7759  -0.040   4.981   3.535 -0.6954  0.6344  1.6687
 2585TIP3   OH2 7760   4.271   5.656   2.174  0.3500  0.2717  0.6527
 2585TIP3    H1 7761   4.363   5.683   2.163  0.0515  0.9866 -0.1917
 2585TIP3    H2 7762   4.265   5.630   2.266  1.9552 -1.9891  0.2178
 2586TIP3   OH2 7763   2.442   0.663   3.393  0.1333  0.0726  0.3615
 2586TIP3    H1 7764   2.514   0.649   3.331  0.0230 -1.1412  0.4941
 2586TIP3    H2 7765   2.485   0.702   3.470  0.3185  1.2752 -0.3300
 2587TIP3   OH2 7766   5.052   0.427   1.939 -0.5301 -0.6329 -0.2804
 2587TIP3    H1 7767   5.011   0.342   1.955  0.9929 -1.9420 -2.5986
 2587TIP3    H2 7768   5.138   0.420   1.980 -0.5212 -0.1060 -0.2135
 2588TIP3   OH2 7769   3.260   0.738   3.751  0.0452  0.2341  0.1342
 2588TIP3    H1 7770   3.190   0.751   3.687  1.1460 -0.5440 -1.2743
 2588TIP3    H2 7771   3.219   0.687   3.821 -0.6005 -0.9837 -1.0810
 2589TIP3   OH2 7772   5.369   4.765   4.785 -0.3682  0.0677 -0.3722
 2589TIP3    H1 7773   5.402   4.677   4.803 -1.0036 -0.2388 -0.6535
 2589TIP3    H2 7774   5.358   4.767   4.690  1.7991  1.2457 -0.6465
 2590TIP3   OH2 7775   3.517   2.379   0.835  0.6450  0.2715 -0.1891
 2590TIP3    H1 7776   3.439   2.376   0.779  1.9990  0.5426 -2.1984
 2590TIP3    H2 7777   3.546   2.289   0.841 -0.0587  0.0978  0.9854
 2591TIP3   OH2 7778   1.540   2.214   1.431  0.1151  0.1047  0.1572
 2591TIP3    H1 7779   1.545   2.213   1.527  1.4410  0.3631  0.1065
 2591TIP3    H2 7780   1.507   2.127   1.408  1.0383 -0.4333  0.7989
 2592TIP3   OH2 7781   5.367   5.194   2.537  0.0451  0.1334  0.6206
 2592TIP3    H1 7782   5.305   5.256   2.576 -0.9418 -0.5224  0.1458
 2592TIP3    H2 7783   5.425   5.248   2.483 -0.2354  0.7376  0.9147
 2593TIP3   OH2 7784   5.195   3.987   1.611 -0.2998 -0.2389 -0.4372
 2593TIP3    H1 7785   5.266   3.951   1.665  1.3298  3.5197  0.3022
 2593TIP3    H2 7786   5.182   3.922   1.542  1.8242 -2.4368  1.0511
 2594TIP3   OH2 7787   4.844   1.392   1.703  0.5146  0.0324 -0.3259
 2594TIP3    H1 7788   4.919   1.436   1.744  2.3675 -0.2832 -3.1286
 2594TIP3    H2 7789   4.816   1.327   1.767  1.6746  1.1277  1.3780
 2595TIP3   OH2 7790   2.646   0.941   2.424 -0.2925  0.1982 -0.0199
 2595TIP3    H1 7791   2.693   0.864   2.393 -1.0908 -0.7568  1.0932
 2595TIP3    H2 7792   2.631   0.993   2.345  0.9501 -0.3760 -0.6711
 2596TIP3   OH2 7793   2.501   4.344   4.314  0.4876 -0.2212  0.2815
 2596TIP3    H1 7794   2.521   4.412   4.378 -1.4349 -1.5566  2.4649
 2596TIP3    H2 7795   2.445   4.386   4.249  1.4839  0.8717  0.1032
 2597TIP3   OH2 7796   3.616   3.627   2.749 -0.3425 -0.5625 -0.0262
 2597TIP3    H1 7797   3.683   3.559   2.746 -0.9563 -1.1494 -1.0405
 2597TIP3    H2 7798   3.556   3.598   2.817 -0.9437 -1.3977 -0.8801
 2598TIP3   OH2 7799   4.436   3.915   2.950  0.1722 -0.3753  0.0080
 2598TIP3    H1 7800   4.483   3.961   3.019  0.8858 -1.5646  0.3218
 2598TIP3    H2 7801   4.345   3.913   2.981 -0.4575  3.0081 -1.1541
 2599TIP3   OH2 7802   4.046   4.464   0.364 -0.5546  0.5217  0.6863
 2599TIP3    H1 7803   4.084   4.472   0.277 -2.8413  1.5503 -0.3075
 2599TIP3    H2 7804   4.120   4.447   0.421  1.1089  0.5206 -1.3502
 2600TIP3   OH2 7805   4.328   4.481   1.784  0.5498  0.2924  0.0207
 2600TIP3    H1 7806   4.389   4.481   1.710 -0.8893 -1.9657 -1.2615
 2600TIP3    H2 7807   4.338   4.395   1.824 -0.7658  0.4337  0.7036
 2601TIP3   OH2 7808   6.339   0.188   2.530 -0.0329 -0.0527  0.3662
 2601TIP3    H1 7809   6.299   0.173   2.445 -1.1534  1.0125  0.6743
 2601TIP3    H2 7810   6.424   0.227   2.511  0.1952 -0.8627 -0.2801
 2602TIP3   OH2 7811   1.848   1.789   1.107  0.2327  0.0049 -0.2707
 2602TIP3    H1 7812   1.842   1.784   1.202 -1.3267 -0.2223 -0.3581
 2602TIP3    H2 7813   1.873   1.701   1.080  0.3143 -0.0254 -0.0964
 2603TIP3   OH2 7814   3.969   1.699   0.136 -0.4264 -0.0665  0.0740
 2603TIP3    H1 7815   3.942   1.607   0.136 -1.1831  0.1252 -0.8205
 2603TIP3    H2 7816   3.932   1.735   0.216 -0.0469 -0.5622  0.4752
 2604TIP3   OH2 7817   4.899   4.552   2.486  0.2290 -0.5366  0.4015
 2604TIP3    H1 7818   4.917   4.484   2.551  2.0820 -0.1082  0.4047
 2604TIP3    H2 7819   4.985   4.586   2.462 -0.6115  2.1181  0.7082
 2605TIP3   OH2 7820   0.333   4.655   0.657  0.1026 -0.0580 -0.1647
 2605TIP3    H1 7821   0.331   4.641   0.562  0.6129  0.0871 -0.1976
 2605TIP3    H2 7822   0.266   4.722   0.672 -0.4316 -0.5452 -0.3388
 2606TIP3   OH2 7823   1.666   4.716   2.109  0.2946 -0.0071  0.3389
 2606TIP3    H1 7824   1.698   4.770   2.036 -1.3755  0.4404 -0.1064
 2606TIP3    H2 7825   1.737   4.655   2.127  0.4152 -0.7625 -2.3140
 2607TIP3   OH2 7826   2.694   2.657   4.694  0.2702  0.1989 -0.3533
 2607TIP3    H1 7827   2.787   2.671   4.678  0.3496  0.1070  0.0200
 2607TIP3    H2 7828   2.665   2.736   4.739  0.6422 -0.6425  1.4448
 2608TIP3   OH2 7829   4.686   5.159   3.472  0.9218  0.3498  0.0359
 2608TIP3    H1 7830   4.604   5.127   3.509  1.1363 -0.2907 -0.0297
 2608TIP3    H2 7831   4.746   5.162   3.546  0.9612  0.4035  0.0021
 2609TIP3   OH2 7832   5.001   0.545   2.857  0.0564 -0.2907 -0.1410
 2609TIP3    H1 7833   5.001   0.569   2.764  0.2395  1.1265  0.2049
 2609TIP3    H2 7834   5.090   0.561   2.886 -0.0973 -0.3552  0.3722
 2610TIP3   OH2 7835   6.312   0.612   0.831  0.1023 -0.3861  0.2242
 2610TIP3    H1 7836   6.257   0.545   0.872  1.0641 -0.8534  0.7775
 2610TIP3    H2 7837   6.333   0.576   0.745  1.2145 -1.1381  0.7991
 2611TIP3   OH2 7838   5.056   0.115   0.742  0.2432  0.1530  0.4107
 2611TIP3    H1 7839   5.007   0.033   0.749 -0.2099  0.3961  0.0672
 2611TIP3    H2 7840   5.049   0.155   0.829 -1.6599  1.0349 -0.1063
 2612TIP3   OH2 7841   4.021   3.892   0.684 -0.2308  0.3703 -0.5910
 2612TIP3    H1 7842   4.056   3.875   0.597  0.2279 -0.1576 -0.3096
 2612TIP3    H2 7843   3.999   3.806   0.719 -1.7563  0.6755 -0.7213
 2613TIP3   OH2 7844   2.093   2.990   4.876 -0.2044 -0.4949 -0.5290
 2613TIP3    H1 7845   2.183   3.021   4.868  0.1740 -1.6095 -0.7302
 2613TIP3    H2 7846   2.072   2.953   4.790 -1.4552  1.2549 -1.0270
 2614TIP3   OH2 7847   2.499   1.998   0.388 -0.3729  0.5282 -0.1704
 2614TIP3    H1 7848   2.497   1.913   0.346  0.2647  1.0183 -1.2428
 2614TIP3    H2 7849   2.587   2.031   0.371 -0.8076  1.6595 -0.3184
 2615TIP3   OH2 7850   4.830   0.873   2.373 -0.3379  0.0790 -0.0469
 2615TIP3    H1 7851   4.780   0.910   2.300  1.3471  0.9151 -0.8346
 2615TIP3    H2 7852   4.847   0.782   2.347  0.1416  0.3356 -0.6456
 2616TIP3   OH2 7853   2.854   0.197   0.907 -0.1266 -0.3935 -0.2776
 2616TIP3    H1 7854   2.895   0.282   0.917  0.8835 -0.8867 -0.1514
 2616TIP3    H2 7855   2.827   0.173   0.996 -1.5048  0.3089 -0.4766
 2617TIP3   OH2 7856   4.444   5.104   1.032 -0.2727 -0.1634  0.4462
 2617TIP3    H1 7857   4.531   5.145   1.030  0.4105 -1.4610 -3.0133
 2617TIP3    H2 7858   4.451   5.037   1.100  2.1302 -1.5216 -1.0209
 2618TIP3   OH2 7859   4.716   5.141   0.375  0.6322  0.0588  0.1755
 2618TIP3    H1 7860   4.741   5.101   0.458  0.3266 -1.8849 -0.6288
 2618TIP3    H2 7861   4.756   5.228   0.378  0.7604 -0.0194  2.2717
 2619TIP3   OH2 7862   2.112   5.439   1.824  0.3825  0.7754  0.1854
 2619TIP3    H1 7863   2.112   5.399   1.737  1.2971 -0.2095  0.6159
 2619TIP3    H2 7864   2.039   5.398   1.869  0.0837  1.0784 -0.0158
 2620TIP3   OH2 7865   0.061   0.700   3.681 -0.0350  0.2327  0.3434
 2620TIP3    H1 7866   0.069   0.776   3.624 -0.6628  0.5545  0.6789
 2620TIP3    H2 7867  -0.012   0.651   3.645  0.1345 -0.0259  0.3467
 2621TIP3   OH2 7868   5.108   3.414   3.075  0.5350  0.2904 -0.1834
 2621TIP3    H1 7869   5.156   3.390   3.154 -2.4666 -2.6067  1.0010
 2621TIP3    H2 7870   5.019   3.430   3.105 -0.0593  2.2396 -2.6530
 2622TIP3   OH2 7871   0.570   3.285   2.391  0.2175 -0.0528 -0.4023
 2622TIP3    H1 7872   0.564   3.217   2.457 -0.5937  1.8820  1.6311
 2622TIP3    H2 7873   0.482   3.293   2.356  0.1220  0.5007 -0.0417
 2623TIP3   OH2 7874   2.988   4.395   0.201  0.1661 -0.0168  0.0986
 2623TIP3    H1 7875   3.061   4.349   0.159  0.1352  0.1361 -0.1228
 2623TIP3    H2 7876   3.027   4.474   0.237 -0.3702  1.4508 -2.3849
 2624TIP3   OH2 7877   5.039   0.248   4.041 -0.0996 -0.8888 -0.0151
 2624TIP3    H1 7878   5.130   0.270   4.023 -0.3754 -0.3744 -0.8554
 2624TIP3    H2 7879   5.030   0.157   4.011 -0.2578 -0.4105 -1.4946
 2625TIP3   OH2 7880   5.558   0.044   4.355 -0.4225 -0.1216 -0.6523
 2625TIP3    H1 7881   5.510   0.034   4.438 -0.2656  1.5744 -0.3196
 2625TIP3    H2 7882   5.530  -0.030   4.302 -0.4729 -1.3089  0.9389
 2626TIP3   OH2 7883   0.930   2.543   3.366  0.4786  0.1338  0.1633
 2626TIP3    H1 7884   0.975   2.613   3.319  1.7103 -0.3570  0.5850
 2626TIP3    H2 7885   0.979   2.533   3.448 -0.4395 -0.3754  0.6661
 2627TIP3   OH2 7886   3.347   5.863   0.740  0.6633  0.0460  0.0746
 2627TIP3    H1 7887   3.257   5.831   0.735  1.2070 -1.4263 -0.9709
 2627TIP3    H2 7888   3.395   5.794   0.786  1.4373  0.3987 -0.1821
 2628TIP3   OH2 7889   4.993   3.001   3.100  0.4231  0.1355  0.6177
 2628TIP3    H1 7890   4.916   3.055   3.084  0.5425 -0.0324 -0.6012
 2628TIP3    H2 7891   4.978   2.963   3.187 -1.1053 -0.3108  0.1777
 2629TIP3   OH2 7892   1.253   2.470   3.525 -0.1159 -0.1628  0.3590
 2629TIP3    H1 7893   1.268   2.538   3.459  2.1305 -0.4638  0.4932
 2629TIP3    H2 7894   1.262   2.388   3.477  0.0435 -0.3728  0.7454
 2630TIP3   OH2 7895   6.016   2.471   4.480 -0.3009 -0.2173  0.3011
 2630TIP3    H1 7896   6.057   2.390   4.450  0.1133  0.3493 -0.7147
 2630TIP3    H2 7897   6.077   2.505   4.545 -0.8730 -1.1114  1.3370
 2631TIP3   OH2 7898   2.737   4.169   3.619 -0.5431  0.9430  0.1109
 2631TIP3    H1 7899   2.817   4.145   3.667 -0.5041 -0.7570 -0.7307
 2631TIP3    H2 7900   2.672   4.105   3.648 -0.3664 -0.5390 -2.4729
 2632TIP3   OH2 7901   0.697   4.298   3.920  0.0273  0.8506 -0.5638
 2632TIP3    H1 7902   0.636   4.344   3.863  1.1787  1.1372 -1.6242
 2632TIP3    H2 7903   0.651   4.219   3.948 -1.2399  1.6481 -0.3646
 2633TIP3   OH2 7904   2.960   0.537   0.490  0.7903  0.2698  0.0059
 2633TIP3    H1 7905   2.927   0.619   0.526  1.3903  0.1870  0.7503
 2633TIP3    H2 7906   2.986   0.485   0.566  1.5289 -0.1349 -0.5087
 2634TIP3   OH2 7907   3.010   4.564   4.929  0.1392 -0.9929 -0.0113
 2634TIP3    H1 7908   2.918   4.541   4.918  0.0560 -0.7865  0.2398
 2634TIP3    H2 7909   3.009   4.634   4.995  0.4927 -1.1625  0.1739
 2635TIP3   OH2 7910   3.542   2.474   5.130  0.0095 -0.1089 -0.1114
 2635TIP3    H1 7911   3.581   2.462   5.043 -0.5403  1.0904 -0.5364
 2635TIP3    H2 7912   3.449   2.491   5.113 -0.0263  0.5443  0.6846
 2636TIP3   OH2 7913   4.680   5.331   1.751  0.2037 -0.1617 -0.2378
 2636TIP3    H1 7914   4.734   5.395   1.797  1.8328 -0.9865 -0.8942
 2636TIP3    H2 7915   4.683   5.253   1.807 -0.3469 -0.2153 -0.2722
 2637TIP3   OH2 7916   4.756   3.326   3.952  0.3566  0.1536  0.1359
 2637TIP3    H1 7917   4.826   3.262   3.965  0.1396 -0.0214  0.4684
 2637TIP3    H2 7918   4.781   3.374   3.872  0.3343 -0.5902 -0.3234
 2638TIP3   OH2 7919   3.644   2.985   1.386  0.3480  0.2651  0.8365
 2638TIP3    H1 7920   3.736   3.004   1.407  0.6135 -0.0867  0.0249
 2638TIP3    H2 7921   3.616   2.926   1.456  1.4461 -1.5115 -0.1546
 2639TIP3   OH2 7922   2.117   4.054   4.206 -0.4096 -0.4314  0.7392
 2639TIP3    H1 7923   2.046   4.116   4.223  2.0083  3.3891 -1.4774
 2639TIP3    H2 7924   2.187   4.080   4.265  0.8881 -0.5983 -0.6506
 2640TIP3   OH2 7925   4.037   2.475   2.866 -0.1595  0.2234  0.6345
 2640TIP3    H1 7926   3.980   2.479   2.943 -0.7719 -1.0897  0.2725
 2640TIP3    H2 7927   4.004   2.401   2.815  2.4929 -1.2839  0.9079
 2641TIP3   OH2 7928   0.864   1.984   0.332 -0.0325  0.0140 -0.6454
 2641TIP3    H1 7929   0.808   2.018   0.402 -1.7319 -1.8527 -0.9810
 2641TIP3    H2 7930   0.887   2.061   0.280 -1.2418  1.0337  0.2649
 2642TIP3   OH2 7931   0.964   3.641   3.469  0.1039  0.0440  0.3792
 2642TIP3    H1 7932   1.010   3.700   3.410  0.6200 -0.1320  0.6036
 2642TIP3    H2 7933   0.936   3.697   3.542  0.7949 -0.0257  0.7044
 2643TIP3   OH2 7934   3.223   3.894   0.020 -0.0106  0.2419  0.0138
 2643TIP3    H1 7935   3.239   3.982   0.055 -1.3004  0.5659 -0.1397
 2643TIP3    H2 7936   3.216   3.838   0.097  1.8938  0.0474  0.0796
 2644TIP3   OH2 7937   0.115   2.354   3.420  0.0730  0.4289  0.2824
 2644TIP3    H1 7938   0.131   2.437   3.465  1.6666  0.1441  0.3055
 2644TIP3    H2 7939   0.147   2.288   3.480 -0.6363 -0.1767  0.0079
 2645TIP3   OH2 7940   5.534   1.895   3.941  0.2785 -0.0917 -0.5754
 2645TIP3    H1 7941   5.488   1.847   3.872  0.8188  0.3133 -1.2423
 2645TIP3    H2 7942   5.581   1.964   3.894 -0.5594  1.1634  0.3638
 2646TIP3   OH2 7943   1.159   0.196   3.170  0.0358 -0.5291  0.4396
 2646TIP3    H1 7944   1.135   0.198   3.077 -0.7144 -0.6989  0.6216
 2646TIP3    H2 7945   1.254   0.196   3.170  0.0502  0.3105 -0.3168
 2647TIP3   OH2 7946   0.170   5.112   1.746  0.3045  0.2057  0.4212
 2647TIP3    H1 7947   0.243   5.167   1.774  0.4712  0.9928 -1.3732
 2647TIP3    H2 7948   0.107   5.174   1.709 -0.4687 -0.6214  0.3306
 2648TIP3   OH2 7949   5.631   0.834   2.414  0.0424  0.1092 -0.2502
 2648TIP3    H1 7950   5.577   0.913   2.425 -0.4594 -0.1346 -0.8806
 2648TIP3    H2 7951   5.721   0.867   2.417 -0.1468  1.0992 -2.8485
 2649TIP3   OH2 7952   2.224   3.063   1.752 -0.0374  0.5194  0.2326
 2649TIP3    H1 7953   2.173   2.987   1.724 -1.1640  1.1788  0.4331
 2649TIP3    H2 7954   2.166   3.138   1.735  2.0882  1.6849 -2.7281
 2650TIP3   OH2 7955   5.324   1.516   3.954  0.0320 -0.1278 -0.3730
 2650TIP3    H1 7956   5.269   1.570   4.012  0.6707 -0.7692  0.8744
 2650TIP3    H2 7957   5.389   1.477   4.013  0.5559 -1.0016 -1.4998
 2651TIP3   OH2 7958   4.132   5.425   3.697  0.0300 -0.1555 -0.2035
 2651TIP3    H1 7959   4.134   5.396   3.605  0.0478  0.4152 -0.3888
 2651TIP3    H2 7960   4.084   5.507   3.694  0.0006 -0.1558  0.3109
 2652TIP3   OH2 7961   4.888   3.350   1.784 -0.1210  0.2050  1.1373
 2652TIP3    H1 7962   4.822   3.394   1.838 -0.3968 -0.6010  1.4728
 2652TIP3    H2 7963   4.958   3.328   1.845 -0.5133 -0.8703  1.2200
 2653TIP3   OH2 7964   0.627   5.641   3.694 -0.3906  0.3488 -0.3338
 2653TIP3    H1 7965   0.643   5.733   3.672  2.7571 -0.2711 -1.2372
 2653TIP3    H2 7966   0.614   5.641   3.789 -0.0113  1.7172 -0.2558
 2654TIP3   OH2 7967   0.960   0.917   1.616 -0.3934 -0.5647 -0.1923
 2654TIP3    H1 7968   0.878   0.944   1.658  0.1782  0.6402  0.1877
 2654TIP3    H2 7969   0.963   0.969   1.536 -0.6942 -1.6768 -0.9365
 2655TIP3   OH2 7970   5.842   2.585   1.166 -0.3529  0.0889 -0.5905
 2655TIP3    H1 7971   5.811   2.543   1.086  0.9452  0.9214 -1.5615
 2655TIP3    H2 7972   5.898   2.520   1.208  0.5121  0.3165 -1.3653
 2656TIP3   OH2 7973   1.453   5.396   0.435 -0.8302 -0.3843  0.0012
 2656TIP3    H1 7974   1.486   5.457   0.369 -0.1906  0.8192  1.3551
 2656TIP3    H2 7975   1.520   5.328   0.441  0.0482  0.4959  0.6734
 2657TIP3   OH2 7976   1.732   3.171   2.109 -0.9597 -0.2161 -0.2099
 2657TIP3    H1 7977   1.654   3.124   2.138 -1.3307  0.5778  0.1114
 2657TIP3    H2 7978   1.722   3.177   2.014 -0.0898 -2.2073 -0.4703
 2658TIP3   OH2 7979   1.548   0.652   4.187 -0.1742  0.0595 -0.6382
 2658TIP3    H1 7980   1.627   0.625   4.232 -0.3239 -1.2861 -1.1312
 2658TIP3    H2 7981   1.559   0.619   4.097 -1.0492  0.3350 -0.8601
 2659TIP3   OH2 7982   4.925   2.975   3.368 -0.2536 -0.3379  0.1981
 2659TIP3    H1 7983   4.869   3.049   3.392  0.2106  0.0747  0.0238
 2659TIP3    H2 7984   5.014   3.003   3.392  0.2713  0.1583 -2.0425
 2660TIP3   OH2 7985   1.656   0.771   4.635 -0.0110 -0.4215  0.0294
 2660TIP3    H1 7986   1.653   0.844   4.698  1.9247  0.8409 -1.2289
 2660TIP3    H2 7987   1.608   0.701   4.677 -1.3313  1.3437  1.6387
 2661TIP3   OH2 7988   0.402   2.632   3.405 -0.3423 -0.2955 -0.2493
 2661TIP3    H1 7989   0.436   2.554   3.448  0.6445 -0.0877 -0.6341
 2661TIP3    H2 7990   0.372   2.688   3.477  1.3014  0.0489  0.1980
 2662TIP3   OH2 7991   6.277   5.937   2.492 -0.1801  0.2017  0.0584
 2662TIP3    H1 7992   6.313   5.946   2.580  0.9668 -1.2458 -0.2236
 2662TIP3    H2 7993   6.293   6.022   2.451  1.5066  0.1281  0.4878
 2663TIP3   OH2 7994   5.468   3.870   4.044 -1.0673  0.0899 -0.5812
 2663TIP3    H1 7995   5.443   3.947   4.096 -1.5747  0.8329 -1.8738
 2663TIP3    H2 7996   5.396   3.858   3.983  0.5065  0.7047 -2.6814
 2664TIP3   OH2 7997   4.053   0.594   2.028 -0.6768  0.2309 -0.0502
 2664TIP3    H1 7998   4.120   0.658   2.003  1.0704 -0.6555  2.0409
 2664TIP3    H2 7999   3.976   0.648   2.049  0.3686  1.5710  0.4978
 2665TIP3   OH2 8000   5.539   0.117   1.561 -0.3893  0.8236 -0.4497
 2665TIP3    H1 8001   5.482   0.058   1.511 -2.8025  1.1410  1.6959
 2665TIP3    H2 8002   5.567   0.066   1.636 -0.4368  1.6412  0.1373
 2666TIP3   OH2 8003   3.289   2.445   0.685  0.3503  0.0208 -0.2824
 2666TIP3    H1 8004   3.269   2.523   0.735 -0.5264 -0.9104  0.8777
 2666TIP3    H2 8005   3.204   2.406   0.665  0.7011  0.0713 -2.0704
 2667TIP3   OH2 8006   2.824   0.779   2.258 -0.4316  0.1040 -0.6287
 2667TIP3    H1 8007   2.910   0.816   2.240 -0.1945  0.6110  1.3126
 2667TIP3    H2 8008   2.839   0.684   2.260 -0.0416  0.1573 -0.8662
 2668TIP3   OH2 8009   3.583   4.313   1.456  0.1833 -0.1851  0.0874
 2668TIP3    H1 8010   3.654   4.377   1.449 -0.0324 -0.0359 -0.8486
 2668TIP3    H2 8011   3.584   4.266   1.372 -1.1720  0.1951 -0.1634
 2669TIP3   OH2 8012   0.573   1.047   0.523  0.7368  0.2099 -0.2519
 2669TIP3    H1 8013   0.634   1.006   0.585  1.9589  1.3303 -0.6763
 2669TIP3    H2 8014   0.618   1.042   0.439 -0.2578  0.0502 -0.7783
 2670TIP3   OH2 8015   1.021   4.054   2.624  0.6236 -0.2683 -0.3929
 2670TIP3    H1 8016   0.969   3.993   2.572  0.1413 -0.6008  0.4614
 2670TIP3    H2 8017   0.967   4.071   2.701  0.5834  1.5254 -0.7794
 2671TIP3   OH2 8018   3.636   0.445   0.677  0.3106 -0.0675 -0.8613
 2671TIP3    H1 8019   3.711   0.473   0.625  1.4833 -1.1180  0.1918
 2671TIP3    H2 8020   3.673   0.388   0.745 -1.4397 -0.6127 -0.2941
 2672TIP3   OH2 8021   2.723   5.798   4.435 -0.2785  0.0088 -0.4955
 2672TIP3    H1 8022   2.795   5.857   4.458 -0.9685  0.7787 -0.2257
 2672TIP3    H2 8023   2.765   5.723   4.394  0.5566  1.1853 -1.8808
 2673TIP3   OH2 8024   5.058   3.279   1.988  0.4303  0.6482 -0.0173
 2673TIP3    H1 8025   5.037   3.189   2.012 -1.6572  1.3300  0.9152
 2673TIP3    H2 8026   5.151   3.276   1.963  1.4301 -1.1122  3.3533
 2674TIP3   OH2 8027   3.846   4.067   4.270 -0.0672  0.2529 -0.2656
 2674TIP3    H1 8028   3.824   4.153   4.236  0.7843  0.9454  0.8304
 2674TIP3    H2 8029   3.856   4.081   4.365  1.6361 -0.6937 -0.2658
 2675TIP3   OH2 8030   4.174   0.456   2.855 -0.2124 -0.0342  0.6609
 2675TIP3    H1 8031   4.246   0.407   2.817  1.7966  2.4791  0.9190
 2675TIP3    H2 8032   4.198   0.548   2.841 -2.5370  0.9272  2.3200
 2676TIP3   OH2 8033   3.472   3.998   3.199  0.0725  0.6494  0.6261
 2676TIP3    H1 8034   3.474   4.092   3.213  2.3287  0.7037  0.3776
 2676TIP3    H2 8035   3.564   3.972   3.197 -0.2697 -1.0002 -2.9424
 2677TIP3   OH2 8036   2.282   2.784   5.159  0.3678 -1.1269 -0.3412
 2677TIP3    H1 8037   2.287   2.688   5.158  1.2525 -1.2102  2.2418
 2677TIP3    H2 8038   2.374   2.812   5.160  0.1314 -0.3357  0.1374
 2678TIP3   OH2 8039   2.077   1.418   1.567  0.2211  0.1833  0.2669
 2678TIP3    H1 8040   1.998   1.371   1.541  0.2470  0.0139  0.4853
 2678TIP3    H2 8041   2.125   1.355   1.623  1.6569 -0.5926 -1.7207
 2679TIP3   OH2 8042   4.379   3.009   1.928  0.2397  0.4130 -0.3662
 2679TIP3    H1 8043   4.293   3.024   1.891 -0.5017  0.5664  1.3003
 2679TIP3    H2 8044   4.430   3.086   1.905 -0.9384  1.6519  0.9317
 2680TIP3   OH2 8045   4.232   3.215   0.323  0.4899  0.0137 -0.1654
 2680TIP3    H1 8046   4.177   3.293   0.314  1.1639  0.4326 -0.7799
 2680TIP3    H2 8047   4.290   3.235   0.396 -1.4988 -1.2755  1.9375
 2681TIP3   OH2 8048   5.982   3.386   4.623 -1.1625  0.3391  0.0053
 2681TIP3    H1 8049   5.981   3.390   4.718  1.7754  3.1982  0.1137
 2681TIP3    H2 8050   5.951   3.473   4.595  0.6287  0.5617 -1.4716
 2682TIP3   OH2 8051   0.089   4.702   2.612 -0.0556  0.1267 -0.4494
 2682TIP3    H1 8052   0.123   4.620   2.576 -0.3720  0.2598 -1.0490
 2682TIP3    H2 8053   0.109   4.768   2.546  0.4010  0.5873  0.1246
 2683TIP3   OH2 8054   5.042   1.617   3.141  0.0655 -0.0310 -0.5018
 2683TIP3    H1 8055   4.972   1.664   3.185 -2.0115  0.5164 -4.0382
 2683TIP3    H2 8056   4.997   1.548   3.092  2.0619 -0.1506 -2.3033
 2684TIP3   OH2 8057   1.140   3.867   4.714 -0.6787  0.4091  0.2910
 2684TIP3    H1 8058   1.076   3.864   4.644 -0.8055 -1.6318  0.4424
 2684TIP3    H2 8059   1.095   3.912   4.786 -0.8785  1.6405 -0.5767
 2685TIP3   OH2 8060   5.785   4.592   3.578  0.3455  0.1633 -0.0413
 2685TIP3    H1 8061   5.720   4.588   3.648 -0.2011 -1.2523 -0.5787
 2685TIP3    H2 8062   5.734   4.607   3.499  0.6914 -0.5314 -0.4102
 2686TIP3   OH2 8063   0.345   2.166   0.807 -0.2167 -0.4550  0.1855
 2686TIP3    H1 8064   0.311   2.081   0.782  2.9005 -2.2094  1.3308
 2686TIP3    H2 8065   0.334   2.170   0.902  0.7030 -0.1576  0.2973
 2687TIP3   OH2 8066   5.735   0.272   1.451  0.0715 -0.0870  0.4208
 2687TIP3    H1 8067   5.685   0.222   1.515  1.5554  0.3422  1.9816
 2687TIP3    H2 8068   5.819   0.227   1.444 -0.1230 -0.2666 -1.4435
 2688TIP3   OH2 8069   0.417   3.715   0.166 -0.1972  0.2678 -0.4395
 2688TIP3    H1 8070   0.463   3.734   0.084  1.6441 -1.2006  0.1967
 2688TIP3    H2 8071   0.409   3.801   0.209  0.1221  0.8448 -1.4891
 2689TIP3   OH2 8072   3.966   2.615   2.407 -0.4598  0.4630  0.2103
 2689TIP3    H1 8073   3.943   2.572   2.325 -0.4670  0.6380  0.1211
 2689TIP3    H2 8074   4.060   2.597   2.418 -0.6974 -0.5575  0.7555
 2690TIP3   OH2 8075   6.282   1.650   4.297  0.3611 -0.4023 -0.3752
 2690TIP3    H1 8076   6.224   1.690   4.233 -2.2498 -0.8089  1.5725
 2690TIP3    H2 8077   6.326   1.724   4.339  0.1921  0.0102 -0.9140
 2691TIP3   OH2 8078   0.805   0.684   2.270  0.1220 -0.1426 -0.0628
 2691TIP3    H1 8079   0.759   0.768   2.263  1.7328  0.8521  0.7761
 2691TIP3    H2 8080   0.754   0.635   2.336 -1.2718 -0.1747 -1.1135
 2692TIP3   OH2 8081   0.900   1.085   1.996  0.2067  0.1800 -0.1311
 2692TIP3    H1 8082   0.988   1.066   1.962 -0.4712  0.5146 -2.2753
 2692TIP3    H2 8083   0.908   1.076   2.091  2.6392  0.6016 -0.2323
 2693TIP3   OH2 8084   2.608   5.394   2.182  0.0487 -0.1837 -0.4162
 2693TIP3    H1 8085   2.596   5.394   2.088  0.9375  1.7246 -0.5745
 2693TIP3    H2 8086   2.604   5.301   2.207  0.5331 -0.7847 -2.4057
 2694TIP3   OH2 8087   1.895   3.653   2.568 -0.2825 -0.0242  0.0004
 2694TIP3    H1 8088   1.846   3.668   2.648 -0.0925 -1.2637  0.3712
 2694TIP3    H2 8089   1.889   3.559   2.553  0.9008 -0.0228 -0.6442
 2695TIP3   OH2 8090   3.373   4.763   2.646  0.5052  0.2281 -0.1953
 2695TIP3    H1 8091   3.393   4.700   2.716  0.5600 -1.2573 -1.4991
 2695TIP3    H2 8092   3.322   4.831   2.689  1.5026 -0.0496  1.5279
 2696TIP3   OH2 8093   1.532   3.571   0.963  0.2999  0.0630 -0.2580
 2696TIP3    H1 8094   1.461   3.514   0.933  0.6844 -0.8862  0.5929
 2696TIP3    H2 8095   1.606   3.549   0.908 -0.0994  1.2147 -1.2983
 2697TIP3   OH2 8096   0.927   2.229   3.662 -0.5137  0.3228 -0.1436
 2697TIP3    H1 8097   0.930   2.324   3.646 -0.2517  0.1608 -1.1248
 2697TIP3    H2 8098   0.996   2.214   3.727  1.2312  0.4864 -1.8548
 2698TIP3   OH2 8099   6.145   0.034   1.147 -0.1423 -0.3885  0.2076
 2698TIP3    H1 8100   6.187   0.116   1.172 -1.1744 -0.9360  4.7664
 2698TIP3    H2 8101   6.069   0.028   1.204 -0.7726 -3.9733 -0.7433
 2699TIP3   OH2 8102   1.721   5.499   2.907  0.6210  0.0487 -0.3351
 2699TIP3    H1 8103   1.676   5.553   2.972 -1.2261 -0.8525 -0.7942
 2699TIP3    H2 8104   1.760   5.562   2.846 -0.2491  0.8735 -0.0599
 2700TIP3   OH2 8105   0.232   5.008   4.500 -0.1165  0.4995  0.3950
 2700TIP3    H1 8106   0.279   4.948   4.557 -2.2782  0.8337  2.7083
 2700TIP3    H2 8107   0.189   4.952   4.436  0.5422 -0.1040  0.4715
 2701TIP3   OH2 8108   4.295   1.107   1.338 -0.3373 -0.2117  0.0393
 2701TIP3    H1 8109   4.362   1.048   1.304 -0.1159  0.1630 -0.1800
 2701TIP3    H2 8110   4.230   1.049   1.378 -0.1544 -0.6068 -0.2288
 2702TIP3   OH2 8111   5.131   5.178   3.131 -0.6711 -0.2310 -0.1869
 2702TIP3    H1 8112   5.179   5.239   3.075  1.2570 -0.9274  0.6239
 2702TIP3    H2 8113   5.061   5.231   3.169 -0.2861  0.9554 -1.0823
 2703TIP3   OH2 8114   2.994   1.533   4.238 -0.4983  0.3023  0.1703
 2703TIP3    H1 8115   2.932   1.473   4.280 -0.8902  1.3226  1.0910
 2703TIP3    H2 8116   3.046   1.477   4.181 -1.3000 -0.8076  0.4883
 2704TIP3   OH2 8117   5.775   2.931   0.341  0.8346  0.0157 -0.4672
 2704TIP3    H1 8118   5.803   3.022   0.351 -1.0617  0.4904  1.1842
 2704TIP3    H2 8119   5.855   2.884   0.317  1.6552  2.2429 -2.3983
 2705TIP3   OH2 8120   3.910   3.325   3.868 -0.3098 -0.1564  0.2712
 2705TIP3    H1 8121   3.858   3.396   3.829 -2.3862 -1.9028 -0.3396
 2705TIP3    H2 8122   3.852   3.284   3.932  0.8197 -1.3363  0.5955
 2706TIP3   OH2 8123   3.102   0.611   2.789  0.2340 -0.0967 -0.8018
 2706TIP3    H1 8124   3.169   0.615   2.721  0.7789  0.2524 -0.2466
 2706TIP3    H2 8125   3.031   0.666   2.755  2.0784  3.4412  0.5993
 2707TIP3   OH2 8126   4.320   3.212   1.052  0.1607  0.2472  0.0283
 2707TIP3    H1 8127   4.265   3.275   1.097 -0.0966  0.1870 -0.2005
 2707TIP3    H2 8128   4.303   3.227   0.959  1.4861  1.1089 -0.1120
 2708TIP3   OH2 8129   1.153   2.896   3.997 -0.1804 -0.2938  0.0782
 2708TIP3    H1 8130   1.235   2.860   4.032  1.0967 -0.2484 -2.6048
 2708TIP3    H2 8131   1.181   2.968   3.940 -2.1320 -0.1012 -0.7103
 2709TIP3   OH2 8132   0.391   1.846   1.269 -0.3884 -0.3891 -0.2216
 2709TIP3    H1 8133   0.481   1.829   1.297 -0.0175  0.5013 -0.8386
 2709TIP3    H2 8134   0.345   1.764   1.286  0.2896 -0.5319  1.0692
 2710TIP3   OH2 8135   6.361   4.252   0.394 -0.5411  0.4182 -0.4731
 2710TIP3    H1 8136   6.406   4.175   0.361  1.0573  0.7455  0.8455
 2710TIP3    H2 8137   6.272   4.245   0.359 -0.7704 -2.5630  0.4742
 2711TIP3   OH2 8138   2.213   4.990   2.923  0.5377 -0.0804  0.7512
 2711TIP3    H1 8139   2.178   4.969   2.836  0.1172 -0.5833  1.0343
 2711TIP3    H2 8140   2.262   4.912   2.948 -0.4055 -0.4600  1.4967
 2712TIP3   OH2 8141   1.145   1.247   3.940 -0.3804  0.1463  0.0279
 2712TIP3    H1 8142   1.133   1.154   3.921 -0.7963  0.1884  0.0778
 2712TIP3    H2 8143   1.110   1.292   3.864 -1.0120  0.2831  0.3965
 2713TIP3   OH2 8144   2.481   3.484   0.151  0.2373 -0.2467  0.4957
 2713TIP3    H1 8145   2.547   3.415   0.158  1.0743  0.3890 -0.7622
 2713TIP3    H2 8146   2.406   3.441   0.110  0.6418 -0.5012  0.0093
 2714TIP3   OH2 8147   6.296   5.759   4.392 -0.0726  0.4946  0.0554
 2714TIP3    H1 8148   6.339   5.740   4.308  2.4751  2.2915  0.8345
 2714TIP3    H2 8149   6.245   5.680   4.411  2.3267 -1.5547 -1.3605
 2715TIP3   OH2 8150   0.078   3.785   4.392 -0.2173  0.2783  0.2790
 2715TIP3    H1 8151   0.138   3.860   4.394  0.2371 -0.0752  2.1760
 2715TIP3    H2 8152   0.048   3.777   4.483 -2.5718 -0.0331 -0.4662
 2716TIP3   OH2 8153   5.279   2.174   1.079  0.1073 -0.8244 -0.0225
 2716TIP3    H1 8154   5.289   2.097   1.023 -0.9282 -0.3353 -0.9341
 2716TIP3    H2 8155   5.366   2.214   1.080 -0.0247 -0.3532 -2.0710
 2717TIP3   OH2 8156   0.004   2.441   2.383 -0.6560  0.0365 -0.1875
 2717TIP3    H1 8157   0.022   2.419   2.474  1.9167  1.1837 -0.3428
 2717TIP3    H2 8158   0.030   2.363   2.334  2.2465  0.8907 -0.2084
 2718TIP3   OH2 8159   0.321   4.352   5.131 -0.7744  0.0979 -0.0382
 2718TIP3    H1 8160   0.330   4.419   5.063 -0.8020  0.0612 -0.0781
 2718TIP3    H2 8161   0.229   4.356   5.157 -0.8318 -0.0867 -0.2096
 2719TIP3   OH2 8162   0.566   2.394   1.179 -0.6330 -0.5602  0.3984
 2719TIP3    H1 8163   0.594   2.430   1.264 -2.1324 -0.0841  0.7191
 2719TIP3    H2 8164   0.499   2.330   1.201  0.3597 -1.8872 -0.3297
 2720TIP3   OH2 8165   2.768   2.761   1.979  0.9631 -0.3400 -0.1218
 2720TIP3    H1 8166   2.807   2.808   2.052 -1.8458  0.4833  0.9660
 2720TIP3    H2 8167   2.782   2.669   1.999  1.0742 -0.0984  0.9738
 2721TIP3   OH2 8168   5.552   4.542   0.233  0.0004  0.4528 -0.2776
 2721TIP3    H1 8169   5.472   4.492   0.244  0.1373  0.5401  1.2855
 2721TIP3    H2 8170   5.606   4.489   0.173  1.0761 -2.5137  2.9774
 2722TIP3   OH2 8171   4.948   2.336   2.293 -0.0854 -0.2504 -0.3054
 2722TIP3    H1 8172   4.881   2.359   2.228  0.7467 -0.7922 -1.3960
 2722TIP3    H2 8173   5.022   2.307   2.241  0.3839 -1.3484  0.9260
 2723TIP3   OH2 8174   2.388   2.002   3.657  0.5541  0.0897  0.1409
 2723TIP3    H1 8175   2.481   1.987   3.645  1.0232  2.4389  0.2961
 2723TIP3    H2 8176   2.378   2.014   3.752 -0.1223 -1.2103  0.2579
 2724TIP3   OH2 8177   0.309   3.426   2.307 -0.0898  0.0977  0.5200
 2724TIP3    H1 8178   0.261   3.348   2.278  1.7620 -0.6682 -0.6507
 2724TIP3    H2 8179   0.271   3.446   2.393 -1.7266 -1.1043  0.1441
 2725TIP3   OH2 8180   2.053   4.164   2.710 -0.0847 -0.4905  0.3744
 2725TIP3    H1 8181   2.087   4.075   2.700  0.5778 -0.1134 -1.0874
 2725TIP3    H2 8182   2.094   4.197   2.790  0.6146 -1.0891  0.2691
 2726TIP3   OH2 8183   5.311   1.494   0.852  0.8423  0.1268  0.3178
 2726TIP3    H1 8184   5.295   1.572   0.905 -0.2056  0.2419 -0.1569
 2726TIP3    H2 8185   5.343   1.429   0.914 -0.8774  0.0856  1.2203
 2727TIP3   OH2 8186   6.182   5.744   4.052 -0.6912  0.2254 -0.0677
 2727TIP3    H1 8187   6.166   5.838   4.052  1.1583  0.6205 -2.0652
 2727TIP3    H2 8188   6.257   5.732   4.109  0.6474  0.3551 -1.7306
 2728TIP3   OH2 8189   3.988   3.317   0.334  0.1313  0.0739  0.1279
 2728TIP3    H1 8190   3.926   3.247   0.355 -0.2589 -0.3515 -2.1868
 2728TIP3    H2 8191   3.933   3.392   0.312  0.5284  0.6092  0.8899
 2729TIP3   OH2 8192   5.509   1.352   0.350  0.2281 -0.3535  0.0306
 2729TIP3    H1 8193   5.484   1.322   0.437 -2.2139 -2.7024 -1.3307
 2729TIP3    H2 8194   5.480   1.444   0.347 -2.1271 -1.0011  0.8691
 2730TIP3   OH2 8195   3.846   3.458   2.732 -0.5528 -0.3455  0.0775
 2730TIP3    H1 8196   3.813   3.395   2.667  2.6493 -1.8150 -0.2863
 2730TIP3    H2 8197   3.867   3.536   2.681 -2.7366  0.4091  0.2328
 2731TIP3   OH2 8198   0.655   5.664   1.659 -0.0551 -0.0985 -0.1690
 2731TIP3    H1 8199   0.724   5.700   1.603  2.3598 -1.1033  1.9478
 2731TIP3    H2 8200   0.574   5.699   1.623  1.5615  1.5358 -2.5261
 2732TIP3   OH2 8201   2.727   4.362   0.329 -0.5914 -0.1949 -0.5347
 2732TIP3    H1 8202   2.810   4.329   0.295 -1.1761 -1.7988 -0.5009
 2732TIP3    H2 8203   2.714   4.446   0.284  2.5902  1.7916  1.8692
 2733TIP3   OH2 8204   0.357   1.989   2.807  0.2441 -0.0748  0.6109
 2733TIP3    H1 8205   0.425   1.952   2.864  0.1600 -0.3961  0.5018
 2733TIP3    H2 8206   0.402   2.059   2.760  0.0018  1.0693  2.0133
 2734TIP3   OH2 8207   2.255   1.687   4.143 -0.1770 -0.1599  0.0332
 2734TIP3    H1 8208   2.291   1.624   4.205  0.0327 -0.8829 -0.7889
 2734TIP3    H2 8209   2.328   1.745   4.123 -0.3422  0.2877  0.7174
 2735TIP3   OH2 8210   5.666   1.237   3.038 -0.0696  0.7886 -0.0994
 2735TIP3    H1 8211   5.652   1.229   3.133  0.9860  1.1557  0.0994
 2735TIP3    H2 8212   5.578   1.232   3.001 -0.3777 -1.0143  0.7673
 2736TIP3   OH2 8213   0.647   2.094   1.314 -0.2205  0.3646 -0.4233
 2736TIP3    H1 8214   0.692   2.109   1.397  0.4076  0.8964 -0.8465
 2736TIP3    H2 8215   0.558   2.127   1.329 -0.9856 -2.0285  0.8892
 2737TIP3   OH2 8216   2.314   5.371   2.892 -0.2823  0.2704  0.2212
 2737TIP3    H1 8217   2.332   5.279   2.911 -0.6634 -0.3455 -2.0870
 2737TIP3    H2 8218   2.390   5.418   2.926  0.2666 -0.9706  0.7739
 2738TIP3   OH2 8219   4.860   3.647   1.123  0.0434 -0.0227 -0.5186
 2738TIP3    H1 8220   4.947   3.657   1.161 -0.1847 -0.7439  0.2058
 2738TIP3    H2 8221   4.800   3.643   1.198 -0.5390 -0.2758 -0.9855
 2739TIP3   OH2 8222   3.072   3.421   0.666 -0.1200 -0.4648  0.1563
 2739TIP3    H1 8223   3.025   3.390   0.744 -0.2779  0.3269  0.3864
 2739TIP3    H2 8224   3.147   3.361   0.658 -0.7005 -1.2243  0.2704
 2740TIP3   OH2 8225   2.277   1.743   1.631  0.5048  0.0339  0.7999
 2740TIP3    H1 8226   2.348   1.802   1.607 -0.3162  1.1863  1.1363
 2740TIP3    H2 8227   2.207   1.762   1.569  0.1449 -0.4211  1.0569
 2741TIP3   OH2 8228   0.884   2.222   0.217  0.1572 -0.3180  0.0861
 2741TIP3    H1 8229   0.793   2.217   0.189  0.3218 -1.3050 -0.2825
 2741TIP3    H2 8230   0.930   2.260   0.142  0.4113 -1.9138 -0.5899
 2742TIP3   OH2 8231   2.497   0.197   4.213  0.4414  0.2898  0.3660
 2742TIP3    H1 8232   2.453   0.165   4.135 -1.6912  0.8468  1.2707
 2742TIP3    H2 8233   2.590   0.180   4.197 -0.0595 -0.8130 -1.6916
 2743TIP3   OH2 8234   2.644   4.802   3.218 -0.1746  0.4100 -0.4412
 2743TIP3    H1 8235   2.597   4.719   3.228 -0.7323  0.7410 -0.2543
 2743TIP3    H2 8236   2.730   4.778   3.183  0.7850 -0.5362  2.3406
 2744TIP3   OH2 8237   4.360   2.933   3.271 -0.5103  0.1215 -0.0071
 2744TIP3    H1 8238   4.389   3.012   3.225 -0.3446 -0.1719 -0.4109
 2744TIP3    H2 8239   4.269   2.950   3.294 -0.3858  0.5537  0.1783
 2745TIP3   OH2 8240   1.213   4.417   2.268 -0.5622 -0.5603 -0.5513
 2745TIP3    H1 8241   1.270   4.469   2.211 -0.0718  0.3498  0.7255
 2745TIP3    H2 8242   1.273   4.378   2.331 -1.2471 -0.3409  0.2454
 2746TIP3   OH2 8243   3.904   1.731   1.684  0.5100 -0.2295 -0.0348
 2746TIP3    H1 8244   3.849   1.776   1.619  1.5912 -0.1670 -0.9439
 2746TIP3    H2 8245   3.992   1.733   1.646  1.3586  0.6140  1.8707
 2747TIP3   OH2 8246   4.525   5.288   3.154 -0.2470  0.4036 -0.8240
 2747TIP3    H1 8247   4.502   5.331   3.072 -4.5270  0.3179  0.0771
 2747TIP3    H2 8248   4.556   5.360   3.210  0.9929  0.7574 -1.9310
 2748TIP3   OH2 8249   6.222   1.796   0.106  0.5696 -0.0942 -0.0112
 2748TIP3    H1 8250   6.186   1.760   0.025 -0.8665 -0.0781  0.5994
 2748TIP3    H2 8251   6.292   1.855   0.077 -0.0102  0.0238 -1.2410
 2749TIP3   OH2 8252   3.324   5.513   2.460 -0.9682 -0.1050 -0.3979
 2749TIP3    H1 8253   3.348   5.606   2.466  0.1878 -0.3657 -0.7840
 2749TIP3    H2 8254   3.229   5.513   2.472 -0.9517  1.0937 -0.0449
 2750TIP3   OH2 8255   3.551   1.415   4.308  0.5528  0.0792  0.0202
 2750TIP3    H1 8256   3.589   1.350   4.250  0.2580  2.5697 -3.2342
 2750TIP3    H2 8257   3.457   1.398   4.305  0.2633  1.5972 -2.3555
 2751TIP3   OH2 8258   4.629   4.251   0.896  0.2739 -0.1354 -0.1576
 2751TIP3    H1 8259   4.585   4.184   0.844 -0.3359  0.8583 -0.9376
 2751TIP3    H2 8260   4.559   4.292   0.947  0.2236  1.5368 -1.4949
 2752TIP3   OH2 8261   5.420   3.174   4.897  0.5034  0.3592 -0.2593
 2752TIP3    H1 8262   5.343   3.229   4.912 -0.1789 -0.4843 -0.5708
 2752TIP3    H2 8263   5.398   3.091   4.938  1.6827  0.4299  0.5388
 2753TIP3   OH2 8264   5.803   3.361   0.898 -0.2497  0.8117 -0.1102
 2753TIP3    H1 8265   5.886   3.388   0.938 -0.4594  3.0263 -1.0230
 2753TIP3    H2 8266   5.812   3.267   0.884  2.2455  1.0580 -0.5050
 2754TIP3   OH2 8267   6.311   5.949   1.637 -0.0639  0.2544  0.2050
 2754TIP3    H1 8268   6.323   5.888   1.564 -1.4100 -0.4701  0.5547
 2754TIP3    H2 8269   6.219   5.973   1.634  0.0043  0.7379  1.2685
 2755TIP3   OH2 8270   5.498   3.401   2.669  0.2944 -0.1970  0.3571
 2755TIP3    H1 8271   5.409   3.370   2.686  1.1940 -1.7893  2.6044
 2755TIP3    H2 8272   5.523   3.448   2.748  1.1298  1.1809 -0.6612
 2756TIP3   OH2 8273   0.490   0.442   0.733 -0.4366  0.0042  0.7915
 2756TIP3    H1 8274   0.571   0.489   0.751  0.3182 -1.4035  1.1495
 2756TIP3    H2 8275   0.471   0.394   0.813 -2.1968  1.0751  1.0852
 2757TIP3   OH2 8276   2.428   3.067   3.462 -0.9156 -0.3207 -0.3426
 2757TIP3    H1 8277   2.418   3.111   3.378 -0.9253 -1.4462 -0.9434
 2757TIP3    H2 8278   2.372   3.118   3.522 -1.2987  0.1939 -1.1212
 2758TIP3   OH2 8279   3.417   2.129   4.147 -0.5004 -0.3159  0.3943
 2758TIP3    H1 8280   3.373   2.115   4.231 -0.5406 -1.0463  0.2582
 2758TIP3    H2 8281   3.454   2.044   4.124  1.9901  0.5159  1.0433
 2759TIP3   OH2 8282   4.751   2.628   1.730  0.1664 -0.0088  0.0923
 2759TIP3    H1 8283   4.709   2.653   1.647  1.2466  1.8846  0.0471
 2759TIP3    H2 8284   4.766   2.534   1.722 -2.8287 -0.5382 -0.4044
 2760TIP3   OH2 8285   5.273   4.795   4.530  0.1194  0.0295 -0.3846
 2760TIP3    H1 8286   5.265   4.725   4.466 -1.6829 -0.5671  0.4371
 2760TIP3    H2 8287   5.198   4.852   4.513 -0.8964 -0.5940  1.6642
 2761TIP3   OH2 8288   2.667   2.527   5.120  0.4048  0.0606  0.2998
 2761TIP3    H1 8289   2.704   2.506   5.205  1.3123  2.2184  0.5044
 2761TIP3    H2 8290   2.724   2.481   5.057  1.2374  0.4067  0.7785
 2762TIP3   OH2 8291   0.377   2.208   1.269 -0.0085 -0.7795  0.9261
 2762TIP3    H1 8292   0.325   2.131   1.245  0.6886 -0.5210 -1.6194
 2762TIP3    H2 8293   0.311   2.275   1.290 -0.6789 -1.1626  0.1136
 2763TIP3   OH2 8294   5.256   4.470   2.702  0.0411  0.0808 -0.0494
 2763TIP3    H1 8295   5.190   4.416   2.660  1.3894 -1.3381 -0.4139
 2763TIP3    H2 8296   5.251   4.447   2.795 -0.7437  0.8456  0.1130
 2764TIP3   OH2 8297   2.384   1.150   4.022  0.4624 -0.2455 -0.1297
 2764TIP3    H1 8298   2.322   1.176   4.090  0.5616 -1.3192  0.3996
 2764TIP3    H2 8299   2.464   1.198   4.044  0.2593  0.0108  0.0604
 2765TIP3   OH2 8300   4.681   5.081   4.778  0.2667 -0.0773  0.3143
 2765TIP3    H1 8301   4.686   5.042   4.865 -0.8631  2.9356  1.8612
 2765TIP3    H2 8302   4.746   5.152   4.780 -0.2781  0.4940 -1.0557
 2766TIP3   OH2 8303   4.141   0.137   5.016  0.1109  0.0088 -0.3077
 2766TIP3    H1 8304   4.119   0.076   4.946  2.1022 -0.7508 -0.3339
 2766TIP3    H2 8305   4.117   0.090   5.096 -1.1511  0.4438 -0.4024
 2767TIP3   OH2 8306   5.916   0.469   2.304  0.1220 -0.0078 -0.1548
 2767TIP3    H1 8307   5.831   0.432   2.278  0.1664  0.3258 -0.7855
 2767TIP3    H2 8308   5.980   0.422   2.251  0.6801 -2.4067  2.3941
 2768TIP3   OH2 8309   4.739   3.591   1.619  0.4024 -0.5150 -0.4168
 2768TIP3    H1 8310   4.663   3.534   1.626  1.1043 -1.4812 -0.4984
 2768TIP3    H2 8311   4.728   3.655   1.689 -0.0323 -1.1961  0.1522
 2769TIP3   OH2 8312   2.844   4.089   1.005  0.1404 -0.2734  0.3316
 2769TIP3    H1 8313   2.882   4.176   1.016  1.2893 -0.9202  1.7664
 2769TIP3    H2 8314   2.768   4.088   1.063 -0.6311  0.1746 -0.6439
 2770TIP3   OH2 8315   2.638   5.883   2.084 -0.3616  0.0085 -0.2309
 2770TIP3    H1 8316   2.714   5.935   2.054 -2.0071  1.9966 -1.2551
 2770TIP3    H2 8317   2.590   5.864   2.004 -0.4345 -2.1765  0.2874
 2771TIP3   OH2 8318   5.919   4.076   1.188  0.5215  0.5646 -0.2047
 2771TIP3    H1 8319   5.874   4.161   1.189 -0.6807 -0.0642  0.0881
 2771TIP3    H2 8320   5.958   4.071   1.101 -0.4536  0.8757 -0.6669
 2772TIP3   OH2 8321   6.006   2.151   3.905  0.5131 -0.0662 -0.2190
 2772TIP3    H1 8322   6.028   2.066   3.867  2.2268 -1.0476  2.7151
 2772TIP3    H2 8323   5.914   2.144   3.928  0.9876 -1.7430  1.3343
 2773TIP3   OH2 8324   3.208   0.153   0.087 -0.1414  0.7889 -0.4361
 2773TIP3    H1 8325   3.158   0.082   0.047 -0.4331  0.9396 -0.3436
 2773TIP3    H2 8326   3.259   0.110   0.156 -0.6994  0.7396 -0.0416
 2774TIP3   OH2 8327   5.183   3.232   2.669 -0.2178  0.2706  0.1342
 2774TIP3    H1 8328   5.181   3.276   2.585 -1.1468  1.0563  0.5526
 2774TIP3    H2 8329   5.091   3.222   2.694 -0.0329 -1.4907  0.2786
 2775TIP3   OH2 8330   2.188   2.322   0.202  0.5432 -0.0371  0.3284
 2775TIP3    H1 8331   2.194   2.227   0.194  1.7684  0.0083  0.4735
 2775TIP3    H2 8332   2.170   2.338   0.295  3.9948 -0.0728  1.1413
 2776TIP3   OH2 8333   1.775   0.752   1.285 -0.5211 -0.4893 -0.0064
 2776TIP3    H1 8334   1.740   0.836   1.315  0.7102  0.0505 -0.0328
 2776TIP3    H2 8335   1.770   0.695   1.361 -1.7930 -0.5502 -0.1126
 2777TIP3   OH2 8336   6.265   4.939   1.395  0.2721 -0.5018 -0.1731
 2777TIP3    H1 8337   6.249   4.845   1.388 -0.4875 -0.3754 -0.1791
 2777TIP3    H2 8338   6.258   4.958   1.489 -1.2977 -0.1600 -0.3433
 2778TIP3   OH2 8339   1.252   5.959   3.202 -0.6599  0.0466  0.5665
 2778TIP3    H1 8340   1.177   5.899   3.202  0.1287 -1.0308 -1.1619
 2778TIP3    H2 8341   1.327   5.904   3.180  0.1772  1.5815 -0.6394
 2779TIP3   OH2 8342   6.144   4.771   1.823 -0.1005 -0.0572 -0.4499
 2779TIP3    H1 8343   6.193   4.690   1.807 -0.5144 -0.3919 -0.0401
 2779TIP3    H2 8344   6.059   4.742   1.854  0.0852  0.5476  0.6788
 2780TIP3   OH2 8345   2.647   3.655   1.940  0.1121 -0.1754 -0.4553
 2780TIP3    H1 8346   2.559   3.625   1.964  0.0302  0.5724  0.2167
 2780TIP3    H2 8347   2.699   3.575   1.932 -0.6657 -0.6336 -1.0189
 2781TIP3   OH2 8348   6.052   2.070   4.894  0.5052  0.0530 -0.0240
 2781TIP3    H1 8349   5.977   2.026   4.933  0.4099  0.8127  0.6543
 2781TIP3    H2 8350   6.113   1.999   4.874 -0.4355 -0.5862 -0.7157
 2782TIP3   OH2 8351   2.074   4.840   4.084 -0.0771 -0.1046  0.4944
 2782TIP3    H1 8352   2.156   4.847   4.135 -0.1287  0.4900  0.5041
 2782TIP3    H2 8353   2.080   4.911   4.020 -0.2182 -0.5757 -0.0362
 2783TIP3   OH2 8354   6.230   0.288   1.234 -0.2100 -0.3488 -0.7401
 2783TIP3    H1 8355   6.219   0.343   1.156 -0.9420 -0.3124 -0.6202
 2783TIP3    H2 8356   6.162   0.319   1.294  1.6661  1.0895  0.7674
 2784TIP3   OH2 8357   5.612   2.388   2.598 -0.1063 -0.4339 -0.2831
 2784TIP3    H1 8358   5.652   2.409   2.682  0.1541  2.1896 -0.9930
 2784TIP3    H2 8359   5.538   2.448   2.590  0.9959  0.7293 -2.7187
 2785TIP3   OH2 8360   3.989   4.076   1.070 -0.0328 -0.9329  0.4318
 2785TIP3    H1 8361   3.969   4.042   1.157  2.3671 -1.4929  0.8436
 2785TIP3    H2 8362   3.904   4.092   1.029 -1.2416  0.1187  3.1611
 2786TIP3   OH2 8363   1.368   4.755   2.075 -0.2082 -0.1923  0.3822
 2786TIP3    H1 8364   1.333   4.729   2.160 -1.0779  0.3338  0.2024
 2786TIP3    H2 8365   1.462   4.737   2.081  0.0069  1.1570  1.9621
 2787TIP3   OH2 8366   4.316   5.168   0.695  0.4043  0.3390 -0.7974
 2787TIP3    H1 8367   4.357   5.150   0.611  0.4163  1.1550 -0.9801
 2787TIP3    H2 8368   4.378   5.225   0.741  0.7004 -0.6434  0.0462
 2788TIP3   OH2 8369   3.058   5.688   4.842  0.4644  0.0598  0.3151
 2788TIP3    H1 8370   3.071   5.772   4.798 -0.0683 -0.3266 -0.6059
 2788TIP3    H2 8371   2.964   5.683   4.857  0.3683 -0.7568 -0.4646
 2789TIP3   OH2 8372   4.746   5.653   2.611  0.5498  0.4140  0.2711
 2789TIP3    H1 8373   4.744   5.677   2.704  0.2621 -0.3388  0.4645
 2789TIP3    H2 8374   4.654   5.639   2.588  0.7227 -0.7831  0.2519
 2790TIP3   OH2 8375   0.083   2.812   0.577  0.1866 -0.0473 -0.5362
 2790TIP3    H1 8376   0.099   2.899   0.541 -1.1140  1.2181  1.6805
 2790TIP3    H2 8377   0.012   2.777   0.524  0.3113  0.5094 -1.0831
 2791TIP3   OH2 8378   1.325   5.339   0.664  0.0210  0.0584 -0.5185
 2791TIP3    H1 8379   1.370   5.359   0.582 -0.0873  0.8339 -0.3933
 2791TIP3    H2 8380   1.395   5.309   0.722  0.1071 -0.4455 -0.8684
 2792TIP3   OH2 8381   3.776   5.592   2.862  0.6450  0.2704 -0.1774
 2792TIP3    H1 8382   3.820   5.509   2.882  1.4979  0.8330  0.3794
 2792TIP3    H2 8383   3.718   5.571   2.789 -0.9201 -1.3536  1.4065
 2793TIP3   OH2 8384   0.757   5.892   2.672  0.2331 -0.9138  0.0987
 2793TIP3    H1 8385   0.688   5.826   2.681  0.1268 -0.7107  0.8505
 2793TIP3    H2 8386   0.826   5.863   2.732  0.5269 -0.7704 -0.1668
 2794TIP3   OH2 8387   6.074   0.746   0.371  0.4913  0.3675 -0.3467
 2794TIP3    H1 8388   6.052   0.810   0.439  1.2365  0.5007 -0.2179
 2794TIP3    H2 8389   5.996   0.692   0.362  0.7733 -0.4264  1.4879
 2795TIP3   OH2 8390   0.824   1.268   4.162  0.2213 -0.6366 -0.0602
 2795TIP3    H1 8391   0.882   1.199   4.129  0.3558  0.2441 -1.7817
 2795TIP3    H2 8392   0.862   1.349   4.129 -2.1311 -0.0384 -1.5463
 2796TIP3   OH2 8393   3.721   5.863   2.843 -0.1432  0.3281  0.1682
 2796TIP3    H1 8394   3.797   5.920   2.842  0.5128 -0.5074 -1.1568
 2796TIP3    H2 8395   3.756   5.775   2.830 -1.3291 -0.0587 -0.6553
 2797TIP3   OH2 8396   5.379   0.311   0.847  0.1229  0.1110 -0.4535
 2797TIP3    H1 8397   5.386   0.401   0.816  0.4197  0.3751  0.3371
 2797TIP3    H2 8398   5.345   0.319   0.936 -1.5189 -0.6612 -0.9602
 2798TIP3   OH2 8399   2.530   5.833   4.620 -0.3966  0.2067 -0.3575
 2798TIP3    H1 8400   2.609   5.856   4.570 -0.9025  0.2679 -1.1436
 2798TIP3    H2 8401   2.559   5.833   4.712 -0.0585  2.6280 -0.4161
 2799TIP3   OH2 8402   5.405   4.191   2.369 -0.1762  0.7037  0.0615
 2799TIP3    H1 8403   5.365   4.181   2.282  0.9618 -0.4131 -0.3658
 2799TIP3    H2 8404   5.354   4.133   2.425  0.0391  0.2363 -0.2128
 2800TIP3   OH2 8405   2.560   5.303   2.647  0.0835  0.4561 -0.4150
 2800TIP3    H1 8406   2.467   5.290   2.629  0.3042 -1.6769 -0.3663
 2800TIP3    H2 8407   2.602   5.304   2.561  0.4120 -3.0324 -0.4475
 2801TIP3   OH2 8408   4.733   5.535   2.356  0.0221  0.2064  0.0224
 2801TIP3    H1 8409   4.810   5.479   2.361  0.1023  0.2640 -0.5226
 2801TIP3    H2 8410   4.729   5.578   2.441  1.5733  1.4912 -0.5020
 2802TIP3   OH2 8411   1.791   2.705   1.821 -0.1682  0.0397 -0.4611
 2802TIP3    H1 8412   1.866   2.725   1.878  0.1523 -1.4388 -0.3144
 2802TIP3    H2 8413   1.826   2.641   1.759 -0.7510  0.9739 -1.7859
 2803TIP3   OH2 8414   2.934   0.271   2.866  0.2379  0.0279  0.1522
 2803TIP3    H1 8415   2.866   0.338   2.871 -0.4796 -0.6809  0.1952
 2803TIP3    H2 8416   2.934   0.243   2.774  0.4371 -0.0143  0.1641
 2804TIP3   OH2 8417   2.762   0.170   4.241  0.3267 -0.0534 -0.1116
 2804TIP3    H1 8418   2.774   0.078   4.264 -0.0074 -0.8631 -2.7548
 2804TIP3    H2 8419   2.842   0.193   4.194 -0.5417  0.2563 -1.4988
 2805TIP3   OH2 8420   1.117   3.443   1.487  0.0793  0.1313  0.1664
 2805TIP3    H1 8421   1.150   3.531   1.505 -0.8384  0.0786  2.6656
 2805TIP3    H2 8422   1.084   3.413   1.572  0.2879 -2.6107 -0.6238
 2806TIP3   OH2 8423   1.302   2.174   4.028 -0.1917  0.4268  0.2462
 2806TIP3    H1 8424   1.369   2.106   4.029 -0.4927  0.1140 -0.5109
 2806TIP3    H2 8425   1.351   2.255   4.010  0.0686  0.3126  0.4216
 2807TIP3   OH2 8426   0.282   0.115   4.963 -0.1726 -0.0099  0.4436
 2807TIP3    H1 8427   0.327   0.159   5.035 -0.7604  1.1743  0.1097
 2807TIP3    H2 8428   0.193   0.102   4.995 -0.0076 -1.0190  0.5456
 2808TIP3   OH2 8429   5.013   4.943   3.709 -0.4168  0.2397 -0.2750
 2808TIP3    H1 8430   5.011   5.035   3.681 -2.2435  0.3526  0.1000
 2808TIP3    H2 8431   5.106   4.920   3.707 -0.1277  1.2428 -3.0365
 2809TIP3   OH2 8432   0.081   4.096   2.575  0.0815 -0.1956  0.2519
 2809TIP3    H1 8433   0.084   4.039   2.499  1.8363 -0.4979  0.5039
 2809TIP3    H2 8434  -0.009   4.131   2.576 -1.3922 -3.5720  0.5798
 2810TIP3   OH2 8435   4.696   0.824   5.119  0.2270  0.4555 -0.3852
 2810TIP3    H1 8436   4.714   0.783   5.035 -0.5576  0.9952 -0.8272
 2810TIP3    H2 8437   4.771   0.882   5.134  0.9082 -0.4571 -0.1729
 2811TIP3   OH2 8438   4.976   2.061   1.749  0.2105 -0.0016  0.1670
 2811TIP3    H1 8439   5.000   1.968   1.742  0.7690  0.1486 -0.0117
 2811TIP3    H2 8440   4.903   2.063   1.810  0.9792 -0.4410  1.1330
 2812TIP3   OH2 8441   1.466   4.925   3.128  0.2235 -0.8714 -0.2472
 2812TIP3    H1 8442   1.378   4.960   3.138  0.4201 -0.1042 -1.0145
 2812TIP3    H2 8443   1.470   4.850   3.187 -0.1810  0.4729  1.5431
 2813TIP3   OH2 8444   5.459   0.095   0.401 -0.0322  0.2344  0.3480
 2813TIP3    H1 8445   5.453  -0.000   0.402  1.6689  0.0909  0.9611
 2813TIP3    H2 8446   5.414   0.123   0.481  1.2381 -0.2522  1.2860
 2814TIP3   OH2 8447   1.377   1.086   0.841 -0.6321 -0.1594 -0.4430
 2814TIP3    H1 8448   1.434   1.011   0.858 -0.8053 -0.1835  0.0522
 2814TIP3    H2 8449   1.297   1.067   0.891 -0.8057  0.1965 -0.5826
 2815TIP3   OH2 8450   4.813   0.736   4.865  0.4488  0.0624 -0.3922
 2815TIP3    H1 8451   4.771   0.680   4.800  0.3317 -0.0173 -0.2475
 2815TIP3    H2 8452   4.907   0.721   4.853  0.5084  1.0815 -1.4911
 2816TIP3   OH2 8453   1.207   3.052   4.390 -0.0372 -0.0605  0.4782
 2816TIP3    H1 8454   1.246   2.975   4.348  1.6667 -0.9734  3.4453
 2816TIP3    H2 8455   1.274   3.120   4.385  0.3105 -0.2678  1.8282
 2817TIP3   OH2 8456   1.906   5.507   3.419 -0.0149 -0.4162  0.3072
 2817TIP3    H1 8457   1.823   5.492   3.466  0.1587  0.3209  0.8669
 2817TIP3    H2 8458   1.973   5.471   3.477  0.1365 -0.1804  0.2806
 2818TIP3   OH2 8459   4.241   4.932   2.002  0.3932  0.1323 -0.1482
 2818TIP3    H1 8460   4.305   4.998   1.977 -0.1226  0.7821  0.1949
 2818TIP3    H2 8461   4.162   4.983   2.022 -0.7470 -0.7323 -2.1090
 2819TIP3   OH2 8462   1.071   3.787   3.237 -0.7775 -0.0316  0.1399
 2819TIP3    H1 8463   1.009   3.731   3.189  0.1883  0.7862 -2.1791
 2819TIP3    H2 8464   1.096   3.855   3.175  2.1431 -0.0730  1.1081
 2820TIP3   OH2 8465   0.958   4.784   4.123  0.3732 -0.2344 -0.4884
 2820TIP3    H1 8466   0.991   4.700   4.092  0.0399 -0.9859  1.0878
 2820TIP3    H2 8467   0.867   4.766   4.149 -0.8458  1.3994 -3.1791
 2821TIP3   OH2 8468   3.138   4.062   1.335 -0.2166  0.2400 -0.3612
 2821TIP3    H1 8469   3.216   4.063   1.278  0.6757 -0.7882  0.7740
 2821TIP3    H2 8470   3.160   4.124   1.406 -2.6470  4.1217 -2.6470
 2822TIP3   OH2 8471   4.628   3.238   4.221 -0.1752 -0.1058 -0.0255
 2822TIP3    H1 8472   4.715   3.228   4.259 -0.7691 -0.7009  1.2176
 2822TIP3    H2 8473   4.643   3.287   4.139  1.2612  0.1487  0.3670
 2823TIP3   OH2 8474   3.236   1.087   1.332 -0.1083  0.4392 -0.1036
 2823TIP3    H1 8475   3.205   1.150   1.396 -0.5823 -1.0660  1.2275
 2823TIP3    H2 8476   3.298   1.032   1.380 -1.4280 -1.5278 -0.5213
 2824TIP3   OH2 8477   3.864   4.412   2.451  0.4461 -0.4823 -0.0133
 2824TIP3    H1 8478   3.813   4.492   2.439  1.0106 -0.2255 -0.8370
 2824TIP3    H2 8479   3.891   4.415   2.542 -0.2507 -0.1678  0.1903
 2825TIP3   OH2 8480   6.243   3.472   4.785  0.3736 -0.4470  0.3435
 2825TIP3    H1 8481   6.284   3.389   4.759 -0.9573 -1.6873  2.0156
 2825TIP3    H2 8482   6.149   3.455   4.779  0.0703  1.0577  0.4361
 2826TIP3   OH2 8483   6.290   1.194   3.543  0.2348 -0.0482  0.5213
 2826TIP3    H1 8484   6.235   1.119   3.520 -1.1912  0.8446  0.9020
 2826TIP3    H2 8485   6.339   1.213   3.462 -0.6997 -0.3019 -0.1242
 2827TIP3   OH2 8486   3.294   2.859   2.009  0.8097  0.2878  0.3856
 2827TIP3    H1 8487   3.298   2.950   2.037 -0.2669  0.3738  0.2876
 2827TIP3    H2 8488   3.288   2.864   1.913 -0.3151  0.1669  0.4349
 2828TIP3   OH2 8489   1.818   5.109   2.792 -0.0747  0.0628  0.0475
 2828TIP3    H1 8490   1.758   5.046   2.831  0.2040  0.0684  0.4951
 2828TIP3    H2 8491   1.834   5.173   2.862  0.8109 -0.1930  0.0866
 2829TIP3   OH2 8492   4.453   2.267   0.244  0.2215  0.3615 -0.5809
 2829TIP3    H1 8493   4.410   2.251   0.160  0.7554 -0.2578 -0.7494
 2829TIP3    H2 8494   4.522   2.330   0.223  0.9672 -0.5114 -0.8091
 2830TIP3   OH2 8495   0.901   0.125   0.008  0.0388  0.0458  0.4694
 2830TIP3    H1 8496   0.990   0.160   0.007  0.6107 -1.3295 -1.2872
 2830TIP3    H2 8497   0.871   0.140   0.098  1.5834  1.6112  0.7810
 2831TIP3   OH2 8498   2.734   5.191   5.066 -0.1536  0.1555  0.7581
 2831TIP3    H1 8499   2.733   5.097   5.050 -2.1020  0.0598  1.2081
 2831TIP3    H2 8500   2.786   5.227   4.994 -1.6943 -1.0225 -1.0593
 2832TIP3   OH2 8501   1.379   5.168   2.286 -0.1165 -0.7651  0.2369
 2832TIP3    H1 8502   1.415   5.183   2.198 -0.2156 -0.3755  0.2587
 2832TIP3    H2 8503   1.433   5.223   2.343 -1.5181  0.8352  0.1014
 2833TIP3   OH2 8504   4.751   2.201   4.776  0.1489  0.6083  0.0292
 2833TIP3    H1 8505   4.801   2.134   4.728 -0.7449  0.1267 -0.2821
 2833TIP3    H2 8506   4.695   2.240   4.709 -1.3894 -0.3259  0.7152
 2834TIP3   OH2 8507   1.971   1.318   0.072 -0.0496 -0.2655 -0.2080
 2834TIP3    H1 8508   1.885   1.281   0.090 -0.3578 -0.6590 -2.2264
 2834TIP3    H2 8509   1.959   1.412   0.074 -0.3257 -0.3109  0.3499
 2835TIP3   OH2 8510   5.167   0.246   3.646  0.3477  0.7695  0.2411
 2835TIP3    H1 8511   5.241   0.187   3.660 -0.8729 -0.8791  0.1114
 2835TIP3    H2 8512   5.168   0.303   3.723  1.1014  0.0407  0.7991
 2836TIP3   OH2 8513   3.923   5.341   2.053 -0.2033 -0.0166 -0.1230
 2836TIP3    H1 8514   3.952   5.405   1.988 -1.3599 -0.8702 -1.5486
 2836TIP3    H2 8515   3.827   5.343   2.046 -0.2970 -0.9568  0.7470
 2837TIP3   OH2 8516   3.190   2.309   1.012  0.4327  0.7710  0.2544
 2837TIP3    H1 8517   3.105   2.311   1.057  1.5533 -0.0727  2.5624
 2837TIP3    H2 8518   3.218   2.401   1.010 -1.6875  1.5148 -3.1055
 2838TIP3   OH2 8519   6.017   3.317   4.885  0.0973 -0.5290 -0.2317
 2838TIP3    H1 8520   5.952   3.273   4.939 -1.0400  1.0259 -0.2381
 2838TIP3    H2 8521   6.091   3.257   4.882  0.0113 -0.9033  2.6099
 2839TIP3   OH2 8522   2.125   2.505   4.921 -0.1844 -0.1692 -0.3143
 2839TIP3    H1 8523   2.033   2.526   4.906 -0.0935 -0.7122 -1.7704
 2839TIP3    H2 8524   2.135   2.415   4.890  0.6734 -0.4013  0.5753
 2840TIP3   OH2 8525   1.587   0.172   4.389  0.1570 -0.2487 -0.1279
 2840TIP3    H1 8526   1.614   0.237   4.324 -4.0396  1.7635 -0.1618
 2840TIP3    H2 8527   1.540   0.223   4.455 -1.5260 -3.0111  0.9577
 2841TIP3   OH2 8528   1.391   3.106   1.234 -0.0459 -0.4454 -0.1206
 2841TIP3    H1 8529   1.390   3.138   1.324 -0.5581 -5.2511  1.8994
 2841TIP3    H2 8530   1.299   3.101   1.209  0.0126 -0.5430 -0.3153
 2842TIP3   OH2 8531   3.935   4.663   0.529  0.0722  0.0345 -0.0049
 2842TIP3    H1 8532   3.956   4.600   0.459  1.0327  1.1125 -0.7221
 2842TIP3    H2 8533   4.014   4.664   0.584  1.7678  3.4752 -2.2174
 2843TIP3   OH2 8534   1.086   5.373   4.663  0.0922 -0.1076 -0.5860
 2843TIP3    H1 8535   1.038   5.304   4.618  1.0136  0.3242 -2.3239
 2843TIP3    H2 8536   1.168   5.332   4.691 -0.0693 -0.1288 -0.1310
 2844TIP3   OH2 8537   3.761   2.347   4.560 -0.2216  0.2255  0.1265
 2844TIP3    H1 8538   3.667   2.350   4.580 -0.5727  0.4858 -1.4195
 2844TIP3    H2 8539   3.800   2.308   4.638 -1.5205  0.7384  1.0901
 2845TIP3   OH2 8540   5.312   0.161   0.635  0.1341 -0.4301  0.1413
 2845TIP3    H1 8541   5.221   0.142   0.659  0.6632 -1.2510  1.7092
 2845TIP3    H2 8542   5.339   0.231   0.695  0.4812 -0.0535 -0.4432
 2846TIP3   OH2 8543   0.031   3.967   0.722 -0.1064  0.0645  0.2667
 2846TIP3    H1 8544   0.086   3.896   0.689 -0.4697 -0.7297  1.3102
 2846TIP3    H2 8545   0.092   4.025   0.767 -0.0922 -0.8655  1.5125
 2847TIP3   OH2 8546   1.524   5.085   1.086  0.1240 -0.0660  0.0394
 2847TIP3    H1 8547   1.602   5.036   1.060  1.3198  1.5096  0.5409
 2847TIP3    H2 8548   1.521   5.079   1.181  1.2746  2.1986  0.2689
 2848TIP3   OH2 8549   1.501   5.904   4.400 -0.2188  0.0511  0.4314
 2848TIP3    H1 8550   1.462   5.977   4.352  0.1152  1.0143  1.5708
 2848TIP3    H2 8551   1.589   5.935   4.424 -0.1549 -0.6292  1.1190
 2849TIP3   OH2 8552   2.216   3.019   2.180 -0.0276 -0.1192 -0.0129
 2849TIP3    H1 8553   2.152   3.018   2.109  0.9247  1.9410 -0.9917
 2849TIP3    H2 8554   2.282   2.955   2.154 -0.2832 -0.2315 -0.3863
 2850TIP3   OH2 8555   5.029   5.638   2.629 -0.2895 -0.0582 -0.7506
 2850TIP3    H1 8556   4.939   5.636   2.594 -0.4694  3.2394 -0.7997
 2850TIP3    H2 8557   5.064   5.722   2.598  1.9362 -0.1145  1.3639
 2851TIP3   OH2 8558   1.254   4.348   4.289 -0.5643 -0.3257  0.1126
 2851TIP3    H1 8559   1.297   4.319   4.208  0.1955 -1.0366  0.7463
 2851TIP3    H2 8560   1.238   4.267   4.338 -1.2226  0.0756  0.5816
 2852TIP3   OH2 8561   2.256   0.139   4.422 -0.3144  0.0510  0.1018
 2852TIP3    H1 8562   2.302   0.168   4.343 -0.5141  0.8269  0.2618
 2852TIP3    H2 8563   2.288   0.050   4.437 -0.1420 -0.0428 -0.7512
 2853TIP3   OH2 8564   4.591   4.219   2.091  0.2251  0.1563  0.3330
 2853TIP3    H1 8565   4.663   4.193   2.148 -0.5364 -0.1312  1.1740
 2853TIP3    H2 8566   4.573   4.310   2.115  1.9725  1.1018 -1.6507
 2854TIP3   OH2 8567   5.088   2.233   4.976 -0.1375 -0.1826  0.0468
 2854TIP3    H1 8568   5.124   2.266   5.058 -2.7595 -1.1901  1.7564
 2854TIP3    H2 8569   5.007   2.189   5.002  0.5620 -3.4873 -2.6895
 2855TIP3   OH2 8570   2.261   4.058   3.312 -0.2289  0.1411  0.1025
 2855TIP3    H1 8571   2.219   4.003   3.246  0.6360  0.8735 -1.1047
 2855TIP3    H2 8572   2.302   3.997   3.373  0.4460 -0.5645 -1.0307
 2856TIP3   OH2 8573   2.455   0.670   4.168  0.1337 -0.0044  0.6327
 2856TIP3    H1 8574   2.391   0.623   4.116  1.7399 -1.2798 -0.2823
 2856TIP3    H2 8575   2.485   0.607   4.233 -0.0207  0.7976  1.5158
 2857TIP3   OH2 8576   0.958   2.779   4.835 -0.3919 -0.3160  0.1903
 2857TIP3    H1 8577   0.994   2.857   4.877  1.8817 -0.7680 -0.7597
 2857TIP3    H2 8578   0.976   2.708   4.896  1.4421 -0.7062 -0.7009
 2858TIP3   OH2 8579   4.276   0.709   1.318  0.4830  0.2706 -0.5909
 2858TIP3    H1 8580   4.225   0.712   1.400  1.0992 -0.7675 -0.1442
 2858TIP3    H2 8581   4.221   0.660   1.258 -0.5377  2.1259 -1.2508
 2859TIP3   OH2 8582   3.900   4.390   2.882 -0.1497 -0.0752 -0.3823
 2859TIP3    H1 8583   3.965   4.354   2.823  0.4142 -0.8597  0.6991
 2859TIP3    H2 8584   3.825   4.331   2.875 -0.2634  0.1013 -0.6639
 2860TIP3   OH2 8585   0.112   2.497   1.933  0.9045 -0.3408 -0.1912
 2860TIP3    H1 8586   0.042   2.470   1.874 -0.4760  0.5448  0.9524
 2860TIP3    H2 8587   0.174   2.545   1.878 -0.3751  0.5332 -0.9338
 2861TIP3   OH2 8588   3.666   2.317   0.103  0.2875 -0.1338  0.2090
 2861TIP3    H1 8589   3.699   2.245   0.049  1.8342  1.1453 -0.6533
 2861TIP3    H2 8590   3.700   2.299   0.190  0.5823 -0.5132  0.0211
 2862TIP3   OH2 8591   6.284   1.433   1.920  0.1546  0.3721  0.0330
 2862TIP3    H1 8592   6.337   1.354   1.912  0.5479  0.7124 -0.8519
 2862TIP3    H2 8593   6.279   1.468   1.831 -2.0794  0.0359 -0.0288
 2863TIP3   OH2 8594   5.242   2.335   3.147 -0.1982 -0.0210  0.4031
 2863TIP3    H1 8595   5.254   2.412   3.092 -0.1887  0.6750  1.3608
 2863TIP3    H2 8596   5.327   2.320   3.188 -1.3201  2.6185  4.2112
 2864TIP3   OH2 8597   0.901   3.801   1.795 -0.2466  0.3397  0.1318
 2864TIP3    H1 8598   0.889   3.892   1.822 -0.5147  0.0989  0.8541
 2864TIP3    H2 8599   0.826   3.783   1.738 -1.5271 -0.1296  1.8993
 2865TIP3   OH2 8600   6.302   3.535   2.885 -0.1715 -0.0455  0.5229
 2865TIP3    H1 8601   6.390   3.523   2.922 -0.0231 -0.0706  0.1644
 2865TIP3    H2 8602   6.309   3.503   2.795 -0.5699 -0.1189  0.5144
 2866TIP3   OH2 8603   2.991   0.315   4.745  0.4476 -0.9608  0.0504
 2866TIP3    H1 8604   3.043   0.377   4.694 -2.5473  2.2968  0.4665
 2866TIP3    H2 8605   3.030   0.317   4.833  0.9340 -0.3340 -0.1718
 2867TIP3   OH2 8606   3.822   3.148   4.074  0.2690 -0.4463 -0.5109
 2867TIP3    H1 8607   3.828   3.225   4.131 -4.1553 -1.4523  1.7386
 2867TIP3    H2 8608   3.840   3.074   4.132 -0.6240 -1.3435 -1.3474
 2868TIP3   OH2 8609  -0.025   3.291   0.605  0.0768 -0.3295  0.0680
 2868TIP3    H1 8610   0.047   3.315   0.547  0.1289 -0.6896 -0.0191
 2868TIP3    H2 8611   0.009   3.309   0.693  0.2707 -0.4900  0.0275
 2869TIP3   OH2 8612   6.199   5.340   3.539 -0.4936  0.3487  0.2548
 2869TIP3    H1 8613   6.264   5.284   3.582 -0.8861  0.9376  1.6660
 2869TIP3    H2 8614   6.118   5.327   3.589 -0.6712  1.9405  0.4434
 2870TIP3   OH2 8615   3.422   1.461   1.009 -0.1980  0.7525  0.1560
 2870TIP3    H1 8616   3.467   1.379   0.994 -0.0198  1.0140 -0.8611
 2870TIP3    H2 8617   3.329   1.440   0.995 -0.2357  0.5533  0.6983
 2871TIP3   OH2 8618   2.401   1.902   0.059 -0.4380 -0.0193 -0.2680
 2871TIP3    H1 8619   2.440   1.836   0.116  0.0724 -0.1366 -0.7379
 2871TIP3    H2 8620   2.416   1.869  -0.030  0.1299  0.8810 -0.5209
 2872TIP3   OH2 8621   1.967   2.463   4.337  0.4783  0.1945 -0.5030
 2872TIP3    H1 8622   2.044   2.508   4.371 -0.5780  0.5430  1.5408
 2872TIP3    H2 8623   1.893   2.503   4.382 -0.7557 -1.5043 -0.9019
 2873TIP3   OH2 8624   1.441   0.515   0.681 -0.2210  0.0870 -0.4606
 2873TIP3    H1 8625   1.370   0.552   0.734  0.3466  0.5581 -0.0137
 2873TIP3    H2 8626   1.438   0.565   0.600 -0.4116  0.0935 -0.4515
 2874TIP3   OH2 8627   2.116   5.479   2.686 -0.1134  0.0405  0.2575
 2874TIP3    H1 8628   2.141   5.556   2.634 -0.4812  0.1064  0.1815
 2874TIP3    H2 8629   2.199   5.434   2.702  0.2373  0.9530  1.1120
 2875TIP3   OH2 8630   5.796   0.486   3.053  0.1624  0.2640  0.5528
 2875TIP3    H1 8631   5.833   0.413   3.101  1.0860  0.4110  0.0856
 2875TIP3    H2 8632   5.705   0.492   3.084  0.4676 -0.2230  1.5747
 2876TIP3   OH2 8633   4.135   4.937   3.143  0.1089  0.4525 -0.5424
 2876TIP3    H1 8634   4.208   4.998   3.140  0.4775  0.2860  2.2342
 2876TIP3    H2 8635   4.160   4.872   3.210 -2.1642 -0.1178 -0.1548
 2877TIP3   OH2 8636   0.394   0.657   2.243 -0.6168 -0.0058  0.0641
 2877TIP3    H1 8637   0.399   0.747   2.210 -0.5897 -0.0841 -0.1483
 2877TIP3    H2 8638   0.348   0.609   2.174  0.8877 -0.5228 -0.6333
 2878TIP3   OH2 8639   1.691   3.228   0.786  0.2460 -0.8733 -0.4791
 2878TIP3    H1 8640   1.686   3.244   0.880  0.8552 -1.1336 -0.3990
 2878TIP3    H2 8641   1.784   3.233   0.765 -0.0766  4.2305 -1.9806
 2879TIP3   OH2 8642   3.676   2.134   4.372  0.2223 -0.6104  0.3232
 2879TIP3    H1 8643   3.599   2.084   4.399 -0.3444  1.0291  1.9691
 2879TIP3    H2 8644   3.720   2.156   4.454  2.4734 -1.4637 -0.5843
 2880TIP3   OH2 8645   3.543   2.466   0.391 -0.4092  0.4486  0.1927
 2880TIP3    H1 8646   3.460   2.419   0.395 -0.6216  0.7933 -0.1685
 2880TIP3    H2 8647   3.527   2.539   0.332  0.0030  0.8166  0.5314
 2881TIP3   OH2 8648   2.993   1.295   1.260 -0.2498 -0.0581 -0.6328
 2881TIP3    H1 8649   3.047   1.301   1.338 -0.6203 -0.3976 -0.3463
 2881TIP3    H2 8650   2.926   1.362   1.272 -0.2902 -0.0909 -0.6732
 2882TIP3   OH2 8651   5.529   4.101   4.642 -0.0086 -0.4342  0.5931
 2882TIP3    H1 8652   5.608   4.144   4.612  0.7615  0.3142  3.3693
 2882TIP3    H2 8653   5.462   4.126   4.578  1.3802  1.2397 -0.2920
 2883TIP3   OH2 8654   1.142   1.465   3.361  0.0368  0.4589 -0.1293
 2883TIP3    H1 8655   1.075   1.430   3.303 -1.3581  1.0474  1.0803
 2883TIP3    H2 8656   1.211   1.496   3.302 -0.5983 -0.4394 -1.3807
 2884TIP3   OH2 8657   4.305   0.547   4.771 -0.7123 -0.2128  0.0748
 2884TIP3    H1 8658   4.354   0.536   4.853 -1.3461 -0.2110  0.4581
 2884TIP3    H2 8659   4.225   0.495   4.784 -0.6053 -0.5865 -0.7211
 2885TIP3   OH2 8660   0.346   1.354   2.729  0.0933  0.0742  0.3315
 2885TIP3    H1 8661   0.300   1.403   2.797 -0.9910  0.0480 -0.3376
 2885TIP3    H2 8662   0.438   1.363   2.750 -0.0559  2.3234  0.3221
 2886TIP3   OH2 8663   0.316   5.950   4.546  0.8392 -0.1789 -0.0529
 2886TIP3    H1 8664   0.360   5.882   4.495  0.9231  0.2853 -0.6021
 2886TIP3    H2 8665   0.384   6.015   4.562  0.5646  0.1406 -0.1858
 2887TIP3   OH2 8666   0.603   2.862   2.410 -0.4495  0.1879  0.0537
 2887TIP3    H1 8667   0.699   2.863   2.415 -0.4572 -1.4301  1.7636
 2887TIP3    H2 8668   0.582   2.769   2.395 -1.7335  0.7634 -2.0773
 2888TIP3   OH2 8669   1.655   3.814   3.100 -0.2231 -1.0109  0.0402
 2888TIP3    H1 8670   1.727   3.760   3.067  0.1782 -0.4416 -0.0338
 2888TIP3    H2 8671   1.656   3.800   3.195  0.6045 -0.2780  0.1531
 2889TIP3   OH2 8672   5.403   3.722   4.750  0.2637  0.1063  0.1317
 2889TIP3    H1 8673   5.317   3.699   4.715 -0.7667  1.3389  1.7057
 2889TIP3    H2 8674   5.415   3.664   4.825 -0.5784  1.8377  1.7007
 2890TIP3   OH2 8675   4.637   5.846   1.884  0.0713  0.2052 -0.3291
 2890TIP3    H1 8676   4.708   5.850   1.948  0.5514 -1.2279 -0.7317
 2890TIP3    H2 8677   4.626   5.752   1.867 -1.0979  0.4847 -1.1800
 2891TIP3   OH2 8678   2.168   1.509   3.107  0.5320  0.5918  0.3193
 2891TIP3    H1 8679   2.214   1.473   3.183  1.3727  1.3722  0.2007
 2891TIP3    H2 8680   2.196   1.454   3.034  1.0512  0.8776  0.2993
 2892TIP3   OH2 8681   1.111   3.067   2.406  1.0151  0.0651  0.0403
 2892TIP3    H1 8682   1.062   3.028   2.333 -0.6663 -0.4490  1.3703
 2892TIP3    H2 8683   1.174   3.000   2.432  0.3926 -0.4739  0.1872
 2893TIP3   OH2 8684   2.729   5.978   3.360  0.2719  0.1867 -0.0184
 2893TIP3    H1 8685   2.795   5.913   3.336  0.8844  0.4257  0.9342
 2893TIP3    H2 8686   2.769   6.027   3.433 -0.3802  1.2791 -0.3650
 2894TIP3   OH2 8687   0.746   3.278   0.911  0.0541  0.0805 -0.8236
 2894TIP3    H1 8688   0.778   3.355   0.863 -1.1326  0.7981 -0.5096
 2894TIP3    H2 8689   0.725   3.311   0.998  0.5913 -0.8529 -0.3295
 2895TIP3   OH2 8690   4.690   1.779   2.769  0.1318 -0.3968  0.3257
 2895TIP3    H1 8691   4.655   1.867   2.756  2.2003  0.4714  0.1525
 2895TIP3    H2 8692   4.713   1.776   2.862  1.7060 -0.0528 -0.0209
 2896TIP3   OH2 8693   2.924   5.778   0.022 -0.0092 -0.0781 -0.0474
 2896TIP3    H1 8694   2.933   5.813   0.111 -2.8952 -1.2043  0.8019
 2896TIP3    H2 8695   2.967   5.693   0.026  0.0033 -0.0619  0.2273
 2897TIP3   OH2 8696   1.969   4.813   4.352 -0.3849 -0.2767 -0.0136
 2897TIP3    H1 8697   1.991   4.879   4.418 -1.5696 -0.0266  0.1554
 2897TIP3    H2 8698   1.997   4.852   4.270  0.2991 -0.2110  0.2445
 2898TIP3   OH2 8699   6.297   3.463   1.619 -0.4983  0.0991  0.3448
 2898TIP3    H1 8700   6.210   3.498   1.640 -0.9074 -0.6697 -0.0343
 2898TIP3    H2 8701   6.313   3.398   1.687  0.1914  0.8900  0.9558
 2899TIP3   OH2 8702   5.686   5.230   1.603  0.4050 -0.3518  0.2428
 2899TIP3    H1 8703   5.618   5.245   1.537  1.3006  2.6169 -0.1928
 2899TIP3    H2 8704   5.673   5.140   1.632 -1.9283 -0.7794 -1.8045
 2900TIP3   OH2 8705   6.144   1.853   3.131 -0.0787  0.1598 -0.2484
 2900TIP3    H1 8706   6.216   1.882   3.076  0.3813  2.2447  1.3215
 2900TIP3    H2 8707   6.066   1.869   3.079  0.4480  0.2288 -1.0282
 2901TIP3   OH2 8708   2.232   5.987   2.727 -0.0158  0.0785 -0.0626
 2901TIP3    H1 8709   2.298   5.968   2.795 -0.5627  0.7374  0.6710
 2901TIP3    H2 8710   2.237   5.912   2.667  2.1061  0.5750 -0.5902
 2902TIP3   OH2 8711   1.730   5.911   5.094 -0.1905 -0.3688 -0.4484
 2902TIP3    H1 8712   1.672   5.849   5.139  0.6295 -2.2880 -1.9085
 2902TIP3    H2 8713   1.670   5.968   5.046 -1.0296  0.9409  1.9359
 2903TIP3   OH2 8714   2.017   4.007   1.753  0.3813 -0.4286 -0.0740
 2903TIP3    H1 8715   2.102   4.023   1.711  0.3521 -1.2490 -0.4592
 2903TIP3    H2 8716   2.010   3.912   1.757 -0.9183 -0.3830 -0.8650
 2904TIP3   OH2 8717   2.462   3.072   2.838  0.3210 -0.1835  0.5710
 2904TIP3    H1 8718   2.465   2.977   2.843  1.1370 -0.1583  0.7894
 2904TIP3    H2 8719   2.438   3.100   2.926  0.7312 -0.1777  0.6869
 2905TIP3   OH2 8720   2.500   1.326   3.042 -0.5303 -0.0253  0.1221
 2905TIP3    H1 8721   2.410   1.304   3.066 -0.3366 -0.3938  0.5205
 2905TIP3    H2 8722   2.491   1.383   2.965 -1.1338  0.5353  0.5952
 2906TIP3   OH2 8723   1.550   1.683   1.036  0.5408  0.5621 -0.0867
 2906TIP3    H1 8724   1.621   1.620   1.047  0.5229  0.5473 -0.0572
 2906TIP3    H2 8725   1.591   1.758   0.995  1.2235  1.7565  2.5690
 2907TIP3   OH2 8726   2.325   4.415   0.588  0.4118 -0.0790  0.1269
 2907TIP3    H1 8727   2.396   4.437   0.648  0.6499  1.8978 -0.8122
 2907TIP3    H2 8728   2.246   4.450   0.629  0.1594 -1.0384  0.4967
 2908TIP3   OH2 8729   0.684   4.777   3.396  0.3540  0.1104  0.1691
 2908TIP3    H1 8730   0.691   4.843   3.466 -0.5936  0.1701  0.2198
 2908TIP3    H2 8731   0.752   4.802   3.334 -0.5333  1.6766 -0.2421
 2909TIP3   OH2 8732   2.161   3.203   1.446  0.0003 -0.4049  0.6317
 2909TIP3    H1 8733   2.105   3.127   1.430  1.2822 -1.5142  1.2145
 2909TIP3    H2 8734   2.148   3.223   1.538 -2.3083  1.7825 -0.0725
 2910TIP3   OH2 8735   6.129   4.743   0.788  0.5761 -0.5535 -0.0846
 2910TIP3    H1 8736   6.182   4.725   0.711 -1.4965  0.0559 -1.7438
 2910TIP3    H2 8737   6.123   4.839   0.791 -1.0249 -0.6194 -0.4158
 2911TIP3   OH2 8738   2.988   1.356   2.827  0.2880  0.2332  0.4020
 2911TIP3    H1 8739   2.908   1.348   2.880 -0.4290 -2.8080 -0.9246
 2911TIP3    H2 8740   2.957   1.355   2.737  1.7751 -0.6199 -0.1270
 2912TIP3   OH2 8741   0.329   2.444   4.677  0.1238 -0.3400  0.6100
 2912TIP3    H1 8742   0.410   2.495   4.664 -1.2359  1.9323  0.5551
 2912TIP3    H2 8743   0.323   2.390   4.598  0.5288  1.0394 -0.4075
 2913TIP3   OH2 8744   1.625   0.396   0.091  0.7080 -0.1803 -0.6736
 2913TIP3    H1 8745   1.604   0.424   0.180 -0.9947 -1.6111 -0.5696
 2913TIP3    H2 8746   1.670   0.312   0.101 -1.8052 -1.7090 -1.1240
 2914TIP3   OH2 8747   1.451   4.630   1.312 -0.4681  0.6599  0.1217
 2914TIP3    H1 8748   1.398   4.561   1.272 -0.6306  1.2345 -0.6775
 2914TIP3    H2 8749   1.387   4.688   1.354 -0.3062  0.1188  1.1673
 2915TIP3   OH2 8750   3.314   2.646   2.632  0.2375 -0.5673 -0.4053
 2915TIP3    H1 8751   3.358   2.594   2.699  0.9983 -1.1178 -1.3002
 2915TIP3    H2 8752   3.356   2.732   2.638 -1.4596  0.2174  1.5049
 2916TIP3   OH2 8753   3.600   5.112   3.321  0.0841 -0.5814  0.7903
 2916TIP3    H1 8754   3.603   5.207   3.331  0.0259 -0.4375 -0.4227
 2916TIP3    H2 8755   3.667   5.092   3.256 -0.8871 -1.1849 -0.0719
 2917TIP3   OH2 8756   1.477   1.816   0.156 -0.0769 -0.2877  0.1640
 2917TIP3    H1 8757   1.426   1.763   0.094 -0.8549  0.0986  0.4613
 2917TIP3    H2 8758   1.561   1.830   0.112  0.3405 -2.1710  0.2911
 2918TIP3   OH2 8759   1.979   2.460   1.997 -0.1744 -0.6106 -0.0401
 2918TIP3    H1 8760   1.886   2.436   2.006 -0.2365 -0.2200  0.3858
 2918TIP3    H2 8761   1.989   2.482   1.904 -0.8512  0.7471  0.1881
 2919TIP3   OH2 8762   1.135   2.337   4.386 -0.2453  0.3474 -0.6666
 2919TIP3    H1 8763   1.114   2.334   4.479 -0.0579 -1.5049 -0.6508
 2919TIP3    H2 8764   1.229   2.316   4.382 -0.4506 -0.4796 -1.3228
 2920TIP3   OH2 8765   3.307   2.101   3.438  0.4404 -0.4966  0.0955
 2920TIP3    H1 8766   3.213   2.110   3.453  0.3642  0.5318 -0.8701
 2920TIP3    H2 8767   3.342   2.190   3.449  0.9884 -0.4870 -1.4785
 2921TIP3   OH2 8768   0.964   5.166   4.515 -0.3532 -0.4689  0.7134
 2921TIP3    H1 8769   0.962   5.077   4.550 -2.3007  0.0727  2.1198
 2921TIP3    H2 8770   0.874   5.182   4.486 -0.2062  1.2833  1.1321
 2922TIP3   OH2 8771   2.369   1.252   2.737  0.1222  0.3146 -0.1835
 2922TIP3    H1 8772   2.375   1.207   2.821  0.5101  1.6496  0.5231
 2922TIP3    H2 8773   2.287   1.220   2.698  0.0956 -0.5437  0.5497
 2923TIP3   OH2 8774   3.528   3.439   5.067  0.5490 -0.0209 -0.2835
 2923TIP3    H1 8775   3.551   3.502   5.136  2.2786  2.1112 -2.6095
 2923TIP3    H2 8776   3.595   3.371   5.075  0.2459 -0.2341  0.6124
 2924TIP3   OH2 8777   1.621   0.293   4.115 -0.2728 -0.3371  0.2809
 2924TIP3    H1 8778   1.648   0.382   4.093 -1.3077 -0.2219 -0.5668
 2924TIP3    H2 8779   1.703   0.243   4.114  0.1962  0.4130 -0.1645
 2925TIP3   OH2 8780   4.749   5.192   1.063  1.0231  0.1923 -0.1818
 2925TIP3    H1 8781   4.836   5.195   1.105  1.8251  0.6956 -1.8086
 2925TIP3    H2 8782   4.759   5.243   0.983  0.1085 -2.2836 -2.0101
 2926TIP3   OH2 8783   2.923   1.062   4.167  0.3696 -0.1277 -0.1325
 2926TIP3    H1 8784   3.004   1.057   4.218  0.4510  0.6153 -0.1720
 2926TIP3    H2 8785   2.855   1.078   4.232  0.1242 -1.5665 -0.0085
 2927TIP3   OH2 8786   0.816   3.627   1.247  0.7491  0.1620  0.5238
 2927TIP3    H1 8787   0.760   3.704   1.257  0.1007 -0.0777 -1.1005
 2927TIP3    H2 8788   0.905   3.662   1.252  0.4637  1.0054 -0.1355
 2928TIP3   OH2 8789   0.960   0.404   5.018  0.3401 -0.8171 -0.2918
 2928TIP3    H1 8790   0.884   0.443   5.062  0.5346 -0.8713  0.0916
 2928TIP3    H2 8791   0.984   0.469   4.952  0.3788 -0.4932  0.0388
 2929TIP3   OH2 8792   3.636   2.931   2.059  0.2774  0.1631  0.9748
 2929TIP3    H1 8793   3.556   2.980   2.038  0.7440  0.6722  0.3761
 2929TIP3    H2 8794   3.703   2.969   2.004  1.2521  0.6478  2.4340
 2930TIP3   OH2 8795   0.819   4.397   0.250 -0.1327 -0.0501 -0.2830
 2930TIP3    H1 8796   0.897   4.381   0.197 -0.5450 -0.0334 -0.8945
 2930TIP3    H2 8797   0.796   4.488   0.232  1.7084  1.1416  2.5364
 2931TIP3   OH2 8798   0.544   4.079   3.988  0.1932 -0.1372 -0.6974
 2931TIP3    H1 8799   0.540   3.987   4.014  0.0981  0.0307 -0.1056
 2931TIP3    H2 8800   0.479   4.087   3.918  0.4011 -0.5774 -0.9491
 2932TIP3   OH2 8801   4.732   0.608   0.430  0.2174 -0.6018  0.5690
 2932TIP3    H1 8802   4.729   0.614   0.526 -0.8974 -0.0846  0.5201
 2932TIP3    H2 8803   4.759   0.695   0.402 -1.4082 -0.1165  0.3724
 2933TIP3   OH2 8804   0.272   0.348   2.543 -0.1586  0.7662 -0.0328
 2933TIP3    H1 8805   0.335   0.318   2.609 -1.7488  1.2430  1.7886
 2933TIP3    H2 8806   0.277   0.282   2.474 -0.0458 -1.0387  1.6044
 2934TIP3   OH2 8807   4.698   0.833   3.415 -0.3200 -0.3164 -0.3391
 2934TIP3    H1 8808   4.653   0.767   3.468 -1.7939 -0.4509 -1.6606
 2934TIP3    H2 8809   4.720   0.787   3.334  2.2285 -0.2209  0.2271
 2935TIP3   OH2 8810   2.381   4.184   1.082  0.0764 -0.7311  0.6045
 2935TIP3    H1 8811   2.325   4.122   1.129 -0.0336 -0.8446  0.3216
 2935TIP3    H2 8812   2.416   4.134   1.009 -0.2924 -0.3619  0.1691
 2936TIP3   OH2 8813   1.184   4.720   3.872 -0.0534 -0.7275 -0.2707
 2936TIP3    H1 8814   1.217   4.674   3.794 -3.3036 -0.3700 -2.0230
 2936TIP3    H2 8815   1.148   4.651   3.927  0.1891 -0.7802 -0.1775
 2937TIP3   OH2 8816   4.747   5.632   3.546 -0.5351 -0.0888 -0.5906
 2937TIP3    H1 8817   4.732   5.709   3.600 -0.1395 -0.0943 -0.4732
 2937TIP3    H2 8818   4.842   5.625   3.539 -0.5849 -0.1403 -1.2173
 2938TIP3   OH2 8819   5.624   5.611   4.747 -0.2006 -0.2867 -0.0437
 2938TIP3    H1 8820   5.691   5.678   4.752 -0.2326 -0.2296 -0.3809
 2938TIP3    H2 8821   5.630   5.565   4.831  1.0285 -1.0185 -0.5015
 2939TIP3   OH2 8822   4.647   2.330   1.451  0.0477 -0.0150 -0.0923
 2939TIP3    H1 8823   4.620   2.321   1.543  1.1177  2.7476  0.5889
 2939TIP3    H2 8824   4.621   2.419   1.427  2.9433  0.6369 -1.2836
 2940TIP3   OH2 8825   3.035   5.460   4.678  0.8675 -0.7958  0.4882
 2940TIP3    H1 8826   3.067   5.537   4.726 -0.9697  0.5769 -0.3363
 2940TIP3    H2 8827   3.096   5.450   4.606  1.7532 -0.8011  1.2236
 2941TIP3   OH2 8828   4.249   1.501   4.023  0.1831  0.1953 -0.1381
 2941TIP3    H1 8829   4.337   1.527   4.049  0.8485 -1.4243 -0.6172
 2941TIP3    H2 8830   4.260   1.412   3.989 -1.4780  0.3223 -1.1152
 2942TIP3   OH2 8831   1.006   4.909   0.033  0.5608 -0.1307  0.3600
 2942TIP3    H1 8832   0.945   4.981   0.046  1.7115  1.0113 -0.3215
 2942TIP3    H2 8833   0.961   4.850  -0.029  0.1649  0.7131 -0.1766
 2943TIP3   OH2 8834   4.688   3.622   0.341  0.1749 -0.5294  0.1811
 2943TIP3    H1 8835   4.661   3.635   0.250  0.7549 -0.4885  0.0138
 2943TIP3    H2 8836   4.755   3.689   0.357  1.9905 -2.1777 -0.1786
 2944TIP3   OH2 8837   3.499   0.179   0.806 -0.4932  0.0695  0.4391
 2944TIP3    H1 8838   3.579   0.184   0.753 -1.3208  0.0760 -0.8591
 2944TIP3    H2 8839   3.527   0.207   0.893  1.2399 -1.3672  0.4092
 2945TIP3   OH2 8840   0.116   1.847   4.115  0.0363 -0.0584 -0.2974
 2945TIP3    H1 8841   0.025   1.821   4.130 -0.2867  1.0699 -0.2088
 2945TIP3    H2 8842   0.113   1.905   4.040  0.4046  1.4786  0.8244
 2946TIP3   OH2 8843   5.062   3.584   0.835  0.9942 -0.3033  0.7631
 2946TIP3    H1 8844   5.073   3.638   0.913  0.5430  1.2114 -0.1778
 2946TIP3    H2 8845   5.021   3.503   0.866 -1.8640  1.3925  1.7365
 2947TIP3   OH2 8846   0.459   0.194   2.721 -0.8233  0.1221  0.6136
 2947TIP3    H1 8847   0.455   0.192   2.817  1.3797 -1.3339  0.7440
 2947TIP3    H2 8848   0.525   0.261   2.701 -0.4899 -0.3272  0.1750
 2948TIP3   OH2 8849   0.202   3.336   4.953 -0.5900  1.0693 -0.0759
 2948TIP3    H1 8850   0.149   3.260   4.930 -1.1650  1.4443 -0.0154
 2948TIP3    H2 8851   0.283   3.300   4.987 -0.4683  0.4902 -0.9672
 2949TIP3   OH2 8852   2.813   5.287   3.882  0.0451 -0.3850 -0.2045
 2949TIP3    H1 8853   2.865   5.243   3.815 -0.8240 -0.5323 -0.7927
 2949TIP3    H2 8854   2.795   5.218   3.947  0.3887 -0.3896 -0.1141
 2950TIP3   OH2 8855   0.775   3.789   4.347 -0.1561 -0.1068  0.3507
 2950TIP3    H1 8856   0.846   3.730   4.320 -0.7754 -0.4186 -0.6522
 2950TIP3    H2 8857   0.761   3.845   4.271 -1.1090 -0.1691  0.4726
 2951TIP3   OH2 8858   1.674   3.495   2.964 -0.4608 -0.6589  0.3146
 2951TIP3    H1 8859   1.669   3.415   2.912 -1.1591  0.5972 -1.6444
 2951TIP3    H2 8860   1.623   3.476   3.043 -0.2969 -2.2483  0.0652
 2952TIP3   OH2 8861   3.860   5.007   3.172  0.3766 -0.2871  0.3437
 2952TIP3    H1 8862   3.952   4.990   3.152  0.6850  1.0761  0.5589
 2952TIP3    H2 8863   3.859   5.092   3.216 -0.8680 -0.8232  1.4199
 2953TIP3   OH2 8864   0.477   3.376   4.088 -0.2206  0.2534 -0.1558
 2953TIP3    H1 8865   0.469   3.427   4.168 -0.6206 -0.6405  0.3938
 2953TIP3    H2 8866   0.388   3.368   4.055 -0.1288  0.1217 -0.3762
 2954TIP3   OH2 8867   3.126   5.356   3.698 -0.0010 -0.4277  0.2967
 2954TIP3    H1 8868   3.108   5.267   3.728  1.3944 -0.6053  0.6481
 2954TIP3    H2 8869   3.221   5.366   3.705 -0.0862  0.9495 -0.1335
 2955TIP3   OH2 8870   1.297   2.815   4.318  0.6457  0.2509 -0.1143
 2955TIP3    H1 8871   1.343   2.801   4.235  1.6185 -2.4392  0.7862
 2955TIP3    H2 8872   1.237   2.741   4.326  1.5209 -0.3162  2.1295
 2956TIP3   OH2 8873   1.411   4.746   4.089 -0.3502  0.2818  0.0116
 2956TIP3    H1 8874   1.496   4.775   4.123 -0.3415 -0.5978  0.7705
 2956TIP3    H2 8875   1.347   4.784   4.148 -0.5834  1.7785 -1.1309
 2957TIP3   OH2 8876   0.831   2.995   4.535 -0.2526 -0.0875  0.6692
 2957TIP3    H1 8877   0.818   2.988   4.630  0.1540  0.6112  0.7820
 2957TIP3    H2 8878   0.743   3.013   4.501 -0.2935  0.3657  0.9947
 2958TIP3   OH2 8879   3.931   3.757   3.137  0.0011 -0.1480  0.8102
 2958TIP3    H1 8880   3.976   3.812   3.073 -2.0911  2.0824  1.1252
 2958TIP3    H2 8881   3.962   3.789   3.221  0.0755 -0.6843  0.9913
 2959TIP3   OH2 8882   5.145   1.264   3.054  0.3651  0.4059 -0.2565
 2959TIP3    H1 8883   5.179   1.247   3.142 -0.1330 -0.3683 -0.2016
 2959TIP3    H2 8884   5.060   1.304   3.069  0.2504  0.2099 -0.3825
 2960TIP3   OH2 8885   4.586   3.944   1.329 -0.4127  0.2113 -0.0111
 2960TIP3    H1 8886   4.545   3.935   1.243  0.8612  1.7538 -0.8324
 2960TIP3    H2 8887   4.547   3.874   1.382 -0.9117 -1.0479 -1.9433
 2961TIP3   OH2 8888   2.897   3.492   0.009  0.3472 -0.2740 -0.4429
 2961TIP3    H1 8889   2.965   3.508   0.074  0.8943  0.3375 -1.1529
 2961TIP3    H2 8890   2.834   3.563   0.022 -0.3351 -1.0099  0.4166
 2962TIP3   OH2 8891   2.274   5.821   1.899 -0.4085 -0.0388  0.1955
 2962TIP3    H1 8892   2.237   5.795   1.814  0.4223 -1.7066  0.3083
 2962TIP3    H2 8893   2.365   5.843   1.880 -0.2505 -0.3071  0.6351
 2963TIP3   OH2 8894   2.459   0.501   2.987 -0.4758  0.4815 -0.3027
 2963TIP3    H1 8895   2.519   0.429   3.001 -0.4006  0.7038  0.6155
 2963TIP3    H2 8896   2.389   0.465   2.933 -0.2189 -0.1521 -0.2152
 2964TIP3   OH2 8897   5.710   3.110   1.350  0.1640 -0.1652  0.3670
 2964TIP3    H1 8898   5.744   3.191   1.386 -1.1661 -0.4598  2.4068
 2964TIP3    H2 8899   5.615   3.116   1.360 -0.0268 -1.6032 -0.2445
 2965TIP3   OH2 8900   4.237   1.010   4.617  0.2141 -0.3469 -0.2501
 2965TIP3    H1 8901   4.286   1.064   4.554 -0.5171  0.9844  0.3060
 2965TIP3    H2 8902   4.243   0.921   4.581  0.4866  0.2611 -1.7777
 2966TIP3   OH2 8903   1.279   4.519   3.707  0.5680 -0.0461 -0.0033
 2966TIP3    H1 8904   1.200   4.524   3.653 -1.5973 -0.0560  2.9592
 2966TIP3    H2 8905   1.322   4.439   3.679 -0.6839 -0.2756 -1.3908
 2967TIP3   OH2 8906   1.825   1.621   5.117 -0.3479 -0.5854 -0.7803
 2967TIP3    H1 8907   1.782   1.641   5.201  1.8501 -1.3297  0.6079
 2967TIP3    H2 8908   1.814   1.701   5.065 -2.9194 -0.5743 -0.3580
 2968TIP3   OH2 8909   5.092   0.188   2.500  0.1477 -0.4697  0.5440
 2968TIP3    H1 8910   5.079   0.252   2.430 -0.0004 -1.6057 -0.5036
 2968TIP3    H2 8911   5.064   0.233   2.579 -1.5716  0.2216 -0.3887
 2969TIP3   OH2 8912   2.132   3.026   2.645 -0.1169 -0.0468 -0.7938
 2969TIP3    H1 8913   2.226   3.037   2.660 -0.3021 -1.4957  2.2314
 2969TIP3    H2 8914   2.092   3.104   2.683 -0.2329 -0.6193  0.3009
 2970TIP3   OH2 8915   4.832   5.869   0.470 -0.1145  0.1249 -0.4733
 2970TIP3    H1 8916   4.786   5.803   0.522  0.0496  0.6606  0.3655
 2970TIP3    H2 8917   4.880   5.819   0.404  1.0141 -0.7047  0.9261
 2971TIP3   OH2 8918   5.383   4.529   2.311 -0.5059  0.8345  0.4364
 2971TIP3    H1 8919   5.473   4.559   2.298 -0.5310  0.0646 -2.0128
 2971TIP3    H2 8920   5.386   4.481   2.394  1.2528  1.1456  0.5916
 2972TIP3   OH2 8921   2.813   5.650   4.959  0.1336  0.3674 -0.1965
 2972TIP3    H1 8922   2.849   5.630   5.046 -0.7040  0.6851  0.2274
 2972TIP3    H2 8923   2.770   5.569   4.932 -0.1907  0.4826 -0.0231
 2973TIP3   OH2 8924   1.715   3.367   4.405  0.3448 -0.1871 -0.0549
 2973TIP3    H1 8925   1.808   3.365   4.428  0.7726 -2.0986 -1.6198
 2973TIP3    H2 8926   1.712   3.416   4.323 -0.0058 -0.1672 -0.0311
 2974TIP3   OH2 8927   2.868   4.287   3.356 -0.0467 -0.0588 -0.2640
 2974TIP3    H1 8928   2.865   4.371   3.402  0.8690  0.0579 -0.3862
 2974TIP3    H2 8929   2.825   4.225   3.414 -1.0803  0.5668 -0.3382
 2975TIP3   OH2 8930   5.152   3.834   4.024 -0.0403 -0.1953  0.1498
 2975TIP3    H1 8931   5.191   3.807   4.107 -2.2182  0.1588  1.3675
 2975TIP3    H2 8932   5.075   3.778   4.014 -1.1823  1.3835 -0.3635
 2976TIP3   OH2 8933   0.332   3.929   3.855  0.1270 -0.3284  0.2917
 2976TIP3    H1 8934   0.245   3.943   3.817 -0.0040 -2.1625 -0.1589
 2976TIP3    H2 8935   0.314   3.892   3.942  0.4292 -1.8870 -0.2832
 2977TIP3   OH2 8936   4.957   4.632   0.888  0.6311  0.2321 -0.6134
 2977TIP3    H1 8937   5.018   4.612   0.817  0.3161 -2.7249 -0.2074
 2977TIP3    H2 8938   4.871   4.637   0.846  0.5637 -0.5969 -0.5958
 2978TIP3   OH2 8939   2.706   4.007   0.670  0.0352 -0.1150 -0.2438
 2978TIP3    H1 8940   2.663   3.959   0.599  0.7578 -1.5255  0.2321
 2978TIP3    H2 8941   2.795   4.023   0.638  0.2705 -0.4921  0.1966
 2979TIP3   OH2 8942   2.971   0.030   3.747  0.2447 -0.6432  0.0089
 2979TIP3    H1 8943   3.043   0.084   3.716 -1.1216  1.7218  0.7226
 2979TIP3    H2 8944   2.932  -0.007   3.668  2.1208 -1.9354 -0.3870
 2980TIP3   OH2 8945   3.391   0.360   1.162  0.2508  0.3875  0.0065
 2980TIP3    H1 8946   3.395   0.455   1.159  0.6776  0.3398 -1.2790
 2980TIP3    H2 8947   3.311   0.341   1.211  0.0283  1.4018  0.0472
 2981TIP3   OH2 8948   1.103   5.608   4.429 -0.6706 -0.2561  0.4500
 2981TIP3    H1 8949   1.172   5.559   4.474 -0.1409  1.8245  2.0481
 2981TIP3    H2 8950   1.151   5.670   4.373 -1.2777  0.1737  0.4008
 2982TIP3   OH2 8951   2.162   1.170   2.367 -0.4063  0.0493 -0.3995
 2982TIP3    H1 8952   2.152   1.256   2.327 -0.9318  0.9620  1.5768
 2982TIP3    H2 8953   2.254   1.165   2.392 -0.9910  1.4740  2.3978
 2983TIP3   OH2 8954   3.351   1.620   2.997  0.1259  0.2192  0.2470
 2983TIP3    H1 8955   3.321   1.612   3.087 -2.7949 -0.2040 -0.6380
 2983TIP3    H2 8956   3.365   1.530   2.968  1.7442  0.3876  0.4505
 2984TIP3   OH2 8957   2.543   4.124   0.862  0.4182 -0.1225  0.2382
 2984TIP3    H1 8958   2.615   4.091   0.808  0.8656  0.3925  0.5071
 2984TIP3    H2 8959   2.563   4.217   0.872  1.0428 -0.4443  2.3704
 2985TIP3   OH2 8960   1.781   1.225   0.661  0.1952  0.2318 -0.1944
 2985TIP3    H1 8961   1.808   1.241   0.751 -1.6509 -3.1955  1.1742
 2985TIP3    H2 8962   1.696   1.269   0.654  0.5828  0.9499 -0.4766
 2986TIP3   OH2 8963   1.747   5.521   4.122  0.2156  0.2636 -0.2991
 2986TIP3    H1 8964   1.670   5.468   4.099 -0.2617 -0.3201  2.3501
 2986TIP3    H2 8965   1.711   5.607   4.142  0.4694  0.4141 -0.4820
 2987TIP3   OH2 8966   0.559   5.199   0.336 -0.1633 -0.1359 -0.1290
 2987TIP3    H1 8967   0.633   5.149   0.368  0.9167 -0.0735 -2.3232
 2987TIP3    H2 8968   0.522   5.240   0.414  2.3405  0.1392  1.0162
 2988TIP3   OH2 8969   5.433   1.881   1.317  0.0839  0.0713 -0.1258
 2988TIP3    H1 8970   5.427   1.786   1.328 -1.5311  0.1588 -0.0484
 2988TIP3    H2 8971   5.353   1.905   1.269  0.5903  1.3605 -0.3691
 2989TIP3   OH2 8972   5.229   4.971   2.426 -0.4141 -0.0173 -0.0159
 2989TIP3    H1 8973   5.268   5.050   2.463  1.3575 -0.0034 -1.7761
 2989TIP3    H2 8974   5.213   4.914   2.502 -0.9658  1.6555  1.1912
 2990TIP3   OH2 8975   2.194   4.160   0.621  0.1220 -0.2729  0.5152
 2990TIP3    H1 8976   2.227   4.100   0.555 -1.4196  0.2939 -0.8526
 2990TIP3    H2 8977   2.244   4.241   0.607  0.1957 -0.3345  0.4244
 2991TIP3   OH2 8978   3.851   0.708   3.898 -0.4061  0.6071  0.0670
 2991TIP3    H1 8979   3.852   0.612   3.892  0.2571  0.4226  2.4261
 2991TIP3    H2 8980   3.887   0.737   3.813  1.6294 -1.3095  0.1687
 2992TIP3   OH2 8981   3.117   5.615   3.283 -0.1985  0.4439 -0.9111
 2992TIP3    H1 8982   3.204   5.649   3.264  0.0022  0.0659 -0.6751
 2992TIP3    H2 8983   3.132   5.533   3.329 -0.6791  0.7533 -0.1816
 2993TIP3   OH2 8984   0.631   2.511   2.752  0.0563  0.4404 -0.2508
 2993TIP3    H1 8985   0.665   2.454   2.683 -2.4018  0.6530 -1.7297
 2993TIP3    H2 8986   0.675   2.594   2.738  0.1748  0.2485 -1.0763
 2994TIP3   OH2 8987   0.120   3.233   1.062 -0.1270  0.4451 -0.3005
 2994TIP3    H1 8988   0.153   3.319   1.037  1.2058  0.4411  1.2445
 2994TIP3    H2 8989   0.160   3.172   0.999  0.7539  0.7362 -0.0406
 2995TIP3   OH2 8990   1.689   4.878   0.923  0.0062  0.1570 -0.9052
 2995TIP3    H1 8991   1.612   4.853   0.975  0.8759 -2.5420 -0.7772
 2995TIP3    H2 8992   1.662   4.861   0.832  0.1516  0.0256 -0.9243
 2996TIP3   OH2 8993   1.547   2.667   1.931 -0.2383 -0.1549  0.5945
 2996TIP3    H1 8994   1.615   2.692   1.869 -0.7670  0.7050  0.3455
 2996TIP3    H2 8995   1.581   2.696   2.016  0.2906 -0.9384  0.6612
 2997TIP3   OH2 8996   1.744   1.740   4.642  0.4172 -0.5741 -0.8114
 2997TIP3    H1 8997   1.680   1.731   4.571 -0.0434 -0.3815 -0.4212
 2997TIP3    H2 8998   1.745   1.834   4.661 -0.1807 -0.7429  0.0989
 2998TIP3   OH2 8999   0.074   5.668   4.174 -0.2782 -0.3817 -0.4933
 2998TIP3    H1 9000   0.152   5.718   4.148 -0.2318 -0.0292  0.2939
 2998TIP3    H2 9001   0.095   5.577   4.152 -0.0163 -0.1723 -1.1407
 2999TIP3   OH2 9002   3.691   0.155   3.908  0.4834  0.2656 -0.2488
 2999TIP3    H1 9003   3.627   0.131   3.975 -0.1437 -0.5498 -1.1321
 2999TIP3    H2 9004   3.745   0.076   3.898  0.0442  0.0885 -1.2972
 3000TIP3   OH2 9005   3.885   1.186   5.134  0.5067 -0.1648 -0.2780
 3000TIP3    H1 9006   3.973   1.189   5.096  0.1643  1.3609 -1.0155
 3000TIP3    H2 9007   3.835   1.132   5.073  0.0224  2.0725 -1.9565
 3001TIP3   OH2 9008   2.113   2.830   1.621  0.0563  0.3670 -0.1281
 3001TIP3    H1 9009   2.077   2.824   1.532  0.6587 -1.9385 -0.2827
 3001TIP3    H2 9010   2.179   2.761   1.625  0.5748  0.9043  1.9046
 3002TIP3   OH2 9011   2.740   1.914   2.028 -0.3856 -0.5149  0.0271
 3002TIP3    H1 9012   2.814   1.870   2.070  0.1520 -0.7076 -1.0887
 3002TIP3    H2 9013   2.770   1.933   1.939 -0.6411  2.0004  0.4082
 3003TIP3   OH2 9014   2.880   4.429   2.630 -0.2328 -0.3381 -0.1028
 3003TIP3    H1 9015   2.931   4.402   2.706  0.0765 -0.6853 -0.4301
 3003TIP3    H2 9016   2.944   4.443   2.560 -0.5416 -0.3923 -0.4059
 3004TIP3   OH2 9017   6.204   4.986   1.655  0.0138 -0.3727 -0.0338
 3004TIP3    H1 9018   6.176   4.921   1.720  1.1590 -1.3740 -0.5086
 3004TIP3    H2 9019   6.153   5.064   1.676 -2.2762 -1.7377 -0.1426
 3005TIP3   OH2 9020   3.202   2.648   0.839 -0.2009  0.5765  0.1113
 3005TIP3    H1 9021   3.231   2.721   0.893 -2.5201  1.0339  0.8637
 3005TIP3    H2 9022   3.130   2.684   0.787  0.0337 -0.6337 -1.1064
 3006TIP3   OH2 9023   4.356   2.530   1.581 -0.3387  0.1102 -0.0381
 3006TIP3    H1 9024   4.376   2.623   1.572  2.2352 -0.5128 -1.9978
 3006TIP3    H2 9025   4.320   2.504   1.496 -0.7727 -0.7678  0.3906
 3007TIP3   OH2 9026   6.014   4.273   1.635 -0.2287 -0.3581 -0.1683
 3007TIP3    H1 9027   6.030   4.306   1.724  0.1039 -2.2913  0.5283
 3007TIP3    H2 9028   6.099   4.242   1.605 -0.3721  0.1208 -1.1232
 3008TIP3   OH2 9029   6.023   4.196   4.465  0.3225 -0.7587 -0.7214
 3008TIP3    H1 9030   6.071   4.272   4.498  3.2709 -2.5489 -0.5599
 3008TIP3    H2 9031   6.090   4.130   4.449 -2.1571 -3.7083  0.0390
 3009TIP3   OH2 9032   2.665   1.693   4.145  0.2983 -0.4911 -0.5479
 3009TIP3    H1 9033   2.622   1.609   4.156 -1.3259  0.3406 -0.2289
 3009TIP3    H2 9034   2.725   1.681   4.072 -2.2498 -1.0721 -2.7119
 3010TIP3   OH2 9035   2.735   1.665   0.983 -0.2939  0.8481  0.2991
 3010TIP3    H1 9036   2.667   1.626   0.927  1.4701 -2.2970  0.1167
 3010TIP3    H2 9037   2.698   1.663   1.071 -0.3028 -1.4116  0.2933
 3011TIP3   OH2 9038   6.065   0.490   0.157  0.8031  0.0645  0.1818
 3011TIP3    H1 9039   6.069   0.419   0.222 -2.4797  0.0568  0.5320
 3011TIP3    H2 9040   6.103   0.452   0.078  1.1478 -1.3217  0.9812
 3012TIP3   OH2 9041   0.916   5.446   4.285 -0.2245  0.1255  0.3780
 3012TIP3    H1 9042   0.984   5.482   4.341 -1.2178 -2.2111  3.4152
 3012TIP3    H2 9043   0.844   5.424   4.346 -2.0455 -1.1690 -2.0539
 3013TIP3   OH2 9044   3.700   3.358   4.524  0.1464 -0.0345 -0.2890
 3013TIP3    H1 9045   3.741   3.433   4.480  1.2005 -0.7527 -0.5748
 3013TIP3    H2 9046   3.744   3.353   4.609  1.8898 -1.7698 -1.2048
 3014TIP3   OH2 9047   5.784   3.297   2.908  0.1880 -0.4427 -0.0169
 3014TIP3    H1 9048   5.724   3.370   2.924 -0.2489 -1.0810  1.4822
 3014TIP3    H2 9049   5.728   3.228   2.871  0.1401 -0.7724  0.6589
 3015TIP3   OH2 9050   1.727   0.322   3.770  0.2076 -0.4412  0.2245
 3015TIP3    H1 9051   1.721   0.247   3.829 -1.0096 -1.9478 -1.6647
 3015TIP3    H2 9052   1.675   0.297   3.694  0.5360  1.9682 -0.9105
 3016TIP3   OH2 9053   4.779   5.291   1.368 -0.3183 -0.4259  0.0310
 3016TIP3    H1 9054   4.810   5.358   1.308 -1.6528  1.4444  1.3072
 3016TIP3    H2 9055   4.694   5.264   1.332  0.0368 -1.1841 -0.2657
 3017TIP3   OH2 9056   5.770   0.694   5.112 -0.4296  0.0349 -0.2049
 3017TIP3    H1 9057   5.789   0.702   5.019 -0.5885 -0.7749 -0.3100
 3017TIP3    H2 9058   5.690   0.745   5.125  0.5815  1.6842 -0.1525
 3018TIP3   OH2 9059   1.152   4.326   4.918 -0.0555 -0.2240  0.3934
 3018TIP3    H1 9060   1.079   4.265   4.917  0.1299 -0.4476  0.4822
 3018TIP3    H2 9061   1.148   4.368   5.004 -0.9826  0.8658 -0.1423
 3019TIP3   OH2 9062   4.942   0.202   3.150 -0.8562 -0.2342  0.3646
 3019TIP3    H1 9063   4.994   0.281   3.166 -0.3067 -0.2029 -1.4326
 3019TIP3    H2 9064   4.858   0.220   3.192 -0.5488  1.0810  0.4557
 3020TIP3   OH2 9065   4.686   4.987   0.621  0.0813  0.2845  0.5345
 3020TIP3    H1 9066   4.613   4.931   0.596  0.8211  0.1150 -1.5004
 3020TIP3    H2 9067   4.718   4.951   0.703 -0.1764 -1.5827 -0.1400
 3021TIP3   OH2 9068   0.545   4.389   2.471 -0.3029  1.0109 -0.1202
 3021TIP3    H1 9069   0.635   4.359   2.485  0.1735  1.9796 -1.0041
 3021TIP3    H2 9070   0.496   4.352   2.545  0.7159  0.0641  0.1027
 3022TIP3   OH2 9071   1.110   4.095   1.923  0.2620  0.2207 -0.0562
 3022TIP3    H1 9072   1.132   4.050   2.004  1.3877  0.0088 -0.4530
 3022TIP3    H2 9073   1.189   4.143   1.900 -0.2311  0.7364 -0.7276
 3023TIP3   OH2 9074   0.376   4.440   1.581 -0.2492  0.0051  0.4634
 3023TIP3    H1 9075   0.349   4.492   1.656 -2.1394 -1.9871  1.2897
 3023TIP3    H2 9076   0.401   4.355   1.618  0.1202 -0.5801 -1.0344
 3024TIP3   OH2 9077   0.669   4.305   3.591  0.4518  0.1117 -0.3860
 3024TIP3    H1 9078   0.759   4.330   3.612  0.7453 -0.3611 -1.0430
 3024TIP3    H2 9079   0.678   4.242   3.519 -0.2878 -1.6837  1.0261
 3025TIP3   OH2 9080   4.612   5.410   0.178  0.4086 -0.1358 -0.1385
 3025TIP3    H1 9081   4.708   5.412   0.175  0.4498 -1.3928 -0.3294
 3025TIP3    H2 9082   4.591   5.318   0.195 -0.7461  0.2984  0.9685
 3026TIP3   OH2 9083   5.140   1.447   4.409 -0.7714  0.1664  0.3674
 3026TIP3    H1 9084   5.133   1.434   4.503  0.1179  0.7832  0.5344
 3026TIP3    H2 9085   5.192   1.373   4.378 -0.8571  0.0920  0.4034
 3027TIP3   OH2 9086   3.773   3.961   5.047  0.7963  0.4088 -0.6390
 3027TIP3    H1 9087   3.775   3.867   5.024  1.6687  0.0066  0.9569
 3027TIP3    H2 9088   3.686   3.975   5.084  0.7506  0.1866 -0.6588
 3028TIP3   OH2 9089   2.862   2.933   3.550 -0.1435  0.2549 -0.4454
 3028TIP3    H1 9090   2.846   2.879   3.472  0.7638  2.4675 -2.2933
 3028TIP3    H2 9091   2.953   2.962   3.540  1.0556 -1.6935  3.0281
 3029TIP3   OH2 9092   3.523   3.976   2.005 -0.3067 -0.2700 -0.4716
 3029TIP3    H1 9093   3.513   3.905   2.069  1.7761 -0.4961 -0.3296
 3029TIP3    H2 9094   3.470   3.948   1.930 -1.3855 -0.8262  0.4554
 3030TIP3   OH2 9095   1.476   4.602   2.330  0.3790  0.2180 -0.0665
 3030TIP3    H1 9096   1.551   4.580   2.385 -1.5274 -1.1238  2.1701
 3030TIP3    H2 9097   1.511   4.664   2.266  3.1517  0.4062  1.4671
 3031TIP3   OH2 9098   3.088   0.678   4.875 -0.5548 -0.6316 -0.8503
 3031TIP3    H1 9099   3.142   0.679   4.796  0.9845 -2.8507  0.0614
 3031TIP3    H2 9100   3.143   0.718   4.942 -0.5738 -1.5679 -0.2494
 3032TIP3   OH2 9101   5.828   1.921   4.406  0.0910 -0.4058  0.1954
 3032TIP3    H1 9102   5.826   2.000   4.458  2.0890 -0.4039  0.3359
 3032TIP3    H2 9103   5.907   1.875   4.434 -0.6690 -2.1468 -0.3360
 3033TIP3   OH2 9104   1.612   2.068   2.183 -0.0074 -0.4824  0.0364
 3033TIP3    H1 9105   1.707   2.072   2.188  0.0998  0.4592 -1.8134
 3033TIP3    H2 9106   1.590   1.978   2.208  1.3318 -0.6096  0.8265
 3034TIP3   OH2 9107   1.110   2.306   0.413 -0.5542 -0.2706  0.2967
 3034TIP3    H1 9108   1.095   2.290   0.506 -0.1246 -2.0614  0.0857
 3034TIP3    H2 9109   1.023   2.318   0.376 -0.7547  0.0118  0.8498
 3035TIP3   OH2 9110   1.432   0.218   3.154  0.2641 -0.3058 -0.0496
 3035TIP3    H1 9111   1.470   0.275   3.221  0.3482 -1.5310  0.9856
 3035TIP3    H2 9112   1.482   0.237   3.074 -0.8026  2.2414 -0.1959
 3036TIP3   OH2 9113   5.122   5.638   0.910 -0.6249  0.1189 -0.2304
 3036TIP3    H1 9114   5.170   5.607   0.987  0.2070 -0.1741 -0.8478
 3036TIP3    H2 9115   5.168   5.598   0.836 -0.5671  1.4917 -0.9624
 3037TIP3   OH2 9116   4.642   4.773   2.038 -0.3024 -0.0906  0.2034
 3037TIP3    H1 9117   4.561   4.780   1.987  0.9842 -0.2783 -2.0091
 3037TIP3    H2 9118   4.661   4.679   2.039  0.3752  0.0366 -0.1431
 3038TIP3   OH2 9119   5.933   5.257   4.068  0.1181  0.1108 -0.3273
 3038TIP3    H1 9120   5.846   5.275   4.032  0.1483 -1.6147 -1.3987
 3038TIP3    H2 9121   5.991   5.262   3.992  1.0575  1.5894  0.4305
 3039TIP3   OH2 9122   4.537   4.540   4.389  0.7926  0.0693 -0.4014
 3039TIP3    H1 9123   4.627   4.572   4.384  0.7037  0.1118 -1.9341
 3039TIP3    H2 9124   4.511   4.524   4.299 -1.0496  0.8897 -0.0597
 3040TIP3   OH2 9125   4.358   0.510   4.501 -0.0826 -0.4084  0.3608
 3040TIP3    H1 9126   4.346   0.512   4.596  1.2101  2.5188  0.5670
 3040TIP3    H2 9127   4.451   0.493   4.488 -0.4835 -2.1799 -0.4863
 3041TIP3   OH2 9128   4.683   4.853   1.419 -0.4802  0.4983  0.2944
 3041TIP3    H1 9129   4.758   4.910   1.430 -0.9426  1.3133 -0.6812
 3041TIP3    H2 9130   4.717   4.777   1.372 -0.2558  0.8407 -0.0997
 3042TIP3   OH2 9131   4.661   5.490   1.519  0.3447 -0.1332 -0.2809
 3042TIP3    H1 9132   4.705   5.430   1.459 -2.5462 -2.9043  0.1404
 3042TIP3    H2 9133   4.661   5.444   1.603  0.7774  1.9235  0.9239
 3043TIP3   OH2 9134   1.580   5.135   0.382  0.1357  0.3429 -0.0068
 3043TIP3    H1 9135   1.598   5.154   0.290  3.5707 -2.9949 -0.2478
 3043TIP3    H2 9136   1.535   5.051   0.381  1.0885 -0.2236  1.3668
 3044TIP3   OH2 9137   2.791   5.516   3.277  0.2879  0.3205 -0.0994
 3044TIP3    H1 9138   2.711   5.557   3.243  1.3564  1.0320 -1.8440
 3044TIP3    H2 9139   2.835   5.587   3.324  0.4794  0.2534 -0.1792
 3045TIP3   OH2 9140   5.151   2.630   3.451 -0.1017 -0.1671  0.1269
 3045TIP3    H1 9141   5.057   2.646   3.439 -0.4974 -1.3883  1.3241
 3045TIP3    H2 9142   5.187   2.716   3.473 -1.2750  0.0393  1.4227
 3046TIP3   OH2 9143   0.834   3.425   1.850  1.1381 -0.0257  0.1029
 3046TIP3    H1 9144   0.921   3.389   1.830  1.5441  0.2519  1.2631
 3046TIP3    H2 9145   0.821   3.494   1.786  1.7284 -0.1560 -0.1646
 3047TIP3   OH2 9146   0.432   2.109   5.175  0.0477  0.1390 -0.2232
 3047TIP3    H1 9147   0.410   2.200   5.194 -0.0575  0.2465 -0.8541
 3047TIP3    H2 9148   0.525   2.110   5.155  0.7803 -0.3432  2.6351
 3048TIP3   OH2 9149   0.821   1.049   2.696 -0.0365  0.2301  0.3032
 3048TIP3    H1 9150   0.743   1.078   2.649 -0.2779 -0.4797  0.2576
 3048TIP3    H2 9151   0.825   1.106   2.773  0.2931  1.3277 -0.4840
 3049TIP3   OH2 9152   2.984   4.265   4.607 -0.5613  0.4190  0.1699
 3049TIP3    H1 9153   3.078   4.252   4.620 -0.2601 -1.5936 -2.9879
 3049TIP3    H2 9154   2.943   4.210   4.673  0.5639 -0.7947 -0.0989
 3050TIP3   OH2 9155   4.758   1.124   2.735 -0.1436  0.5070  0.0553
 3050TIP3    H1 9156   4.833   1.069   2.714 -0.6107  0.1195 -0.6463
 3050TIP3    H2 9157   4.724   1.089   2.817  0.9755  1.2641  0.8748
 3051TIP3   OH2 9158   5.779   5.796   3.435  0.0738 -0.0683 -0.6152
 3051TIP3    H1 9159   5.709   5.748   3.390  0.1685 -0.9909  0.1836
 3051TIP3    H2 9160   5.746   5.809   3.523  0.3066  0.8152 -0.6547
 3052TIP3   OH2 9161   6.023   2.789   1.097 -0.5017  0.2569 -0.7491
 3052TIP3    H1 9162   5.978   2.707   1.079 -0.9589  0.5816 -1.1009
 3052TIP3    H2 9163   5.964   2.838   1.153  0.0440  0.0936 -0.0156
 3053TIP3   OH2 9164   1.802   2.996   1.789 -0.0233 -0.0115  0.0456
 3053TIP3    H1 9165   1.776   2.905   1.775 -2.6768  0.5219  0.8868
 3053TIP3    H2 9166   1.756   3.045   1.721 -0.2867  0.8967  0.8526
 3054TIP3   OH2 9167   3.050   2.442   1.392 -0.2728  0.3920  0.2911
 3054TIP3    H1 9168   3.067   2.511   1.457 -1.1191 -0.1886  1.1701
 3054TIP3    H2 9169   3.037   2.363   1.445  2.0039 -0.7511 -0.7583
 3055TIP3   OH2 9170   3.376   4.468   2.735 -0.5048 -0.3004  0.2372
 3055TIP3    H1 9171   3.381   4.436   2.825 -2.0302  0.1857  0.5203
 3055TIP3    H2 9172   3.306   4.417   2.695  1.6533 -2.1827 -1.4429
 3056TIP3   OH2 9173   1.425   2.340   1.747  0.3289  0.6657  0.1991
 3056TIP3    H1 9174   1.355   2.277   1.761  1.3075 -0.2383  1.3054
 3056TIP3    H2 9175   1.387   2.424   1.771 -0.1199  0.0680  1.7040
 3057TIP3   OH2 9176   2.452   5.618   0.152 -0.1556  0.2097  0.2639
 3057TIP3    H1 9177   2.536   5.627   0.198 -0.3010  1.2660  0.3348
 3057TIP3    H2 9178   2.388   5.657   0.210 -0.4978  0.6422 -0.3916
 3058TIP3   OH2 9179   5.966   2.274   1.686  0.1093  0.4194  0.5781
 3058TIP3    H1 9180   6.055   2.284   1.719  1.2155 -1.1908 -1.6091
 3058TIP3    H2 9181   5.927   2.207   1.742  0.6323  0.4251  0.9568
 3059TIP3   OH2 9182   1.704   2.363   1.281 -0.0777 -0.5474 -0.3091
 3059TIP3    H1 9183   1.624   2.416   1.270 -0.0099  0.2655  2.3991
 3059TIP3    H2 9184   1.678   2.293   1.341  0.3831 -2.4638 -2.2367
 3060TIP3   OH2 9185   3.955   5.950   3.021 -0.1291 -0.3817  0.2003
 3060TIP3    H1 9186   3.937   5.873   3.076 -0.3463 -0.2792  0.2729
 3060TIP3    H2 9187   4.003   5.915   2.946 -1.0878 -0.7478 -0.2607
 3061TIP3   OH2 9188   2.368   1.461   3.335  0.1313  0.1101  0.3543
 3061TIP3    H1 9189   2.426   1.530   3.301 -0.1001  0.5124  0.7711
 3061TIP3    H2 9190   2.400   1.444   3.423  0.0831 -0.2048  0.3124
 3062TIP3   OH2 9191   2.836   2.082   3.007  0.4160 -0.5304  0.8712
 3062TIP3    H1 9192   2.822   2.007   3.065  0.5936  0.3088  2.0489
 3062TIP3    H2 9193   2.766   2.075   2.942 -0.2124 -1.1352  1.5824
 3063TIP3   OH2 9194   5.992   0.668   1.153 -0.1473 -0.3343 -0.2741
 3063TIP3    H1 9195   5.922   0.634   1.209 -2.0236 -1.6608 -3.1773
 3063TIP3    H2 9196   5.958   0.752   1.122  0.4945 -0.0015 -0.0725
 3064TIP3   OH2 9197   3.571   1.960   0.537 -0.0365 -0.4842 -0.1531
 3064TIP3    H1 9198   3.577   2.040   0.589 -1.3977 -1.8754  2.3421
 3064TIP3    H2 9199   3.495   1.973   0.481 -0.0371  0.0955 -0.0220
 3065TIP3   OH2 9200   4.807   1.274   5.021  0.0814  0.0336  0.0831
 3065TIP3    H1 9201   4.823   1.197   4.966  1.6454  0.1491  0.3295
 3065TIP3    H2 9202   4.712   1.277   5.031 -0.3208  0.1747 -2.8499
 3066TIP3   OH2 9203   3.021   1.697   2.880 -0.1518  0.0038  0.1143
 3066TIP3    H1 9204   3.064   1.615   2.902 -0.2109 -0.0120  0.1709
 3066TIP3    H2 9205   2.944   1.671   2.830 -0.1341  0.0287  0.0737
 3067TIP3   OH2 9206   0.259   4.337   4.393 -0.3389 -0.4588 -0.0959
 3067TIP3    H1 9207   0.200   4.297   4.329 -0.3046 -0.7641  0.0615
 3067TIP3    H2 9208   0.280   4.423   4.356 -1.4638 -0.0411  0.2034
 3068TIP3   OH2 9209   6.295   3.406   1.061  0.1799 -0.5650 -0.1033
 3068TIP3    H1 9210   6.346   3.325   1.050  0.1158 -0.4835 -1.1143
 3068TIP3    H2 9211   6.207   3.383   1.033 -0.3601 -0.6854  1.5764
 3069TIP3   OH2 9212   0.108   4.125   0.043  0.1742  0.2258 -0.2673
 3069TIP3    H1 9213   0.051   4.190   0.084 -0.2016  0.7407 -1.5232
 3069TIP3    H2 9214   0.069   4.041   0.065 -0.6675  0.5399 -0.4983
 3070TIP3   OH2 9215   2.005   2.913   4.589 -0.0476  0.0825 -0.1139
 3070TIP3    H1 9216   1.919   2.889   4.555  0.8334 -0.2198 -2.2460
 3070TIP3    H2 9217   2.067   2.863   4.537  1.4369 -0.6279  2.1689
 3071TIP3   OH2 9218   6.163   4.677   2.554  0.2264 -0.1453  0.4044
 3071TIP3    H1 9219   6.179   4.753   2.498  0.5379 -0.3175  0.2594
 3071TIP3    H2 9220   6.216   4.694   2.632 -0.5635  0.3160  0.8506
 3072TIP3   OH2 9221   3.476   1.461   3.299  0.2506 -0.5562 -0.2959
 3072TIP3    H1 9222   3.497   1.383   3.351 -0.3692 -0.3847  0.2282
 3072TIP3    H2 9223   3.415   1.428   3.233 -0.2359 -0.4682  0.1031
 3073TIP3   OH2 9224   0.628   3.704   3.783  0.0932  0.3054 -0.4857
 3073TIP3    H1 9225   0.634   3.609   3.779  0.4759  0.2876  0.2504
 3073TIP3    H2 9226   0.537   3.722   3.803  0.5197 -0.0343  2.0411
 3074TIP3   OH2 9227   2.931   5.488   2.583 -0.0309 -1.0124  0.9535
 3074TIP3    H1 9228   2.977   5.527   2.508 -2.0439  0.4606  0.3995
 3074TIP3    H2 9229   3.000   5.442   2.632  1.4983 -1.3475 -1.3354
 3075TIP3   OH2 9230   0.784   4.274   2.513 -0.0119  0.1509  0.0560
 3075TIP3    H1 9231   0.858   4.284   2.454  0.1372 -0.2651  0.1699
 3075TIP3    H2 9232   0.822   4.277   2.601 -0.0410 -0.7064  0.1065
 3076TIP3   OH2 9233   1.214   5.389   1.044 -0.3478  0.0633 -0.1457
 3076TIP3    H1 9234   1.291   5.391   1.101  0.0300 -1.3050 -0.5651
 3076TIP3    H2 9235   1.186   5.481   1.038  1.6171  0.6856 -0.4775
 3077TIP3   OH2 9236   1.338   5.160   0.090 -0.8411  0.6269 -0.4872
 3077TIP3    H1 9237   1.303   5.071   0.098 -0.3211  0.4448 -0.2372
 3077TIP3    H2 9238   1.262   5.213   0.065 -0.7953 -0.2175 -2.6488
 3078TIP3   OH2 9239   6.134   4.003   1.956  0.1792  0.3840  0.7317
 3078TIP3    H1 9240   6.225   3.994   1.928  0.7882  1.5274  2.2111
 3078TIP3    H2 9241   6.131   3.962   2.042 -0.9122 -0.3327  0.3712
 3079TIP3   OH2 9242   2.006   5.811   4.428 -0.3455  0.3980 -0.4093
 3079TIP3    H1 9243   1.996   5.717   4.410 -2.1362 -0.1951  2.9766
 3079TIP3    H2 9244   2.086   5.816   4.481 -0.0796  0.8599 -0.8454
 3080TIP3   OH2 9245   2.998   1.955   2.108 -0.2464 -0.2078 -0.1705
 3080TIP3    H1 9246   3.078   1.909   2.132  0.0771  0.2348 -0.3967
 3080TIP3    H2 9247   2.964   1.988   2.191 -1.0567 -1.7406  0.1546
 3081TIP3   OH2 9248   0.937   5.058   4.042  0.0738 -0.0268 -0.1424
 3081TIP3    H1 9249   0.955   5.148   4.071 -0.9098  0.1731 -0.1107
 3081TIP3    H2 9250   0.978   5.003   4.109 -1.6424  0.4267  1.3869
 3082TIP3   OH2 9251   0.368   0.556   1.281  0.3002  0.5211 -0.3138
 3082TIP3    H1 9252   0.393   0.491   1.216  0.1830 -0.2757  0.4207
 3082TIP3    H2 9253   0.273   0.567   1.268  0.2623  0.3017 -0.2219
 3083TIP3   OH2 9254   2.184   5.891   5.108 -0.0391 -0.2241  0.2783
 3083TIP3    H1 9255   2.230   5.892   5.192 -0.2869 -4.5155  0.6815
 3083TIP3    H2 9256   2.093   5.873   5.131 -0.6544  1.2019 -0.8789
 3084TIP3   OH2 9257   0.093   1.013   2.819  0.3116 -0.3666 -0.4473
 3084TIP3    H1 9258   0.041   0.937   2.844  0.4345 -0.6066 -0.8953
 3084TIP3    H2 9259   0.030   1.085   2.816  0.7418  0.3753  3.4027
 3085TIP3   OH2 9260   1.738   1.762   0.206  0.3718 -0.1690 -0.4614
 3085TIP3    H1 9261   1.809   1.824   0.223  0.4595 -0.1557 -0.8896
 3085TIP3    H2 9262   1.686   1.764   0.287  1.6978 -1.3217  0.4695
 3086TIP3   OH2 9263   3.621   3.091   4.706  0.3358  0.5337 -0.1488
 3086TIP3    H1 9264   3.658   3.179   4.697 -0.7688  0.9622 -0.5610
 3086TIP3    H2 9265   3.604   3.082   4.800  0.2183  0.8568 -0.1383
 3087TIP3   OH2 9266   5.538   5.652   1.145 -0.4207 -0.1744 -0.1363
 3087TIP3    H1 9267   5.530   5.710   1.069  0.1391  1.1987  0.7991
 3087TIP3    H2 9268   5.622   5.677   1.184  0.1458 -2.0807 -0.0333
 3088TIP3   OH2 9269   4.406   5.821   2.496  0.2622 -0.5832 -0.0926
 3088TIP3    H1 9270   4.351   5.875   2.439  0.9017 -0.5555 -0.7005
 3088TIP3    H2 9271   4.461   5.884   2.542  0.6075 -0.6693 -0.3766
 3089TIP3   OH2 9272   2.917   2.300   0.082 -0.0874 -0.1297  0.3951
 3089TIP3    H1 9273   2.931   2.388   0.045  0.1757 -0.1769  0.3760
 3089TIP3    H2 9274   2.990   2.288   0.143  0.1342 -0.5114  0.0604
 3090TIP3   OH2 9275   4.808   1.037   4.876 -0.0291  0.0278  0.2846
 3090TIP3    H1 9276   4.832   1.055   4.785  0.9232 -0.9426  0.3274
 3090TIP3    H2 9277   4.800   0.942   4.880 -1.1180  0.1330  0.9762
 3091TIP3   OH2 9278   5.861   0.908   1.705 -0.3594  0.4515 -0.4603
 3091TIP3    H1 9279   5.940   0.856   1.690  0.0489  0.3225  1.7763
 3091TIP3    H2 9280   5.842   0.949   1.620  1.3967 -0.4743 -1.3440
 3092TIP3   OH2 9281   2.990   5.998   3.907 -0.1768 -0.0005  0.2480
 3092TIP3    H1 9282   2.916   5.939   3.896 -1.1770  1.4217 -1.0779
 3092TIP3    H2 9283   3.048   5.977   3.833  0.6690 -0.9564  1.1552
 3093TIP3   OH2 9284   5.909   4.500   2.542  0.2074  0.2934  0.1510
 3093TIP3    H1 9285   5.892   4.425   2.600 -0.7504 -0.3552 -0.9297
 3093TIP3    H2 9286   5.912   4.463   2.454  1.1711  1.3356 -0.2803
 3094TIP3   OH2 9287   0.076   2.131   3.954  0.1877 -0.2025 -0.0666
 3094TIP3    H1 9288   0.140   2.201   3.947 -0.7912  0.6407 -1.2420
 3094TIP3    H2 9289  -0.008   2.174   3.938 -0.7609 -1.1706  1.9505
 3095TIP3   OH2 9290   1.349   5.365   3.084 -0.1169  0.2420  0.5279
 3095TIP3    H1 9291   1.346   5.404   2.997 -1.9482  0.6217  0.7381
 3095TIP3    H2 9292   1.441   5.338   3.094  0.2236  0.5596 -1.3312
 3096TIP3   OH2 9293   0.627   3.164   2.650  0.0701  0.6160  0.6590
 3096TIP3    H1 9294   0.710   3.119   2.640 -0.7327 -0.4106 -3.1411
 3096TIP3    H2 9295   0.563   3.094   2.663 -0.5847  1.0517 -0.0968
 3097TIP3   OH2 9296   2.164   4.981   1.789  0.2157  0.3802  0.1296
 3097TIP3    H1 9297   2.094   5.045   1.777 -2.1763 -1.6527  2.0853
 3097TIP3    H2 9298   2.123   4.897   1.768  2.3481 -0.8131  0.4953
 3098TIP3   OH2 9299   1.466   4.854   1.667 -0.0315  0.2390 -0.1810
 3098TIP3    H1 9300   1.503   4.767   1.651 -1.7899 -1.1625  2.5762
 3098TIP3    H2 9301   1.396   4.863   1.602 -0.0857 -0.5607 -0.2429
 3099TIP3   OH2 9302   6.274   0.410   2.760  0.1090  0.0028 -0.3554
 3099TIP3    H1 9303   6.304   0.358   2.835 -1.0198  1.6890  1.3452
 3099TIP3    H2 9304   6.355   0.437   2.716  0.8551 -0.0980  0.9068
 3100TIP3   OH2 9305   3.502   2.544   3.006 -0.1431 -0.0156  0.1436
 3100TIP3    H1 9306   3.531   2.573   2.919  1.1587 -2.2335 -0.2255
 3100TIP3    H2 9307   3.465   2.457   2.992  1.1284 -0.9050  1.9519
 3101TIP3   OH2 9308   4.830   2.289   3.885  0.1724 -0.5026 -0.5033
 3101TIP3    H1 9309   4.742   2.323   3.901 -0.1803 -0.5782 -2.0463
 3101TIP3    H2 9310   4.832   2.273   3.790  2.0429  0.0781 -0.6155
 3102TIP3   OH2 9311   0.579   3.529   3.038 -0.3574  0.5397  0.4051
 3102TIP3    H1 9312   0.580   3.594   3.108  1.4558 -0.8415  1.7738
 3102TIP3    H2 9313   0.506   3.471   3.061 -0.5639  0.8223  0.4598
 3103TIP3   OH2 9314   3.982   0.427   4.648  0.0329  0.3996 -0.2433
 3103TIP3    H1 9315   4.051   0.363   4.629  1.3947  1.7649 -0.1248
 3103TIP3    H2 9316   3.990   0.443   4.742 -1.4474 -0.4932  0.0697
 3104TIP3   OH2 9317   1.321   3.200   2.600 -0.3357  0.0837 -0.4858
 3104TIP3    H1 9318   1.287   3.288   2.618  1.8912  1.1200 -0.9039
 3104TIP3    H2 9319   1.279   3.174   2.518  0.8567  1.9389 -1.7879
 3105TIP3   OH2 9320   4.673   5.318   2.852  0.0199  0.3086 -0.0284
 3105TIP3    H1 9321   4.668   5.319   2.756 -0.7433 -2.2485 -0.0892
 3105TIP3    H2 9322   4.605   5.379   2.880  0.3353  1.1821 -1.0836
 3106TIP3   OH2 9323   4.089   3.510   1.966 -0.1782 -0.5137 -0.6166
 3106TIP3    H1 9324   4.150   3.563   2.016  0.7890 -1.3959 -0.8071
 3106TIP3    H2 9325   4.007   3.513   2.015  0.1991  0.1907 -0.0218
 3107TIP3   OH2 9326   2.991   1.592   2.186  0.1622  0.5001 -0.4139
 3107TIP3    H1 9327   2.898   1.594   2.210  0.5666 -1.2276  1.5905
 3107TIP3    H2 9328   3.037   1.597   2.269  1.8746  0.5369 -1.3251
 3108TIP3   OH2 9329   1.322   5.265   4.724 -0.1866 -0.1525  0.0772
 3108TIP3    H1 9330   1.369   5.284   4.804 -0.5320 -0.9743  0.4935
 3108TIP3    H2 9331   1.377   5.200   4.679  0.4797  1.0070 -0.8233
 3109TIP3   OH2 9332   4.069   4.307   2.630 -0.7551  0.1716  0.0736
 3109TIP3    H1 9333   4.069   4.212   2.620  0.5401 -0.0424  1.6189
 3109TIP3    H2 9334   4.159   4.333   2.612 -1.2742  1.2576 -1.1796
 3110TIP3   OH2 9335   5.647   0.437   2.171  0.3974  0.0703 -0.6427
 3110TIP3    H1 9336   5.578   0.490   2.132  1.0530  0.1554 -1.7316
 3110TIP3    H2 9337   5.660   0.365   2.109 -1.1411 -1.9872  1.2469
 3111TIP3   OH2 9338   5.749   5.529   4.992  0.2867  0.1356 -0.0860
 3111TIP3    H1 9339   5.801   5.553   5.068 -0.3188 -0.6025  0.5753
 3111TIP3    H2 9340   5.658   5.545   5.019  0.0828  0.1744 -0.7689
 3112TIP3   OH2 9341   5.131   5.208   3.875 -0.2558 -0.6408 -0.2327
 3112TIP3    H1 9342   5.195   5.181   3.940 -0.7661 -1.6371 -0.1273
 3112TIP3    H2 9343   5.048   5.172   3.905 -0.9560  0.8851 -0.2045
 3113TIP3   OH2 9344   0.383   5.345   4.617  0.1203 -0.1059 -0.1712
 3113TIP3    H1 9345   0.293   5.371   4.597 -1.4087 -2.2329  3.0558
 3113TIP3    H2 9346   0.418   5.420   4.666  0.4003  0.9355 -1.8503
 3114TIP3   OH2 9347   3.370   5.156   3.592 -0.4137 -0.3052 -0.6445
 3114TIP3    H1 9348   3.319   5.107   3.656  0.9661 -0.0412  0.7210
 3114TIP3    H2 9349   3.436   5.094   3.561  1.1836  0.5194  0.9118
 3115TIP3   OH2 9350   4.644   2.598   3.799  0.1471  0.2560 -0.3470
 3115TIP3    H1 9351   4.577   2.657   3.765 -0.0915  0.0383 -0.2515
 3115TIP3    H2 9352   4.641   2.522   3.741 -1.7074 -1.0716  1.3499
 3116TIP3   OH2 9353   5.291   4.057   5.091 -0.5079  0.1211 -0.8663
 3116TIP3    H1 9354   5.341   3.976   5.088  1.8234  1.4145  0.4263
 3116TIP3    H2 9355   5.331   4.113   5.024  0.4317  1.4726  0.7381
 3117TIP3   OH2 9356   1.828   1.187   4.809  0.0004  0.0434 -0.0073
 3117TIP3    H1 9357   1.751   1.241   4.826 -1.7488 -2.3793  0.4284
 3117TIP3    H2 9358   1.808   1.144   4.726  0.5159 -1.1744  0.4759
 3118TIP3   OH2 9359   2.381   0.786   1.442  0.1024  0.4068 -0.3150
 3118TIP3    H1 9360   2.295   0.793   1.400 -0.3907  0.8832  0.7215
 3118TIP3    H2 9361   2.368   0.823   1.529  1.0387 -0.7239  0.3367
 3119TIP3   OH2 9362   4.285   1.538   1.708 -0.4800  0.3418 -0.1974
 3119TIP3    H1 9363   4.208   1.501   1.752 -0.5659  1.0254  0.2327
 3119TIP3    H2 9364   4.303   1.476   1.636 -2.0591  0.7091 -0.9466
 3120TIP3   OH2 9365   0.659   5.558   0.193  0.1462  0.0451  0.2206
 3120TIP3    H1 9366   0.715   5.598   0.260  0.6528  0.4160 -0.4224
 3120TIP3    H2 9367   0.574   5.548   0.236 -0.4730  3.2348 -0.0680
 3121TIP3   OH2 9368   2.196   0.078   2.186 -0.7435 -0.1699 -0.3462
 3121TIP3    H1 9369   2.265   0.138   2.156  0.6366 -1.1758  0.7149
 3121TIP3    H2 9370   2.124   0.093   2.124 -0.4113  2.4438 -0.2288
 3122TIP3   OH2 9371   4.175   2.172   0.357  0.4634 -0.2083 -0.2064
 3122TIP3    H1 9372   4.235   2.207   0.291 -0.0141  0.2680 -0.3951
 3122TIP3    H2 9373   4.231   2.123   0.417  1.0252  0.1174 -0.4592
 3123TIP3   OH2 9374   3.474   3.767   3.378 -0.5856  0.0367  0.4061
 3123TIP3    H1 9375   3.532   3.763   3.454  0.9370 -0.5250 -0.7311
 3123TIP3    H2 9376   3.486   3.855   3.342  1.4757 -0.8008 -1.1849
 3124TIP3   OH2 9377   5.378   3.663   2.463 -0.0335  0.0561  0.1044
 3124TIP3    H1 9378   5.341   3.678   2.376  1.0896  1.8187 -0.1220
 3124TIP3    H2 9379   5.470   3.640   2.446  0.0914  0.0333  0.8059
 3125TIP3   OH2 9380   2.161   1.235   3.864  0.1921  0.6819 -0.6068
 3125TIP3    H1 9381   2.076   1.253   3.903 -1.3569 -2.7964 -1.9615
 3125TIP3    H2 9382   2.217   1.209   3.938 -0.7807  0.2839  0.0039
 3126TIP3   OH2 9383   0.460   5.636   1.440  0.5138  0.0241  0.4976
 3126TIP3    H1 9384   0.381   5.594   1.476  0.5009  0.0010  0.4439
 3126TIP3    H2 9385   0.456   5.726   1.471  0.2568  0.1297  0.1672
 3127TIP3   OH2 9386   5.934   3.998   0.715  0.0306  0.4936  0.2918
 3127TIP3    H1 9387   5.934   3.903   0.724  1.1069  0.4546  0.0430
 3127TIP3    H2 9388   5.844   4.025   0.736 -0.4110 -0.6137 -0.1332
 3128TIP3   OH2 9389   0.349   1.479   4.129 -0.5815  0.3124 -0.1246
 3128TIP3    H1 9390   0.329   1.406   4.189  0.4854 -0.7395 -1.0209
 3128TIP3    H2 9391   0.440   1.501   4.147 -1.1474  2.1398  0.8297
 3129TIP3   OH2 9392   5.274   3.600   1.181 -0.5272  0.3756  0.1490
 3129TIP3    H1 9393   5.329   3.619   1.104 -1.0627  1.3618 -0.0061
 3129TIP3    H2 9394   5.198   3.657   1.171 -0.1963  1.1978  1.8556
 3130TIP3   OH2 9395   5.019   5.704   2.121 -0.2819  0.2115  0.2550
 3130TIP3    H1 9396   5.053   5.615   2.135  1.3678  0.9750  1.4648
 3130TIP3    H2 9397   5.075   5.740   2.052  0.8412  1.1666  1.6100
 3131TIP3   OH2 9398   4.670   5.072   0.083 -0.1345 -0.1365 -0.3123
 3131TIP3    H1 9399   4.753   5.083   0.038  0.4375 -1.3205  0.3972
 3131TIP3    H2 9400   4.693   5.070   0.176 -0.8882 -0.9139 -0.1296
 3132TIP3   OH2 9401   1.059   4.851   3.480  0.0126  0.4061 -0.2051
 3132TIP3    H1 9402   0.974   4.893   3.493  0.3733  0.5988  1.9910
 3132TIP3    H2 9403   1.121   4.911   3.523  0.9930 -0.6888 -0.0547
 3133TIP3   OH2 9404   6.120   0.824   3.041 -0.3680  0.2057 -0.7183
 3133TIP3    H1 9405   6.162   0.875   3.110 -1.1434  1.1960 -0.9520
 3133TIP3    H2 9406   6.152   0.734   3.054 -2.5438 -0.2559  2.6953
 3134TIP3   OH2 9407   2.349   4.314   3.655 -0.4514 -0.1804  0.0214
 3134TIP3    H1 9408   2.298   4.267   3.589 -0.9830  1.6734 -0.9622
 3134TIP3    H2 9409   2.320   4.278   3.739 -1.7693 -0.7010 -0.6296
 3135TIP3   OH2 9410   5.185   5.699   0.570 -0.2680  0.0300 -0.4884
 3135TIP3    H1 9411   5.273   5.716   0.605 -0.9137  1.0637  0.6976
 3135TIP3    H2 9412   5.182   5.749   0.489  0.5952 -0.8970 -1.1295
 3136TIP3   OH2 9413   2.212   4.919   3.579 -0.1854 -0.7791  0.3208
 3136TIP3    H1 9414   2.290   4.975   3.582  0.2202 -1.3827  1.8303
 3136TIP3    H2 9415   2.148   4.970   3.529  0.6865  0.3716  0.3408
 3137TIP3   OH2 9416   0.067   2.719   2.142 -0.0164 -0.2305 -0.1422
 3137TIP3    H1 9417   0.073   2.640   2.088  1.5885  0.5438 -1.1546
 3137TIP3    H2 9418  -0.023   2.748   2.131 -0.1971 -1.0595 -1.0127
 3138TIP3   OH2 9419   0.884   0.867   3.885  0.1538  0.4039  0.1902
 3138TIP3    H1 9420   0.853   0.950   3.850  1.8767  0.6907 -0.7601
 3138TIP3    H2 9421   0.805   0.825   3.919 -0.7055  2.5455  1.0026
 3139TIP3   OH2 9422   6.088   3.845   0.007  0.2276 -0.2366  0.0582
 3139TIP3    H1 9423   6.037   3.879  -0.066 -0.0021 -0.7853 -0.0372
 3139TIP3    H2 9424   6.023   3.818   0.072  0.4319  0.4506  0.5653
 3140TIP3   OH2 9425   1.738   1.256   4.330  0.4778 -0.2077 -0.3956
 3140TIP3    H1 9426   1.732   1.301   4.246 -1.9546  0.2108 -0.0877
 3140TIP3    H2 9427   1.742   1.326   4.395  0.2819 -0.4851 -0.0821
 3141TIP3   OH2 9428   0.287   0.300   0.593 -0.1675  0.1353  0.5557
 3141TIP3    H1 9429   0.312   0.220   0.546 -1.3737  1.3634 -2.3973
 3141TIP3    H2 9430   0.370   0.338   0.621  0.3821 -2.9303  3.6627
 3142TIP3   OH2 9431   2.250   4.440   2.264 -0.7119 -0.3563  0.4973
 3142TIP3    H1 9432   2.241   4.407   2.353  1.5675 -1.4106  0.3937
 3142TIP3    H2 9433   2.188   4.388   2.213 -1.4405 -0.3076  1.3050
 3143TIP3   OH2 9434   3.008   4.107   3.666  0.1112 -0.1723 -0.1126
 3143TIP3    H1 9435   3.006   4.039   3.734  1.6778  1.1558  1.3491
 3143TIP3    H2 9436   3.027   4.188   3.714  2.3073  0.6818 -2.2082
 3144TIP3   OH2 9437   1.648   2.224   1.683 -0.0797  0.8203 -0.0853
 3144TIP3    H1 9438   1.566   2.262   1.712  0.4484  1.0939  1.0729
 3144TIP3    H2 9439   1.683   2.179   1.760  0.1823 -0.5009 -0.9364
 3145TIP3   OH2 9440   2.900   2.201   1.818  0.5274 -0.6575  0.2672
 3145TIP3    H1 9441   2.901   2.107   1.802  1.0375 -0.4651 -0.9338
 3145TIP3    H2 9442   2.992   2.224   1.831  0.3488 -0.4150  1.1673
 3146TIP3   OH2 9443   5.995   3.457   1.867  0.1495  0.0043  0.2140
 3146TIP3    H1 9444   5.954   3.422   1.788 -0.1652  0.1207  0.3232
 3146TIP3    H2 9445   5.922   3.472   1.927 -0.0354  3.0126 -0.6131
 3147TIP3   OH2 9446   4.425   5.949   3.456 -0.2681  0.1244  0.0578
 3147TIP3    H1 9447   4.505   6.000   3.467  0.0790 -0.2704 -0.5736
 3147TIP3    H2 9448   4.438   5.902   3.373 -1.1194 -0.0009 -0.0106
 3148TIP3   OH2 9449   2.692   1.207   4.074 -0.2108 -0.7066  0.2546
 3148TIP3    H1 9450   2.713   1.130   4.127  0.0724  0.6748  2.2850
 3148TIP3    H2 9451   2.768   1.218   4.017 -1.0417 -2.9341 -1.4384
 3149TIP3   OH2 9452   2.053   1.497   3.497  0.1886  0.4357  0.2200
 3149TIP3    H1 9453   2.138   1.471   3.532 -0.0075  1.1894  1.3271
 3149TIP3    H2 9454   1.990   1.447   3.550 -0.1284  1.8182  1.2117
 3150TIP3   OH2 9455   5.718   3.327   1.720 -0.1762 -0.1115  0.0527
 3150TIP3    H1 9456   5.755   3.415   1.709  1.2536 -0.6668  0.2295
 3150TIP3    H2 9457   5.661   3.316   1.643 -0.1481  0.8447 -0.1234
 3151TIP3   OH2 9458   1.412   1.033   5.055  0.0005  0.2539 -0.2905
 3151TIP3    H1 9459   1.459   0.954   5.081 -0.5207 -0.1714 -0.5999
 3151TIP3    H2 9460   1.443   1.052   4.966 -0.2172  0.1159 -0.3989
 3152TIP3   OH2 9461   1.126   0.546   3.059 -0.2419  0.4341  0.5575
 3152TIP3    H1 9462   1.081   0.564   2.976  0.7086 -0.1037 -0.0967
 3152TIP3    H2 9463   1.191   0.615   3.067  0.3016 -0.0537  0.3781
 3153TIP3   OH2 9464   0.111   4.518   2.386  0.0166 -0.0932 -0.1630
 3153TIP3    H1 9465   0.108   4.528   2.290  0.8773 -2.3361 -0.5041
 3153TIP3    H2 9466   0.025   4.484   2.409 -0.6069  1.5685  0.0627
 3154TIP3   OH2 9467   2.750   0.479   4.658  0.0867  0.1256 -0.3409
 3154TIP3    H1 9468   2.806   0.419   4.706  0.2292  1.1575  0.8414
 3154TIP3    H2 9469   2.717   0.428   4.584  0.6068 -1.2329  0.3367
 3155TIP3   OH2 9470   5.716   0.075   1.010  0.0629 -0.1684 -0.4987
 3155TIP3    H1 9471   5.672   0.060   0.926  1.1299 -0.9332 -0.9514
 3155TIP3    H2 9472   5.770   0.152   0.996 -1.4752  1.0784  0.2149
 3156TIP3   OH2 9473   3.826   3.899   2.408 -0.7239 -0.1583 -0.5638
 3156TIP3    H1 9474   3.777   3.855   2.339 -0.2935 -0.2345 -0.8258
 3156TIP3    H2 9475   3.896   3.838   2.430 -0.6499  0.0192 -0.3088
 3157TIP3   OH2 9476   4.151   2.559   5.078  0.1256  0.3206  0.3519
 3157TIP3    H1 9477   4.228   2.595   5.123  0.5435 -0.7767  0.5387
 3157TIP3    H2 9478   4.089   2.540   5.148 -0.1267  0.7397  0.2457
 3158TIP3   OH2 9479   1.146   0.130   0.218  0.6720 -0.8809 -0.4006
 3158TIP3    H1 9480   1.139   0.053   0.274 -0.1024 -1.0557 -0.7387
 3158TIP3    H2 9481   1.187   0.099   0.138  1.7950 -0.6274  0.0484
 3159TIP3   OH2 9482   0.115   0.531   0.524 -0.5358  0.3541  0.2930
 3159TIP3    H1 9483   0.158   0.448   0.502 -0.6278  0.0470  1.2192
 3159TIP3    H2 9484   0.175   0.574   0.585 -0.2383  1.2267 -0.5961
 3160TIP3   OH2 9485   4.511   2.814   5.078 -0.3150  0.2171  0.4227
 3160TIP3    H1 9486   4.594   2.777   5.108  0.0041 -0.6200 -1.3954
 3160TIP3    H2 9487   4.448   2.788   5.145  0.5288 -0.7596  0.8671
 3161TIP3   OH2 9488   0.225   2.092   1.840 -0.1823 -0.0184  0.1877
 3161TIP3    H1 9489   0.225   2.153   1.766  0.0918 -0.7632 -0.4378
 3161TIP3    H2 9490   0.168   2.133   1.905  1.7010  2.0256  0.7081
 3162TIP3   OH2 9491   6.064   1.111   4.528 -0.2154  0.5282 -0.4642
 3162TIP3    H1 9492   6.085   1.120   4.621 -1.2008 -0.5580 -0.1131
 3162TIP3    H2 9493   6.059   1.017   4.513  2.5176  0.5551 -2.2591
 3163TIP3   OH2 9494   3.586   5.853   3.082 -0.2782 -0.2628 -0.1020
 3163TIP3    H1 9495   3.593   5.911   3.006  0.5940 -1.5062 -0.9983
 3163TIP3    H2 9496   3.674   5.818   3.094 -0.1482  0.6367  2.1175
 3164TIP3   OH2 9497   0.740   5.368   4.463 -0.0971  0.1046 -0.3069
 3164TIP3    H1 9498   0.712   5.277   4.476 -0.6194  0.4055  0.8444
 3164TIP3    H2 9499   0.757   5.400   4.552  1.0250  0.8461 -0.7700
 3165TIP3   OH2 9500   2.869   4.440   4.144  0.5120 -0.3414  0.2646
 3165TIP3    H1 9501   2.788   4.480   4.112 -0.3564 -1.4603  0.9786
 3165TIP3    H2 9502   2.914   4.511   4.190 -1.2039 -0.2266  1.8964
 3166TIP3   OH2 9503   3.011   4.910   4.494 -0.6745  0.4022 -0.4427
 3166TIP3    H1 9504   3.077   4.909   4.425 -0.1856  4.7956 -0.3377
 3166TIP3    H2 9505   3.057   4.879   4.572  0.1204 -0.1908 -1.1337
 3167TIP3   OH2 9506   0.836   2.014   2.992  0.4551 -0.2855 -0.2812
 3167TIP3    H1 9507   0.745   1.987   2.984 -0.1844  1.6168 -0.0196
 3167TIP3    H2 9508   0.870   1.966   3.067 -0.0065 -1.7956 -1.0179
 3168TIP3   OH2 9509   2.177   2.186   4.100 -0.1260  0.4696 -0.3786
 3168TIP3    H1 9510   2.168   2.267   4.049 -0.7569  0.1429 -0.8167
 3168TIP3    H2 9511   2.234   2.209   4.173  0.9634  0.9056 -1.3358
 3169TIP3   OH2 9512   2.234   5.748   4.878 -0.0952 -0.2939 -0.0541
 3169TIP3    H1 9513   2.319   5.725   4.914 -0.4040 -0.1431  0.7948
 3169TIP3    H2 9514   2.191   5.798   4.948 -0.2504  1.0313 -1.0584
 3170TIP3   OH2 9515   1.942   5.319   2.079  0.2882 -0.4093 -0.0804
 3170TIP3    H1 9516   1.942   5.346   2.171 -0.9739  1.8319 -0.6689
 3170TIP3    H2 9517   1.931   5.224   2.083  0.4645 -0.3974  2.0798
 3171TIP3   OH2 9518   0.088   0.169   0.100  0.2580  0.1502 -0.0287
 3171TIP3    H1 9519   0.137   0.236   0.052 -0.3697  0.2134 -0.5963
 3171TIP3    H2 9520   0.057   0.215   0.179  3.4342 -0.6117  1.8267
 3172TIP3   OH2 9521   6.313   1.918   4.380 -0.4792  0.3502 -0.2894
 3172TIP3    H1 9522   6.257   1.967   4.440 -0.0854  0.5141 -0.0477
 3172TIP3    H2 9523   6.402   1.947   4.402 -0.2211 -0.6738  0.0458
 3173TIP3   OH2 9524   3.791   1.384   1.476 -0.1324  0.5341  0.2992
 3173TIP3    H1 9525   3.802   1.289   1.488  1.2593  0.4658 -1.0976
 3173TIP3    H2 9526   3.874   1.421   1.505  0.7385  0.9353 -2.3969
 3174TIP3   OH2 9527   3.970   1.926   3.622 -0.3629 -0.1862 -0.1159
 3174TIP3    H1 9528   3.945   2.018   3.609  0.5725 -0.1876 -2.4657
 3174TIP3    H2 9529   4.061   1.929   3.649 -0.4987 -0.4013  0.3618
 3175TIP3   OH2 9530   3.704   5.831   2.171  0.4390  0.0989 -0.7349
 3175TIP3    H1 9531   3.733   5.793   2.088  0.1738 -0.6825 -0.4758
 3175TIP3    H2 9532   3.786   5.850   2.218  0.6073  1.0667 -1.3886
 3176TIP3   OH2 9533   4.604   3.636   3.199 -0.3234  0.0936 -0.0733
 3176TIP3    H1 9534   4.646   3.682   3.272 -0.0430 -0.5122  0.1562
 3176TIP3    H2 9535   4.648   3.670   3.121  0.1682 -0.0890  0.1230
 3177TIP3   OH2 9536   4.943   0.104   3.578  0.5005 -0.4239  0.3298
 3177TIP3    H1 9537   5.025   0.124   3.622  1.2027 -0.7133 -0.8186
 3177TIP3    H2 9538   4.893   0.186   3.581  1.6640  0.3607 -0.7262
 3178TIP3   OH2 9539   5.973   2.535   0.264  0.2132  0.0664  0.5009
 3178TIP3    H1 9540   5.966   2.603   0.331 -0.1343 -0.5033  1.0489
 3178TIP3    H2 9541   5.953   2.454   0.309 -1.3337 -0.1851 -0.5667
 3179TIP3   OH2 9542   4.160   4.496   4.443  0.4880 -0.2011  0.2501
 3179TIP3    H1 9543   4.134   4.404   4.436 -0.8756  0.1569  0.4147
 3179TIP3    H2 9544   4.142   4.520   4.533 -1.6594  0.9223 -0.4101
 3180TIP3   OH2 9545   3.950   0.449   3.734 -0.1906  0.3163  0.1054
 3180TIP3    H1 9546   3.869   0.468   3.688 -0.5971 -3.3208 -0.9921
 3180TIP3    H2 9547   3.924   0.397   3.810  0.9155  2.2293  1.9406
 3181TIP3   OH2 9548   1.147   0.317   2.403 -0.6733 -0.0228 -0.4639
 3181TIP3    H1 9549   1.123   0.371   2.478  1.0140  0.0613  0.0629
 3181TIP3    H2 9550   1.138   0.376   2.328  1.9123  1.3456  0.1877
 3182TIP3   OH2 9551   0.624   4.104   1.537  0.0971  0.1566  0.0877
 3182TIP3    H1 9552   0.597   4.081   1.626  1.8629  1.5201  1.0388
 3182TIP3    H2 9553   0.548   4.151   1.501 -0.2725  0.5204  1.2730
 3183TIP3   OH2 9554   3.398   5.108   2.353 -0.5370  0.4737 -0.1536
 3183TIP3    H1 9555   3.428   5.017   2.354 -1.4077  0.1807  0.5293
 3183TIP3    H2 9556   3.403   5.134   2.261  0.6379  0.0532 -0.2198
 3184TIP3   OH2 9557   4.278   4.069   1.237  0.1934 -0.3915 -0.0787
 3184TIP3    H1 9558   4.340   3.996   1.242  3.2256  1.6608 -3.4293
 3184TIP3    H2 9559   4.207   4.035   1.182  1.5799 -0.9218 -1.6446
 3185TIP3   OH2 9560   1.590   5.223   5.101  0.1291  0.2449 -0.0950
 3185TIP3    H1 9561   1.594   5.204   5.194  2.8246  0.9157  0.0131
 3185TIP3    H2 9562   1.546   5.308   5.096 -0.4503 -0.0114  0.5092
 3186TIP3   OH2 9563   4.160   3.592   4.075 -0.0694 -0.3237 -0.5177
 3186TIP3    H1 9564   4.206   3.546   4.145 -1.1705  0.5194  0.8028
 3186TIP3    H2 9565   4.107   3.658   4.119 -0.7856  0.2637 -2.1500
 3187TIP3   OH2 9566   4.743   1.623   3.030  0.3939  0.5302  0.2666
 3187TIP3    H1 9567   4.706   1.688   3.089  2.9953 -1.1826  4.2427
 3187TIP3    H2 9568   4.671   1.563   3.012 -0.7392  1.6696  0.8614
 3188TIP3   OH2 9569   0.223   1.702   2.171 -0.0604  0.1183  0.4591
 3188TIP3    H1 9570   0.241   1.613   2.139  1.8366 -0.0872  1.9554
 3188TIP3    H2 9571   0.196   1.750   2.092 -0.3884 -1.5758 -0.5193
 3189TIP3   OH2 9572   6.189   2.821   0.019 -0.0781 -0.1190 -0.3191
 3189TIP3    H1 9573   6.119   2.837  -0.045  0.4494 -2.4112 -1.6165
 3189TIP3    H2 9574   6.191   2.725   0.027  2.1168 -0.0368  0.5905
 3190TIP3   OH2 9575   5.830   2.923   2.885 -0.2858 -0.1777  0.8546
 3190TIP3    H1 9576   5.899   2.858   2.898 -0.8265 -0.4928  2.4619
 3190TIP3    H2 9577   5.876   3.003   2.860  0.4491 -0.9631 -0.3889
 3191TIP3   OH2 9578   6.290   1.232   2.883  0.4379  0.1559 -0.2159
 3191TIP3    H1 9579   6.295   1.296   2.954 -2.0346 -0.9502  1.0830
 3191TIP3    H2 9580   6.199   1.202   2.884  0.7937 -1.2724 -2.6722
 3192TIP3   OH2 9581   4.140   4.072   1.497 -0.8545 -0.6429  0.1538
 3192TIP3    H1 9582   4.192   4.054   1.419  0.3576 -0.8730  0.9932
 3192TIP3    H2 9583   4.057   4.026   1.482 -0.5457 -0.8756 -0.8822
 3193TIP3   OH2 9584   0.660   5.234   2.993 -0.5288  0.2890 -0.0288
 3193TIP3    H1 9585   0.630   5.167   2.931  0.5409 -0.0919 -0.1620
 3193TIP3    H2 9586   0.651   5.194   3.079 -0.2369  0.1148 -0.0804
 3194TIP3   OH2 9587   5.522   2.923   4.131  0.1616 -0.5334  0.1036
 3194TIP3    H1 9588   5.570   2.945   4.211 -0.0807 -1.0559  0.3961
 3194TIP3    H2 9589   5.534   2.999   4.074  1.2484 -0.6109  0.2114
 3195TIP3   OH2 9590   1.753   0.880   4.236  0.0973 -0.2107  0.1421
 3195TIP3    H1 9591   1.686   0.931   4.281 -0.4934 -0.4734 -0.4271
 3195TIP3    H2 9592   1.735   0.789   4.260  0.7647 -0.2181  0.6508
 3196TIP3   OH2 9593   2.562   4.161   3.015  0.6625 -0.0855  0.1281
 3196TIP3    H1 9594   2.528   4.076   2.986 -0.0385 -0.1688  1.1099
 3196TIP3    H2 9595   2.657   4.154   3.005  0.5820 -0.8372 -0.1797
 3197TIP3   OH2 9596   3.026   1.720   1.342 -0.0780  0.3480 -0.4131
 3197TIP3    H1 9597   3.020   1.814   1.330  1.0094  0.3147 -1.3922
 3197TIP3    H2 9598   3.117   1.705   1.370 -0.6858 -0.2618  1.3535
 3198TIP3   OH2 9599   0.476   5.306   3.963 -0.1805 -0.3196 -0.3691
 3198TIP3    H1 9600   0.481   5.243   4.035  0.2473  0.9703  0.7698
 3198TIP3    H2 9601   0.554   5.361   3.974 -2.0061  2.2962  0.5430
 3199TIP3   OH2 9602   4.061   4.124   2.981 -0.0029  0.3419 -0.1091
 3199TIP3    H1 9603   3.970   4.125   2.951 -0.5550  2.0073  1.4146
 3199TIP3    H2 9604   4.056   4.156   3.071  1.8229 -1.9882  0.9275
 3200TIP3   OH2 9605   5.966   0.561   1.600  0.0197 -0.8076 -1.0942
 3200TIP3    H1 9606   6.014   0.633   1.640 -0.7792 -1.5005  1.3085
 3200TIP3    H2 9607   5.893   0.604   1.554  0.3264 -0.0099 -0.8599
 3201TIP3   OH2 9608   4.930   2.975   1.755 -0.0363 -0.5021  0.3206
 3201TIP3    H1 9609   4.960   3.052   1.707 -0.8520  0.9796  2.0640
 3201TIP3    H2 9610   4.945   2.902   1.696  0.7811  0.9922 -1.3923
 3202TIP3   OH2 9611   3.461   5.514   2.828  0.1055  0.2849 -0.6791
 3202TIP3    H1 9612   3.541   5.501   2.777  1.1779  1.7597  0.5302
 3202TIP3    H2 9613   3.484   5.486   2.916 -0.7901  0.4707 -0.3738
 3203TIP3   OH2 9614   1.687   3.779   1.441 -0.5637  0.2390  0.1116
 3203TIP3    H1 9615   1.736   3.838   1.384  0.7569  1.0543  1.9847
 3203TIP3    H2 9616   1.598   3.781   1.406  0.0692  1.1061 -1.5780
 3204TIP3   OH2 9617   4.357   4.801   4.533 -0.4624 -0.4429  0.3694
 3204TIP3    H1 9618   4.320   4.724   4.491 -4.4583  0.3072  2.0554
 3204TIP3    H2 9619   4.394   4.769   4.615 -0.3960 -0.7918  0.2029
 3205TIP3   OH2 9620   0.352   1.368   0.387 -0.3211 -0.2782 -0.0387
 3205TIP3    H1 9621   0.345   1.400   0.297  0.1226  2.1906  0.7437
 3205TIP3    H2 9622   0.290   1.421   0.437 -0.3609 -1.4155  1.1715
 3206TIP3   OH2 9623   0.533   5.153   4.177  0.7434 -0.3717 -0.5431
 3206TIP3    H1 9624   0.577   5.077   4.215  1.4192  0.9997  1.5998
 3206TIP3    H2 9625   0.478   5.187   4.248 -0.1579  0.6858 -1.6957
 3207TIP3   OH2 9626   1.938   5.975   1.917  0.1948 -0.2925 -0.2993
 3207TIP3    H1 9627   1.951   6.070   1.912 -0.8396 -0.1271 -0.2098
 3207TIP3    H2 9628   2.023   5.938   1.895  0.1466  0.6337 -2.2522
 3208TIP3   OH2 9629   2.994   4.586   0.665  0.2863  0.3283  0.1145
 3208TIP3    H1 9630   2.932   4.574   0.737 -0.1168  0.0386 -0.2798
 3208TIP3    H2 9631   3.049   4.660   0.693 -0.7061  1.0782  0.1372
 3209TIP3   OH2 9632   3.075   4.699   1.810  0.6445  0.8279  0.0786
 3209TIP3    H1 9633   2.999   4.706   1.867  0.1921 -0.1831 -0.3792
 3209TIP3    H2 9634   3.136   4.644   1.858 -0.0608 -0.6986 -0.7145
 3210TIP3   OH2 9635   3.714   0.045   4.876  0.5468 -0.4621  0.5031
 3210TIP3    H1 9636   3.641   0.084   4.924  0.1656 -0.3961 -0.1237
 3210TIP3    H2 9637   3.713   0.088   4.791  0.3438 -1.5669 -0.0743
 3211TIP3   OH2 9638   4.450   2.832   3.040 -0.2292 -0.0791  0.2290
 3211TIP3    H1 9639   4.528   2.781   3.066  0.1738 -0.1112 -1.0019
 3211TIP3    H2 9640   4.421   2.873   3.121  0.7813 -0.4649  0.8090
 3212TIP3   OH2 9641   2.381   0.459   4.316  0.2256  0.2196  0.1626
 3212TIP3    H1 9642   2.422   0.373   4.317  0.9949  0.5702 -0.1708
 3212TIP3    H2 9643   2.353   0.473   4.407  0.9644  0.0184  0.4349
 3213TIP3   OH2 9644   0.038   0.983   2.112  0.0201 -0.2217 -0.1441
 3213TIP3    H1 9645  -0.006   1.066   2.127 -0.4058 -0.4394 -0.1721
 3213TIP3    H2 9646  -0.024   0.932   2.060  0.8069 -0.0726 -1.2836
 3214TIP3   OH2 9647   1.542   3.183   0.549  0.3888  0.3328 -0.0400
 3214TIP3    H1 9648   1.473   3.140   0.600  0.2899  0.4729 -0.0553
 3214TIP3    H2 9649   1.620   3.177   0.604  0.1052  1.1824  0.4838
 3215TIP3   OH2 9650   3.921   3.687   4.826  0.0058 -0.2879 -0.1150
 3215TIP3    H1 9651   4.004   3.699   4.872  0.1480 -0.6957 -0.2581
 3215TIP3    H2 9652   3.854   3.706   4.892  0.2100  0.5076 -0.1294
 3216TIP3   OH2 9653   4.853   1.395   2.462  0.0602  0.2789  0.2990
 3216TIP3    H1 9654   4.781   1.454   2.484  0.5743  1.5293 -1.1508
 3216TIP3    H2 9655   4.930   1.451   2.463  0.7656 -0.6752  0.1575
 3217TIP3   OH2 9656   3.312   3.677   2.730 -0.0991 -0.1389 -0.0182
 3217TIP3    H1 9657   3.244   3.610   2.716 -1.1103  0.2329  2.5873
 3217TIP3    H2 9658   3.343   3.662   2.819  1.1997  1.5080 -0.1473
 3218TIP3   OH2 9659   5.582   3.158   3.973 -0.6828  0.1543  0.3072
 3218TIP3    H1 9660   5.605   3.220   4.043 -0.3484  1.8447 -1.2177
 3218TIP3    H2 9661   5.559   3.213   3.899 -0.1129 -1.5590 -1.2292
 3219TIP3   OH2 9662   5.450   1.404   2.173 -0.3249 -0.1689 -0.3868
 3219TIP3    H1 9663   5.520   1.360   2.125  0.0897  0.0323  0.0331
 3219TIP3    H2 9664   5.459   1.372   2.263  0.8818  1.8152  0.2578
 3220TIP3   OH2 9665   2.555   4.828   2.362 -0.5714 -0.6215  0.8339
 3220TIP3    H1 9666   2.495   4.781   2.421 -1.4817 -0.7243 -0.1566
 3220TIP3    H2 9667   2.603   4.887   2.420 -2.1149 -0.0332  1.5750
 3221TIP3   OH2 9668   2.180   1.787   1.365  0.2490 -0.2763 -0.0326
 3221TIP3    H1 9669   2.131   1.711   1.337  0.3755  0.2768 -1.9209
 3221TIP3    H2 9670   2.118   1.860   1.358  1.1814  0.3876 -2.2114
 3222TIP3   OH2 9671   2.622   0.925   1.392  0.1947 -0.7270 -0.2056
 3222TIP3    H1 9672   2.608   0.935   1.298 -1.2932  1.6091  0.1957
 3222TIP3    H2 9673   2.545   0.877   1.423 -0.0662 -0.1637  0.0247
 3223TIP3   OH2 9674   1.060   3.377   4.208 -0.6376  0.4813 -0.7096
 3223TIP3    H1 9675   1.138   3.370   4.152 -0.3571  0.6185 -0.3458
 3223TIP3    H2 9676   0.995   3.322   4.166  0.0786 -0.7028 -0.3217
 3224TIP3   OH2 9677   1.389   4.265   4.077 -0.3344  0.0901  0.1156
 3224TIP3    H1 9678   1.325   4.223   4.019 -0.9291  1.6234 -0.3968
 3224TIP3    H2 9679   1.408   4.349   4.035  0.6679  0.4234  1.1839
 3225TIP3   OH2 9680   1.295   4.458   1.157 -0.0912 -0.0416 -0.4427
 3225TIP3    H1 9681   1.239   4.456   1.079 -1.6765  2.3352  0.5051
 3225TIP3    H2 9682   1.296   4.367   1.187 -1.9675 -0.5012 -1.5417
 3226TIP3   OH2 9683   2.479   2.707   2.555 -1.1528  0.4178  0.0131
 3226TIP3    H1 9684   2.477   2.612   2.566 -0.6441 -0.2811 -4.3212
 3226TIP3    H2 9685   2.401   2.727   2.503  1.0085  1.5676 -3.0665
 3227TIP3   OH2 9686   5.363   4.545   1.945 -0.2441  1.1359  0.0836
 3227TIP3    H1 9687   5.353   4.616   1.881  2.9734  3.0791  1.5338
 3227TIP3    H2 9688   5.433   4.490   1.909  0.4365  1.3052  1.1098
 3228TIP3   OH2 9689   0.268   4.175   3.282 -0.3552 -0.7566  0.3921
 3228TIP3    H1 9690   0.236   4.240   3.220 -1.8068 -2.5029 -0.7780
 3228TIP3    H2 9691   0.357   4.156   3.253 -1.4878 -2.6484 -2.2454
 3229TIP3   OH2 9692   4.643   2.956   1.714 -0.7605 -0.3659  0.1861
 3229TIP3    H1 9693   4.630   3.049   1.693  0.6961 -0.2950 -0.5064
 3229TIP3    H2 9694   4.728   2.953   1.757 -0.9429 -1.3540  0.4924
 3230TIP3   OH2 9695   3.194   2.972   2.288 -0.4903 -0.1780  0.1012
 3230TIP3    H1 9696   3.163   3.028   2.359  2.5299  0.3253  1.1522
 3230TIP3    H2 9697   3.234   2.897   2.332  0.7487 -0.2506 -1.0869
 3231TIP3   OH2 9698   2.917   1.929   1.789 -0.4381  0.6729  0.1103
 3231TIP3    H1 9699   2.890   1.868   1.721 -0.3265  0.9359 -0.1733
 3231TIP3    H2 9700   2.949   1.874   1.860 -0.4229  0.3990 -0.1076
 3232TIP3   OH2 9701   4.201   1.603   3.499 -0.0588  0.2036  0.0889
 3232TIP3    H1 9702   4.114   1.635   3.473  0.0331  0.1233 -0.3357
 3232TIP3    H2 9703   4.185   1.513   3.528  0.2087 -0.6709 -2.2750
 3233TIP3   OH2 9704   0.774   3.575   1.630 -0.0450 -0.1492  0.2585
 3233TIP3    H1 9705   0.710   3.644   1.615  0.2809  0.2368  0.6416
 3233TIP3    H2 9706   0.748   3.505   1.570  0.4171  0.8238 -1.1409
 3234TIP3   OH2 9707   2.201   1.271   3.592 -0.3454  0.7356  0.4863
 3234TIP3    H1 9708   2.256   1.196   3.572  1.0624  1.8888 -0.1451
 3234TIP3    H2 9709   2.190   1.268   3.687  0.2408  0.0983  0.5398
 3235TIP3   OH2 9710   1.503   2.725   2.783  0.1237  0.1862  0.1301
 3235TIP3    H1 9711   1.497   2.698   2.875  0.7847  0.8992  0.3924
 3235TIP3    H2 9712   1.448   2.803   2.777  1.0732  0.8843  0.2301
 3236TIP3   OH2 9713   1.332   4.111   3.408 -0.1994 -0.7025 -0.3460
 3236TIP3    H1 9714   1.269   4.057   3.454  0.3576 -1.6788 -0.7101
 3236TIP3    H2 9715   1.390   4.049   3.364  1.8939  0.1034  1.1154
 3237TIP3   OH2 9716   0.401   4.944   2.518  0.5420  0.0595  0.2898
 3237TIP3    H1 9717   0.430   4.853   2.513 -0.7564 -0.4127  0.8680
 3237TIP3    H2 9718   0.307   4.940   2.500  0.0581  1.0267  2.3567
 3238TIP3   OH2 9719   3.152   5.257   0.756  0.9903 -0.7887  0.0124
 3238TIP3    H1 9720   3.245   5.280   0.759  0.5744  1.2881 -0.8021
 3238TIP3    H2 9721   3.107   5.336   0.785 -0.5780 -0.9285 -1.8266
 3239TIP3   OH2 9722   4.019   4.659   0.930  0.0440 -0.0397  0.3167
 3239TIP3    H1 9723   4.063   4.579   0.960  0.5000  1.0104  2.5982
 3239TIP3    H2 9724   4.058   4.677   0.844  3.3806  0.2567  1.7770
 3240TIP3   OH2 9725   3.979   2.319   4.004 -0.0182  0.7675 -0.4057
 3240TIP3    H1 9726   3.914   2.269   4.053 -0.0016  0.9630 -0.1847
 3240TIP3    H2 9727   4.059   2.266   4.012 -0.0910  0.6467 -0.4771
 3241TIP3   OH2 9728   3.648   5.670   4.421 -0.2027  0.2404 -0.3378
 3241TIP3    H1 9729   3.700   5.716   4.486  1.2877  0.1820 -1.4521
 3241TIP3    H2 9730   3.557   5.689   4.446  0.3325  0.8761  1.2592
 3242TIP3   OH2 9731   3.564   3.686   2.358 -0.2111 -0.5703  0.3557
 3242TIP3    H1 9732   3.473   3.660   2.342 -0.1461 -0.9293  0.5748
 3242TIP3    H2 9733   3.562   3.729   2.443 -0.0884 -1.0251  0.5896
 3243TIP3   OH2 9734   2.558   1.177   3.753  0.1526 -0.4416 -0.1230
 3243TIP3    H1 9735   2.488   1.128   3.710  1.0999 -1.5691 -0.4051
 3243TIP3    H2 9736   2.512   1.237   3.812 -1.0387 -3.4969  2.2814
 3244TIP3   OH2 9737   2.986   5.854   1.159 -0.9623 -0.6541 -0.6501
 3244TIP3    H1 9738   3.055   5.865   1.093 -1.5826 -2.0868 -1.5614
 3244TIP3    H2 9739   2.915   5.911   1.129 -0.0419  1.2951  0.6034
 3245TIP3   OH2 9740   3.746   0.553   4.207 -0.7231  0.2128  0.2466
 3245TIP3    H1 9741   3.667   0.530   4.256 -1.4583  2.6461  0.3542
 3245TIP3    H2 9742   3.787   0.621   4.259 -0.0287  0.9059 -1.1466
 3246TIP3   OH2 9743   2.489   5.502   4.551 -0.9856 -0.0914  0.0528
 3246TIP3    H1 9744   2.543   5.523   4.475  0.1493 -1.1688  0.5508
 3246TIP3    H2 9745   2.492   5.581   4.605 -0.1245 -0.0491 -0.0499
 3247TIP3   OH2 9746   0.882   2.840   2.375 -0.0984 -0.2646  0.0187
 3247TIP3    H1 9747   0.918   2.882   2.297 -0.2803  0.2671  0.2187
 3247TIP3    H2 9748   0.936   2.762   2.388 -0.4491 -0.6961 -0.9920
 3248TIP3   OH2 9749   1.766   0.462   2.746 -0.0267 -0.2707 -0.4305
 3248TIP3    H1 9750   1.675   0.443   2.768  0.0352 -0.6964 -0.5428
 3248TIP3    H2 9751   1.761   0.514   2.666 -0.1469 -0.7954 -0.7675
 3249TIP3   OH2 9752   3.816   4.633   3.999 -0.2215 -0.6071 -0.7152
 3249TIP3    H1 9753   3.801   4.721   4.031  1.5897 -1.1438  1.9525
 3249TIP3    H2 9754   3.910   4.630   3.980 -0.0171 -2.2541  0.3658
 3250TIP3   OH2 9755   0.346   4.516   4.928 -0.8998  0.3102 -0.4350
 3250TIP3    H1 9756   0.332   4.601   4.970  1.7358  0.6739 -0.0641
 3250TIP3    H2 9757   0.432   4.525   4.886 -1.1469 -1.7581 -1.5039
 3251TIP3   OH2 9758   1.728   1.361   2.831  0.4157  0.6761  0.7906
 3251TIP3    H1 9759   1.732   1.302   2.907 -0.2208 -1.2354 -0.5692
 3251TIP3    H2 9760   1.667   1.318   2.772 -1.0432  3.4031  0.2112
 3252TIP3   OH2 9761   2.214   2.383   3.906 -0.2738 -0.0703  0.1009
 3252TIP3    H1 9762   2.132   2.406   3.862 -0.4426 -1.4960 -0.4013
 3252TIP3    H2 9763   2.276   2.368   3.835  0.0115 -0.4352  0.4194
 3253TIP3   OH2 9764   2.310   4.480   2.973 -0.2259  0.1606 -0.0464
 3253TIP3    H1 9765   2.295   4.418   3.044  1.6345  0.9077  1.0535
 3253TIP3    H2 9766   2.294   4.429   2.893  0.6458 -1.5638  0.8370
 3254TIP3   OH2 9767   1.237   4.903   0.175  0.5568 -0.8317  0.0947
 3254TIP3    H1 9768   1.168   4.929   0.114 -1.0353 -2.7688  0.9896
 3254TIP3    H2 9769   1.255   4.812   0.154  2.2107 -0.6370  0.5186
 3255TIP3   OH2 9770   5.316   1.593   2.830  0.4093 -0.2409  0.2172
 3255TIP3    H1 9771   5.371   1.606   2.908  1.0052 -1.3538 -0.0016
 3255TIP3    H2 9772   5.376   1.557   2.764 -0.0874  0.6818 -0.7717
 3256TIP3   OH2 9773   3.375   2.253   4.932  0.0195  0.1806  0.5682
 3256TIP3    H1 9774   3.302   2.296   4.975 -0.2405  0.5015 -0.1742
 3256TIP3    H2 9775   3.416   2.201   5.000 -0.3600  0.7017  1.2032
 3257TIP3   OH2 9776   2.337   5.867   3.407  0.4491 -0.0766  0.0803
 3257TIP3    H1 9777   2.244   5.854   3.428  0.7703  0.2892  1.9174
 3257TIP3    H2 9778   2.366   5.783   3.372 -0.8833  0.2270 -1.9761
 3258TIP3   OH2 9779   2.103   0.496   1.780  0.0873  0.1511  0.1551
 3258TIP3    H1 9780   2.114   0.520   1.688  0.8235  0.6605  0.3709
 3258TIP3    H2 9781   2.184   0.449   1.802  0.7635  1.6726  1.0525
 3259TIP3   OH2 9782   0.326   4.235   2.610  0.8804  0.1661 -0.6677
 3259TIP3    H1 9783   0.379   4.162   2.642 -1.4153 -0.4309  2.2011
 3259TIP3    H2 9784   0.238   4.198   2.600 -0.0684  2.2260 -0.4282
 3260TIP3   OH2 9785   3.515   2.274   2.021 -0.0033  0.0179 -0.1025
 3260TIP3    H1 9786   3.421   2.272   2.004  0.0431  0.3423 -0.4136
 3260TIP3    H2 9787   3.554   2.300   1.938  0.3578 -0.0612  0.0396
 3261TIP3   OH2 9788   0.867   5.831   1.094  0.4826  0.2941 -0.0625
 3261TIP3    H1 9789   0.820   5.772   1.153  0.3077  0.5648  0.0651
 3261TIP3    H2 9790   0.865   5.916   1.138 -0.8359  0.8238 -1.0952
 3262TIP3   OH2 9791   4.431   2.167   2.896  0.1277  0.1982 -0.6328
 3262TIP3    H1 9792   4.383   2.250   2.900  0.1445  0.1763  0.2980
 3262TIP3    H2 9793   4.512   2.185   2.944 -0.1159 -0.5086  0.0638
 3263TIP3   OH2 9794   0.163   1.342   2.551  0.1470  0.0221  0.5917
 3263TIP3    H1 9795   0.239   1.330   2.608  1.1052 -1.4162 -0.8965
 3263TIP3    H2 9796   0.169   1.432   2.520 -0.4062  0.8440  2.6957
 3264TIP3   OH2 9797   0.719   0.967   1.819 -0.4101 -0.0191  0.1452
 3264TIP3    H1 9798   0.661   0.907   1.866  0.3097  0.0602  1.1595
 3264TIP3    H2 9799   0.760   1.020   1.887 -0.2752  0.9555 -0.6641
 3265TIP3   OH2 9800   6.059   1.204   2.244 -0.1806 -0.3893 -0.1170
 3265TIP3    H1 9801   6.005   1.265   2.294 -0.4292  0.0548 -0.8939
 3265TIP3    H2 9802   6.094   1.143   2.308  0.4203  0.8303  0.7549
 3266TIP3   OH2 9803   3.135   0.778   2.152 -0.2854 -0.1913 -0.0819
 3266TIP3    H1 9804   3.184   0.834   2.093 -0.6131 -0.9670 -1.1130
 3266TIP3    H2 9805   3.072   0.733   2.096  0.3225 -1.9862  0.6246
 3267TIP3   OH2 9806   1.257   4.192   1.182 -0.7111  0.1875  0.2310
 3267TIP3    H1 9807   1.336   4.153   1.220  0.3196  2.0722  0.1602
 3267TIP3    H2 9808   1.203   4.117   1.156  0.2403 -1.1541  1.9234
 3268TIP3   OH2 9809   4.189   0.232   1.823 -0.4106  0.1238  0.2867
 3268TIP3    H1 9810   4.249   0.286   1.874 -0.3375 -1.1140  1.5770
 3268TIP3    H2 9811   4.244   0.160   1.791 -0.9406 -0.3519  0.4337
 3269TIP3   OH2 9812   4.556   1.043   2.934  0.0763  0.0546 -0.0548
 3269TIP3    H1 9813   4.513   1.000   2.861  0.0764  0.3350 -0.2224
 3269TIP3    H2 9814   4.525   0.997   3.012 -2.5258  1.8121  0.0607
 3270TIP3   OH2 9815   3.786   3.844   0.456 -0.3716 -0.1510 -0.4590
 3270TIP3    H1 9816   3.789   3.928   0.410 -0.9961 -0.5275 -1.2048
 3270TIP3    H2 9817   3.695   3.837   0.487 -0.0628 -0.0830  0.5227
 3271TIP3   OH2 9818   2.393   5.647   1.339 -0.0986  0.5745 -0.1182
 3271TIP3    H1 9819   2.401   5.574   1.279  0.1856  0.9156 -0.4997
 3271TIP3    H2 9820   2.390   5.607   1.426 -0.1095  0.1053 -0.3349
 3272TIP3   OH2 9821   0.843   2.366   2.103 -0.5882  0.1124  0.6471
 3272TIP3    H1 9822   0.879   2.452   2.126  0.5053 -0.1097 -0.1740
 3272TIP3    H2 9823   0.891   2.304   2.157 -0.3015 -0.1176  0.1328
 3273TIP3   OH2 9824   1.122   5.368   1.515 -0.8169  0.3435 -0.4728
 3273TIP3    H1 9825   1.090   5.405   1.597 -0.6945 -0.2268 -0.1574
 3273TIP3    H2 9826   1.076   5.417   1.447 -1.2337  0.5437 -0.0581
 3274TIP3   OH2 9827   0.494   1.625   2.459 -0.3093  0.2433  0.3556
 3274TIP3    H1 9828   0.502   1.530   2.468 -1.4980 -0.2137 -2.2640
 3274TIP3    H2 9829   0.407   1.638   2.422  0.2971  2.2420 -0.5165
 3275TIP3   OH2 9830   1.772   5.963   4.424 -0.0710 -0.8991 -0.1452
 3275TIP3    H1 9831   1.837   5.895   4.443  2.3841  0.8489 -1.7038
 3275TIP3    H2 9832   1.775   6.021   4.500  0.1874 -0.8290 -0.2084
 3276TIP3   OH2 9833   5.945   1.334   0.724 -0.5558 -0.0741  0.4538
 3276TIP3    H1 9834   5.971   1.245   0.747 -0.2347  0.2460  1.3769
 3276TIP3    H2 9835   6.017   1.389   0.755 -1.7857  0.7165  2.0022
 3277TIP3   OH2 9836   4.196   3.792   3.852 -0.1270 -0.5539 -0.1157
 3277TIP3    H1 9837   4.147   3.751   3.923 -0.1892  0.0118  0.1809
 3277TIP3    H2 9838   4.221   3.720   3.794 -0.3425 -0.9840  0.3200
 3278TIP3   OH2 9839   4.232   1.400   0.996 -0.0331 -0.3750 -0.7909
 3278TIP3    H1 9840   4.290   1.465   0.957 -1.4901  1.0489 -0.7006
 3278TIP3    H2 9841   4.291   1.333   1.031  1.4111 -0.8017 -3.7401
 3279TIP3   OH2 9842   1.201   3.079   1.773  0.4703 -0.2408  0.1661
 3279TIP3    H1 9843   1.131   3.034   1.726  0.2848 -0.4183  0.6060
 3279TIP3    H2 9844   1.259   3.009   1.802  1.8145  0.0174 -1.7283
 3280TIP3   OH2 9845   4.687   4.543   5.151 -0.1096 -0.0529  0.1647
 3280TIP3    H1 9846   4.672   4.583   5.237 -1.5075 -0.6072  0.2100
 3280TIP3    H2 9847   4.656   4.609   5.089 -0.1644 -0.1025  0.1389
 3281TIP3   OH2 9848   3.717   2.734   2.926 -0.6817  0.1630  0.0780
 3281TIP3    H1 9849   3.669   2.811   2.896  0.8895  0.7496 -1.0739
 3281TIP3    H2 9850   3.796   2.732   2.871 -1.0545 -2.7460 -0.5381
 3282TIP3   OH2 9851   3.427   4.906   1.628  0.0631  0.0045  0.9142
 3282TIP3    H1 9852   3.393   4.910   1.717  0.1843 -0.1520  0.9694
 3282TIP3    H2 9853   3.463   4.817   1.621 -1.9687 -0.8080 -0.0266
 3283TIP3   OH2 9854   5.928   1.320   4.369 -0.1764 -0.2539  0.3062
 3283TIP3    H1 9855   5.968   1.317   4.282  0.0011 -1.2082  0.4137
 3283TIP3    H2 9856   5.966   1.246   4.416 -0.6749 -0.0653  1.0265
 3284TIP3   OH2 9857   1.925   0.805   0.013 -0.5035 -0.3980 -0.4100
 3284TIP3    H1 9858   1.932   0.824   0.106  0.3537  1.3111 -0.7691
 3284TIP3    H2 9859   1.942   0.889  -0.030 -1.8639 -0.9084 -2.0951
 3285TIP3   OH2 9860   4.873   5.176   4.001  0.0005 -0.3422 -0.0968
 3285TIP3    H1 9861   4.931   5.212   4.068 -0.8350  0.5323  0.1834
 3285TIP3    H2 9862   4.787   5.214   4.022 -0.1755  0.3844 -1.9807
 3286TIP3   OH2 9863   1.054   0.110   1.161 -0.3998  0.0680 -0.3914
 3286TIP3    H1 9864   0.992   0.037   1.163 -2.4293  1.6915  1.7741
 3286TIP3    H2 9865   0.999   0.188   1.160  1.6689  1.6128 -0.2880
 3287TIP3   OH2 9866   3.202   0.667   1.822  0.2700  0.2139  0.4451
 3287TIP3    H1 9867   3.216   0.748   1.872 -1.7508  0.0918  1.3321
 3287TIP3    H2 9868   3.117   0.635   1.853 -0.0948 -0.9861 -1.6056
 3288TIP3   OH2 9869   1.089   3.880   0.181  0.0130  0.1970  0.0373
 3288TIP3    H1 9870   0.998   3.862   0.155 -0.5824  1.6895  0.9935
 3288TIP3    H2 9871   1.083   3.952   0.243  1.5219 -1.8729  2.8518
 3289TIP3   OH2 9872   0.356   5.306   1.840 -0.5604 -0.5292 -0.2679
 3289TIP3    H1 9873   0.308   5.384   1.866 -0.4636 -1.1720  1.9971
 3289TIP3    H2 9874   0.446   5.336   1.827 -0.8019 -0.0270 -0.8886
 3290TIP3   OH2 9875   2.372   1.522   2.866 -0.0214 -0.0170  0.6879
 3290TIP3    H1 9876   2.321   1.461   2.813  0.8939 -1.0850  0.9964
 3290TIP3    H2 9877   2.400   1.590   2.805 -0.5530 -0.2307  0.2029
 3291TIP3   OH2 9878   0.814   5.537   2.643  0.0654 -0.0570 -0.1611
 3291TIP3    H1 9879   0.841   5.486   2.719  1.9162  0.2193 -0.5653
 3291TIP3    H2 9880   0.879   5.608   2.637 -2.3259  2.3350  0.3060
 3292TIP3   OH2 9881   4.210   4.522   4.164  0.5260 -0.2620 -0.2309
 3292TIP3    H1 9882   4.208   4.528   4.259  0.1391 -0.2010 -0.2418
 3292TIP3    H2 9883   4.245   4.435   4.146  1.1876 -0.0470 -0.0404
 3293TIP3   OH2 9884   1.354   5.285   3.398 -0.1985  0.0356 -0.0294
 3293TIP3    H1 9885   1.277   5.333   3.426 -1.3361  0.1537 -2.9918
 3293TIP3    H2 9886   1.355   5.295   3.303  2.1156 -1.9993 -0.3199
 3294TIP3   OH2 9887   1.666   4.139   2.539 -0.4421 -0.1324  0.4710
 3294TIP3    H1 9888   1.704   4.076   2.599 -1.3257 -1.3488 -0.2023
 3294TIP3    H2 9889   1.691   4.108   2.452 -3.9777 -1.8408 -0.1250
 3295TIP3   OH2 9890   0.638   1.638   1.519 -0.0326  0.3246  0.4743
 3295TIP3    H1 9891   0.580   1.576   1.474  0.5338  0.0021  0.1741
 3295TIP3    H2 9892   0.654   1.707   1.454  0.7479 -0.1178  0.1745
 3296TIP3   OH2 9893   2.302   3.342   1.658 -0.1334  0.5328 -0.5777
 3296TIP3    H1 9894   2.260   3.378   1.737  0.2480 -0.0567 -0.0948
 3296TIP3    H2 9895   2.317   3.250   1.679  0.4505  0.4909 -1.1423
 3297TIP3   OH2 9896   2.408   2.473   4.052  0.5169 -0.4288  0.1245
 3297TIP3    H1 9897   2.325   2.447   4.014  0.8820  0.0342 -1.0423
 3297TIP3    H2 9898   2.441   2.541   3.993  2.3597 -1.5416 -0.2064
 3298TIP3   OH2 9899   3.780   3.681   1.185  0.1649  0.2979  0.0126
 3298TIP3    H1 9900   3.799   3.634   1.266  0.6189  0.6036  0.0875
 3298TIP3    H2 9901   3.803   3.619   1.115 -1.9386 -0.6619  0.0816
 3299TIP3   OH2 9902   0.713   5.491   2.347 -0.1881 -0.0509 -0.0973
 3299TIP3    H1 9903   0.791   5.500   2.293 -0.0732  1.8560  0.3249
 3299TIP3    H2 9904   0.640   5.513   2.288 -0.0974  1.5817  0.3510
 3300TIP3   OH2 9905   5.761   5.755   2.633 -0.0506  0.3094  0.0017
 3300TIP3    H1 9906   5.796   5.844   2.629  0.2595  0.1613 -1.1544
 3300TIP3    H2 9907   5.724   5.741   2.545  1.2026 -1.1947 -0.3239
 3301TIP3   OH2 9908   5.936   2.208   4.670  0.4197  0.2241  0.1920
 3301TIP3    H1 9909   5.994   2.243   4.603 -0.2771  3.3491  1.0276
 3301TIP3    H2 9910   5.993   2.158   4.728  0.9556 -3.1150 -2.8570
 3302TIP3   OH2 9911   1.392   2.732   1.354  0.6841  1.0177  0.3332
 3302TIP3    H1 9912   1.300   2.749   1.337  1.4396  3.1777 -2.1803
 3302TIP3    H2 9913   1.395   2.640   1.382 -2.0413  0.3201 -1.3343
 3303TIP3   OH2 9914   1.901   2.131   2.981 -0.2292 -0.3450 -0.2737
 3303TIP3    H1 9915   1.850   2.185   3.042 -2.8000 -0.8814 -1.8168
 3303TIP3    H2 9916   1.968   2.091   3.036 -1.1336  0.7857  1.7973
 3304TIP3   OH2 9917   5.795   0.597   1.917  0.4970  0.3536 -0.0189
 3304TIP3    H1 9918   5.846   0.516   1.911  1.7272  0.7037  3.5368
 3304TIP3    H2 9919   5.794   0.619   2.010 -2.1795  2.9860 -0.5026
 3305TIP3   OH2 9920   3.229   3.108   0.940 -0.0636 -0.2506 -0.3043
 3305TIP3    H1 9921   3.241   3.200   0.915  0.0383 -0.2244 -0.1564
 3305TIP3    H2 9922   3.282   3.059   0.877  1.8577 -0.0717  1.1005
 3306TIP3   OH2 9923   3.704   5.678   2.426  0.4782  0.1411 -0.3920
 3306TIP3    H1 9924   3.700   5.759   2.477  0.5634 -0.8895  1.3262
 3306TIP3    H2 9925   3.698   5.706   2.335  2.0652  2.2121  0.0780
 3307TIP3   OH2 9926   5.367   5.141   2.098  0.0705  0.2268 -0.2380
 3307TIP3    H1 9927   5.290   5.196   2.114 -0.1359  0.2546 -1.2112
 3307TIP3    H2 9928   5.343   5.055   2.132  0.5779  0.8204  1.7358
 3308TIP3   OH2 9929   3.029   3.471   5.076 -0.1590  0.2074  0.2344
 3308TIP3    H1 9930   3.114   3.432   5.057 -0.7549  0.3896 -3.8083
 3308TIP3    H2 9931   3.005   3.436   5.162  3.7864 -0.0389  1.4456
 3309TIP3   OH2 9932   5.086   0.234   1.008  0.1884 -0.3963 -0.2408
 3309TIP3    H1 9933   5.079   0.310   0.952  3.1509 -1.0148 -1.6660
 3309TIP3    H2 9934   5.122   0.268   1.090  1.0969 -0.1715 -0.7207
 3310TIP3   OH2 9935   2.261   1.059   2.038  0.1316  0.0711 -0.4082
 3310TIP3    H1 9936   2.171   1.033   2.056 -0.5780  2.3631 -0.2878
 3310TIP3    H2 9937   2.312   1.017   2.107 -1.3370  1.4075  1.6182
 3311TIP3   OH2 9938   0.586   5.982   0.430  0.0039 -0.2580  0.3361
 3311TIP3    H1 9939   0.596   5.888   0.414  0.8710 -0.2193  0.6021
 3311TIP3    H2 9940   0.502   5.989   0.476  0.7268 -1.0994  1.8542
 3312TIP3   OH2 9941   0.408   4.201   1.403 -0.0678  0.2204  0.4465
 3312TIP3    H1 9942   0.398   4.115   1.363  0.2874  0.6128 -0.5329
 3312TIP3    H2 9943   0.327   4.247   1.383 -0.3579  0.0395  1.1806
 3313TIP3   OH2 9944   4.362   4.214   4.417  0.1311 -0.6791  0.1515
 3313TIP3    H1 9945   4.320   4.243   4.335 -1.9734  2.0736  1.9949
 3313TIP3    H2 9946   4.441   4.267   4.423  0.9986 -1.8394 -0.6686
 3314TIP3   OH2 9947   6.160   0.933   3.551 -0.3198 -0.6723  0.0939
 3314TIP3    H1 9948   6.215   0.857   3.573 -1.1228 -0.9180  1.3917
 3314TIP3    H2 9949   6.081   0.920   3.604 -0.2009  1.3929  0.8453
 3315TIP3   OH2 9950   3.253   5.897   1.676 -0.4051  0.0894 -0.9690
 3315TIP3    H1 9951   3.266   5.853   1.593 -1.4508  0.3270 -1.2712
 3315TIP3    H2 9952   3.239   5.827   1.739 -0.7578 -0.0562 -1.2073
 3316TIP3   OH2 9953   4.899   4.733   4.720  0.1452  0.5604  0.6616
 3316TIP3    H1 9954   4.970   4.779   4.765  1.3816 -0.9966  0.4084
 3316TIP3    H2 9955   4.941   4.655   4.684 -1.2369  0.6644 -1.3701
 3317TIP3   OH2 9956   4.901   1.469   3.702 -0.1844 -0.1915 -0.0090
 3317TIP3    H1 9957   4.902   1.427   3.616 -1.7396  1.8628 -1.1221
 3317TIP3    H2 9958   4.809   1.464   3.730 -0.3333  1.9413  0.0253
 3318TIP3   OH2 9959   3.761   2.252   3.339 -0.4456  0.2842  0.0746
 3318TIP3    H1 9960   3.751   2.161   3.310 -0.0337  0.4858 -0.7212
 3318TIP3    H2 9961   3.676   2.292   3.321 -0.4496  0.2008 -0.0926
 3319TIP3   OH2 9962   5.540   0.788   4.377  0.0981  0.0070 -0.2130
 3319TIP3    H1 9963   5.633   0.809   4.386  0.2356 -1.1508  1.5451
 3319TIP3    H2 9964   5.522   0.800   4.284  2.1488 -0.2835 -0.7053
 3320TIP3   OH2 9965   4.148   5.397   1.460 -0.2004 -0.8600  0.1846
 3320TIP3    H1 9966   4.204   5.414   1.536 -1.1416  0.5363  0.6031
 3320TIP3    H2 9967   4.198   5.334   1.408  1.4937 -0.1255  0.8305
 3321TIP3   OH2 9968   5.164   1.687   1.008 -0.6252  0.7826 -0.5286
 3321TIP3    H1 9969   5.121   1.674   0.923 -1.5192 -1.7543  0.2238
 3321TIP3    H2 9970   5.093   1.680   1.072  0.3191  0.5961  0.5260
 3322TIP3   OH2 9971   1.560   0.200   1.600 -0.1647  0.6781  0.3808
 3322TIP3    H1 9972   1.567   0.216   1.506 -0.0574  0.0140  0.2687
 3322TIP3    H2 9973   1.527   0.281   1.636 -1.7296  0.4285 -0.4311
 3323TIP3   OH2 9974   4.126   2.003   1.773 -0.4603 -0.2290  0.3874
 3323TIP3    H1 9975   4.135   1.950   1.694  0.0992  1.6164 -0.8498
 3323TIP3    H2 9976   4.149   1.944   1.844 -0.8569 -1.9189 -0.8092
 3324TIP3   OH2 9977   3.088   0.517   3.289 -0.1446 -0.1869 -0.3553
 3324TIP3    H1 9978   3.026   0.444   3.295 -0.3097 -0.0871 -0.8204
 3324TIP3    H2 9979   3.089   0.540   3.196 -1.3475  1.4927  0.0218
 3325TIP3   OH2 9980   1.981   5.030   4.803 -0.0831 -0.1644 -0.0053
 3325TIP3    H1 9981   2.000   5.025   4.897  0.5782  2.3274  0.0671
 3325TIP3    H2 9982   2.030   5.106   4.772  0.1396 -1.2261 -2.5141
 3326TIP3   OH2 9983   5.782   0.743   0.848 -0.5673  0.3875 -0.1417
 3326TIP3    H1 9984   5.830   0.804   0.792 -2.0486  0.6358 -1.2118
 3326TIP3    H2 9985   5.792   0.658   0.804  1.4681 -0.2091  1.3308
 3327TIP3   OH2 9986   2.231   2.084   4.448 -0.2051 -0.1895 -0.1786
 3327TIP3    H1 9987   2.307   2.140   4.466 -1.3564  0.7557  2.1011
 3327TIP3    H2 9988   2.269   1.998   4.430  1.4849  0.7090 -1.1654
 3328TIP3   OH2 9989   4.998   4.294   4.073  0.2999  0.2495 -0.1308
 3328TIP3    H1 9990   4.964   4.352   4.005 -0.9643  1.5940  1.5679
 3328TIP3    H2 9991   4.956   4.210   4.056  0.8904  0.2355 -1.6639
 3329TIP3   OH2 9992   0.836   0.805   1.296  0.1508  0.1478 -0.3494
 3329TIP3    H1 9993   0.768   0.853   1.343 -0.3091 -0.6503 -0.1791
 3329TIP3    H2 9994   0.880   0.871   1.243  0.6483  1.0612  1.1374
 3330TIP3   OH2 9995   5.376   4.828   5.165  0.3295 -0.5634  0.2566
 3330TIP3    H1 9996   5.371   4.892   5.094  0.0696  0.8396  1.4804
 3330TIP3    H2 9997   5.432   4.869   5.231  0.3624 -1.7150  0.9880
 3331TIP3   OH2 9998   1.269   3.222   0.440  0.7731 -0.0700  0.2209
 3331TIP3    H1 9999   1.264   3.127   0.445  0.0068  0.0134  1.7548
 3331TIP3    H210000   1.360   3.243   0.462  1.1031 -0.4596 -0.7387
 3332TIP3   OH210001   5.784   4.108   1.804  0.4906 -0.3179 -0.4688
 3332TIP3    H110002   5.802   4.200   1.783 -0.4870 -0.0989 -0.4262
 3332TIP3    H210003   5.824   4.059   1.732 -0.6873  0.2784 -1.5996
 3333TIP3   OH210004   1.087   2.112   4.203  0.1254 -0.3729 -0.1447
 3333TIP3    H110005   1.166   2.140   4.157  0.5032  0.3286  0.8948
 3333TIP3    H210006   1.074   2.178   4.270 -1.3184 -0.5193 -0.2534
 3334TIP3   OH210007   4.181   2.081   4.565 -0.7785 -0.3295 -0.1559
 3334TIP3    H110008   4.147   2.149   4.506 -1.0869  1.3342  1.7870
 3334TIP3    H210009   4.232   2.130   4.630 -0.9318 -1.9701  1.2788
 3335TIP3   OH210010   1.561   3.372   2.413  0.4481  0.3417 -0.3273
 3335TIP3    H110011   1.467   3.364   2.394  0.2037  0.6573  0.7277
 3335TIP3    H210012   1.568   3.445   2.474  1.0192 -1.5123  1.9763
 3336TIP3   OH210013   6.356   2.641   4.957  0.3233 -0.1200  0.0543
 3336TIP3    H110014   6.368   2.628   5.051  0.5226  0.5122  0.1195
 3336TIP3    H210015   6.305   2.565   4.929 -0.4516  0.1012  0.8273
 3337TIP3   OH210016   6.026   1.539   1.949  0.2395  0.1121 -0.2734
 3337TIP3    H110017   6.107   1.488   1.946 -0.3179 -0.7934 -0.3592
 3337TIP3    H210018   5.977   1.510   1.872 -0.1746  0.6384 -0.2119
 3338TIP3   OH210019   5.300   3.755   0.165  0.6579  0.1821 -0.7165
 3338TIP3    H110020   5.377   3.762   0.221  0.3168 -0.7805 -0.1080
 3338TIP3    H210021   5.275   3.663   0.169 -1.6198  0.7740  0.6345
 3339TIP3   OH210022   4.952   2.799   1.523 -0.3931 -0.5668 -0.3582
 3339TIP3    H110023   5.014   2.820   1.453 -0.5112  1.7453  0.1543
 3339TIP3    H210024   4.866   2.804   1.481 -0.3363 -2.0214 -0.6713
 3340TIP3   OH210025   5.467   5.823   0.222 -0.4921  0.0091 -0.5514
 3340TIP3    H110026   5.496   5.743   0.179  1.1800 -0.7531  1.7536
 3340TIP3    H210027   5.541   5.884   0.211 -0.6331  0.2841 -0.0156
 3341TIP3   OH210028   6.093   1.099   1.210 -0.3161 -0.9275  0.0293
 3341TIP3    H110029   6.105   1.171   1.149 -3.3440 -0.3406  0.0120
 3341TIP3    H210030   6.011   1.118   1.255  0.8420 -2.2740  3.0054
 3342TIP3   OH210031   5.959   1.879   1.510  0.5902  0.1230  0.7308
 3342TIP3    H110032   5.981   1.948   1.446 -1.4032  0.0292 -0.1304
 3342TIP3    H210033   5.994   1.912   1.593  2.8200  0.4852 -0.2591
 3343TIP3   OH210034   2.618   1.547   0.508 -0.0133 -0.3263 -0.3901
 3343TIP3    H110035   2.692   1.500   0.468  1.0055 -0.7667  1.8594
 3343TIP3    H210036   2.540   1.499   0.478  0.6615 -0.5462 -1.8960
 3344TIP3   OH210037   3.576   0.733   1.845 -0.1766 -0.1000  0.2402
 3344TIP3    H110038   3.649   0.766   1.793 -1.1809  1.0030 -0.5317
 3344TIP3    H210039   3.529   0.674   1.785  0.1580 -0.9187  0.7771
 3345TIP3   OH210040   5.158   4.717   3.399 -0.0594 -0.6060  0.5745
 3345TIP3    H110041   5.170   4.668   3.317  2.4994 -0.5655  0.8468
 3345TIP3    H210042   5.098   4.788   3.375 -2.0181 -2.4651 -0.3941
 3346TIP3   OH210043   2.566   2.732   2.856  0.2109  0.6737 -0.9210
 3346TIP3    H110044   2.506   2.747   2.929  1.0191  0.1844 -0.1181
 3346TIP3    H210045   2.511   2.731   2.778 -0.9815 -0.8235 -0.1113
 3347TIP3   OH210046   3.248   5.748   2.331  0.6153  0.1644 -0.4942
 3347TIP3    H110047   3.285   5.724   2.246  1.8598 -0.7515  0.2648
 3347TIP3    H210048   3.182   5.681   2.348  1.3114 -0.4607 -0.1633
 3348TIP3   OH210049   3.989   1.435   1.654  0.1031 -0.1543  0.2675
 3348TIP3    H110050   3.955   1.400   1.737  1.1962 -0.6647  0.5297
 3348TIP3    H210051   3.987   1.530   1.666  1.1516 -0.2278  1.2967
 3349TIP3   OH210052   3.564   5.473   4.267  0.2626  0.1002  0.5838
 3349TIP3    H110053   3.616   5.521   4.331  2.7202 -0.4099 -0.9160
 3349TIP3    H210054   3.570   5.525   4.187  1.3033 -1.6384 -0.5282
 3350TIP3   OH210055   0.112   2.234   0.339  0.1410  0.0569 -0.1460
 3350TIP3    H110056   0.162   2.282   0.273 -0.4208 -1.4160 -1.7081
 3350TIP3    H210057   0.051   2.180   0.289 -1.1872 -0.2020  1.6270
 3351TIP3   OH210058   3.865   2.317   2.700 -0.2419 -0.3738 -0.4219
 3351TIP3    H110059   3.812   2.376   2.646  0.7818  0.6321 -0.3534
 3351TIP3    H210060   3.933   2.285   2.642  0.0365 -0.3922 -0.0864
 3352TIP3   OH210061   2.654   5.459   0.972 -0.2684 -0.4027  0.0938
 3352TIP3    H110062   2.578   5.515   0.984  0.2299  0.2424  0.3122
 3352TIP3    H210063   2.618   5.372   0.956 -1.0476 -0.0577 -0.0456
 3353TIP3   OH210064   4.884   5.969   4.625  0.2816  0.5353  0.3146
 3353TIP3    H110065   4.793   5.948   4.603  0.1479  1.8669 -0.5253
 3353TIP3    H210066   4.904   5.913   4.700 -0.8481 -0.6181 -0.2089
 3354TIP3   OH210067   0.087   4.392   3.004 -0.6632 -0.4000 -0.1466
 3354TIP3    H110068   0.062   4.459   2.940 -1.0804  0.7155  1.1523
 3354TIP3    H210069   0.051   4.311   2.968 -0.2870  0.0822 -1.6659
 3355TIP3   OH210070   5.375   3.800   1.717 -0.3566  0.6389 -0.0954
 3355TIP3    H110071   5.419   3.792   1.632  0.5494  0.5180  0.3769
 3355TIP3    H210072   5.403   3.724   1.766 -1.1932  0.4992  0.1913
 3356TIP3   OH210073   5.308   0.794   0.916 -0.0026 -0.2315  0.1591
 3356TIP3    H110074   5.274   0.757   0.998 -1.6085 -1.2848 -0.9094
 3356TIP3    H210075   5.300   0.889   0.927  0.2782 -0.3412  1.4005
 3357TIP3   OH210076   0.370   1.290   5.118 -0.6151 -0.1462 -0.3193
 3357TIP3    H110077   0.280   1.283   5.148 -0.4819  0.7615  0.3544
 3357TIP3    H210078   0.402   1.371   5.159  0.0032  0.4059 -1.8411
 3358TIP3   OH210079   4.342   3.456   1.362 -0.2057 -0.3297 -0.0752
 3358TIP3    H110080   4.256   3.466   1.322 -0.6060  0.0521  0.8450
 3358TIP3    H210081   4.395   3.415   1.295 -0.6163  1.0533 -1.3057
 3359TIP3   OH210082   2.752   5.908   0.815 -0.1164  0.1606 -0.7905
 3359TIP3    H110083   2.696   5.918   0.891 -0.1108 -0.0979 -0.7515
 3359TIP3    H210084   2.803   5.829   0.833 -1.1965 -0.7815 -1.7486
 3360TIP3   OH210085   0.046   5.163   2.702  0.1030 -0.4921  0.0052
 3360TIP3    H110086   0.026   5.183   2.611 -2.5906 -1.7488  0.2146
 3360TIP3    H210087   0.130   5.118   2.698  1.3932  1.8432 -1.4838
 3361TIP3   OH210088   2.512   0.268   0.952  0.1253  0.4296 -0.6921
 3361TIP3    H110089   2.450   0.291   1.022  1.7657  0.6857  0.7537
 3361TIP3    H210090   2.465   0.203   0.900 -1.0290 -0.0831  0.8861
 3362TIP3   OH210091   4.908   5.171   3.651 -0.2218 -0.1624  0.8178
 3362TIP3    H110092   4.960   5.191   3.574 -0.6221  0.4896  0.7063
 3362TIP3    H210093   4.884   5.256   3.686 -2.1577 -0.4061  0.2108
 3363TIP3   OH210094   5.074   4.015   0.203  0.2107 -0.4405 -0.1509
 3363TIP3    H110095   5.135   4.067   0.257  1.0550 -0.2046 -1.2847
 3363TIP3    H210096   5.025   4.081   0.153 -0.3365 -0.6679  0.0795
 3364TIP3   OH210097   3.239   3.640   1.224 -0.1991 -0.2101 -0.2607
 3364TIP3    H110098   3.252   3.697   1.148 -0.7480  0.8034  0.3765
 3364TIP3    H210099   3.148   3.613   1.218 -0.5505  0.7382  0.5919
 3365TIP3   OH210100   0.544   4.465   0.525  0.0159 -0.6944 -0.0839
 3365TIP3    H110101   0.494   4.487   0.446  0.5411 -0.1288 -0.2706
 3365TIP3    H210102   0.479   4.463   0.595 -0.0216  2.2142  0.0851
 3366TIP3   OH210103   1.108   2.713   5.062 -0.7518 -0.6781 -0.3177
 3366TIP3    H110104   1.083   2.717   5.154  0.6949 -3.0716  0.2638
 3366TIP3    H210105   1.061   2.638   5.027 -1.2578  0.1789 -1.5610
 3367TIP3   OH210106   3.381   0.777   4.955  0.0160  0.5550 -0.0765
 3367TIP3    H110107   3.354   0.690   4.984  0.5414 -0.1121 -1.4986
 3367TIP3    H210108   3.447   0.761   4.888  2.1511  2.1121  1.5134
 3368TIP3   OH210109   3.369   5.842   4.203  0.7204 -0.4235  0.0174
 3368TIP3    H110110   3.447   5.839   4.148 -0.0901  0.6969 -1.2538
 3368TIP3    H210111   3.297   5.819   4.144  0.0216 -0.9748  1.0530
 3369TIP3   OH210112   5.736   4.818   1.083 -0.1072  0.3517 -0.0244
 3369TIP3    H110113   5.733   4.754   1.154 -1.9548 -0.5467 -0.8772
 3369TIP3    H210114   5.798   4.884   1.115  0.9688 -1.2351  1.3665
 3370TIP3   OH210115   5.835   1.950   5.075 -0.1176 -0.4100  0.1998
 3370TIP3    H110116   5.749   1.910   5.077 -0.2114 -0.1886  0.8713
 3370TIP3    H210117   5.896   1.877   5.065 -0.3160 -0.6712  0.8739
 3371TIP3   OH210118   4.530   2.559   4.496  0.0735 -0.0058  0.4559
 3371TIP3    H110119   4.438   2.582   4.506  0.3084  1.3479 -0.2932
 3371TIP3    H210120   4.577   2.642   4.504  1.1978 -0.6116  0.4063
 3372TIP3   OH210121   3.885   2.568   2.134  0.0155  0.3162  0.2819
 3372TIP3    H110122   3.824   2.530   2.071  0.0340 -0.4948  0.7404
 3372TIP3    H210123   3.972   2.547   2.099  0.0295 -0.8155  0.9602
 3373TIP3   OH210124   5.477   3.006   3.325  0.3221 -0.4265  0.6376
 3373TIP3    H110125   5.523   3.082   3.290  0.6621 -0.4708  0.9772
 3373TIP3    H210126   5.526   2.931   3.291  0.5240 -0.4730  1.0232
 3374TIP3   OH210127   2.613   0.643   3.190 -0.3796  0.4034 -0.7726
 3374TIP3    H110128   2.568   0.606   3.114 -0.7179 -0.1098 -0.3350
 3374TIP3    H210129   2.627   0.735   3.168 -1.1737  0.4421 -1.1318
 3375TIP3   OH210130   1.030   4.890   4.623  0.3486 -0.6424 -0.4382
 3375TIP3    H110131   1.070   4.855   4.543 -2.7225  0.8374 -2.8491
 3375TIP3    H210132   0.959   4.829   4.643 -0.8620  0.6107 -0.7600
 3376TIP3   OH210133   3.902   2.695   0.339  0.6510  0.0584  0.0009
 3376TIP3    H110134   3.949   2.713   0.258 -0.0574 -0.3743 -0.5196
 3376TIP3    H210135   3.914   2.601   0.353 -0.4691 -0.1617 -0.4207
 3377TIP3   OH210136   1.894   0.725   1.569 -0.1984 -0.2708 -0.0559
 3377TIP3    H110137   1.879   0.635   1.539  0.6471 -1.0950  1.7733
 3377TIP3    H210138   1.847   0.730   1.652  0.8533  0.5199  0.5274
 3378TIP3   OH210139   2.990   0.788   2.613 -0.2013  0.0838 -0.1169
 3378TIP3    H110140   2.919   0.736   2.575 -0.7655  1.1386 -0.5547
 3378TIP3    H210141   3.062   0.781   2.549  0.0300 -0.8069  0.2229
 3379TIP3   OH210142   5.468   4.163   3.006 -0.7604 -0.0572 -0.2077
 3379TIP3    H110143   5.518   4.119   2.937  0.2562 -0.4293  0.7376
 3379TIP3    H210144   5.478   4.106   3.083  0.4005  1.6855  0.9918
 3380TIP3   OH210145   3.432   4.274   4.984  0.3106  0.2196 -0.2097
 3380TIP3    H110146   3.378   4.196   4.992 -2.5548  2.2487  2.5329
 3380TIP3    H210147   3.469   4.287   5.071  0.2334  2.1875 -0.4164
 3381TIP3   OH210148   3.203   5.138   2.911 -0.3594  0.0536 -0.6985
 3381TIP3    H110149   3.213   5.175   2.999 -0.3855 -1.9642  0.2044
 3381TIP3    H210150   3.162   5.209   2.860 -2.2878  0.6015  1.4372
 3382TIP3   OH210151   2.341   3.734   4.169 -0.3771  0.3083 -0.3353
 3382TIP3    H110152   2.287   3.790   4.113 -0.9261 -1.1955 -1.3909
 3382TIP3    H210153   2.369   3.663   4.111 -0.6266 -1.1088  1.2085
 3383TIP3   OH210154   3.079   4.014   0.824 -0.1361  0.0391  0.3347
 3383TIP3    H110155   2.999   4.015   0.877 -0.8717 -1.8668 -0.6408
 3383TIP3    H210156   3.048   4.007   0.734  1.1109 -0.4572 -0.0804
 3384TIP3   OH210157   3.526   0.800   3.932 -0.3096  0.5738  0.0189
 3384TIP3    H110158   3.475   0.727   3.969  0.0116  1.3033  1.9707
 3384TIP3    H210159   3.608   0.760   3.905 -0.6332 -0.0133 -0.1236
 3385TIP3   OH210160   4.801   3.424   4.697  0.0629  0.0066  0.3957
 3385TIP3    H110161   4.895   3.431   4.678 -0.3803  2.4269 -1.3342
 3385TIP3    H210162   4.792   3.456   4.786  0.7597  0.8586  0.1730
 3386TIP3   OH210163   4.883   2.011   2.123  0.1879  0.1462 -0.2689
 3386TIP3    H110164   4.796   1.978   2.145 -0.2049  0.1566 -1.7271
 3386TIP3    H210165   4.938   1.933   2.121  0.3130  0.1824  1.0267
 3387TIP3   OH210166   0.747   4.103   4.341 -0.6385 -0.0035  0.1132
 3387TIP3    H110167   0.811   4.083   4.272 -1.3572 -1.7597 -0.0894
 3387TIP3    H210168   0.673   4.141   4.295 -0.1778  1.0763  0.2303
 3388TIP3   OH210169   3.967   5.192   4.306 -0.3241 -0.2872 -0.1549
 3388TIP3    H110170   3.915   5.222   4.380 -0.0296  2.1640 -0.8521
 3388TIP3    H210171   3.917   5.220   4.229  1.5917  1.5103 -0.8347
 3389TIP3   OH210172   0.485   0.638   3.085  0.0900 -0.3964  0.0650
 3389TIP3    H110173   0.404   0.605   3.045 -0.3443  1.5782 -0.8213
 3389TIP3    H210174   0.555   0.598   3.032 -0.3735 -0.6184 -0.3953
 3390TIP3   OH210175   3.682   2.135   1.015 -0.1139 -0.1557  0.1178
 3390TIP3    H110176   3.696   2.045   0.985 -0.4271 -0.5931  1.2340
 3390TIP3    H210177   3.695   2.188   0.937 -3.3942 -1.4109 -1.4531
 3391TIP3   OH210178   1.774   2.047   1.217 -0.7009 -0.0642  0.4481
 3391TIP3    H110179   1.773   2.009   1.129 -0.0673  1.4065 -0.2273
 3391TIP3    H210180   1.837   2.118   1.211 -0.1819 -0.3191  2.2739
 3392TIP3   OH210181   1.655   2.895   0.843  0.0103  0.1624 -0.5201
 3392TIP3    H110182   1.677   2.953   0.770  2.3476  1.5175  1.1471
 3392TIP3    H210183   1.662   2.807   0.806  0.4445  0.8194 -2.0913
 3393TIP3   OH210184   1.175   0.415   2.715  0.5335 -0.2135 -0.4910
 3393TIP3    H110185   1.222   0.350   2.767 -0.5540 -0.9078 -0.3431
 3393TIP3    H210186   1.244   0.469   2.676  1.3900  0.0244  1.2718
 3394TIP3   OH210187   1.897   4.676   3.911 -0.0629 -0.1315  0.0472
 3394TIP3    H110188   1.911   4.740   3.842  0.6015 -0.2737  0.0500
 3394TIP3    H210189   1.896   4.727   3.992  0.3259 -0.1038  0.0369
 3395TIP3   OH210190   3.449   5.987   2.169 -0.0602 -0.0484 -0.1660
 3395TIP3    H110191   3.507   6.063   2.168  0.3323 -0.3462 -0.0636
 3395TIP3    H210192   3.507   5.912   2.178 -0.5514 -0.2630  1.5676
 3396TIP3   OH210193   3.296   1.659   1.191  0.3365 -0.1311  0.0289
 3396TIP3    H110194   3.360   1.609   1.141  1.2237 -0.2738  1.2572
 3396TIP3    H210195   3.289   1.743   1.145  1.4923 -0.0832 -0.0806
 3397TIP3   OH210196   4.188   4.714   4.903  0.0279 -0.1372 -0.0406
 3397TIP3    H110197   4.279   4.719   4.934 -0.2061 -1.7635  1.0501
 3397TIP3    H210198   4.137   4.760   4.970 -0.0693 -0.2049 -0.0681
 3398TIP3   OH210199   4.586   2.633   1.027  0.0622 -0.4439  0.4224
 3398TIP3    H110200   4.519   2.645   1.094 -0.8746 -2.3707 -0.0986
 3398TIP3    H210201   4.574   2.543   0.997  0.3873  0.3644 -2.3963
 3399TIP3   OH210202   3.282   0.650   4.685  0.2486  0.4946 -0.3969
 3399TIP3    H110203   3.367   0.630   4.723  0.7916  0.5847 -1.5380
 3399TIP3    H210204   3.288   0.741   4.656 -0.7762  1.0126  0.9215
 3400TIP3   OH210205   5.508   4.862   0.294 -0.4561  0.4006 -0.3086
 3400TIP3    H110206   5.563   4.823   0.227 -0.3564  0.5693 -0.3250
 3400TIP3    H210207   5.499   4.954   0.269  0.2803  0.6694  0.3585
 3401TIP3   OH210208   4.088   1.598   1.408  0.5247  0.7249  0.1913
 3401TIP3    H110209   4.173   1.577   1.370  0.3465  0.0533  0.1433
 3401TIP3    H210210   4.025   1.572   1.341  0.2870  1.5804  0.0663
 3402TIP3   OH210211   1.928   2.217   4.933 -0.2324  0.2807  0.0523
 3402TIP3    H110212   1.901   2.130   4.904  0.3560 -0.1741  0.8373
 3402TIP3    H210213   1.959   2.260   4.853 -0.0292 -0.4215 -0.2521
 3403TIP3   OH210214   6.342   5.296   1.606  0.0786  0.4003  0.0921
 3403TIP3    H110215   6.250   5.287   1.632 -0.5114  2.6119 -1.0427
 3403TIP3    H210216   6.368   5.382   1.638  2.2899 -0.7724  1.7469
 3404TIP3   OH210217   4.590   0.023   3.187  0.0494 -0.7837 -0.1742
 3404TIP3    H110218   4.657   0.017   3.255 -0.1855 -1.7454 -0.0137
 3404TIP3    H210219   4.512   0.056   3.233  0.5194  0.8153 -0.4581
 3405TIP3   OH210220   4.528   1.460   1.887  0.3602 -0.4093  0.0009
 3405TIP3    H110221   4.552   1.386   1.831 -2.2482 -0.3595 -1.3516
 3405TIP3    H210222   4.468   1.512   1.834  1.8710  2.5940  1.0207
 3406TIP3   OH210223   5.381   3.112   0.547  0.5875  0.4046  0.7202
 3406TIP3    H110224   5.324   3.166   0.602 -0.6466  0.5345 -0.6379
 3406TIP3    H210225   5.325   3.040   0.519  0.5735  1.3337 -1.8882
 3407TIP3   OH210226   4.504   2.820   3.782 -0.2641 -0.3780 -0.0020
 3407TIP3    H110227   4.493   2.899   3.730 -1.4447  1.3023  2.6111
 3407TIP3    H210228   4.416   2.798   3.812  0.1881 -2.0931  0.1619
 3408TIP3   OH210229   3.251   3.321   5.067 -0.5059 -0.3959  0.1086
 3408TIP3    H110230   3.337   3.362   5.060 -2.1045  3.0557 -1.8920
 3408TIP3    H210231   3.270   3.228   5.079  3.5047  0.0080 -1.5399
 3409TIP3   OH210232   5.098   1.333   0.761 -0.4473  0.4783 -0.2719
 3409TIP3    H110233   5.056   1.301   0.841  0.2027  1.2458  0.3898
 3409TIP3    H210234   5.171   1.387   0.792  0.3318  0.1073 -1.3894
 3410TIP3   OH210235   5.940   2.631   2.855 -0.4076 -0.3406  0.2219
 3410TIP3    H110236   5.883   2.554   2.858  0.0201 -0.6558  3.3765
 3410TIP3    H210237   6.024   2.596   2.824 -0.0460 -1.3284  2.1880
 3411TIP3   OH210238   1.378   1.341   1.681 -0.0184 -0.2030  0.6359
 3411TIP3    H110239   1.470   1.366   1.686 -0.0743  0.0921  0.1861
 3411TIP3    H210240   1.371   1.265   1.740  1.0892 -1.9795 -1.3867
 3412TIP3   OH210241   3.659   0.964   0.279  0.3364 -0.0406  0.2286
 3412TIP3    H110242   3.615   1.047   0.294 -2.1529 -0.6521 -2.7031
 3412TIP3    H210243   3.750   0.987   0.257 -0.7773  2.1780 -2.5641
 3413TIP3   OH210244   1.540   0.847   0.842 -0.2307  0.1993 -0.2551
 3413TIP3    H110245   1.473   0.786   0.873 -0.8928  1.0930  0.0925
 3413TIP3    H210246   1.544   0.831   0.748  0.4890 -1.2377 -0.0213
 3414TIP3   OH210247   2.475   0.423   3.640 -0.0479  0.0041  0.6524
 3414TIP3    H110248   2.565   0.400   3.618  0.4121  2.0531  0.1688
 3414TIP3    H210249   2.428   0.416   3.558 -0.3475 -1.0713  0.9063
 3415TIP3   OH210250   3.712   5.422   1.404 -0.1338  0.5879  0.2429
 3415TIP3    H110251   3.754   5.507   1.419 -1.0272  1.7116 -2.7264
 3415TIP3    H210252   3.783   5.364   1.378  0.0157  1.9078 -2.7089
 3416TIP3   OH210253   1.431   5.490   1.993  0.2184 -0.7095  0.4583
 3416TIP3    H110254   1.466   5.547   2.061  0.4151  1.1389 -1.0894
 3416TIP3    H210255   1.493   5.417   1.987  2.0338  0.8094  0.0088
 3417TIP3   OH210256   3.377   3.996   0.364  0.4038  0.3496  0.1853
 3417TIP3    H110257   3.446   3.979   0.300 -1.9052 -2.4202 -1.8259
 3417TIP3    H210258   3.412   3.964   0.446  1.6417 -0.7121 -0.7195
 3418TIP3   OH210259   0.409   0.404   5.004 -0.3400  0.7790 -0.0848
 3418TIP3    H110260   0.468   0.360   4.943 -1.1495  1.4339 -1.3796
 3418TIP3    H210261   0.404   0.345   5.080  0.8765  0.0699 -0.5333
 3419TIP3   OH210262   0.790   2.163   1.068  0.5351 -0.0395  0.2193
 3419TIP3    H110263   0.758   2.160   1.159  1.5862  1.3657  0.6580
 3419TIP3    H210264   0.716   2.198   1.018 -1.2234 -3.6827 -0.0941
 3420TIP3   OH210265   6.005   2.110   2.339 -0.2246  0.6809  0.0244
 3420TIP3    H110266   5.990   2.202   2.317 -0.2439  0.6385 -0.1389
 3420TIP3    H210267   5.917   2.074   2.352 -0.2815  0.4162 -0.9973
 3421TIP3   OH210268   3.242   1.791   1.556  0.1985  0.1412 -0.0013
 3421TIP3    H110269   3.248   1.699   1.581 -1.0088 -0.5320 -1.9635
 3421TIP3    H210270   3.333   1.821   1.552  0.5462 -0.4915  2.1624
 3422TIP3   OH210271   4.980   1.284   3.492  0.0472 -0.7647 -0.0224
 3422TIP3    H110272   4.988   1.192   3.464 -1.8188 -0.6713 -1.0173
 3422TIP3    H210273   4.901   1.315   3.449  0.2989  1.1530  0.8130
 3423TIP3   OH210274   5.232   3.389   1.348 -0.4391  0.9297 -0.5871
 3423TIP3    H110275   5.239   3.472   1.301 -1.0576  0.5070 -1.4529
 3423TIP3    H210276   5.279   3.404   1.430  0.3089  1.8190 -1.1539
 3424TIP3   OH210277   6.177   0.577   3.544 -0.3254 -0.5456 -0.3109
 3424TIP3    H110278   6.131   0.554   3.625 -1.0364 -3.5285 -1.4308
 3424TIP3    H210279   6.108   0.593   3.481  0.2198  2.1706 -0.3281
 3425TIP3   OH210280   2.004   3.834   0.180  0.0883 -0.2345  0.6134
 3425TIP3    H110281   2.001   3.848   0.085  1.1134 -0.3538  0.5558
 3425TIP3    H210282   2.096   3.816   0.199  0.0529  0.6891  1.7648
 3426TIP3   OH210283   0.276   1.394   0.069 -0.2345  0.0410 -0.3227
 3426TIP3    H110284   0.342   1.414   0.003 -1.1967 -0.0183 -1.3348
 3426TIP3    H210285   0.195   1.429   0.033 -0.5107  1.5936  1.6190
 3427TIP3   OH210286   1.089   4.080   4.017 -0.2336  0.0289 -0.5383
 3427TIP3    H110287   1.048   4.160   3.983 -0.0174 -0.5155 -2.1834
 3427TIP3    H210288   1.171   4.073   3.969  0.7783 -0.0660  1.1444
 3428TIP3   OH210289   5.079   4.679   4.025  0.0781  0.3950 -0.2584
 3428TIP3    H110290   5.173   4.678   4.008 -0.2492 -1.4603 -2.3514
 3428TIP3    H210291   5.039   4.647   3.945 -2.3132  0.3854  0.8408
 3429TIP3   OH210292   1.856   3.975   3.359  0.1720  0.4676 -0.5382
 3429TIP3    H110293   1.910   3.908   3.317  2.3071  1.5110  0.3726
 3429TIP3    H210294   1.827   3.935   3.440 -0.3272 -0.0505 -0.9624
 3430TIP3   OH210295   1.572   5.563   3.259 -0.2793  0.1452  0.5194
 3430TIP3    H110296   1.508   5.611   3.206 -0.2910 -0.3758  0.0509
 3430TIP3    H210297   1.586   5.481   3.211  2.5646  1.2215 -0.6657
 3431TIP3   OH210298   5.567   1.615   1.066  0.6095 -0.0248  0.5293
 3431TIP3    H110299   5.560   1.711   1.060  1.6073 -0.0157 -0.8789
 3431TIP3    H210300   5.484   1.588   1.105  0.1937  1.3910  0.6943
 3432TIP3   OH210301   2.298   5.211   3.729  0.2446 -0.0536 -0.0083
 3432TIP3    H110302   2.391   5.195   3.743  0.2942 -0.1669 -0.4621
 3432TIP3    H210303   2.259   5.123   3.728  0.1513 -0.0128  0.0399
 3433TIP3   OH210304   0.494   4.450   0.125 -0.4762 -0.3064 -0.7225
 3433TIP3    H110305   0.425   4.468   0.189 -0.1667  2.5355 -1.0787
 3433TIP3    H210306   0.546   4.530   0.122  1.4199 -1.4983 -2.2535
 3434TIP3   OH210307   3.173   3.988   2.627 -0.6172  0.3037 -0.0314
 3434TIP3    H110308   3.258   3.959   2.658 -0.2715  0.4665 -0.8181
 3434TIP3    H210309   3.137   3.913   2.579 -1.3575 -0.1147  1.1180
 3435TIP3   OH210310   3.708   0.981   4.011  0.2116  0.1148  0.4900
 3435TIP3    H110311   3.776   0.915   4.019 -0.2601 -0.5702 -0.7896
 3435TIP3    H210312   3.626   0.933   4.014 -0.1509  0.6662 -0.0767
 3436TIP3   OH210313   1.684   1.612   2.918 -0.2953  0.3189  0.7080
 3436TIP3    H110314   1.639   1.660   2.848  3.4810 -0.3605 -2.5663
 3436TIP3    H210315   1.708   1.529   2.878  1.8999 -0.1991  2.8800
 3437TIP3   OH210316   1.437   2.768   4.093 -0.2616  0.9033  0.5210
 3437TIP3    H110317   1.454   2.676   4.113 -1.6399  0.5807  0.2955
 3437TIP3    H210318   1.442   2.773   3.997 -4.0483  0.1685  0.1586
 3438TIP3   OH210319   3.612   1.824   0.125  0.5257 -0.0034 -0.2139
 3438TIP3    H110320   3.682   1.865   0.175 -0.8558  1.4673  0.5981
 3438TIP3    H210321   3.648   1.816   0.036  1.1770  2.2250 -0.2099
 3439TIP3   OH210322   1.986   3.103   3.853  0.8303 -0.0511 -0.5097
 3439TIP3    H110323   2.031   3.115   3.937  0.7884  0.1653 -0.5185
 3439TIP3    H210324   1.976   3.008   3.845 -2.3432 -0.0541  1.4475
 3440TIP3   OH210325   2.982   1.574   4.914  0.0802  0.0964 -0.0735
 3440TIP3    H110326   2.918   1.620   4.860 -2.2354 -1.1396  1.4884
 3440TIP3    H210327   3.006   1.638   4.982  0.2629  0.4589 -0.4776
 3441TIP3   OH210328   2.643   1.188   2.228 -0.4873 -0.0229 -0.1703
 3441TIP3    H110329   2.562   1.237   2.209  0.1421  0.9421 -0.4352
 3441TIP3    H210330   2.713   1.248   2.203  0.3757  0.2796  2.6622
 3442TIP3   OH210331   3.028   0.080   1.591  0.1356 -0.1826  0.0375
 3442TIP3    H110332   3.005   0.153   1.533 -2.4676 -1.9653 -1.3741
 3442TIP3    H210333   2.989   0.103   1.675 -0.6544  0.0550 -0.3911
 3443TIP3   OH210334   0.330   4.872   4.726 -0.4671  0.0422  0.0529
 3443TIP3    H110335   0.337   4.871   4.821  0.9345  0.0887 -0.0268
 3443TIP3    H210336   0.330   4.780   4.700  1.3639  0.0401 -0.0137
 3444TIP3   OH210337   3.144   0.316   1.280  0.0686 -0.2118  0.1979
 3444TIP3    H110338   3.081   0.364   1.226  2.4609  1.5381 -1.2408
 3444TIP3    H210339   3.128   0.347   1.369 -1.0575  0.2315 -0.1399
 3445TIP3   OH210340   3.121   5.317   2.695  0.3526 -0.3578 -0.2937
 3445TIP3    H110341   3.182   5.296   2.625 -1.2071 -5.4482 -0.5413
 3445TIP3    H210342   3.054   5.248   2.690 -3.5119  2.7506  2.1557
 3446TIP3   OH210343   0.436   2.561   0.383 -0.6773  0.1445 -0.1506
 3446TIP3    H110344   0.370   2.513   0.334 -0.1157 -0.9418  0.1279
 3446TIP3    H210345   0.454   2.506   0.459 -1.0033  1.4498  0.9086
 3447TIP3   OH210346   0.102   0.785   3.062 -0.2662 -0.5795  0.1987
 3447TIP3    H110347   0.182   0.835   3.079 -0.6358  0.9524 -2.1521
 3447TIP3    H210348   0.039   0.820   3.126  0.0164  0.7037 -0.1805
 3448TIP3   OH210349   3.756   0.171   2.843 -0.4703 -0.1901 -0.1212
 3448TIP3    H110350   3.828   0.126   2.888 -1.1495 -2.6436 -1.3032
 3448TIP3    H210351   3.679   0.152   2.896 -0.7878 -0.5864 -0.7078
 3449TIP3   OH210352   4.108   1.532   3.163 -0.1588  0.2892  0.1159
 3449TIP3    H110353   4.047   1.593   3.123  0.2256  0.6055  0.0074
 3449TIP3    H210354   4.053   1.462   3.197 -0.3867 -1.6430 -3.6942
 3450TIP3   OH210355   4.160   4.980   4.599  0.7022 -0.0720  0.0702
 3450TIP3    H110356   4.199   5.051   4.650 -0.2571 -0.0574  0.8130
 3450TIP3    H210357   4.232   4.918   4.586  1.7972  1.3945 -1.3506
 3451TIP3   OH210358   2.197   5.370   3.968 -0.3110 -0.3047 -0.1620
 3451TIP3    H110359   2.121   5.415   3.930 -1.3969 -0.7742  1.3135
 3451TIP3    H210360   2.231   5.315   3.898  0.1360  1.6607 -1.5667
 3452TIP3   OH210361   1.782   5.887   1.699  0.7827 -0.3435 -0.0020
 3452TIP3    H110362   1.829   5.865   1.780  2.5741  0.8366 -0.6559
 3452TIP3    H210363   1.838   5.851   1.630  1.8718  2.8063 -0.9060
 3453TIP3   OH210364   0.053   4.000   3.341 -0.0095 -0.3345 -0.1094
 3453TIP3    H110365  -0.018   4.059   3.313  0.3612  0.1916  0.0451
 3453TIP3    H210366   0.113   4.056   3.391  0.2998 -0.8665  0.1249
 3454TIP3   OH210367   4.306   5.401   1.703  0.4809  0.4009  0.0061
 3454TIP3    H110368   4.349   5.320   1.676  2.4321  0.8846  1.4815
 3454TIP3    H210369   4.279   5.385   1.793 -0.3721  0.9525 -0.1295
 3455TIP3   OH210370   1.512   3.506   2.665  0.3796 -0.3610  0.1384
 3455TIP3    H110371   1.479   3.417   2.654 -1.8312  0.2816  1.0655
 3455TIP3    H210372   1.496   3.526   2.758 -0.3234  1.4168 -0.3175
 3456TIP3   OH210373   5.845   0.167   0.380  0.4210  0.1894  0.1455
 3456TIP3    H110374   5.785   0.124   0.320  0.1942 -0.9044  1.1199
 3456TIP3    H210375   5.794   0.238   0.419 -0.2037 -0.6090  0.8191
 3457TIP3   OH210376   0.603   3.896   3.415  0.2161 -0.4175 -0.3763
 3457TIP3    H110377   0.640   3.837   3.481 -1.9844 -2.5034 -0.8805
 3457TIP3    H210378   0.536   3.946   3.461  1.1024  0.7405 -0.2842
 3458TIP3   OH210379   0.969   1.401   2.570  0.1206 -0.0076 -0.2020
 3458TIP3    H110380   0.976   1.493   2.546 -0.3125 -0.0414 -0.4913
 3458TIP3    H210381   0.946   1.357   2.488  0.0039 -0.3267 -0.0015
 3459TIP3   OH210382   6.225   1.455   3.539 -0.0587 -0.3908  0.2528
 3459TIP3    H110383   6.311   1.488   3.565  0.0903 -0.3893 -0.2351
 3459TIP3    H210384   6.227   1.362   3.562 -0.2395 -0.2140  1.0211
 3460TIP3   OH210385   4.365   2.680   1.206 -0.6390  0.2320  0.1879
 3460TIP3    H110386   4.311   2.758   1.197 -0.7748  0.0977 -0.1956
 3460TIP3    H210387   4.306   2.613   1.240 -0.3657  0.4651  1.1620
 3461TIP3   OH210388   3.650   3.313   2.525  0.5485  0.0746 -0.2115
 3461TIP3    H110389   3.695   3.360   2.455  1.6646  0.8245  0.9678
 3461TIP3    H210390   3.570   3.363   2.540  1.7755  1.7622  1.1089
 3462TIP3   OH210391   2.941   2.060   2.376 -0.2849 -0.1244 -0.1291
 3462TIP3    H110392   2.981   2.144   2.398 -0.6595 -0.1535  0.6721
 3462TIP3    H210393   2.935   2.013   2.459 -2.5594  0.1318 -0.0780
 3463TIP3   OH210394   3.388   5.330   0.274  0.5750  0.3912  0.2884
 3463TIP3    H110395   3.420   5.365   0.358 -0.6149 -1.2383  1.4913
 3463TIP3    H210396   3.464   5.290   0.234  1.1768  1.2303  0.5659
 3464TIP3   OH210397   4.470   0.200   3.399 -0.0793  0.8451  0.1525
 3464TIP3    H110398   4.480   0.141   3.473  0.5180 -1.9503 -1.9910
 3464TIP3    H210399   4.377   0.195   3.376  0.3021 -1.0075 -1.2479
 3465TIP3   OH210400   4.630   1.696   2.430  0.2926 -0.4804  0.4752
 3465TIP3    H110401   4.639   1.620   2.372 -1.7325  0.0947 -0.7128
 3465TIP3    H210402   4.631   1.658   2.518 -0.5243 -1.9032 -0.0795
 3466TIP3   OH210403   3.231   3.055   1.511 -0.5305  0.6053 -0.1879
 3466TIP3    H110404   3.155   3.055   1.569 -0.0109 -3.8782  0.8570
 3466TIP3    H210405   3.199   3.017   1.429  0.3985 -0.8795  0.1018
 3467TIP3   OH210406   4.819   2.534   4.608 -0.2469 -0.4385 -0.3095
 3467TIP3    H110407   4.764   2.457   4.594 -0.7535  0.0101 -0.8606
 3467TIP3    H210408   4.759   2.608   4.596 -0.1132  0.0411  1.6980
 3468TIP3   OH210409   0.690   3.478   0.071  0.3541  0.1522  0.0532
 3468TIP3    H110410   0.632   3.452   0.142  0.0531  0.0749 -0.2164
 3468TIP3    H210411   0.659   3.428  -0.005  2.1925 -1.6221  0.3988
 3469TIP3   OH210412   3.095   4.379   3.754  0.5879 -0.2231 -0.2294
 3469TIP3    H110413   3.148   4.392   3.676  2.7761 -1.1113  1.0109
 3469TIP3    H210414   3.151   4.328   3.813 -0.7934  0.7447  2.0734
 3470TIP3   OH210415   5.444   4.854   4.256  0.1203  0.0327 -0.6333
 3470TIP3    H110416   5.351   4.847   4.278  0.4596 -0.3319  0.8045
 3470TIP3    H210417   5.449   4.932   4.201 -1.0675 -0.0828 -0.9421
 3471TIP3   OH210418   0.362   1.520   1.951  0.5386  0.3606 -0.4364
 3471TIP3    H110419   0.333   1.587   1.889  0.0834 -0.2368 -0.8760
 3471TIP3    H210420   0.339   1.437   1.910  0.4262 -0.0522  0.4318
 3472TIP3   OH210421   0.345   3.036   3.723  0.0779  0.4941 -0.3459
 3472TIP3    H110422   0.435   3.022   3.694  0.2039 -0.0339  0.2913
 3472TIP3    H210423   0.342   3.129   3.745  0.5783  0.4316  0.0049
 3473TIP3   OH210424   4.149   1.087   2.226  0.6748 -0.3304  0.4099
 3473TIP3    H110425   4.079   1.151   2.221  0.4016 -0.6492  0.1050
 3473TIP3    H210426   4.215   1.128   2.282  0.3616  0.0771  0.4857
 3474TIP3   OH210427   6.238   1.560   5.131  0.0702  0.1675  0.1772
 3474TIP3    H110428   6.236   1.639   5.185 -1.0251 -0.9999  1.9295
 3474TIP3    H210429   6.152   1.521   5.143  0.9668 -1.8792  0.2984
 3475TIP3   OH210430   0.876   3.934   4.111  0.3157 -0.0218 -0.0987
 3475TIP3    H110431   0.899   3.841   4.105 -0.5397 -0.4375  2.2093
 3475TIP3    H210432   0.959   3.980   4.099  1.0577 -1.1700  0.5031
 3476TIP3   OH210433   2.475   5.814   0.762  0.5952 -0.2106 -0.4195
 3476TIP3    H110434   2.456   5.779   0.849 -0.4631  1.5762  0.1291
 3476TIP3    H210435   2.526   5.745   0.719 -0.2291 -1.8044  1.0283
 3477TIP3   OH210436   4.632   2.040   0.257  0.1883 -0.0177 -0.3406
 3477TIP3    H110437   4.557   1.993   0.294 -0.0123 -0.5236 -1.3415
 3477TIP3    H210438   4.593   2.115   0.212  0.1681 -0.7072 -1.5374
 3478TIP3   OH210439   1.562   2.744   2.495  0.1325  0.0347 -0.3611
 3478TIP3    H110440   1.641   2.697   2.467  0.2334  0.6224 -1.1057
 3478TIP3    H210441   1.567   2.745   2.590 -0.8171 -3.1038 -0.1481
 3479TIP3   OH210442   2.798   3.254   0.110  0.5350 -0.0175  0.2797
 3479TIP3    H110443   2.871   3.221   0.162  1.7011 -1.7445 -2.2499
 3479TIP3    H210444   2.836   3.326   0.059  0.7745 -1.3337 -1.5215
 3480TIP3   OH210445   1.445   3.349   0.798 -0.0547  0.4671  0.5068
 3480TIP3    H110446   1.522   3.293   0.791 -0.0451  0.4960  0.3805
 3480TIP3    H210447   1.428   3.378   0.708 -0.5784 -0.0442  0.4344
 3481TIP3   OH210448   1.644   4.766   0.207  0.5521  0.8569 -0.1616
 3481TIP3    H110449   1.600   4.790   0.289 -1.1932 -1.5655 -0.2790
 3481TIP3    H210450   1.679   4.848   0.174 -1.5264  2.4850  1.3703
 3482TIP3   OH210451   2.070   3.137   4.116 -0.0750 -0.2743  0.2921
 3482TIP3    H110452   2.137   3.075   4.145 -0.1368 -1.7104 -2.2710
 3482TIP3    H210453   2.101   3.222   4.145  0.5807 -1.3296  3.0203
 3483TIP3   OH210454   5.277   3.104   1.650 -0.2850  0.0456 -0.2389
 3483TIP3    H110455   5.196   3.149   1.624  0.7388  2.0425 -0.1437
 3483TIP3    H210456   5.306   3.151   1.728  0.8221 -0.8380 -0.0980
 3484TIP3   OH210457   5.511   4.685   1.625 -0.2357  0.7110 -0.6253
 3484TIP3    H110458   5.535   4.623   1.695  0.2841  0.4775 -1.0025
 3484TIP3    H210459   5.577   4.670   1.557  1.2342  3.1651  0.1579
 3485TIP3   OH210460   1.338   0.191   2.812 -0.4168  0.1578  0.1149
 3485TIP3    H110461   1.262   0.136   2.832 -0.0299  0.1293  1.6373
 3485TIP3    H210462   1.407   0.128   2.791 -0.0572  0.0457  1.5555
 3486TIP3   OH210463   3.598   0.214   1.072  0.3504 -0.4989 -0.7455
 3486TIP3    H110464   3.532   0.280   1.093  1.4866  0.7646 -1.0611
 3486TIP3    H210465   3.594   0.152   1.145 -1.0438 -0.3545 -0.6677
 3487TIP3   OH210466   4.578   0.683   4.286 -0.2333  0.0153  0.0948
 3487TIP3    H110467   4.484   0.665   4.290 -0.4283  0.6191 -1.1534
 3487TIP3    H210468   4.584   0.777   4.303  0.1433 -0.0215  0.1589
 3488TIP3   OH210469   1.113   1.668   3.633 -0.0080 -0.1655  0.2074
 3488TIP3    H110470   1.206   1.649   3.622 -0.2602 -0.3876 -1.8538
 3488TIP3    H210471   1.098   1.748   3.584 -1.4523 -1.7921 -2.2287
 3489TIP3   OH210472   0.100   3.376   3.540  0.0944  0.2723 -0.6542
 3489TIP3    H110473   0.048   3.371   3.620  0.8511  0.4483 -0.1435
 3489TIP3    H210474   0.057   3.444   3.488 -0.3296  0.2453 -0.3485
 3490TIP3   OH210475   0.398   0.056   4.227  0.0310 -0.0911  0.1450
 3490TIP3    H110476   0.331   0.055   4.296  0.1108 -1.1504  0.2344
 3490TIP3    H210477   0.469   0.109   4.263 -0.3148  0.1407  0.4955
 3491TIP3   OH210478   1.950   3.629   0.961  0.1346 -0.0568 -0.8504
 3491TIP3    H110479   2.014   3.611   0.892  1.4115  0.6173  0.1009
 3491TIP3    H210480   1.907   3.546   0.977  2.3633 -1.1223  0.0025
 3492TIP3   OH210481   1.743   4.861   2.325  0.1948  0.0068 -0.7750
 3492TIP3    H110482   1.649   4.873   2.341  0.3858  0.2208  0.3374
 3492TIP3    H210483   1.748   4.796   2.256 -0.7771 -3.2075  1.8921
 3493TIP3   OH210484   5.830   3.766   2.134  0.6566  0.0226  0.2029
 3493TIP3    H110485   5.832   3.761   2.229  1.4860  0.2340  0.2070
 3493TIP3    H210486   5.818   3.859   2.115 -1.4418 -0.2318  0.0924
 3494TIP3   OH210487   1.395   4.817   3.389  0.1918  0.4544 -0.3995
 3494TIP3    H110488   1.356   4.900   3.417 -2.8985 -0.8313 -0.4439
 3494TIP3    H210489   1.433   4.780   3.468  1.3232  1.7403 -0.3139
 3495TIP3   OH210490   0.238   0.420   4.560  0.2892 -0.2067 -0.1229
 3495TIP3    H110491   0.275   0.506   4.583  1.9014 -0.8848 -0.0591
 3495TIP3    H210492   0.312   0.360   4.566  0.3260 -0.9167 -4.5846
 3496TIP3   OH210493   2.036   4.624   0.672  0.1219 -0.0661 -0.6544
 3496TIP3    H110494   2.057   4.573   0.750 -1.6550  1.1130  0.6829
 3496TIP3    H210495   1.953   4.587   0.642  0.5486 -0.1822 -1.7253
 3497TIP3   OH210496   3.609   2.557   1.919  0.4548 -0.2565 -0.3067
 3497TIP3    H110497   3.538   2.593   1.866  0.0214 -0.9480 -0.2132
 3497TIP3    H210498   3.569   2.544   2.006 -0.1555 -3.1843 -0.9174
 3498TIP3   OH210499   5.954   5.557   4.532  0.2199 -0.2732 -0.6181
 3498TIP3    H110500   5.924   5.605   4.455  0.7558  1.7098  0.3313
 3498TIP3    H210501   5.877   5.554   4.589  0.6543  1.2444  0.1196
 3499TIP3   OH210502   5.809   0.889   0.307  0.4956 -0.0297 -0.2554
 3499TIP3    H110503   5.819   0.801   0.344  0.5816  0.3707  0.7153
 3499TIP3    H210504   5.726   0.886   0.260  0.2994 -0.5125  0.1116
 3500TIP3   OH210505   1.834   5.880   3.218  0.2395  0.1316 -0.3417
 3500TIP3    H110506   1.834   5.787   3.194 -1.4915 -0.3827  1.4327
 3500TIP3    H210507   1.927   5.902   3.226  0.6918 -1.3464 -1.1404
 3501TIP3   OH210508   2.329   5.669   3.097  0.5465  0.3333  0.2423
 3501TIP3    H110509   2.254   5.624   3.058  0.1149  0.9571  0.3431
 3501TIP3    H210510   2.361   5.608   3.164 -1.1332  0.8785  1.6383
 3502TIP3   OH210511   1.940   5.366   4.820 -0.4415 -0.6196  0.7360
 3502TIP3    H110512   1.889   5.365   4.901  0.0871  5.3906  1.5986
 3502TIP3    H210513   2.030   5.384   4.848  0.4305 -1.6982 -1.1437
 3503TIP3   OH210514   4.541   2.275   3.866  0.3884  0.0220 -0.2527
 3503TIP3    H110515   4.446   2.272   3.869  0.4123 -0.1565  0.9534
 3503TIP3    H210516   4.562   2.310   3.779 -0.7497 -0.7300 -0.8556
 3504TIP3   OH210517   4.145   4.526   0.111  0.1842  0.2216 -0.4516
 3504TIP3    H110518   4.241   4.523   0.104  0.1405 -0.2357 -0.8984
 3504TIP3    H210519   4.115   4.555   0.025  0.0814  4.3424  0.7989
 3505TIP3   OH210520   2.685   3.366   0.448  0.0387 -0.5220  0.3282
 3505TIP3    H110521   2.596   3.332   0.432  0.5702 -1.5884 -0.5455
 3505TIP3    H210522   2.739   3.319   0.384  1.2733 -0.0724  1.0289
 3506TIP3   OH210523   0.247   3.320   0.315  0.1851  0.3945  0.0371
 3506TIP3    H110524   0.171   3.332   0.259  0.6414 -0.0773 -0.7031
 3506TIP3    H210525   0.257   3.403   0.361 -0.6075  0.5491 -0.0632
 3507TIP3   OH210526   3.779   5.282   0.509 -0.8731  0.0113 -0.0896
 3507TIP3    H110527   3.850   5.328   0.465 -0.3172 -1.8684 -1.2806
 3507TIP3    H210528   3.817   5.252   0.591  0.3523 -2.4096 -1.4277
 3508TIP3   OH210529   2.808   2.737   2.981 -0.0149 -0.3930 -0.1017
 3508TIP3    H110530   2.731   2.717   2.928 -0.6675  0.2803  0.5727
 3508TIP3    H210531   2.829   2.654   3.024  0.0265 -0.7350 -0.7679
 3509TIP3   OH210532   3.207   0.775   2.413  0.2421  1.0814 -0.3753
 3509TIP3    H110533   3.215   0.747   2.322  2.9992  0.1453  0.0624
 3509TIP3    H210534   3.217   0.870   2.411 -2.4738  1.4550 -1.2184
 3510TIP3   OH210535   3.865   0.760   1.262  0.0166  0.1330 -0.6728
 3510TIP3    H110536   3.848   0.694   1.195  1.1868 -2.1367  1.1598
 3510TIP3    H210537   3.814   0.732   1.337 -0.7853  2.2950 -0.3439
 3511TIP3   OH210538   5.008   1.399   2.164  0.1116  0.4589 -0.6044
 3511TIP3    H110539   5.081   1.410   2.102  1.5471 -1.4634  0.6532
 3511TIP3    H210540   5.038   1.440   2.245  0.2311 -1.1660  0.2143
 3512TIP3   OH210541   3.924   3.519   2.236  0.0266 -0.1225 -0.1202
 3512TIP3    H110542   3.940   3.575   2.312 -1.5622 -2.2801  1.9413
 3512TIP3    H210543   3.984   3.446   2.246 -0.9516 -0.9782 -0.2931
 3513TIP3   OH210544   4.007   5.718   0.555  0.6994  0.0191 -0.1608
 3513TIP3    H110545   4.068   5.747   0.622  1.9462 -0.2720 -1.1289
 3513TIP3    H210546   4.052   5.736   0.472  0.3607 -2.0877 -0.8682
 3514TIP3   OH210547   3.891   0.462   3.390 -0.3792  0.5199  0.3270
 3514TIP3    H110548   3.845   0.428   3.314 -0.3823  1.8854 -0.3136
 3514TIP3    H210549   3.826   0.463   3.460 -0.8178  0.6975 -0.0766
 3515TIP3   OH210550   4.812   4.636   4.402 -0.1335 -0.1261  0.5158
 3515TIP3    H110551   4.889   4.586   4.430  0.2818 -0.4834 -1.1522
 3515TIP3    H210552   4.845   4.724   4.386  0.2244 -0.5441 -1.2881
 3516TIP3   OH210553   2.259   4.289   3.934  0.8475  0.6484 -0.5392
 3516TIP3    H110554   2.226   4.379   3.938 -2.6881 -0.5270  0.6008
 3516TIP3    H210555   2.259   4.259   4.025  0.6674 -0.8876 -1.0144
 3517TIP3   OH210556   0.293   2.032   4.220 -0.7610  0.1854  0.1394
 3517TIP3    H110557   0.231   1.981   4.167  0.3974  0.5790 -1.7010
 3517TIP3    H210558   0.290   1.991   4.306 -1.5917 -1.5120 -0.6375
 3518TIP3   OH210559   1.511   0.597   4.764 -0.3397 -0.2484 -0.9421
 3518TIP3    H110560   1.583   0.556   4.812 -0.4828 -0.6854 -1.0924
 3518TIP3    H210561   1.433   0.548   4.791 -0.5770  0.1955 -0.8082
 3519TIP3   OH210562   3.332   2.498   3.789 -0.1737 -0.1039 -0.3739
 3519TIP3    H110563   3.319   2.420   3.843 -0.8005  1.3929  1.7494
 3519TIP3    H210564   3.322   2.571   3.849 -1.7393  1.7313 -2.6872
 3520TIP3   OH210565   4.414   3.929   3.305  0.1727  0.2248  0.1440
 3520TIP3    H110566   4.453   3.863   3.362 -2.2502 -2.2109 -0.8086
 3520TIP3    H210567   4.486   3.959   3.250  1.5500 -0.8969  1.2620
 3521TIP3   OH210568   5.153   2.349   3.420 -0.3630 -0.5098  0.3466
 3521TIP3    H110569   5.156   2.336   3.515  2.7758  1.3442  0.6536
 3521TIP3    H210570   5.167   2.443   3.409 -0.5328 -0.7074 -1.9689
 3522TIP3   OH210571   2.214   0.217   2.987  0.5610 -0.1666 -0.0964
 3522TIP3    H110572   2.164   0.232   2.907  2.4155 -0.5718 -1.4056
 3522TIP3    H210573   2.164   0.151   3.035 -2.1735  2.2163  0.6476
 3523TIP3   OH210574   1.514   2.289   2.597  0.4223  0.3916 -0.1996
 3523TIP3    H110575   1.433   2.241   2.579  1.7063 -2.6042  1.1903
 3523TIP3    H210576   1.581   2.238   2.551  1.9292  0.6274  1.6308
 3524TIP3   OH210577   4.954   5.218   2.518 -0.3794  0.1769  0.6353
 3524TIP3    H110578   4.932   5.125   2.530  1.8137 -0.3766  0.7524
 3524TIP3    H210579   5.027   5.233   2.577 -2.7646  2.9504  3.2096
 3525TIP3   OH210580   3.385   1.035   3.918 -0.2298 -0.2564 -0.5244
 3525TIP3    H110581   3.295   1.003   3.933 -0.0853 -0.6017 -0.3761
 3525TIP3    H210582   3.438   0.955   3.916  0.3132  0.0387  1.0429
 3526TIP3   OH210583   5.748   3.908   1.530  0.0185 -0.2288  0.0655
 3526TIP3    H110584   5.800   3.868   1.460 -0.7480  0.0382 -0.6695
 3526TIP3    H210585   5.768   3.855   1.607  0.3283 -0.9747 -0.5092
 3527TIP3   OH210586   2.004   2.464   0.807 -0.1266 -0.4373 -0.1704
 3527TIP3    H110587   2.013   2.398   0.738  0.0226  1.3295 -1.9475
 3527TIP3    H210588   1.940   2.526   0.772 -0.5561  0.1827  1.6144
 3528TIP3   OH210589   0.770   3.215   3.801 -0.0441 -0.0503 -0.2077
 3528TIP3    H110590   0.725   3.146   3.752 -0.1756  1.1822 -1.9047
 3528TIP3    H210591   0.857   3.220   3.762 -0.7571  2.2164 -1.7428
 3529TIP3   OH210592   1.709   4.826   4.575  0.5748 -0.2604  0.0049
 3529TIP3    H110593   1.795   4.802   4.610 -0.3432 -0.4680  2.3082
 3529TIP3    H210594   1.657   4.746   4.581 -0.2722  0.2950  0.3186
 3530TIP3   OH210595   5.370   0.919   4.146 -0.2028  0.5284  0.2888
 3530TIP3    H110596   5.410   0.841   4.108 -0.8140  0.3264  0.0511
 3530TIP3    H210597   5.354   0.977   4.072  3.4625  2.4520  0.7444
 3531TIP3   OH210598   6.037   4.437   3.314  1.1670 -0.6115 -0.8020
 3531TIP3    H110599   6.039   4.533   3.311 -0.8006 -0.5212 -0.4676
 3531TIP3    H210600   6.126   4.411   3.291  2.0694  1.3141  0.2242
 3532TIP3   OH210601   3.522   4.701   5.114 -0.0439  0.3004  0.3230
 3532TIP3    H110602   3.587   4.748   5.061 -0.1073  2.1365  1.7729
 3532TIP3    H210603   3.445   4.758   5.115  0.0002  0.4132  2.4438
 3533TIP3   OH210604   1.684   1.455   1.193  0.1367  0.0027  0.2092
 3533TIP3    H110605   1.771   1.448   1.232 -0.0865  1.7693  1.1390
 3533TIP3    H210606   1.681   1.386   1.127  2.6872  0.6640 -0.7002
 3534TIP3   OH210607   1.909   3.357   1.267  0.1659 -0.5997 -1.0354
 3534TIP3    H110608   1.952   3.279   1.303 -1.4706 -1.2729 -0.4739
 3534TIP3    H210609   1.963   3.380   1.191  1.5561 -1.3469 -0.3247
 3535TIP3   OH210610   0.117   2.342   1.168 -0.2852 -0.3820  0.1016
 3535TIP3    H110611   0.138   2.435   1.160  1.2869 -0.4411  2.5530
 3535TIP3    H210612   0.022   2.338   1.156 -0.2568  1.3519 -1.1172
 3536TIP3   OH210613   4.679   3.225   1.654  0.3498  0.7878  0.3105
 3536TIP3    H110614   4.764   3.259   1.682  1.0506  0.8851 -1.7748
 3536TIP3    H210615   4.636   3.300   1.612  0.2637  0.1387 -0.7973
 3537TIP3   OH210616   0.012   3.532   1.304 -0.2405 -0.0444 -0.6257
 3537TIP3    H110617  -0.032   3.497   1.226  0.0310 -1.4611 -0.1665
 3537TIP3    H210618   0.099   3.494   1.301 -0.4600 -0.7032  0.7377
 3538TIP3   OH210619   0.082   3.069   0.404  0.1982 -0.0953 -0.1064
 3538TIP3    H110620   0.124   3.114   0.331  0.7681  2.4412  1.6475
 3538TIP3    H210621  -0.000   3.116   0.418  0.5325  0.0952  1.4317
 3539TIP3   OH210622   3.303   5.434  -0.017 -0.0755 -0.3285  0.0837
 3539TIP3    H110623   3.315   5.423   0.077  0.6625  0.7827  0.1453
 3539TIP3    H210624   3.354   5.363  -0.056 -1.0713 -1.3080  0.5119
 3540TIP3   OH210625   4.873   3.251   0.202 -0.0624 -0.6454 -0.0742
 3540TIP3    H110626   4.878   3.160   0.172 -0.3162 -0.3728 -0.9631
 3540TIP3    H210627   4.922   3.251   0.285 -0.4790 -1.6873  0.1922
 3541TIP3   OH210628   3.384   1.312   5.171  0.0329 -0.4648  0.1138
 3541TIP3    H110629   3.337   1.310   5.255  0.8791 -1.0733  0.5852
 3541TIP3    H210630   3.405   1.404   5.158 -0.4132 -0.3166  0.3956
 3542TIP3   OH210631   5.523   2.472   3.031  1.0186  0.3623 -0.5018
 3542TIP3    H110632   5.530   2.475   3.126 -1.1761 -2.4473 -0.1072
 3542TIP3    H210633   5.475   2.551   3.007  0.5764  0.5198  0.8515
 3543TIP3   OH210634   1.448   3.559   0.281 -0.1103 -0.0285 -0.6087
 3543TIP3    H110635   1.403   3.596   0.205  0.5706  0.6350 -0.6955
 3543TIP3    H210636   1.541   3.571   0.262  0.2424 -3.0735 -1.2985
 3544TIP3   OH210637   3.924   3.933   4.723  0.3285 -0.3234 -0.0287
 3544TIP3    H110638   3.945   3.840   4.709  1.3058 -0.2416  0.7782
 3544TIP3    H210639   4.003   3.969   4.763 -0.4217  0.6260  0.6302
 3545TIP3   OH210640   2.357   5.880   0.278 -0.1261 -0.5950 -0.1045
 3545TIP3    H110641   2.331   5.869   0.369  0.5034 -0.4236  0.0995
 3545TIP3    H210642   2.370   5.974   0.268  1.1395 -0.7397  0.0109
 3546TIP3   OH210643   2.140   3.372   0.787 -0.4634 -0.2096 -0.2791
 3546TIP3    H110644   2.144   3.459   0.747 -0.5375 -0.2775 -0.4340
 3546TIP3    H210645   2.197   3.318   0.732  0.3526 -0.0376  0.3753
 3547TIP3   OH210646   0.196   5.408   0.028 -0.3106  0.9484  0.3859
 3547TIP3    H110647   0.137   5.333   0.035  0.6636  0.2782  1.8173
 3547TIP3    H210648   0.271   5.375  -0.023 -0.1972  1.1682  0.4085
 3548TIP3   OH210649   4.039   4.221   0.104  0.5934 -0.4210 -0.1239
 3548TIP3    H110650   4.084   4.298   0.140 -3.2868  1.8315  0.4271
 3548TIP3    H210651   4.042   4.234   0.009 -0.6555  0.9163 -0.0183
 3549TIP3   OH210652   5.930   3.928   4.360  0.0611  0.4603 -0.5916
 3549TIP3    H110653   5.978   3.933   4.277  0.2307  3.0894 -0.3993
 3549TIP3    H210654   5.994   3.954   4.426 -0.3223 -0.7926  0.3210
 3550TIP3   OH210655   0.205   2.013   1.426  0.2069 -0.3746  0.1730
 3550TIP3    H110656   0.244   1.976   1.505 -0.2836 -1.1129  0.0772
 3550TIP3    H210657   0.246   1.966   1.354 -0.4391 -0.7731  0.0533
 3551TIP3   OH210658   4.049   4.712   1.587 -1.0121 -0.4173  0.6199
 3551TIP3    H110659   4.134   4.681   1.557 -2.0938 -1.8971 -1.2087
 3551TIP3    H210660   4.037   4.672   1.673 -0.1211 -0.6828  0.6244
 3552TIP3   OH210661   0.951   2.341   4.681 -0.6877 -0.2330 -0.2310
 3552TIP3    H110662   0.866   2.326   4.721  0.2897 -1.0808  1.6377
 3552TIP3    H210663   0.977   2.429   4.711 -1.5715  0.7493 -2.1580
 3553TIP3   OH210664   4.919   3.025   4.102 -0.2874 -0.3206  0.3583
 3553TIP3    H110665   4.878   3.019   4.016  1.4306 -0.0384 -0.5416
 3553TIP3    H210666   4.957   2.938   4.117 -2.3235 -1.0326  1.8302
 3554TIP3   OH210667   5.769   1.726   4.768  0.2038  0.3095 -0.8302
 3554TIP3    H110668   5.785   1.642   4.726 -0.6656 -0.4056  0.2062
 3554TIP3    H210669   5.833   1.730   4.839 -1.5449 -0.8356  0.9282
 3555TIP3   OH210670   4.950   5.013   1.484  0.2178  0.4900 -0.0355
 3555TIP3    H110671   4.968   5.094   1.531 -0.0679 -0.1429  1.2098
 3555TIP3    H210672   4.975   5.031   1.393  0.8397  1.7245  0.3695
 3556TIP3   OH210673   2.623   4.177   2.075  0.6754  0.1154  0.4902
 3556TIP3    H110674   2.582   4.091   2.089  0.5874 -0.0339 -0.5665
 3556TIP3    H210675   2.709   4.169   2.116  0.8808 -0.6831 -0.0666
 3557TIP3   OH210676   5.952   4.251   3.984 -0.0701  0.1356  0.3541
 3557TIP3    H110677   5.883   4.237   3.919  0.2322 -0.7334  0.2040
 3557TIP3    H210678   5.967   4.164   4.022  3.1625 -0.4765 -1.8730
 3558TIP3   OH210679   3.401   0.576   4.008 -0.4944  0.2349  0.4251
 3558TIP3    H110680   3.403   0.487   4.043  1.4234  0.5045  1.1630
 3558TIP3    H210681   3.309   0.592   3.988 -0.8530 -2.0231 -0.0699
 3559TIP3   OH210682   5.510   0.782   3.281  0.4703 -0.1462  0.0167
 3559TIP3    H110683   5.526   0.701   3.329 -0.3764 -0.2107  0.2073
 3559TIP3    H210684   5.418   0.776   3.254  0.1100  1.1531  0.8479
 3560TIP3   OH210685   0.942   2.109   2.648 -0.0087  0.8726  0.4220
 3560TIP3    H110686   0.972   2.061   2.725 -0.9493  0.1755  0.3772
 3560TIP3    H210687   0.992   2.073   2.575 -1.7510 -1.1787  0.1501
 3561TIP3   OH210688   3.529   4.475   3.637  0.2035  0.6490  0.0894
 3561TIP3    H110689   3.445   4.429   3.643  0.4347  0.2366  0.2602
 3561TIP3    H210690   3.547   4.480   3.543 -0.5088  1.6706 -0.0041
 3562TIP3   OH210691   0.736   0.483   1.658  0.2582 -0.4709  0.1994
 3562TIP3    H110692   0.685   0.403   1.669 -0.0115 -0.0688  2.2378
 3562TIP3    H210693   0.685   0.535   1.595 -1.0931 -0.7072  1.0544
 3563TIP3   OH210694   2.857   5.566   1.856  0.1527  0.4320 -0.6468
 3563TIP3    H110695   2.868   5.632   1.787 -0.8870  1.3954  0.0962
 3563TIP3    H210696   2.862   5.483   1.809 -0.8097  1.0728 -1.9616
 3564TIP3   OH210697   1.509   2.254   1.044 -0.2746 -0.2566  0.5047
 3564TIP3    H110698   1.551   2.326   1.090 -0.9450  1.7719 -1.8355
 3564TIP3    H210699   1.502   2.284   0.953 -2.2236 -2.5294 -0.2089
 3565TIP3   OH210700   0.894   1.049   1.124  0.1712  0.4582  0.7252
 3565TIP3    H110701   0.924   1.139   1.139  0.5787  0.1037  2.2798
 3565TIP3    H210702   0.803   1.058   1.096  0.4150  1.3724  0.1879
 3566TIP3   OH210703   4.209   3.271   3.427  0.5228  0.2691 -0.2490
 3566TIP3    H110704   4.206   3.264   3.332 -2.5701 -1.4600 -0.1428
 3566TIP3    H210705   4.147   3.341   3.448  1.0228  0.4978  0.5038
 3567TIP3   OH210706   3.549   1.016   4.869 -0.1017 -0.0260  0.0279
 3567TIP3    H110707   3.525   0.971   4.950 -1.2500  0.1482 -0.2032
 3567TIP3    H210708   3.474   1.071   4.849  1.3187  2.1651  0.3883
 3568TIP3   OH210709   3.924   0.500   0.681 -0.2057 -0.1826  0.1062
 3568TIP3    H110710   3.954   0.585   0.715  0.4300 -0.8492  1.2781
 3568TIP3    H210711   3.919   0.513   0.586 -0.7672  1.3577  0.3100
 3569TIP3   OH210712   1.021   3.636   3.821 -0.3979  0.2040 -0.0100
 3569TIP3    H110713   1.082   3.698   3.861 -0.1819 -0.5312  0.8202
 3569TIP3    H210714   0.958   3.691   3.775  1.2674  0.9876 -1.4850
 3570TIP3   OH210715   3.954   1.145   1.401  0.1676 -0.1289  0.5056
 3570TIP3    H110716   3.976   1.203   1.328  0.6814 -0.2707  0.5457
 3570TIP3    H210717   4.015   1.072   1.394  0.3438 -0.0595  1.1814
 3571TIP3   OH210718   2.699   3.736   4.051 -0.1173 -0.0535 -0.3814
 3571TIP3    H110719   2.783   3.731   4.097 -0.5446  0.0104  0.4175
 3571TIP3    H210720   2.710   3.810   3.990  0.2095  0.3304  0.1343
 3572TIP3   OH210721   3.185   5.566   2.790  0.4926 -0.2416  0.0358
 3572TIP3    H110722   3.274   5.550   2.822  1.0799  0.3080 -1.2253
 3572TIP3    H210723   3.148   5.479   2.776  1.1152 -0.4826 -0.1499
 3573TIP3   OH210724   6.365   4.080   3.843  0.3687 -0.0249 -0.1217
 3573TIP3    H110725   6.362   4.086   3.748  1.9517 -0.6004 -0.2277
 3573TIP3    H210726   6.325   4.162   3.874 -1.3766 -0.4032 -1.2351
 3574TIP3   OH210727   0.326   4.596   1.362 -0.2447  0.1553 -0.4611
 3574TIP3    H110728   0.334   4.539   1.285  1.4958  0.5114 -0.6041
 3574TIP3    H210729   0.325   4.536   1.436 -1.6927 -0.1821 -0.7215
 3575TIP3   OH210730   0.373   3.904   1.633 -0.0055 -0.1664  0.7663
 3575TIP3    H110731   0.344   3.900   1.542  3.3556  2.4899 -0.6231
 3575TIP3    H210732   0.377   3.997   1.653  3.1988 -0.4680  2.1429
 3576TIP3   OH210733   0.280   3.336   4.458  0.6765  0.2227  0.4891
 3576TIP3    H110734   0.260   3.277   4.385 -1.2322  0.3197  0.8845
 3576TIP3    H210735   0.358   3.384   4.430  0.1739  0.0302 -1.3512
 3577TIP3   OH210736   4.280   3.398   1.810  0.2260 -0.2699  0.1752
 3577TIP3    H110737   4.355   3.451   1.837  0.0277  0.6425 -1.0081
 3577TIP3    H210738   4.204   3.446   1.842  0.0823 -0.4962  0.1787
 3578TIP3   OH210739   4.602   3.749   4.590 -0.0977 -0.0524  0.1046
 3578TIP3    H110740   4.529   3.736   4.529 -0.4270  0.7644  0.3011
 3578TIP3    H210741   4.562   3.742   4.677  0.0203  0.5684  0.2134
 3579TIP3   OH210742   3.524   3.797   0.527 -0.3515 -0.5514  0.0841
 3579TIP3    H110743   3.500   3.791   0.619  1.6088  1.5538  0.8160
 3579TIP3    H210744   3.531   3.706   0.498  1.8107 -1.3808  2.8131
 3580TIP3   OH210745   6.040   2.568   1.402 -0.0494  0.2527 -0.3067
 3580TIP3    H110746   6.077   2.648   1.364 -0.5863  1.0008  0.7045
 3580TIP3    H210747   6.072   2.498   1.345 -0.5121  1.2826 -1.9002
 3581TIP3   OH210748   2.443   5.414   1.167  0.4399  0.3375 -0.0466
 3581TIP3    H110749   2.479   5.330   1.197  3.1385  1.7263  0.9952
 3581TIP3    H210750   2.384   5.392   1.095  0.8001 -2.4450  0.4219
 3582TIP3   OH210751   2.914   0.476   0.869 -0.3923 -0.3758  0.5731
 3582TIP3    H110752   2.841   0.504   0.813  0.8702  0.5791 -0.6518
 3582TIP3    H210753   2.990   0.478   0.812  0.6989 -0.8330  1.9684
 3583TIP3   OH210754   2.750   4.921   3.497 -0.1395 -0.2883 -0.2725
 3583TIP3    H110755   2.756   4.827   3.481  0.7209 -0.6202  1.7581
 3583TIP3    H210756   2.731   4.959   3.411 -0.7141 -2.3190 -1.0839
 3584TIP3   OH210757   0.759   0.052   1.835 -0.3265 -0.2845  0.8798
 3584TIP3    H110758   0.718   0.139   1.834  0.4585  0.0950  0.0094
 3584TIP3    H210759   0.749   0.020   1.745 -0.6691 -1.1369  1.2086
 3585TIP3   OH210760   1.499   1.103   0.378 -0.2550  0.1342  0.5943
 3585TIP3    H110761   1.593   1.116   0.396 -0.1385  0.3013 -0.1138
 3585TIP3    H210762   1.497   1.031   0.315 -0.5294  0.8686 -0.2551
 3586TIP3   OH210763   1.419   5.090   4.527 -0.4249 -0.3412 -0.3951
 3586TIP3    H110764   1.420   4.996   4.544 -1.7580 -0.2515  0.2718
 3586TIP3    H210765   1.358   5.101   4.454 -0.4992  0.0332 -0.2804
 3587TIP3   OH210766   1.212   4.177   2.785  0.6601 -0.4346 -0.5431
 3587TIP3    H110767   1.159   4.148   2.711 -1.5673 -0.1597  0.8588
 3587TIP3    H210768   1.234   4.268   2.764 -1.6559  0.3170 -0.0686
 3588TIP3   OH210769   5.550   3.761   0.322  0.4273 -0.9532 -0.3001
 3588TIP3    H110770   5.603   3.684   0.340  1.4395  0.2889  2.8673
 3588TIP3    H210771   5.605   3.815   0.265  1.0208 -1.2939 -0.0661
 3589TIP3   OH210772   4.287   5.882   4.934 -0.2439  0.0387 -0.0063
 3589TIP3    H110773   4.199   5.849   4.919  0.0144 -0.6137 -0.1546
 3589TIP3    H210774   4.280   5.977   4.924 -0.6300 -0.1333 -1.5879
 3590TIP3   OH210775   6.155   0.273   1.694 -0.4381 -0.2595 -0.0756
 3590TIP3    H110776   6.227   0.312   1.743  0.4013 -0.5033 -1.0969
 3590TIP3    H210777   6.180   0.282   1.602 -0.7547 -2.1674 -0.3888
 3591TIP3   OH210778   2.629   1.301   0.733 -0.2089  0.0572 -0.0537
 3591TIP3    H110779   2.668   1.298   0.646  0.9325  0.7118  0.4183
 3591TIP3    H210780   2.539   1.329   0.718  0.5668  2.3260 -0.8790
 3592TIP3   OH210781   2.290   4.814   4.424  0.0768 -0.9748 -0.0001
 3592TIP3    H110782   2.228   4.789   4.491 -1.0071  1.6382  0.0975
 3592TIP3    H210783   2.292   4.910   4.428  1.5982 -0.8391 -2.2450
 3593TIP3   OH210784   2.501   3.312   1.465  0.1379 -0.0907 -0.2831
 3593TIP3    H110785   2.489   3.315   1.371  2.1896  0.7750 -0.5538
 3593TIP3    H210786   2.413   3.326   1.501 -0.5614  0.1963 -2.0349
 3594TIP3   OH210787   2.398   2.433   2.566  0.4225  0.2506 -0.1835
 3594TIP3    H110788   2.371   2.346   2.597  0.8142  0.2919  0.2720
 3594TIP3    H210789   2.489   2.423   2.540  0.2789  0.3686 -0.7501
 3595TIP3   OH210790   4.763   0.406   2.871  0.2498 -0.4262 -0.1581
 3595TIP3    H110791   4.781   0.313   2.864  0.9258 -0.5298  2.3001
 3595TIP3    H210792   4.849   0.448   2.871 -0.0386  0.2120 -0.8905
 3596TIP3   OH210793   0.223   2.848   1.822 -0.5361  0.0110 -0.1570
 3596TIP3    H110794   0.231   2.861   1.916 -0.3070  0.6092 -0.2528
 3596TIP3    H210795   0.311   2.865   1.788 -0.6216 -0.1799 -0.4802
 3597TIP3   OH210796   6.347   3.232   4.620  0.1789  0.2230  0.4092
 3597TIP3    H110797   6.259   3.217   4.586  0.0338  0.2010  0.7913
 3597TIP3    H210798   6.390   3.285   4.552 -0.8136  2.0635  1.1357
 3598TIP3   OH210799   4.030   1.846   2.655 -0.0023 -0.5945 -0.4321
 3598TIP3    H110800   4.106   1.788   2.658  0.3406 -0.1396 -0.2414
 3598TIP3    H210801   4.016   1.863   2.561 -0.9908 -2.1188 -0.6020
 3599TIP3   OH210802   4.823   5.374   0.567 -0.0695 -0.1715  0.0787
 3599TIP3    H110803   4.898   5.339   0.519 -0.5742 -0.7332 -0.3167
 3599TIP3    H210804   4.832   5.336   0.655 -0.6835 -1.4503 -0.3827
 3600TIP3   OH210805   5.741   1.153   5.201  0.1373 -0.4980  0.6440
 3600TIP3    H110806   5.800   1.208   5.150  1.0902 -0.3570  1.8633
 3600TIP3    H210807   5.674   1.126   5.138  1.6860 -0.9837 -0.8850
 3601TIP3   OH210808   5.736   3.742   3.199 -0.0356 -0.1993  0.0974
 3601TIP3    H110809   5.800   3.723   3.268  0.1761 -0.4081 -0.1519
 3601TIP3    H210810   5.788   3.774   3.125 -0.4909  3.0627  1.0314
 3602TIP3   OH210811   5.203   1.919   1.196 -0.0449 -0.2819 -0.0314
 3602TIP3    H110812   5.134   1.858   1.169 -1.7462  0.8691  1.4854
 3602TIP3    H210813   5.173   2.004   1.165  1.7777 -0.0100 -1.1798
 3603TIP3   OH210814   0.348   2.942   4.707 -0.6200 -0.4437  0.4402
 3603TIP3    H110815   0.262   2.943   4.664 -0.2224  2.0091 -0.4657
 3603TIP3    H210816   0.397   3.011   4.663  1.0173 -0.1679  2.5662
 3604TIP3   OH210817   4.706   0.279   4.279 -0.4910  0.1375 -0.2842
 3604TIP3    H110818   4.632   0.293   4.220  0.5513  0.6848 -1.5078
 3604TIP3    H210819   4.754   0.206   4.240  1.1367  1.5796 -1.1083
 3605TIP3   OH210820   5.917   2.649  -0.001 -0.3826 -0.0074 -0.3928
 3605TIP3    H110821   5.842   2.598  -0.032 -0.5175 -1.3634  1.8879
 3605TIP3    H210822   5.937   2.611   0.085  1.8778  1.4212 -0.2106
 3606TIP3   OH210823   3.379   3.668   1.958 -0.4632  0.5413 -0.9963
 3606TIP3    H110824   3.316   3.690   2.027  0.6971 -2.4640  1.2219
 3606TIP3    H210825   3.327   3.667   1.877 -2.5317  1.2625  0.2666
 3607TIP3   OH210826   2.430   4.584   4.486  0.3101 -1.0569 -0.7041
 3607TIP3    H110827   2.354   4.531   4.510 -1.0510  0.4086 -1.5506
 3607TIP3    H210828   2.392   4.667   4.457  2.3244  0.3170  0.3636
 3608TIP3   OH210829   2.702   5.778   2.414 -0.0932 -0.0997  0.0875
 3608TIP3    H110830   2.747   5.694   2.427  1.6356  0.2362 -2.7623
 3608TIP3    H210831   2.747   5.839   2.473 -0.5778 -0.8850  1.3076
 3609TIP3   OH210832   5.444   1.138   0.176 -0.2963  0.0740  0.1852
 3609TIP3    H110833   5.432   1.206   0.242  2.2976  0.1817  0.6748
 3609TIP3    H210834   5.533   1.106   0.191  0.1067 -0.4791 -2.7154
 3610TIP3   OH210835   2.287   2.784   2.898  0.0542  0.0162  0.1716
 3610TIP3    H110836   2.221   2.719   2.876  0.0409 -0.1285  0.6252
 3610TIP3    H210837   2.249   2.834   2.970 -0.0296  0.6736 -0.3216
 3611TIP3   OH210838   4.433   3.892   1.895  0.0554  0.4617 -0.2113
 3611TIP3    H110839   4.506   3.954   1.891  0.3281  0.0730 -2.0249
 3611TIP3    H210840   4.355   3.948   1.896  0.3386  0.8672  1.0389
 3612TIP3   OH210841   1.937   3.070   1.351 -0.0228 -0.4394 -0.4766
 3612TIP3    H110842   1.925   2.975   1.357 -1.4664 -0.3597 -1.4913
 3612TIP3    H210843   1.847   3.104   1.345  0.4008  1.1073  1.1870
 3613TIP3   OH210844   1.369   3.686   2.221 -0.0732  0.1933  0.5600
 3613TIP3    H110845   1.381   3.593   2.241  2.6481  0.8610  2.6410
 3613TIP3    H210846   1.435   3.705   2.154  1.1649  1.1012  1.9877
 3614TIP3   OH210847   0.900   0.622   3.411 -0.2058 -0.3970  0.2707
 3614TIP3    H110848   0.815   0.659   3.437 -0.6523  1.9713 -3.7511
 3614TIP3    H210849   0.882   0.573   3.331  2.1363 -0.3024 -0.3943
 3615TIP3   OH210850   1.060   1.273   1.124 -0.2857  0.3744 -0.3885
 3615TIP3    H110851   1.119   1.302   1.194 -0.1919 -0.3681 -0.1572
 3615TIP3    H210852   1.086   1.326   1.048 -0.4244  1.2270  0.1377
 3616TIP3   OH210853   3.673   5.779   0.788 -0.1795  0.4473 -0.5547
 3616TIP3    H110854   3.701   5.844   0.723 -1.8787  0.4612 -1.3510
 3616TIP3    H210855   3.610   5.724   0.740 -1.9422  0.8120  1.1971
 3617TIP3   OH210856   4.169   1.676   5.011  0.2433  0.1868 -0.3439
 3617TIP3    H110857   4.100   1.708   4.953 -1.1431  1.1803  1.7321
 3617TIP3    H210858   4.145   1.585   5.030 -1.7885  1.1243  2.0232
 3618TIP3   OH210859   3.705   0.456   4.545  0.1987  0.5606  0.2696
 3618TIP3    H110860   3.713   0.537   4.495 -1.4933 -0.1591 -1.2902
 3618TIP3    H210861   3.793   0.440   4.580  1.3450  1.3899 -2.0450
 3619TIP3   OH210862   1.828   0.894   3.035 -0.2214  0.2709  0.1506
 3619TIP3    H110863   1.873   0.918   3.116  0.2599 -0.4570  0.1023
 3619TIP3    H210864   1.888   0.919   2.965 -0.5962  0.8098  0.0120
 3620TIP3   OH210865   1.963   0.998   3.236  0.0816 -0.2649 -0.2939
 3620TIP3    H110866   1.975   1.078   3.288  1.1906  0.2170 -1.2515
 3620TIP3    H210867   2.009   0.931   3.285  1.5478  0.2917 -0.8502
 3621TIP3   OH210868   1.501   3.076   0.203 -0.3061  0.1960  0.2365
 3621TIP3    H110869   1.459   3.017   0.140  0.3889 -0.3597  0.2786
 3621TIP3    H210870   1.451   3.063   0.284  0.9958 -1.8537  0.8144
 3622TIP3   OH210871   5.551   4.914   3.879  1.1356 -0.0878 -0.7049
 3622TIP3    H110872   5.526   4.968   3.805 -0.7248  1.0154  0.6323
 3622TIP3    H210873   5.476   4.856   3.893  0.1805  1.6281  1.9494
 3623TIP3   OH210874   1.122   0.984   3.962  0.0130  0.0173  0.1935
 3623TIP3    H110875   1.178   0.961   3.888  0.4238  2.6451 -0.4112
 3623TIP3    H210876   1.039   0.939   3.945  0.7250 -0.9639 -0.8245
 3624TIP3   OH210877   1.860   2.188   3.667 -0.1566 -0.7253  0.7738
 3624TIP3    H110878   1.926   2.200   3.599  0.2582  0.8052  1.4115
 3624TIP3    H210879   1.778   2.176   3.620  0.6213 -3.6685 -0.0765
 3625TIP3   OH210880   0.720   0.551   2.973  0.1326  0.3454  0.2479
 3625TIP3    H110881   0.733   0.500   3.053 -0.0930 -1.5670 -0.8721
 3625TIP3    H210882   0.809   0.571   2.944  0.3599 -1.7627 -0.6858
 3626TIP3   OH210883   6.188   0.727   0.035 -0.1957 -0.0173 -0.2475
 3626TIP3    H110884   6.229   0.685   0.111 -0.9655 -0.1951  0.0836
 3626TIP3    H210885   6.261   0.768  -0.012  0.2642  0.3547  0.7540
 3627TIP3   OH210886   4.088   1.638   3.887  0.1352  0.7036 -0.0703
 3627TIP3    H110887   4.135   1.589   3.954  0.3723 -0.3967 -1.0200
 3627TIP3    H210888   4.126   1.726   3.890 -1.2207  1.3088  2.5917
 3628TIP3   OH210889   4.252   5.816   3.099  0.0731 -0.3172 -0.2231
 3628TIP3    H110890   4.333   5.866   3.110  1.0157 -1.8928  0.1785
 3628TIP3    H210891   4.194   5.849   3.167  0.9543 -0.2951  0.5279
 3629TIP3   OH210892   0.569   3.523   5.071 -0.4246 -0.2319 -0.1220
 3629TIP3    H110893   0.519   3.441   5.065 -0.0633 -0.5942  1.3891
 3629TIP3    H210894   0.649   3.506   5.021 -0.2752 -0.8872  0.3194
 3630TIP3   OH210895   1.896   5.618   3.178 -0.1187 -0.0703 -0.1079
 3630TIP3    H110896   1.957   5.580   3.115 -1.1869 -1.0807 -0.5933
 3630TIP3    H210897   1.908   5.565   3.258  0.1228  0.1839  0.0258
 3631TIP3   OH210898   1.759   2.477   4.519 -0.2757 -0.1028  0.3138
 3631TIP3    H110899   1.799   2.516   4.597  1.6416  0.0900 -0.7010
 3631TIP3    H210900   1.678   2.438   4.550  0.1748  0.4454  2.2942
 3632TIP3   OH210901   3.220   1.851   4.637  0.7532  0.3623 -0.8613
 3632TIP3    H110902   3.304   1.811   4.660  0.5171 -0.5900 -1.6117
 3632TIP3    H210903   3.182   1.792   4.573 -0.0774  1.2740 -1.2295
 3633TIP3   OH210904   4.978   1.938   3.658 -0.5497 -0.0811  0.0019
 3633TIP3    H110905   4.992   1.883   3.580 -3.9156  1.0098 -1.5923
 3633TIP3    H210906   4.933   1.880   3.720  1.1910 -0.6531  0.7957
 3634TIP3   OH210907   5.450   2.070   4.196  0.0667 -0.5126 -0.3029
 3634TIP3    H110908   5.356   2.078   4.210 -0.1552  2.0423 -2.5715
 3634TIP3    H210909   5.459   2.000   4.132 -0.2989 -0.5348 -0.3307
 3635TIP3   OH210910   0.608   3.182   3.059 -0.3643  0.0975 -0.3814
 3635TIP3    H110911   0.679   3.245   3.044 -1.1105  1.0702  0.1202
 3635TIP3    H210912   0.615   3.159   3.151 -0.3643 -0.2454 -0.4639
 3636TIP3   OH210913   0.438   3.096   4.249 -0.1561  0.5472  0.1266
 3636TIP3    H110914   0.366   3.145   4.209 -1.1287 -0.2366  0.8433
 3636TIP3    H210915   0.405   3.006   4.256  1.2826 -0.0496 -0.4258
 3637TIP3   OH210916   5.417   0.409   1.113  0.0044 -0.1602  0.1606
 3637TIP3    H110917   5.362   0.443   1.184 -0.0468  0.5303 -0.1962
 3637TIP3    H210918   5.457   0.330   1.149 -0.8253 -0.3868  0.5980
 3638TIP3   OH210919   5.180   4.622   4.312  0.0787 -0.7475 -0.3610
 3638TIP3    H110920   5.121   4.637   4.238 -0.5648 -0.8424  0.1232
 3638TIP3    H210921   5.127   4.573   4.375  1.1729 -2.3490 -0.6139
 3639TIP3   OH210922   0.814   4.825   2.645  0.0463  0.3229 -0.3838
 3639TIP3    H110923   0.777   4.749   2.690  3.0104 -0.2009  1.4166
 3639TIP3    H210924   0.820   4.798   2.553  1.2114 -1.7798  0.2405
 3640TIP3   OH210925   5.245   1.921   4.810  0.1232 -0.5759  0.4096
 3640TIP3    H110926   5.317   1.864   4.785  1.7333  0.7996  1.6446
 3640TIP3    H210927   5.220   1.965   4.729  1.0897 -0.6409  0.0607
 3641TIP3   OH210928   5.874   3.489   1.562 -0.1571  0.3394  0.7395
 3641TIP3    H110929   5.935   3.475   1.489 -0.9552 -3.8935  0.6422
 3641TIP3    H210930   5.792   3.514   1.520  0.8040  4.3514  0.7859
 3642TIP3   OH210931   3.117   4.599   2.533  0.0795  0.3587 -0.1586
 3642TIP3    H110932   3.111   4.537   2.461 -0.4510 -1.2401  1.1913
 3642TIP3    H210933   3.211   4.614   2.544  0.1981 -0.0049 -0.6527
 3643TIP3   OH210934   0.994   3.606   0.595 -0.2553 -0.5536  0.0565
 3643TIP3    H110935   1.048   3.528   0.599 -1.3983 -1.5026 -1.8554
 3643TIP3    H210936   1.042   3.666   0.538 -0.2445 -0.5766  0.0413
 3644TIP3   OH210937   4.390   5.645   4.493  0.2082  0.2746  0.2940
 3644TIP3    H110938   4.371   5.568   4.439 -2.3784  1.9797 -1.4240
 3644TIP3    H210939   4.334   5.714   4.458  3.7048  3.5777  0.4967
 3645TIP3   OH210940   0.736   4.582   2.763  0.0313  0.1778 -0.2212
 3645TIP3    H110941   0.780   4.603   2.845 -0.4756  0.4378 -0.0125
 3645TIP3    H210942   0.762   4.493   2.743 -0.8703 -0.3562  0.8950
 3646TIP3   OH210943   3.706   2.226   4.090 -0.0705  0.4701 -1.0054
 3646TIP3    H110944   3.622   2.207   4.049  0.7604 -1.3968 -1.9539
 3646TIP3    H210945   3.708   2.170   4.168 -0.4104  1.8502  0.0505
 3647TIP3   OH210946   5.766   4.047   2.136 -0.4533 -0.1989  0.0898
 3647TIP3    H110947   5.806   4.098   2.065 -1.0264  0.5608  0.3018
 3647TIP3    H210948   5.673   4.047   2.117 -0.8794  1.6379  1.8123
 3648TIP3   OH210949   0.264   5.462   1.577  0.3564  0.4465  0.5822
 3648TIP3    H110950   0.243   5.369   1.569 -1.2368  0.9301 -3.2206
 3648TIP3    H210951   0.200   5.496   1.640  0.6260 -0.8986  1.6103
 3649TIP3   OH210952   0.042   2.237   2.000 -0.2009  0.3925  0.3783
 3649TIP3    H110953   0.051   2.330   1.980  1.5535 -0.1693 -1.8117
 3649TIP3    H210954   0.080   2.228   2.088  1.5439  1.4662 -0.2097
 3650TIP3   OH210955   6.109   0.132   1.982 -0.1138  0.4279  0.2990
 3650TIP3    H110956   6.165   0.055   1.986  0.5978  0.7211 -2.1208
 3650TIP3    H210957   6.163   0.198   1.937 -1.5206  1.5537  0.1863
 3651TIP3   OH210958   2.610   3.866   0.462 -0.5182  0.0678  0.3172
 3651TIP3    H110959   2.552   3.790   0.454  0.1810 -0.2741 -1.9775
 3651TIP3    H210960   2.572   3.932   0.404  0.4283  0.4499  0.1141
 3652TIP3   OH210961   3.457   5.524   3.522  0.0258  0.2079  0.2578
 3652TIP3    H110962   3.430   5.533   3.613 -0.5464 -0.7615  0.1914
 3652TIP3    H210963   3.376   5.513   3.474  0.3031  0.9691 -0.4182
 3653TIP3   OH210964   4.451   5.484   2.890  0.0065 -0.2122  0.5129
 3653TIP3    H110965   4.426   5.528   2.971 -1.9055  0.6713 -0.4917
 3653TIP3    H210966   4.385   5.415   2.878  0.0068 -0.0554 -0.4955
 3654TIP3   OH210967   1.153   5.322   2.043  0.1785  0.1283  0.4903
 3654TIP3    H110968   1.097   5.399   2.042  0.9138  0.7175  1.6215
 3654TIP3    H210969   1.241   5.357   2.058  0.5255 -0.9275  1.0156
 3655TIP3   OH210970   1.612   4.946   2.881  0.1549  0.4656  0.5901
 3655TIP3    H110971   1.554   4.953   2.956 -1.0994  0.1661 -0.3293
 3655TIP3    H210972   1.554   4.938   2.806  1.3478  2.0496 -0.5731
 3656TIP3   OH210973   2.801   5.278   4.580 -0.6026 -0.0695 -0.4550
 3656TIP3    H110974   2.843   5.219   4.517  1.3706  0.3069  0.4511
 3656TIP3    H210975   2.871   5.336   4.610 -1.9592  1.1380  0.5193
 3657TIP3   OH210976   0.105   2.627   3.514 -0.2520  0.0560  0.0608
 3657TIP3    H110977   0.139   2.716   3.508 -0.3103  0.1387  0.8086
 3657TIP3    H210978   0.043   2.619   3.441  2.1360 -0.4615 -2.0164
 3658TIP3   OH210979   4.368   3.520   4.643  0.6392  0.5366 -0.4115
 3658TIP3    H110980   4.326   3.573   4.575  0.1416  0.1214 -0.4345
 3658TIP3    H210981   4.374   3.577   4.719  1.3979  1.0827 -0.8547
 3659TIP3   OH210982   3.676   2.538   1.552  0.3519 -0.7685 -0.0967
 3659TIP3    H110983   3.643   2.503   1.470  0.6429 -3.8457  0.9754
 3659TIP3    H210984   3.600   2.545   1.608  0.5611 -1.5517  0.2954
 3660TIP3   OH210985   0.618   2.267   0.843  0.1424 -0.6870  0.5816
 3660TIP3    H110986   0.566   2.201   0.796 -0.3250  0.7123 -0.9677
 3660TIP3    H210987   0.579   2.350   0.817  2.4765  0.3627  0.2175
 3661TIP3   OH210988   4.088   0.450   4.897 -0.1763 -0.3394  0.0649
 3661TIP3    H110989   4.117   0.366   4.933 -2.3924 -1.0827  0.2628
 3661TIP3    H210990   4.088   0.510   4.972 -0.5342 -0.7156  0.3722
 3662TIP3   OH210991   2.142   4.291   1.818  0.3265  0.6063  0.6495
 3662TIP3    H110992   2.227   4.335   1.809  0.6330 -0.0019  0.4547
 3662TIP3    H210993   2.154   4.208   1.772 -0.8212  1.0921 -0.5978
 3663TIP3   OH210994   5.302   5.024   3.300 -0.0730 -0.3502  0.2565
 3663TIP3    H110995   5.316   5.098   3.359  0.3793  0.1343 -0.4555
 3663TIP3    H210996   5.233   5.052   3.241 -0.2512 -0.6891  0.2997
 3664TIP3   OH210997   1.005   2.503   3.659 -0.0257  0.4421 -0.0876
 3664TIP3    H110998   1.093   2.524   3.626 -0.2328 -0.2214 -1.1105
 3664TIP3    H210999   0.974   2.585   3.696  0.4996  1.0521 -0.9470
 3665TIP3   OH211000   1.244   4.497   1.822 -0.1797  0.4054  0.2764
 3665TIP3    H111001   1.233   4.426   1.760  0.0920  1.7315 -1.3514
 3665TIP3    H211002   1.320   4.472   1.874 -1.1009 -1.2613  0.8969
 3666TIP3   OH211003   4.869   5.511   0.895  0.1038 -0.0879  0.0484
 3666TIP3    H111004   4.948   5.560   0.872 -0.3843 -0.0041 -1.5700
 3666TIP3    H211005   4.805   5.538   0.829 -0.8589 -1.1945  0.5154
 3667TIP3   OH211006   5.768   0.463   3.407  0.3577  0.3073 -0.1955
 3667TIP3    H111007   5.676   0.444   3.387  0.9286 -1.7193 -1.2334
 3667TIP3    H211008   5.800   0.382   3.447  1.6509  1.0683  0.3366
 3668TIP3   OH211009   3.777   1.572   3.468  0.4353  0.2128 -0.3611
 3668TIP3    H111010   3.811   1.580   3.557 -0.8419 -0.5035  0.2406
 3668TIP3    H211011   3.707   1.506   3.476 -0.0845  0.5535 -1.7801
 3669TIP3   OH211012   2.404   4.333   2.748  0.2839  0.1614 -0.1278
 3669TIP3    H111013   2.402   4.301   2.838  0.6262  1.2899  0.3047
 3669TIP3    H211014   2.372   4.260   2.696 -2.5961  0.3662  1.1681
 3670TIP3   OH211015   1.606   0.097   2.784  0.1714  0.1468  0.7213
 3670TIP3    H111016   1.683   0.041   2.791  0.8446  0.9436  0.0147
 3670TIP3    H211017   1.625   0.155   2.710 -1.3415  0.0227  0.1918
 3671TIP3   OH211018   5.039   5.280   0.403 -0.2457 -0.1600 -0.4119
 3671TIP3    H111019   5.115   5.319   0.446 -0.6123 -0.6723  0.7393
 3671TIP3    H211020   5.059   5.187   0.398  0.5726  0.0953 -3.0422
 3672TIP3   OH211021   3.202   0.126   2.148  0.0498 -0.0936 -0.0448
 3672TIP3    H111022   3.208   0.218   2.174  1.0851  0.3383 -1.6624
 3672TIP3    H211023   3.265   0.117   2.075 -0.9680 -1.7656 -0.7826
 3673TIP3   OH211024   5.467   3.409   2.193 -0.2456  0.0067  0.4321
 3673TIP3    H111025   5.545   3.363   2.223 -0.4858  0.6204  2.1574
 3673TIP3    H211026   5.422   3.435   2.274 -1.0523  1.6426 -0.4867
 3674TIP3   OH211027   4.429   0.919   4.314  0.2929 -0.1986  0.5292
 3674TIP3    H111028   4.407   1.012   4.326  0.8334  0.0265 -0.1565
 3674TIP3    H211029   4.471   0.894   4.396  2.2800  0.8144 -0.1186
 3675TIP3   OH211030   5.582   5.774   5.139 -0.4315  0.2702 -0.6390
 3675TIP3    H111031   5.591   5.832   5.063  2.0699 -0.5250 -1.0470
 3675TIP3    H211032   5.624   5.822   5.210 -0.1780 -0.1681 -0.4876
 3676TIP3   OH211033   5.764   5.471   3.362  0.6153 -0.4023 -0.3185
 3676TIP3    H111034   5.828   5.400   3.375  1.3310  0.4167  0.8707
 3676TIP3    H211035   5.720   5.478   3.446 -1.6367 -1.4534 -1.3419
 3677TIP3   OH211036   0.566   0.540   1.915  0.2825  0.2388 -0.1165
 3677TIP3    H111037   0.484   0.491   1.925  1.5093 -2.0344 -0.7791
 3677TIP3    H211038   0.597   0.518   1.827  1.9725  0.4952  0.3857
 3678TIP3   OH211039   2.678   5.299   1.498 -0.0957 -0.4741  0.2375
 3678TIP3    H111040   2.612   5.257   1.444  0.4709 -1.1629  0.0554
 3678TIP3    H211041   2.668   5.258   1.584  0.9712 -1.5988 -0.1394
 3679TIP3   OH211042   3.363   5.028   4.769 -0.1463 -0.5550  0.0072
 3679TIP3    H111043   3.442   5.063   4.811 -0.9999  1.5286 -0.0478
 3679TIP3    H211044   3.387   4.938   4.746  2.1245 -0.0591  0.1967
 3680TIP3   OH211045   0.532   5.016   1.117 -0.1511 -0.1850 -0.8098
 3680TIP3    H111046   0.521   5.056   1.203 -1.8655 -2.9246  0.3682
 3680TIP3    H211047   0.620   5.042   1.090  0.6690  0.3058  2.0157
 3681TIP3   OH211048   1.704   2.721   3.177  0.2114 -0.1371 -0.2734
 3681TIP3    H111049   1.722   2.687   3.090 -2.1330  0.3440 -1.0159
 3681TIP3    H211050   1.669   2.646   3.225 -2.1313  0.4115 -0.9951
 3682TIP3   OH211051   4.995   3.730   0.125  0.2064  0.9375 -0.1200
 3682TIP3    H111052   4.940   3.808   0.136 -0.7670  0.3129 -0.4336
 3682TIP3    H211053   5.079   3.764   0.094  0.2573  1.9764  1.0833
 3683TIP3   OH211054   0.981   4.899   3.823  0.5118  0.0014  0.7516
 3683TIP3    H111055   0.951   4.942   3.903  0.4194 -1.2779  1.4316
 3683TIP3    H211056   1.061   4.852   3.849  0.8171  0.0533 -0.0519
 3684TIP3   OH211057   2.944   4.081   2.763 -0.2242 -0.3401  0.5883
 3684TIP3    H111058   3.018   4.044   2.715 -0.2330 -0.1408  0.4204
 3684TIP3    H211059   2.886   4.007   2.778 -1.2179 -0.0587 -1.5339
 3685TIP3   OH211060   2.571   4.473   1.206  0.1748  0.1295  0.1034
 3685TIP3    H111061   2.643   4.435   1.257  2.0505 -2.0118 -3.7221
 3685TIP3    H211062   2.492   4.439   1.248  1.5149 -0.5181  2.2451
 3686TIP3   OH211063   4.377   0.897   3.944 -0.2420  0.1314  0.3928
 3686TIP3    H111064   4.382   0.863   4.033  0.4141  0.6710  0.5696
 3686TIP3    H211065   4.405   0.988   3.951 -0.3610  0.2341 -0.3371
 3687TIP3   OH211066   4.653   2.814   4.544  0.5483  0.4981  0.2441
 3687TIP3    H111067   4.655   2.876   4.471  1.0705  0.1668 -0.0332
 3687TIP3    H211068   4.615   2.863   4.616  0.8357  1.1065 -0.0075
 3688TIP3   OH211069   6.037   1.115   1.986 -0.0950 -0.0835  0.0428
 3688TIP3    H111070   6.055   1.146   2.075  0.3847 -1.1564  0.3414
 3688TIP3    H211071   5.968   1.050   1.997 -0.7802  0.5269 -0.5167
 3689TIP3   OH211072   4.620   2.300   5.014  0.2307  0.7640  0.4307
 3689TIP3    H111073   4.683   2.287   5.085  2.3082  1.7862 -1.1492
 3689TIP3    H211074   4.665   2.267   4.936 -1.1078  1.7374 -0.7926
 3690TIP3   OH211075   5.028   2.658   0.721  0.0180 -0.1854  0.9754
 3690TIP3    H111076   4.959   2.616   0.772  0.1533 -1.9172 -0.1979
 3690TIP3    H211077   5.004   2.643   0.630  0.0910  2.3498  0.4797
 3691TIP3   OH211078   4.038   2.732   0.950 -0.0840 -0.0223 -0.4428
 3691TIP3    H111079   3.989   2.800   0.995  1.7167  0.0576  1.5976
 3691TIP3    H211080   4.095   2.779   0.889 -0.4474  0.1192 -0.6711
 3692TIP3   OH211081   2.229   4.250  -0.014 -0.4325  0.3833  0.0539
 3692TIP3    H111082   2.243   4.212   0.073  0.2825 -1.6524 -0.9158
 3692TIP3    H211083   2.143   4.217  -0.041 -0.5068  0.7549 -0.1733
 3693TIP3   OH211084   1.712   1.767   0.722 -0.2426 -0.2687 -0.2003
 3693TIP3    H111085   1.721   1.697   0.787  0.9447 -1.4364 -1.5111
 3693TIP3    H211086   1.788   1.823   0.737  0.4900 -0.9941 -1.0282
 3694TIP3   OH211087   1.393   4.504   0.462 -0.2656 -0.0012 -0.0453
 3694TIP3    H111088   1.428   4.425   0.420 -1.1788 -0.6991  0.4684
 3694TIP3    H211089   1.299   4.487   0.470 -0.3733  0.8818  0.6349
 3695TIP3   OH211090   1.869   3.890   4.213 -0.0306 -0.0533  0.8800
 3695TIP3    H111091   1.919   3.972   4.214  2.7703 -1.4281 -3.1566
 3695TIP3    H211092   1.898   3.843   4.291 -0.1433  1.8433  2.1395
 3696TIP3   OH211093   1.307   0.475   3.635 -0.4508 -0.3181 -0.0541
 3696TIP3    H111094   1.340   0.554   3.677 -0.4551  0.3722 -1.2796
 3696TIP3    H211095   1.218   0.497   3.609 -0.5017 -0.7770 -0.2842
 3697TIP3   OH211096   1.594   2.630   0.431  0.6283  0.0276 -0.0151
 3697TIP3    H111097   1.559   2.566   0.369 -0.1341  0.9974 -0.6111
 3697TIP3    H211098   1.657   2.580   0.483  0.3507 -1.1104 -0.7219
 3698TIP3   OH211099   1.690   1.316   0.953  0.0215 -0.0539 -0.3880
 3698TIP3    H111100   1.599   1.335   0.931 -0.6225 -1.2257  1.0766
 3698TIP3    H211101   1.689   1.225   0.982  1.5125  0.1536  0.4371
 3699TIP3   OH211102   2.151   1.529   2.595 -0.3318 -0.0438  0.5252
 3699TIP3    H111103   2.139   1.489   2.681 -0.1254 -0.4116  0.3852
 3699TIP3    H211104   2.065   1.525   2.554 -0.1139 -1.1873  0.1552
 3700TIP3   OH211105   5.085   0.757   2.198  0.2068  0.3926 -0.0511
 3700TIP3    H111106   5.100   0.735   2.290 -0.9771  0.4842  0.1868
 3700TIP3    H211107   5.172   0.772   2.162  0.6358  1.2056  1.2641
 3701TIP3   OH211108   4.260   0.442   2.182 -0.0656 -0.0202 -0.0530
 3701TIP3    H111109   4.257   0.444   2.278 -0.1624 -3.1291  0.1062
 3701TIP3    H211110   4.180   0.487   2.154 -2.3688 -2.8019  1.5345
 3702TIP3   OH211111   4.082   0.995   0.913 -0.1787 -0.3206  0.0324
 3702TIP3    H111112   4.023   1.048   0.860  1.4487  0.6022 -0.9394
 3702TIP3    H211113   4.043   0.996   1.000 -0.5726  1.8956 -0.1118
 3703TIP3   OH211114   6.099   4.372   1.875  0.6038 -0.1435 -0.6733
 3703TIP3    H111115   6.059   4.456   1.899 -0.8827 -1.0584  0.2115
 3703TIP3    H211116   6.192   4.383   1.896  0.5157  1.3885 -0.9273
 3704TIP3   OH211117   2.649   5.558   1.508 -0.4482  0.6576 -0.4585
 3704TIP3    H111118   2.659   5.463   1.513 -0.4617  0.5721 -1.7616
 3704TIP3    H211119   2.662   5.579   1.416 -1.8720  1.7531 -0.4479
 3705TIP3   OH211120   0.354   5.925   0.563 -0.4341 -0.2914 -0.2417
 3705TIP3    H111121   0.326   5.847   0.514 -0.7182 -1.1082  1.1534
 3705TIP3    H211122   0.307   5.918   0.647  1.2639  0.1734  0.7955
 3706TIP3   OH211123   1.890   3.178   2.334 -0.2467 -0.0104  0.1168
 3706TIP3    H111124   1.893   3.089   2.368  0.1154 -0.3833 -0.8536
 3706TIP3    H211125   1.813   3.180   2.278 -1.7922  1.0695  2.1225
 3707TIP3   OH211126   1.273   4.257   1.647  0.3982  0.1502 -0.3495
 3707TIP3    H111127   1.324   4.217   1.718  1.0462  0.3209 -0.7127
 3707TIP3    H211128   1.229   4.183   1.605  0.3066  0.0044  0.0006
 3708TIP3   OH211129   1.476   3.632   4.378  0.1062  0.1249 -0.5205
 3708TIP3    H111130   1.547   3.587   4.332  1.3173  0.4076  0.9759
 3708TIP3    H211131   1.521   3.688   4.441 -1.4670 -0.4791  1.2122
 3709TIP3   OH211132   5.534   0.533   2.806 -0.5804 -0.2294  0.0293
 3709TIP3    H111133   5.541   0.447   2.764 -1.7309 -0.2254 -0.2190
 3709TIP3    H211134   5.617   0.577   2.786  0.2257 -1.4497  0.5690
 3710TIP3   OH211135   4.207   2.220   3.636 -0.5448  0.4608  0.2082
 3710TIP3    H111136   4.166   2.285   3.580  1.4216 -0.5141 -2.6119
 3710TIP3    H211137   4.249   2.271   3.706 -0.7921  2.0037 -0.7293
 3711TIP3   OH211138   1.571   1.729   4.912  0.4274 -0.6401 -0.0413
 3711TIP3    H111139   1.539   1.798   4.853 -0.7725 -1.4115 -0.3118
 3711TIP3    H211140   1.651   1.698   4.871  1.3085  0.9408  0.3599
 3712TIP3   OH211141   5.241   1.156   2.327 -0.1065 -0.0137  0.3600
 3712TIP3    H111142   5.240   1.248   2.302 -1.4845 -0.7806 -2.9565
 3712TIP3    H211143   5.161   1.144   2.379 -0.2192  0.5212  0.3146
 3713TIP3   OH211144   0.926   2.774   4.317 -0.4886 -0.0391 -0.5440
 3713TIP3    H111145   0.914   2.866   4.343  0.9729  0.3668 -1.1917
 3713TIP3    H211146   0.929   2.777   4.221  0.4932 -0.6244 -0.5422
 3714TIP3   OH211147   2.011   5.268   4.415  0.1484  0.2907  0.0581
 3714TIP3    H111148   1.955   5.272   4.338 -1.7703  0.7790  1.4067
 3714TIP3    H211149   2.061   5.349   4.414  1.3479 -0.4197 -1.4826
 3715TIP3   OH211150   2.129   3.899   2.036 -0.1808 -0.0028 -0.6357
 3715TIP3    H111151   2.215   3.915   1.996  0.6350 -0.7902  0.7351
 3715TIP3    H211152   2.107   3.810   2.008  0.2690 -0.4545  0.3724
 3716TIP3   OH211153   0.620   4.537   4.845 -0.0953 -0.1361  0.3244
 3716TIP3    H111154   0.667   4.619   4.862 -2.2616  1.3987 -0.6123
 3716TIP3    H211155   0.662   4.501   4.767  1.3006 -0.3029  1.1271
 3717TIP3   OH211156   4.847   0.203   1.996 -0.0033 -0.9053 -0.1698
 3717TIP3    H111157   4.754   0.205   1.976  0.1523  0.7345 -0.8867
 3717TIP3    H211158   4.881   0.130   1.943 -0.5186 -0.0573 -1.7406
 3718TIP3   OH211159   4.944   5.939   0.791  0.1170 -0.4980 -0.2393
 3718TIP3    H111160   4.956   6.024   0.750 -0.4358 -0.9114 -1.3016
 3718TIP3    H211161   5.032   5.906   0.805  0.3287  0.1344 -0.0482
 3719TIP3   OH211162   4.049   4.814   3.746  0.4515  0.6785  0.1573
 3719TIP3    H111163   4.058   4.790   3.838 -0.6295  0.9624  0.3435
 3719TIP3    H211164   3.986   4.885   3.745 -0.8275 -0.4122 -0.9488
 3720TIP3   OH211165   0.292   0.884   2.088 -0.4817  0.0664  0.2976
 3720TIP3    H111166   0.201   0.900   2.111 -0.9899 -1.1069 -0.7803
 3720TIP3    H211167   0.336   0.968   2.103 -2.1640  1.2961 -1.1612
 3721TIP3   OH211168   5.407   2.312   1.879  0.3662  0.0952 -0.5576
 3721TIP3    H111169   5.503   2.312   1.872  0.4496 -1.8370  0.0900
 3721TIP3    H211170   5.377   2.300   1.789  0.7646 -0.4687 -0.6195
 3722TIP3   OH211171   1.528   2.348   3.269  0.2735  0.2499 -0.2620
 3722TIP3    H111172   1.545   2.422   3.326 -1.0889 -1.1606  2.1375
 3722TIP3    H211173   1.447   2.371   3.223  0.6966  0.8782 -0.6979
 3723TIP3   OH211174   5.936   1.682   2.163 -0.0902 -0.1501 -0.2135
 3723TIP3    H111175   5.974   1.619   2.102 -0.4690  2.1239 -2.9822
 3723TIP3    H211176   6.003   1.750   2.172 -0.3326 -0.0881  1.4080
 3724TIP3   OH211177   4.673   4.661   1.202  0.0286  0.1005 -0.1562
 3724TIP3    H111178   4.635   4.661   1.114  0.7008  0.4547 -0.4567
 3724TIP3    H211179   4.645   4.578   1.240 -1.2221  0.4578 -0.2727
 3725TIP3   OH211180   0.891   2.532   2.512 -0.0416 -0.4708  0.2944
 3725TIP3    H111181   0.914   2.536   2.419  0.1786 -0.9212  0.3248
 3725TIP3    H211182   0.962   2.579   2.555 -0.6024  0.5021  0.1643
 3726TIP3   OH211183   3.619   1.829   1.316  0.1146  0.1427 -0.2126
 3726TIP3    H111184   3.602   1.759   1.252  1.6904 -0.0948 -0.4019
 3726TIP3    H211185   3.710   1.816   1.343  0.3912  2.0185 -0.1118
 3727TIP3   OH211186   4.987   3.689   3.662 -0.1107  0.4253  0.4060
 3727TIP3    H111187   4.966   3.724   3.749 -0.7823 -2.7770  1.6587
 3727TIP3    H211188   5.070   3.643   3.674 -0.0636  0.1894 -0.7330
 3728TIP3   OH211189   5.896   0.876   3.688 -0.4156 -0.3891 -0.0959
 3728TIP3    H111190   5.821   0.935   3.684  0.2833  0.4433 -1.9759
 3728TIP3    H211191   5.867   0.796   3.645 -0.6703 -0.6215  0.4960
 3729TIP3   OH211192   1.860   5.417   1.517 -0.3220 -0.0440 -0.5647
 3729TIP3    H111193   1.921   5.486   1.493 -0.5575 -0.0254 -1.1241
 3729TIP3    H211194   1.916   5.341   1.536  0.0824  0.7630  1.8761
 3730TIP3   OH211195   5.950   1.969   1.778  0.6453 -0.3482 -0.0271
 3730TIP3    H111196   5.910   2.007   1.856  2.1117  0.3883  0.3951
 3730TIP3    H211197   6.030   1.927   1.809  0.2500 -1.7907 -0.8524
 3731TIP3   OH211198   5.690   5.907   4.269  0.1014  0.1608  0.4258
 3731TIP3    H111199   5.682   5.865   4.184 -1.2321 -1.5129  1.3220
 3731TIP3    H211200   5.656   5.996   4.255 -0.9056 -0.3565 -0.6182
 3732TIP3   OH211201   6.064   0.365   0.651 -0.4863  0.4148 -0.0756
 3732TIP3    H111202   6.108   0.394   0.572 -2.0581  0.0330 -1.1413
 3732TIP3    H211203   6.115   0.288   0.680  1.0462  1.5012  0.2559
 3733TIP3   OH211204   2.589   0.506   0.016  0.4715  0.5348 -0.1155
 3733TIP3    H111205   2.494   0.508   0.013  0.2720 -2.9366 -0.2471
 3733TIP3    H211206   2.613   0.577   0.076 -2.3831 -0.1453  2.0331
 3734TIP3   OH211207   1.815   3.003   1.021  0.0374 -0.1695 -0.5201
 3734TIP3    H111208   1.769   2.976   1.101  2.4058 -1.3968  0.5646
 3734TIP3    H211209   1.762   2.967   0.950 -0.7351 -1.4703  0.6379
 3735TIP3   OH211210   4.493   5.184   5.045 -0.0656 -0.0337 -0.0517
 3735TIP3    H111211   4.530   5.256   4.995  0.5610 -0.0898  0.3223
 3735TIP3    H211212   4.410   5.164   5.001  0.1684  0.3392 -0.6715
 3736TIP3   OH211213   5.140   4.643   2.420  0.2738  0.4584  0.2903
 3736TIP3    H111214   5.225   4.614   2.387 -0.2799  1.0231 -1.8440
 3736TIP3    H211215   5.159   4.722   2.471  1.0803  0.3291  0.1993
 3737TIP3   OH211216   6.211   0.655   3.985 -0.1956  0.3339 -0.4182
 3737TIP3    H111217   6.303   0.682   3.990 -0.1945  0.5092 -1.2237
 3737TIP3    H211218   6.165   0.733   3.953 -0.7383  0.4650  0.6507
 3738TIP3   OH211219   5.416   5.796   0.711 -0.0506  0.3117 -0.3602
 3738TIP3    H111220   5.425   5.887   0.683  0.4265  0.3768 -0.0095
 3738TIP3    H211221   5.391   5.801   0.803  0.0734  0.0851 -0.3130
 3739TIP3   OH211222   5.377   0.922   3.847  0.1570  0.4620 -0.1333
 3739TIP3    H111223   5.297   0.954   3.806 -0.1672 -1.2682 -0.9333
 3739TIP3    H211224   5.433   0.896   3.774 -0.4053 -2.6144  0.3751
 3740TIP3   OH211225   5.365   4.190   0.720  0.1633  0.2078  0.2688
 3740TIP3    H111226   5.432   4.238   0.670  0.3123  1.9798  2.0384
 3740TIP3    H211227   5.383   4.098   0.702  1.4209  0.7210 -1.3683
 3741TIP3   OH211228   6.242   5.378   1.999 -0.0802 -0.2137 -0.2458
 3741TIP3    H111229   6.283   5.297   2.029 -1.2313  0.0431  2.2796
 3741TIP3    H211230   6.148   5.359   1.997 -0.2980  0.7966 -0.4768
 3742TIP3   OH211231   3.263   1.234   2.358  0.1317 -0.4389  0.0947
 3742TIP3    H111232   3.277   1.157   2.412  0.1007 -0.1599  0.5060
 3742TIP3    H211233   3.263   1.201   2.268  0.1391 -0.9117  0.2669
 3743TIP3   OH211234   0.856   0.338   4.135  0.2766 -0.2287 -0.3420
 3743TIP3    H111235   0.841   0.430   4.156 -2.0186 -0.6955  0.3256
 3743TIP3    H211236   0.777   0.310   4.090  0.2650 -2.2525  0.8008
 3744TIP3   OH211237   3.116   5.290   0.224  0.5987  0.1020 -0.0522
 3744TIP3    H111238   3.118   5.316   0.316  1.1651  0.8368 -0.2671
 3744TIP3    H211239   3.207   5.299   0.194  0.6329 -1.1457 -0.4121
 3745TIP3   OH211240   4.466   0.406   4.167 -0.0664  0.6531 -0.0916
 3745TIP3    H111241   4.427   0.466   4.103  0.0531  1.2343  0.3664
 3745TIP3    H211242   4.399   0.340   4.182  0.2382 -0.0203 -1.4871
 3746TIP3   OH211243   3.881   0.352   1.107  0.0645 -0.5146  0.1338
 3746TIP3    H111244   3.852   0.349   1.198  1.1143 -1.1232  0.4664
 3746TIP3    H211245   3.890   0.261   1.081  1.7988 -0.3862  0.1228
 3747TIP3   OH211246   1.051   3.685   2.481  0.1839 -0.2524 -0.3663
 3747TIP3    H111247   1.050   3.702   2.387  1.0614  1.4624 -0.0992
 3747TIP3    H211248   0.992   3.750   2.518 -0.1683 -0.9253  0.2876
 3748TIP3   OH211249   0.288   1.537   1.669  0.1111 -0.2360  0.3444
 3748TIP3    H111250   0.262   1.575   1.585  0.1602 -1.6446 -0.3284
 3748TIP3    H211251   0.302   1.445   1.651  0.9487 -0.4130  1.7311
 3749TIP3   OH211252   2.683   3.658   0.063  0.1012 -0.2843 -0.2695
 3749TIP3    H111253   2.614   3.594   0.080 -0.5371  0.2389 -0.8117
 3749TIP3    H211254   2.657   3.700  -0.019  1.0282 -0.0208 -0.4413
 3750TIP3   OH211255   1.067   1.441   4.308  0.1053  0.3557  0.2422
 3750TIP3    H111256   1.038   1.443   4.216 -1.3519 -0.0957  0.6559
 3750TIP3    H211257   1.122   1.363   4.314  0.8942  0.8479 -0.4267
 3751TIP3   OH211258   0.210   3.567   0.432  0.0958  0.0300  0.1489
 3751TIP3    H111259   0.181   3.635   0.372 -0.8003 -0.2618  0.2264
 3751TIP3    H211260   0.155   3.579   0.510 -0.3537 -1.0085  0.0125
 3752TIP3   OH211261   0.572   4.346   2.198  0.0029  0.0609 -0.0464
 3752TIP3    H111262   0.536   4.258   2.195 -1.2039  0.5684 -1.0384
 3752TIP3    H211263   0.553   4.377   2.286 -1.0696 -0.0730 -0.2188
 3753TIP3   OH211264   1.470   3.445   3.174  0.1568  0.3438  0.2248
 3753TIP3    H111265   1.463   3.356   3.209  0.4990  0.0254 -0.5007
 3753TIP3    H211266   1.433   3.501   3.243 -0.3637 -0.3862  0.5458
 3754TIP3   OH211267   3.687   1.751   2.941  0.2441 -0.0172 -0.5295
 3754TIP3    H111268   3.718   1.671   2.899 -0.0714 -0.3783 -0.0724
 3754TIP3    H211269   3.676   1.728   3.033  0.8166  0.7427 -0.2614
 3755TIP3   OH211270   1.374   2.888   3.667  0.3366 -0.3607  0.2578
 3755TIP3    H111271   1.425   2.815   3.700 -0.4965 -2.8687 -3.4240
 3755TIP3    H211272   1.292   2.848   3.637 -1.1421  2.4984  0.1442
 3756TIP3   OH211273   5.128   5.507   2.841 -0.5882 -0.0165 -0.1852
 3756TIP3    H111274   5.220   5.488   2.821  0.0846  1.2254  1.5212
 3756TIP3    H211275   5.094   5.547   2.760 -0.0494 -1.6765 -1.2926
 3757TIP3   OH211276   0.882   4.080   2.223  0.2850  0.2369  0.4139
 3757TIP3    H111277   0.886   4.164   2.269 -1.4890  0.8084 -0.3769
 3757TIP3    H211278   0.974   4.055   2.210  0.8555  0.5048  3.3397
 3758TIP3   OH211279   1.157   0.813   0.780  0.3419  0.1088  0.1944
 3758TIP3    H111280   1.204   0.755   0.840 -0.3005 -1.1842 -0.5152
 3758TIP3    H211281   1.126   0.884   0.836  3.3306  1.2128  0.6626
 3759TIP3   OH211282   5.869   3.356   3.279  0.1443  0.2152 -0.3522
 3759TIP3    H111283   5.937   3.309   3.230  0.8072  0.0093  0.7347
 3759TIP3    H211284   5.826   3.288   3.331  0.5107  0.6664  0.5512
 3760TIP3   OH211285   2.299   5.387   2.000  0.2975  0.0948 -0.2507
 3760TIP3    H111286   2.227   5.421   1.947  0.3002  0.3138 -0.1140
 3760TIP3    H211287   2.378   5.425   1.962  0.3700 -0.3875 -0.5909
 3761TIP3   OH211288   5.924   0.708   2.420  0.3545 -0.8495 -0.0769
 3761TIP3    H111289   6.019   0.706   2.407  0.8663 -0.5542  2.8257
 3761TIP3    H211290   5.899   0.616   2.429  0.8173 -0.8399  1.5195
 3762TIP3   OH211291   2.037   5.037   3.424 -0.1333 -0.4790  0.4898
 3762TIP3    H111292   1.949   5.000   3.437 -0.8478  1.1576  0.5466
 3762TIP3    H211293   2.038   5.062   3.331 -0.3204  0.9023  0.8346
 3763TIP3   OH211294   1.434   0.408   4.546 -0.2055  0.4238  0.4740
 3763TIP3    H111295   1.385   0.425   4.626 -0.5713 -0.5869  0.4840
 3763TIP3    H211296   1.411   0.480   4.488 -0.2205  0.9692  1.1516
 3764TIP3   OH211297   5.741   2.889   2.212  0.3069 -0.1299  0.0432
 3764TIP3    H111298   5.829   2.860   2.186 -0.2926  0.1299 -2.5419
 3764TIP3    H211299   5.714   2.828   2.280  2.1844 -0.6636  0.3565
 3765TIP3   OH211300   2.721   0.249   4.487  0.2284  0.3902  0.0283
 3765TIP3    H111301   2.733   0.247   4.392 -1.2521 -0.2610 -0.1743
 3765TIP3    H211302   2.805   0.221   4.523  0.9608  1.0898 -1.0607
 3766TIP3   OH211303   1.957   1.284   5.048 -0.2146 -0.1543  0.1335
 3766TIP3    H111304   1.944   1.284   4.953  0.0492 -0.3335  0.0963
 3766TIP3    H211305   2.037   1.335   5.061  0.8995 -1.8216  0.0925
 3767TIP3   OH211306   3.821   4.623   4.324 -0.0863 -0.2959  0.3631
 3767TIP3    H111307   3.855   4.579   4.246  1.2136 -0.6145  1.0980
 3767TIP3    H211308   3.842   4.715   4.311  0.6849 -0.4343  0.6204
 3768TIP3   OH211309   3.722   0.114   0.647  0.0946 -0.6775  0.4764
 3768TIP3    H111310   3.789   0.121   0.579 -0.3053  2.3433  0.2629
 3768TIP3    H211311   3.741   0.030   0.690  1.6051 -1.7427 -1.9997
 3769TIP3   OH211312   3.852   2.210   0.796 -0.3413  0.4158 -0.0275
 3769TIP3    H111313   3.861   2.166   0.711  0.2346 -0.6844  0.5809
 3769TIP3    H211314   3.890   2.296   0.783 -0.8626  0.5094 -1.0646
 3770TIP3   OH211315   1.786   4.089   2.289 -0.1566 -0.1675  0.2581
 3770TIP3    H111316   1.837   4.023   2.335 -0.9984  0.0035  1.4989
 3770TIP3    H211317   1.827   4.097   2.203  1.1026 -0.9325  0.7729
 3771TIP3   OH211318   3.579   1.851   3.785  0.7712  0.7226 -0.6864
 3771TIP3    H111319   3.568   1.857   3.690 -0.6509  1.3188 -0.5128
 3771TIP3    H211320   3.670   1.825   3.798  0.8283  0.0722 -2.2282
 3772TIP3   OH211321   2.899   0.804   2.900 -0.0449 -0.2772  0.0062
 3772TIP3    H111322   2.807   0.777   2.895 -0.0389 -0.1756 -0.6972
 3772TIP3    H211323   2.912   0.862   2.825  0.6792 -0.5377 -0.0788
 3773TIP3   OH211324   5.655   0.341   0.554  0.3593  0.0897  0.4863
 3773TIP3    H111325   5.574   0.340   0.502  1.3169 -3.4804 -1.2983
 3773TIP3    H211326   5.646   0.267   0.614  2.2466 -0.3803  0.2564
 3774TIP3   OH211327   6.205   5.486   4.439  0.2615  0.7242  0.2410
 3774TIP3    H111328   6.114   5.493   4.469  0.1744 -2.3690  1.0033
 3774TIP3    H211329   6.198   5.469   4.345  0.2184  2.5411 -0.1324
 3775TIP3   OH211330   1.897   2.625   0.042  0.2624 -0.1079 -0.4067
 3775TIP3    H111331   1.987   2.657   0.043  0.7803 -1.4981 -0.3924
 3775TIP3    H211332   1.845   2.700   0.013  1.5250  0.4409 -1.3288
 3776TIP3   OH211333   5.863   5.106   5.115 -0.1090  0.5299 -0.5234
 3776TIP3    H111334   5.887   5.017   5.088 -2.3991 -0.5255  0.7094
 3776TIP3    H211335   5.770   5.113   5.097 -0.7724  1.3938  2.6454
 3777TIP3   OH211336   2.776   1.296   2.991 -0.5397  0.1958 -0.8368
 3777TIP3    H111337   2.757   1.212   2.949  1.5585 -0.2872 -0.9305
 3777TIP3    H211338   2.698   1.315   3.043  0.1893 -3.6085  2.0657
 3778TIP3   OH211339   5.190   1.755   1.463 -0.4104 -0.2520 -0.3271
 3778TIP3    H111340   5.265   1.708   1.428 -0.4555 -1.9323  1.5959
 3778TIP3    H211341   5.127   1.757   1.391 -0.1740 -2.7212 -0.7023
 3779TIP3   OH211342   0.286   3.289   1.799 -0.1153 -0.2641 -0.3847
 3779TIP3    H111343   0.194   3.296   1.825 -0.0855 -0.6795 -0.1502
 3779TIP3    H211344   0.314   3.379   1.784 -0.0497  0.0442  1.3771
 3780TIP3   OH211345   4.694   4.223   4.211  0.1615 -0.6155  0.4795
 3780TIP3    H111346   4.737   4.178   4.139 -0.4170 -0.6924  0.1722
 3780TIP3    H211347   4.735   4.310   4.213  0.7433 -0.8910  0.5833
 3781TIP3   OH211348   4.189   5.918   3.324  0.1735 -0.0601 -0.2509
 3781TIP3    H111349   4.257   5.940   3.387  2.3555  1.7600 -3.0009
 3781TIP3    H211350   4.129   5.993   3.325 -0.0276 -0.2198 -0.0814
 3782TIP3   OH211351   5.333   3.292   1.968 -0.3530  0.4027  0.1348
 3782TIP3    H111352   5.377   3.317   2.049 -0.7385 -1.5018  0.9696
 3782TIP3    H211353   5.396   3.235   1.923 -0.4624  0.7920 -0.5348
 3783TIP3   OH211354   6.237   0.671   4.642  0.9444 -0.0384  0.1454
 3783TIP3    H111355   6.187   0.701   4.565  2.8638 -1.4622 -1.7750
 3783TIP3    H211356   6.227   0.741   4.706 -0.2918  1.4686 -1.5885
 3784TIP3   OH211357   2.621   4.440   1.921 -0.0036  0.1143  0.2829
 3784TIP3    H111358   2.610   4.345   1.924 -0.2518  0.0974 -0.8312
 3784TIP3    H211359   2.539   4.473   1.883 -0.6422  0.9434  2.2559
 3785TIP3   OH211360   0.037   1.263   0.558 -1.0405  0.2879  0.9494
 3785TIP3    H111361  -0.023   1.269   0.484 -2.4207  0.9786  2.0859
 3785TIP3    H211362   0.079   1.349   0.562 -0.3314 -0.0255  0.4731
 3786TIP3   OH211363   5.305   0.395   3.963 -0.5099  0.4015 -0.1081
 3786TIP3    H111364   5.350   0.396   3.879  0.3977  1.7710  0.3552
 3786TIP3    H211365   5.249   0.472   3.962  0.1175  0.8960  0.8345
 3787TIP3   OH211366   1.044   0.858   0.256 -0.0599 -0.2081  0.2398
 3787TIP3    H111367   1.011   0.770   0.277  0.1562 -0.2243  0.5195
 3787TIP3    H211368   1.056   0.900   0.341  0.2094 -0.0457  0.1229
 3788TIP3   OH211369   0.314   3.028   0.229 -0.1509  0.4458  0.8413
 3788TIP3    H111370   0.313   3.122   0.249  1.3000  0.9645 -1.2152
 3788TIP3    H211371   0.406   3.003   0.236 -0.3196 -0.4668 -0.0596
 3789TIP3   OH211372   5.366   4.330   1.737  0.1470 -0.3097  0.0645
 3789TIP3    H111373   5.416   4.255   1.771 -0.6124 -0.7778  0.1803
 3789TIP3    H211374   5.432   4.387   1.699  0.9739 -0.0863  1.7147
 3790TIP3   OH211375   2.414   0.202   0.616  0.1728 -0.1389  0.7589
 3790TIP3    H111376   2.415   0.114   0.577 -2.2637 -0.3169  0.9317
 3790TIP3    H211377   2.372   0.257   0.549 -0.0823  0.4834  1.4207
 3791TIP3   OH211378   5.442   0.015   4.610  0.2048  0.2889  0.1388
 3791TIP3    H111379   5.397   0.054   4.685 -0.0378  0.8070 -0.2661
 3791TIP3    H211380   5.518  -0.030   4.647 -0.4816 -0.3459  0.8074
 3792TIP3   OH211381   5.185   2.113   4.262  0.1556 -0.1576  0.1641
 3792TIP3    H111382   5.120   2.167   4.217 -2.2965 -1.6080  1.7431
 3792TIP3    H211383   5.179   2.140   4.354  1.9829 -0.2070  0.3361
 3793TIP3   OH211384   5.241   4.819   3.654  0.0378 -0.4510  0.7479
 3793TIP3    H111385   5.208   4.788   3.569 -0.6706 -1.7985  1.4778
 3793TIP3    H211386   5.289   4.744   3.689 -0.0030 -0.0418  1.7050
 3794TIP3   OH211387   1.063   0.966   4.497 -0.2950  0.0708 -0.0978
 3794TIP3    H111388   1.122   1.028   4.454 -0.7685 -0.7977 -2.1033
 3794TIP3    H211389   1.110   0.883   4.495 -0.8616 -0.2522 -0.1107
 3795TIP3   OH211390   5.004   0.605   3.602  0.0121 -0.6451  0.1591
 3795TIP3    H111391   4.976   0.618   3.692 -0.3461 -0.8201  0.0757
 3795TIP3    H211392   4.933   0.554   3.562 -0.8182  1.1342 -0.7660
 3796TIP3   OH211393   5.676   3.884   4.419 -0.2300 -0.3549  0.5256
 3796TIP3    H111394   5.770   3.885   4.400 -0.2013  0.7417  0.6779
 3796TIP3    H211395   5.653   3.791   4.421  1.2036 -0.7243  2.1117
 3797TIP3   OH211396   4.524   5.298   2.152  0.9226 -0.4166 -0.1786
 3797TIP3    H111397   4.435   5.275   2.177  0.1905  0.9375 -1.3428
 3797TIP3    H211398   4.579   5.258   2.218 -0.6186 -0.4345  1.1525
 3798TIP3   OH211399   3.573   0.783   1.323 -0.3304 -0.0339 -0.8422
 3798TIP3    H111400   3.515   0.828   1.385  1.1249  2.5160 -1.2105
 3798TIP3    H211401   3.633   0.733   1.378  0.9604  2.2200 -0.0679
 3799TIP3   OH211402   5.631   4.170   3.379  0.0778 -0.4816 -0.4273
 3799TIP3    H111403   5.635   4.258   3.342  0.6678  0.4001  1.5770
 3799TIP3    H211404   5.587   4.117   3.313 -2.1956  1.7722 -0.8402
 3800TIP3   OH211405   2.981   0.118   3.080 -0.1272 -0.3198 -0.1990
 3800TIP3    H111406   2.957   0.185   3.016  1.0568 -0.8375 -1.2151
 3800TIP3    H211407   3.058   0.152   3.124 -1.0102  0.0985  1.1105
 3801TIP3   OH211408   2.421   0.008   2.548 -0.2702 -0.7837 -0.4139
 3801TIP3    H111409   2.385   0.088   2.586  0.9597  0.0230 -0.8519
 3801TIP3    H211410   2.483   0.040   2.482 -0.9850 -2.1168 -1.7867
 3802TIP3   OH211411   5.945   5.647   3.279  0.2543 -0.1006 -0.2955
 3802TIP3    H111412   5.876   5.581   3.282 -0.7306  0.9081  0.3951
 3802TIP3    H211413   5.907   5.723   3.323  1.4180  0.8607 -0.8825
 3803TIP3   OH211414   0.348   3.073   3.062  0.1762 -0.5567  0.1205
 3803TIP3    H111415   0.434   3.107   3.039  0.9474 -2.2477  0.3203
 3803TIP3    H211416   0.297   3.083   2.982  1.2119 -1.4403 -0.6881
 3804TIP3   OH211417   5.110   1.743   3.973 -0.3477 -0.3026  0.2697
 3804TIP3    H111418   5.177   1.786   3.921 -1.7962  1.5503 -0.1628
 3804TIP3    H211419   5.029   1.755   3.924 -1.6081  0.6554  2.3916
 3805TIP3   OH211420   2.992   3.007   1.671 -0.4364  0.0342  0.0118
 3805TIP3    H111421   3.014   2.955   1.748 -0.8516 -0.0239  0.0944
 3805TIP3    H211422   2.970   2.942   1.604 -2.5344  0.0721  0.5730
 3806TIP3   OH211423   1.942   2.621   4.001 -0.8227  0.1810  0.3084
 3806TIP3    H111424   1.950   2.540   3.951 -0.4425  0.6709 -0.4391
 3806TIP3    H211425   1.896   2.596   4.081 -1.7377 -0.5628 -0.4253
 3807TIP3   OH211426   0.656   4.151   1.085  0.6632  0.0911  0.1556
 3807TIP3    H111427   0.741   4.176   1.049  1.1412 -0.7558  0.6618
 3807TIP3    H211428   0.635   4.069   1.040 -0.0978  0.5076 -0.2755
 3808TIP3   OH211429   1.198   2.189   0.181 -0.0847  0.1413  0.3686
 3808TIP3    H111430   1.179   2.237   0.262  0.5049  1.3985 -0.2122
 3808TIP3    H211431   1.119   2.137   0.164  0.2076 -1.0677  2.3606
 3809TIP3   OH211432   3.473   3.241   4.406 -0.0302  0.0748  0.3297
 3809TIP3    H111433   3.556   3.277   4.435  0.5117 -0.2329 -0.7995
 3809TIP3    H211434   3.411   3.315   4.414  0.1609  0.1135  1.8232
 3810TIP3   OH211435   5.580   2.086   3.754  0.1852  0.1728  0.1466
 3810TIP3    H111436   5.578   2.006   3.701  2.6021  0.1090  0.0352
 3810TIP3    H211437   5.508   2.139   3.720 -0.6346 -1.3875 -0.6735
 3811TIP3   OH211438   2.316   4.431   4.756  0.3856  0.3508 -0.2423
 3811TIP3    H111439   2.284   4.387   4.677  0.8246  1.8559 -1.2867
 3811TIP3    H211440   2.236   4.449   4.806  0.1567 -1.2068  0.0299
 3812TIP3   OH211441   3.623   3.874   3.566  0.4756  0.3335  0.1476
 3812TIP3    H111442   3.614   3.967   3.549  1.3179  0.6810  1.4951
 3812TIP3    H211443   3.707   3.865   3.611  1.4067 -1.3419 -1.7472
 3813TIP3   OH211444   4.355   0.864   2.280  0.8975 -0.2670 -0.4502
 3813TIP3    H111445   4.263   0.840   2.276  1.3702 -2.3535  0.0441
 3813TIP3    H211446   4.355   0.952   2.317 -0.8163 -1.0844  1.7320
 3814TIP3   OH211447   2.654   4.753   2.137  0.1546  0.9177  1.1227
 3814TIP3    H111448   2.612   4.809   2.202  0.1164  1.1365  0.9118
 3814TIP3    H211449   2.624   4.664   2.157  0.7565  0.8824  1.8882
 3815TIP3   OH211450   2.648   3.304   0.728  0.0041 -0.6397  0.4019
 3815TIP3    H111451   2.668   3.396   0.747  1.1170 -0.9386  0.7575
 3815TIP3    H211452   2.649   3.299   0.633  0.8716 -0.4630  0.3916
 3816TIP3   OH211453   4.201   4.233   4.783  0.4543  0.2259  0.1158
 3816TIP3    H111454   4.131   4.296   4.800 -0.6229 -0.6199 -0.9547
 3816TIP3    H211455   4.172   4.153   4.827 -0.0231 -0.5578 -1.5372
 3817TIP3   OH211456   5.727   3.569   0.399 -0.0992 -0.1110 -0.5227
 3817TIP3    H111457   5.716   3.511   0.474  0.2755 -0.7488 -0.9548
 3817TIP3    H211458   5.819   3.594   0.401 -0.2104  0.3045 -0.4631
 3818TIP3   OH211459   5.111   4.777   2.948 -0.2448  0.1026  0.4006
 3818TIP3    H111460   5.052   4.851   2.961 -0.5346  0.2615 -1.4827
 3818TIP3    H211461   5.198   4.816   2.937 -0.3479  0.1680 -0.2614
 3819TIP3   OH211462   4.394   5.246   2.678  0.1687  0.6550  0.1951
 3819TIP3    H111463   4.469   5.191   2.704 -0.1648 -0.3383 -0.8842
 3819TIP3    H211464   4.433   5.318   2.629  0.3665 -0.3117 -1.0945
 3820TIP3   OH211465   3.183   2.727   0.181 -0.0515 -0.2468 -0.1333
 3820TIP3    H111466   3.116   2.739   0.114 -0.0868 -0.7456 -0.1898
 3820TIP3    H211467   3.263   2.763   0.142  0.0221 -0.9057 -0.6119
 3821TIP3   OH211468   3.928   3.650   0.323 -0.2517 -0.2734 -0.0996
 3821TIP3    H111469   3.909   3.727   0.376 -0.1023  0.2060 -0.7455
 3821TIP3    H211470   3.850   3.595   0.333  0.0782 -0.5572  1.2388
 3822TIP3   OH211471   4.080   2.765   4.239 -0.3093 -0.0395  0.0874
 3822TIP3    H111472   3.987   2.779   4.257 -0.3040  0.4748 -0.2400
 3822TIP3    H211473   4.116   2.854   4.233  0.3292 -0.2316  0.8390
 3823TIP3   OH211474   3.001   1.591   1.049  0.2716  0.1490 -0.0821
 3823TIP3    H111475   2.911   1.604   1.020 -0.1160  1.0411  1.4443
 3823TIP3    H211476   3.002   1.619   1.140  2.2423  0.8227 -0.2490
 3824TIP3   OH211477   3.330   0.587   1.423 -0.3817 -0.2832 -0.4805
 3824TIP3    H111478   3.341   0.659   1.486  0.4576  1.1066 -2.1243
 3824TIP3    H211479   3.263   0.618   1.363 -1.7165 -1.9075  0.1070
 3825TIP3   OH211480   0.884   0.057   2.871  0.2403  0.6334  0.3196
 3825TIP3    H111481   0.923   0.008   2.943  1.0264  1.3373  0.3828
 3825TIP3    H211482   0.824   0.119   2.913 -0.0128  0.4023  0.3024
 3826TIP3   OH211483   1.711   5.769   3.723 -0.0814  0.4255  0.0713
 3826TIP3    H111484   1.722   5.675   3.731  1.9131  0.5550 -0.6001
 3826TIP3    H211485   1.734   5.788   3.632  0.5764  1.6765  0.4778
 3827TIP3   OH211486   4.711   5.644   0.572  0.2706  0.0147 -0.2591
 3827TIP3    H111487   4.737   5.557   0.602  0.5267  0.2880  0.3291
 3827TIP3    H211488   4.650   5.628   0.500 -1.3288 -0.7057  1.1753
 3828TIP3   OH211489   4.811   1.561   5.004 -0.1623 -0.0011 -0.0768
 3828TIP3    H111490   4.883   1.499   5.015 -0.0863  0.0900 -0.0657
 3828TIP3    H211491   4.733   1.505   5.002 -0.2146 -0.0142  1.2362
 3829TIP3   OH211492   0.303   0.763   1.832  0.4889 -0.2895  0.3123
 3829TIP3    H111493   0.277   0.799   1.917 -1.2568 -0.7746  0.0413
 3829TIP3    H211494   0.326   0.672   1.851 -0.3234 -0.5220  0.2212
 3830TIP3   OH211495   0.268   3.661   3.724 -0.3534  0.3155  0.2000
 3830TIP3    H111496   0.254   3.718   3.800 -2.1440 -0.8101  0.7773
 3830TIP3    H211497   0.182   3.623   3.707  0.7001 -1.9278 -0.3921
 3831TIP3   OH211498   5.065   1.494   1.840  0.3973  0.2155  0.0547
 3831TIP3    H111499   5.126   1.495   1.914 -0.6545 -3.1589  1.1718
 3831TIP3    H211500   5.120   1.478   1.763  1.1627 -0.4788  0.7329
 3832TIP3   OH211501   0.202   1.402   0.881  0.3639  0.2554  0.0399
 3832TIP3    H111502   0.146   1.456   0.937  1.2986  1.0958  0.1824
 3832TIP3    H211503   0.275   1.377   0.937  0.1263 -0.8705 -0.1362
 3833TIP3   OH211504   0.906   4.357   5.139  0.3933 -0.7069  0.2187
 3833TIP3    H111505   0.891   4.365   5.233 -1.1604  1.2296 -0.1459
 3833TIP3    H211506   0.972   4.287   5.132  0.1080 -1.3259  2.6739
 3834TIP3   OH211507   2.209   2.464   0.479 -0.0029  0.2048  0.0119
 3834TIP3    H111508   2.198   2.557   0.458  0.3551  0.0642 -0.8231
 3834TIP3    H211509   2.249   2.464   0.566 -2.0233  0.7868  1.0037
 3835TIP3   OH211510   4.694   2.125   0.516  0.0726  0.1207 -0.6366
 3835TIP3    H111511   4.720   2.112   0.425  0.6267  0.1161 -0.4852
 3835TIP3    H211512   4.763   2.181   0.552 -0.0811  0.0259 -0.1911
 3836TIP3   OH211513   0.507   1.613   3.756 -0.3507 -0.0086 -0.0561
 3836TIP3    H111514   0.459   1.657   3.826  0.0851  0.1360  0.1581
 3836TIP3    H211515   0.459   1.532   3.741 -1.3819  0.7154 -0.7265
 3837TIP3   OH211516   1.582   2.515   4.922  0.2352 -0.5477  0.5991
 3837TIP3    H111517   1.538   2.578   4.864  0.9997  1.6302  2.2335
 3837TIP3    H211518   1.625   2.454   4.862 -0.3727  0.5983 -1.1021
 3838TIP3   OH211519   1.155   5.974   4.823  0.2696  0.9089 -0.0332
 3838TIP3    H111520   1.240   5.967   4.779 -0.1655  0.3093 -0.7910
 3838TIP3    H211521   1.103   5.903   4.787  0.0559  0.0510  1.8582
 3839TIP3   OH211522   0.715   5.075   4.454  0.4622  0.0251  0.3148
 3839TIP3    H111523   0.657   5.056   4.528  0.6179 -0.0240  0.4232
 3839TIP3    H211524   0.687   5.013   4.386 -1.1498  1.4852 -0.4562
 3840TIP3   OH211525   5.995   1.750   4.932  0.3951  0.0505 -0.1046
 3840TIP3    H111526   6.023   1.666   4.969  0.1837 -1.2844 -2.7650
 3840TIP3    H211527   6.076   1.797   4.915  0.5067  0.5867  1.6709
 3841TIP3   OH211528   2.808   1.629   3.240 -0.3006  0.2190  0.1936
 3841TIP3    H111529   2.826   1.537   3.221 -1.2774  0.4813 -2.4087
 3841TIP3    H211530   2.713   1.636   3.236 -0.1798  1.8011 -2.5952
 3842TIP3   OH211531   5.484   2.035   4.909  0.2316 -0.2305  0.2562
 3842TIP3    H111532   5.413   1.983   4.871 -1.1896 -0.5943  3.0987
 3842TIP3    H211533   5.524   1.977   4.974  0.6090  1.2227  1.3829
 3843TIP3   OH211534   0.513   1.893   3.599  0.1581  0.3217  0.3855
 3843TIP3    H111535   0.502   1.883   3.694  0.8863 -1.6908  0.3085
 3843TIP3    H211536   0.520   1.987   3.586 -0.4684  0.6871  2.2706
 3844TIP3   OH211537   3.121   3.976   3.443 -0.4357  0.4756  0.0636
 3844TIP3    H111538   3.083   4.043   3.500  1.0799  0.2697  1.4007
 3844TIP3    H211539   3.216   3.983   3.459 -0.2241 -1.7692  0.0214
 3845TIP3   OH211540   4.644   5.090   3.007  0.0341 -0.4493 -0.0283
 3845TIP3    H111541   4.625   5.071   2.916  1.6816 -2.3351 -0.0361
 3845TIP3    H211542   4.660   5.184   3.009 -2.9083  0.1987 -1.0589
 3846TIP3   OH211543   3.718   3.515   1.405 -0.1726  0.2241 -0.2231
 3846TIP3    H111544   3.651   3.468   1.356  0.5169 -0.8417 -0.1753
 3846TIP3    H211545   3.671   3.587   1.447 -1.0046  0.3775 -1.3773
 3847TIP3   OH211546   6.327   0.099   2.787 -0.0211 -0.5612 -0.3435
 3847TIP3    H111547   6.339   0.124   2.695  0.0540 -1.1750 -0.5092
 3847TIP3    H211548   6.347   0.005   2.789  1.5330 -0.2362  0.6001
 3848TIP3   OH211549   0.675   3.373   1.459 -0.2221 -0.2068 -0.4317
 3848TIP3    H111550   0.759   3.378   1.413 -0.2824 -2.4862 -0.9247
 3848TIP3    H211551   0.609   3.380   1.389 -0.3278 -2.3560 -0.6311
 3849TIP3   OH211552   2.044   4.760   1.995 -0.7142 -0.2303  0.2482
 3849TIP3    H111553   2.029   4.824   2.065 -0.8625 -0.0403  0.0427
 3849TIP3    H211554   2.120   4.710   2.025 -0.2705  0.3826  0.1747
 3850TIP3   OH211555   0.961   1.351   4.702 -0.0495  0.5063  0.0764
 3850TIP3    H111556   0.920   1.327   4.619 -1.6007 -4.6138  1.9840
 3850TIP3    H211557   1.046   1.306   4.701  1.4312  3.0758  0.1285
 3851TIP3   OH211558   2.992   4.350   2.070 -0.0107  0.1818  0.0257
 3851TIP3    H111559   3.064   4.409   2.049  0.8204 -1.3135 -1.5280
 3851TIP3    H211560   2.966   4.375   2.159  2.3037  0.8781  0.5796
 3852TIP3   OH211561   1.263   1.005   4.778  0.4019 -0.2594  0.0798
 3852TIP3    H111562   1.228   0.967   4.858 -0.8156  0.4636 -0.0743
 3852TIP3    H211563   1.231   0.947   4.708 -0.0220  0.0729 -0.0107
 3853TIP3   OH211564   1.281   1.543   0.446 -0.7319 -0.3353  0.0653
 3853TIP3    H111565   1.341   1.515   0.377 -1.6277 -1.4015 -0.3058
 3853TIP3    H211566   1.287   1.639   0.445  1.8508 -0.4295  0.8802
 3854TIP3   OH211567   1.100   0.579   1.525  0.0380  0.2679 -0.3708
 3854TIP3    H111568   1.177   0.605   1.475  0.6321  0.3647  0.5746
 3854TIP3    H211569   1.102   0.635   1.603  0.8186 -1.9118  1.2642
 3855TIP3   OH211570   1.626   1.688   0.464 -0.4391 -0.8598  0.0590
 3855TIP3    H111571   1.685   1.613   0.473 -0.7201 -0.9061  1.8612
 3855TIP3    H211572   1.645   1.742   0.541 -1.6913 -0.1261 -0.1325
 3856TIP3   OH211573   1.352   5.577   1.742 -0.0288 -0.1631  0.1898
 3856TIP3    H111574   1.257   5.589   1.734 -0.0680 -0.8134 -0.4254
 3856TIP3    H211575   1.364   5.543   1.830 -0.2918  0.5674  0.5211
 3857TIP3   OH211576   4.054   0.697   2.433  0.2469  0.3612 -0.9277
 3857TIP3    H111577   4.035   0.717   2.524 -3.1927 -0.2194 -1.3714
 3857TIP3    H211578   4.007   0.764   2.383 -0.8287 -1.2726 -2.2516
 3858TIP3   OH211579   6.156   5.695   1.960  0.1667  0.1969  0.2678
 3858TIP3    H111580   6.137   5.758   2.029 -0.2684 -0.9196  1.1867
 3858TIP3    H211581   6.144   5.745   1.879 -2.6271  0.6779  0.8757
 3859TIP3   OH211582   3.647   5.201   4.238  0.1938  0.3518 -0.3355
 3859TIP3    H111583   3.656   5.175   4.147 -1.3012 -0.3017 -0.3130
 3859TIP3    H211584   3.627   5.295   4.234  0.4023  0.3849 -0.6579
 3860TIP3   OH211585   5.390   1.673   1.831  0.1862  0.0914 -0.3464
 3860TIP3    H111586   5.440   1.728   1.891  1.7770 -1.1163 -0.4804
 3860TIP3    H211587   5.318   1.639   1.884  0.2180  0.8939  0.2231
 3861TIP3   OH211588   4.130   5.887   4.188 -0.6633 -0.0927 -0.1371
 3861TIP3    H111589   4.041   5.861   4.213 -0.9852  1.4317  0.4412
 3861TIP3    H211590   4.118   5.970   4.142  0.5319  0.6220  0.7825
 3862TIP3   OH211591   3.657   1.715   0.438 -0.7796  0.3889 -0.2762
 3862TIP3    H111592   3.571   1.713   0.395 -1.5181 -0.3087  1.1687
 3862TIP3    H211593   3.656   1.794   0.491 -0.9110 -0.0867  0.4496
 3863TIP3   OH211594   5.580   0.718   4.689  0.9425 -0.1397  0.7383
 3863TIP3    H111595   5.532   0.684   4.614  4.2954  0.1194 -1.7438
 3863TIP3    H211596   5.563   0.812   4.689  1.0245 -0.1250  0.2118
 3864TIP3   OH211597   2.359   0.367   3.889  0.5493  0.5745  0.1145
 3864TIP3    H111598   2.352   0.376   3.794  2.0893  1.8333  0.0891
 3864TIP3    H211599   2.403   0.283   3.902  0.3437  0.4029 -0.2746
 3865TIP3   OH211600  -0.023   4.671   1.495  0.4391  0.2741  0.1973
 3865TIP3    H111601   0.039   4.742   1.514  1.8467 -0.0334 -2.6397
 3865TIP3    H211602  -0.001   4.602   1.559  1.9316  0.8173  0.3121
 3866TIP3   OH211603   3.808   3.117   0.370  0.1741 -0.2847  0.5083
 3866TIP3    H111604   3.740   3.131   0.437  0.8724  2.0019  0.8454
 3866TIP3    H211605   3.761   3.127   0.287 -0.5760 -2.5189  0.5959
 3867TIP3   OH211606   4.453   4.127   4.765  0.2302  0.1723  0.7576
 3867TIP3    H111607   4.484   4.095   4.850  0.1426  0.2467  0.8186
 3867TIP3    H211608   4.371   4.172   4.786 -0.4697 -0.9273  0.4556
 3868TIP3   OH211609   1.399   1.442   1.002 -0.3385 -0.2826  0.1026
 3868TIP3    H111610   1.395   1.531   1.037 -0.2575 -0.5680  0.8580
 3868TIP3    H211611   1.332   1.440   0.933 -0.8188  0.1708  0.5447
 3869TIP3   OH211612   0.940   5.463   2.204 -0.1889 -0.2896  0.0049
 3869TIP3    H111613   0.920   5.549   2.167  1.3422  0.5009  0.9221
 3869TIP3    H211614   1.025   5.474   2.247 -0.1077 -2.1805  0.4301
 3870TIP3   OH211615   0.651   2.071   0.530  0.1831  0.2454  0.0491
 3870TIP3    H111616   0.651   2.017   0.608 -0.4557 -0.7449 -0.6119
 3870TIP3    H211617   0.707   2.146   0.552  1.9209 -1.1725  0.6217
 3871TIP3   OH211618   3.825   3.139   2.614  0.0976  0.2654 -0.2280
 3871TIP3    H111619   3.752   3.200   2.607  1.6309  2.0419 -1.9212
 3871TIP3    H211620   3.896   3.180   2.565  2.1267 -1.5842  0.9455
 3872TIP3   OH211621   0.038   3.337   5.204  0.1399  0.3775 -0.0109
 3872TIP3    H111622  -0.055   3.317   5.216 -0.5118  3.8321  2.3489
 3872TIP3    H211623   0.042   3.385   5.122 -0.5326  1.5884  0.6285
 3873TIP3   OH211624   4.210   5.645   2.545 -0.2403  0.7821  0.5843
 3873TIP3    H111625   4.280   5.710   2.542 -0.5583  1.0915 -0.3657
 3873TIP3    H211626   4.144   5.678   2.485  0.0060 -0.8819 -0.6561
 3874TIP3   OH211627   5.505   1.492   4.970  0.3418 -0.1713 -0.1830
 3874TIP3    H111628   5.591   1.455   4.949  0.7257  0.1408  0.7863
 3874TIP3    H211629   5.442   1.433   4.928  1.0351 -0.2292 -1.1511
 3875TIP3   OH211630   5.585   3.748   3.569 -0.0519  0.3281  0.4078
 3875TIP3    H111631   5.666   3.760   3.618  0.5716 -1.0085 -0.2401
 3875TIP3    H211632   5.610   3.698   3.491 -1.0927  1.9294 -1.0607
 3876TIP3   OH211633   2.200   3.941   3.070  0.2227 -0.6602 -0.2896
 3876TIP3    H111634   2.286   3.914   3.038 -0.2395 -1.7359 -0.6557
 3876TIP3    H211635   2.138   3.897   3.012 -0.5812  0.9803 -0.7301
 3877TIP3   OH211636   3.134   2.488   1.659 -0.6837  0.3430  0.6689
 3877TIP3    H111637   3.161   2.479   1.751 -2.5179  1.8972  1.4068
 3877TIP3    H211638   3.217   2.495   1.611  0.3250 -0.6953  2.1432
 3878TIP3   OH211639   2.293   4.508   3.392 -0.1578  0.2539  0.0799
 3878TIP3    H111640   2.335   4.427   3.364 -0.7804  0.6517 -2.1629
 3878TIP3    H211641   2.365   4.567   3.415  0.3007 -0.8517  1.6197
 3879TIP3   OH211642   4.382   4.480   4.937 -0.5230 -0.0763  0.0689
 3879TIP3    H111643   4.396   4.480   4.843  1.7116 -1.2301  0.3261
 3879TIP3    H211644   4.305   4.425   4.950  1.7185 -3.8028 -0.9135
 3880TIP3   OH211645   0.718   2.872   0.830 -0.0748 -0.2806 -0.0102
 3880TIP3    H111646   0.644   2.857   0.772 -0.0318 -0.1785 -0.0927
 3880TIP3    H211647   0.684   2.933   0.896 -0.2898 -0.8421  0.4062
 3881TIP3   OH211648   1.598   4.540   3.115 -0.1167  0.6061 -0.2706
 3881TIP3    H111649   1.680   4.509   3.077  0.1416 -0.4680  1.0855
 3881TIP3    H211650   1.542   4.463   3.117 -1.2074  1.3496 -1.2417
 3882TIP3   OH211651   2.257   5.689   3.651 -0.2011 -0.4294  0.0242
 3882TIP3    H111652   2.253   5.703   3.746  2.2631  0.6511  0.0557
 3882TIP3    H211653   2.203   5.759   3.614  0.7943  0.6816  0.5991
 3883TIP3   OH211654   0.469   2.169   2.012  0.1715 -0.1797 -0.7368
 3883TIP3    H111655   0.431   2.127   1.935  1.4623 -0.2383 -1.3482
 3883TIP3    H211656   0.550   2.121   2.029  0.2753  0.3035  0.2167
 3884TIP3   OH211657   2.267   0.343   0.440  0.1275  0.3193  0.5460
 3884TIP3    H111658   2.316   0.402   0.382  0.9791  0.1636  1.0962
 3884TIP3    H211659   2.210   0.401   0.491 -0.8689  0.4374 -0.6427
 3885TIP3   OH211660   5.682   0.940   2.929  0.0272 -0.9052  0.9040
 3885TIP3    H111661   5.740   0.992   2.984 -2.0733 -0.0937  2.5092
 3885TIP3    H211662   5.701   0.849   2.953  0.8182 -0.6676  1.1880
 3886TIP3   OH211663   6.177   3.093   4.875 -0.4776  0.6086  0.0400
 3886TIP3    H111664   6.105   3.035   4.849  1.8708 -1.0462 -3.6622
 3886TIP3    H211665   6.221   3.046   4.946 -0.3583 -0.7543 -0.8877
 3887TIP3   OH211666   0.860   0.190   2.339 -0.5365 -0.1127  0.7652
 3887TIP3    H111667   0.846   0.206   2.432  0.7526 -0.0242  0.9669
 3887TIP3    H211668   0.890   0.099   2.336  0.3215  0.1669  0.5533
 3888TIP3   OH211669   4.862   1.758   3.288  0.1827  0.2300  0.6892
 3888TIP3    H111670   4.767   1.746   3.287  0.3470 -1.6684 -1.6609
 3888TIP3    H211671   4.875   1.850   3.311 -2.3573  1.2126 -1.3139
 3889TIP3   OH211672   1.396   4.582   4.399 -0.0185  0.1344 -0.1391
 3889TIP3    H111673   1.427   4.645   4.334  3.1480 -0.5593  0.5356
 3889TIP3    H211674   1.372   4.505   4.348 -2.1095  1.1255 -0.7905
 3890TIP3   OH211675   3.178   5.601   1.092  0.5747  0.4103 -0.0857
 3890TIP3    H111676   3.155   5.561   1.176  0.1196 -0.7306 -0.7282
 3890TIP3    H211677   3.178   5.695   1.109 -3.0083  0.4673  0.4048
 3891TIP3   OH211678   3.063   0.751   0.990 -0.3531 -0.3029 -0.2047
 3891TIP3    H111679   3.113   0.775   0.912 -0.9176 -0.0483 -0.4909
 3891TIP3    H211680   2.976   0.788   0.975 -1.2532 -2.4534 -0.6484
 3892TIP3   OH211681   5.280   2.426   4.941  0.2490  0.7176  0.4728
 3892TIP3    H111682   5.355   2.382   4.901  0.0013  0.0512  0.7263
 3892TIP3    H211683   5.204   2.377   4.911 -0.0031  0.7102  1.0967
 3893TIP3   OH211684   4.469   2.329   3.144  0.7373 -0.1572 -0.2828
 3893TIP3    H111685   4.413   2.380   3.085  0.4784  0.6845  0.6593
 3893TIP3    H211686   4.514   2.394   3.197  0.8334 -0.8979  0.5700
 3894TIP3   OH211687   2.503   2.204   2.418  0.3583 -0.0048  0.1669
 3894TIP3    H111688   2.572   2.140   2.437  0.1712 -0.2320  0.0778
 3894TIP3    H211689   2.437   2.190   2.486  0.8362  0.8608  0.8356
 3895TIP3   OH211690   1.046   4.016   1.238  0.1804 -0.3135  0.1998
 3895TIP3    H111691   1.044   3.967   1.156 -0.1358 -0.0923  0.0742
 3895TIP3    H211692   0.956   4.043   1.252  0.6447  2.2363 -0.9470
 3896TIP3   OH211693   6.185   3.420   3.505 -0.3048  0.1167 -0.9567
 3896TIP3    H111694   6.155   3.470   3.429 -2.0239  1.2559  0.3937
 3896TIP3    H211695   6.108   3.414   3.562  0.9982 -0.3793  0.8504
 3897TIP3   OH211696   1.150   0.611   4.029 -0.9831 -0.2217  0.2261
 3897TIP3    H111697   1.217   0.596   3.963 -0.9531  0.5384  0.0707
 3897TIP3    H211698   1.070   0.627   3.979 -1.3129 -1.2335  0.4121
 3898TIP3   OH211699   1.174   5.117   4.370  0.2997 -0.1268  0.3827
 3898TIP3    H111700   1.111   5.139   4.439 -1.9972  0.5842 -1.8293
 3898TIP3    H211701   1.179   5.195   4.315  1.7761 -0.8026 -0.5072
 3899TIP3   OH211702   2.581   4.906   3.732 -0.4040  0.3158 -0.8251
 3899TIP3    H111703   2.638   4.930   3.659  0.3586  1.6414  0.1756
 3899TIP3    H211704   2.576   4.985   3.786  1.4503 -1.4458  2.1509
 3900TIP3   OH211705   2.186   0.029   4.959 -0.1805 -0.2555  0.4838
 3900TIP3    H111706   2.254   0.081   5.002 -0.9356  0.9151  0.3179
 3900TIP3    H211707   2.192   0.053   4.866  0.2222 -1.3582  0.2114
 3901TIP3   OH211708   4.365   4.406   3.455 -0.2233  0.0355  0.4416
 3901TIP3    H111709   4.297   4.347   3.488  1.4688 -2.4408 -0.2350
 3901TIP3    H211710   4.373   4.384   3.362  0.7131  1.1226  0.2422
 3902TIP3   OH211711   2.165   0.507   2.925 -0.5303 -0.7144 -0.3064
 3902TIP3    H111712   2.105   0.434   2.940 -0.1171 -1.0581 -0.2992
 3902TIP3    H211713   2.128   0.579   2.976 -0.2515 -1.2866  0.7269
 3903TIP3   OH211714   2.593   1.716   3.825 -0.3790  0.3860  0.1297
 3903TIP3    H111715   2.650   1.641   3.808 -0.7743 -0.3841  2.0297
 3903TIP3    H211716   2.632   1.787   3.775  1.7813 -0.3218  0.7222
 3904TIP3   OH211717   4.236   5.186   1.317  0.7557 -0.1027  0.2942
 3904TIP3    H111718   4.329   5.168   1.305  0.8207  0.0708  0.5435
 3904TIP3    H211719   4.197   5.099   1.331  0.7576 -0.2561 -0.5986
 3905TIP3   OH211720   2.085   4.234   1.475  0.1711 -0.3059  0.7535
 3905TIP3    H111721   2.055   4.231   1.384 -1.1784  0.0565  1.1671
 3905TIP3    H211722   2.062   4.322   1.505  1.9938  0.1050  1.0071
 3906TIP3   OH211723   0.861   3.795   3.670  0.0698  0.4766 -0.0988
 3906TIP3    H111724   0.858   3.890   3.667 -1.8338  0.4381 -0.9044
 3906TIP3    H211725   0.778   3.770   3.712  0.0593 -0.8364 -0.8461
 3907TIP3   OH211726   3.128   4.915   3.121 -0.3716 -0.3260 -0.6739
 3907TIP3    H111727   3.160   4.956   3.041  1.0990 -0.6104 -0.2559
 3907TIP3    H211728   3.033   4.922   3.115 -0.2180  2.3319 -1.0171
 3908TIP3   OH211729   4.124   0.015   0.542  0.1784  0.0381 -0.6523
 3908TIP3    H111730   4.138   0.097   0.589  2.6193 -1.3341  1.2609
 3908TIP3    H211731   4.076  -0.040   0.604 -0.2664 -0.4209 -1.3936
 3909TIP3   OH211732   0.048   3.897   1.587  0.3409  0.0556  0.1283
 3909TIP3    H111733   0.000   3.874   1.507 -2.6990  0.6500  1.6490
 3909TIP3    H211734   0.095   3.817   1.610  0.3185 -0.4983 -1.5708
 3910TIP3   OH211735   2.365   3.077   4.834  0.3132 -0.2633 -0.1319
 3910TIP3    H111736   2.395   3.145   4.774  2.4672 -1.4729 -0.5500
 3910TIP3    H211737   2.420   3.088   4.912 -0.0828 -0.8368  0.2335
 3911TIP3   OH211738   5.564   1.286   3.733 -0.6835 -0.5345  0.3025
 3911TIP3    H111739   5.565   1.318   3.823 -1.4523  0.4882 -0.0348
 3911TIP3    H211740   5.631   1.338   3.688  1.0806 -2.3400  0.6587
 3912TIP3   OH211741   5.086   0.022   4.299 -0.3127  0.0649  0.6695
 3912TIP3    H111742   5.097  -0.021   4.384 -1.4810 -1.2187  0.2128
 3912TIP3    H211743   5.148   0.095   4.300  0.2883 -0.4382  2.2815
 3913TIP3   OH211744   2.870   5.789   3.737 -0.4644 -0.7160 -0.1778
 3913TIP3    H111745   2.849   5.703   3.701  1.1277 -1.0101 -0.4809
 3913TIP3    H211746   2.790   5.841   3.725 -1.9681 -2.5416  1.3232
 3914TIP3   OH211747   3.907   1.067   0.319 -0.1275 -0.1337  0.7388
 3914TIP3    H111748   3.922   1.093   0.229  0.3586 -1.5928  0.3812
 3914TIP3    H211749   3.952   0.984   0.329 -1.7963 -0.9805  1.7566
 3915TIP3   OH211750   2.793   3.152   4.185 -0.3208  0.0001  0.2438
 3915TIP3    H111751   2.876   3.105   4.178 -0.4688 -0.1939 -0.2391
 3915TIP3    H211752   2.783   3.168   4.279 -0.5193 -1.4142  0.4936
 3916TIP3   OH211753   2.785   2.500   1.155 -0.2206 -0.1799 -0.0906
 3916TIP3    H111754   2.710   2.558   1.157 -1.0978 -1.2707 -0.2265
 3916TIP3    H211755   2.852   2.548   1.106  0.6971  2.5163  3.4458
 3917TIP3   OH211756   3.350   5.605   1.847 -0.0208  0.2116  0.4369
 3917TIP3    H111757   3.428   5.608   1.791 -1.0126  0.4944 -0.9757
 3917TIP3    H211758   3.277   5.609   1.786 -1.1582 -0.3243  1.7229
 3918TIP3   OH211759   5.107   5.433   4.868  0.2593 -0.2770  0.0308
 3918TIP3    H111760   5.090   5.521   4.836  0.1947  0.3412  1.6600
 3918TIP3    H211761   5.081   5.435   4.960  1.1614 -1.7254  0.3565
 3919TIP3   OH211762   5.037   4.649   0.220  0.5896  0.6290  0.4080
 3919TIP3    H111763   5.067   4.682   0.305  0.1369  0.2527  0.7223
 3919TIP3    H211764   4.943   4.665   0.219  0.5978  0.6736 -0.0482
 3920TIP3   OH211765   6.102   5.624   3.493  0.1783 -0.2309  0.5333
 3920TIP3    H111766   6.135   5.535   3.506  1.4450  0.0923 -0.2715
 3920TIP3    H211767   6.032   5.615   3.428  0.2786 -0.6357  0.4798
 3921TIP3   OH211768   1.052   0.935   2.507  0.0075  0.0459 -0.3773
 3921TIP3    H111769   1.036   0.840   2.500  0.4333  0.0329 -1.3048
 3921TIP3    H211770   0.990   0.964   2.573 -0.0556 -0.9037  0.0016
 3922TIP3   OH211771   1.737   3.617   0.777  0.0168  0.2147 -0.2475
 3922TIP3    H111772   1.806   3.652   0.833 -0.4089 -1.9139  1.7852
 3922TIP3    H211773   1.779   3.544   0.731 -0.7636 -1.0036  0.8971
 3923TIP3   OH211774   1.961   0.997   2.254 -0.0525  0.3468  0.1005
 3923TIP3    H111775   1.954   0.993   2.159 -2.8243  2.4049  0.0732
 3923TIP3    H211776   2.019   1.072   2.271  0.7719 -0.2710  0.0730
 3924TIP3   OH211777   5.697   2.154   0.515 -0.1434  1.2016 -0.0683
 3924TIP3    H111778   5.618   2.104   0.493 -0.3774  1.3182  0.4875
 3924TIP3    H211779   5.710   2.138   0.609  1.5044 -0.2221 -0.5065
 3925TIP3   OH211780   2.709   3.527   1.100  0.2629 -0.1041 -0.0217
 3925TIP3    H111781   2.710   3.505   1.006 -0.0215 -1.1952  0.2151
 3925TIP3    H211782   2.617   3.534   1.122  0.2718 -1.4773  0.5246
 3926TIP3   OH211783   3.786   1.094   1.115  0.2624 -0.2190 -0.1010
 3926TIP3    H111784   3.830   1.178   1.103  1.0188 -0.5395  0.3448
 3926TIP3    H211785   3.853   1.037   1.151 -0.2552 -1.0087 -0.3601
 3927TIP3   OH211786   0.877   5.775   0.817 -0.4343  0.0377  0.0701
 3927TIP3    H111787   0.859   5.811   0.904 -1.0322 -0.2982  0.0924
 3927TIP3    H211788   0.935   5.838   0.776 -2.4985  1.7308 -0.3992
 3928TIP3   OH211789   2.313   2.305   4.924  0.2793  0.2472 -0.3569
 3928TIP3    H111790   2.321   2.209   4.917  3.1550 -0.0566  3.5523
 3928TIP3    H211791   2.401   2.337   4.903  0.4839  1.5457  2.1154
 3929TIP3   OH211792   5.201   2.114   4.593  0.2536 -0.0229  0.1991
 3929TIP3    H111793   5.284   2.161   4.591 -0.0585  0.5164 -0.2396
 3929TIP3    H211794   5.135   2.180   4.613 -0.3475 -0.0111 -1.6203
 3930TIP3   OH211795   0.143   5.468   2.662  0.0438 -1.1781  0.0358
 3930TIP3    H111796   0.054   5.473   2.626  0.1838  1.6855 -0.1702
 3930TIP3    H211797   0.181   5.554   2.643  2.9287 -2.3571  0.0149
 3931TIP3   OH211798   1.070   0.102   0.817 -0.3609  0.7726 -0.3763
 3931TIP3    H111799   1.024   0.060   0.890 -0.0688  0.4284 -0.3881
 3931TIP3    H211800   1.035   0.191   0.815  1.0416  1.4286  1.4424
 3932TIP3   OH211801   2.852   5.973   1.916 -0.4945  0.0838 -0.1232
 3932TIP3    H111802   2.882   6.001   1.830  0.6524  0.1319  0.2615
 3932TIP3    H211803   2.923   5.917   1.949 -0.0569  1.4932  1.5006
 3933TIP3   OH211804   0.806   4.163   0.679  0.5227 -0.9046  0.3917
 3933TIP3    H111805   0.731   4.106   0.696  0.1993  0.1329  2.8468
 3933TIP3    H211806   0.882   4.112   0.707  0.7732 -1.7517 -1.6090
 3934TIP3   OH211807   2.803   0.035   3.261  0.0543  0.8467  0.4132
 3934TIP3    H111808   2.874   0.059   3.202 -1.8751 -0.6020 -2.7263
 3934TIP3    H211809   2.819  -0.057   3.282 -0.6335  0.6420  0.0566
 3935TIP3   OH211810   6.212   3.601   5.012  0.1656  0.2312 -0.1410
 3935TIP3    H111811   6.224   3.554   4.930  1.5488 -0.9433  0.6693
 3935TIP3    H211812   6.283   3.665   5.013 -0.4504  0.9169 -0.3063
 3936TIP3   OH211813   0.446   2.669   1.978  0.4808  0.0111 -0.7239
 3936TIP3    H111814   0.394   2.629   1.908 -0.8752  1.7656 -0.7986
 3936TIP3    H211815   0.496   2.596   2.015 -1.0725 -1.5293 -1.4966
 3937TIP3   OH211816   0.942   1.336   2.279  0.0827  0.1185 -0.5492
 3937TIP3    H111817   0.945   1.242   2.265 -1.3395 -0.0628  0.2395
 3937TIP3    H211818   1.033   1.365   2.268  0.4337 -1.2383 -1.3935
 3938TIP3   OH211819   0.729   0.594   0.543 -0.3667 -0.4853  0.2016
 3938TIP3    H111820   0.666   0.664   0.528  0.7359  0.1184 -1.9540
 3938TIP3    H211821   0.728   0.582   0.638 -1.6899  1.3996  0.4894
 3939TIP3   OH211822   4.502   0.450   0.414 -0.8618 -0.0178  0.1382
 3939TIP3    H111823   4.537   0.362   0.428 -1.3190 -0.6818 -2.4407
 3939TIP3    H211824   4.574   0.509   0.437 -0.5293 -1.0196  1.8339
 3940TIP3   OH211825   5.441   4.492   4.807  0.7555 -0.4697  0.0708
 3940TIP3    H111826   5.398   4.429   4.865  2.0592 -0.4238  1.1212
 3940TIP3    H211827   5.522   4.516   4.852  0.0409  2.4385  0.0167
 3941TIP3   OH211828   5.830   0.189   1.963 -1.0167 -0.1915  0.1947
 3941TIP3    H111829   5.905   0.152   2.011 -0.6532  0.6051  0.2560
 3941TIP3    H211830   5.867   0.263   1.914 -1.8581  0.5474  0.6418
 3942TIP3   OH211831   0.364   4.665   2.176 -0.8334 -0.5329  0.0609
 3942TIP3    H111832   0.359   4.585   2.123  1.2262 -0.7152  0.0554
 3942TIP3    H211833   0.277   4.704   2.170 -0.9772 -1.1161 -2.5637
 3943TIP3   OH211834   3.563   0.284   0.435 -0.1346  0.1519  0.9764
 3943TIP3    H111835   3.656   0.262   0.429 -0.1251 -0.4307  2.7443
 3943TIP3    H211836   3.556   0.338   0.514 -1.2607  0.4725  0.6825
 3944TIP3   OH211837   5.801   1.441   2.951 -0.6251  0.2809  0.1796
 3944TIP3    H111838   5.758   1.356   2.962 -0.2373  0.0079 -0.4113
 3944TIP3    H211839   5.881   1.422   2.902 -0.4032  0.9510  0.2707
 3945TIP3   OH211840   2.590   0.084   2.807 -0.0346  0.1206  0.3678
 3945TIP3    H111841   2.659   0.019   2.822 -0.8068 -0.3254  2.4135
 3945TIP3    H211842   2.595   0.103   2.714  1.9407 -0.9124  0.1988
 3946TIP3   OH211843   5.591   2.847   0.567 -0.7500  0.0203  0.4555
 3946TIP3    H111844   5.589   2.785   0.494 -0.5861 -1.1627  1.4112
 3946TIP3    H211845   5.594   2.933   0.526  0.4610 -0.6466 -0.9471
 3947TIP3   OH211846   4.716   4.981   3.261  0.2985 -0.0451  0.1724
 3947TIP3    H111847   4.702   5.031   3.181 -0.5195  0.6152  0.7210
 3947TIP3    H211848   4.684   5.037   3.331  2.4583  0.0543  1.1552
 3948TIP3   OH211849   6.055   4.544   0.950 -0.0551 -0.2710 -0.0806
 3948TIP3    H111850   6.061   4.609   0.881 -1.5857 -0.8370 -0.8020
 3948TIP3    H211851   6.042   4.595   1.030  0.2263  0.3386 -0.4174
 3949TIP3   OH211852   3.108   5.820   2.725  0.1537 -0.3185 -0.4105
 3949TIP3    H111853   3.153   5.862   2.652  1.0421  1.2080  0.9278
 3949TIP3    H211854   3.146   5.732   2.728  1.0579  0.0260 -1.0083
 3950TIP3   OH211855   4.540   2.417   2.530 -0.5753  0.4763  0.2135
 3950TIP3    H111856   4.509   2.385   2.445 -0.3263 -0.2606  0.3881
 3950TIP3    H211857   4.632   2.441   2.514  0.4916 -2.6157  0.9308
 3951TIP3   OH211858   2.670   0.111   2.033  0.2922  0.1162 -0.9097
 3951TIP3    H111859   2.729   0.085   2.104 -0.4882 -0.2200 -0.3719
 3951TIP3    H211860   2.671   0.206   2.035  2.9331  0.2288 -2.6913
 3952TIP3   OH211861   0.254   3.511   1.136  0.1446  0.0907  0.8241
 3952TIP3    H111862   0.276   3.490   1.046  0.7943  0.5054  0.8782
 3952TIP3    H211863   0.180   3.572   1.129 -0.2423 -0.4056  0.5958
 3953TIP3   OH211864   0.053   5.814   2.280  0.0643  0.0144 -0.2601
 3953TIP3    H111865   0.084   5.902   2.260  1.6347 -0.6073 -0.6971
 3953TIP3    H211866   0.014   5.821   2.367 -0.3255  1.2366 -0.5138
 3954TIP3   OH211867   5.215   2.281   3.751 -0.6917  0.1801 -0.2674
 3954TIP3    H111868   5.223   2.188   3.770 -0.9091 -0.0391 -1.1651
 3954TIP3    H211869   5.122   2.300   3.766 -0.3417  0.6511  1.5128
 3955TIP3   OH211870   2.352   2.629   1.158 -0.3556  0.0263 -0.4350
 3955TIP3    H111871   2.287   2.683   1.113  1.4474  3.2880  0.5576
 3955TIP3    H211872   2.426   2.624   1.096 -0.3743 -1.1538 -0.3912
 3956TIP3   OH211873   0.786   2.199   3.201 -0.3468 -0.3780 -0.2984
 3956TIP3    H111874   0.815   2.125   3.148 -0.3778 -0.9533  0.4681
 3956TIP3    H211875   0.703   2.226   3.162  0.8574  0.8821 -2.1381
 3957TIP3   OH211876   5.389   1.162   0.521 -0.1414 -0.1649 -0.4251
 3957TIP3    H111877   5.379   1.238   0.578  2.1180  0.9783 -1.4320
 3957TIP3    H211878   5.435   1.097   0.575 -2.4001 -1.0575  0.5550
 3958TIP3   OH211879   0.872   0.126   1.571 -0.6187  0.6566 -0.3767
 3958TIP3    H111880   0.947   0.123   1.512 -0.1085  0.0428  0.2823
 3958TIP3    H211881   0.886   0.206   1.622 -0.1993  0.3430  0.0077
 3959TIP3   OH211882   4.288   1.223   2.422 -0.1045  0.2606  0.2626
 3959TIP3    H111883   4.375   1.190   2.446  0.8645  1.4829 -1.3458
 3959TIP3    H211884   4.250   1.254   2.504  0.4325 -1.4370  1.2114
 3960TIP3   OH211885   4.902   3.386   2.416 -0.6204 -0.0178  0.1479
 3960TIP3    H111886   4.969   3.408   2.351  1.4592 -3.1102  0.9883
 3960TIP3    H211887   4.927   3.438   2.493 -0.0803 -0.0101 -0.0232
 3961TIP3   OH211888   5.936   2.872   5.172  0.0029  0.1016 -0.0971
 3961TIP3    H111889   5.932   2.887   5.078  0.2395  1.8718  0.1499
 3961TIP3    H211890   5.959   2.957   5.210  0.4305 -0.6862  1.5263
 3962TIP3   OH211891   4.747   3.945   4.431  0.1291  0.0526  0.4757
 3962TIP3    H111892   4.728   4.007   4.502 -1.0925  0.3091 -0.0618
 3962TIP3    H211893   4.676   3.881   4.436 -0.2021  0.3061 -0.7666
 3963TIP3   OH211894   1.485   3.974   1.656  0.1092 -0.0357  0.2869
 3963TIP3    H111895   1.528   4.027   1.589  0.5444 -0.2656  0.3758
 3963TIP3    H211896   1.439   3.906   1.606  1.1707 -0.7478  0.2425
 3964TIP3   OH211897   2.760   3.349   2.371 -0.1525  0.9630  0.4617
 3964TIP3    H111898   2.727   3.260   2.359  0.8008  0.7009 -0.3223
 3964TIP3    H211899   2.688   3.405   2.343  0.1532  0.3982 -1.5798
 3965TIP3   OH211900   0.926   5.952   4.015  0.2325 -0.2934 -0.3082
 3965TIP3    H111901   0.994   5.885   4.023 -1.7847 -2.3467  0.9813
 3965TIP3    H211902   0.911   5.960   3.921 -2.3368 -5.0255 -0.6496
 3966TIP3   OH211903   3.156   1.781   3.802  0.1760  0.6633  0.4932
 3966TIP3    H111904   3.148   1.796   3.897 -1.8281 -1.7408  0.8157
 3966TIP3    H211905   3.204   1.698   3.795  0.0774  0.6856 -0.5950
 3967TIP3   OH211906   0.371   4.478   1.127  0.0349 -0.2290 -0.4596
 3967TIP3    H111907   0.344   4.550   1.069  0.7778 -0.3125 -0.9204
 3967TIP3    H211908   0.463   4.496   1.145 -0.2596 -0.0229  0.9812
 3968TIP3   OH211909   1.618   4.405   2.546 -0.7093 -0.1791  0.3476
 3968TIP3    H111910   1.643   4.320   2.581  0.0360 -0.4635 -0.8669
 3968TIP3    H211911   1.700   4.453   2.536 -0.8499 -0.2719 -1.4413
 3969TIP3   OH211912   0.838   1.428   3.298 -0.5724  0.4414  0.3455
 3969TIP3    H111913   0.770   1.433   3.365 -0.3656 -3.2702  1.0252
 3969TIP3    H211914   0.804   1.365   3.235  2.1549 -1.5830  0.7497
 3970TIP3   OH211915   1.484   3.119   3.804  0.1854 -0.1676  0.1189
 3970TIP3    H111916   1.402   3.070   3.803  0.3135 -0.5090  2.1448
 3970TIP3    H211917   1.482   3.171   3.723 -0.8888 -1.9588 -1.0851
 3971TIP3   OH211918   5.296   2.941   4.951  0.4388 -0.1040 -0.6313
 3971TIP3    H111919   5.311   2.896   4.868 -0.7986 -0.4726 -0.6813
 3971TIP3    H211920   5.220   2.896   4.988  1.3625 -0.3865  1.0139
 3972TIP3   OH211921   2.091   5.080   0.073  0.0968  0.2821  0.1639
 3972TIP3    H111922   1.997   5.080   0.091 -0.1621 -0.7022 -1.0199
 3972TIP3    H211923   2.097   5.092  -0.022  1.1797  0.5129  0.2491
 3973TIP3   OH211924   2.099   1.593   0.512 -0.1422  0.4125 -0.2917
 3973TIP3    H111925   2.188   1.567   0.536 -0.0378  1.2418  0.2568
 3973TIP3    H211926   2.108   1.682   0.478 -0.6657  0.2311 -0.9238
 3974TIP3   OH211927   5.787   4.220   3.735 -0.2764  0.0350  0.3048
 3974TIP3    H111928   5.691   4.225   3.731 -0.2802 -0.5716 -0.6588
 3974TIP3    H211929   5.816   4.249   3.649  0.3806 -0.5129  0.3342
 3975TIP3   OH211930   1.689   3.330   1.422 -0.3972 -0.0719  0.5012
 3975TIP3    H111931   1.770   3.344   1.373 -0.7634 -3.2317 -1.2931
 3975TIP3    H211932   1.622   3.317   1.355 -1.5454 -1.5653  1.8482
 3976TIP3   OH211933   4.078   3.937   3.334  0.1379 -0.7949 -0.0845
 3976TIP3    H111934   4.164   3.921   3.293  0.4559  1.7069 -0.5534
 3976TIP3    H211935   4.093   3.920   3.427  1.2169 -0.2050 -0.1304
 3977TIP3   OH211936   6.085   0.384   2.991 -0.2620 -0.3741  0.6345
 3977TIP3    H111937   6.081   0.427   2.906  0.9884 -0.0691  0.7006
 3977TIP3    H211938   6.132   0.446   3.047 -0.8522 -0.6698  1.4839
 3978TIP3   OH211939   2.440   2.082   1.649 -0.2515 -0.1965  0.2421
 3978TIP3    H111940   2.535   2.090   1.663 -0.2339 -0.7979  0.4569
 3978TIP3    H211941   2.432   2.025   1.573 -0.4206  0.7390 -0.4589
 3979TIP3   OH211942   5.271   1.654   0.474 -0.4259  0.1416  0.2712
 3979TIP3    H111943   5.294   1.642   0.566 -0.4967 -1.7920  0.0730
 3979TIP3    H211944   5.340   1.608   0.426 -0.1102  1.5420 -0.7020
 3980TIP3   OH211945   0.699   2.161   5.143  0.1130  0.3285  0.0291
 3980TIP3    H111946   0.721   2.249   5.174 -1.3099  1.0147 -0.7707
 3980TIP3    H211947   0.759   2.146   5.070  0.0142  0.8663 -0.1678
 3981TIP3   OH211948   3.239   0.899   4.590  0.5066 -0.0245  0.2574
 3981TIP3    H111949   3.147   0.891   4.616 -0.0554  0.8676 -1.3249
 3981TIP3    H211950   3.270   0.977   4.636 -0.0113  0.6115 -0.4478
 3982TIP3   OH211951   1.249   5.610   3.429 -0.2035  0.0884 -0.7633
 3982TIP3    H111952   1.180   5.621   3.495  0.2980 -0.4346 -0.1260
 3982TIP3    H211953   1.216   5.654   3.351 -1.1359  0.0823 -0.3840
 3983TIP3   OH211954   4.166   3.296   3.140  0.1862 -0.1647 -0.2256
 3983TIP3    H111955   4.195   3.322   3.053  0.0192  0.3067 -0.1417
 3983TIP3    H211956   4.148   3.202   3.132  2.5988 -0.7200 -0.0644
 3984TIP3   OH211957   1.685   0.586   5.133 -0.3271  0.2363 -0.2568
 3984TIP3    H111958   1.738   0.536   5.196 -0.4318  1.6204  0.9720
 3984TIP3    H211959   1.667   0.523   5.063 -0.8962 -1.6238  1.4604
 3985TIP3   OH211960   5.856   3.096   0.957 -0.6168  0.0031 -0.1611
 3985TIP3    H111961   5.880   3.024   0.899  1.5126  0.6225 -0.1199
 3985TIP3    H211962   5.783   3.062   1.009  1.8203 -3.0881  1.5892
 3986TIP3   OH211963   2.339   0.797   4.393 -0.5115  0.4370 -0.0562
 3986TIP3    H111964   2.315   0.736   4.463 -1.4808  0.6887 -0.1431
 3986TIP3    H211965   2.360   0.741   4.318  1.4768  0.1328  0.6876
 3987TIP3   OH211966   5.534   2.356   1.322 -0.0277  0.2132  0.2557
 3987TIP3    H111967   5.548   2.261   1.328  1.4288  0.3649 -0.3818
 3987TIP3    H211968   5.570   2.380   1.237  1.0162  1.5604  1.0438
 3988TIP3   OH211969   1.101   2.762   2.610  0.3278  0.0592 -0.4574
 3988TIP3    H111970   1.092   2.836   2.669  0.3707 -0.5015  0.2574
 3988TIP3    H211971   1.166   2.790   2.546 -0.5942  1.1288 -0.9694
 3989TIP3   OH211972   0.403   3.602   3.483 -0.3243 -0.1799 -0.2760
 3989TIP3    H111973   0.393   3.624   3.576 -1.9893 -1.7872 -0.0140
 3989TIP3    H211974   0.336   3.654   3.439 -2.8356 -2.8669  0.0929
 3990TIP3   OH211975   3.607   2.220   1.769 -0.1270  0.0822 -0.0281
 3990TIP3    H111976   3.680   2.166   1.801  1.0136 -0.1324 -2.6926
 3990TIP3    H211977   3.622   2.226   1.675 -2.1379  2.2597 -0.2904
 3991TIP3   OH211978   1.354   5.037   0.579 -0.2129  0.0745  0.5322
 3991TIP3    H111979   1.277   5.093   0.569  0.5708  0.8871 -1.4342
 3991TIP3    H211980   1.371   5.037   0.674 -1.8955  0.8626  0.8632
 3992TIP3   OH211981   5.389   1.234   3.531 -0.1711 -0.4300  0.1108
 3992TIP3    H111982   5.454   1.234   3.601  0.7047 -1.7729 -0.6644
 3992TIP3    H211983   5.330   1.161   3.553 -0.7194  0.0182  0.1671
 3993TIP3   OH211984   1.215   0.968   3.575 -0.2174  0.2794  0.6500
 3993TIP3    H111985   1.204   1.063   3.574  0.7488  0.4134  1.6029
 3993TIP3    H211986   1.309   0.954   3.588 -0.2536 -0.8172 -0.0809
 3994TIP3   OH211987   3.269   1.372   2.875  0.1115  0.1435 -0.3007
 3994TIP3    H111988   3.319   1.353   2.796 -0.1962 -0.8230 -0.2843
 3994TIP3    H211989   3.178   1.353   2.851 -0.1148  0.8767 -0.0278
 3995TIP3   OH211990   2.164   4.075   5.115 -0.0196 -0.8352  0.3703
 3995TIP3    H111991   2.154   4.135   5.188  1.8264  0.8762 -0.6611
 3995TIP3    H211992   2.079   4.076   5.071 -0.7918 -0.9956  1.8293
 3996TIP3   OH211993   1.217   4.762   0.969 -0.2421  0.6357 -0.2777
 3996TIP3    H111994   1.132   4.770   0.924 -0.4112 -0.2739 -0.1300
 3996TIP3    H211995   1.277   4.733   0.900 -0.2753  0.2675 -0.1523
 3997TIP3   OH211996   5.328   1.610   3.562 -0.3361  0.2954 -0.0724
 3997TIP3    H111997   5.401   1.641   3.507 -0.0230 -0.1709  0.0755
 3997TIP3    H211998   5.329   1.515   3.552 -1.9526  0.3622 -1.3503
 3998TIP3   OH211999   0.180   4.874   2.828 -0.2331 -0.1723  0.3172
 3998TIP3    H112000   0.192   4.806   2.762  1.0331 -1.9154  2.2238
 3998TIP3    H212001   0.263   4.922   2.828 -0.6592  0.5770 -0.1462
 3999TIP3   OH212002   3.392   4.721   1.081  0.3685 -0.0113  0.7068
 3999TIP3    H112003   3.411   4.712   1.175 -0.6634 -0.9130  0.8608
 3999TIP3    H212004   3.362   4.811   1.071  0.5898  0.1260  1.2233
 4000TIP3   OH212005   0.397   2.995   4.977  0.2918 -0.1372  0.0122
 4000TIP3    H112006   0.379   2.950   5.059 -1.5991  1.6675  0.6597
 4000TIP3    H212007   0.312   2.998   4.932  0.9980  0.1664 -1.3659
 4001TIP3   OH212008   2.484   4.614   0.364 -0.5124  0.3536  0.3596
 4001TIP3    H112009   2.487   4.541   0.303 -1.5245  0.6583 -0.0775
 4001TIP3    H212010   2.526   4.686   0.318 -1.5761  0.6791 -0.1456
 4002TIP3   OH212011   6.041   4.714   4.324 -0.3274 -0.0985 -0.1228
 4002TIP3    H112012   6.002   4.632   4.354 -1.3968  0.2255 -0.5522
 4002TIP3    H212013   5.978   4.747   4.259 -0.4213  1.5661  0.7810
 4003TIP3   OH212014   4.831   4.333   0.724 -0.0988 -0.0764 -0.1173
 4003TIP3    H112015   4.810   4.287   0.805  0.0441 -1.0953 -0.6417
 4003TIP3    H212016   4.925   4.346   0.727  0.0245 -0.8496 -0.4875
 4004TIP3   OH212017   3.200   2.020   2.470  0.6494 -0.2638 -0.1830
 4004TIP3    H112018   3.187   1.946   2.529  1.0867 -0.3917 -0.2426
 4004TIP3    H212019   3.231   2.091   2.527  0.4305 -0.1873 -0.1579
 4005TIP3   OH212020   2.592   2.184   2.789 -0.1340 -0.6483  0.2442
 4005TIP3    H112021   2.499   2.185   2.765 -0.6025 -1.9730  1.7972
 4005TIP3    H212022   2.608   2.095   2.819  1.4106 -0.1906  0.9017
 4006TIP3   OH212023   5.805   1.481   1.011 -0.1110 -0.8123  0.4719
 4006TIP3    H112024   5.720   1.523   1.027  0.1052  0.3746 -1.2320
 4006TIP3    H212025   5.788   1.421   0.938  0.8086  0.5677 -0.9223
 4007TIP3   OH212026   5.169   1.421   1.247  0.2246 -0.1697  0.3361
 4007TIP3    H112027   5.119   1.351   1.289 -0.6843 -0.7824 -1.6569
 4007TIP3    H212028   5.113   1.499   1.255 -0.0746 -0.3497  0.0016
 4008TIP3   OH212029   5.821   4.758   2.646 -0.5656  0.5506  0.3214
 4008TIP3    H112030   5.886   4.828   2.651 -1.7844  1.9153 -1.7156
 4008TIP3    H212031   5.872   4.678   2.636  0.8644  1.0640  2.7863
 4009TIP3   OH212032   6.226   1.057   3.217  0.3719  0.8220  0.1950
 4009TIP3    H112033   6.269   1.106   3.287 -0.4616  1.6115  0.1833
 4009TIP3    H212034   6.145   1.106   3.201 -0.1428 -0.1723 -0.3142
 4010TIP3   OH212035   2.510   5.813   4.256  0.5465 -0.2121 -0.0893
 4010TIP3    H112036   2.546   5.798   4.344 -1.1359 -0.9635  0.5152
 4010TIP3    H212037   2.523   5.730   4.211 -1.8969 -1.1208  0.7230
 4011TIP3   OH212038   4.790   0.552   2.510 -0.1006 -0.2510  0.0262
 4011TIP3    H112039   4.841   0.614   2.563 -2.0178  1.7661 -0.3291
 4011TIP3    H212040   4.767   0.602   2.431 -2.7453 -0.9527  0.2613
 4012TIP3   OH212041   1.465   3.662   2.896  0.4867  0.0355 -1.2089
 4012TIP3    H112042   1.440   3.750   2.925  0.3742 -0.2781 -0.3093
 4012TIP3    H212043   1.501   3.620   2.974 -3.2650 -2.1439 -0.3945
 4013TIP3   OH212044   0.323   1.615   4.524  0.5582  0.1578 -0.0542
 4013TIP3    H112045   0.307   1.666   4.445 -0.6662 -0.0278  0.0583
 4013TIP3    H212046   0.365   1.677   4.584  4.1928 -0.4200 -1.7695
 4014TIP3   OH212047   3.063   1.396   0.498 -1.1404 -0.2654 -0.1316
 4014TIP3    H112048   2.978   1.434   0.523 -1.0505  1.4666 -2.2216
 4014TIP3    H212049   3.121   1.471   0.491  0.1501 -1.2617 -0.3829
 4015TIP3   OH212050   2.083   4.974   2.507  0.0495  0.3306 -0.8443
 4015TIP3    H112051   2.047   4.918   2.576 -1.2634 -1.6388 -2.9630
 4015TIP3    H212052   2.072   5.063   2.539  0.3142 -0.5193  1.8174
 4016TIP3   OH212053   4.054   3.201   4.712 -0.2491 -0.3210 -0.2316
 4016TIP3    H112054   4.110   3.262   4.665 -0.2394  1.4257  1.9197
 4016TIP3    H212055   4.050   3.124   4.655  1.7594  0.6985 -1.8819
 4017TIP3   OH212056   0.979   3.858   4.502 -0.1176 -0.2674 -0.4076
 4017TIP3    H112057   0.894   3.892   4.473 -1.1673 -1.4842  1.0441
 4017TIP3    H212058   0.964   3.764   4.514  1.1329 -0.3431  0.8705
 4018TIP3   OH212059   5.446   2.279   2.175  0.0609  0.0764  0.0773
 4018TIP3    H112060   5.422   2.211   2.111  0.0037 -1.3788  1.5941
 4018TIP3    H212061   5.536   2.258   2.200  0.4580  1.2730 -0.2614
 4019TIP3   OH212062   5.937   2.661   2.391  0.1676 -0.3564  1.0122
 4019TIP3    H112063   5.848   2.638   2.363 -0.1139  2.7845 -1.2327
 4019TIP3    H212064   5.923   2.727   2.460  0.5736  1.7186 -0.7721
 4020TIP3   OH212065   3.562   5.708   0.523 -0.5788 -0.2306 -0.5156
 4020TIP3    H112066   3.616   5.787   0.532  0.8112 -0.9426 -2.0344
 4020TIP3    H212067   3.559   5.692   0.429 -3.4037 -0.3092 -0.4895
 4021TIP3   OH212068   5.674   3.509   0.024  0.6205  0.1322  0.2550
 4021TIP3    H112069   5.623   3.469   0.094  1.1180 -1.7604 -0.4025
 4021TIP3    H212070   5.733   3.440  -0.005  2.5553  1.7986 -0.0047
 4022TIP3   OH212071   6.345   4.511   1.239  0.0029  0.2769 -0.9050
 4022TIP3    H112072   6.356   4.436   1.297 -0.0200 -0.6028 -2.0085
 4022TIP3    H212073   6.368   4.587   1.293  0.6326 -0.5662  0.0403
 4023TIP3   OH212074   4.955   3.458   0.038 -0.0552 -0.0993  0.5397
 4023TIP3    H112075   4.945   3.547   0.072 -2.3546  0.5792 -1.6206
 4023TIP3    H212076   4.899   3.404   0.094 -0.2955  0.1742  0.5623
 4024TIP3   OH212077   3.784   1.458   0.403 -0.1067  0.0947  0.2600
 4024TIP3    H112078   3.713   1.412   0.359  0.1477  0.0708 -0.1269
 4024TIP3    H212079   3.757   1.550   0.401 -1.0918 -0.1118  1.9085
 4025TIP3   OH212080   0.963   6.011   0.304 -0.5234 -0.3756 -0.4709
 4025TIP3    H112081   0.917   5.989   0.223 -1.6117  0.0225  0.0225
 4025TIP3    H212082   1.027   5.940   0.315 -1.0155 -0.9372 -1.1744
 4026TIP3   OH212083   2.561   2.801   5.097  0.1117 -0.4622 -0.2590
 4026TIP3    H112084   2.618   2.868   5.134 -0.2073  0.2147 -0.9577
 4026TIP3    H212085   2.590   2.719   5.138  0.2152  0.1524  0.9403
 4027TIP3   OH212086   1.933   5.335   0.032  0.1893  0.0686  0.0562
 4027TIP3    H112087   1.934   5.423   0.071 -1.2899 -0.1981  0.7632
 4027TIP3    H212088   2.020   5.300   0.051  1.3987  1.9032 -1.5768
 4028TIP3   OH212089   4.994   4.963   3.343 -0.1102  0.2845 -0.1910
 4028TIP3    H112090   5.000   5.023   3.417  0.8539  3.3246 -2.5730
 4028TIP3    H212091   4.906   4.977   3.307 -0.1322 -0.2896 -0.3819
 4029TIP3   OH212092   4.465   3.714   1.432  0.0156  0.0985 -0.1772
 4029TIP3    H112093   4.459   3.622   1.409 -1.3737 -0.1303  0.9591
 4029TIP3    H212094   4.403   3.725   1.504  0.9715  1.6884  0.4555
 4030TIP3   OH212095   2.672   3.927   4.807  0.1541  0.4533 -1.0149
 4030TIP3    H112096   2.605   3.939   4.740  0.3333  0.7241 -1.1481
 4030TIP3    H212097   2.623   3.911   4.888 -0.0643  0.2711 -1.1811
 4031TIP3   OH212098   5.724   1.670   0.765 -0.2372  0.3946  0.1834
 4031TIP3    H112099   5.712   1.600   0.702 -1.8055 -0.5821  1.4751
 4031TIP3    H212100   5.640   1.716   0.766  0.0240  0.8737  0.9786
 4032TIP3   OH212101   2.805   0.868   3.935  0.1366 -0.1002  0.6808
 4032TIP3    H112102   2.742   0.901   3.999  0.3901  1.1053  0.3355
 4032TIP3    H212103   2.821   0.777   3.961 -0.8313 -0.0597  1.4750
 4033TIP3   OH212104   6.050   4.645   1.576 -0.1335 -0.1368 -0.1535
 4033TIP3    H112105   6.025   4.587   1.504 -1.5312  1.0791 -0.6807
 4033TIP3    H212106   6.146   4.650   1.569 -0.1535 -0.8432 -1.2837
 4034TIP3   OH212107   2.249   0.979   2.631 -0.0867 -0.4927 -0.3822
 4034TIP3    H112108   2.222   0.969   2.540 -1.8818 -2.0849  0.2620
 4034TIP3    H212109   2.169   1.003   2.678  0.5852 -0.6877  0.9177
 4035TIP3   OH212110   0.315   1.902   0.699  0.2424  0.1366 -0.1195
 4035TIP3    H112111   0.279   1.885   0.787 -2.3493 -1.9822 -1.4567
 4035TIP3    H212112   0.372   1.827   0.682  1.3674  0.9375 -0.0064
 4036TIP3   OH212113   6.029   3.929   3.914 -0.7703  0.0930  0.2971
 4036TIP3    H112114   5.970   3.864   3.950 -0.5104 -0.1972  0.2021
 4036TIP3    H212115   6.056   3.982   3.989  0.1903 -0.8421  0.6349
 4037TIP3   OH212116   5.549   1.236   4.703 -0.2861 -0.0764  0.5524
 4037TIP3    H112117   5.540   1.162   4.644  1.7278  0.0093  0.0714
 4037TIP3    H212118   5.464   1.281   4.699 -0.4378 -0.4872 -1.7208
 4038TIP3   OH212119   3.292   4.183   2.392  0.0976 -0.2358  0.1921
 4038TIP3    H112120   3.230   4.117   2.424 -0.4517  0.5497  0.8142
 4038TIP3    H212121   3.378   4.149   2.415 -0.1518 -0.9673  0.0560
 4039TIP3   OH212122   6.117   0.441   0.985 -0.4143 -0.0426 -0.1022
 4039TIP3    H112123   6.073   0.522   1.009  0.0104  0.5986 -1.3615
 4039TIP3    H212124   6.049   0.387   0.944 -0.0901  0.9588 -2.0734
 4040TIP3   OH212125   1.091   3.376   3.924 -0.2070 -0.3124 -0.4751
 4040TIP3    H112126   1.161   3.426   3.967  0.5118 -0.5639 -1.3240
 4040TIP3    H212127   1.063   3.432   3.852 -0.5223 -0.4429 -0.4541
 4041TIP3   OH212128   5.596   3.507   3.151  0.1532 -0.0866 -0.2779
 4041TIP3    H112129   5.646   3.585   3.174 -1.8018  0.5688  2.1652
 4041TIP3    H212130   5.642   3.436   3.197 -0.8523  0.4619  1.6884
 4042TIP3   OH212131   3.444   4.894   3.511  0.6161 -0.4493  0.0255
 4042TIP3    H112132   3.422   4.876   3.420 -0.3701 -0.0927  0.1872
 4042TIP3    H212133   3.525   4.945   3.506  0.7999 -0.7991 -0.6280
 4043TIP3   OH212134   4.701   5.849   3.734 -0.6764  0.5317  0.4518
 4043TIP3    H112135   4.607   5.865   3.740 -1.1610 -1.1826 -1.3933
 4043TIP3    H212136   4.724   5.805   3.816 -1.6159  0.4117  0.6592
 4044TIP3   OH212137   0.271   5.539   3.264 -0.4860  0.3309  0.2836
 4044TIP3    H112138   0.205   5.512   3.200 -0.3620  1.1186 -0.1869
 4044TIP3    H212139   0.233   5.515   3.348 -0.7460 -0.5260 -0.0644
 4045TIP3   OH212140   2.187   2.239   1.971 -0.1338  0.2087  0.0231
 4045TIP3    H112141   2.127   2.303   2.009 -2.2579 -0.5229 -1.8851
 4045TIP3    H212142   2.171   2.158   2.020 -0.3268  0.1536 -0.1287
 4046TIP3   OH212143   4.629   2.449   4.254  0.4611  0.2397  0.3063
 4046TIP3    H112144   4.595   2.502   4.181 -0.7164 -0.5833  0.2340
 4046TIP3    H212145   4.606   2.498   4.332  1.6168  1.0657  0.1584
 4047TIP3   OH212146   5.782   1.994   1.981 -0.3699 -0.1532  0.1523
 4047TIP3    H112147   5.736   2.016   2.062  0.2790  0.1037  0.4591
 4047TIP3    H212148   5.721   1.939   1.933 -1.4841  1.1472 -0.0000
 4048TIP3   OH212149   2.269   1.053   4.390 -0.1118  0.1134  0.0244
 4048TIP3    H112150   2.179   1.033   4.416  0.0500 -0.2949  0.2809
 4048TIP3    H212151   2.313   0.968   4.389  0.6822  0.4838  1.4641
 4049TIP3   OH212152   5.243   3.095   4.056 -0.3684  0.0392 -0.1166
 4049TIP3    H112153   5.264   3.147   4.134  0.1741 -0.5037  0.1084
 4049TIP3    H212154   5.231   3.006   4.089 -0.9219 -0.0530 -0.5510
 4050TIP3   OH212155   5.733   1.729   2.336  0.0003 -1.0187 -0.1302
 4050TIP3    H112156   5.675   1.752   2.263 -0.2486 -0.4084  0.2526
 4050TIP3    H212157   5.799   1.672   2.297 -0.3449 -0.9991 -0.7563
 4051TIP3   OH212158   2.592   5.448   5.171 -1.0106 -0.0130  0.6429
 4051TIP3    H112159   2.581   5.357   5.145  0.2622  0.5224 -2.1131
 4051TIP3    H212160   2.686   5.460   5.180 -1.0926  1.2562  0.0011
 4052TIP3   OH212161   2.542   0.101   3.736 -0.1585  0.0453 -0.0775
 4052TIP3    H112162   2.635   0.118   3.747  0.1899 -2.0134  0.5611
 4052TIP3    H212163   2.526   0.106   3.642  0.9794 -1.2921 -0.3618
 4053TIP3   OH212164   2.026   4.500   4.376 -0.0271  0.2545 -0.0180
 4053TIP3    H112165   2.024   4.594   4.392  1.9707  0.1995  0.7918
 4053TIP3    H212166   1.969   4.463   4.444 -0.4447  0.8299 -0.0491
 4054TIP3   OH212167   0.504   0.449   3.290 -0.4374  0.4624 -0.0552
 4054TIP3    H112168   0.534   0.510   3.358 -0.5873 -0.3417  0.7637
 4054TIP3    H212169   0.481   0.504   3.216 -1.3599  1.4849  0.9480
 4055TIP3   OH212170   0.648   4.548   1.124 -0.4732 -0.1190 -0.4649
 4055TIP3    H112171   0.648   4.629   1.072  0.5773 -0.1076 -0.4668
 4055TIP3    H212172   0.721   4.559   1.185 -0.5957 -0.8912 -0.1711
 4056TIP3   OH212173   3.246   5.955   2.510  0.2537  0.1222 -0.5514
 4056TIP3    H112174   3.229   6.035   2.462 -0.2526  0.2520 -0.1633
 4056TIP3    H212175   3.233   5.885   2.446 -1.3915  0.2312 -0.3915
 4057TIP3   OH212176   0.824   1.867   4.816  0.3362 -0.9135  0.1543
 4057TIP3    H112177   0.878   1.793   4.790  1.2334 -0.0628 -0.4938
 4057TIP3    H212178   0.807   1.914   4.735  0.3786 -0.0216  0.6463
 4058TIP3   OH212179   4.653   3.060   0.381 -0.1573 -0.1815 -0.3013
 4058TIP3    H112180   4.678   3.020   0.297  2.2609  0.1615  0.1680
 4058TIP3    H212181   4.724   3.037   0.440  0.2913  2.9550  0.5601
 4059TIP3   OH212182   1.892   5.580   4.359  0.4700  0.2166  0.0374
 4059TIP3    H112183   1.863   5.538   4.278  3.3757 -1.2115 -0.4184
 4059TIP3    H212184   1.852   5.528   4.429  1.3877 -1.3327 -0.5440
 4060TIP3   OH212185   0.901   3.135   2.594  0.1165  0.4398  0.5069
 4060TIP3    H112186   0.961   3.090   2.534  0.0125  1.2559 -0.2198
 4060TIP3    H212187   0.901   3.226   2.565 -1.4778  0.4689  0.4760
 4061TIP3   OH212188   3.904   5.696   3.426 -0.5768  0.1419 -0.5235
 4061TIP3    H112189   3.833   5.693   3.490  1.0866 -0.7237  1.4038
 4061TIP3    H212190   3.900   5.784   3.388 -1.3309  0.8583  1.1344
 4062TIP3   OH212191   0.606   1.893   4.580 -0.3122 -0.3052 -0.6502
 4062TIP3    H112192   0.674   1.875   4.515  1.9525  0.1945  1.4229
 4062TIP3    H212193   0.609   1.988   4.591 -2.0142 -0.1608 -1.1278
 4063TIP3   OH212194   5.078   5.555   1.168  0.2328 -0.0864  0.0830
 4063TIP3    H112195   5.072   5.550   1.263 -1.9818  0.3155  0.0265
 4063TIP3    H212196   4.988   5.572   1.139  0.9439  0.4072 -2.0494
 4064TIP3   OH212197   1.905   0.102   5.033 -0.3510  0.2954 -0.1133
 4064TIP3    H112198   1.917   0.117   5.126 -0.5262 -1.1378  0.1678
 4064TIP3    H212199   1.994   0.090   4.999 -0.3849 -1.5796  0.3453
 4065TIP3   OH212200   1.291   3.068   0.749  0.4736 -0.1872  0.0254
 4065TIP3    H112201   1.311   3.115   0.830 -0.8919 -1.4953  1.1750
 4065TIP3    H212202   1.206   3.028   0.764 -0.1097 -0.0046 -2.3034
 4066TIP3   OH212203   3.737   3.944   3.181  0.0950 -0.1333  0.3503
 4066TIP3    H112204   3.760   3.853   3.165  0.4258 -0.2156  1.2619
 4066TIP3    H212205   3.763   3.989   3.100 -0.3276 -0.8746 -0.2154
 4067TIP3   OH212206   3.808   5.792   4.620  0.1265  0.4090 -0.2560
 4067TIP3    H112207   3.883   5.789   4.560  0.1037  2.5513 -0.4930
 4067TIP3    H212208   3.820   5.875   4.667 -2.2349  0.9549 -0.4994
 4068TIP3   OH212209   0.115   3.926   1.234 -0.2508 -0.1374  0.4332
 4068TIP3    H112210   0.054   3.853   1.223  0.8408 -0.8980 -0.7962
 4068TIP3    H212211   0.060   4.004   1.235 -1.3084 -0.8682  0.3100
 4069TIP3   OH212212   1.840   1.508   0.528 -0.5969  0.2079 -0.8214
 4069TIP3    H112213   1.927   1.533   0.496 -0.5317 -0.3671 -1.1240
 4069TIP3    H212214   1.841   1.529   0.621  0.4865 -1.3246 -0.4353
 4070TIP3   OH212215   3.226   2.070   1.156  0.0984 -0.0499 -0.0230
 4070TIP3    H112216   3.221   2.142   1.093  0.6340 -0.1066 -0.1291
 4070TIP3    H212217   3.280   2.004   1.113  0.5481 -0.0468  0.5340
 4071TIP3   OH212218   3.200   1.557   0.052 -0.0455  0.0131  0.3507
 4071TIP3    H112219   3.285   1.513   0.052 -0.7409 -1.3930  0.2186
 4071TIP3    H212220   3.220   1.647   0.027  1.2728 -0.5752 -0.8726
 4072TIP3   OH212221   2.004   0.638   3.240 -0.4099 -0.2958 -0.3849
 4072TIP3    H112222   1.962   0.622   3.325  1.7190 -2.1040  0.4396
 4072TIP3    H212223   1.996   0.554   3.194 -0.6253  0.3533 -1.5651
 4073TIP3   OH212224   3.846   4.902   2.081  0.5647 -0.0001 -0.5475
 4073TIP3    H112225   3.828   4.893   2.175 -0.7767 -0.0711 -0.7917
 4073TIP3    H212226   3.852   4.812   2.049 -1.0530 -0.0261 -0.8747
 4074TIP3   OH212227   1.209   5.023   2.093  0.8101 -0.0956  0.9361
 4074TIP3    H112228   1.252   5.042   2.010 -0.3030 -1.5526 -0.0266
 4074TIP3    H212229   1.260   5.071   2.158  3.0722 -0.6904 -0.2948
 4075TIP3   OH212230   4.359   5.731   4.154 -0.1577  0.0581 -0.3189
 4075TIP3    H112231   4.285   5.790   4.155 -0.7227 -0.6270  1.4708
 4075TIP3    H212232   4.320   5.644   4.147  0.6287 -0.1964 -2.1897
 4076TIP3   OH212233   0.879   1.934   0.933  0.0617 -0.0143 -0.0064
 4076TIP3    H112234   0.962   1.949   0.887 -1.3923  1.1084 -2.4374
 4076TIP3    H212235   0.874   2.005   0.997  0.8384  0.0584 -0.0126
 4077TIP3   OH212236   0.869   1.667   3.505  0.2432 -0.0138  0.2392
 4077TIP3    H112237   0.948   1.624   3.538  1.0860  0.4695 -1.0583
 4077TIP3    H212238   0.895   1.758   3.490 -0.6680  0.2405  0.1277
 4078TIP3   OH212239   4.070   1.229   3.022 -0.6130 -0.1042 -0.0649
 4078TIP3    H112240   4.090   1.321   3.007 -1.3298  0.0833  0.0976
 4078TIP3    H212241   4.067   1.190   2.935  0.1225 -0.0731 -0.1117
 4079TIP3   OH212242   2.158   3.755   2.395 -0.3046 -0.1987  0.4502
 4079TIP3    H112243   2.072   3.796   2.391  0.3878  1.3091  0.2756
 4079TIP3    H212244   2.151   3.679   2.338 -1.1627  0.6087 -0.5644
 4080TIP3   OH212245   3.653   0.093   3.627  0.1457  0.4878 -0.4170
 4080TIP3    H112246   3.613   0.012   3.660 -0.1056 -0.1548 -2.1612
 4080TIP3    H212247   3.680   0.140   3.705  0.8380 -1.5574  0.6595
 4081TIP3   OH212248   4.635   1.485   2.655 -0.4399 -0.1981 -0.4936
 4081TIP3    H112249   4.545   1.455   2.645 -0.6045  0.4033 -0.8766
 4081TIP3    H212250   4.634   1.537   2.736  0.1308 -2.2343  0.8858
 4082TIP3   OH212251   4.135   5.824   0.782  0.6062 -0.2858  0.2227
 4082TIP3    H112252   4.214   5.770   0.778  0.4747 -0.4610 -0.0435
 4082TIP3    H212253   4.164   5.906   0.822  1.2148  0.1687 -1.0772
 4083TIP3   OH212254   1.628   2.042  -0.007  0.4333  0.2300 -0.1879
 4083TIP3    H112255   1.709   2.081   0.026  0.1049 -0.4563  1.5156
 4083TIP3    H212256   1.559   2.099   0.026  0.1658  0.5108 -1.1921
 4084TIP3   OH212257   4.626   3.717   0.666 -0.3709 -0.1860 -0.2707
 4084TIP3    H112258   4.542   3.727   0.711 -0.8189  1.3191 -1.3713
 4084TIP3    H212259   4.648   3.805   0.637  1.4751 -0.6111 -0.2519
 4085TIP3   OH212260   1.618   1.050   2.764 -0.4814 -0.9081  0.1068
 4085TIP3    H112261   1.598   1.123   2.705  0.7185 -1.1866 -0.6754
 4085TIP3    H212262   1.591   1.081   2.851  1.3310  1.0601  0.0393
 4086TIP3   OH212263   1.308   5.046   0.850 -0.3323 -0.1985 -0.0890
 4086TIP3    H112264   1.329   4.995   0.929 -0.4418  0.9670  0.7142
 4086TIP3    H212265   1.232   5.000   0.812 -1.3393  0.1463  1.4102
 4087TIP3   OH212266   2.646   1.424   4.566  0.0147  0.2726 -0.5363
 4087TIP3    H112267   2.568   1.398   4.517 -0.9512  0.4605  0.8471
 4087TIP3    H212268   2.642   1.371   4.646  2.0484 -0.7173 -1.0181
 4088TIP3   OH212269   5.426   3.114   2.314  0.0013 -0.1442 -0.3560
 4088TIP3    H112270   5.353   3.079   2.263  0.7539 -1.7506 -0.3785
 4088TIP3    H212271   5.492   3.138   2.249 -0.0486  0.2398 -0.2695
 4089TIP3   OH212272   0.785   5.770   1.878 -0.1106  0.2454 -0.5305
 4089TIP3    H112273   0.738   5.738   1.955  0.9016  0.8818  0.3867
 4089TIP3    H212274   0.747   5.722   1.805 -1.3363 -0.1290  0.3195
 4090TIP3   OH212275   5.630   1.257   1.856  0.4094  0.6629 -0.0751
 4090TIP3    H112276   5.657   1.320   1.923  0.8750  0.3243  0.0550
 4090TIP3    H212277   5.708   1.243   1.803  1.4848 -2.5842  2.0660
 4091TIP3   OH212278   3.183   2.112   0.794 -0.8109  0.3689  0.6904
 4091TIP3    H112279   3.160   2.195   0.835 -1.6290  0.2224  0.5447
 4091TIP3    H212280   3.245   2.136   0.725 -1.4937  0.9360  0.2638
 4092TIP3   OH212281   2.108   5.527   2.995  0.1253 -0.7080  0.6086
 4092TIP3    H112282   2.153   5.458   2.947  0.5429 -0.9416  1.3255
 4092TIP3    H212283   2.093   5.596   2.930 -2.0869 -2.2571 -0.6304
 4093TIP3   OH212284   1.692   2.067   1.909  0.4416  0.0294  0.1184
 4093TIP3    H112285   1.782   2.034   1.906  0.6093  0.5161 -0.3472
 4093TIP3    H212286   1.669   2.063   2.002  0.2023 -2.0201  0.0267
 4094TIP3   OH212287   3.714   3.189   1.219 -0.0377 -0.4174 -0.3255
 4094TIP3    H112288   3.631   3.220   1.181 -0.1296  0.2402  0.3888
 4094TIP3    H212289   3.688   3.119   1.279  0.0831 -1.2748 -1.2435
 4095TIP3   OH212290   4.341   4.992   2.362  0.4687  0.1467  0.1674
 4095TIP3    H112291   4.367   5.073   2.319  2.7563 -0.6342 -0.0297
 4095TIP3    H212292   4.290   5.021   2.438  0.3598  1.7049 -0.4542
 4096TIP3   OH212293   4.094   2.484   1.064  0.2699  0.3973 -0.2232
 4096TIP3    H112294   4.079   2.569   1.023  0.3790  1.3634  1.6342
 4096TIP3    H212295   4.128   2.505   1.151 -0.6209 -1.5199  0.6461
 4097TIP3   OH212296   2.359   0.013   1.459 -0.2070 -0.4485 -0.0742
 4097TIP3    H112297   2.340   0.084   1.520 -0.4406 -0.0753 -0.5760
 4097TIP3    H212298   2.280  -0.041   1.459 -0.2284 -0.4175 -0.0836
 4098TIP3   OH212299   0.621   3.781   4.107 -0.3162  0.8579 -0.2152
 4098TIP3    H112300   0.694   3.832   4.072 -0.0693  0.5441 -0.1626
 4098TIP3    H212301   0.659   3.696   4.128 -0.3368  1.1779  1.2755
 4099TIP3   OH212302   1.064   5.315   0.764 -0.4983 -0.3376  0.7021
 4099TIP3    H112303   1.087   5.295   0.854  1.4531  0.7439  0.5023
 4099TIP3    H212304   1.149   5.325   0.719 -1.3434  2.2170 -0.5238
 4100TIP3   OH212305   3.826   5.804   5.127  0.2216 -0.5055  0.2468
 4100TIP3    H112306   3.757   5.846   5.178 -1.2218 -0.0111 -1.9789
 4100TIP3    H212307   3.782   5.775   5.047  2.5798 -0.1301 -1.2784
 4101TIP3   OH212308   5.905   1.969   0.056  0.2894  0.5331 -0.3472
 4101TIP3    H112309   5.880   1.892   0.005  0.3871 -0.4422  1.0303
 4101TIP3    H212310   5.941   1.934   0.138  0.7266  2.0312  0.1456
 4102TIP3   OH212311   4.667   3.264   2.771 -0.1231 -0.1124  0.6128
 4102TIP3    H112312   4.588   3.309   2.739  0.0883 -0.0881  0.1210
 4102TIP3    H212313   4.681   3.192   2.710 -0.8848 -1.3278  1.8190
 4103TIP3   OH212314   0.824   5.837   1.457  0.4519  0.3734 -0.3172
 4103TIP3    H112315   0.887   5.895   1.501 -0.3108  0.0824  1.2060
 4103TIP3    H212316   0.739   5.880   1.469  0.0360 -0.4783 -0.1912
 4104TIP3   OH212317   0.979   3.029   2.826 -0.3155  0.2973  0.5577
 4104TIP3    H112318   0.944   3.095   2.766  0.5554  2.2667  2.0757
 4104TIP3    H212319   0.901   2.992   2.868 -0.7924  1.2860  0.5802
 4105TIP3   OH212320   4.248   2.965   3.645 -0.0640  0.1896  0.1289
 4105TIP3    H112321   4.194   2.890   3.621  1.6780 -1.6202  1.4631
 4105TIP3    H212322   4.188   3.028   3.684 -1.4340 -0.9669 -0.0613
 4106TIP3   OH212323   4.778   2.856   2.943  0.4665 -0.1301 -0.0167
 4106TIP3    H112324   4.781   2.931   3.002  2.2301 -1.2037  1.3894
 4106TIP3    H212325   4.833   2.790   2.986  1.5510 -1.1102 -2.6898
 4107TIP3   OH212326   3.980   4.863   0.269 -0.5982 -0.0903  0.0872
 4107TIP3    H112327   3.920   4.896   0.336  1.0393  0.9602  1.0851
 4107TIP3    H212328   4.067   4.875   0.306  0.2494 -2.3338 -0.9959
 4108TIP3   OH212329   5.621   3.527   2.448  0.0569  0.5450  0.0163
 4108TIP3    H112330   5.655   3.587   2.513  0.1246  1.1449 -0.5655
 4108TIP3    H212331   5.564   3.468   2.498  0.2406  0.8842  0.6397
 4109TIP3   OH212332   5.344   2.490   4.648 -0.0258 -0.3186 -0.5418
 4109TIP3    H112333   5.348   2.455   4.559 -2.3445 -1.4288 -0.3026
 4109TIP3    H212334   5.370   2.417   4.704  0.2551 -0.0030 -0.2601
 4110TIP3   OH212335   4.066   4.069   3.717 -0.3600  0.2555  0.5269
 4110TIP3    H112336   4.160   4.076   3.732 -0.1644  1.2861 -0.9858
 4110TIP3    H212337   4.028   4.059   3.805  1.0351  1.3398  1.2944
 4111TIP3   OH212338   4.517   3.276   1.219  0.8151 -0.2930  0.2271
 4111TIP3    H112339   4.471   3.256   1.136  0.8389 -1.2584  0.4342
 4111TIP3    H212340   4.525   3.191   1.262  2.6758 -0.1242  0.2780
 4112TIP3   OH212341   3.978   2.302   2.408 -0.0895  0.0530  0.0568
 4112TIP3    H112342   4.008   2.236   2.471 -1.1534  0.7892  1.3991
 4112TIP3    H212343   4.058   2.337   2.370  0.6189 -0.1762  1.2685
 4113TIP3   OH212344   0.747   1.545   1.762 -0.0858 -0.0777  0.2760
 4113TIP3    H112345   0.696   1.587   1.693  0.6093  1.7494  0.8050
 4113TIP3    H212346   0.708   1.458   1.771  0.0141 -0.5360 -2.6207
 4114TIP3   OH212347   4.438   5.169   4.622  0.1444 -0.6948 -0.2328
 4114TIP3    H112348   4.400   5.252   4.648 -1.5512 -1.2713 -0.7065
 4114TIP3    H212349   4.502   5.148   4.690 -0.5847  0.2128  0.7470
 4115TIP3   OH212350   0.304   5.757   4.031 -0.2259  0.5580  0.1707
 4115TIP3    H112351   0.388   5.712   4.038 -1.0839 -1.3649 -1.0514
 4115TIP3    H212352   0.304   5.794   3.942 -0.3881  1.1773  0.4237
 4116TIP3   OH212353   4.917   3.248   4.280  0.5167 -0.4909 -0.4103
 4116TIP3    H112354   4.993   3.254   4.339 -0.1585 -0.2010  0.4479
 4116TIP3    H212355   4.931   3.167   4.231  1.5124 -0.3110 -0.4488
 4117TIP3   OH212356   6.374   2.749   4.277  0.2032 -0.2661  0.4749
 4117TIP3    H112357   6.386   2.774   4.185  0.3239  1.5295  0.9556
 4117TIP3    H212358   6.291   2.788   4.302  1.3250  1.4305  1.8016
 4118TIP3   OH212359   4.969   5.364   3.228 -0.0080 -0.0410 -0.3222
 4118TIP3    H112360   4.933   5.375   3.141  1.6468 -0.0763 -1.0488
 4118TIP3    H212361   4.902   5.401   3.287 -0.6451  1.0413 -1.6703
 4119TIP3   OH212362   2.957   5.404   1.592  0.0461  0.5180 -0.5210
 4119TIP3    H112363   2.879   5.355   1.566 -0.6341 -0.1300  2.3286
 4119TIP3    H212364   3.015   5.338   1.629  0.3037  1.4471  0.8319
 4120TIP3   OH212365   3.970   0.771   0.763 -0.0783  0.0835 -0.4085
 4120TIP3    H112366   4.011   0.831   0.825 -1.6228  1.2197 -0.4147
 4120TIP3    H212367   3.908   0.826   0.715 -0.3180 -1.1828 -1.6107
 4121TIP3   OH212368   1.451   2.534   0.191  0.1671  0.8059 -0.6449
 4121TIP3    H112369   1.368   2.504   0.230  0.1900  0.5218 -0.8167
 4121TIP3    H212370   1.442   2.514   0.098  1.3037 -1.2515 -0.3655
 4122TIP3   OH212371   0.861   2.690   4.598  0.4664 -0.0707 -0.2226
 4122TIP3    H112372   0.915   2.716   4.673  0.9289 -1.0793 -0.1831
 4122TIP3    H212373   0.899   2.738   4.524 -0.1375  1.1093  0.2044
 4123TIP3   OH212374   4.267   3.988   4.030 -0.0051  0.0126 -0.5801
 4123TIP3    H112375   4.265   3.922   3.961 -1.8007 -1.3736  0.7052
 4123TIP3    H212376   4.357   3.988   4.060 -0.0436 -2.2950 -0.2657
 4124TIP3   OH212377   6.024   4.713   3.289  0.1351  0.0015 -0.2561
 4124TIP3    H112378   5.961   4.778   3.258 -0.0801  0.0689  0.3070
 4124TIP3    H212379   6.104   4.732   3.241 -0.8233 -1.3619 -2.5047
 4125TIP3   OH212380   5.185   4.409   2.150  0.0856 -0.1537 -0.2488
 4125TIP3    H112381   5.237   4.463   2.210 -0.7566  0.3587  0.0325
 4125TIP3    H212382   5.249   4.349   2.111  1.0208  0.9347 -0.4547
 4126TIP3   OH212383   2.323   1.836   3.445 -0.2309 -0.5526 -0.0587
 4126TIP3    H112384   2.231   1.812   3.457  0.3754 -2.9965  0.2412
 4126TIP3    H212385   2.346   1.883   3.525 -1.2241  0.1313 -0.1612
 4127TIP3   OH212386   4.266   5.230   2.232  0.2821 -0.3927  0.1862
 4127TIP3    H112387   4.205   5.300   2.257 -0.5131 -0.7922 -0.5700
 4127TIP3    H212388   4.210   5.162   2.194  1.2970 -0.1340 -1.9463
 4128TIP3   OH212389   2.980   4.769   1.565  0.4466  0.3202  0.3573
 4128TIP3    H112390   2.999   4.693   1.509  0.1406  0.9042 -0.5618
 4128TIP3    H212391   3.023   4.748   1.648  0.0611 -1.0216  0.2479
 4129TIP3   OH212392   2.652   5.190   1.747  0.6560  0.1920 -0.1411
 4129TIP3    H112393   2.738   5.226   1.771  1.4263 -0.8224 -1.2643
 4129TIP3    H212394   2.647   5.108   1.796  1.0271 -0.5124 -1.2461
 4130TIP3   OH212395   2.213   4.566   3.661 -0.2652  0.6534  0.6581
 4130TIP3    H112396   2.168   4.526   3.586 -0.9131  1.0482  0.8311
 4130TIP3    H212397   2.285   4.506   3.680 -2.7948 -2.0665  2.7361
 4131TIP3   OH212398   2.458   5.623   4.990 -0.0444  0.6455  0.1837
 4131TIP3    H112399   2.475   5.587   5.077 -1.2662  0.7640  0.4855
 4131TIP3    H212400   2.528   5.587   4.935 -1.3052 -2.4766  0.4137
 4132TIP3   OH212401   2.956   4.185   5.123 -0.0559  0.0346  0.9108
 4132TIP3    H112402   2.989   4.255   5.180 -0.8410  0.1119  1.2754
 4132TIP3    H212403   2.995   4.105   5.160 -1.6309 -0.0925  2.4388
 4133TIP3   OH212404   5.473   3.645   0.654  0.1736 -0.0725  0.4531
 4133TIP3    H112405   5.499   3.576   0.592  0.1420 -1.0050  1.4478
 4133TIP3    H212406   5.392   3.680   0.617  0.3847 -0.3004 -0.2603
 4134TIP3   OH212407   3.246   4.166   1.812 -0.2395  0.8469  0.4431
 4134TIP3    H112408   3.232   4.185   1.905 -0.9437  0.7710  0.3602
 4134TIP3    H212409   3.291   4.082   1.810  0.8300  1.3944  0.7456
 4135TIP3   OH212410   4.379   2.373   0.585  0.4089 -0.0320 -0.2668
 4135TIP3    H112411   4.403   2.360   0.493 -0.8565  1.4925 -0.8697
 4135TIP3    H212412   4.283   2.375   0.585  0.3566  3.0232  0.5286
 4136TIP3   OH212413   3.335   3.386   1.633  0.0336  0.1897 -0.4360
 4136TIP3    H112414   3.425   3.404   1.661  0.0010  1.3840 -1.0329
 4136TIP3    H212415   3.345   3.333   1.554  0.1777 -0.4800  0.0162
 4137TIP3   OH212416   1.206   4.371   0.907 -0.0567 -0.1594  0.3659
 4137TIP3    H112417   1.267   4.435   0.870 -0.1464  0.1485  0.7448
 4137TIP3    H212418   1.244   4.286   0.886 -0.2258  0.0012 -0.6417
 4138TIP3   OH212419   6.321   5.575   2.211 -0.7300  0.3816 -0.5632
 4138TIP3    H112420   6.366   5.659   2.208 -2.3264  1.2830 -0.4400
 4138TIP3    H212421   6.289   5.561   2.122 -2.0436  0.8379 -0.1895
 4139TIP3   OH212422   2.879   2.603   0.793  0.2074  1.1644 -0.0688
 4139TIP3    H112423   2.907   2.682   0.749 -0.2949  0.7499 -1.1610
 4139TIP3    H212424   2.910   2.613   0.883  2.0742  1.6050 -0.7171
 4140TIP3   OH212425   3.758   4.101   0.900 -0.1409 -0.3686  0.2825
 4140TIP3    H112426   3.673   4.106   0.854 -0.6188  0.3165  1.1989
 4140TIP3    H212427   3.764   4.011   0.930 -1.3616 -0.0300  1.6594
 4141TIP3   OH212428   5.858   1.681   2.845 -0.0382 -0.0634  0.5065
 4141TIP3    H112429   5.770   1.701   2.813 -0.3769 -2.0641  0.0630
 4141TIP3    H212430   5.849   1.597   2.889  1.8566 -0.8129 -0.4392
 4142TIP3   OH212431   1.544   1.963   1.303 -0.0027  0.1629 -0.0793
 4142TIP3    H112432   1.625   2.014   1.295  0.0710  0.1296  0.4548
 4142TIP3    H212433   1.522   1.940   1.213 -1.1179  2.8050 -0.5729
 4143TIP3   OH212434   3.261   2.677   3.069  0.0625 -0.4023 -0.7702
 4143TIP3    H112435   3.232   2.615   3.137  1.7301 -0.0926  0.2698
 4143TIP3    H212436   3.342   2.639   3.035  1.3513  1.3842  0.1787
 4144TIP3   OH212437   2.057   2.751   2.623  0.0707  0.2376  0.9166
 4144TIP3    H112438   2.104   2.832   2.643  2.9114 -1.1385  0.2407
 4144TIP3    H212439   2.009   2.731   2.703  0.5023  1.7872  1.6102
 4145TIP3   OH212440   0.535   4.090   2.172  0.1986 -0.1152  0.7684
 4145TIP3    H112441   0.535   4.014   2.115 -0.9883 -0.4133  1.1366
 4145TIP3    H212442   0.625   4.098   2.203  0.9668  0.2633 -1.3859
 4146TIP3   OH212443   5.578   5.720   2.958 -0.4574 -0.1455  0.4124
 4146TIP3    H112444   5.647   5.654   2.952 -0.4797 -0.0827 -0.8964
 4146TIP3    H212445   5.614   5.787   3.015  0.3698 -0.3547  0.1496
 4147TIP3   OH212446   3.088   0.932   3.935 -0.0394  0.3639  0.0784
 4147TIP3    H112447   3.053   0.917   3.847 -0.1823 -1.7498  0.4390
 4147TIP3    H212448   3.010   0.941   3.990  0.0143  3.3336 -0.1549
 4148TIP3   OH212449   1.710   1.199   0.092 -0.5288  0.6592  0.9318
 4148TIP3    H112450   1.676   1.254   0.162 -2.5393 -1.3602  1.6872
 4148TIP3    H212451   1.635   1.147   0.064  0.8341 -0.4308 -0.9572
 4149TIP3   OH212452   1.119   5.329   3.537  0.4884  0.0984 -0.8684
 4149TIP3    H112453   1.078   5.258   3.587 -0.2428 -1.1614 -3.1110
 4149TIP3    H212454   1.083   5.409   3.575 -1.4549 -0.8611 -0.5722
 4150TIP3   OH212455   3.831   3.437   5.018  0.6997 -0.8539 -0.4079
 4150TIP3    H112456   3.818   3.530   5.034 -0.2264 -1.0104 -0.1745
 4150TIP3    H212457   3.824   3.397   5.105 -1.1923 -1.3701 -0.7397
 4151TIP3   OH212458   0.119   5.269   5.161 -0.3469 -0.3101 -0.4738
 4151TIP3    H112459   0.066   5.259   5.082  1.8096  1.3198 -2.2398
 4151TIP3    H212460   0.148   5.360   5.159 -0.1332 -0.2568  2.1793
 4152TIP3   OH212461   3.292   1.051   0.487 -0.0407 -0.3533 -0.5723
 4152TIP3    H112462   3.343   0.993   0.543 -0.7324  0.3542  0.8511
 4152TIP3    H212463   3.239   0.992   0.434  1.0461 -1.0543 -0.9145
 4153TIP3   OH212464   5.050   0.113   4.873  0.3843 -0.7038 -0.1348
 4153TIP3    H112465   4.971   0.164   4.894 -0.8698 -2.6654  0.2043
 4153TIP3    H212466   5.074   0.070   4.955  1.2939 -0.8239 -0.4521
 4154TIP3   OH212467   2.060   4.360   1.212 -0.4109 -0.3506 -0.4169
 4154TIP3    H112468   1.993   4.292   1.201 -0.6134  0.0500 -1.9907
 4154TIP3    H212469   2.088   4.380   1.122 -0.6722  1.9382 -0.0569
 4155TIP3   OH212470   5.203   5.880   0.340 -0.2017  0.0805 -0.5946
 4155TIP3    H112471   5.282   5.854   0.292 -0.0933  2.2996 -1.7797
 4155TIP3    H212472   5.132   5.836   0.294  0.2120 -0.6285 -0.5642
 4156TIP3   OH212473   0.765   2.288   2.465 -0.4636 -0.6537  0.3014
 4156TIP3    H112474   0.809   2.339   2.532  0.1338 -0.2167 -0.4135
 4156TIP3    H212475   0.834   2.236   2.425 -1.0336 -1.9664  0.9355
 4157TIP3   OH212476   2.664   0.294   0.710  0.2017  0.0139  0.1268
 4157TIP3    H112477   2.685   0.281   0.803 -1.4094  0.9261  0.6507
 4157TIP3    H212478   2.575   0.260   0.700 -0.2122  1.2993 -0.7394
 4158TIP3   OH212479   1.914   5.268   2.380 -0.0346 -0.2729 -0.3406
 4158TIP3    H112480   1.843   5.211   2.408 -2.2311  0.5303 -3.7177
 4158TIP3    H212481   1.888   5.355   2.411 -0.0559 -0.1311 -0.7450
 4159TIP3   OH212482   4.919   3.930   3.231 -0.4197  0.6554 -0.3557
 4159TIP3    H112483   4.898   3.935   3.324 -0.3175  2.0917 -0.3783
 4159TIP3    H212484   4.931   3.837   3.214 -0.9313  0.3240  0.9525
 4160TIP3   OH212485   3.212   5.306   1.159 -0.2026  0.1774 -0.5094
 4160TIP3    H112486   3.260   5.387   1.142  0.8541 -0.6632 -1.7321
 4160TIP3    H212487   3.172   5.320   1.244  1.1869  1.4185 -0.0068
 4161TIP3   OH212488   5.315   0.818   1.367 -0.0339 -0.0005  0.4054
 4161TIP3    H112489   5.299   0.843   1.458  0.7532  2.1589  0.0101
 4161TIP3    H212490   5.288   0.894   1.315  2.6686  0.2091 -0.9008
 4162TIP3   OH212491   0.523   1.626   0.350 -0.2123 -0.0064 -0.4542
 4162TIP3    H112492   0.522   1.722   0.341  0.1419 -0.0195 -0.6649
 4162TIP3    H212493   0.523   1.594   0.260  1.6060 -0.1686 -0.4344
 4163TIP3   OH212494   4.132   2.647   1.698  0.6340  0.3918  0.0169
 4163TIP3    H112495   4.076   2.650   1.775  1.8308  0.6131  0.9030
 4163TIP3    H212496   4.179   2.563   1.705  1.9796  1.1486  0.4474
 4164TIP3   OH212497   2.377   3.021   2.437 -0.4439  0.2522 -0.8117
 4164TIP3    H112498   2.318   3.054   2.370 -0.8122 -0.2901 -0.7623
 4164TIP3    H212499   2.372   2.926   2.429  2.2529  0.1594 -2.4017
 4165TIP3   OH212500   3.335   3.408   3.169  0.3600  0.4545  0.2084
 4165TIP3    H112501   3.260   3.442   3.121  0.3194 -0.1669 -0.1807
 4165TIP3    H212502   3.307   3.323   3.203  0.7438  0.4055  0.4193
 4166TIP3   OH212503   5.978   1.391   3.431 -0.1362 -0.1867  0.1164
 4166TIP3    H112504   5.994   1.374   3.338  1.5288 -1.9390  0.6529
 4166TIP3    H212505   6.058   1.434   3.462 -0.9966  1.1348  0.6146
 4167TIP3   OH212506   4.735   3.821   5.017 -0.2287 -0.4532  0.3972
 4167TIP3    H112507   4.830   3.809   5.018 -0.2092 -0.3643  0.0182
 4167TIP3    H212508   4.723   3.911   4.986 -0.4747 -1.2517 -2.0502
 4168TIP3   OH212509   4.712   5.326   4.369 -0.3204  0.1728 -0.4496
 4168TIP3    H112510   4.784   5.280   4.413 -1.8311 -2.3087 -0.3403
 4168TIP3    H212511   4.698   5.405   4.421  0.5368 -0.6787  1.1555
 4169TIP3   OH212512   4.128   5.738   0.308  0.3925 -0.0890  0.2390
 4169TIP3    H112513   4.037   5.736   0.278  0.0766  0.7337  1.1221
 4169TIP3    H212514   4.171   5.800   0.249  0.3819 -0.4461 -0.1525
 4170TIP3   OH212515   1.071   3.295   3.186  0.2622 -0.2140  0.1583
 4170TIP3    H112516   1.039   3.359   3.250  1.1485  1.0144 -0.5742
 4170TIP3    H212517   1.041   3.327   3.101  0.2542 -1.0814 -0.1830
 4171TIP3   OH212518   5.421   3.927   0.689 -0.1067  0.8614  0.3276
 4171TIP3    H112519   5.486   3.882   0.744  0.3069  0.9820 -0.0528
 4171TIP3    H212520   5.413   3.872   0.612 -2.7444 -0.7805  1.6518
 4172TIP3   OH212521   0.718   3.195   2.035 -0.0682  0.1709 -0.8168
 4172TIP3    H112522   0.710   3.262   2.102 -1.7151  0.0087 -0.8200
 4172TIP3    H212523   0.811   3.172   2.035  0.0667  0.5949  0.9887
 4173TIP3   OH212524   0.098   5.533   0.436  0.7263 -0.3009  0.2578
 4173TIP3    H112525   0.102   5.520   0.531  1.6354 -0.2958  0.2241
 4173TIP3    H212526   0.021   5.589   0.424 -0.6235 -1.9444  0.7925
 4174TIP3   OH212527   4.444   0.225   4.991 -0.5914  0.0139  0.4721
 4174TIP3    H112528   4.484   0.233   4.904 -2.4423  2.3808 -0.2437
 4174TIP3    H212529   4.372   0.163   4.978 -0.7910  0.2717  0.3364
 4175TIP3   OH212530   3.525   0.733   2.145  0.0029 -0.0373 -0.0603
 4175TIP3    H112531   3.507   0.639   2.135 -0.9461  0.2434 -1.1255
 4175TIP3    H212532   3.532   0.766   2.056 -0.5772  1.0695  0.2891
 4176TIP3   OH212533   0.023   2.821   4.010  0.0152  0.1299  0.0936
 4176TIP3    H112534  -0.002   2.849   3.922  0.1095  1.8757  0.6013
 4176TIP3    H212535   0.103   2.769   3.996 -1.4726 -2.0132 -1.1008
 4177TIP3   OH212536   5.751   1.590   3.379 -0.0193  0.3371  0.4708
 4177TIP3    H112537   5.719   1.506   3.346 -0.9515  1.5438 -1.9501
 4177TIP3    H212538   5.839   1.598   3.344  0.0136  0.4304  0.5721
 4178TIP3   OH212539  -0.003   0.946   2.399 -0.2868  0.3085 -0.0120
 4178TIP3    H112540   0.041   0.966   2.317  0.1823 -1.2002 -0.1579
 4178TIP3    H212541   0.050   0.876   2.438 -1.5845 -0.3333  0.6489
 4179TIP3   OH212542   1.452   2.221   0.103  0.1889 -0.1588 -0.0196
 4179TIP3    H112543   1.478   2.255   0.188 -0.9342 -1.5938  0.9300
 4179TIP3    H212544   1.359   2.199   0.112 -0.4463  1.2672 -2.1524
 4180TIP3   OH212545   2.558   1.990   4.637 -0.0085  0.1318  0.6655
 4180TIP3    H112546   2.509   1.956   4.562 -1.1340 -1.1825  1.9309
 4180TIP3    H212547   2.508   2.067   4.666  0.1779  0.3737  0.3500
 4181TIP3   OH212548   5.059   5.490   4.053 -0.8185 -0.2368 -0.0940
 4181TIP3    H112549   4.971   5.526   4.065 -0.2271  0.7750  1.5116
 4181TIP3    H212550   5.068   5.425   4.122 -0.2736 -0.2683 -0.1888
 4182TIP3   OH212551   2.291   3.782   0.602  0.9873  0.0339  0.2684
 4182TIP3    H112552   2.332   3.812   0.682  1.0511  0.2019  0.1733
 4182TIP3    H212553   2.355   3.721   0.564  0.0666 -1.7313  1.4197
 4183TIP3   OH212554   4.747   1.814   1.531  0.3523 -0.0867 -0.1035
 4183TIP3    H112555   4.720   1.830   1.621  2.3347  0.7377  0.4098
 4183TIP3    H212556   4.680   1.857   1.477  1.0409  2.7043  1.0898
 4184TIP3   OH212557   3.362   5.668   4.887 -0.1099  0.2190 -0.4795
 4184TIP3    H112558   3.268   5.668   4.866 -0.4809 -3.6024  0.4445
 4184TIP3    H212559   3.402   5.624   4.812  0.6191 -0.2356  0.1762
 4185TIP3   OH212560   3.657   3.141   0.606  0.2029  0.5803 -0.1951
 4185TIP3    H112561   3.607   3.160   0.686 -0.8347 -0.6179 -0.5228
 4185TIP3    H212562   3.663   3.046   0.603  4.2985  0.6161  0.8504
 4186TIP3   OH212563   0.131   3.095   4.013  0.2346 -0.9183  0.3373
 4186TIP3    H112564   0.103   3.005   3.993  0.2699 -0.4764 -1.9161
 4186TIP3    H212565   0.096   3.147   3.941  1.4864  0.6553  0.8271
 4187TIP3   OH212566   1.554   5.300   2.734  0.8590 -0.3670 -0.0376
 4187TIP3    H112567   1.627   5.356   2.760 -0.3748  1.1670  0.3476
 4187TIP3    H212568   1.557   5.299   2.638 -1.1374  3.4968 -0.3453
 4188TIP3   OH212569   2.514   3.563   3.972  0.0713  0.8138  0.5981
 4188TIP3    H112570   2.558   3.644   3.998  0.4539  0.6771  0.3773
 4188TIP3    H212571   2.560   3.534   3.893 -1.1725  1.2965 -0.3252
 4189TIP3   OH212572   5.928   3.248   2.440 -0.2638 -0.1311 -0.4281
 4189TIP3    H112573   5.851   3.194   2.458 -0.7350  0.3900 -0.8599
 4189TIP3    H212574   5.955   3.281   2.526 -0.5430 -0.2765 -0.2839
 4190TIP3   OH212575   3.712   1.598   3.953  0.0310  0.5893  0.2774
 4190TIP3    H112576   3.764   1.649   3.891  2.7727 -0.1606  1.7816
 4190TIP3    H212577   3.756   1.612   4.037 -1.5734 -1.0555  1.4655
 4191TIP3   OH212578   0.607   1.426   1.999 -0.2289 -0.0120 -0.0104
 4191TIP3    H112579   0.590   1.369   1.924 -1.0205 -0.2905  0.3678
 4191TIP3    H212580   0.524   1.473   2.012  0.1706  0.6592  0.1650
 4192TIP3   OH212581   3.763   5.351   4.933  0.3174 -0.5339  0.1270
 4192TIP3    H112582   3.778   5.389   4.846  0.8213 -0.6174  0.1774
 4192TIP3    H212583   3.689   5.291   4.920  0.3394 -0.4885 -0.2265
 4193TIP3   OH212584   2.907   3.850   3.064 -0.1799  0.2244 -0.5982
 4193TIP3    H112585   2.927   3.808   2.981  0.2548  0.5791 -0.6778
 4193TIP3    H212586   2.974   3.818   3.125 -0.4711 -0.0024 -0.3886
 4194TIP3   OH212587   4.286   0.763   1.638  0.3220  0.4249 -0.2717
 4194TIP3    H112588   4.274   0.668   1.643  0.0326  0.4102 -1.0199
 4194TIP3    H212589   4.380   0.776   1.651  0.2059  0.1320  0.9391
 4195TIP3   OH212590   1.822   0.751   3.677  0.3395  0.0761 -0.3528
 4195TIP3    H112591   1.888   0.808   3.717  0.2174 -0.6664  0.9613
 4195TIP3    H212592   1.873   0.684   3.633  0.4928 -0.4749  0.6284
 4196TIP3   OH212593   1.314   0.343   0.977 -0.1889  0.6112  0.5687
 4196TIP3    H112594   1.248   0.393   1.025 -0.4066  0.3465  0.5476
 4196TIP3    H212595   1.384   0.406   0.960 -0.8892  1.1702 -0.3239
 4197TIP3   OH212596   6.024   2.849   3.219  0.2931 -0.1591 -0.0640
 4197TIP3    H112597   6.043   2.868   3.311  0.7678  1.9095 -0.5193
 4197TIP3    H212598   5.956   2.782   3.222 -0.8048  0.9232  1.8398
 4198TIP3   OH212599   0.412   5.858   1.922  0.0661  0.2757  0.4270
 4198TIP3    H112600   0.438   5.888   1.835 -0.5192  0.1299  0.1959
 4198TIP3    H212601   0.413   5.937   1.976 -1.7906  0.8305 -0.2599
 4199TIP3   OH212602   1.465   1.155   4.284  0.3576  0.3625  0.0526
 4199TIP3    H112603   1.463   1.065   4.315 -0.4703  0.8794  1.5666
 4199TIP3    H212604   1.553   1.187   4.308 -0.6105  1.0876  3.0191
 4200TIP3   OH212605   5.297   5.003   0.936 -0.2479  0.2631 -0.3230
 4200TIP3    H112606   5.235   5.066   0.900 -0.8179 -0.1342 -0.0465
 4200TIP3    H212607   5.381   5.027   0.896 -0.4293  1.2659 -0.1307
 4201TIP3   OH212608   3.171   1.126   1.071  0.7580 -0.1554 -0.2572
 4201TIP3    H112609   3.193   1.137   1.164 -1.8480 -0.0883  0.4391
 4201TIP3    H212610   3.161   1.031   1.060 -0.2457 -0.0861 -0.0818
 4202TIP3   OH212611   0.463   5.411   4.950  0.3099  0.5051 -0.0199
 4202TIP3    H112612   0.472   5.326   4.994 -0.1195 -0.6987 -2.1332
 4202TIP3    H212613   0.368   5.422   4.940  0.4089  0.0871 -1.7668
 4203TIP3   OH212614   0.451   0.191   1.423  0.3545  0.3867 -0.0453
 4203TIP3    H112615   0.542   0.198   1.451  0.4968  0.0516 -0.4051
 4203TIP3    H212616   0.410   0.134   1.489  0.1792  1.2499  0.6133
 4204TIP3   OH212617   0.750   2.937   3.413 -0.3485  0.2805  0.0153
 4204TIP3    H112618   0.757   3.032   3.401 -1.1650  0.1561 -1.8055
 4204TIP3    H212619   0.760   2.901   3.325 -0.8569 -1.2765  0.5625
 4205TIP3   OH212620   5.832   1.083   0.883 -0.1711 -0.0097  0.1545
 4205TIP3    H112621   5.921   1.118   0.892 -0.1404  0.2658 -1.0540
 4205TIP3    H212622   5.817   1.079   0.788 -0.1989 -3.1965  0.1610
 4206TIP3   OH212623   0.922   1.899   2.049 -0.1028 -0.6396 -0.2639
 4206TIP3    H112624   0.908   1.854   1.965 -0.0876  1.0726 -1.2130
 4206TIP3    H212625   0.996   1.957   2.033 -0.8012  0.5145  0.6128
 4207TIP3   OH212626   0.025   4.205   2.054 -0.0906 -0.0180  0.5823
 4207TIP3    H112627   0.032   4.118   2.015 -2.1995  0.8021 -1.9250
 4207TIP3    H212628   0.113   4.243   2.045  0.0614 -0.7146 -1.4262
 4208TIP3   OH212629   3.461   5.590   4.651  0.2264  0.4013 -0.7886
 4208TIP3    H112630   3.411   5.647   4.592  0.8031 -0.4825 -2.2000
 4208TIP3    H212631   3.415   5.506   4.648  0.0887  0.4213  0.2965
 4209TIP3   OH212632   4.540   3.920   3.690  0.2775  0.2367  0.0782
 4209TIP3    H112633   4.449   3.937   3.668 -0.2112 -0.1080  1.7084
 4209TIP3    H212634   4.571   4.002   3.728  0.3446  0.0532  0.4267
 4210TIP3   OH212635   0.632   0.688   3.403 -0.3875 -0.0369 -0.2542
 4210TIP3    H112636   0.669   0.748   3.337  1.6321  0.1158  0.9588
 4210TIP3    H212637   0.579   0.745   3.459  0.6300  0.4521  0.2356
 4211TIP3   OH212638   5.066   0.600   0.027  0.3751 -0.2880  0.0365
 4211TIP3    H112639   5.037   0.517  -0.010  2.2494 -0.4011 -1.3535
 4211TIP3    H212640   4.988   0.656   0.024 -0.6455 -1.6471  0.0098
 4212TIP3   OH212641   1.084   2.044   2.903 -0.4669 -0.2869  0.3819
 4212TIP3    H112642   0.991   2.033   2.924 -0.7819  2.0980  0.4615
 4212TIP3    H212643   1.127   2.049   2.988 -0.5221  0.4592  0.3670
 4213TIP3   OH212644   2.668   3.515   5.138  0.8286 -0.1001  0.6898
 4213TIP3    H112645   2.701   3.453   5.073 -2.0235 -1.4422  0.3476
 4213TIP3    H212646   2.600   3.565   5.092  1.2268  1.4680  1.7075
 4214TIP3   OH212647   2.870   0.665   1.203 -0.8796 -0.4934 -0.4959
 4214TIP3    H112648   2.836   0.629   1.286  1.0949 -0.5636  0.3497
 4214TIP3    H212649   2.932   0.599   1.172  0.8126  0.9246 -0.3173
 4215TIP3   OH212650   1.915   3.395   5.120  0.3547  0.4785 -0.2411
 4215TIP3    H112651   1.900   3.398   5.026 -0.3502  1.0338 -0.1148
 4215TIP3    H212652   1.943   3.305   5.137 -1.4035 -0.1971 -0.7076
 4216TIP3   OH212653   5.252   1.953   3.085  0.2268  0.6526 -0.1880
 4216TIP3    H112654   5.235   1.964   2.991 -1.1757 -1.0775 -0.2014
 4216TIP3    H212655   5.286   2.037   3.114  2.6374  0.6559 -2.6360
 4217TIP3   OH212656   2.041   1.770   2.706  0.1767 -0.0710  0.3426
 4217TIP3    H112657   1.981   1.725   2.647  0.1538  1.7402 -1.1225
 4217TIP3    H212658   2.125   1.771   2.659  0.6731 -0.2909  1.2090
 4218TIP3   OH212659   2.069   1.555   1.335  0.2110  0.0195  0.0501
 4218TIP3    H112660   1.990   1.577   1.385 -0.0577 -0.4471 -0.1661
 4218TIP3    H212661   2.117   1.494   1.392 -0.1798 -0.6471 -0.3368
 4219TIP3   OH212662   5.759   5.020   0.825  0.0540 -0.7898 -0.5889
 4219TIP3    H112663   5.792   5.009   0.736  3.4991 -1.0589  0.5656
 4219TIP3    H212664   5.741   4.932   0.855  1.5732 -1.0087 -0.2001
 4220TIP3   OH212665   4.738   4.322   3.539  0.8809  0.4202  0.4494
 4220TIP3    H112666   4.759   4.252   3.477  0.4454 -0.0955  0.8857
 4220TIP3    H212667   4.717   4.397   3.483  1.5991  0.2890 -0.0202
 4221TIP3   OH212668   5.813   4.747   2.197  0.0537 -0.2186  0.0002
 4221TIP3    H112669   5.771   4.689   2.261  0.9232 -0.4960  0.3360
 4221TIP3    H212670   5.741   4.781   2.144 -0.3317 -3.9602 -2.2536
 4222TIP3   OH212671   3.753   3.188   0.072 -1.3267 -1.1094  0.3632
 4222TIP3    H112672   3.751   3.277   0.037 -0.8864 -0.9034  0.8522
 4222TIP3    H212673   3.767   3.133  -0.005  0.1520 -0.6213  0.2404
 4223TIP3   OH212674   5.754   4.327   1.591 -0.1693 -0.1500  0.1236
 4223TIP3    H112675   5.849   4.320   1.600 -0.2606 -1.5957  0.1078
 4223TIP3    H212676   5.729   4.395   1.653  0.5077 -2.0213  2.5747
 4224TIP3   OH212677   4.468   5.587   3.442  0.1548 -0.8351  0.0211
 4224TIP3    H112678   4.434   5.505   3.478  0.1896  0.3188  2.9044
 4224TIP3    H212679   4.555   5.597   3.482  1.6532 -0.9689 -2.9032
 4225TIP3   OH212680   2.278   1.173   3.151 -0.2995 -0.4927 -0.1782
 4225TIP3    H112681   2.329   1.107   3.198  0.2888 -1.0332 -1.5187
 4225TIP3    H212682   2.215   1.122   3.100 -0.7247  0.0592 -0.2136
 4226TIP3   OH212683   2.491   1.583   1.755 -0.0423  0.4794 -0.3203
 4226TIP3    H112684   2.415   1.622   1.713  1.5142  1.5908 -2.2641
 4226TIP3    H212685   2.476   1.488   1.747  0.1224  0.5995 -3.5203
 4227TIP3   OH212686   0.133   3.650   1.631  0.7762  0.7289  0.2445
 4227TIP3    H112687   0.225   3.635   1.607  0.4692 -0.1505 -0.4410
 4227TIP3    H212688   0.088   3.570   1.605 -0.0652  0.8337  1.3019
 4228TIP3   OH212689   4.338   5.845   3.767  0.1651 -0.0481  0.8507
 4228TIP3    H112690   4.326   5.832   3.673  2.9170 -1.5322  0.6153
 4228TIP3    H212691   4.368   5.760   3.800  2.3732  1.2275  2.4458
 4229TIP3   OH212692   3.118   4.788   4.741  0.4800 -0.2455 -0.0627
 4229TIP3    H112693   3.212   4.779   4.758  1.0293  0.6332 -2.3416
 4229TIP3    H212694   3.080   4.707   4.774  1.6872  0.2341  2.8431
 4230TIP3   OH212695   3.787   4.136   4.837 -0.1587  0.6263 -0.7107
 4230TIP3    H112696   3.775   4.092   4.921 -0.5919  0.1842 -1.0055
 4230TIP3    H212697   3.849   4.080   4.789 -2.2208 -0.8041 -1.8791
 4231TIP3   OH212698   0.149   4.843   1.319  0.5577  0.3968  0.1276
 4231TIP3    H112699   0.072   4.883   1.359  0.7474  2.3197 -1.2943
 4231TIP3    H212700   0.209   4.828   1.392  0.3883  2.5833  0.7703
 4232TIP3   OH212701   5.942   4.930   0.076 -0.1062  0.2758  0.0662
 4232TIP3    H112702   5.896   4.962  -0.002 -0.3025  1.6971  0.7329
 4232TIP3    H212703   5.873   4.889   0.129 -0.3389  0.9988  0.3404
 4233TIP3   OH212704   0.897   3.130   0.742  0.5142 -0.2262 -0.0421
 4233TIP3    H112705   0.920   3.046   0.781 -0.8330 -0.8461 -0.5251
 4233TIP3    H212706   0.830   3.167   0.800  2.2189  1.3003  1.0510
 4234TIP3   OH212707   1.887   0.948   1.124 -0.0778  0.0321 -0.2164
 4234TIP3    H112708   1.873   0.856   1.145 -0.4766  0.5180  1.9509
 4234TIP3    H212709   1.806   0.976   1.082  0.5562 -0.8796 -2.1672
 4235TIP3   OH212710   1.402   5.859   2.651  0.2817  0.1345  0.0089
 4235TIP3    H112711   1.439   5.919   2.586  1.1908  0.5031  0.8410
 4235TIP3    H212712   1.339   5.912   2.700 -0.3670 -0.1313 -0.5132
 4236TIP3   OH212713   2.123   3.799   5.045 -0.5066 -0.8762 -0.0024
 4236TIP3    H112714   2.163   3.883   5.069  0.4160 -1.4263  0.4062
 4236TIP3    H212715   2.156   3.780   4.958  0.3160 -1.4377  0.4227
 4237TIP3   OH212716   5.287   0.623   2.859  0.0286  0.2284  0.1236
 4237TIP3    H112717   5.293   0.600   2.952  0.0699  0.6245  0.2211
 4237TIP3    H212718   5.373   0.601   2.824  0.1690  0.5184  0.2819
 4238TIP3   OH212719   0.845   3.661   0.928 -0.5181 -0.0142  0.5317
 4238TIP3    H112720   0.892   3.616   0.858 -2.3935 -1.8726  0.4025
 4238TIP3    H212721   0.841   3.597   0.999 -1.9455  0.4823  0.9165
 4239TIP3   OH212722   1.717   3.948   5.128  0.5121  0.3647  0.2073
 4239TIP3    H112723   1.736   4.001   5.205 -1.0316  0.1272  0.7891
 4239TIP3    H212724   1.627   3.971   5.105  0.1894 -1.1660 -0.2039
 4240TIP3   OH212725   1.000   4.218   4.408 -0.4774 -0.0234 -0.5619
 4240TIP3    H112726   0.922   4.163   4.396 -0.6949  0.1174  0.1583
 4240TIP3    H212727   0.990   4.255   4.496 -0.9815  2.1894 -1.4849
 4241TIP3   OH212728   2.914   1.296   5.020  0.8352  0.1642 -0.5374
 4241TIP3    H112729   2.954   1.372   4.977  1.0715  0.3835  0.0581
 4241TIP3    H212730   2.960   1.221   4.985  1.3659  0.3763 -0.3076
 4242TIP3   OH212731   0.385   5.224   3.355  0.0427 -0.0442 -0.2916
 4242TIP3    H112732   0.303   5.215   3.307 -0.4476  1.4991  0.1768
 4242TIP3    H212733   0.453   5.197   3.293 -0.6466  1.0242 -1.5634
 4243TIP3   OH212734   0.239   5.345   2.895 -0.1808 -0.1298  0.5032
 4243TIP3    H112735   0.200   5.388   2.818 -2.2921  1.9691  2.5848
 4243TIP3    H212736   0.330   5.375   2.895 -0.5507  1.0849 -0.3324
 4244TIP3   OH212737   1.095   4.491   4.010 -0.4040 -0.5724  0.5194
 4244TIP3    H112738   1.063   4.429   3.944 -1.4030 -1.0534  1.4225
 4244TIP3    H212739   1.190   4.494   3.996 -0.7339  0.6482 -2.0324
 4245TIP3   OH212740   1.278   1.580   1.599 -0.0745  0.1631  0.0748
 4245TIP3    H112741   1.186   1.555   1.585  0.3513 -0.6708 -1.5274
 4245TIP3    H212742   1.323   1.497   1.617  0.3317  0.6052  1.1886
 4246TIP3   OH212743   0.699   0.925   2.209  0.0833  0.1617  0.6392
 4246TIP3    H112744   0.658   0.903   2.125 -0.0505  0.6681  0.5685
 4246TIP3    H212745   0.626   0.945   2.267  0.1590 -0.5238  0.9802
 4247TIP3   OH212746   2.077   0.792   1.321 -0.4027 -0.6225 -0.3554
 4247TIP3    H112747   2.030   0.808   1.239  3.7954  0.5276 -2.8812
 4247TIP3    H212748   2.063   0.872   1.373 -1.0074 -0.1965 -1.1555
 4248TIP3   OH212749   4.728   5.740   0.190  0.2448  0.0637 -0.2558
 4248TIP3    H112750   4.666   5.699   0.250 -0.4548 -0.3497 -1.2166
 4248TIP3    H212751   4.681   5.817   0.157  0.7949  0.5427  0.0585
 4249TIP3   OH212752   1.578   5.715   2.436  0.0438  0.4122 -0.4728
 4249TIP3    H112753   1.513   5.678   2.496 -1.4218  0.6731 -1.8256
 4249TIP3    H212754   1.590   5.805   2.466  0.3478  0.1409  0.2316
 4250TIP3   OH212755   5.940   4.508   2.900 -0.0216 -0.5691  0.3384
 4250TIP3    H112756   5.971   4.598   2.897 -2.5600  0.3610 -0.7276
 4250TIP3    H212757   5.890   4.502   2.982 -0.3964 -0.8052  0.0965
 4251TIP3   OH212758   2.511   5.034   3.156  0.1879 -0.6079  0.0263
 4251TIP3    H112759   2.571   4.972   3.199  0.9467 -0.2430 -0.4893
 4251TIP3    H212760   2.568   5.090   3.104 -0.2796  1.5945  1.7278
 4252TIP3   OH212761   3.902   1.149   0.774 -0.4655  0.1192 -0.5512
 4252TIP3    H112762   3.827   1.181   0.823 -0.4776 -0.4889 -0.1592
 4252TIP3    H212763   3.888   1.180   0.684 -0.1641  1.7281 -0.0774
 4253TIP3   OH212764   2.626   3.899   1.808  0.7844  0.1205  0.1359
 4253TIP3    H112765   2.683   3.959   1.856  1.1300 -0.6777  0.7332
 4253TIP3    H212766   2.643   3.813   1.846  2.0495 -0.7846 -2.2662
 4254TIP3   OH212767   6.160   4.382   3.672 -0.7484 -0.3262  0.2017
 4254TIP3    H112768   6.168   4.463   3.623 -0.2468 -0.0644  0.6989
 4254TIP3    H212769   6.116   4.321   3.613  0.3868 -0.2071 -0.8037
 4255TIP3   OH212770   0.371   4.005   0.961  0.0452 -0.2198 -0.0337
 4255TIP3    H112771   0.373   4.033   0.870 -0.1193 -0.7709 -0.2097
 4255TIP3    H212772   0.347   4.084   1.010 -0.2694 -0.0177 -0.5095
 4256TIP3   OH212773   4.701   5.397   5.148 -0.5975  0.4757 -0.1506
 4256TIP3    H112774   4.786   5.425   5.115  0.1291  0.5549  1.6833
 4256TIP3    H212775   4.719   5.317   5.197 -1.7129  0.0745 -0.3619
 4257TIP3   OH212776   3.569   3.139   3.977 -0.3327 -0.0893  0.0293
 4257TIP3    H112777   3.662   3.132   3.998  0.0901  1.5144 -1.0952
 4257TIP3    H212778   3.548   3.056   3.934 -0.1553 -1.5843  2.6502
 4258TIP3   OH212779   0.805   4.124   1.311 -0.2553  0.6051  0.4863
 4258TIP3    H112780   0.739   4.147   1.245  0.2350  1.2712  0.2187
 4258TIP3    H212781   0.779   4.175   1.388 -0.9227 -0.2967  0.8825
 4259TIP3   OH212782   1.553   0.656   2.881 -0.0291 -0.4443  0.0323
 4259TIP3    H112783   1.569   0.709   2.803  0.0952  1.5091  1.2977
 4259TIP3    H212784   1.515   0.574   2.849 -1.1591  0.8065 -1.9638
 4260TIP3   OH212785   1.367   0.891   3.238  0.2605  0.4492  0.5293
 4260TIP3    H112786   1.460   0.901   3.259 -0.1484  1.4246  2.0401
 4260TIP3    H212787   1.335   0.825   3.300 -0.3168  1.0855  0.9275
 4261TIP3   OH212788   3.565   5.110   0.181 -0.2443 -0.3917  0.1692
 4261TIP3    H112789   3.610   5.194   0.184 -1.0654  0.0371  2.3249
 4261TIP3    H212790   3.567   5.078   0.272 -1.4448 -1.8741 -0.2789
 4262TIP3   OH212791   3.608   1.605   2.191  0.5950 -0.1606  0.6297
 4262TIP3    H112792   3.658   1.663   2.248  1.1555 -0.0904  0.0808
 4262TIP3    H212793   3.565   1.664   2.129  0.5793 -0.2803  0.5262
 4263TIP3   OH212794   1.976   5.788   4.052  0.0867 -0.3713 -0.4422
 4263TIP3    H112795   2.066   5.806   4.079  0.6222 -0.1898 -2.2029
 4263TIP3    H212796   1.925   5.797   4.132  1.8376 -2.3209  1.0095
 4264TIP3   OH212797   1.272   4.893   1.476 -0.5657  0.3664  0.1307
 4264TIP3    H112798   1.210   4.965   1.492 -0.9924 -0.3430  1.8573
 4264TIP3    H212799   1.222   4.830   1.424 -0.2778  1.1424 -1.1507
 4265TIP3   OH212800   3.532   2.688   3.244 -0.3895 -0.0021 -0.3047
 4265TIP3    H112801   3.594   2.634   3.293  0.3237  0.3452 -0.8018
 4265TIP3    H212802   3.537   2.655   3.155 -0.8013  0.1419 -0.3831
 4266TIP3   OH212803   1.684   1.283   3.869 -0.1231  0.3210  0.0825
 4266TIP3    H112804   1.614   1.218   3.859 -0.5483  0.7141  0.4977
 4266TIP3    H212805   1.643   1.356   3.914  0.0431  1.3926 -1.4333
 4267TIP3   OH212806   3.833   3.697   5.092  0.1956 -0.6307  0.3529
 4267TIP3    H112807   3.904   3.744   5.135 -0.8026  0.6551  0.6700
 4267TIP3    H212808   3.760   3.700   5.155  0.0322 -2.5207  0.3322
 4268TIP3   OH212809   0.969   2.391   1.646 -0.5142  0.2216  0.0465
 4268TIP3    H112810   0.877   2.391   1.672 -0.8589 -0.5647 -1.0689
 4268TIP3    H212811   0.994   2.299   1.649  0.0755  0.3704 -0.1853
 4269TIP3   OH212812   0.748   4.780   4.916  0.0642 -0.2470  0.0654
 4269TIP3    H112813   0.785   4.749   4.998  0.2485 -0.5527 -0.1311
 4269TIP3    H212814   0.677   4.839   4.942  0.3334 -0.0866  0.4408
 4270TIP3   OH212815   0.867   5.394   3.861 -0.1041  0.4930 -0.1610
 4270TIP3    H112816   0.822   5.356   3.785 -0.2050  2.5280 -1.1729
 4270TIP3    H212817   0.804   5.385   3.933 -0.8622  0.4594 -0.8124
 4271TIP3   OH212818   5.321   1.690   0.036  0.2773  0.2339  0.5262
 4271TIP3    H112819   5.308   1.785   0.027 -1.0441 -0.0085 -0.3905
 4271TIP3    H212820   5.376   1.666  -0.039  0.2437  0.2006  0.5125
 4272TIP3   OH212821   0.408   3.573   1.568  0.4849 -0.2507 -0.2229
 4272TIP3    H112822   0.446   3.631   1.501  0.0930  0.1253 -0.1273
 4272TIP3    H212823   0.402   3.488   1.525  1.3019 -0.2781 -0.2850
 4273TIP3   OH212824   1.113   0.863   2.811 -0.6494 -0.9139 -0.1314
 4273TIP3    H112825   1.194   0.837   2.854 -0.9769  0.4671  1.4430
 4273TIP3    H212826   1.067   0.781   2.792  0.7858 -1.6723 -0.4401
 4274TIP3   OH212827   0.783   3.455   0.689  0.0286 -0.2579 -0.2975
 4274TIP3    H112828   0.775   3.380   0.630  0.2375  0.3332 -1.0914
 4274TIP3    H212829   0.848   3.512   0.648 -0.8253  0.8237 -0.2067
 4275TIP3   OH212830   3.310   0.399   1.846  0.1784 -0.0151  0.2693
 4275TIP3    H112831   3.390   0.400   1.794 -0.6512 -0.8901 -1.0795
 4275TIP3    H212832   3.289   0.492   1.859  0.4502  0.2198 -0.9037
 4276TIP3   OH212833   2.695   0.136   2.545  0.3371 -0.2771  0.4013
 4276TIP3    H112834   2.735   0.212   2.502  0.4163  0.1652  1.2331
 4276TIP3    H212835   2.750   0.062   2.519  1.0507  0.1587  0.6571
 4277TIP3   OH212836   5.790   4.904   1.429  0.0349  0.2855  0.0439
 4277TIP3    H112837   5.787   4.858   1.513  0.7986 -0.9059 -0.5530
 4277TIP3    H212838   5.700   4.900   1.396 -0.0036 -0.4141  0.2138
 4278TIP3   OH212839   0.050   0.286   2.974  0.1746 -0.0158 -0.1620
 4278TIP3    H112840   0.088   0.233   3.044 -1.0152  1.0187  1.3419
 4278TIP3    H212841   0.034   0.224   2.903 -0.2746 -1.5003  1.1721
 4279TIP3   OH212842   5.061   5.056   5.033  0.1684  0.5827 -0.0802
 4279TIP3    H112843   4.988   5.115   5.012  0.7279  2.3511  2.5637
 4279TIP3    H212844   5.022   4.987   5.086  0.0144  0.0449 -0.8631
 4280TIP3   OH212845   4.911   1.397   3.046 -0.5372  0.5812  0.0696
 4280TIP3    H112846   4.905   1.371   2.955  0.6748 -1.2502  0.4512
 4280TIP3    H212847   4.846   1.467   3.056  1.1108  2.7351 -2.8005
 4281TIP3   OH212848   6.317   2.108   1.412  0.5810 -0.1392 -0.5322
 4281TIP3    H112849   6.409   2.093   1.435  0.2471 -0.9811  0.3226
 4281TIP3    H212850   6.287   2.024   1.378 -0.1173 -0.1324  0.0533
 4282TIP3   OH212851   6.190   4.448   2.789 -0.7283 -0.3350  0.1332
 4282TIP3    H112852   6.101   4.450   2.822 -0.7597  0.2719  0.0078
 4282TIP3    H212853   6.194   4.367   2.737 -0.4067 -1.8145  2.3320
 4283TIP3   OH212854   0.643   1.946   0.784 -0.1466 -0.3737 -0.0154
 4283TIP3    H112855   0.579   1.936   0.854 -1.6359 -0.9686 -1.3927
 4283TIP3    H212856   0.727   1.935   0.827 -0.9731 -0.0228  1.7890
 4284TIP3   OH212857   3.646   2.605   0.827 -0.0825  0.7443  0.2973
 4284TIP3    H112858   3.613   2.616   0.738 -0.7578 -1.2831  0.2432
 4284TIP3    H212859   3.610   2.520   0.855 -0.8536  1.8490  2.9280
 4285TIP3   OH212860   5.851   3.290   0.023  0.3749  0.1744 -0.0767
 4285TIP3    H112861   5.886   3.241  -0.052  1.2287  0.3235  0.2110
 4285TIP3    H212862   5.801   3.225   0.072  1.1243 -0.3113  0.0624
 4286TIP3   OH212863   1.462   2.953   1.691  0.2745  0.0539  0.2607
 4286TIP3    H112864   1.384   2.907   1.663 -1.0188  2.1004  0.2604
 4286TIP3    H212865   1.473   2.930   1.783 -0.2856 -0.3275  0.2334
 4287TIP3   OH212866   4.009   3.388  -0.003  0.6673 -0.2393  0.2006
 4287TIP3    H112867   4.072   3.440   0.047 -1.1405  1.8483  0.4774
 4287TIP3    H212868   4.011   3.302   0.038  0.6484  0.8487  2.6676
 4288TIP3   OH212869   5.018   1.679   2.848 -0.2381 -0.1936  0.4144
 4288TIP3    H112870   5.103   1.637   2.865  0.7154  2.2571  2.4714
 4288TIP3    H212871   4.963   1.652   2.922 -0.9131 -0.8669 -0.3163
 4289TIP3   OH212872   6.225   5.850   0.860 -0.5098 -0.2844  0.2109
 4289TIP3    H112873   6.281   5.817   0.930 -1.3376 -0.1135  0.9887
 4289TIP3    H212874   6.224   5.780   0.795  1.2659  0.0634 -0.2266
 4290TIP3   OH212875   3.566   5.556   1.654  0.3740 -0.6519 -0.4734
 4290TIP3    H112876   3.552   5.461   1.660  0.8809 -0.9465 -2.9070
 4290TIP3    H212877   3.659   5.568   1.672  0.4266 -0.6918 -0.7148
 4291TIP3   OH212878   3.761   1.994   3.258  0.2284 -0.3589  0.3017
 4291TIP3    H112879   3.708   1.915   3.252  1.5316 -1.2636  0.3377
 4291TIP3    H212880   3.851   1.962   3.270  1.0773  1.0877 -1.7442
 4292TIP3   OH212881   3.352   4.385   0.437  0.3367  0.2855  0.0921
 4292TIP3    H112882   3.437   4.390   0.481  0.6461  1.7547 -0.6315
 4292TIP3    H212883   3.289   4.381   0.508  0.9087  1.2583  0.6777
 4293TIP3   OH212884   6.014   1.603   3.219 -0.4177 -0.0679 -0.0729
 4293TIP3    H112885   6.055   1.584   3.135 -0.3473 -0.1571 -0.0179
 4293TIP3    H212886   6.042   1.692   3.241  2.0698 -1.1162  1.3414
 4294TIP3   OH212887   0.502   0.267   4.568  0.5934 -0.1748 -0.4153
 4294TIP3    H112888   0.544   0.271   4.482  1.1812 -1.8986 -0.2577
 4294TIP3    H212889   0.535   0.186   4.607  0.0919  0.4035  1.3203
 4295TIP3   OH212890   0.875   3.399   3.413  0.0598 -0.3791 -0.1370
 4295TIP3    H112891   0.788   3.434   3.394 -0.1605 -0.2831  0.9846
 4295TIP3    H212892   0.930   3.476   3.425  0.5656 -0.4202 -1.8089
 4296TIP3   OH212893   6.163   4.746   2.960  0.1655  0.1287  0.7188
 4296TIP3    H112894   6.169   4.812   2.891 -0.5439  0.0014  0.5263
 4296TIP3    H212895   6.251   4.709   2.965  0.3592  0.5076  0.2479
 4297TIP3   OH212896   5.602   3.367   4.766 -0.6910  0.3968 -0.2013
 4297TIP3    H112897   5.625   3.436   4.827 -0.2924 -0.4934  0.6840
 4297TIP3    H212898   5.567   3.296   4.821 -0.6116 -0.3048 -1.0262
 4298TIP3   OH212899   0.093   4.197   0.867 -0.4558  0.0455  0.3458
 4298TIP3    H112900   0.109   4.256   0.941  0.6671 -0.5211  0.5647
 4298TIP3    H212901   0.001   4.212   0.845 -0.1811  2.0121  0.2855
 4299TIP3   OH212902   4.244   3.713   2.120 -0.2372 -0.2568 -0.1231
 4299TIP3    H112903   4.194   3.791   2.096  0.3158  0.5106  1.1374
 4299TIP3    H212904   4.243   3.711   2.215 -0.7878 -2.1810 -0.1313
 4300TIP3   OH212905   0.174   1.323   3.597  0.0788 -0.1057  0.1977
 4300TIP3    H112906   0.154   1.404   3.551 -0.6076  0.0732  0.7985
 4300TIP3    H212907   0.092   1.298   3.639  0.4094 -0.8537  0.4175
 4301TIP3   OH212908   0.136   0.516   3.262 -0.4781 -0.1058  0.2918
 4301TIP3    H112909   0.190   0.511   3.183 -0.7434 -0.5889  0.1392
 4301TIP3    H212910   0.135   0.609   3.284 -1.5675  0.2449 -1.0893
 4302TIP3   OH212911   5.592   2.684   1.708 -0.6358  0.1297 -0.1580
 4302TIP3    H112912   5.532   2.753   1.679 -0.2382 -0.0847 -1.5637
 4302TIP3    H212913   5.564   2.663   1.796 -1.9655  0.7716 -0.4118
 4303TIP3   OH212914   2.902   1.822   0.334 -0.0818  0.2795 -0.3498
 4303TIP3    H112915   2.933   1.797   0.247 -0.7728  0.3436 -0.6220
 4303TIP3    H212916   2.958   1.774   0.394 -0.4058 -0.7376 -0.8469
 4304TIP3   OH212917   4.570   2.058   4.040  0.5294 -0.1116 -0.0390
 4304TIP3    H112918   4.634   2.076   4.109  1.7751 -2.6610 -0.4081
 4304TIP3    H212919   4.597   2.113   3.967  2.4192 -1.1462 -0.1961
 4305TIP3   OH212920   2.477   2.184   2.147 -0.1717 -0.4821  0.0428
 4305TIP3    H112921   2.447   2.186   2.238  0.0949  0.3482  0.1241
 4305TIP3    H212922   2.452   2.098   2.115  1.7049 -1.6575  1.5466
 4306TIP3   OH212923   5.333   5.087   3.735  0.8170 -0.2622  0.6564
 4306TIP3    H112924   5.288   5.004   3.717 -2.5420  1.4477  0.3936
 4306TIP3    H212925   5.273   5.135   3.792  2.2530  2.3130  0.1691
 4307TIP3   OH212926   0.524   0.164   3.651  0.0523  0.5238  0.6493
 4307TIP3    H112927   0.457   0.148   3.585 -0.4588 -3.1181  1.8360
 4307TIP3    H212928   0.475   0.172   3.733  0.8663  1.6737  1.0385
 4308TIP3   OH212929   5.853   4.155   2.531 -0.2714  0.0279 -0.0272
 4308TIP3    H112930   5.853   4.189   2.621  0.9328  1.6674 -0.5947
 4308TIP3    H212931   5.769   4.182   2.494 -0.4713 -0.0230  0.3876
 4309TIP3   OH212932   6.003   5.201   1.992  0.5292  0.0534 -0.0011
 4309TIP3    H112933   6.004   5.160   2.079  0.7341  0.3031  0.1177
 4309TIP3    H212934   5.995   5.128   1.931  1.5271 -0.2223  0.1753
 4310TIP3   OH212935   0.696   0.168   0.232  0.3560  0.1495 -0.7396
 4310TIP3    H112936   0.635   0.222   0.282  2.0025  2.2563 -0.8514
 4310TIP3    H212937   0.749   0.124   0.298  0.3253  0.2885 -0.6208
 4311TIP3   OH212938   0.696   1.747   5.021  0.9695  0.2675  0.5994
 4311TIP3    H112939   0.700   1.660   4.981  0.2996  0.3994  0.2473
 4311TIP3    H212940   0.745   1.803   4.961 -1.6835  0.8749 -1.1314
 4312TIP3   OH212941   0.927   5.396   0.103 -0.1437 -0.1293 -0.0782
 4312TIP3    H112942   0.842   5.432   0.128 -0.5575  0.3656 -2.0175
 4312TIP3    H212943   0.918   5.302   0.116 -0.8829 -0.0439  0.0741
 4313TIP3   OH212944   4.049   0.469   4.075 -0.0438  0.1277 -0.1892
 4313TIP3    H112945   3.963   0.433   4.055  0.2224 -0.0204 -1.1591
 4313TIP3    H212946   4.057   0.464   4.170 -0.7126 -0.7681 -0.1722
 4314TIP3   OH212947   4.958   5.809   4.988 -0.3559  0.6889 -0.7552
 4314TIP3    H112948   4.880   5.864   4.985  0.1681  1.6670  1.4084
 4314TIP3    H212949   4.932   5.728   4.944 -3.5749 -0.1345  2.2481
 4315TIP3   OH212950   0.630   2.104   2.672 -0.3186  0.5930  0.1492
 4315TIP3    H112951   0.614   2.177   2.613 -0.4324  1.1708  0.8797
 4315TIP3    H212952   0.723   2.086   2.664 -0.0968  1.4442  0.6636
 4316TIP3   OH212953   0.072   0.532   2.587 -0.4233  0.3487 -0.4969
 4316TIP3    H112954   0.114   0.611   2.552  0.1178  0.4005  0.2373
 4316TIP3    H212955   0.132   0.461   2.563  0.6217  0.5363  1.3720
 4317TIP3   OH212956   5.022   4.976   0.443 -0.5243  0.7095  0.3508
 4317TIP3    H112957   5.023   4.951   0.535  0.2742 -2.6827 -0.4202
 4317TIP3    H212958   5.095   4.927   0.404 -0.5840  2.3237 -2.0508
 4318TIP3   OH212959   5.073   2.495   2.753 -0.8133  0.4154  0.3250
 4318TIP3    H112960   5.016   2.568   2.726  0.0504  1.2447  0.6844
 4318TIP3    H212961   5.012   2.424   2.774 -1.5908  0.1043 -2.5905
 4319TIP3   OH212962   3.723   4.843   4.978 -0.1569 -0.4302 -0.9510
 4319TIP3    H112963   3.779   4.871   4.906 -0.1140 -1.7978 -1.4850
 4319TIP3    H212964   3.746   4.900   5.051  0.4401  0.3846 -1.7593
 4320TIP3   OH212965   4.168   4.327   3.873  0.6349 -0.1871 -0.4359
 4320TIP3    H112966   4.104   4.359   3.809  1.1017  0.4080 -0.6129
 4320TIP3    H212967   4.115   4.280   3.938 -0.0505  0.7646 -0.2819
 4321TIP3   OH212968   3.335   0.781   1.599  0.3887 -0.4726 -0.0329
 4321TIP3    H112969   3.295   0.739   1.675  0.4988 -0.1100  0.2310
 4321TIP3    H212970   3.321   0.875   1.613 -1.7012 -0.4770 -1.6439
 4322TIP3   OH212971   3.308   4.447   1.281 -0.1047 -0.1460 -0.1437
 4322TIP3    H112972   3.347   4.412   1.201  0.4162 -1.6346  0.7259
 4322TIP3    H212973   3.340   4.537   1.285 -1.4424  0.5098 -2.4167
 4323TIP3   OH212974   3.730   4.629   3.722  0.0917 -0.1380  0.0935
 4323TIP3    H112975   3.736   4.608   3.815 -0.8717  0.4743  0.3095
 4323TIP3    H212976   3.670   4.564   3.686 -0.9480  0.6845  0.2763
 4324TIP3   OH212977   5.800   2.644   4.965 -0.1919 -0.1856  0.2752
 4324TIP3    H112978   5.821   2.731   4.931  0.0598 -0.2200  0.3427
 4324TIP3    H212979   5.773   2.594   4.888 -1.6608  0.3418  0.4255
 4325TIP3   OH212980   0.524   2.192   4.594 -0.6454  0.0052 -0.1216
 4325TIP3    H112981   0.604   2.195   4.540 -0.2022 -0.0316  0.5251
 4325TIP3    H212982   0.454   2.215   4.533 -0.3472 -1.4626 -1.0925
 4326TIP3   OH212983   5.269   4.981   1.391  0.2286 -0.6267 -0.1078
 4326TIP3    H112984   5.258   5.039   1.466 -0.3153 -1.0345  0.1378
 4326TIP3    H212985   5.326   5.029   1.332 -0.6873  0.4064 -0.1843
 4327TIP3   OH212986   2.255   2.755   3.876  0.0539 -0.3599  0.2093
 4327TIP3    H112987   2.339   2.715   3.855  0.5041  0.4299  0.4811
 4327TIP3    H212988   2.245   2.741   3.970  0.0130 -0.2019  0.2282
 4328TIP3   OH212989   0.707   0.624   3.889 -0.2057  0.2223  0.1595
 4328TIP3    H112990   0.707   0.549   3.830  1.5588 -1.6741  2.3705
 4328TIP3    H212991   0.622   0.665   3.876  0.3156  0.4836 -4.2153
 4329TIP3   OH212992   5.854   3.774   4.050  0.0632  0.6092  0.2623
 4329TIP3    H112993   5.818   3.747   4.135  1.0383 -0.6554  0.2930
 4329TIP3    H212994   5.902   3.698   4.018 -0.4230  1.0067 -1.5252
 4330TIP3   OH212995   0.280   3.717   2.511  0.1444  0.1157 -0.1192
 4330TIP3    H112996   0.318   3.721   2.599 -2.6000 -1.9308  1.2988
 4330TIP3    H212997   0.229   3.797   2.503  0.2461  0.2127  0.2073
 4331TIP3   OH212998   4.320   5.678   1.663  0.0534 -0.5404  0.2586
 4331TIP3    H112999   4.315   5.584   1.679 -1.4924 -0.2678  1.5972
 4331TIP3    H213000   4.413   5.694   1.644  0.7484 -2.0125  2.1102
 4332TIP3   OH213001   5.040   0.483   0.933  0.6183 -0.0356 -0.0859
 4332TIP3    H113002   5.054   0.506   0.841 -1.8660 -0.8141 -0.7523
 4332TIP3    H213003   5.084   0.552   0.982  0.9443  1.1036 -1.8840
 4333TIP3   OH213004   2.217   0.527   3.458 -0.9388 -0.9131 -0.7799
 4333TIP3    H113005   2.289   0.590   3.455 -2.7157  1.3933  0.9519
 4333TIP3    H213006   2.227   0.475   3.379  2.8310 -1.0183 -0.4237
 4334TIP3   OH213007   2.456   3.621   0.441 -0.0271  0.0093 -0.3325
 4334TIP3    H113008   2.461   3.603   0.348 -0.0298  0.9569 -0.5273
 4334TIP3    H213009   2.453   3.535   0.483  0.8933 -0.4329 -1.1513
 4335TIP3   OH213010   4.603   1.666   2.046 -0.0355  0.0649  0.2990
 4335TIP3    H113011   4.669   1.634   2.108  1.0201 -0.5151 -1.0846
 4335TIP3    H213012   4.579   1.590   1.994 -0.8247  0.5633 -0.0904
 4336TIP3   OH213013   2.573   2.337   1.905  0.2865 -0.1495  0.4681
 4336TIP3    H113014   2.496   2.351   1.850  0.1119  1.5305  1.0860
 4336TIP3    H213015   2.542   2.281   1.977 -0.3073  0.3370  0.5953
 4337TIP3   OH213016   4.676   0.181   1.082  0.0008 -0.2664 -0.0161
 4337TIP3    H113017   4.714   0.267   1.063 -0.9135  0.1791  0.1249
 4337TIP3    H213018   4.620   0.195   1.159 -1.6020 -0.5538 -1.0721
 4338TIP3   OH213019   3.758   1.776   2.372  0.2003  0.4844  0.6062
 4338TIP3    H113020   3.737   1.848   2.432  2.0600 -0.4931  2.6078
 4338TIP3    H213021   3.853   1.784   2.358  0.3107 -1.1139  0.2878
 4339TIP3   OH213022   6.341   3.039   2.324  0.0709 -0.0880 -0.2672
 4339TIP3    H113023   6.287   3.106   2.284 -0.4223  0.6192  1.5027
 4339TIP3    H213024   6.280   2.984   2.373  0.8923  1.1168  2.3266
 4340TIP3   OH213025   5.635   1.741   4.145 -0.3921  0.1401  0.4404
 4340TIP3    H113026   5.708   1.804   4.141 -1.2458  1.1402  0.2374
 4340TIP3    H213027   5.561   1.788   4.108 -1.4657 -0.4114  1.7967
 4341TIP3   OH213028   5.406   1.181   4.446  0.5199  0.1484 -0.0739
 4341TIP3    H113029   5.368   1.168   4.358  1.0100  0.0886 -0.2789
 4341TIP3    H213030   5.497   1.203   4.429  1.4161 -2.7441  0.4844
 4342TIP3   OH213031   1.369   3.507   0.573  0.5524 -0.2755  0.0052
 4342TIP3    H113032   1.442   3.560   0.603 -0.4569  0.4568  1.2854
 4342TIP3    H213033   1.370   3.515   0.477  0.0239  2.6683  0.1759
 4343TIP3   OH213034   6.316   1.240   2.163 -0.9420  0.1057 -0.4751
 4343TIP3    H113035   6.228   1.266   2.191 -0.4365  1.2710  0.0636
 4343TIP3    H213036   6.352   1.318   2.122  0.0770 -0.1774 -0.1393
 4344TIP3   OH213037   4.010   2.089   1.071 -0.2438  0.1371 -0.3710
 4344TIP3    H113038   3.939   2.026   1.083  0.0597 -0.0229  0.6579
 4344TIP3    H213039   4.020   2.131   1.156  2.3762 -1.4512  0.2409
 4345TIP3   OH213040   6.120   0.835   2.662  0.0987 -0.3057 -0.1137
 4345TIP3    H113041   6.174   0.777   2.716  0.0430 -1.0552 -0.8459
 4345TIP3    H213042   6.127   0.799   2.574  0.0877  0.8304 -0.5921
 4346TIP3   OH213043   2.445   1.444   0.336  0.0508 -0.3236  0.0061
 4346TIP3    H113044   2.375   1.390   0.298  0.6006 -0.6195 -0.5956
 4346TIP3    H213045   2.525   1.412   0.295  0.6135 -0.3612  1.0918
 4347TIP3   OH213046   1.168   4.886   5.041 -0.3309 -0.1170  0.0846
 4347TIP3    H113047   1.257   4.920   5.028  0.5702 -2.1071  0.7043
 4347TIP3    H213048   1.162   4.811   4.982 -1.4226 -0.3273  0.4323
 4348TIP3   OH213049   1.290   2.157   1.209 -0.2645 -0.1970  0.0971
 4348TIP3    H113050   1.246   2.228   1.256  0.5848  1.0331 -0.9128
 4348TIP3    H213051   1.358   2.201   1.158  0.1363 -1.7262 -0.7225
 4349TIP3   OH213052   0.723   2.938   2.902 -0.0656 -0.1418 -0.0510
 4349TIP3    H113053   0.742   2.872   2.969  0.3288 -1.0403 -1.0244
 4349TIP3    H213054   0.659   2.996   2.943  1.2154  0.1664  1.6060
 4350TIP3   OH213055   2.549   1.707   3.334  0.0716  0.0074 -0.1000
 4350TIP3    H113056   2.609   1.692   3.408 -0.2155  0.1667  0.1670
 4350TIP3    H213057   2.468   1.737   3.375 -0.2419 -0.3550 -0.4503
 4351TIP3   OH213058   2.548   4.839   2.844  0.4720 -0.2505 -0.6240
 4351TIP3    H113059   2.482   4.813   2.908  0.0454 -1.3664 -1.4806
 4351TIP3    H213060   2.631   4.839   2.892 -0.0781  0.7806  0.3628
 4352TIP3   OH213061   5.725   3.338   4.142  0.5745 -0.1000 -0.3142
 4352TIP3    H113062   5.693   3.416   4.096  1.1252  0.0731 -0.4143
 4352TIP3    H213063   5.726   3.364   4.234  0.1720 -0.2000 -0.2786
 4353TIP3   OH213064   5.426   1.588   0.261  0.2992  0.2323 -0.1272
 4353TIP3    H113065   5.513   1.616   0.232  0.3375  2.0330  1.5161
 4353TIP3    H213066   5.366   1.632   0.202  0.4542 -0.6778 -0.9970
 4354TIP3   OH213067   5.035   4.466   3.606 -0.3376 -0.1503  0.6255
 4354TIP3    H113068   4.983   4.526   3.660  2.4451  2.1326  1.0135
 4354TIP3    H213069   5.001   4.478   3.517 -2.3000 -0.9199  1.2197
 4355TIP3   OH213070   0.218   5.214   3.890  0.1177  0.1102 -0.3872
 4355TIP3    H113071   0.299   5.263   3.903 -0.2713  0.6439  0.0367
 4355TIP3    H213072   0.241   5.124   3.913  0.3046  0.4585  0.8404
 4356TIP3   OH213073   4.539   0.165   0.432  0.1973  0.3412 -0.7557
 4356TIP3    H113074   4.476   0.181   0.502  2.1883  1.9457  0.7579
 4356TIP3    H213075   4.598   0.098   0.467  0.5783  0.3564 -1.3483
 4357TIP3   OH213076   1.223   5.784   4.263 -0.3152  0.0689  0.1026
 4357TIP3    H113077   1.292   5.831   4.216  0.9201 -0.2274  1.5124
 4357TIP3    H213078   1.166   5.854   4.298  0.0983  0.4016  0.1195
 4358TIP3   OH213079   0.814   1.596   0.322  0.3784  0.3457 -0.4623
 4358TIP3    H113080   0.722   1.605   0.349  0.4147 -0.3426 -0.0823
 4358TIP3    H213081   0.864   1.634   0.393  0.4401 -0.7330  0.1015
 4359TIP3   OH213082   1.264   2.020   4.438  0.4112  0.0407  1.0869
 4359TIP3    H113083   1.207   1.946   4.418  0.4193  0.8638 -2.9501
 4359TIP3    H213084   1.212   2.075   4.498 -1.8788 -0.6687 -0.1260
 4360TIP3   OH213085   4.812   0.815   2.842  0.5085 -0.3031  0.0371
 4360TIP3    H113086   4.870   0.776   2.776 -0.4649  1.7342 -2.1775
 4360TIP3    H213087   4.858   0.894   2.871  0.9189 -1.1661  1.8880
 4361TIP3   OH213088   2.891   2.472   4.474 -0.3312 -0.3735 -0.2289
 4361TIP3    H113089   2.952   2.402   4.498 -1.1074 -0.4849  1.6135
 4361TIP3    H213090   2.933   2.552   4.506 -0.5710 -0.3057 -0.0819
 4362TIP3   OH213091   4.289   0.750   3.746 -0.4308 -0.1711  0.2238
 4362TIP3    H113092   4.326   0.792   3.824  1.6506 -0.1574 -0.7073
 4362TIP3    H213093   4.297   0.656   3.764  2.4882 -0.2479 -0.9213
 4363TIP3   OH213094   0.626   5.290   0.890  0.1755  0.6320 -0.6353
 4363TIP3    H113095   0.677   5.370   0.891  1.1614  0.0237 -0.0522
 4363TIP3    H213096   0.547   5.311   0.941 -0.2184  1.6012 -1.6078
 4364TIP3   OH213097   0.954   4.322   3.585 -0.4910  0.2797 -0.5116
 4364TIP3    H113098   0.960   4.242   3.533 -3.0875 -0.1785 -0.2185
 4364TIP3    H213099   0.991   4.390   3.530 -0.9260 -0.6209 -1.9556
 4365TIP3   OH213100   0.866   4.298  -0.030  0.5915 -0.2517 -0.2267
 4365TIP3    H113101   0.801   4.243   0.015 -0.4872  0.9065 -0.3145
 4365TIP3    H213102   0.944   4.291   0.025  0.6177 -2.1214 -0.4175
 4366TIP3   OH213103   5.471   5.118   2.788  0.0535 -0.2524 -0.0395
 4366TIP3    H113104   5.562   5.099   2.766 -0.2857 -1.7529 -0.2274
 4366TIP3    H213105   5.431   5.144   2.704  0.6828  2.1847  0.3370
 4367TIP3   OH213106   2.710   2.109   1.620 -0.1114 -0.7673 -0.0005
 4367TIP3    H113107   2.778   2.142   1.678 -0.1909  0.4644 -0.5843
 4367TIP3    H213108   2.747   2.029   1.582  0.9654 -0.1765 -0.2255
 4368TIP3   OH213109   4.838   5.760   1.279 -0.4193  0.2254 -0.2677
 4368TIP3    H113110   4.836   5.746   1.374 -2.2510  0.6931 -0.1928
 4368TIP3    H213111   4.757   5.807   1.260 -2.1446 -3.2233 -2.5687
 4369TIP3   OH213112   2.321   2.614   1.949 -0.1131 -0.1159 -0.1611
 4369TIP3    H113113   2.237   2.656   1.934 -0.1446 -0.1174  0.0101
 4369TIP3    H213114   2.311   2.569   2.032 -0.1214 -0.5683 -0.4033
 4370TIP3   OH213115   0.049   5.480   1.813 -0.1399  0.3359  1.1235
 4370TIP3    H113116  -0.031   5.451   1.857 -0.9270  1.1398  0.2709
 4370TIP3    H213117   0.059   5.571   1.841 -0.4566  0.7484 -0.0639
 4371TIP3   OH213118   6.330   2.109   0.154 -0.2716 -0.2002 -0.2687
 4371TIP3    H113119   6.332   2.188   0.100 -0.8743  0.0183  0.0186
 4371TIP3    H213120   6.392   2.050   0.112  0.0929  0.3783 -0.5619
 4372TIP3   OH213121   1.683   2.564   3.422  0.0185  0.2657 -0.3203
 4372TIP3    H113122   1.668   2.648   3.466 -1.5716  0.9259 -1.9622
 4372TIP3    H213123   1.771   2.537   3.450  0.0917  1.8844  1.1651
 4373TIP3   OH213124   0.255   2.869   3.545  0.1432 -0.3378 -0.1182
 4373TIP3    H113125   0.263   2.925   3.469 -0.7954  1.0178  0.7413
 4373TIP3    H213126   0.273   2.926   3.620 -2.3450 -0.7146  0.8931
 4374TIP3   OH213127   2.177   3.533   3.369 -0.1882  0.2279 -0.4851
 4374TIP3    H113128   2.160   3.451   3.322 -0.8959 -0.4042  0.8144
 4374TIP3    H213129   2.120   3.597   3.328 -0.4119 -0.1776 -0.8181
 4375TIP3   OH213130   2.965   2.828   0.034  0.3871 -0.1425 -0.5393
 4375TIP3    H113131   2.896   2.786  -0.017  1.4936 -1.5212 -0.9417
 4375TIP3    H213132   2.973   2.915  -0.004 -1.0730  0.0192 -0.5324
 4376TIP3   OH213133   6.150   3.221   2.214 -0.1002  0.0799 -0.1197
 4376TIP3    H113134   6.110   3.235   2.128 -1.5227 -1.9950  0.1200
 4376TIP3    H213135   6.083   3.249   2.277  0.0073 -0.5711  0.2981
 4377TIP3   OH213136   5.144   0.678   1.124  0.5921  0.4172 -0.0491
 4377TIP3    H113137   5.189   0.740   1.181 -0.8381  1.3528  0.0995
 4377TIP3    H213138   5.115   0.608   1.183 -0.8349  1.3561  0.4134
 4378TIP3   OH213139   2.000   3.230   0.319  0.6369  0.0274 -0.3855
 4378TIP3    H113140   1.913   3.251   0.351  1.8170  3.6172  1.0193
 4378TIP3    H213141   1.989   3.148   0.271 -3.6148  0.7296 -1.0015
 4379TIP3   OH213142   2.036   4.192   4.729  0.3927 -0.6652  0.4084
 4379TIP3    H113143   2.118   4.145   4.712  1.2546 -0.0567  2.5777
 4379TIP3    H213144   2.048   4.277   4.688  0.2604 -1.0700 -0.4852
 4380TIP3   OH213145   4.611   0.911   3.666 -0.2502  1.1562 -0.3453
 4380TIP3    H113146   4.687   0.921   3.608  0.9140 -0.2969  0.8532
 4380TIP3    H213147   4.570   0.830   3.636 -0.1722  0.8885  0.2710
 4381TIP3   OH213148   5.469   5.016   0.632  0.0031  0.7184  0.9473
 4381TIP3    H113149   5.423   5.086   0.586  0.3888 -0.3465 -1.1836
 4381TIP3    H213150   5.562   5.033   0.618  0.1096 -0.0108  0.6905
 4382TIP3   OH213151   2.978   0.152   2.637  0.0575  0.7124  0.0251
 4382TIP3    H113152   3.042   0.117   2.575 -1.3789  0.3141 -1.2701
 4382TIP3    H213153   2.923   0.077   2.660 -1.3292  1.4937 -0.6218
 4383TIP3   OH213154   4.091   2.025   3.937 -0.2192  0.2955 -0.2125
 4383TIP3    H113155   4.046   2.089   3.881 -1.2336 -0.7239 -0.6099
 4383TIP3    H213156   4.026   2.002   4.004  0.5991  0.6615  0.7352
 4384TIP3   OH213157   0.816   3.653   2.125 -0.0090  0.2677  0.3131
 4384TIP3    H113158   0.746   3.718   2.119 -2.5031 -2.3288 -1.6202
 4384TIP3    H213159   0.813   3.608   2.041  2.4549 -1.5131  1.0828
 4385TIP3   OH213160   5.995   5.717   1.667  0.7151  0.4110  0.8103
 4385TIP3    H113161   5.940   5.640   1.686  1.5405 -0.3714  0.1139
 4385TIP3    H213162   6.036   5.697   1.583  1.0798  1.5556  0.7002
 4386TIP3   OH213163   5.049   5.126   0.936  0.3972 -0.4548  0.0092
 4386TIP3    H113164   5.042   5.088   1.024 -1.2055 -0.1164  0.0655
 4386TIP3    H213165   5.071   5.218   0.951 -1.6379  0.0605  0.2050
 4387TIP3   OH213166   1.602   4.238   2.841 -1.2727  0.5458 -0.3681
 4387TIP3    H113167   1.671   4.179   2.812 -0.8425 -0.0632  1.7136
 4387TIP3    H213168   1.630   4.324   2.811  0.2272  0.2608  0.1161
 4388TIP3   OH213169   4.421   3.564   3.986  0.4810  0.2212 -0.1506
 4388TIP3    H113170   4.418   3.492   3.923  1.5879 -0.8980  1.0267
 4388TIP3    H213171   4.330   3.591   3.995 -0.0387 -1.4159 -0.1987
 4389TIP3   OH213172   3.035   5.132   1.697 -0.2212  0.3779 -0.3778
 4389TIP3    H113173   2.971   5.064   1.675 -0.5305  1.5579 -3.7915
 4389TIP3    H213174   3.113   5.109   1.647  0.4161  1.4238  0.1029
 4390TIP3   OH213175   2.631   4.137   1.213 -0.1889  0.2983  0.0963
 4390TIP3    H113176   2.557   4.138   1.274 -1.9723  0.3162 -1.9518
 4390TIP3    H213177   2.659   4.229   1.209 -0.9280  0.5245 -0.0967
 4391TIP3   OH213178   1.826   0.591   2.238 -0.1733  0.5644  0.1272
 4391TIP3    H113179   1.912   0.574   2.277  1.1135 -0.2400 -2.7066
 4391TIP3    H213180   1.803   0.508   2.196 -1.9229  1.0345  0.0959
 4392TIP3   OH213181   0.252   3.703   3.045  0.4360 -0.2958  0.3294
 4392TIP3    H113182   0.204   3.785   3.040  0.4265 -0.3733 -2.6524
 4392TIP3    H213183   0.344   3.729   3.049  0.4913 -0.0571 -1.5373
 4393TIP3   OH213184   0.594   1.259   0.292 -0.2408 -0.6292 -0.0897
 4393TIP3    H113185   0.513   1.300   0.322 -0.8227 -1.4199 -0.5489
 4393TIP3    H213186   0.566   1.191   0.231  0.8332 -0.1539 -1.1604
 4394TIP3   OH213187   3.658   2.766   1.108  0.1556  0.1005 -0.0668
 4394TIP3    H113188   3.701   2.713   1.042 -0.1135 -1.4007  0.9156
 4394TIP3    H213189   3.724   2.832   1.132  1.0232 -0.6377 -0.3473
 4395TIP3   OH213190   3.697   2.403   4.910 -0.5038 -0.0598 -0.2305
 4395TIP3    H113191   3.645   2.347   4.853 -0.0786 -1.1412  0.4105
 4395TIP3    H213192   3.788   2.384   4.886 -0.2917 -1.0863  1.2807
 4396TIP3   OH213193   5.863   4.019   5.080 -0.7789 -0.3542  0.3121
 4396TIP3    H113194   5.794   3.996   5.142 -1.2567  0.3503  0.0605
 4396TIP3    H213195   5.915   3.939   5.070 -1.4040 -0.8160  0.7005
 4397TIP3   OH213196   2.195   1.193   1.783 -0.0835  0.8964  0.1616
 4397TIP3    H113197   2.280   1.225   1.752 -0.0693  1.8423  1.0973
 4397TIP3    H213198   2.212   1.163   1.872 -0.0043 -2.2555 -0.8063
 4398TIP3   OH213199   3.553   5.699   0.257 -0.6216 -0.5551 -0.2179
 4398TIP3    H113200   3.482   5.763   0.255 -0.0199  0.1209 -0.4404
 4398TIP3    H213201   3.583   5.694   0.166 -0.3537 -0.7963 -0.1163
 4399TIP3   OH213202   3.013   5.898   1.431 -0.3740  0.1185 -0.3321
 4399TIP3    H113203   2.979   5.914   1.343 -0.2434  0.0760 -0.3914
 4399TIP3    H213204   3.105   5.925   1.426 -0.8728  2.1216  0.3685
 4400TIP3   OH213205   5.039   0.418   1.240 -0.0677 -0.2938 -0.2815
 4400TIP3    H113206   5.033   0.333   1.283 -0.5190 -0.3646 -0.4738
 4400TIP3    H213207   4.948   0.444   1.227  0.0689 -0.0110 -0.6758
 4401TIP3   OH213208   3.300   2.968   3.038  0.0685  0.1418 -0.4242
 4401TIP3    H113209   3.288   2.875   3.057 -0.7717  0.4999  0.9422
 4401TIP3    H213210   3.392   2.976   3.011  0.7800 -0.7802  1.5155
 4402TIP3   OH213211   5.000   1.252   0.491  0.4757 -0.4876 -0.4795
 4402TIP3    H113212   5.030   1.279   0.578 -0.4891  0.1068 -0.3210
 4402TIP3    H213213   5.078   1.215   0.449  1.5206  1.2671 -0.1875
 4403TIP3   OH213214   1.880   5.035   1.091  0.2597  0.2903  0.4603
 4403TIP3    H113215   1.959   5.066   1.048 -0.0346  0.9138  0.3588
 4403TIP3    H213216   1.841   4.974   1.028  0.1012  0.8035  0.0510
 4404TIP3   OH213217   1.357   2.415   0.464 -0.7407  0.0707  0.2331
 4404TIP3    H113218   1.413   2.356   0.413  0.1056 -1.1810  2.5055
 4404TIP3    H213219   1.275   2.367   0.475 -1.8217  1.3020 -1.8259
 4405TIP3   OH213220   4.171   0.147   4.670 -0.3846 -0.4480  0.0784
 4405TIP3    H113221   4.122   0.091   4.730  0.2194 -0.1168  0.9168
 4405TIP3    H213222   4.260   0.150   4.707 -0.1316  0.1903 -0.5415
 4406TIP3   OH213223   5.664   5.903   1.705 -0.4876 -0.1601 -0.2144
 4406TIP3    H113224   5.603   5.945   1.645  1.3622  1.2860 -1.2071
 4406TIP3    H213225   5.716   5.845   1.650 -0.1534 -0.4479  0.3865
 4407TIP3   OH213226   0.454   0.436   0.201 -0.1756  0.8705  0.1716
 4407TIP3    H113227   0.399   0.359   0.192  0.5849  0.2238  0.8582
 4407TIP3    H213228   0.501   0.442   0.118 -0.2499  0.5901  0.1084
 4408TIP3   OH213229   5.505   0.650   4.979 -0.1941 -0.6074 -0.7614
 4408TIP3    H113230   5.421   0.694   4.992  0.9362  1.2493  0.7155
 4408TIP3    H213231   5.536   0.682   4.894 -1.0586 -1.5482 -1.4696
 4409TIP3   OH213232   2.210   3.327   4.559 -0.3024 -0.6172 -0.4020
 4409TIP3    H113233   2.267   3.320   4.636  0.3206 -0.3101 -0.8293
 4409TIP3    H213234   2.233   3.252   4.505 -0.1692 -0.3890 -0.6638
 4410TIP3   OH213235   5.498   0.522   3.393 -0.3288 -0.3989 -0.5242
 4410TIP3    H113236   5.503   0.458   3.322 -2.5859 -0.6820 -0.4867
 4410TIP3    H213237   5.407   0.549   3.395 -0.2903 -0.2064  2.0931
 4411TIP3   OH213238   6.262   5.163   2.374  0.2975  0.2869 -0.0536
 4411TIP3    H113239   6.256   5.255   2.400  0.0373  1.0357 -2.4369
 4411TIP3    H213240   6.303   5.166   2.287 -1.3150 -1.6594 -0.9759
 4412TIP3   OH213241   0.287   0.478   2.986  0.0197  0.1681  0.0343
 4412TIP3    H113242   0.197   0.479   2.955  0.0852 -0.8683 -0.2366
 4412TIP3    H213243   0.327   0.403   2.941  1.0156  0.6243  0.1365
 4413TIP3   OH213244   5.203   3.589   3.811 -0.4345  0.2290 -0.1271
 4413TIP3    H113245   5.267   3.532   3.853  0.6771  1.9867  0.6552
 4413TIP3    H213246   5.223   3.676   3.844 -1.5689  1.2108 -1.8922
 4414TIP3   OH213247   2.848   5.634   1.252  0.0244 -0.8706 -0.4160
 4414TIP3    H113248   2.902   5.709   1.228 -0.0038 -0.4301  0.8423
 4414TIP3    H213249   2.888   5.560   1.206 -1.3885  0.2231 -3.7274
 4415TIP3   OH213250   3.037   5.984   5.095  0.5647  0.0760  0.3271
 4415TIP3    H113251   3.001   5.903   5.132 -1.1495  0.1643 -1.0115
 4415TIP3    H213252   3.054   6.039   5.172 -4.2197  0.8151  1.1835
 4416TIP3   OH213253   3.735   5.336   3.824  0.0751 -0.3071  0.1623
 4416TIP3    H113254   3.773   5.287   3.751 -1.0980 -0.7313 -0.1816
 4416TIP3    H213255   3.771   5.424   3.815  2.7223 -1.1799  1.1569
 4417TIP3   OH213256   2.429   1.048   2.915 -0.1173 -0.1821 -0.4008
 4417TIP3    H113257   2.477   1.098   2.981  1.7601  0.1231 -1.9089
 4417TIP3    H213258   2.427   0.958   2.948 -0.5669  0.2359  0.7541
 4418TIP3   OH213259   3.531   0.214   3.091 -0.0187 -0.5742 -0.5484
 4418TIP3    H113260   3.566   0.170   3.168  0.7245  0.6796 -0.1422
 4418TIP3    H213261   3.566   0.303   3.096 -0.3652 -0.3202 -2.0589
 4419TIP3   OH213262   1.855   4.547   2.162 -0.0129  0.2948 -0.3324
 4419TIP3    H113263   1.943   4.513   2.143  1.0293  1.3577  2.1172
 4419TIP3    H213264   1.808   4.472   2.198  0.2768  0.0046 -0.5447
 4420TIP3   OH213265   2.137   4.239   3.492 -0.1044  0.0494 -0.5270
 4420TIP3    H113266   2.172   4.170   3.435 -0.8244  0.2176 -1.1891
 4420TIP3    H213267   2.053   4.262   3.453 -0.7572 -0.0231  0.7621
 4421TIP3   OH213268   2.477   0.331   4.561 -0.7081 -0.1301 -0.5247
 4421TIP3    H113269   2.556   0.282   4.535 -0.3509  0.1956 -0.0741
 4421TIP3    H213270   2.448   0.288   4.641  0.2753  1.0868  0.5226
 4422TIP3   OH213271   5.720   4.485   3.834  0.1422  0.6471  0.0281
 4422TIP3    H113272   5.779   4.413   3.809 -0.4952  0.3725 -0.6998
 4422TIP3    H213273   5.634   4.457   3.805  0.1496  2.5581 -2.0468
 4423TIP3   OH213274   0.806   3.509   2.862  0.5276  0.0949 -0.2682
 4423TIP3    H113275   0.719   3.506   2.902  0.8018  1.3373  0.4736
 4423TIP3    H213276   0.790   3.508   2.768 -0.4607  2.5856 -0.2051
 4424TIP3   OH213277   4.740   5.784   1.530 -0.2023 -0.1034  0.2140
 4424TIP3    H113278   4.713   5.873   1.550  0.9546 -0.1483  2.2089
 4424TIP3    H213279   4.669   5.729   1.563 -0.5615  0.0289 -0.3240
 4425TIP3   OH213280   2.605   3.943   3.723  0.5236 -0.0184  0.5645
 4425TIP3    H113281   2.516   3.934   3.757  0.9648  1.8015  2.4195
 4425TIP3    H213282   2.657   3.970   3.799  2.5038 -0.2183 -0.6541
 4426TIP3   OH213283   1.721   2.420   2.068  0.1253 -0.1299 -0.1929
 4426TIP3    H113284   1.683   2.432   2.155 -1.3263 -0.1792 -0.7917
 4426TIP3    H213285   1.656   2.368   2.020  2.2080 -2.7319 -0.4273
 4427TIP3   OH213286   2.668   5.675   0.331 -0.1649  0.0048  0.5321
 4427TIP3    H113287   2.687   5.739   0.399 -1.4332 -1.1717  2.0768
 4427TIP3    H213288   2.703   5.713   0.251  1.8594  1.2048  1.9112
 4428TIP3   OH213289   5.110   3.766   1.034  0.2348 -0.0351  0.0088
 4428TIP3    H113290   5.182   3.801   0.981  3.2307 -1.3321  2.8972
 4428TIP3    H213291   5.070   3.844   1.073  2.9115  0.6438  1.6407
 4429TIP3   OH213292   5.099   2.404   1.060 -0.4589 -0.3928 -0.6453
 4429TIP3    H113293   5.095   2.459   0.981  1.0220  0.5237 -0.1306
 4429TIP3    H213294   5.176   2.349   1.046  0.7886  0.8817  0.7935
 4430TIP3   OH213295   0.664   3.432   1.134 -0.3364  0.4131 -0.2447
 4430TIP3    H113296   0.577   3.467   1.157 -0.0126  1.2857 -0.3140
 4430TIP3    H213297   0.726   3.494   1.174  0.2835 -0.9789  1.0317
 4431TIP3   OH213298   6.004   0.697   4.265 -0.0808 -0.0575 -0.6866
 4431TIP3    H113299   6.037   0.608   4.279  2.0091  0.7217 -0.3778
 4431TIP3    H213300   5.962   0.693   4.179 -0.7447 -1.5222 -0.3276
 4432TIP3   OH213301   2.954   4.947   0.605 -0.6620  0.3467  0.0576
 4432TIP3    H113302   2.908   4.900   0.674 -2.6238  0.0716 -1.3539
 4432TIP3    H213303   2.891   5.012   0.574 -1.3698 -1.8960 -3.9051
 4433TIP3   OH213304   4.842   2.555   0.888  0.0743 -0.0348  0.3182
 4433TIP3    H113305   4.796   2.471   0.896 -0.2436 -0.0095 -1.0086
 4433TIP3    H213306   4.793   2.615   0.943 -2.3778  0.3332 -2.0513
 4434TIP3   OH213307   5.663   5.409   2.427 -0.2661 -0.4034 -0.3288
 4434TIP3    H113308   5.613   5.373   2.353 -0.8276  0.9554 -0.6497
 4434TIP3    H213309   5.749   5.430   2.391 -0.4531  0.0122 -0.5386
 4435TIP3   OH213310   2.816   4.696   1.915 -0.1791  0.0036 -0.0773
 4435TIP3    H113311   2.801   4.606   1.886  0.7670 -0.1707 -0.0847
 4435TIP3    H213312   2.761   4.706   1.992 -2.7482  0.4773 -1.8643
 4436TIP3   OH213313   0.526   1.636   3.075  0.0645  0.2097  0.3933
 4436TIP3    H113314   0.436   1.634   3.107 -0.4397  2.1103 -0.7146
 4436TIP3    H213315   0.526   1.576   3.000 -0.2520  0.1342  0.4530
 4437TIP3   OH213316   5.542   0.900   1.686 -0.2143  0.1078 -0.0765
 4437TIP3    H113317   5.515   0.870   1.773 -2.4879  1.7954 -0.1170
 4437TIP3    H213318   5.605   0.970   1.704 -0.0138 -0.1431  0.1968
 4438TIP3   OH213319   1.072   2.838   3.430  0.0387  0.4922  0.4894
 4438TIP3    H113320   1.042   2.881   3.510 -1.3612 -0.2069  0.3658
 4438TIP3    H213321   1.029   2.887   3.360 -2.2359 -1.4950  0.3696
 4439TIP3   OH213322   2.502   4.735   1.283 -0.0306 -0.3943  0.0314
 4439TIP3    H113323   2.590   4.770   1.271  0.8181 -1.5879  2.1822
 4439TIP3    H213324   2.508   4.645   1.251  0.0629 -1.0306  1.7325
 4440TIP3   OH213325   1.869   2.852   2.170 -0.6113 -0.0171  0.2809
 4440TIP3    H113326   1.941   2.791   2.155  0.3347  1.1594 -0.1115
 4440TIP3    H213327   1.888   2.892   2.254  0.5594  2.0333 -0.8658
 4441TIP3   OH213328   5.875   2.471   0.812  0.4921  0.6294 -0.3978
 4441TIP3    H113329   5.862   2.436   0.900  0.6263 -1.1051 -1.0408
 4441TIP3    H213330   5.970   2.467   0.798  0.2509 -3.1914 -2.1320
 4442TIP3   OH213331   4.384   1.984   4.312 -0.1386 -0.2213 -0.0417
 4442TIP3    H113332   4.292   1.973   4.292 -0.2354 -0.1262  0.3320
 4442TIP3    H213333   4.394   2.077   4.331  0.1604 -0.1165 -0.6926
 4443TIP3   OH213334   3.100   1.416   3.974  0.0630 -0.2275  0.3274
 4443TIP3    H113335   3.138   1.446   3.891 -1.9693  0.2970 -0.4738
 4443TIP3    H213336   3.038   1.348   3.949 -1.2537  0.5599  1.2826
 4444TIP3   OH213337   1.138   2.332   1.866  0.2023  0.0169 -0.1537
 4444TIP3    H113338   1.183   2.415   1.876 -1.2284  0.5738  2.4882
 4444TIP3    H213339   1.067   2.351   1.804  0.2436  0.5870 -0.0306
 4445TIP3   OH213340   0.684   5.301   2.600  0.3497  0.9423 -0.2657
 4445TIP3    H113341   0.658   5.224   2.549  0.2397  0.3332  0.6861
 4445TIP3    H213342   0.736   5.265   2.672  0.4793  1.7859  0.0694
 4446TIP3   OH213343   3.001   4.015   2.280  0.0296  0.4311  0.5545
 4446TIP3    H113344   2.905   4.011   2.279  0.0452 -0.0203  0.4690
 4446TIP3    H213345   3.024   4.081   2.215 -0.1835 -0.4890 -0.4869
 4447TIP3   OH213346   5.813   1.084   0.586  0.3474  0.3720 -0.2723
 4447TIP3    H113347   5.877   1.017   0.563  0.6401  0.2733  0.7800
 4447TIP3    H213348   5.824   1.152   0.520  2.0739  0.7173  0.3321
 4448TIP3   OH213349   0.755   2.515  -0.003 -0.5669  0.2332 -0.5093
 4448TIP3    H113350   0.731   2.509   0.089  0.5504  2.1602 -0.0420
 4448TIP3    H213351   0.825   2.451  -0.014 -0.6057  0.0972  0.0147
 4449TIP3   OH213352   3.458   5.782   2.802  0.0951 -0.3886  0.0875
 4449TIP3    H113353   3.550   5.798   2.823  0.1995 -0.6807 -0.1477
 4449TIP3    H213354   3.450   5.686   2.801 -0.3974 -0.3660  0.9278
 4450TIP3   OH213355   5.213   2.200   1.350 -0.0287 -0.9366  0.2512
 4450TIP3    H113356   5.229   2.294   1.338  2.1736 -1.0805  1.6691
 4450TIP3    H213357   5.235   2.162   1.265  2.5679 -0.5071  0.6433
 4451TIP3   OH213358   4.665   1.351   4.647  0.5584  0.4693  0.1316
 4451TIP3    H113359   4.703   1.320   4.729  1.4026  0.8607 -0.0913
 4451TIP3    H213360   4.631   1.273   4.605 -2.3788  0.5763  2.0453
 4452TIP3   OH213361   0.444   5.116   2.731  0.1639 -0.3381 -0.2997
 4452TIP3    H113362   0.414   5.057   2.662 -1.7768  0.6811 -0.4246
 4452TIP3    H213363   0.537   5.099   2.740 -0.0729 -2.4009 -1.2889
 4453TIP3   OH213364   4.100   3.085   5.019  0.2025 -0.0806  1.0657
 4453TIP3    H113365   4.033   3.092   4.951  0.3056  1.4208  1.0840
 4453TIP3    H213366   4.179   3.118   4.978  0.4312  0.1560  1.6820
 4454TIP3   OH213367   4.381   3.936   0.142 -0.3379  0.5483 -0.5214
 4454TIP3    H113368   4.291   3.906   0.126  0.1772 -1.1711 -0.3282
 4454TIP3    H213369   4.433   3.893   0.074  0.4408  1.0128 -0.2310
 4455TIP3   OH213370   0.775   4.459   0.847  0.3326  0.2230 -0.0218
 4455TIP3    H113371   0.813   4.405   0.916  0.7778  0.6599  0.0848
 4455TIP3    H213372   0.687   4.425   0.835 -0.7200  1.7009  2.5478
 4456TIP3   OH213373   3.660   0.897   0.840  0.2269  0.1995 -0.5816
 4456TIP3    H113374   3.705   0.923   0.920  1.0725  0.5567 -1.1587
 4456TIP3    H213375   3.721   0.919   0.769  1.1185 -3.4594 -1.1569
 4457TIP3   OH213376   2.855   2.980   1.228 -0.0638 -0.1263  0.3166
 4457TIP3    H113377   2.933   2.964   1.282 -0.7111  0.8967  1.6221
 4457TIP3    H213378   2.793   2.912   1.255  0.5705 -1.3588 -1.2048
 4458TIP3   OH213379   3.536   4.111   2.464 -0.5318  0.1100  0.6477
 4458TIP3    H113380   3.519   4.017   2.450  2.1092 -0.4157  0.4721
 4458TIP3    H213381   3.601   4.133   2.398 -0.5768  1.9203  1.1613
 4459TIP3   OH213382   5.969   1.944   0.943 -0.1504 -0.0801  0.0938
 4459TIP3    H113383   5.979   1.876   0.877  1.1311 -1.0790  1.2402
 4459TIP3    H213384   5.936   1.898   1.020 -1.6865  1.0665  0.1606
 4460TIP3   OH213385   0.151   0.714   3.966  0.0044 -0.1417 -0.1290
 4460TIP3    H113386   0.137   0.741   3.875 -1.4170  0.0263  0.1174
 4460TIP3    H213387   0.182   0.793   4.010  0.7630 -0.2410 -0.4738
 4461TIP3   OH213388   3.219   4.465   5.126 -0.3683  0.6000  0.3706
 4461TIP3    H113389   3.170   4.534   5.081  0.3117  0.5059 -0.5441
 4461TIP3    H213390   3.231   4.398   5.059 -0.1633  0.0316  0.9756
 4462TIP3   OH213391   3.232   4.192   4.679  0.1788  0.0638  0.1140
 4462TIP3    H113392   3.226   4.096   4.680  0.8052  0.0214  0.9333
 4462TIP3    H213393   3.197   4.218   4.764 -0.0919  0.5737 -0.1535
 4463TIP3   OH213394   3.461   1.993   2.724 -0.6712  0.1181 -0.1015
 4463TIP3    H113395   3.490   1.979   2.815  1.0880  2.2137 -0.2575
 4463TIP3    H213396   3.373   1.955   2.721 -0.9599  0.3698  2.6011
 4464TIP3   OH213397   0.708   5.411   4.746 -0.7903  0.1037 -0.0633
 4464TIP3    H113398   0.624   5.412   4.792 -1.1398 -1.0444 -0.6513
 4464TIP3    H213399   0.770   5.375   4.810 -1.3853 -2.0191 -0.6157
 4465TIP3   OH213400   2.400   4.114   2.571  0.1167  0.2551 -0.0255
 4465TIP3    H113401   2.496   4.111   2.575  0.1731  1.6859  0.3686
 4465TIP3    H213402   2.374   4.025   2.551  1.6239  0.2648 -2.4118
 4466TIP3   OH213403   2.427   2.857   0.522  0.0265 -0.5781  0.4632
 4466TIP3    H113404   2.350   2.900   0.559 -0.7142 -1.4048 -0.0776
 4466TIP3    H213405   2.499   2.917   0.541 -0.9469  0.8748 -0.2100
 4467TIP3   OH213406   0.472   1.274   0.614  0.1787  0.3033  0.6935
 4467TIP3    H113407   0.427   1.320   0.543  0.7314  1.8576  1.3062
 4467TIP3    H213408   0.503   1.192   0.575 -1.6378 -0.0104 -0.1883
 4468TIP3   OH213409   4.778   0.418   0.983  0.3157  0.1157 -0.4399
 4468TIP3    H113410   4.866   0.419   0.944  0.0730  0.3307 -0.9884
 4468TIP3    H213411   4.778   0.492   1.044  1.1768 -1.0604  1.0797
 4469TIP3   OH213412   0.318   5.581   0.876  0.2662 -0.7955  0.4146
 4469TIP3    H113413   0.339   5.602   0.967 -0.4482 -1.1678  0.6735
 4469TIP3    H213414   0.378   5.510   0.853  0.7692 -0.3888  0.4351
 4470TIP3   OH213415   4.353   0.257   2.812 -0.2483  0.1986  0.3898
 4470TIP3    H113416   4.396   0.195   2.752 -1.4923  0.5304 -0.9047
 4470TIP3    H213417   4.422   0.285   2.871  1.0791 -0.0371 -0.9916
 4471TIP3   OH213418   3.768   4.926   2.348  0.2503  0.5141  0.3631
 4471TIP3    H113419   3.819   4.886   2.418 -1.5569 -1.9447  0.3811
 4471TIP3    H213420   3.686   4.877   2.346  0.0602  0.6909 -3.2482
 4472TIP3   OH213421   5.919   0.169   3.062 -0.1153  0.0148 -0.0356
 4472TIP3    H113422   5.951   0.093   3.014 -3.1348 -0.8733 -0.8434
 4472TIP3    H213423   5.980   0.239   3.038  2.1962 -1.8659 -0.0028
 4473TIP3   OH213424   1.971   2.427   3.774  0.0600  0.2082 -0.7011
 4473TIP3    H113425   1.980   2.477   3.692 -1.3233  1.4298 -0.1461
 4473TIP3    H213426   1.903   2.362   3.756  0.6698 -0.3890 -0.8994
 4474TIP3   OH213427   3.513   2.698   3.670 -0.4139 -0.0359  0.0594
 4474TIP3    H113428   3.460   2.620   3.683 -2.0489  0.9704 -0.2628
 4474TIP3    H213429   3.464   2.751   3.606  1.5069  0.4859 -1.0998
 4475TIP3   OH213430   3.631   0.550   2.488  0.4126 -0.0263  0.3373
 4475TIP3    H113431   3.611   0.480   2.426  2.5908  1.2428 -1.9624
 4475TIP3    H213432   3.682   0.507   2.557  1.2243 -0.8260 -0.7325
 4476TIP3   OH213433   2.718   5.877   4.803 -0.4274  0.0073  0.2283
 4476TIP3    H113434   2.725   5.793   4.849  0.0158 -0.1747 -0.1585
 4476TIP3    H213435   2.764   5.939   4.860  0.1060 -0.2140  0.0505
 4477TIP3   OH213436   2.278   2.570   0.154  0.7587 -0.1991  0.3583
 4477TIP3    H113437   2.346   2.587   0.219 -0.2906  0.4701  1.3143
 4477TIP3    H213438   2.245   2.483   0.176 -2.1102  1.3977  3.1703
 4478TIP3   OH213439   2.722   2.386   4.255  0.6353  0.3887 -0.4342
 4478TIP3    H113440   2.802   2.416   4.298  0.5775 -0.6459  0.4451
 4478TIP3    H213441   2.698   2.307   4.302 -0.6712  0.4380 -0.9774
 4479TIP3   OH213442   1.325   5.075   1.811 -0.3645  0.5409  0.9428
 4479TIP3    H113443   1.327   5.135   1.737 -1.7415 -1.3868 -0.7940
 4479TIP3    H213444   1.346   4.990   1.773 -3.4887 -0.9626  2.1839
 4480TIP3   OH213445   4.500   2.946   4.013 -0.1335 -0.8199 -0.1352
 4480TIP3    H113446   4.500   2.897   3.931 -0.0412 -0.3550 -0.4174
 4480TIP3    H213447   4.504   2.879   4.081 -2.0215 -1.3205 -0.4577
 4481TIP3   OH213448   0.667   4.377   4.625  0.4202  0.4991  0.5261
 4481TIP3    H113449   0.657   4.420   4.541  1.5757  1.5289  0.8962
 4481TIP3    H213450   0.581   4.336   4.641  0.4847 -0.5699 -1.5721
 4482TIP3   OH213451   0.044   4.137   2.856  0.0882  0.4193 -0.3416
 4482TIP3    H113452   0.030   4.043   2.847 -1.0566  0.5324  0.1650
 4482TIP3    H213453   0.056   4.168   2.767  0.5644 -0.2068 -0.5065
 4483TIP3   OH213454   2.047   0.463   4.934  0.2136  0.1071 -0.5019
 4483TIP3    H113455   1.995   0.390   4.900  0.4148 -1.3159  2.0359
 4483TIP3    H213456   2.032   0.462   5.028  2.2817  1.7112 -0.0820
 4484TIP3   OH213457   4.826   3.878   2.192  0.6590 -0.5927  0.3695
 4484TIP3    H113458   4.841   3.894   2.285 -1.0673 -0.2047  0.6188
 4484TIP3    H213459   4.734   3.853   2.186  0.6834 -0.4334 -1.2602
 4485TIP3   OH213460   5.272   1.919   0.886 -0.1023 -0.4025  0.2074
 4485TIP3    H113461   5.206   1.944   0.821 -1.4253 -0.8162  1.3327
 4485TIP3    H213462   5.242   1.834   0.918  1.0746 -0.6637  0.6480
 4486TIP3   OH213463   5.624   1.219   1.115 -0.4397  0.4259 -0.0275
 4486TIP3    H113464   5.584   1.296   1.075 -0.5142 -0.0710 -0.9372
 4486TIP3    H213465   5.608   1.149   1.053  1.3000  0.0645 -0.1182
 4487TIP3   OH213466   4.883   1.191   0.223 -0.0505  0.1955  0.2730
 4487TIP3    H113467   4.810   1.224   0.170  2.0568  2.2032 -1.5664
 4487TIP3    H213468   4.926   1.127   0.167  1.0646  0.8952  0.3159
 4488TIP3   OH213469   5.632   3.636   2.012  0.1518 -0.1429  0.0591
 4488TIP3    H113470   5.684   3.707   2.047 -1.8961  0.9475  1.1053
 4488TIP3    H213471   5.677   3.556   2.040  1.2555  0.7428  0.8619
 4489TIP3   OH213472   6.365   3.101   1.257  0.0513 -0.0159 -0.2929
 4489TIP3    H113473   6.391   3.167   1.193 -2.1742  0.8041 -0.4529
 4489TIP3    H213474   6.319   3.035   1.206 -0.2143 -0.2363  0.2183
 4490TIP3   OH213475   4.471   1.669   0.633 -0.3530 -0.0718 -0.3277
 4490TIP3    H113476   4.468   1.727   0.556  0.7790 -0.3783 -0.6239
 4490TIP3    H213477   4.563   1.670   0.659  0.0501 -2.9927 -1.3216
 4491TIP3   OH213478   5.582   4.007   2.783 -0.1987  0.6139  0.2366
 4491TIP3    H113479   5.677   4.000   2.792 -0.1466  0.8844 -0.0786
 4491TIP3    H213480   5.566   3.991   2.690 -0.3524  1.6738  0.0624
 4492TIP3   OH213481   1.720   4.717   2.739 -0.4234 -0.4084 -0.6209
 4492TIP3    H113482   1.748   4.671   2.660 -1.0296  0.3331 -1.2926
 4492TIP3    H213483   1.648   4.774   2.709 -1.1952 -0.6888  0.6128
 4493TIP3   OH213484   1.714   2.291   0.595 -0.0243  0.3273  0.1076
 4493TIP3    H113485   1.685   2.371   0.638  0.1536 -0.1281  1.0921
 4493TIP3    H213486   1.809   2.292   0.604 -0.1361 -2.4049  4.7391
 4494TIP3   OH213487   4.783   2.121   2.382  0.2996  0.0581  0.0746
 4494TIP3    H113488   4.854   2.182   2.366 -1.0626  2.5047  2.4024
 4494TIP3    H213489   4.753   2.094   2.295  1.8067  1.6735 -0.9987
 4495TIP3   OH213490   0.530   0.736   1.111 -0.1590  0.4844 -0.2218
 4495TIP3    H113491   0.611   0.686   1.122  0.2922  1.2996  0.2395
 4495TIP3    H213492   0.462   0.682   1.151 -0.3028 -1.3378 -2.6695
 4496TIP3   OH213493   3.669   5.416   0.895  0.1876  0.0079  0.0875
 4496TIP3    H113494   3.725   5.468   0.837 -1.2222  1.1952 -0.2879
 4496TIP3    H213495   3.716   5.334   0.906  2.0390  0.9640 -0.1321
 4497TIP3   OH213496   4.328   1.887   4.952  0.7214  0.3539 -0.4361
 4497TIP3    H113497   4.295   1.811   4.999  2.1997 -0.0714 -0.0468
 4497TIP3    H213498   4.374   1.851   4.876 -1.3909  1.0188 -2.1310
 4498TIP3   OH213499   1.245   2.592   1.125  0.2203  0.5456  0.3920
 4498TIP3    H113500   1.227   2.647   1.049 -1.1492 -0.5123 -0.0848
 4498TIP3    H213501   1.333   2.557   1.109  1.0294  2.3835  0.6051
 4499TIP3   OH213502   2.019   1.784   3.755  0.2085  0.1896 -0.0479
 4499TIP3    H113503   2.063   1.855   3.802  0.8344 -0.7193  0.7795
 4499TIP3    H213504   2.023   1.709   3.815 -1.6218 -0.2016 -0.3410
 4500TIP3   OH213505   2.150   1.482   4.997 -0.0294  0.1015 -0.1289
 4500TIP3    H113506   2.201   1.556   5.030  1.3077 -1.0125  0.4019
 4500TIP3    H213507   2.092   1.520   4.931  0.5250  1.6367  0.2389
 4501TIP3   OH213508   1.372   1.332   2.945  0.3342  0.4750  0.0601
 4501TIP3    H113509   1.290   1.362   2.984  0.5716 -0.8628  1.7464
 4501TIP3    H213510   1.346   1.260   2.887  0.3688 -0.8618  1.6271
 4502TIP3   OH213511   3.212   2.484   1.923  0.2232  0.2121  0.4564
 4502TIP3    H113512   3.190   2.528   2.005 -0.3547  0.9908 -0.1088
 4502TIP3    H213513   3.219   2.391   1.947 -0.1038  0.4109  1.3497
 4503TIP3   OH213514   0.498   1.102   0.861  0.5115 -0.0262  0.4790
 4503TIP3    H113515   0.533   1.182   0.900  1.2429 -0.5481  0.9046
 4503TIP3    H213516   0.460   1.131   0.778  0.2993  0.8423  0.8697
 4504TIP3   OH213517   1.753   5.552   0.876  0.3221  0.9260 -0.3072
 4504TIP3    H113518   1.714   5.485   0.932 -1.0853  2.5309  0.7574
 4504TIP3    H213519   1.747   5.517   0.787 -0.7284 -0.1731  0.1737
 4505TIP3   OH213520   5.305   2.760   4.674  0.0438 -0.0061 -0.1855
 4505TIP3    H113521   5.323   2.666   4.666  0.7849  0.1193 -0.0687
 4505TIP3    H213522   5.339   2.798   4.592  1.8775  0.4530  0.7351
 4506TIP3   OH213523   2.603   1.230   4.819  0.0346  0.0742 -0.0628
 4506TIP3    H113524   2.564   1.297   4.875 -0.4686 -1.0973  1.0529
 4506TIP3    H213525   2.662   1.182   4.877  0.5059 -0.3455 -0.8785
 4507TIP3   OH213526   4.902   3.707   1.413  0.9284 -0.0838  0.4080
 4507TIP3    H113527   4.829   3.769   1.408  0.1395 -1.0626 -0.6048
 4507TIP3    H213528   4.872   3.640   1.475  0.8491 -0.6311 -0.2180
 4508TIP3   OH213529   4.480   3.203   3.095 -0.0451  0.2258  0.3937
 4508TIP3    H113530   4.448   3.276   3.148  1.0590  1.2352 -0.2904
 4508TIP3    H213531   4.431   3.208   3.013  0.9677  1.0502 -0.1856
 4509TIP3   OH213532   4.779   2.983   2.683  0.1594  0.3478  0.4395
 4509TIP3    H113533   4.858   3.011   2.638 -0.9495 -0.8853 -2.4640
 4509TIP3    H213534   4.811   2.926   2.753  1.8538 -0.7499 -1.1342
 4510TIP3   OH213535   0.238   3.713   0.903  0.0546 -0.3412  0.0556
 4510TIP3    H113536   0.153   3.726   0.946 -0.0180 -2.7644  0.8018
 4510TIP3    H213537   0.294   3.781   0.941 -1.1609  0.3774  0.6463
 4511TIP3   OH213538   0.105   3.270   0.072 -0.4268 -0.1692  0.0878
 4511TIP3    H113539   0.032   3.221   0.109 -0.4150  0.0091  0.3487
 4511TIP3    H213540   0.121   3.229  -0.013 -0.6293 -0.4063  0.1640
 4512TIP3   OH213541   4.731   1.879   0.674 -0.6059 -0.1508 -0.1159
 4512TIP3    H113542   4.690   1.960   0.642 -0.9711 -0.7521 -1.2311
 4512TIP3    H213543   4.800   1.861   0.610 -0.7586 -0.9099 -0.0694
 4513TIP3   OH213544   5.517   5.709   3.347  0.3979 -0.5011 -1.0163
 4513TIP3    H113545   5.504   5.623   3.307  2.0320 -1.5000  0.4919
 4513TIP3    H213546   5.432   5.730   3.386 -0.1548 -1.1891 -1.8043
 4514TIP3   OH213547   5.975   3.454   1.109 -0.0263 -0.0257 -0.1206
 4514TIP3    H113548   5.893   3.479   1.151  0.4088 -1.1711  1.5274
 4514TIP3    H213549   6.004   3.533   1.064 -0.8542  1.1106  1.2581
 4515TIP3   OH213550   2.790   5.532   3.654  0.0657 -0.2437  0.0359
 4515TIP3    H113551   2.746   5.488   3.727 -0.0666 -0.8561 -0.4073
 4515TIP3    H213552   2.833   5.461   3.606  1.4706  0.3372  0.4082
 4516TIP3   OH213553   0.496   2.894   0.678  0.3459  0.1411  0.4154
 4516TIP3    H113554   0.533   2.879   0.591 -1.5921  3.5229 -1.1938
 4516TIP3    H213555   0.423   2.832   0.684  0.8349 -0.4971 -0.1149
 4517TIP3   OH213556   1.910   4.250   4.269  0.4142  0.3991  0.0173
 4517TIP3    H113557   1.974   4.321   4.272  0.6780  0.1280  1.4055
 4517TIP3    H213558   1.834   4.284   4.317  0.5349 -0.2304  0.6792
 4518TIP3   OH213559   4.598   1.403   4.268  0.0037 -0.9708 -0.2865
 4518TIP3    H113560   4.593   1.446   4.183  0.1825 -0.2517  0.0635
 4518TIP3    H213561   4.690   1.412   4.294 -0.0092 -1.3564 -0.0988
 4519TIP3   OH213562   6.139   1.872   2.201  0.1748  0.3197 -0.2456
 4519TIP3    H113563   6.223   1.836   2.230  2.2864  1.7486 -3.7843
 4519TIP3    H213564   6.125   1.948   2.258  1.0566 -0.2214  0.7256
 4520TIP3   OH213565   4.265   2.688   3.809  0.1584  0.1171  0.5117
 4520TIP3    H113566   4.208   2.707   3.735  0.8058  3.4186  0.6935
 4520TIP3    H213567   4.207   2.690   3.885 -0.1058 -0.7097  0.3372
 4521TIP3   OH213568   0.481   1.416   4.443  0.1295  0.0607  0.1620
 4521TIP3    H113569   0.434   1.495   4.472  0.7497  0.1672  0.9101
 4521TIP3    H213570   0.522   1.382   4.522  0.0340 -0.9124 -0.1947
 4522TIP3   OH213571   1.444   1.914   2.503 -0.3656 -0.1526  0.1628
 4522TIP3    H113572   1.396   1.952   2.429 -0.4088 -1.4304 -0.4908
 4522TIP3    H213573   1.408   1.958   2.580 -1.0456  0.4656 -0.4916
 4523TIP3   OH213574   5.029   0.212   0.496 -0.0690  0.0154 -0.3837
 4523TIP3    H113575   5.039   0.165   0.579  0.0932  0.0742 -0.3698
 4523TIP3    H213576   5.033   0.305   0.521 -2.1536  0.0980 -0.1650
 4524TIP3   OH213577   1.816   3.438   1.838 -0.4239 -0.2671  0.3081
 4524TIP3    H113578   1.736   3.386   1.840 -0.4846 -0.5439 -3.2466
 4524TIP3    H213579   1.816   3.479   1.751  2.2537  1.4503  0.9890
 4525TIP3   OH213580   5.671   2.631   3.494 -0.0209 -0.2331  0.1983
 4525TIP3    H113581   5.697   2.550   3.537 -1.1303 -0.9922 -0.5080
 4525TIP3    H213582   5.643   2.688   3.566 -1.7425 -1.4333  0.5553
 4526TIP3   OH213583   4.501   2.727   0.295 -0.3260  0.6149  0.1210
 4526TIP3    H113584   4.474   2.807   0.250  2.1984  0.8511 -1.2139
 4526TIP3    H213585   4.432   2.664   0.277 -1.5395  1.9966 -0.2534
 4527TIP3   OH213586   6.321   1.890   0.658 -0.1355  0.0728 -0.1156
 4527TIP3    H113587   6.301   1.887   0.565 -0.3192  1.1225 -0.1232
 4527TIP3    H213588   6.417   1.881   0.663 -0.0352  0.8539 -0.4727
 4528TIP3   OH213589   6.089   1.716   2.480  0.3033  0.2549 -0.2607
 4528TIP3    H113590   6.056   1.800   2.448  1.2991  0.6518 -0.2798
 4528TIP3    H213591   6.171   1.737   2.523  1.4747 -0.9179 -1.7931
 4529TIP3   OH213592   3.534   5.231   1.174  0.0117 -0.1248 -0.7279
 4529TIP3    H113593   3.612   5.179   1.193  0.3951  1.3018  1.9747
 4529TIP3    H213594   3.466   5.193   1.229 -0.9480 -0.5553 -2.1397
 4530TIP3   OH213595   4.509   0.510   2.581 -0.1730  0.4207  0.2214
 4530TIP3    H113596   4.476   0.559   2.656  1.0873 -0.0959  1.1595
 4530TIP3    H213597   4.600   0.538   2.572 -0.5766  1.2508 -1.8121
 4531TIP3   OH213598   1.820   2.679   4.910 -0.1729 -0.1369 -0.1389
 4531TIP3    H113599   1.865   2.728   4.978 -2.0710  1.1612  0.2616
 4531TIP3    H213600   1.727   2.686   4.933 -0.7075 -1.4966 -1.6879
 4532TIP3   OH213601   1.704   0.919   0.586 -0.7669  0.2271  0.1574
 4532TIP3    H113602   1.709   0.977   0.662  1.4529  0.0414  0.2129
 4532TIP3    H213603   1.730   0.973   0.512 -1.4029  0.0026 -0.2362
 4533TIP3   OH213604   5.303   3.329   2.899  0.0344  0.6085 -0.2502
 4533TIP3    H113605   5.241   3.295   2.834 -0.7659  0.6199  0.4852
 4533TIP3    H213606   5.248   3.366   2.967  0.8834  2.1184 -0.3568
 4534TIP3   OH213607   3.814   0.917   0.571  0.0094  0.7082  0.1064
 4534TIP3    H113608   3.746   0.862   0.533  1.2125 -1.5124  0.9429
 4534TIP3    H213609   3.850   0.967   0.498 -1.9189  1.3225 -0.4731
 4535TIP3   OH213610   1.200   3.414  -0.003 -0.4141 -0.1725 -0.2319
 4535TIP3    H113611   1.190   3.403   0.092  3.3847  0.2409  0.3965
 4535TIP3    H213612   1.122   3.462  -0.030 -0.6782  1.5839  3.0894
 4536TIP3   OH213613   5.281   5.823   4.243  0.1163  0.0621  0.7343
 4536TIP3    H113614   5.318   5.894   4.190  3.0171 -1.1031  1.0144
 4536TIP3    H213615   5.315   5.839   4.331 -2.2677  0.3437  1.6642
 4537TIP3   OH213616   0.943   4.705   0.896  0.2473 -0.0694 -0.3325
 4537TIP3    H113617   0.963   4.641   0.964 -1.0495  0.5679  0.7025
 4537TIP3    H213618   0.855   4.736   0.918  0.6708  1.7729 -1.0377
 4538TIP3   OH213619   3.306   5.813   1.407 -0.2294  0.3112 -0.0953
 4538TIP3    H113620   3.344   5.835   1.321 -1.2062  0.1705 -0.5717
 4538TIP3    H213621   3.337   5.724   1.425 -2.7452 -1.0517 -1.9223
 4539TIP3   OH213622   1.183   3.451   2.596  0.7199  0.7040  0.0354
 4539TIP3    H113623   1.097   3.434   2.556 -0.5444 -1.2632  3.1988
 4539TIP3    H213624   1.177   3.540   2.628 -0.0843  0.6592  0.0392
 4540TIP3   OH213625   6.352   3.573   3.795 -0.3149  0.7605  0.3668
 4540TIP3    H113626   6.260   3.552   3.784 -0.2477  0.1818  0.8247
 4540TIP3    H213627   6.352   3.661   3.833 -0.6726  0.8418  0.1788
 4541TIP3   OH213628   5.268   0.204   1.632  0.1237 -0.5438  0.5711
 4541TIP3    H113629   5.335   0.206   1.700  0.4265 -1.4965  0.3199
 4541TIP3    H213630   5.318   0.211   1.550 -0.1579 -0.3536  0.4172
 4542TIP3   OH213631   0.227   4.044   4.787  0.0712  0.1569 -0.5204
 4542TIP3    H113632   0.146   4.065   4.833  0.0459 -1.5973  0.3224
 4542TIP3    H213633   0.274   3.985   4.846  2.2768  1.6061 -0.7189
 4543TIP3   OH213634   5.792   0.698   2.163  0.1433  0.2401 -0.1213
 4543TIP3    H113635   5.823   0.722   2.251 -0.6811 -0.7124  0.4496
 4543TIP3    H213636   5.704   0.663   2.177  0.1958 -0.3959 -1.2704
 4544TIP3   OH213637   3.741   2.673   4.045  0.7143 -0.6330 -0.3160
 4544TIP3    H113638   3.687   2.620   4.104 -0.1270 -0.4048 -0.8608
 4544TIP3    H213639   3.793   2.610   3.996 -0.5806 -1.0294 -1.2599
 4545TIP3   OH213640   2.558   3.153   5.020 -0.1507  0.5572  0.3699
 4545TIP3    H113641   2.610   3.093   5.073 -0.1285 -0.7446 -1.0775
 4545TIP3    H213642   2.611   3.233   5.016  1.5377 -0.5574 -0.6287
 4546TIP3   OH213643   1.433   2.258   4.366 -0.4304  0.0249  0.3158
 4546TIP3    H113644   1.391   2.172   4.364 -0.0640 -0.1625  0.6175
 4546TIP3    H213645   1.515   2.246   4.319 -0.9341  0.5227 -0.7316
 4547TIP3   OH213646   6.106   0.359   2.509  0.2471 -0.2803 -0.2687
 4547TIP3    H113647   6.182   0.356   2.568 -0.2557  2.2698  0.5931
 4547TIP3    H213648   6.118   0.439   2.458 -0.8701 -0.8952 -1.5692
 4548TIP3   OH213649   4.521   1.885   0.878 -0.0084  0.2303 -0.1318
 4548TIP3    H113650   4.601   1.909   0.833  0.9833 -2.6325 -0.0680
 4548TIP3    H213651   4.455   1.876   0.809  0.3334  0.3081 -0.4674
 4549TIP3   OH213652   3.267   0.107   2.505  0.2989 -0.6147  0.1952
 4549TIP3    H113653   3.346   0.083   2.458  0.5198  0.4889 -0.0226
 4549TIP3    H213654   3.257   0.201   2.490 -1.3650 -0.8270 -0.2540
 4550TIP3   OH213655   5.502   1.324   2.709  0.2128  0.8074  0.4639
 4550TIP3    H113656   5.578   1.278   2.675 -0.0852 -0.1949  1.0809
 4550TIP3    H213657   5.484   1.281   2.793  0.4067  2.6121  1.4750
 4551TIP3   OH213658   2.344   4.365   1.320 -0.1770  0.0789  0.3426
 4551TIP3    H113659   2.256   4.389   1.350  0.3262  0.4339  1.6045
 4551TIP3    H213660   2.330   4.284   1.270 -1.3485  0.7165 -0.4220
 4552TIP3   OH213661   3.250   4.445   2.004 -0.2172  0.0808  0.0386
 4552TIP3    H113662   3.307   4.467   1.930 -1.1842  1.0917 -0.4329
 4552TIP3    H213663   3.292   4.369   2.045  2.0914  1.4561  0.3992
 4553TIP3   OH213664   1.868   1.617   2.531  0.2234 -0.2060 -0.3715
 4553TIP3    H113665   1.776   1.610   2.553  0.4334 -1.1747  0.2185
 4553TIP3    H213666   1.869   1.622   2.435 -0.4312 -0.1147 -0.3785
 4554TIP3   OH213667   4.270   5.920   2.293 -0.1792  0.4046  0.0815
 4554TIP3    H113668   4.282   5.861   2.219  0.6718  0.7379 -0.0526
 4554TIP3    H213669   4.175   5.928   2.302 -0.2898  0.8726 -1.3683
 4555TIP3   OH213670   1.656   3.218   2.867  0.1319  0.1308 -0.3546
 4555TIP3    H113671   1.564   3.241   2.880  0.6698  2.1783  0.0856
 4555TIP3    H213672   1.671   3.146   2.928 -0.9100  0.4804  0.3509
 4556TIP3   OH213673   1.354   5.239   1.570 -0.7664 -0.1373  0.2473
 4556TIP3    H113674   1.264   5.260   1.544 -0.6002  0.0878 -0.1634
 4556TIP3    H213675   1.402   5.321   1.559 -0.0255 -0.7542 -1.7272
 4557TIP3   OH213676   2.103   5.819   2.176 -0.2339  0.0393 -0.2152
 4557TIP3    H113677   2.129   5.851   2.090  0.3646 -0.9832 -0.4260
 4557TIP3    H213678   2.034   5.879   2.204 -2.5592 -1.2647 -2.6693
 4558TIP3   OH213679   2.884   5.291   1.863  0.5753  0.3125 -0.1240
 4558TIP3    H113680   2.945   5.239   1.811  0.3473 -0.3776  0.2832
 4558TIP3    H213681   2.911   5.275   1.954  1.2256  1.8060 -0.0231
 4559TIP3   OH213682   3.980   0.647   1.653  0.3736 -0.1164 -0.0420
 4559TIP3    H113683   3.995   0.675   1.743  0.9029 -0.1304 -0.1222
 4559TIP3    H213684   4.010   0.557   1.650 -1.7232 -0.8996  0.3237
 4560TIP3   OH213685   1.732   5.192   3.459 -0.3735  0.1850 -0.3421
 4560TIP3    H113686   1.802   5.255   3.441 -0.1036 -0.1230 -0.3850
 4560TIP3    H213687   1.742   5.126   3.390 -0.2911 -0.2052  0.0409
 4561TIP3   OH213688   1.454   4.892   0.375  0.1882 -0.2713  0.5421
 4561TIP3    H113689   1.392   4.903   0.303  0.8114  0.3756  0.0850
 4561TIP3    H213690   1.413   4.936   0.450 -0.6824 -1.3707  0.7286
 4562TIP3   OH213691   3.020   3.640   3.643 -0.3591 -0.0124 -0.0568
 4562TIP3    H113692   3.013   3.566   3.703  0.7183 -1.2808 -1.3957
 4562TIP3    H213693   3.114   3.656   3.637 -0.5582  1.1449 -0.1650
 4563TIP3   OH213694   0.788   2.210   1.884  0.1074 -0.0807  0.7141
 4563TIP3    H113695   0.840   2.263   1.943 -0.2535  0.6296  0.4034
 4563TIP3    H213696   0.751   2.141   1.939  0.2862  0.2015  1.1896
 4564TIP3   OH213697   5.926   1.069   2.993  0.2331 -0.4410 -0.2055
 4564TIP3    H113698   5.932   1.121   2.913 -0.1392 -1.2754 -0.7890
 4564TIP3    H213699   5.988   0.997   2.980 -0.9149 -1.4224 -0.4026
 4565TIP3   OH213700   0.352   1.052   2.777 -0.3458  0.0103  0.5759
 4565TIP3    H113701   0.342   1.146   2.784 -2.3999 -0.1876  0.7844
 4565TIP3    H213702   0.263   1.018   2.774  0.2790 -1.7152 -2.6057
 4566TIP3   OH213703   6.278   1.634   0.312  0.6374  0.0018 -0.2445
 4566TIP3    H113704   6.355   1.668   0.358  1.0237 -0.3963 -0.5798
 4566TIP3    H213705   6.260   1.698   0.244  0.8163 -0.0186 -0.3113
 4567TIP3   OH213706   1.992   0.877   0.268 -0.3135  0.2110 -0.9433
 4567TIP3    H113707   2.013   0.873   0.362  0.4811 -0.3039 -1.1342
 4567TIP3    H213708   2.064   0.926   0.230 -0.8421  0.7705 -1.2401
 4568TIP3   OH213709   0.658   0.353   2.653  0.2128 -0.1164 -0.1095
 4568TIP3    H113710   0.749   0.324   2.648  0.4915  0.8952 -2.4831
 4568TIP3    H213711   0.649   0.415   2.580 -2.1816  0.3834  0.5270
 4569TIP3   OH213712   3.018   2.835   0.721  0.3058  0.7215  0.4433
 4569TIP3    H113713   3.028   2.826   0.627  0.2824 -0.8873  0.5578
 4569TIP3    H213714   2.996   2.927   0.735  0.9501  1.1306 -1.0468
 4570TIP3   OH213715   5.898   2.307   0.415 -0.1709  0.3915  0.6277
 4570TIP3    H113716   5.820   2.258   0.443 -0.4246  1.0013  0.9936
 4570TIP3    H213717   5.970   2.266   0.464 -0.3912  0.4336  0.9906
 4571TIP3   OH213718   2.837   3.926   4.271 -0.2057  0.0807  0.2052
 4571TIP3    H113719   2.917   3.943   4.320 -0.2133  1.0646 -0.0963
 4571TIP3    H213720   2.782   4.002   4.289 -0.2159  0.4604 -1.3010
 4572TIP3   OH213721   4.292   4.829   0.431 -0.5250  0.5476  0.1001
 4572TIP3    H113722   4.293   4.786   0.516 -0.3213  2.6407  1.2171
 4572TIP3    H213723   4.333   4.914   0.446 -1.5913  1.4713 -1.8051
 4573TIP3   OH213724   3.014   1.718   2.448 -0.2753  0.2046 -0.5003
 4573TIP3    H113725   3.103   1.695   2.475  0.1023  1.5002 -0.6065
 4573TIP3    H213726   2.988   1.790   2.506 -1.3087 -0.2213 -0.3966
 4574TIP3   OH213727   6.001   1.737   0.787  0.6831  0.7244 -0.1735
 4574TIP3    H113728   5.907   1.719   0.793  0.5489  0.8565 -1.5121
 4574TIP3    H213729   6.043   1.652   0.797  0.4773  0.7679  1.1995
 4575TIP3   OH213730   2.387   3.017   3.876 -0.6841 -0.2898  0.8195
 4575TIP3    H113731   2.385   2.923   3.893  0.2257 -0.4876 -0.0610
 4575TIP3    H213732   2.457   3.050   3.933 -0.1544 -0.3614  0.2256
 4576TIP3   OH213733   4.505   1.233   1.663  0.2688 -0.4924 -0.1968
 4576TIP3    H113734   4.578   1.177   1.635 -0.8877 -1.8296 -0.6759
 4576TIP3    H213735   4.454   1.248   1.583 -0.6037 -0.5538  0.3298
 4577TIP3   OH213736   3.861   1.951   4.097 -0.2058 -0.3232  0.2620
 4577TIP3    H113737   3.775   1.959   4.139 -0.7640  0.3754 -0.9719
 4577TIP3    H213738   3.881   1.857   4.104 -2.2111 -0.9624 -1.5458
 4578TIP3   OH213739   4.088   1.197   4.958  0.1885  0.3748  0.0079
 4578TIP3    H113740   4.174   1.157   4.943 -0.8167 -1.6219 -0.8988
 4578TIP3    H213741   4.042   1.186   4.875 -0.6517  2.3059  0.1554
 4579TIP3   OH213742   3.188   3.262   2.576  0.3077  0.0414  0.3883
 4579TIP3    H113743   3.186   3.293   2.667 -1.1411 -0.1593  0.4594
 4579TIP3    H213744   3.200   3.168   2.584  1.5867  0.1856  0.2997
 4580TIP3   OH213745   1.615   5.802   2.893 -0.0780 -0.0457 -0.0527
 4580TIP3    H113746   1.692   5.848   2.927  0.0012 -0.6865  0.6639
 4580TIP3    H213747   1.617   5.819   2.799  0.1207  1.1454  0.1433
 4581TIP3   OH213748   2.066   0.041   1.233  0.2106  0.2562 -0.2480
 4581TIP3    H113749   1.980   0.082   1.243 -0.8516 -1.8289 -0.1152
 4581TIP3    H213750   2.124   0.113   1.209 -1.3787  1.8865  0.4917
 4582TIP3   OH213751   2.437   3.909   2.927  0.2915 -0.3263  0.6157
 4582TIP3    H113752   2.393   3.893   2.844  0.8317 -0.3425  0.3310
 4582TIP3    H213753   2.500   3.838   2.936  0.1165 -0.4217  1.1241
 4583TIP3   OH213754   4.070   0.869   4.837  0.0596 -0.0739  0.2958
 4583TIP3    H113755   4.111   0.807   4.898 -0.0591 -1.7625 -1.2544
 4583TIP3    H213756   4.144   0.916   4.799  0.1472  0.8623  1.5634
 4584TIP3   OH213757   0.771   3.773   4.720  0.0858 -0.3692 -1.0989
 4584TIP3    H113758   0.836   3.704   4.706 -0.3521 -1.4114  1.4926
 4584TIP3    H213759   0.794   3.840   4.656  2.6410 -1.4221 -1.4210
 4585TIP3   OH213760   3.632   5.060   1.981  0.3164 -0.1979 -0.4713
 4585TIP3    H113761   3.711   5.010   1.997  0.0946 -0.1870  0.6959
 4585TIP3    H213762   3.644   5.141   2.030 -0.5887 -0.3663  0.0420
 4586TIP3   OH213763   5.862   1.831   3.820  0.3968 -0.1594 -0.2670
 4586TIP3    H113764   5.857   1.864   3.909 -2.7699 -0.1019 -0.3239
 4586TIP3    H213765   5.796   1.761   3.817 -0.1849  0.3915 -2.7162
 4587TIP3   OH213766   1.659   1.863   3.089  0.4218 -0.4461 -0.3846
 4587TIP3    H113767   1.695   1.776   3.071 -1.0916 -1.2001  0.0725
 4587TIP3    H213768   1.605   1.883   3.013 -0.3686 -0.5520  0.1332
 4588TIP3   OH213769   5.273   1.024   2.644  0.2429  0.0642  0.0170
 4588TIP3    H113770   5.262   0.960   2.713 -2.0395  0.3869  0.0450
 4588TIP3    H213771   5.276   1.109   2.689  0.0962  0.1825 -0.1886
 4589TIP3   OH213772   5.736   4.160   4.401 -0.2234 -0.7915  0.0770
 4589TIP3    H113773   5.826   4.175   4.432  0.5086 -0.4758 -2.0456
 4589TIP3    H213774   5.727   4.065   4.401  0.2949 -0.8424 -0.1909
 4590TIP3   OH213775   2.942   4.606   1.260  0.2695 -0.2430 -0.2852
 4590TIP3    H113776   3.010   4.609   1.327 -0.1021  1.3909  0.0507
 4590TIP3    H213777   2.882   4.537   1.290  0.8948 -0.5556  0.2715
 4591TIP3   OH213778   3.090   3.903   1.900  0.0649  0.0643 -0.1310
 4591TIP3    H113779   3.030   3.969   1.865  1.7908  0.5712 -2.2985
 4591TIP3    H213780   3.081   3.828   1.841  1.6651  0.2274 -0.6342
 4592TIP3   OH213781   0.646   1.225   3.518  0.3814  0.0638  0.3695
 4592TIP3    H113782   0.635   1.320   3.527  2.2014  0.3983 -0.3760
 4592TIP3    H213783   0.733   1.215   3.479 -0.5090 -1.8611 -1.2889
 4593TIP3   OH213784   0.421   1.098   4.523  0.0665  0.2426  0.3289
 4593TIP3    H113785   0.471   1.136   4.450  1.2121  1.6649  1.7832
 4593TIP3    H213786   0.379   1.173   4.565  0.0316 -0.4394  1.5728
 4594TIP3   OH213787   0.860   0.324   1.219  0.3698  0.3237  0.4950
 4594TIP3    H113788   0.792   0.260   1.240  1.1654 -0.7844 -0.2090
 4594TIP3    H213789   0.843   0.397   1.278 -2.4918  0.8713 -0.8538
 4595TIP3   OH213790   3.520   2.331   4.701  0.4287 -0.0615 -0.6413
 4595TIP3    H113791   3.460   2.375   4.641  0.4089  1.7443  0.6251
 4595TIP3    H213792   3.463   2.296   4.770  0.6070 -0.6566 -0.7893
 4596TIP3   OH213793   4.715   5.081   1.855 -0.0120  0.1318  0.1382
 4596TIP3    H113794   4.674   5.000   1.883 -1.5554  0.8752  0.1142
 4596TIP3    H213795   4.716   5.076   1.760  0.5562 -0.1574  0.1534
 4597TIP3   OH213796   5.875   0.314   2.651  0.4116  0.1519 -0.4932
 4597TIP3    H113797   5.877   0.396   2.700 -0.9401 -0.0261 -0.1073
 4597TIP3    H213798   5.944   0.324   2.584  1.0410  1.1184  0.2763
 4598TIP3   OH213799   4.004   3.556   2.926 -0.2667 -0.2863  0.0651
 4598TIP3    H113800   3.928   3.535   2.872 -1.1560  1.8567  0.4074
 4598TIP3    H213801   3.969   3.582   3.011  0.7846  0.8963  0.1860
 4599TIP3   OH213802   6.061   5.545   3.871  0.5855  0.0238  0.3896
 4599TIP3    H113803   6.119   5.475   3.840  0.3654  0.4320 -1.0338
 4599TIP3    H213804   6.105   5.581   3.947  1.1505 -1.0580  0.5983
 4600TIP3   OH213805   5.787   0.490   1.248  0.4370  0.7036 -0.2555
 4600TIP3    H113806   5.750   0.502   1.161 -0.0937 -2.4564 -0.6044
 4600TIP3    H213807   5.712   0.468   1.303  1.1288 -0.7197  0.1704
 4601TIP3   OH213808   2.922   1.213   3.931 -0.2883  0.1668 -0.1605
 4601TIP3    H113809   2.925   1.181   3.841  1.1200  1.0865 -0.4722
 4601TIP3    H213810   2.966   1.145   3.982  1.3559  0.8361 -0.6039
 4602TIP3   OH213811   6.057   2.934   0.261 -0.2438  0.5203  0.1135
 4602TIP3    H113812   6.101   2.908   0.180  0.4852  1.7152  0.0976
 4602TIP3    H213813   6.086   3.024   0.276 -2.1005  1.0875  0.5285
 4603TIP3   OH213814   0.926   1.796   1.247  0.2906  0.5159 -0.1775
 4603TIP3    H113815   1.005   1.820   1.200 -0.8770  0.0238 -2.5432
 4603TIP3    H213816   0.932   1.701   1.259 -0.2735  0.3508 -1.0951
 4604TIP3   OH213817   2.009   1.879   2.351 -0.2302  0.5604 -0.3771
 4604TIP3    H113818   2.026   1.917   2.437 -0.4403 -0.6624  0.2283
 4604TIP3    H213819   2.096   1.853   2.319 -0.2785 -0.0382 -0.0231
 4605TIP3   OH213820   6.008   4.478   0.466 -0.0419 -0.0508  0.3821
 4605TIP3    H113821   6.099   4.507   0.473 -0.0547 -0.0707  0.6413
 4605TIP3    H213822   5.957   4.558   0.475 -0.0054  0.2368 -1.5944
 4606TIP3   OH213823   4.031   0.952   1.171  0.1030  0.5476 -0.5113
 4606TIP3    H113824   4.119   0.936   1.206  1.4397 -0.2074 -3.8431
 4606TIP3    H213825   3.978   0.880   1.205  2.0452 -1.8500 -2.1973
 4607TIP3   OH213826   5.184   1.183   4.623  0.1997  0.3848 -0.2146
 4607TIP3    H113827   5.252   1.205   4.560  2.0672 -1.7290  0.9134
 4607TIP3    H213828   5.219   1.210   4.707 -0.8099  0.1967  0.2802
 4608TIP3   OH213829   1.937   1.566   1.981  0.4914  0.5270  0.1588
 4608TIP3    H113830   1.990   1.587   1.904  0.0011 -0.7208 -0.5585
 4608TIP3    H213831   1.931   1.470   1.979 -0.5309  0.5623  1.0788
 4609TIP3   OH213832   4.342   1.863   3.432 -0.0345 -0.1883  0.4878
 4609TIP3    H113833   4.308   1.775   3.413  0.7398 -0.6065  0.9709
 4609TIP3    H213834   4.307   1.884   3.518 -0.5271  0.1443  0.2111
 4610TIP3   OH213835   3.186   0.857   0.772  0.1107  0.0006  0.5890
 4610TIP3    H113836   3.273   0.844   0.810  1.1296  0.8811 -1.2989
 4610TIP3    H213837   3.190   0.944   0.733 -1.2225 -0.4137 -0.5507
 4611TIP3   OH213838   0.575   0.036   2.387  0.0549  0.2203  0.5728
 4611TIP3    H113839   0.552   0.004   2.300 -0.4602  0.3271  0.6694
 4611TIP3    H213840   0.640  -0.027   2.419  1.7254  1.2104 -0.6532
 4612TIP3   OH213841   3.717   5.914   1.549  0.0078 -0.4668 -0.0986
 4612TIP3    H113842   3.788   5.941   1.607 -0.0275  1.7929 -1.0044
 4612TIP3    H213843   3.639   5.916   1.604 -0.1294  2.2797 -0.2705
 4613TIP3   OH213844   1.577   1.298   4.670  0.0010  0.0087  0.2288
 4613TIP3    H113845   1.630   1.375   4.648 -0.4183 -0.2880 -2.1068
 4613TIP3    H213846   1.499   1.333   4.712 -1.6814  1.3055 -3.5490
 4614TIP3   OH213847   3.145   4.331   0.660 -0.8681  0.0119 -0.4250
 4614TIP3    H113848   3.089   4.408   0.650 -0.7333  0.0856 -0.6247
 4614TIP3    H213849   3.097   4.259   0.620 -0.9714  0.0042 -0.2859
 4615TIP3   OH213850   0.787   5.944   4.279  0.0632 -0.7946 -0.5019
 4615TIP3    H113851   0.819   5.924   4.192 -1.5138 -1.1622 -1.0307
 4615TIP3    H213852   0.864   5.976   4.326  1.1481 -1.5078 -1.7178
 4616TIP3   OH213853   0.443   3.105   1.109  0.2280 -0.6096 -0.3465
 4616TIP3    H113854   0.368   3.050   1.132 -1.1265  1.7283  1.3261
 4616TIP3    H213855   0.519   3.052   1.131 -0.9756 -1.0058  3.7204
 4617TIP3   OH213856   5.929   1.453   1.256  0.4610 -0.1574 -0.1967
 4617TIP3    H113857   5.904   1.523   1.315  1.0333 -0.2220  0.1336
 4617TIP3    H213858   5.888   1.476   1.173 -0.9567 -0.4571  0.4053
 4618TIP3   OH213859   2.571   4.941   1.950  0.1317 -0.1713  0.2599
 4618TIP3    H113860   2.627   4.878   1.996 -0.4277 -0.8033  0.0779
 4618TIP3    H213861   2.502   4.962   2.013 -0.1435 -0.3661  0.0222
 4619TIP3   OH213862   2.154   4.521   5.155  0.0324 -0.7916 -0.1771
 4619TIP3    H113863   2.105   4.501   5.235 -0.2298 -1.9361 -0.5997
 4619TIP3    H213864   2.091   4.563   5.098  0.6568  1.6842  0.8215
 4620TIP3   OH213865   2.652   0.089   1.743  0.3134 -0.0346  0.8471
 4620TIP3    H113866   2.656   0.112   1.836  0.0517  0.2386  0.7926
 4620TIP3    H213867   2.589   0.151   1.706  3.1302  2.3840 -0.2653
 4621TIP3   OH213868   6.051   3.408   0.194 -0.1323  0.2874  0.3390
 4621TIP3    H113869   5.966   3.369   0.176  0.2722 -1.2937  1.6476
 4621TIP3    H213870   6.034   3.474   0.261 -0.1625 -1.1175  1.7832
 4622TIP3   OH213871   5.244   1.153   3.958 -0.6383 -0.4807  0.0090
 4622TIP3    H113872   5.332   1.135   3.925  0.0197 -1.2070  1.9639
 4622TIP3    H213873   5.207   1.215   3.896  2.3635  2.2175  0.6316
 4623TIP3   OH213874   2.989   5.915   0.264  0.1210  0.7191  0.3464
 4623TIP3    H113875   3.031   5.999   0.245  4.1673 -1.1636 -0.0604
 4623TIP3    H213876   3.000   5.903   0.359 -1.3119  1.0110  0.5690
 4624TIP3   OH213877   5.771   2.365   3.256 -0.1028 -0.3133  0.1451
 4624TIP3    H113878   5.750   2.311   3.180  1.1182  0.3969 -0.7362
 4624TIP3    H213879   5.734   2.318   3.330  1.3063 -2.6160 -0.5220
 4625TIP3   OH213880   5.809   5.749   2.089 -0.3123  0.4202  0.1051
 4625TIP3    H113881   5.859   5.754   2.170 -0.6634 -0.2864  0.3722
 4625TIP3    H213882   5.829   5.663   2.053 -0.7753  0.4149 -0.1504
 4626TIP3   OH213883   5.351   1.348   1.055 -0.1389  0.5210 -0.2303
 4626TIP3    H113884   5.295   1.372   1.129  1.1172  1.5677  0.4195
 4626TIP3    H213885   5.334   1.255   1.042  0.7761 -0.1104  2.4536
 4627TIP3   OH213886   1.672   0.237   2.572 -0.2664  0.1954 -0.1478
 4627TIP3    H113887   1.601   0.271   2.518  1.0398  2.0337 -0.7928
 4627TIP3    H213888   1.751   0.251   2.520  0.6538 -1.3044  0.7765
 4628TIP3   OH213889   0.034   0.366   4.973  0.3621  0.4704 -0.5279
 4628TIP3    H113890  -0.058   0.374   4.998  0.7954 -1.0627  1.8297
 4628TIP3    H213891   0.068   0.295   5.027  2.8084  0.5708 -1.7817
 4629TIP3   OH213892   3.172   5.935   0.985 -0.4488 -0.1753  0.0298
 4629TIP3    H113893   3.243   5.887   0.942  0.1243  0.5715  0.1257
 4629TIP3    H213894   3.149   6.005   0.923  1.0091  1.4875  1.2765
 4630TIP3   OH213895   2.559   0.236   1.382 -0.1016  0.5257 -0.3773
 4630TIP3    H113896   2.519   0.322   1.385 -3.0575 -0.6446 -1.9708
 4630TIP3    H213897   2.485   0.175   1.376  1.8929 -2.0318 -0.8550
 4631TIP3   OH213898   2.685   0.261   0.052  0.2734  0.0335 -0.6030
 4631TIP3    H113899   2.619   0.211   0.003 -2.3517  0.6680  1.9972
 4631TIP3    H213900   2.648   0.350   0.057  0.0090 -0.1583  2.9708
 4632TIP3   OH213901   1.472   0.958   3.663 -0.5682 -0.1568 -0.4254
 4632TIP3    H113902   1.491   1.030   3.723 -1.8727 -1.1006  1.2232
 4632TIP3    H213903   1.544   0.960   3.600  2.0103 -0.2859  2.2774
 4633TIP3   OH213904   4.461   2.571   2.756  0.4883 -0.1113 -0.0510
 4633TIP3    H113905   4.460   2.502   2.690 -1.3389  0.7841 -1.0466
 4633TIP3    H213906   4.547   2.613   2.745  1.0587 -1.3208 -0.3794
 4634TIP3   OH213907   2.766   4.938   4.690  0.6214  0.1628  0.4089
 4634TIP3    H113908   2.794   4.893   4.770  3.1419 -0.5832 -0.7889
 4634TIP3    H213909   2.847   4.971   4.652 -0.4793  0.3624 -1.9367
 4635TIP3   OH213910   2.111   0.557   1.485 -0.0481 -0.1636  0.1903
 4635TIP3    H113911   2.092   0.648   1.464 -1.1028 -0.0624  1.4225
 4635TIP3    H213912   2.067   0.506   1.417  0.6523  0.2340 -0.5745
 4636TIP3   OH213913   1.450   4.339   0.706  0.0401  0.0058  0.7210
 4636TIP3    H113914   1.537   4.302   0.715 -0.6546 -2.4103 -1.2242
 4636TIP3    H213915   1.442   4.361   0.613 -1.3134  0.4467  0.9086
 4637TIP3   OH213916   5.996   3.134   4.508 -0.7121 -0.4729 -0.3548
 4637TIP3    H113917   6.032   3.077   4.576  0.8563 -1.1207 -1.6734
 4637TIP3    H213918   5.978   3.216   4.554  0.5172 -0.8182  0.8192
 4638TIP3   OH213919   6.085   4.684   1.205 -0.6652  0.6850  0.6505
 4638TIP3    H113920   6.147   4.624   1.247  0.3960  1.1796 -0.1447
 4638TIP3    H213921   6.001   4.666   1.247 -0.6424 -2.0954 -0.2758
 4639TIP3   OH213922   2.965   2.300   3.303  0.4551  0.0046  0.2303
 4639TIP3    H113923   2.927   2.214   3.284 -0.3214  0.1108  1.2018
 4639TIP3    H213924   2.929   2.324   3.388 -0.0235  1.6738 -0.3841
 4640TIP3   OH213925   5.091   5.869   1.246 -0.4280  0.0325 -0.0153
 4640TIP3    H113926   5.160   5.823   1.293  0.0257  0.9456  0.2246
 4640TIP3    H213927   5.011   5.822   1.270 -0.0559 -0.2281  0.7503
 4641TIP3   OH213928   6.287   0.194   4.229 -0.2823 -0.5288 -0.5910
 4641TIP3    H113929   6.239   0.277   4.231  0.9760  0.2113  1.1051
 4641TIP3    H213930   6.378   0.218   4.244 -0.0152 -2.2592  0.9428
 4642TIP3   OH213931   3.033   0.642   3.059 -0.2246  0.0353  0.2511
 4642TIP3    H113932   2.967   0.686   3.005  1.8599  4.0684  0.6442
 4642TIP3    H213933   3.097   0.608   2.995 -0.0574  0.7513  0.0333
 4643TIP3   OH213934   0.128   4.868   3.081  0.0960  0.4717 -0.2331
 4643TIP3    H113935   0.081   4.830   3.007 -0.3783 -1.2846  0.8973
 4643TIP3    H213936   0.205   4.908   3.043  0.6638 -1.7322 -1.5537
 4644TIP3   OH213937   1.053   0.578   4.822 -0.6175 -0.1366 -0.2685
 4644TIP3    H113938   1.043   0.665   4.860 -0.0257 -0.6212  1.0483
 4644TIP3    H213939   1.015   0.586   4.734 -0.5940  1.4270 -0.1629
 4645TIP3   OH213940   2.536   1.711   0.238  0.2602  0.3229 -0.1638
 4645TIP3    H113941   2.494   1.636   0.279 -0.1176  0.6443  0.0409
 4645TIP3    H213942   2.630   1.691   0.241  0.0462 -1.8341 -3.3994
 4646TIP3   OH213943   0.987   1.513   1.403  0.1055 -0.5040 -0.5368
 4646TIP3    H113944   0.903   1.489   1.364 -0.2580 -1.3549  0.6905
 4646TIP3    H213945   0.976   1.492   1.496  1.3170  0.3739 -0.1799
 4647TIP3   OH213946   1.719   0.629   2.530  0.0358 -0.1469 -0.9350
 4647TIP3    H113947   1.765   0.626   2.446 -0.9014 -0.7937 -1.4456
 4647TIP3    H213948   1.668   0.710   2.527 -0.2187 -0.3121 -1.1174
 4648TIP3   OH213949   4.615   1.912   2.197 -0.6458  0.1942 -0.2655
 4648TIP3    H113950   4.614   1.861   2.116  1.7260  1.2896 -1.0786
 4648TIP3    H213951   4.648   1.851   2.263 -0.9322 -0.2178 -0.4974
 4649TIP3   OH213952   3.453   0.349   1.424  0.4338  0.7364  0.2870
 4649TIP3    H113953   3.400   0.429   1.428  0.3974  0.7387 -0.1871
 4649TIP3    H213954   3.464   0.332   1.331  0.6812  0.3430  0.3846
 4650TIP3   OH213955   2.966   1.883   1.026 -0.1325 -0.4143  0.2125
 4650TIP3    H113956   2.882   1.838   1.038 -0.0140 -0.9920 -1.0117
 4650TIP3    H213957   2.999   1.896   1.115 -0.7794 -1.6007  0.6425
 4651TIP3   OH213958   2.701   1.355   1.577  0.0230 -0.1538  0.5171
 4651TIP3    H113959   2.696   1.390   1.488  1.1190 -0.7411  0.1982
 4651TIP3    H213960   2.706   1.260   1.565  1.0323 -0.1976  1.1476
 4652TIP3   OH213961   5.710   1.335   4.920  0.2266 -0.3100 -0.3957
 4652TIP3    H113962   5.669   1.292   4.845 -0.6280  0.0220 -0.1297
 4652TIP3    H213963   5.786   1.380   4.883 -0.3805  0.1408 -1.1370
 4653TIP3   OH213964   3.647   4.688   0.576 -0.5200 -0.3809  0.3378
 4653TIP3    H113965   3.640   4.688   0.671  0.0967 -2.6460  0.4405
 4653TIP3    H213966   3.741   4.694   0.559 -0.6600  0.5927 -0.1688
 4654TIP3   OH213967   4.602   0.818   0.862  0.5522 -0.3363 -0.2320
 4654TIP3    H113968   4.625   0.748   0.923  1.6268 -0.0372 -0.2665
 4654TIP3    H213969   4.570   0.889   0.918 -1.0940 -1.0254 -0.2350
 4655TIP3   OH213970   1.750   1.437   4.917  0.1762 -0.2878  0.3165
 4655TIP3    H113971   1.806   1.478   4.850  0.4465 -0.3367  0.5114
 4655TIP3    H213972   1.803   1.440   4.997 -0.0139 -0.5398  0.4504
 4656TIP3   OH213973   2.049   3.513   2.307 -0.2932 -0.0764 -0.4999
 4656TIP3    H113974   2.032   3.500   2.401  1.9363  0.1981  0.0022
 4656TIP3    H213975   2.094   3.433   2.280 -1.2760 -0.3215 -1.4645
 4657TIP3   OH213976   1.876   5.964   0.787 -0.8409 -0.0742 -0.6149
 4657TIP3    H113977   1.920   5.953   0.871  0.5100  0.5886 -1.2102
 4657TIP3    H213978   1.797   5.909   0.794 -0.3061 -0.7186  0.7427
 4658TIP3   OH213979   4.388   3.581   0.300 -0.0453  0.3888 -0.2369
 4658TIP3    H113980   4.461   3.634   0.332  0.2241  0.3454 -0.7823
 4658TIP3    H213981   4.400   3.496   0.343 -0.7042  0.8640  0.9580
 4659TIP3   OH213982   1.463   5.202   2.017 -0.2923  0.3252  0.1892
 4659TIP3    H113983   1.538   5.143   2.019  0.8988  1.7155 -0.7774
 4659TIP3    H213984   1.414   5.177   1.939  0.5115  0.9345 -0.5268
 4660TIP3   OH213985   2.839   3.281   1.375  0.1886  0.5964  0.2109
 4660TIP3    H113986   2.780   3.212   1.407  0.0398  0.9406  0.6770
 4660TIP3    H213987   2.816   3.291   1.282  0.7132 -0.4960 -0.0539
 4661TIP3   OH213988   1.393   4.026   0.563  0.2985 -0.3344  0.2623
 4661TIP3    H113989   1.357   3.938   0.549  1.2777 -0.7906  0.5328
 4661TIP3    H213990   1.389   4.039   0.657 -3.1154  1.3720  0.0337
 4662TIP3   OH213991   3.148   5.620   1.670 -0.1550 -0.2897 -0.4897
 4662TIP3    H113992   3.081   5.689   1.668  0.8684  0.7219 -1.4652
 4662TIP3    H213993   3.105   5.544   1.632 -1.1613 -0.0689  0.1528
 4663TIP3   OH213994   3.361   3.811   4.169 -0.8365  0.0233  0.0366
 4663TIP3    H113995   3.406   3.855   4.097  0.5092  0.1408  0.9216
 4663TIP3    H213996   3.402   3.725   4.174 -1.0254 -0.0363  0.5723
 4664TIP3   OH213997   4.074   1.471   0.730  0.0108 -0.3581  0.0702
 4664TIP3    H113998   4.108   1.428   0.808  1.7005  0.3457 -0.2295
 4664TIP3    H213999   4.045   1.400   0.674 -0.4695 -0.9107  0.9966
 4665TIP3   OH214000   0.779   2.533   5.019  0.0485 -0.1902 -0.2386
 4665TIP3    H114001   0.790   2.558   4.927 -0.7504  1.4180  0.0810
 4665TIP3    H214002   0.693   2.566   5.043  0.5184 -0.0163  1.2812
 4666TIP3   OH214003   3.156   2.197   0.167  0.4124  0.0033  0.0516
 4666TIP3    H114004   3.120   2.132   0.227 -0.2483  0.8299  0.5647
 4666TIP3    H214005   3.231   2.153   0.127 -0.2367 -1.1976  0.1132
 4667TIP3   OH214006   3.911   2.069   0.446 -0.1160  0.0003  0.1036
 4667TIP3    H114007   3.852   2.138   0.476 -0.6481 -1.0557  1.6260
 4667TIP3    H214008   3.997   2.110   0.441 -0.1553  0.4437  2.4052
 4668TIP3   OH214009   5.400   5.701   1.514 -0.0578 -0.5124 -0.3410
 4668TIP3    H114010   5.355   5.697   1.429 -0.6679 -0.9192 -0.0057
 4668TIP3    H214011   5.395   5.793   1.539 -1.6177 -0.6916  0.1555
 4669TIP3   OH214012   3.635   4.472   5.164 -0.2792  0.0643 -0.3576
 4669TIP3    H114013   3.612   4.451   5.255 -1.6426  1.0503 -0.4494
 4669TIP3    H214014   3.616   4.565   5.155  1.9648  0.5056 -1.0476
 4670TIP3   OH214015   5.860   0.760   3.047  0.5308  0.6970  0.6439
 4670TIP3    H114016   5.954   0.775   3.049  1.4210 -3.5243  2.1512
 4670TIP3    H214017   5.851   0.666   3.062 -3.9935  1.0369  1.4336
 4671TIP3   OH214018   2.484   1.086   1.043 -0.1168  0.3149  0.3609
 4671TIP3    H114019   2.518   1.176   1.039 -1.5122  0.8174 -0.9310
 4671TIP3    H214020   2.562   1.032   1.055  1.0712  1.4807 -1.6466
 4672TIP3   OH214021   5.948   5.936   4.126 -0.0834  0.8445 -0.1774
 4672TIP3    H114022   5.858   5.942   4.156  0.2157  0.2581  0.8818
 4672TIP3    H214023   6.000   5.977   4.195  0.5490  0.2965 -0.3093
 4673TIP3   OH214024   4.360   3.190   4.159 -0.3294  0.0631 -0.3393
 4673TIP3    H114025   4.315   3.238   4.089  1.0830 -0.7911 -1.9016
 4673TIP3    H214026   4.438   3.154   4.117  0.2642 -0.9793  1.5552
 4674TIP3   OH214027   1.218   3.833   3.938  0.6196 -0.5132  0.1702
 4674TIP3    H114028   1.282   3.854   3.870  1.5228 -1.4418  0.7022
 4674TIP3    H214029   1.271   3.816   4.016 -0.3417 -0.4167  0.8673
 4675TIP3   OH214030   0.757   1.542   2.303 -0.1824 -0.2241 -0.2801
 4675TIP3    H114031   0.662   1.536   2.312 -0.0378  0.4030  4.2816
 4675TIP3    H214032   0.787   1.452   2.299 -0.9331 -0.6337  1.8131
 4676TIP3   OH214033   4.081   0.409   4.358  0.1501  0.2750  0.7197
 4676TIP3    H114034   4.003   0.448   4.397 -0.4445  0.8503 -0.9666
 4676TIP3    H214035   4.154   0.456   4.398 -0.3771  0.1587  1.8556
 4677TIP3   OH214036   2.091   3.939   3.738 -0.4884 -0.0570 -0.1367
 4677TIP3    H114037   2.069   4.027   3.768  0.3289 -0.1713  0.8162
 4677TIP3    H214038   2.124   3.893   3.815 -2.1140 -1.6371 -0.2962
 4678TIP3   OH214039   1.811   1.965   4.363 -0.2942  0.2037  0.0342
 4678TIP3    H114040   1.840   1.951   4.273  0.2074  1.1300  0.0397
 4678TIP3    H214041   1.891   1.963   4.415 -0.7559 -2.3293  0.7568
 4679TIP3   OH214042   4.072   1.433   5.120  0.6792  0.2101  0.4352
 4679TIP3    H114043   4.033   1.382   5.190 -2.1308  0.5764 -0.7382
 4679TIP3    H214044   4.088   1.369   5.050 -0.2969  0.4712 -0.0374
 4680TIP3   OH214045   2.846   1.536   1.344  0.6212 -0.5992  0.4600
 4680TIP3    H114046   2.908   1.609   1.350  1.2447 -1.0330 -0.3791
 4680TIP3    H214047   2.763   1.576   1.319  1.2608 -0.2759 -1.3197
 4681TIP3   OH214048   4.165   0.099   3.696 -0.0964  0.1203 -0.1230
 4681TIP3    H114049   4.253   0.078   3.663 -0.8822 -1.6404 -1.2537
 4681TIP3    H214050   4.135   0.171   3.640 -0.6541 -1.5517 -2.0800
 4682TIP3   OH214051   6.251   3.171   3.391 -0.6634 -0.0505  0.2772
 4682TIP3    H114052   6.255   3.222   3.310  1.0350 -0.4735  0.0615
 4682TIP3    H214053   6.244   3.237   3.460  4.0547  0.8342  0.2250
 4683TIP3   OH214054   2.281   4.644   2.062  0.8981  0.2194 -0.1040
 4683TIP3    H114055   2.286   4.578   2.132  1.9254 -0.3026 -0.6491
 4683TIP3    H214056   2.350   4.707   2.085  0.3169  0.7901  0.0907
 4684TIP3   OH214057   0.086   2.561   0.119  0.1580 -0.0734  0.4170
 4684TIP3    H114058   0.119   2.650   0.110 -0.0841  0.2621  2.5349
 4684TIP3    H214059   0.153   2.515   0.169 -0.7977 -0.4250  1.4041
 4685TIP3   OH214060   4.085   4.064   5.176 -0.4000  0.1894  0.5791
 4685TIP3    H114061   4.119   4.153   5.180  2.0173 -0.6516  0.5611
 4685TIP3    H214062   3.990   4.074   5.184 -0.1112  2.6453  1.9862
 4686TIP3   OH214063   1.826   3.306   4.129 -0.3055 -0.1260  0.2700
 4686TIP3    H114064   1.920   3.309   4.112 -0.0287 -0.9911  1.4823
 4686TIP3    H214065   1.794   3.233   4.076 -0.0506 -0.6315  0.7910
 4687TIP3   OH214066   4.824   2.951   1.071  0.1371  0.1143  0.2429
 4687TIP3    H114067   4.779   3.031   1.045 -0.4243  0.1833  1.3560
 4687TIP3    H214068   4.765   2.880   1.044  1.2769 -0.0480 -2.0438
 4688TIP3   OH214069   5.335   2.618   4.220 -0.1795  0.3332 -0.1320
 4688TIP3    H114070   5.410   2.636   4.276 -0.6667 -0.2754  0.7359
 4688TIP3    H214071   5.349   2.529   4.189 -0.5318  0.2239  0.0196
 4689TIP3   OH214072   4.169   0.071   4.385 -0.0302  0.4849  0.3458
 4689TIP3    H114073   4.197   0.110   4.468  2.9432 -2.2898  0.8494
 4689TIP3    H214074   4.098   0.012   4.410 -0.3857  0.9967  0.5750
 4690TIP3   OH214075   0.451   0.567   3.736 -0.1481 -0.2865 -0.0428
 4690TIP3    H114076   0.441   0.605   3.823  1.9102  1.5847 -0.5423
 4690TIP3    H214077   0.363   0.537   3.713 -0.8209 -0.4738  2.4878
 4691TIP3   OH214078   1.106   1.168   3.224  0.0977 -0.3231  0.1623
 4691TIP3    H114079   1.196   1.192   3.202 -0.1492 -0.1616 -0.7069
 4691TIP3    H214080   1.109   1.073   3.238  0.0300 -0.6980 -1.9827
 4692TIP3   OH214081   3.047   1.927   3.339  0.0571  0.1146  0.5982
 4692TIP3    H114082   3.043   1.876   3.258 -1.5459 -0.9597  1.2981
 4692TIP3    H214083   3.106   1.877   3.395  0.4944  0.4029  0.3986
 4693TIP3   OH214084   5.572   4.218   1.948  0.2559 -0.6442  0.2885
 4693TIP3    H114085   5.639   4.172   1.897 -0.6080  0.4866 -2.0008
 4693TIP3    H214086   5.614   4.300   1.974  0.0826 -0.3460 -0.3486
 4694TIP3   OH214087   4.420   4.732   2.381  0.8949  0.0233  0.3557
 4694TIP3    H114088   4.363   4.678   2.326 -0.9978 -0.4707  2.6483
 4694TIP3    H214089   4.394   4.822   2.362  0.9374 -0.0800 -0.2186
 4695TIP3   OH214090   2.360   3.927   1.863  0.0471  0.2575 -0.0114
 4695TIP3    H114091   2.323   3.995   1.807  0.8150  0.6278 -0.0829
 4695TIP3    H214092   2.455   3.935   1.851  0.1579 -0.6526  0.1828
 4696TIP3   OH214093   0.358   3.088   1.635  0.2337  0.3776  0.1194
 4696TIP3    H114094   0.345   3.136   1.717  0.6278  1.3885 -0.3852
 4696TIP3    H214095   0.276   3.102   1.586  0.7184  1.3950 -0.4343
 4697TIP3   OH214096   2.635   5.094   0.833 -0.2201  0.4894 -0.2733
 4697TIP3    H114097   2.612   5.008   0.798 -0.9891  0.5008  0.1887
 4697TIP3    H214098   2.704   5.126   0.774 -0.3154 -0.2015 -0.7740
 4698TIP3   OH214099   6.206   0.627   2.466 -0.0834  0.5256  0.0981
 4698TIP3    H114100   6.258   0.613   2.545 -2.1029 -0.1072  1.4200
 4698TIP3    H214101   6.270   0.641   2.396  1.8385 -1.2383  1.4013
 4699TIP3   OH214102   6.250   4.546   4.255  0.2244 -0.2660 -0.2449
 4699TIP3    H114103   6.204   4.619   4.296 -1.1745 -1.3822  0.2696
 4699TIP3    H214104   6.182   4.499   4.206  1.4993  0.0035 -2.4316
 4700TIP3   OH214105   4.736   1.322   3.397 -0.0807 -0.6315  0.7701
 4700TIP3    H114106   4.660   1.381   3.395  0.3601  0.0592 -2.6619
 4700TIP3    H214107   4.729   1.272   3.316  2.4812 -1.4168  0.9592
 4701TIP3   OH214108   4.047   4.934   4.343 -0.0986 -0.0058  0.2728
 4701TIP3    H114109   4.083   4.944   4.431 -0.8693  0.1234  0.5831
 4701TIP3    H214110   4.024   5.023   4.317  1.2381  0.1293 -0.5636
 4702TIP3   OH214111   5.013   2.746   4.096  0.2857 -0.2816 -0.0167
 4702TIP3    H114112   4.956   2.687   4.144 -0.7923  2.8292  2.9771
 4702TIP3    H214113   4.976   2.750   4.008 -1.2944 -1.8253  0.5264
 4703TIP3   OH214114   3.999   2.214   1.322  0.6787  0.0502 -0.2143
 4703TIP3    H114115   3.962   2.302   1.314 -0.3253 -0.4730 -1.9060
 4703TIP3    H214116   4.018   2.205   1.415  0.1820  1.8060  0.1059
 4704TIP3   OH214117   3.644   5.718   3.541 -0.1165 -0.6062 -0.0801
 4704TIP3    H114118   3.575   5.652   3.540 -0.6268 -0.1047 -1.3120
 4704TIP3    H214119   3.603   5.796   3.504  1.3301 -0.5499 -1.7294
 4705TIP3   OH214120   2.759   1.615   2.834  0.9957 -0.2248  0.0797
 4705TIP3    H114121   2.725   1.587   2.750 -0.9821 -1.2759  1.1524
 4705TIP3    H214122   2.762   1.535   2.887  1.4297  0.5257  1.2354
 4706TIP3   OH214123   2.983   0.259   4.098  0.4066  0.0218  0.2384
 4706TIP3    H114124   3.032   0.325   4.146  2.9962 -0.8694 -0.9729
 4706TIP3    H214125   3.036   0.179   4.107 -0.8507 -1.0235 -1.1121
 4707TIP3   OH214126   1.838   4.113   1.295 -0.0336 -0.0109 -0.0843
 4707TIP3    H114127   1.824   4.154   1.210 -1.7109  1.0484  0.6297
 4707TIP3    H214128   1.856   4.022   1.275 -0.0916  0.2766 -1.5845
 4708TIP3   OH214129   4.280   2.270   4.105  0.9490  0.0675  0.0155
 4708TIP3    H114130   4.312   2.338   4.165  0.9321  0.2587 -0.1908
 4708TIP3    H214131   4.291   2.189   4.154  1.3624  0.1718  0.1076
 4709TIP3   OH214132   3.770   3.153   2.234 -0.0464  0.4853 -0.1683
 4709TIP3    H114133   3.723   3.231   2.263  1.5674  1.6185 -0.4808
 4709TIP3    H214134   3.731   3.132   2.149  1.8113  3.1324 -1.8201
 4710TIP3   OH214135   1.091   0.718   3.600  0.1208  0.0882  0.0978
 4710TIP3    H114136   1.122   0.808   3.595  0.6047 -0.0738  0.1465
 4710TIP3    H214137   1.014   0.716   3.543 -0.2937  0.6974  0.6292
 4711TIP3   OH214138   1.540   4.785   0.650  0.2010  0.4037 -0.1640
 4711TIP3    H114139   1.502   4.775   0.563 -1.2687 -0.7017  0.5682
 4711TIP3    H214140   1.585   4.869   0.646  0.5322  0.1917 -2.1061
 4712TIP3   OH214141   2.970   1.931   2.635 -0.1716 -0.2374  0.3496
 4712TIP3    H114142   2.969   1.864   2.703  0.3261 -0.2247  0.3798
 4712TIP3    H214143   2.930   2.008   2.676  0.9189  0.0419  0.9418
 4713TIP3   OH214144   0.913   2.781   4.017 -0.0840  0.0837 -0.2270
 4713TIP3    H114145   0.840   2.841   4.002  0.6764  1.1574  0.2070
 4713TIP3    H214146   0.990   2.838   4.020  0.3384 -0.4635  3.5073
 4714TIP3   OH214147   2.097   1.370   2.827 -0.3505  0.4967 -0.2281
 4714TIP3    H114148   2.076   1.322   2.908  0.6993  1.2760  0.5378
 4714TIP3    H214149   2.088   1.305   2.758 -0.8134 -0.3131  0.5625
 4715TIP3   OH214150   6.284   3.076   0.104  0.2583 -0.4259 -0.0168
 4715TIP3    H114151   6.301   2.983   0.119  0.4259 -0.5779 -1.0921
 4715TIP3    H214152   6.221   3.099   0.173  2.2666 -0.6262  2.0290
 4716TIP3   OH214153   1.969   1.550   1.085  0.6252 -0.4975 -0.0760
 4716TIP3    H114154   2.041   1.530   1.025  0.7817  1.5342 -0.6565
 4716TIP3    H214155   2.004   1.532   1.172  1.3603 -0.8209 -0.4296
 4717TIP3   OH214156   0.374   3.930   1.302 -0.0572 -0.6672  0.3364
 4717TIP3    H114157   0.411   3.859   1.249 -0.3343  0.3294 -1.2343
 4717TIP3    H214158   0.280   3.928   1.283 -0.4041 -1.1953  1.9288
 4718TIP3   OH214159   5.474   2.745   3.952 -0.3256  0.2728  0.4865
 4718TIP3    H114160   5.541   2.688   3.990  1.4263  0.7566 -1.7165
 4718TIP3    H214161   5.472   2.821   4.011 -0.6030 -0.7260  1.8233
 4719TIP3   OH214162   3.362   2.825   3.475 -0.0684  0.1976 -0.1294
 4719TIP3    H114163   3.420   2.894   3.443 -1.4724  2.2918  1.5356
 4719TIP3    H214164   3.379   2.750   3.418  2.1594  1.6332 -1.4767
 4720TIP3   OH214165   1.474   0.421   2.735  0.7538 -0.3539  0.1391
 4720TIP3    H114166   1.440   0.342   2.777  0.2857  0.1272  0.6833
 4720TIP3    H214167   1.476   0.400   2.641 -0.5926 -0.5768  0.1391
 4721TIP3   OH214168   3.918   2.184   3.744 -0.5471 -0.4722  0.7438
 4721TIP3    H114169   3.972   2.246   3.693  0.3996 -0.3882  1.8020
 4721TIP3    H214170   3.835   2.230   3.756  0.1187  0.5921  1.4663
 4722TIP3   OH214171   6.033   0.100   4.085 -0.1191 -0.2625  0.6228
 4722TIP3    H114172   6.080   0.138   4.159 -0.7412  0.6927  0.5363
 4722TIP3    H214173   5.941   0.098   4.112 -0.1972 -1.0714  0.3510
 4723TIP3   OH214174   1.058   5.501   3.120 -0.3194  0.4171  0.6869
 4723TIP3    H114175   1.123   5.431   3.106 -1.2229 -0.1845 -0.7368
 4723TIP3    H214176   0.980   5.455   3.152 -0.4381  0.9753  1.2160
 4724TIP3   OH214177   6.046   4.445   4.948  0.4765  0.2974  0.0419
 4724TIP3    H114178   6.005   4.362   4.923  0.7635  0.2227 -0.1776
 4724TIP3    H214179   6.030   4.451   5.042 -0.5474  0.5496 -0.1338
 4725TIP3   OH214180   3.742   5.683   4.882 -0.7795 -0.0226 -0.2861
 4725TIP3    H114181   3.722   5.609   4.825 -3.0423  0.2881  0.0207
 4725TIP3    H214182   3.750   5.757   4.823 -1.8287  0.0664 -0.3273
 4726TIP3   OH214183   5.557   4.119   4.910  0.0072 -0.4858 -0.4628
 4726TIP3    H114184   5.535   4.110   4.817  0.8020 -1.1075 -0.6019
 4726TIP3    H214185   5.574   4.030   4.939  0.1020 -0.2551  0.1913
 4727TIP3   OH214186   1.907   5.301   4.128  0.0528 -0.4893  0.1076
 4727TIP3    H114187   1.988   5.295   4.078  1.2106 -0.6990  1.9214
 4727TIP3    H214188   1.870   5.386   4.104  2.1272  0.7540  1.1098
 4728TIP3   OH214189   1.713   0.833   2.223  0.4979  0.0727 -0.1997
 4728TIP3    H114190   1.724   0.738   2.213  1.4188  0.2263 -0.8515
 4728TIP3    H214191   1.800   0.869   2.203  0.7957  0.9267  2.2550
 4729TIP3   OH214192   4.671   3.592   0.911 -0.2363  0.5949  0.6731
 4729TIP3    H114193   4.707   3.663   0.859  0.9323 -1.4778 -1.5338
 4729TIP3    H214194   4.745   3.561   0.963 -0.3611  0.0652  0.5372
 4730TIP3   OH214195   4.285   2.810   0.494  0.0255 -0.4156 -0.1837
 4730TIP3    H114196   4.311   2.750   0.563 -1.3329 -1.2518 -0.3563
 4730TIP3    H214197   4.207   2.854   0.528 -0.2070 -0.2701 -0.8777
 4731TIP3   OH214198   3.568   2.449   2.269 -0.0060 -0.7594  0.0962
 4731TIP3    H114199   3.538   2.388   2.202  1.2210 -1.5988  0.2765
 4731TIP3    H214200   3.534   2.534   2.241  0.9378 -0.9896 -1.9024
 4732TIP3   OH214201   6.103   1.509   3.913 -0.1796 -0.1078  0.1818
 4732TIP3    H114202   6.196   1.497   3.894 -0.4282 -0.6710 -0.7848
 4732TIP3    H214203   6.087   1.454   3.989  0.5251  0.9708  1.1430
 4733TIP3   OH214204   0.090   0.308   4.013  0.2511 -0.1612  0.0753
 4733TIP3    H114205   0.024   0.327   4.080  1.0087 -1.1641  1.1428
 4733TIP3    H214206   0.063   0.225   3.974  0.4359 -0.1620 -0.0568
 4734TIP3   OH214207   5.430   0.458   3.709  0.0646 -0.3623 -0.6843
 4734TIP3    H114208   5.489   0.529   3.682  0.7377 -1.1549 -1.3533
 4734TIP3    H214209   5.431   0.397   3.636 -1.7422 -0.3244 -0.7920
 4735TIP3   OH214210   4.863   2.228   3.607 -0.0450  0.1770 -0.1522
 4735TIP3    H114211   4.884   2.274   3.526  2.0172 -2.0811 -1.0414
 4735TIP3    H214212   4.885   2.136   3.588 -3.8536 -1.2823  1.4844
 4736TIP3   OH214213   5.840   2.440   3.872  1.1546 -0.6557 -0.3551
 4736TIP3    H114214   5.875   2.351   3.875 -0.4429 -1.3046  0.0376
 4736TIP3    H214215   5.814   2.453   3.781 -0.3419 -1.3406 -0.0664
 4737TIP3   OH214216  -0.002   4.733   3.289 -0.5490  0.0590  0.3462
 4737TIP3    H114217   0.015   4.770   3.203 -1.7487  1.0630  0.5086
 4737TIP3    H214218   0.068   4.767   3.345  0.7489 -1.3122 -0.3912
 4738TIP3   OH214219   5.015   2.682   1.899 -0.1769  0.2120 -0.1197
 4738TIP3    H114220   4.930   2.684   1.854 -0.3059 -0.2831  0.0977
 4738TIP3    H214221   5.079   2.670   1.828  0.0836  4.0372 -0.7544
 4739TIP3   OH214222   4.029   5.163   2.806  0.7191  0.2471  0.4973
 4739TIP3    H114223   3.938   5.162   2.835  0.5307  1.6299  0.0339
 4739TIP3    H214224   4.072   5.227   2.863  0.8576  1.3189 -0.7787
 4740TIP3   OH214225   0.918   2.700   0.873  0.1725 -0.0106 -0.3846
 4740TIP3    H114226   0.850   2.765   0.858  0.0187 -0.4323 -1.5470
 4740TIP3    H214227   0.886   2.648   0.947  0.4512  1.4032  0.8013
 4741TIP3   OH214228   1.885   3.100   3.564  0.3560 -0.2700  0.5388
 4741TIP3    H114229   1.913   3.126   3.652  0.2781 -0.5471  0.6456
 4741TIP3    H214230   1.966   3.072   3.521  0.3018 -0.7116  0.7227
 4742TIP3   OH214231   1.777   4.940   3.596 -0.4932 -0.4584 -0.1020
 4742TIP3    H114232   1.694   4.932   3.642  0.7802  0.1239  2.5019
 4742TIP3    H214233   1.788   5.035   3.583  0.0665 -0.4749  0.2183
 4743TIP3   OH214234   3.968   4.859   2.926  0.4523 -0.0752  0.2944
 4743TIP3    H114235   4.035   4.857   2.994 -0.2968 -0.4337  1.0388
 4743TIP3    H214236   3.968   4.949   2.894  1.4437 -0.1322  0.1251
 4744TIP3   OH214237   6.019   5.869   1.259  0.3339  0.3173 -0.3314
 4744TIP3    H114238   6.057   5.920   1.330 -0.3059  0.9286 -0.4130
 4744TIP3    H214239   6.035   5.921   1.181  0.5865 -0.1095 -0.5677
 4745TIP3   OH214240   3.960   1.415   0.151 -0.4703  0.6276  0.2712
 4745TIP3    H114241   3.955   1.358   0.073 -3.1833 -0.4465  1.1084
 4745TIP3    H214242   4.029   1.376   0.204  1.0363  1.0398 -1.2818
 4746TIP3   OH214243   3.752   2.871   2.558  0.4191  0.1828  0.1004
 4746TIP3    H114244   3.751   2.835   2.647 -1.7838  0.0661  0.0707
 4746TIP3    H214245   3.753   2.966   2.571 -0.8413  0.1830  0.2879
 4747TIP3   OH214246   5.884   2.415   2.543 -0.0040 -0.3601 -0.1890
 4747TIP3    H114247   5.922   2.502   2.534  1.0417 -0.8286 -0.4247
 4747TIP3    H214248   5.791   2.428   2.524 -0.1541  0.9553  1.2556
 4748TIP3   OH214249   5.739   2.141   0.771  0.2467 -0.1919 -0.7988
 4748TIP3    H114250   5.762   2.092   0.850  0.4850  1.0349 -0.0962
 4748TIP3    H214251   5.782   2.225   0.781  0.5192 -0.1149 -2.3860
 4749TIP3   OH214252   0.698   0.644   0.812 -0.1964 -0.0883 -0.1711
 4749TIP3    H114253   0.709   0.619   0.904  0.2835  0.0422 -0.1921
 4749TIP3    H214254   0.720   0.737   0.810 -0.5223 -0.0137 -0.3626
 4750TIP3   OH214255   0.339  -0.013   0.159  0.3668 -0.4503  0.4274
 4750TIP3    H114256   0.336   0.006   0.253  0.7581  0.0270  0.3457
 4750TIP3    H214257   0.264   0.033   0.123  0.9685  0.4644  0.3177
 4751TIP3   OH214258   0.127   4.263   1.340 -0.0143 -0.2985 -0.1639
 4751TIP3    H114259   0.162   4.282   1.253 -2.7054  0.2839 -1.1949
 4751TIP3    H214260   0.046   4.215   1.324 -1.5087  1.3437  1.9242
 4752TIP3   OH214261   4.853   3.534   4.155  0.0878 -0.0784 -0.4609
 4752TIP3    H114262   4.929   3.552   4.210 -0.8952  0.2492  0.8490
 4752TIP3    H214263   4.848   3.438   4.152 -0.4775 -0.1231  0.9849
 4753TIP3   OH214264   0.846  -0.011   3.385  0.0442 -0.1268 -0.2005
 4753TIP3    H114265   0.770   0.021   3.336 -0.3692 -0.2966  0.3149
 4753TIP3    H214266   0.818  -0.010   3.476  0.3766 -0.9731 -0.0748
 4754TIP3   OH214267   0.621   1.502   0.075 -0.5399 -0.1994 -0.3815
 4754TIP3    H114268   0.696   1.462   0.118  0.4260  0.7575 -1.1215
 4754TIP3    H214269   0.589   1.435   0.014  0.1707 -0.3591 -0.5860
 4755TIP3   OH214270   5.582   1.361   4.002  0.1675 -0.6278 -0.4115
 4755TIP3    H114271   5.662   1.414   4.002  0.1709 -0.6314 -0.7351
 4755TIP3    H214272   5.546   1.372   4.090  0.2916 -0.2712 -0.4037
 4756TIP3   OH214273   2.414   0.900   3.885  0.1909 -0.6115  0.0829
 4756TIP3    H114274   2.394   0.981   3.931  0.6055  0.0267 -0.8275
 4756TIP3    H214275   2.357   0.834   3.926 -0.4942  0.2286  0.5167
 4757TIP3   OH214276   0.389   1.696   3.424 -0.0831 -0.7560  0.2427
 4757TIP3    H114277   0.480   1.701   3.395 -0.4268  1.1789 -0.5977
 4757TIP3    H214278   0.387   1.744   3.507 -0.2387 -1.3070  0.5655
 4758TIP3   OH214279   4.811   3.071   2.226  0.2620 -0.7132 -0.9320
 4758TIP3    H114280   4.804   3.162   2.251 -0.7315 -0.9394 -0.3457
 4758TIP3    H214281   4.726   3.049   2.188  0.5535 -1.3418 -1.2566
 4759TIP3   OH214282   1.993   0.567   3.985 -0.2334  0.5556 -0.6377
 4759TIP3    H114283   2.076   0.543   4.028 -0.5897  0.5712  0.0829
 4759TIP3    H214284   1.997   0.662   3.977 -0.2210  0.5662 -0.5139
 4760TIP3   OH214285   0.613   3.061   3.644  0.2029  0.4018 -0.1852
 4760TIP3    H114286   0.666   2.998   3.595  0.8941  0.8315 -0.0023
 4760TIP3    H214287   0.582   3.121   3.577 -0.6662 -0.2664 -0.3962
 4761TIP3   OH214288   0.548   1.615   0.864 -0.1136 -0.1505 -0.7016
 4761TIP3    H114289   0.641   1.629   0.879 -0.0285 -1.5686  0.3330
 4761TIP3    H214290   0.505   1.691   0.904  0.4511 -1.1245  1.9890
 4762TIP3   OH214291   2.917   4.594   3.847  0.1811  0.6054  0.1399
 4762TIP3    H114292   2.976   4.649   3.898  1.6235 -0.0932 -0.7202
 4762TIP3    H214293   2.942   4.504   3.870  0.9886  0.2683 -1.8998
 4763TIP3   OH214294   2.339   5.285   2.332 -0.6218  0.3003 -0.1525
 4763TIP3    H114295   2.432   5.261   2.327 -0.4957  0.4893  0.8964
 4763TIP3    H214296   2.302   5.255   2.249  0.3801  0.2459 -0.6006
 4764TIP3   OH214297   1.071   2.858   0.321 -0.3879 -0.0168  0.3672
 4764TIP3    H114298   1.114   2.895   0.244 -0.8531 -0.7021 -0.2386
 4764TIP3    H214299   1.111   2.903   0.395  1.7707 -1.0310 -0.1177
 4765TIP3   OH214300   1.417   4.681   2.961 -0.2372 -0.3142 -0.0332
 4765TIP3    H114301   1.488   4.662   3.022  0.4539  0.6702 -0.5160
 4765TIP3    H214302   1.435   4.625   2.885 -0.0735 -0.1850 -0.0893
 4766TIP3   OH214303   2.299   3.422   3.813 -0.5969 -0.4233 -0.8371
 4766TIP3    H114304   2.378   3.424   3.867 -0.1625  0.1172 -1.4725
 4766TIP3    H214305   2.231   3.460   3.868 -0.6362 -1.7026  0.0392
 4767TIP3   OH214306   0.164   4.512   0.165  0.0623 -0.0597 -0.0990
 4767TIP3    H114307   0.211   4.473   0.092  0.8666  0.8837 -0.1092
 4767TIP3    H214308   0.118   4.587   0.127  2.1279  1.6978  0.6603
 4768TIP3   OH214309   3.671   0.464   3.135  0.1065 -0.3651  0.4688
 4768TIP3    H114310   3.694   0.533   3.197  0.1536 -1.0624  1.2272
 4768TIP3    H214311   3.753   0.445   3.089  0.0191  0.3128  0.0173
 4769TIP3   OH214312   5.306   2.324   4.396 -0.3078  0.4051  0.3492
 4769TIP3    H114313   5.380   2.264   4.404  0.0826  1.0851  2.2018
 4769TIP3    H214314   5.309   2.354   4.305  0.3594 -1.2399 -0.2038
 4770TIP3   OH214315   1.769   1.081   0.374 -0.5273  0.8243  0.0677
 4770TIP3    H114316   1.864   1.079   0.378 -0.5396  0.0846 -0.0092
 4770TIP3    H214317   1.747   1.047   0.287 -0.8773  0.6618  0.2174
 4771TIP3   OH214318   2.337   4.629   2.576  0.2435  0.4076 -0.6186
 4771TIP3    H114319   2.409   4.569   2.594 -0.7073 -0.2317  1.2777
 4771TIP3    H214320   2.364   4.712   2.616 -0.5886 -0.1941  1.2783
 4772TIP3   OH214321   2.714   5.403   0.312 -0.2545 -0.6898 -0.0174
 4772TIP3    H114322   2.701   5.498   0.322  0.6124 -0.7002  1.6267
 4772TIP3    H214323   2.735   5.392   0.220  0.4912  0.8563 -0.0718
 4773TIP3   OH214324   6.060   1.295   5.176  0.2735  0.3176 -0.7093
 4773TIP3    H114325   6.138   1.238   5.176  0.6490  0.7956 -2.0817
 4773TIP3    H214326   5.999   1.251   5.235  1.5201 -0.1552  0.2766
 4774TIP3   OH214327   4.382   5.665   1.171  0.0109  0.0206 -0.0470
 4774TIP3    H114328   4.294   5.697   1.153  0.7059  1.1177 -1.7269
 4774TIP3    H214329   4.401   5.603   1.100  0.6595 -0.0578  0.1833
 4775TIP3   OH214330   1.030   4.375   1.323 -0.4082 -0.3105 -0.3741
 4775TIP3    H114331   1.015   4.354   1.415  4.4415 -2.2798  0.2318
 4775TIP3    H214332   1.015   4.292   1.277  0.3580 -0.1914 -0.8548
 4776TIP3   OH214333   1.353   3.842   3.278 -0.3554 -0.0841  0.0739
 4776TIP3    H114334   1.261   3.817   3.268 -0.2932  0.3360 -2.2563
 4776TIP3    H214335   1.401   3.774   3.230  0.4036  0.4797  0.0203
 4777TIP3   OH214336   3.279   1.550   0.587  0.5581 -0.8497  0.4091
 4777TIP3    H114337   3.354   1.607   0.576 -0.6848  0.8163  0.2112
 4777TIP3    H214338   3.252   1.561   0.678  0.5287 -1.4306  0.4790
 4778TIP3   OH214339   2.676   3.000   0.533  0.1882  0.2626 -0.7707
 4778TIP3    H114340   2.721   3.030   0.612 -0.5948  0.1553 -0.2706
 4778TIP3    H214341   2.728   2.927   0.501  0.5561  0.3582 -0.3932
 4779TIP3   OH214342   4.354   1.473   2.676  0.1480  0.6020  0.0681
 4779TIP3    H114343   4.322   1.558   2.645 -1.7430  0.2705  0.9494
 4779TIP3    H214344   4.281   1.413   2.660  0.7320 -0.4555  1.1784
 4780TIP3   OH214345   0.303   1.010   0.471  0.2369  0.3964  0.1079
 4780TIP3    H114346   0.396   1.032   0.475  0.0838  0.9768  0.6092
 4780TIP3    H214347   0.262   1.086   0.430 -0.1596  0.5989  0.8732
 4781TIP3   OH214348   6.012   1.277   0.235 -0.6427  0.4730 -0.4776
 4781TIP3    H114349   6.047   1.187   0.237 -1.5396  0.1209  2.0177
 4781TIP3    H214350   6.019   1.302   0.143  1.7908 -1.2795 -0.8875
 4782TIP3   OH214351   0.073   1.524   1.086 -0.3372 -0.2976 -0.0497
 4782TIP3    H114352   0.034   1.609   1.063 -2.7776 -1.6417 -1.2266
 4782TIP3    H214353   0.137   1.545   1.154  0.7707  2.7654 -1.8187
 4783TIP3   OH214354   3.430   1.967   1.827 -0.0209 -0.4009 -0.1165
 4783TIP3    H114355   3.476   2.049   1.840 -1.0702 -0.1504  2.7767
 4783TIP3    H214356   3.449   1.942   1.737  0.6773  2.7658 -0.9458
 4784TIP3   OH214357   5.560   5.321   2.193  0.0740  0.0545  0.1795
 4784TIP3    H114358   5.549   5.386   2.124 -0.0719 -1.4281 -1.2559
 4784TIP3    H214359   5.499   5.251   2.170 -0.0665 -0.4384  1.8927
 4785TIP3   OH214360   0.356   4.457   4.135  0.3560  0.3879  0.3845
 4785TIP3    H114361   0.388   4.381   4.185 -1.4287  0.1627  1.2690
 4785TIP3    H214362   0.270   4.429   4.103  0.5632  1.3182 -1.0471
 4786TIP3   OH214363   0.656   5.662   2.117  0.4971 -0.1680 -0.0082
 4786TIP3    H114364   0.682   5.722   2.186  2.3752 -2.8321  1.8114
 4786TIP3    H214365   0.569   5.631   2.144  0.3257  0.3490  0.0366
 4787TIP3   OH214366   5.924   0.553   2.803 -0.0956  0.1115 -0.2198
 4787TIP3    H114367   5.869   0.554   2.881 -0.9911 -1.0431 -0.8048
 4787TIP3    H214368   5.961   0.642   2.799 -1.6153  0.8167  0.4023
 4788TIP3   OH214369   2.987   4.538   2.925 -0.4514  0.5224 -0.1467
 4788TIP3    H114370   2.911   4.488   2.953  1.1336 -2.6333 -0.9919
 4788TIP3    H214371   3.060   4.502   2.976  0.6100  3.2080  0.4228
 4789TIP3   OH214372   6.095   0.118   4.967  0.2710  0.1432 -0.0079
 4789TIP3    H114373   6.104   0.187   5.033  1.6040  1.3663 -1.3711
 4789TIP3    H214374   6.001   0.103   4.960  0.0689  0.4356  1.6985
 4790TIP3   OH214375   3.084   2.822   2.861  0.8076 -0.2145 -0.3536
 4790TIP3    H114376   3.142   2.764   2.910 -0.1833 -1.0707 -0.1611
 4790TIP3    H214377   3.013   2.841   2.922  0.9384  0.9292 -0.5362
 4791TIP3   OH214378   4.134   5.596   3.002 -0.0183  0.3699 -0.4846
 4791TIP3    H114379   4.099   5.522   3.052 -1.3917  0.2133 -1.5883
 4791TIP3    H214380   4.132   5.670   3.062 -0.3592 -0.0928  0.0855
 4792TIP3   OH214381   0.597   2.198   0.141  0.2204  0.7961 -0.2460
 4792TIP3    H114382   0.527   2.146   0.182  1.1745  0.4209  0.9710
 4792TIP3    H214383   0.594   2.173   0.049 -0.1686 -0.5009  0.0944
 4793TIP3   OH214384   1.300   5.683   0.151  0.6515  0.2969  0.3765
 4793TIP3    H114385   1.279   5.593   0.125  0.1096  0.7729 -0.8630
 4793TIP3    H214386   1.393   5.692   0.132  1.0609 -0.4462  1.8726
 4794TIP3   OH214387   1.059   2.329   3.160 -0.5441  0.7968  0.2023
 4794TIP3    H114388   0.979   2.369   3.195 -0.6869  0.4616  0.2650
 4794TIP3    H214389   1.081   2.261   3.224 -1.6744 -0.8684 -1.1183
 4795TIP3   OH214390   0.627   0.649   4.847 -0.1584 -0.0449 -0.0828
 4795TIP3    H114391   0.644   0.654   4.941 -0.0715 -0.5317 -0.0719
 4795TIP3    H214392   0.560   0.715   4.831 -4.2581 -3.4452  1.2358
 4796TIP3   OH214393   3.221   0.907   1.941  0.2287  0.1072 -0.1627
 4796TIP3    H114394   3.274   0.985   1.925  0.7370 -0.0993  0.4331
 4796TIP3    H214395   3.131   0.938   1.939  0.4249  0.7032  0.0207
 4797TIP3   OH214396   1.403   5.282   3.706 -0.4204  0.7090 -0.3293
 4797TIP3    H114397   1.315   5.278   3.742 -0.4390 -0.6501 -0.4570
 4797TIP3    H214398   1.391   5.281   3.611 -0.3545  3.8153 -0.4491
 4798TIP3   OH214399   5.695   3.974  -0.036 -0.4336  0.5159  0.2125
 4798TIP3    H114400   5.722   3.909   0.030  1.7245  1.5349  0.3994
 4798TIP3    H214401   5.636   4.033   0.011  0.2896  0.6441  0.9749
 4799TIP3   OH214402   2.946   1.386   3.231  0.0703 -0.0328  0.5419
 4799TIP3    H114403   2.950   1.377   3.136  0.4526  1.8114  0.3383
 4799TIP3    H214404   2.864   1.343   3.256  0.2664 -1.0758 -0.5291
 4800TIP3   OH214405   2.163   0.395   2.657  0.7550 -0.6581 -0.4488
 4800TIP3    H114406   2.112   0.334   2.709  0.1038  1.1921  1.2099
 4800TIP3    H214407   2.175   0.471   2.714  1.8007  0.6377 -2.2865
 4801TIP3   OH214408   6.060   5.312   3.296 -0.5258  0.2644 -0.1980
 4801TIP3    H114409   6.090   5.333   3.384  3.1303 -0.5629 -1.0781
 4801TIP3    H214410   6.127   5.253   3.261 -2.7843 -0.9256 -2.9206
 4802TIP3   OH214411   4.263   4.365   0.477 -0.2092  0.0698 -0.2045
 4802TIP3    H114412   4.316   4.397   0.550 -0.1725 -0.7952  0.1675
 4802TIP3    H214413   4.320   4.303   0.431 -1.0033 -1.1767  0.4365
 4803TIP3   OH214414   0.329   4.547   3.278  0.6818  0.0454 -0.3079
 4803TIP3    H114415   0.374   4.629   3.296 -1.0298  1.1521 -0.8546
 4803TIP3    H214416   0.333   4.538   3.183  0.9522 -0.5887 -0.2453
 4804TIP3   OH214417   4.106   1.481   4.251 -0.0459  0.0288  0.1130
 4804TIP3    H114418   4.113   1.389   4.277  1.0143  0.1037  0.1492
 4804TIP3    H214419   4.154   1.486   4.168  0.5198  0.6772  0.4657
 4805TIP3   OH214420   1.293   4.233   4.688 -0.0879  0.0780  0.4301
 4805TIP3    H114421   1.258   4.286   4.759  0.2928 -0.8889  1.3614
 4805TIP3    H214422   1.288   4.143   4.720 -0.3277 -0.4292 -0.9509
 4806TIP3   OH214423   0.095   5.766   1.037  0.5440  0.0768  0.8616
 4806TIP3    H114424   0.164   5.723   1.088  0.8073 -1.0630 -0.3791
 4806TIP3    H214425   0.112   5.859   1.046  2.2749 -0.1819  0.5894
 4807TIP3   OH214426   2.235   0.050   0.943  0.0561  0.1156  0.8120
 4807TIP3    H114427   2.232   0.116   1.011 -1.0978 -0.4755  1.3572
 4807TIP3    H214428   2.154   0.062   0.894 -0.3354 -1.0898  1.1274
 4808TIP3   OH214429   3.598   3.175   4.988 -0.2758  0.4075  0.1427
 4808TIP3    H114430   3.656   3.249   4.970  0.1340 -0.3284 -1.6834
 4808TIP3    H214431   3.645   3.123   5.053 -0.5602  1.6965  1.4378
 4809TIP3   OH214432   4.233   5.383   1.977 -0.0258 -0.7537  0.0263
 4809TIP3    H114433   4.151   5.384   1.929  0.2961  1.2050 -0.5732
 4809TIP3    H214434   4.235   5.466   2.024  1.5466 -0.8110  0.1261
 4810TIP3   OH214435   1.387   4.122   5.046 -0.1747  0.0459  0.3155
 4810TIP3    H114436   1.408   4.188   5.111 -1.2478 -0.2942  1.0430
 4810TIP3    H214437   1.292   4.109   5.055 -0.4029  0.2017 -1.5173
 4811TIP3   OH214438   4.627   4.302   3.205  0.2878 -0.1150  0.1119
 4811TIP3    H114439   4.641   4.366   3.274 -0.5901 -0.3720  0.5486
 4811TIP3    H214440   4.537   4.315   3.178  0.4623 -0.3784 -0.6226
 4812TIP3   OH214441   5.282   2.055   1.929  0.5112  0.3459 -0.0266
 4812TIP3    H114442   5.256   2.028   1.841 -1.3795  0.2826  0.4985
 4812TIP3    H214443   5.229   2.133   1.947  1.5306  0.8988  0.7320
 4813TIP3   OH214444   2.145   5.049   4.411  0.2509 -0.2566  0.0841
 4813TIP3    H114445   2.094   5.121   4.447  1.4456  0.0753  1.1685
 4813TIP3    H214446   2.167   5.077   4.322  2.7112  1.8396  1.2468
 4814TIP3   OH214447   3.349   4.194   1.430 -0.0737  0.6794 -0.3143
 4814TIP3    H114448   3.326   4.275   1.384  0.7317  0.6516 -0.7801
 4814TIP3    H214449   3.433   4.213   1.472  1.5187 -0.7140 -2.6106
 4815TIP3   OH214450   0.446   3.424   0.578  0.7011  0.3180  0.4657
 4815TIP3    H114451   0.410   3.339   0.604  1.8160 -0.8209 -1.4916
 4815TIP3    H214452   0.438   3.426   0.483  1.9695  1.8035  0.3449
 4816TIP3   OH214453   5.211   5.687   3.147 -0.6149  0.2323  0.2240
 4816TIP3    H114454   5.274   5.617   3.164  1.2150  1.0988 -2.3557
 4816TIP3    H214455   5.147   5.648   3.087 -2.1649 -0.4064  2.2010
 4817TIP3   OH214456   5.326   1.028   2.106 -0.5221  0.0348  0.0891
 4817TIP3    H114457   5.291   1.041   2.194 -0.7405 -2.2312  0.4049
 4817TIP3    H214458   5.414   1.067   2.109 -0.9033  0.8563  0.9997
 4818TIP3   OH214459   3.762   5.477   3.181 -0.1823 -0.5053  0.1301
 4818TIP3    H114460   3.709   5.460   3.259 -0.1601  0.9772  0.4953
 4818TIP3    H214461   3.699   5.475   3.109 -0.7977  1.3634  0.5764
 4819TIP3   OH214462   5.304   0.046   2.240  0.0733 -0.1427 -0.0918
 4819TIP3    H114463   5.346   0.128   2.216 -0.5094  0.1159 -0.2672
 4819TIP3    H214464   5.372  -0.020   2.232  0.2068  0.1199 -1.3009
 4820TIP3   OH214465   1.808   1.657   1.391  0.7616 -0.1792 -0.1388
 4820TIP3    H114466   1.713   1.658   1.389  0.7638  0.4036 -0.0296
 4820TIP3    H214467   1.830   1.675   1.483  0.9954  1.4372 -0.4894
 4821TIP3   OH214468   3.415   1.673   4.183 -0.8301 -0.2268  0.4372
 4821TIP3    H114469   3.426   1.580   4.161  0.6197  0.0616 -0.2209
 4821TIP3    H214470   3.474   1.687   4.257  0.1583  0.4835 -0.4570
 4822TIP3   OH214471   1.447   0.005   0.894 -0.0178  0.2574 -0.2339
 4822TIP3    H114472   1.522  -0.054   0.895 -0.4733 -0.3288 -0.3884
 4822TIP3    H214473   1.474   0.077   0.837  0.7556  0.4970  0.4167
 4823TIP3   OH214474   1.675   2.301   4.804 -0.0500  0.3946 -0.5776
 4823TIP3    H114475   1.753   2.266   4.848 -1.2810  0.1989  1.5974
 4823TIP3    H214476   1.681   2.268   4.715  1.6139 -0.8461 -0.0652
 4824TIP3   OH214477   4.179   5.896   1.685 -0.0604 -0.0130  0.5372
 4824TIP3    H114478   4.253   5.940   1.641  0.1030  0.2055  1.0199
 4824TIP3    H214479   4.204   5.804   1.688  0.9915  0.2875  2.2180
 4825TIP3   OH214480   1.749   4.561   0.724 -0.4436 -0.4993 -0.2760
 4825TIP3    H114481   1.743   4.540   0.817  0.8027  0.1966 -0.0086
 4825TIP3    H214482   1.681   4.627   0.710  1.3974  1.7999  0.9312
 4826TIP3   OH214483   1.745   3.715   2.789  0.0624 -0.2357 -0.2581
 4826TIP3    H114484   1.686   3.647   2.820 -0.3143  0.2442  0.0748
 4826TIP3    H214485   1.707   3.797   2.820  1.3037  0.0392  0.6359
 4827TIP3   OH214486   3.666   5.803   4.168  0.2503 -0.4230 -0.1855
 4827TIP3    H114487   3.675   5.733   4.103 -0.3856 -0.6798 -0.0171
 4827TIP3    H214488   3.655   5.756   4.251  0.2857 -0.1158 -0.0059
 4828TIP3   OH214489   0.115   5.358   4.122 -0.0103 -0.5835  0.1705
 4828TIP3    H114490   0.172   5.351   4.199  2.1197  2.8287 -0.8682
 4828TIP3    H214491   0.149   5.294   4.061  0.4543 -0.9885  0.8386
 4829TIP3   OH214492   1.105   2.910   0.877 -0.4167 -0.3512 -0.8452
 4829TIP3    H114493   1.164   2.842   0.845 -0.7483 -1.2465  0.3742
 4829TIP3    H214494   1.022   2.864   0.893 -0.7774  0.4259 -0.4100
 4830TIP3   OH214495   5.603   1.898   1.077 -0.0631  1.0343 -0.0536
 4830TIP3    H114496   5.612   1.986   1.039 -2.4762  1.4493  0.2196
 4830TIP3    H214497   5.566   1.913   1.164 -0.7294 -0.2759 -0.0962
 4831TIP3   OH214498   6.243   1.908   1.701 -0.3499 -0.0322  0.7612
 4831TIP3    H114499   6.230   1.866   1.786  0.0988  0.1977  0.9469
 4831TIP3    H214500   6.294   1.845   1.650 -0.8568 -0.2895  0.5580
 4832TIP3   OH214501   4.067   3.609   1.697 -0.0528 -0.5095 -0.1527
 4832TIP3    H114502   4.076   3.589   1.790  0.8645 -0.7143 -0.2744
 4832TIP3    H214503   4.030   3.529   1.659  1.9500 -1.4003 -0.3501
 4833TIP3   OH214504   4.419   0.337   3.868 -0.4143 -0.0798  0.4542
 4833TIP3    H114505   4.343   0.334   3.811 -0.6883  0.5844  0.7669
 4833TIP3    H214506   4.415   0.424   3.908 -0.9550 -0.9388  2.4411
 4834TIP3   OH214507   3.079   1.870   0.771 -0.4099  0.3935 -0.1031
 4834TIP3    H114508   3.135   1.947   0.763  1.5001 -0.8646  0.3983
 4834TIP3    H214509   3.026   1.886   0.849  0.2333  1.0184  0.2142
 4835TIP3   OH214510   0.856   1.961   1.484  0.0573  0.0539  0.7448
 4835TIP3    H114511   0.877   1.924   1.398 -0.9019  2.5985 -0.6896
 4835TIP3    H214512   0.939   1.993   1.517  0.6639 -2.0397  1.4227
 4836TIP3   OH214513   5.875   0.957   2.517  0.3855 -0.5086  0.0216
 4836TIP3    H114514   5.946   1.014   2.489  0.5399 -0.7129 -0.0010
 4836TIP3    H214515   5.908   0.868   2.505  0.3311 -0.6019  0.5220
 4837TIP3   OH214516   2.605   3.635   3.631  0.3280 -0.4002  0.5044
 4837TIP3    H114517   2.636   3.550   3.660  0.1920  0.1491  2.4330
 4837TIP3    H214518   2.510   3.624   3.621  0.3268 -0.5113  0.6367
 4838TIP3   OH214519   3.937   0.902   2.300 -0.0048  0.5257  0.0438
 4838TIP3    H114520   4.009   0.951   2.260  1.4429 -1.7242 -0.2887
 4838TIP3    H214521   3.863   0.914   2.239  1.0101  0.3825 -1.2556
 4839TIP3   OH214522   4.354   0.915   0.982 -0.1691  0.6532  0.2466
 4839TIP3    H114523   4.260   0.929   0.978 -0.3923 -0.0322  2.0531
 4839TIP3    H214524   4.369   0.833   0.936 -0.3870  0.9632 -0.3852
 4840TIP3   OH214525   4.699   4.560   3.385  0.0578 -0.4389  0.0885
 4840TIP3    H114526   4.640   4.625   3.346 -0.4871 -0.9722  0.0084
 4840TIP3    H214527   4.787   4.591   3.362 -0.2386 -0.8534 -1.8203
 4841TIP3   OH214528   5.434   0.934   3.031 -0.1928  0.0671  0.0776
 4841TIP3    H114529   5.517   0.926   2.983  0.0291 -0.1078  0.4925
 4841TIP3    H214530   5.458   0.921   3.122 -0.7309 -0.2749  0.1683
 4842TIP3   OH214531   5.938   1.805   3.443 -0.4605  0.0219  0.2606
 4842TIP3    H114532   5.848   1.779   3.423  0.6150 -2.2915 -2.1587
 4842TIP3    H214533   5.955   1.767   3.529 -1.2782 -1.0172 -0.0141
 4843TIP3   OH214534   0.714   5.891   2.374  0.2802 -0.8404 -0.1687
 4843TIP3    H114535   0.736   5.942   2.296  0.9595  0.0418  0.5776
 4843TIP3    H214536   0.799   5.864   2.410 -0.0600 -2.1509 -0.3114
 4844TIP3   OH214537   1.598   5.289   3.183 -0.2892  0.2352  0.2506
 4844TIP3    H114538   1.629   5.240   3.258 -0.6741 -0.4604 -0.0336
 4844TIP3    H214539   1.661   5.270   3.113  1.1061  2.3173  0.8590
 4845TIP3   OH214540   4.789   0.461   3.532  0.3075  0.2801 -0.0587
 4845TIP3    H114541   4.785   0.394   3.600  0.7208 -0.5383 -0.8171
 4845TIP3    H214542   4.701   0.498   3.529 -0.3505 -1.2599 -0.6304
 4846TIP3   OH214543   5.384   4.686   2.590 -0.4002  0.4564  0.0607
 4846TIP3    H114544   5.380   4.729   2.675 -1.8668 -0.2461  0.3611
 4846TIP3    H214545   5.329   4.609   2.598  0.0212 -0.0329 -1.3085
 4847TIP3   OH214546   5.093   4.004   1.175 -0.1626 -0.0500 -0.0291
 4847TIP3    H114547   5.057   4.032   1.259 -0.7697 -0.9551  0.0284
 4847TIP3    H214548   5.108   4.085   1.127 -0.5165  0.4373  0.6647
 4848TIP3   OH214549   2.947   4.089   0.557 -0.1410  0.0503 -0.2177
 4848TIP3    H114550   2.924   4.130   0.474 -1.2949 -0.4538 -0.1665
 4848TIP3    H214551   3.001   4.014   0.532 -0.8993 -0.3903 -0.5598
 4849TIP3   OH214552   4.472   1.154   4.557 -0.3201 -0.5165 -0.0677
 4849TIP3    H114553   4.537   1.119   4.496 -1.1088  0.2201 -1.3719
 4849TIP3    H214554   4.425   1.221   4.507 -3.3588 -2.2747  0.1437
 4850TIP3   OH214555   3.403   5.079   4.254 -0.0913  0.6955 -0.3946
 4850TIP3    H114556   3.432   4.990   4.234  1.0400  1.2505 -1.2621
 4850TIP3    H214557   3.483   5.128   4.268 -0.6068  2.0931 -2.0994
 4851TIP3   OH214558   1.167   3.622   2.920 -0.4979  0.8131  0.0198
 4851TIP3    H114559   1.258   3.619   2.950 -0.3972 -0.8250 -0.3107
 4851TIP3    H214560   1.150   3.714   2.904  0.9226  1.2171  0.6439
 4852TIP3   OH214561   1.111   4.608   2.062 -0.1627  0.0200  0.1140
 4852TIP3    H114562   1.193   4.622   2.014  0.3039 -2.4113  0.1017
 4852TIP3    H214563   1.082   4.521   2.036 -1.5424 -0.1236  1.9252
 4853TIP3   OH214564   5.113   2.659   2.161 -0.3384 -0.1330  0.0446
 4853TIP3    H114565   5.053   2.685   2.091 -0.0627  0.2078 -0.0668
 4853TIP3    H214566   5.164   2.586   2.123  0.9042  1.0705 -0.6848
 4854TIP3   OH214567   6.270   4.110   1.223 -0.2469  0.2118 -0.1822
 4854TIP3    H114568   6.212   4.157   1.164 -1.2964 -1.0980 -0.2192
 4854TIP3    H214569   6.214   4.048   1.269  0.9495 -0.4009  0.5157
 4855TIP3   OH214570   2.706   3.818   0.868 -0.0201  0.2210  0.6018
 4855TIP3    H114571   2.674   3.870   0.794  1.7942 -0.0151 -0.3882
 4855TIP3    H214572   2.664   3.857   0.945 -0.1623  1.9238 -0.3094
 4856TIP3   OH214573   2.708   0.573   0.690  0.2912  0.3824 -0.0365
 4856TIP3    H114574   2.664   0.596   0.772  1.7264  0.5825  0.7140
 4856TIP3    H214575   2.685   0.481   0.676  0.4605  0.1866  0.8897
 4857TIP3   OH214576   4.537   5.956   2.930 -0.2661 -0.4550  0.5116
 4857TIP3    H114577   4.487   5.930   2.853 -1.2348 -1.0386  1.3044
 4857TIP3    H214578   4.621   5.910   2.921  0.1968  0.6049 -0.8771
 4858TIP3   OH214579   1.143   4.015   2.197 -0.2206 -0.1387 -0.3932
 4858TIP3    H114580   1.226   4.010   2.244 -0.9682  3.4169  1.6085
 4858TIP3    H214581   1.105   3.927   2.205  1.6532 -0.8208  1.9191
 4859TIP3   OH214582   1.303   2.864   2.421  0.1545  0.1083 -0.1047
 4859TIP3    H114583   1.384   2.834   2.462 -0.7171 -0.8498  0.9566
 4859TIP3    H214584   1.305   2.825   2.333 -0.2291 -1.8901  0.7183
 4860TIP3   OH214585   2.231   3.063   4.454 -0.3783 -0.0936 -0.2688
 4860TIP3    H114586   2.148   3.028   4.484 -2.3716  1.9262 -2.9060
 4860TIP3    H214587   2.244   3.023   4.368  0.8363  0.4563 -0.3603
 4861TIP3   OH214588   2.920   0.925   4.583 -0.2539 -0.2296  0.2565
 4861TIP3    H114589   2.840   0.978   4.586 -1.5153 -2.0318 -0.1288
 4861TIP3    H214590   2.921   0.879   4.667  1.1269  0.7611  0.8163
 4862TIP3   OH214591   2.553   5.118   3.897  0.7932  0.3066 -0.1931
 4862TIP3    H114592   2.587   5.205   3.877  0.9434  0.2124 -0.3549
 4862TIP3    H214593   2.583   5.100   3.986  0.2925  0.6455  0.0441
 4863TIP3   OH214594   5.244   1.999   3.756  0.4194  0.3906  0.2359
 4863TIP3    H114595   5.163   1.950   3.736  0.3882  1.4218 -2.5630
 4863TIP3    H214596   5.310   1.931   3.767 -0.3443 -0.4022  0.0966
 4864TIP3   OH214597   2.317   5.008   4.952  0.2664 -0.1970 -0.0755
 4864TIP3    H114598   2.338   4.968   4.867  0.3757 -0.0046 -0.1390
 4864TIP3    H214599   2.327   5.102   4.938  0.1932 -0.1578  0.1258
 4865TIP3   OH214600   1.339   1.655   1.196 -0.0488 -0.7962 -0.2797
 4865TIP3    H114601   1.406   1.700   1.145  0.3154 -0.9042  0.0918
 4865TIP3    H214602   1.257   1.676   1.152  0.0951  0.3158 -0.0666
 4866TIP3   OH214603   4.031   3.714   4.489 -0.3711 -0.2127 -0.6137
 4866TIP3    H114604   4.052   3.742   4.400  2.5766  0.0526  0.0369
 4866TIP3    H214605   4.077   3.776   4.546  0.8719 -2.4326  0.9863
 4867TIP3   OH214606   0.702   2.938   4.967  0.2365 -0.0785  0.3161
 4867TIP3    H114607   0.782   2.984   4.943 -0.1447 -0.1127 -1.0658
 4867TIP3    H214608   0.722   2.899   5.053  0.4986  2.7630  1.6756
 4868TIP3   OH214609   2.324   2.971   0.133  0.2197  0.3913  0.0761
 4868TIP3    H114610   2.300   2.992   0.223  0.1434 -1.1925  0.4511
 4868TIP3    H214611   2.265   2.900   0.108 -0.6988  1.7219 -1.7262
 4869TIP3   OH214612   1.098   2.572   2.844  0.0157 -0.2938 -0.3996
 4869TIP3    H114613   1.117   2.480   2.824  0.1450 -0.0428 -1.4965
 4869TIP3    H214614   1.092   2.614   2.759  0.7475  0.8772  0.0953
 4870TIP3   OH214615   2.197   3.426   1.924  0.2449 -0.0111  0.0323
 4870TIP3    H114616   2.120   3.395   1.971  0.4898 -1.3904 -0.4440
 4870TIP3    H214617   2.271   3.382   1.967  0.6205  0.0452 -0.5466
 4871TIP3   OH214618   3.577   4.879   3.891  0.1180  0.1577 -0.4584
 4871TIP3    H114619   3.587   4.972   3.912  1.7526  0.1823 -1.1659
 4871TIP3    H214620   3.622   4.869   3.807  1.3391 -1.5333  0.3413
 4872TIP3   OH214621   4.433   1.818   0.394 -0.1442  0.6769 -0.0142
 4872TIP3    H114622   4.421   1.899   0.443  0.4824  1.1694 -0.6629
 4872TIP3    H214623   4.359   1.817   0.333 -0.6091  0.3440  0.5451
 4873TIP3   OH214624   3.789   0.956   2.086  0.6764 -0.0713  0.2326
 4873TIP3    H114625   3.716   1.015   2.106  0.7169 -0.3431  1.2426
 4873TIP3    H214626   3.772   0.926   1.997  0.5628  1.3277 -0.2358
 4874TIP3   OH214627   3.032   3.167   0.269  0.7024  0.5295 -0.1613
 4874TIP3    H114628   3.044   3.225   0.344  1.1588 -0.0403  0.2162
 4874TIP3    H214629   3.049   3.079   0.304  0.5004  0.2165 -0.8364
 4875TIP3   OH214630   1.507   1.936   4.516  0.6246 -0.2115 -0.5864
 4875TIP3    H114631   1.422   1.971   4.489  0.8895  0.5984 -0.3917
 4875TIP3    H214632   1.504   1.935   4.612  1.8507  2.5019 -0.4432
 4876TIP3   OH214633   4.450   0.527   4.994  0.1037  0.2409 -0.7328
 4876TIP3    H114634   4.439   0.598   5.058 -2.0631 -0.8827  0.2725
 4876TIP3    H214635   4.447   0.447   5.047 -1.8462 -0.7337 -2.1704
 4877TIP3   OH214636   4.703   4.973   5.061  0.1427 -0.0618  0.8278
 4877TIP3    H114637   4.752   5.004   5.138  1.5554 -0.4955  0.1381
 4877TIP3    H214638   4.635   5.039   5.048  2.0818  1.9428  0.3600
 4878TIP3   OH214639   3.517   1.920   4.529  0.9249  0.3532 -0.2122
 4878TIP3    H114640   3.497   1.881   4.615  2.3807 -1.7313 -0.7270
 4878TIP3    H214641   3.546   1.846   4.476  1.8818  1.8847 -1.9352
 4879TIP3   OH214642   0.498   0.302   0.970  0.3118  0.2256  0.0859
 4879TIP3    H114643   0.425   0.287   1.030  1.9714 -0.1002  2.0942
 4879TIP3    H214644   0.545   0.219   0.968  0.8401  0.5362 -0.9267
 4880TIP3   OH214645   2.632   3.079   2.411 -0.2902 -0.0250  0.4953
 4880TIP3    H114646   2.671   3.027   2.482  0.9526  0.4867  0.2100
 4880TIP3    H214647   2.538   3.062   2.418 -0.4993  1.5941  3.6017
 4881TIP3   OH214648   5.831   3.817   1.801  0.0539 -0.6451 -0.3106
 4881TIP3    H114649   5.848   3.779   1.887  0.5505 -1.4965 -0.7746
 4881TIP3    H214650   5.742   3.852   1.807  0.8578  1.3272  1.2432
 4882TIP3   OH214651   5.060   2.659   0.116  0.1844  0.2080  0.1120
 4882TIP3    H114652   5.002   2.622   0.049  1.1147 -0.9763 -0.0629
 4882TIP3    H214653   5.009   2.654   0.197  0.0494 -0.8529 -0.0349
 4883TIP3   OH214654   3.346   5.756   4.473 -0.0841 -0.3525  0.3760
 4883TIP3    H114655   3.324   5.824   4.537 -1.1111 -0.3606  0.0451
 4883TIP3    H214656   3.321   5.792   4.389 -0.4352 -1.0515  0.1707
 4884TIP3   OH214657   4.628   5.658   4.147 -0.2463  0.4786 -0.3465
 4884TIP3    H114658   4.671   5.702   4.221  0.8656 -0.3621 -0.4803
 4884TIP3    H214659   4.538   5.691   4.150 -0.3268  0.2001  1.5977
 4885TIP3   OH214660   2.870   3.054   2.078  0.7568  0.0135  0.1030
 4885TIP3    H114661   2.782   3.017   2.086  0.4363  0.8412  0.4909
 4885TIP3    H214662   2.928   2.984   2.106  0.2412 -0.6091 -0.3319
 4886TIP3   OH214663   2.253   3.100   0.380 -0.7666 -0.3276 -0.1111
 4886TIP3    H114664   2.170   3.137   0.350 -1.0229 -1.4515 -0.8602
 4886TIP3    H214665   2.229   3.036   0.447 -0.4317 -0.0630  0.2701
 4887TIP3   OH214666   5.293   0.058   3.418  0.0910  0.0775  0.8863
 4887TIP3    H114667   5.336   0.039   3.335  2.1912  1.1900  1.6541
 4887TIP3    H214668   5.228  -0.013   3.428  0.8596 -0.9461 -0.9331
 4888TIP3   OH214669   4.017   5.735   2.386 -0.2020  0.0146  0.0539
 4888TIP3    H114670   3.973   5.810   2.426  0.2684  0.0849  0.4465
 4888TIP3    H214671   3.967   5.717   2.307  1.0865  2.2356 -1.3453
 4889TIP3   OH214672   0.726   5.057   2.761  0.0327 -0.3243  0.0048
 4889TIP3    H114673   0.718   4.977   2.709 -0.6431  0.1433 -0.6354
 4889TIP3    H214674   0.798   5.040   2.820 -1.8113 -2.4680  1.8067
 4890TIP3   OH214675   1.976   4.584   1.812 -0.3453 -0.6423  0.2966
 4890TIP3    H114676   1.924   4.513   1.850 -0.6933  0.0716  1.1869
 4890TIP3    H214677   1.996   4.641   1.886  0.6877 -0.2720 -0.2549
 4891TIP3   OH214678   4.162   1.444   4.603 -0.3120 -0.1263 -0.0351
 4891TIP3    H114679   4.240   1.395   4.575  0.5675  0.8686  0.5906
 4891TIP3    H214680   4.091   1.407   4.552  0.5667 -1.0891 -0.6035
 4892TIP3   OH214681   4.428   3.562   1.986 -0.4021  0.4459  0.5938
 4892TIP3    H114682   4.352   3.602   2.029 -0.2369  0.0660  1.2503
 4892TIP3    H214683   4.504   3.604   2.026 -0.2413 -0.1325  0.9182
 4893TIP3   OH214684   3.668   1.064   4.409 -0.1005  0.2599 -0.0760
 4893TIP3    H114685   3.610   1.134   4.438 -0.2023  0.0077  0.3318
 4893TIP3    H214686   3.611   0.988   4.399 -0.5191  0.8470 -3.1382
 4894TIP3   OH214687   5.878   3.499   2.331 -0.0310 -0.1281  0.2269
 4894TIP3    H114688   5.929   3.425   2.363 -0.6155 -1.0734 -0.9176
 4894TIP3    H214689   5.796   3.495   2.379 -0.7644 -1.3251 -1.0639
 4895TIP3   OH214690   3.677   2.327   3.660  0.3756  0.2008 -0.1060
 4895TIP3    H114691   3.622   2.296   3.733 -0.1069  0.8850 -0.1656
 4895TIP3    H214692   3.674   2.256   3.596 -2.0139  0.9641 -0.9321
 4896TIP3   OH214693   0.747   3.644   2.426 -0.0669 -0.3989 -0.3706
 4896TIP3    H114694   0.766   3.674   2.337  1.0443  0.3831  0.1139
 4896TIP3    H214695   0.709   3.721   2.470 -2.6982 -1.3723 -0.7490
 4897TIP3   OH214696   4.088   3.224   1.403 -0.0608  0.1294  0.2853
 4897TIP3    H114697   4.043   3.303   1.430 -1.8115 -1.0101  0.8331
 4897TIP3    H214698   4.161   3.215   1.465  0.2054  1.3152  0.1639
 4898TIP3   OH214699   1.181   1.690   3.992  0.4869  0.3684  0.2660
 4898TIP3    H114700   1.144   1.774   4.018 -0.0880  0.1438  0.1951
 4898TIP3    H214701   1.269   1.711   3.961  0.2209  0.9912 -0.0856
 4899TIP3   OH214702   0.861   5.136   1.677  0.0956 -1.0003 -0.3567
 4899TIP3    H114703   0.934   5.139   1.738  0.1512 -1.7328 -0.3867
 4899TIP3    H214704   0.800   5.073   1.715 -1.4933  1.0411  0.7406
 4900TIP3   OH214705   1.800   0.199   4.554  0.5564 -0.1136 -0.2117
 4900TIP3    H114706   1.743   0.149   4.495  1.5947  0.7255 -1.9977
 4900TIP3    H214707   1.772   0.289   4.542  0.6367  0.0452  0.7769
 4901TIP3   OH214708   6.194   4.325   0.791  0.6733 -0.2061  0.5282
 4901TIP3    H114709   6.203   4.410   0.834 -1.2557  1.2873 -1.7630
 4901TIP3    H214710   6.261   4.325   0.723 -1.2677  0.9585 -1.5192
 4902TIP3   OH214711   2.328   0.905   5.035 -0.5692 -0.0195  0.7138
 4902TIP3    H114712   2.237   0.881   5.051 -0.6885 -0.3359 -0.4172
 4902TIP3    H214713   2.324   0.995   5.002 -0.4216  0.1482  1.1368
 4903TIP3   OH214714   5.987   4.976   2.692 -0.2840 -0.0971  0.1140
 4903TIP3    H114715   5.983   5.048   2.755  0.9113  0.6993 -0.6751
 4903TIP3    H214716   6.078   4.948   2.692 -0.1113  0.3456 -1.7008
 4904TIP3   OH214717   2.031   0.376   0.926  0.3359 -0.7393 -0.2580
 4904TIP3    H114718   2.112   0.348   0.969  1.5659 -0.0901 -2.0506
 4904TIP3    H214719   1.992   0.296   0.891  1.5507 -0.7873 -1.5719
 4905TIP3   OH214720   2.402   0.121   3.965 -1.0916 -0.0344 -0.3248
 4905TIP3    H114721   2.321   0.072   3.951 -0.9727  0.4644 -3.5841
 4905TIP3    H214722   2.450   0.113   3.882  1.1699  1.5452  0.7137
 4906TIP3   OH214723   3.389   4.439   2.429 -0.0314 -0.5852  0.5381
 4906TIP3    H114724   3.370   4.346   2.414 -3.2018  0.0200  0.1674
 4906TIP3    H214725   3.374   4.451   2.523 -0.4394 -0.3123  0.4414
 4907TIP3   OH214726   3.399   0.313   4.073  0.0186  0.0906  0.7236
 4907TIP3    H114727   3.452   0.240   4.106  0.1257 -0.4134 -0.5147
 4907TIP3    H214728   3.319   0.309   4.125 -0.2737 -1.3715  0.2191
 4908TIP3   OH214729   5.587   3.166   1.886  0.0632  0.5901  0.1227
 4908TIP3    H114730   5.669   3.150   1.931 -0.1066  1.0189  0.5927
 4908TIP3    H214731   5.606   3.236   1.824  0.4581 -0.4267 -0.9516
 4909TIP3   OH214732   5.678   0.979   4.860  0.0549  0.0470  0.9716
 4909TIP3    H114733   5.622   1.008   4.788 -0.8428 -2.5042  0.5289
 4909TIP3    H214734   5.641   1.021   4.938 -1.8447 -0.7000  0.5343
 4910TIP3   OH214735   1.610   2.934   3.353 -0.0047  0.1677 -0.2699
 4910TIP3    H114736   1.678   2.913   3.417 -0.6564  0.6818  0.6124
 4910TIP3    H214737   1.628   2.876   3.279  0.4514 -0.8305  0.5953
 4911TIP3   OH214738   1.204   1.185   4.395 -0.1219 -0.7455  0.9465
 4911TIP3    H114739   1.225   1.211   4.485 -3.1617 -0.9494  1.8312
 4911TIP3    H214740   1.278   1.131   4.368  1.5847  0.5530  2.7471
 4912TIP3   OH214741   2.198   4.184   0.266  0.1746  0.0090  0.1175
 4912TIP3    H114742   2.241   4.258   0.308 -0.0177 -0.1416  0.5878
 4912TIP3    H214743   2.241   4.107   0.304 -1.5818 -0.1901  1.8122
 4913TIP3   OH214744   3.947   2.223   0.167  0.3521  0.3300 -0.1758
 4913TIP3    H114745   4.030   2.183   0.194  0.9993  0.9694 -1.1552
 4913TIP3    H214746   3.968   2.270   0.086 -0.6988  1.4771  0.1809
 4914TIP3   OH214747   0.291   0.648   0.335 -0.2258  0.1689 -0.1522
 4914TIP3    H114748   0.335   0.580   0.283 -1.2797 -1.0757  0.5339
 4914TIP3    H214749   0.220   0.602   0.380 -1.5065  1.8965 -0.3163
 4915TIP3   OH214750   2.436   1.904   1.463 -0.1414  0.3708 -0.3130
 4915TIP3    H114751   2.501   1.838   1.440  0.4549  0.5787  0.6827
 4915TIP3    H214752   2.372   1.901   1.392  0.5151 -0.4217 -0.8938
 4916TIP3   OH214753   3.360   4.699   3.689  0.0685  0.1029 -0.3248
 4916TIP3    H114754   3.402   4.771   3.643  1.3952  0.4961  1.4059
 4916TIP3    H214755   3.432   4.650   3.728 -0.9422  1.7754  4.2155
 4917TIP3   OH214756   2.678   0.917   3.169  0.0259  0.2467 -0.2126
 4917TIP3    H114757   2.730   0.990   3.136 -1.3107  1.2787 -0.1382
 4917TIP3    H214758   2.730   0.881   3.241  0.4954  1.4648  0.0840
 4918TIP3   OH214759   1.889   2.057   2.185 -0.6970 -0.3941 -0.0192
 4918TIP3    H114760   1.960   2.104   2.141 -1.4418  0.7047 -0.0761
 4918TIP3    H214761   1.932   2.015   2.260 -0.1335  1.0340  0.4896
 4919TIP3   OH214762   5.220   2.687   3.857 -0.1179 -0.0590  0.0829
 4919TIP3    H114763   5.309   2.715   3.876 -0.3704  0.5963  0.3662
 4919TIP3    H214764   5.188   2.652   3.940 -0.8508  1.7745  0.6384
 4920TIP3   OH214765   3.376   2.276   3.059  0.3114  0.2100  0.0872
 4920TIP3    H114766   3.350   2.187   3.081  0.2348 -0.0239 -0.9049
 4920TIP3    H214767   3.311   2.304   2.994  0.4801  0.8966  0.2071
 4921TIP3   OH214768   0.405   0.221   3.007  0.3022 -0.0462 -0.0168
 4921TIP3    H114769   0.370   0.270   3.081  2.2385  0.3995  0.6495
 4921TIP3    H214770   0.343   0.149   2.994 -0.5717  0.4157  1.4074
 4922TIP3   OH214771   0.504   5.628   4.656 -0.2264  0.1486  0.4636
 4922TIP3    H114772   0.526   5.704   4.603 -1.8292  0.3146 -0.0283
 4922TIP3    H214773   0.574   5.566   4.640  0.0300  0.7256 -0.7840
 4923TIP3   OH214774   1.485   2.022   3.299  0.3485 -0.2927 -0.0469
 4923TIP3    H114775   1.555   2.043   3.237  0.7475  1.1454  0.8514
 4923TIP3    H214776   1.521   1.950   3.352  0.7310 -0.2680 -0.2680
 4924TIP3   OH214777   3.488   0.525   0.301  0.8497  0.4896 -0.1611
 4924TIP3    H114778   3.394   0.534   0.314  1.1358  0.6142  2.3515
 4924TIP3    H214779   3.508   0.437   0.333  1.5157  0.1977 -1.3254
 4925TIP3   OH214780   1.108   3.888   2.995 -0.2362 -0.4248  0.4461
 4925TIP3    H114781   1.203   3.899   2.989 -0.3574 -0.1862 -2.0785
 4925TIP3    H214782   1.073   3.946   2.928 -2.1826 -0.6392  1.2218
 4926TIP3   OH214783   5.595   3.604   4.042 -0.1930 -0.0579  0.5841
 4926TIP3    H114784   5.509   3.571   4.015  0.3297 -1.2987  0.3410
 4926TIP3    H214785   5.584   3.699   4.046 -1.2714 -0.1068 -0.5208
 4927TIP3   OH214786   4.297   5.272   2.925 -0.5528 -0.1619  0.1997
 4927TIP3    H114787   4.319   5.204   2.988 -0.1649  0.3767  0.6569
 4927TIP3    H214788   4.313   5.232   2.840 -0.9826 -0.8614  0.4397
 4928TIP3   OH214789   5.261   2.808   2.691  0.6616  0.1561 -0.1664
 4928TIP3    H114790   5.338   2.855   2.659  0.9179 -1.2565 -1.7709
 4928TIP3    H214791   5.221   2.867   2.755  1.3327  2.2495 -1.5834
 4929TIP3   OH214792   1.342   2.920   3.059  0.1883  0.0358 -0.2465
 4929TIP3    H114793   1.318   2.830   3.036 -1.5887  0.8722 -1.8305
 4929TIP3    H214794   1.260   2.962   3.082  1.0429  1.1992  0.8454
 4930TIP3   OH214795   2.089   4.645   2.981 -0.0562 -0.1774 -0.2026
 4930TIP3    H114796   2.101   4.658   3.075  0.0748 -1.5111 -0.0237
 4930TIP3    H214797   2.166   4.596   2.953 -1.7360 -3.0352 -0.2671
 4931TIP3   OH214798   1.618   0.751   3.282 -0.1642 -0.4631  0.3502
 4931TIP3    H114799   1.573   0.692   3.343  2.0345 -2.1276  0.4647
 4931TIP3    H214800   1.651   0.694   3.213 -0.0602  1.0075 -0.8580
 4932TIP3   OH214801   3.785   4.610   1.175  0.0655 -0.4060 -0.1003
 4932TIP3    H114802   3.782   4.569   1.261 -0.4209 -1.0598 -0.4228
 4932TIP3    H214803   3.728   4.687   1.183  1.0646  0.2931  0.5343
 4933TIP3   OH214804   0.523   2.204   3.071 -0.1501  0.1636 -0.6137
 4933TIP3    H114805   0.512   2.264   2.998 -0.7981  1.7521  0.7203
 4933TIP3    H214806   0.519   2.117   3.032 -0.0981  0.9569 -2.4912
 4934TIP3   OH214807   3.770   3.839   0.939  0.1092  0.4709  0.4289
 4934TIP3    H114808   3.769   3.796   1.025 -0.4242  0.6252  0.5063
 4934TIP3    H214809   3.836   3.791   0.889 -0.6184 -0.6041  0.4374
 4935TIP3   OH214810   6.066   0.914   5.151 -0.1961 -0.2843 -0.5175
 4935TIP3    H114811   6.021   0.957   5.077 -0.1465  0.5973 -0.0520
 4935TIP3    H214812   5.996   0.888   5.210 -0.1592  0.3225 -0.1958
 4936TIP3   OH214813   4.297   1.933   0.738  0.1143 -0.0363 -0.3682
 4936TIP3    H114814   4.210   1.897   0.757 -0.0309  0.5491  0.1077
 4936TIP3    H214815   4.312   1.996   0.808  0.7962  0.0875 -0.6253
 4937TIP3   OH214816   4.577   0.836   1.684 -0.1620 -0.2705  0.1348
 4937TIP3    H114817   4.515   0.866   1.750 -0.9832 -1.4473 -0.0671
 4937TIP3    H214818   4.643   0.905   1.679 -0.8078  0.4445  1.2210
 4938TIP3   OH214819   5.107   0.511   0.404  0.4842 -0.0021  0.0742
 4938TIP3    H114820   5.175   0.452   0.371  1.3886  1.7653 -1.4305
 4938TIP3    H214821   5.128   0.595   0.364 -1.8095  0.9249  0.6986
 4939TIP3   OH214822   1.712   5.455   3.804 -0.6870  0.4057 -0.2432
 4939TIP3    H114823   1.644   5.423   3.863 -0.6483 -0.7575 -0.7932
 4939TIP3    H214824   1.678   5.437   3.716 -0.0137  0.5315 -0.5354
 4940TIP3   OH214825   5.256   4.792   1.079  0.0256 -0.1795  0.1439
 4940TIP3    H114826   5.280   4.876   1.040  0.3690  0.0709  0.8749
 4940TIP3    H214827   5.290   4.727   1.018  1.6684  0.1818  0.6371
 4941TIP3   OH214828   1.056   5.143   1.115  0.2097  0.0756  0.5016
 4941TIP3    H114829   1.124   5.205   1.089 -1.5312  1.0861 -1.9810
 4941TIP3    H214830   1.013   5.185   1.189  0.3601  0.8444  0.1592
 4942TIP3   OH214831   4.923   2.204   1.166 -0.0664  0.3874  0.2576
 4942TIP3    H114832   4.973   2.280   1.135 -0.2856  0.2506 -0.4361
 4942TIP3    H214833   4.950   2.194   1.257  0.2229  1.0910  0.2567
 4943TIP3   OH214834   2.399   0.269   2.121 -0.6152  0.5138 -0.5906
 4943TIP3    H114835   2.424   0.299   2.033  0.6180 -1.6230 -1.0385
 4943TIP3    H214836   2.474   0.291   2.176  0.7407 -2.3581 -1.1193
 4944TIP3   OH214837   0.528   1.882   0.372 -0.4156  0.8563 -0.1957
 4944TIP3    H114838   0.568   1.932   0.443 -0.9677  0.2792  0.5389
 4944TIP3    H214839   0.501   1.948   0.309 -0.3171  1.4151  0.3393
 4945TIP3   OH214840   2.670   2.011   1.130  0.4040  1.2082 -0.0137
 4945TIP3    H114841   2.628   2.044   1.209  1.9322  0.7725  1.0268
 4945TIP3    H214842   2.744   2.070   1.116  1.4187 -0.0040  0.1506
 4946TIP3   OH214843   4.574   2.080   3.253 -0.5002  0.0517  0.7946
 4946TIP3    H114844   4.524   2.084   3.335 -1.0329  2.3702  0.4249
 4946TIP3    H214845   4.554   2.162   3.209  0.0409 -0.9869 -1.5375
 4947TIP3   OH214846   3.583   1.292   3.483  0.4777  0.0878 -0.2592
 4947TIP3    H114847   3.557   1.252   3.565  0.1299 -0.3570 -0.5819
 4947TIP3    H214848   3.581   1.221   3.420 -1.3831  0.8322 -1.1254
 4948TIP3   OH214849   6.239   4.309   3.940 -0.3461 -0.5369  0.3821
 4948TIP3    H114850   6.162   4.279   3.989 -1.4258 -2.2506 -2.1534
 4948TIP3    H214851   6.202   4.349   3.861  1.3586 -2.0729 -1.2600
 4949TIP3   OH214852   3.874   1.356   2.649  0.4393  0.4170 -0.1445
 4949TIP3    H114853   3.885   1.261   2.645 -1.1897  0.2396 -1.0614
 4949TIP3    H214854   3.853   1.382   2.560 -0.5809  1.4396  0.3710
 4950TIP3   OH214855   3.968   3.659   0.800  0.0975 -0.1144  0.3604
 4950TIP3    H114856   4.048   3.609   0.786  0.6689  0.7601  0.4163
 4950TIP3    H214857   3.901   3.613   0.749  0.0949 -2.1536  2.0675
 4951TIP3   OH214858   3.148   1.329   3.395  0.3510  0.6126  0.1161
 4951TIP3    H114859   3.182   1.259   3.339  1.3251  1.8824 -0.9340
 4951TIP3    H214860   3.076   1.366   3.345 -0.9984 -0.4122  1.2249
 4952TIP3   OH214861   0.795   0.036   3.646 -0.0226  0.0685  0.4595
 4952TIP3    H114862   0.725   0.101   3.636 -0.2348 -0.3869 -1.4053
 4952TIP3    H214863   0.755  -0.033   3.698 -0.3060  0.7195  1.1201
 4953TIP3   OH214864   3.730   1.014   4.685  0.0096 -0.5631 -0.1435
 4953TIP3    H114865   3.696   1.064   4.610  0.1897 -0.1988  0.0137
 4953TIP3    H214866   3.655   1.004   4.743  0.2225  0.4554  0.3180
 4954TIP3   OH214867   4.152   5.395   4.342 -0.2023  0.6262 -0.5934
 4954TIP3    H114868   4.069   5.348   4.355 -0.3657  1.0548 -0.0332
 4954TIP3    H214869   4.219   5.327   4.340 -0.2231  0.4293  1.9172
 4955TIP3   OH214870   5.670   5.372   4.030  0.1986 -0.3951 -0.0122
 4955TIP3    H114871   5.615   5.426   4.087 -0.3201  0.1987 -1.0470
 4955TIP3    H214872   5.625   5.287   4.026  1.1844 -1.0678  1.8796
 4956TIP3   OH214873   5.498   2.305   4.773  0.6163 -0.1649  0.7973
 4956TIP3    H114874   5.462   2.217   4.779 -0.1458  0.1510  1.0475
 4956TIP3    H214875   5.583   2.300   4.816  1.3431 -1.1654 -0.6647
 4957TIP3   OH214876   2.321   5.796   3.914 -0.1248 -0.5350 -0.0505
 4957TIP3    H114877   2.319   5.891   3.908  0.4880 -0.6024 -2.5484
 4957TIP3    H214878   2.301   5.777   4.005 -0.3361  1.9704  0.4942
 4958TIP3   OH214879   0.582   0.813   2.004 -0.1254 -0.2326  0.0942
 4958TIP3    H114880   0.488   0.830   1.996  0.0532  1.2166  0.7827
 4958TIP3    H214881   0.590   0.718   1.989 -1.5948 -0.2792 -0.6879
 4959TIP3   OH214882   0.914   2.085   5.007  0.6265 -0.2905  0.2870
 4959TIP3    H114883   0.893   2.004   4.960  0.2894  1.1192 -2.1658
 4959TIP3    H214884   1.010   2.089   5.005  0.6632 -0.8034  0.7704
 4960TIP3   OH214885   2.409   0.015   0.086 -0.0715 -0.2744 -0.3238
 4960TIP3    H114886   2.433  -0.061   0.033  1.2129  0.4173 -0.7939
 4960TIP3    H214887   2.419   0.089   0.027 -0.9615  0.3092  0.2278
 4961TIP3   OH214888   4.283   0.495   1.638 -0.0457  0.1688  0.2791
 4961TIP3    H114889   4.313   0.429   1.701 -0.4214 -0.2821 -0.0067
 4961TIP3    H214890   4.265   0.445   1.558  0.1228  0.6913 -0.0882
 4962TIP3   OH214891   4.667   2.675   0.526 -0.0247  0.7459  0.2934
 4962TIP3    H114892   4.761   2.669   0.509  0.0788 -0.5893  1.2047
 4962TIP3    H214893   4.630   2.705   0.443  1.1404  0.6785 -0.2692
 4963TIP3   OH214894   2.113   4.799   1.012  0.0758 -0.1936 -0.6490
 4963TIP3    H114895   2.197   4.842   1.030 -0.1133 -0.5862  1.4060
 4963TIP3    H214896   2.048   4.869   1.019 -0.0010 -0.3516  0.3663
 4964TIP3   OH214897   3.940   5.608   1.010  0.4570 -0.6771 -0.2056
 4964TIP3    H114898   3.916   5.566   0.927  2.1339 -2.6979  0.2561
 4964TIP3    H214899   3.859   5.652   1.038 -1.1036 -2.5947 -1.3674
 4965TIP3   OH214900   3.734   1.392   5.000  0.1204  0.3279  0.3018
 4965TIP3    H114901   3.775   1.338   5.067 -1.0267 -1.8398 -0.6156
 4965TIP3    H214902   3.727   1.479   5.039 -3.3976 -1.4285  4.3570
 4966TIP3   OH214903   0.040   4.400   1.565 -0.3860  0.6931  0.0188
 4966TIP3    H114904   0.016   4.308   1.575 -0.2412  0.7809  1.4150
 4966TIP3    H214905   0.104   4.400   1.494  0.4004 -0.4373  0.6875
 4967TIP3   OH214906   3.718   5.770   1.048  0.1778  0.5562 -0.3376
 4967TIP3    H114907   3.681   5.730   0.969 -1.0294  1.7617 -0.4063
 4967TIP3    H214908   3.737   5.860   1.022 -0.7866  1.1361  0.9103
 4968TIP3   OH214909   1.665   5.421   1.341  0.4605 -0.0485  0.3145
 4968TIP3    H114910   1.736   5.409   1.405  0.9022  2.4494  0.4172
 4968TIP3    H214911   1.591   5.452   1.394  0.0272 -0.3804 -0.0923
 4969TIP3   OH214912   5.832   3.241   0.368  0.0508 -0.5165  0.4025
 4969TIP3    H114913   5.742   3.260   0.343  0.3892 -0.2708 -0.7209
 4969TIP3    H214914   5.871   3.327   0.384  0.4653 -0.4932 -0.5955
 4970TIP3   OH214915   3.369   4.982   1.880  0.1598  0.0987  0.1815
 4970TIP3    H114916   3.304   4.961   1.947  1.4828 -1.9137  0.9282
 4970TIP3    H214917   3.441   5.023   1.928  0.1169  0.8780 -0.4015
 4971TIP3   OH214918   2.200   4.218   2.970  0.0309  0.0595 -0.3811
 4971TIP3    H114919   2.224   4.136   3.014 -0.1343  0.4691  0.4961
 4971TIP3    H214920   2.112   4.237   3.002 -0.4607 -0.0900 -1.5933
 4972TIP3   OH214921   3.064   1.708   4.431 -0.0269  0.0689 -0.4746
 4972TIP3    H114922   3.028   1.654   4.360  0.4495 -1.0655  0.1274
 4972TIP3    H214923   3.032   1.667   4.511  0.8074  0.3471  0.0099
 4973TIP3   OH214924   3.928   5.206   1.487  0.3534 -0.1064  0.0797
 4973TIP3    H114925   3.955   5.165   1.569  1.6286 -1.7248 -1.1090
 4973TIP3    H214926   3.997   5.269   1.467  0.1543  0.1266  0.1124
 4974TIP3   OH214927   5.588   0.482   1.434 -0.0428  0.0041 -0.4124
 4974TIP3    H114928   5.645   0.406   1.448  0.7045  0.5244 -0.5766
 4974TIP3    H214929   5.636   0.556   1.472 -0.6343  0.4398 -0.5018
 4975TIP3   OH214930   5.127   5.912   2.321 -0.2512 -0.2215  0.1094
 4975TIP3    H114931   5.108   5.841   2.259  2.8210  0.6107 -2.0055
 4975TIP3    H214932   5.220   5.902   2.340 -0.2137  2.0494  1.3814
 4976TIP3   OH214933   1.250   0.055   2.337 -0.3344  0.2379 -0.0729
 4976TIP3    H114934   1.207   0.134   2.371 -0.9114  0.2738 -0.8619
 4976TIP3    H214935   1.332   0.049   2.386 -1.2615  0.1351  1.5344
 4977TIP3   OH214936   2.133   1.009   0.981 -0.0183 -0.4152  0.9196
 4977TIP3    H114937   2.159   1.074   1.047 -0.5001  0.0429  0.6646
 4977TIP3    H214938   2.047   0.979   1.009  0.2975 -1.1328  1.1637
 4978TIP3   OH214939   4.909   3.719   3.940  0.5621 -0.5542  0.0165
 4978TIP3    H114940   4.884   3.660   4.012  1.0879 -2.8529 -1.5593
 4978TIP3    H214941   4.830   3.727   3.887  0.6974 -0.4518 -0.1702
 4979TIP3   OH214942   0.315   5.674   1.144 -0.4457  0.3484 -0.3644
 4979TIP3    H114943   0.284   5.612   1.210 -0.8338 -0.3912 -1.2183
 4979TIP3    H214944   0.366   5.738   1.194 -0.6183 -0.2590  0.6319
 4980TIP3   OH214945   1.288   1.119   2.779  0.6940  0.1369 -0.1379
 4980TIP3    H114946   1.301   1.160   2.693  0.1976  0.9194  0.1458
 4980TIP3    H214947   1.269   1.027   2.759  0.1836  0.3915 -0.8953
 4981TIP3   OH214948   2.248   4.929   5.196  0.2784 -0.8206 -0.0936
 4981TIP3    H114949   2.286   4.842   5.191 -1.7727 -1.8192  0.4618
 4981TIP3    H214950   2.225   4.951   5.106 -0.3571 -1.4366 -0.0915
 4982TIP3   OH214951   1.960   3.100   4.349  0.2057  0.1407  0.1174
 4982TIP3    H114952   1.993   3.091   4.260 -0.2013  0.2855 -0.0503
 4982TIP3    H214953   1.893   3.032   4.358  0.0023  0.3470  0.1949
 4983TIP3   OH214954   1.055   5.692   2.623 -0.2560  0.4945 -0.3442
 4983TIP3    H114955   1.121   5.627   2.598 -0.4805  0.5409 -1.0892
 4983TIP3    H214956   1.096   5.744   2.692  0.9825  1.3248 -1.6519
 4984TIP3   OH214957   3.386   3.852   1.411  0.0188  0.1848 -0.1103
 4984TIP3    H114958   3.379   3.938   1.368  1.3720  0.5445  0.3254
 4984TIP3    H214959   3.303   3.809   1.392 -0.1356  1.0394 -1.5558
 4985TIP3   OH214960   5.961   0.918   1.067 -0.3162 -0.1813  0.0559
 4985TIP3    H114961   5.925   0.963   0.991 -0.0162 -0.4820 -0.2737
 4985TIP3    H214962   6.018   0.982   1.108  1.5509 -0.7675 -1.4440
 4986TIP3   OH214963   0.805   3.813   0.168  0.2684 -0.3780 -0.0861
 4986TIP3    H114964   0.760   3.829   0.251 -1.2231 -1.0804 -0.7285
 4986TIP3    H214965   0.761   3.871   0.106  2.0700  0.9391 -0.2313
 4987TIP3   OH214966   6.109   2.206   4.423  0.0197  0.0904  0.6090
 4987TIP3    H114967   6.108   2.207   4.328 -1.3743 -0.9369  0.5686
 4987TIP3    H214968   6.186   2.154   4.446  0.3650  0.3518  0.0475
 4988TIP3   OH214969   4.617   5.373   4.098  0.4298 -0.1699  0.3209
 4988TIP3    H114970   4.601   5.467   4.106 -1.4596 -0.3159 -1.3110
 4988TIP3    H214971   4.639   5.346   4.188 -0.9468  1.4667  1.2178
 4989TIP3   OH214972   4.390   1.116   4.842  0.2989 -0.0258 -0.2671
 4989TIP3    H114973   4.407   1.148   4.753 -2.1837  1.1912 -0.3685
 4989TIP3    H214974   4.371   1.023   4.830  2.6068 -0.5256 -0.6058
 4990TIP3   OH214975   2.022   3.230   1.746  0.7735  0.6876  0.0808
 4990TIP3    H114976   2.001   3.308   1.797  0.1980  0.2400  0.5428
 4990TIP3    H214977   1.950   3.170   1.763  1.9050 -0.4980  0.8654
 4991TIP3   OH214978   1.295   4.131   3.837 -0.2250  0.1547  0.5423
 4991TIP3    H114979   1.353   4.059   3.810 -1.1089 -0.0872 -0.7836
 4991TIP3    H214980   1.320   4.204   3.780  1.9237  1.5830  3.0652
 4992TIP3   OH214981   5.888   5.740   0.797 -0.2062 -0.1294 -0.3645
 4992TIP3    H114982   5.922   5.761   0.710  1.3178 -0.7529  0.0299
 4992TIP3    H214983   5.951   5.676   0.832 -1.1234 -0.3549  0.9491
 4993TIP3   OH214984   0.684   5.748   3.327  0.0735  0.0658  0.0064
 4993TIP3    H114985   0.596   5.735   3.292  0.0515  0.4691 -0.0850
 4993TIP3    H214986   0.726   5.662   3.318  0.8413  0.6314 -3.1483
 4994TIP3   OH214987   4.058   3.845   4.227  0.2782  0.0204 -0.0667
 4994TIP3    H114988   4.000   3.921   4.227 -0.4424 -0.5088 -1.3485
 4994TIP3    H214989   4.138   3.877   4.268 -0.4813  1.0942  0.6510
 4995TIP3   OH214990   0.053   5.515   3.075 -0.5275  0.5562 -0.1910
 4995TIP3    H114991  -0.033   5.474   3.076  0.1253 -1.0082 -2.0995
 4995TIP3    H214992   0.096   5.479   2.998  2.3268  0.2825  1.3749
 4996TIP3   OH214993   4.311   0.166   4.168  0.3090  0.2893 -0.0854
 4996TIP3    H114994   4.266   0.127   4.242  0.5326  1.1955  0.5391
 4996TIP3    H214995   4.253   0.150   4.093  1.1590 -2.7311 -0.2265
 4997TIP3   OH214996   6.161   0.431   4.176 -0.4305  0.0380  0.0009
 4997TIP3    H114997   6.067   0.424   4.161 -0.2402 -1.4395 -0.6777
 4997TIP3    H214998   6.196   0.466   4.094  0.0528 -3.5449 -1.5211
 4998TIP3   OH214999   3.913   2.535   0.790 -0.1024  0.5746 -0.1010
 4998TIP3    H115000   3.952   2.590   0.858 -0.9751  1.4832 -0.3227
 4998TIP3    H215001   3.821   2.560   0.789 -0.0247  0.8652 -1.8920
 4999TIP3   OH215002   4.433   4.016   0.834  0.2494  0.2684  0.0587
 4999TIP3    H115003   4.347   3.975   0.830 -0.2566  1.2926  0.1140
 4999TIP3    H215004   4.457   4.033   0.743 -0.2589  1.2659  0.0934
 5000TIP3   OH215005   6.157   4.181   0.194 -0.3597 -0.2629  0.0215
 5000TIP3    H115006   6.132   4.137   0.275 -0.5064 -0.0342  0.1021
 5000TIP3    H215007   6.119   4.128   0.124 -1.3237  0.2274  0.1517
 5001TIP3   OH215008   0.899   0.444   3.174 -0.6735  0.7273  0.7517
 5001TIP3    H115009   0.987   0.473   3.152 -0.3616  0.8297  2.0781
 5001TIP3    H215010   0.911   0.385   3.248 -1.4096 -1.7768 -0.9817
 5002TIP3   OH215011   6.022   3.347   2.676 -0.2492 -0.0484 -0.0390
 5002TIP3    H115012   5.978   3.279   2.726  0.6504 -0.1362  0.6587
 5002TIP3    H215013   6.116   3.330   2.687 -0.0057 -0.0979 -1.8045
 5003TIP3   OH215014   5.515   1.007   0.961 -0.2270 -0.0067  0.1777
 5003TIP3    H115015   5.436   0.995   1.014  1.0110  0.5094  2.2995
 5003TIP3    H215016   5.568   0.929   0.980 -0.0105 -0.1163 -0.8391
 5004TIP3   OH215017   3.113   3.888   4.771 -0.6442 -0.1103  0.0634
 5004TIP3    H115018   3.109   3.799   4.735 -1.4451 -0.7834  1.7222
 5004TIP3    H215019   3.037   3.894   4.829  0.6450  0.8725  1.7234
 5005TIP3   OH215020   1.432   1.782   0.701  0.0974  0.1217 -0.0379
 5005TIP3    H115021   1.397   1.774   0.613 -0.5227 -1.4397  0.3061
 5005TIP3    H215022   1.526   1.771   0.691  0.0491  0.1567 -0.5230
 5006TIP3   OH215023   3.352   4.911   5.094  0.0446 -0.4326  0.4708
 5006TIP3    H115024   3.337   4.919   5.188  0.2026 -0.0797  0.4710
 5006TIP3    H215025   3.306   4.986   5.056  1.0758  0.1844  0.3966
 5007TIP3   OH215026   2.772   2.425   0.321  0.0804  0.1842  0.5782
 5007TIP3    H115027   2.782   2.360   0.251 -1.3671 -0.4155  0.8826
 5007TIP3    H215028   2.685   2.407   0.358 -0.4050  2.3321  0.6292
 5008TIP3   OH215029   2.099   5.865   0.113 -0.4590 -0.5003 -0.2645
 5008TIP3    H115030   2.181   5.881   0.160  0.0022  0.1304 -1.2355
 5008TIP3    H215031   2.045   5.941   0.132 -0.0814 -0.0013 -1.1147
 5009TIP3   OH215032   0.791   5.144   5.060 -0.4439 -0.2285 -0.2671
 5009TIP3    H115033   0.822   5.222   5.015  3.2060 -0.7877  0.8810
 5009TIP3    H215034   0.829   5.071   5.011 -0.7340 -1.0851  0.7434
 5010TIP3   OH215035   1.088   5.578   1.274 -0.3335  0.3928  0.4283
 5010TIP3    H115036   0.999   5.606   1.297 -0.2211  1.2471 -0.1138
 5010TIP3    H215037   1.112   5.635   1.201 -0.0601 -1.1318 -0.7026
 5011TIP3   OH215038   2.851   3.809   4.622 -0.4167  0.0050  0.1058
 5011TIP3    H115039   2.828   3.854   4.703  0.6122  0.6117  0.0822
 5011TIP3    H215040   2.890   3.877   4.567 -1.2804 -0.3513 -0.9852
 5012TIP3   OH215041   1.197   4.002   4.351  0.1204 -0.0978 -0.0466
 5012TIP3    H115042   1.121   4.054   4.325  0.3085  0.7103  0.9647
 5012TIP3    H215043   1.161   3.915   4.370 -0.0928 -0.6243 -2.4707
 5013TIP3   OH215044   0.649   3.230   1.754  0.4706 -0.0593  0.5724
 5013TIP3    H115045   0.634   3.239   1.660 -0.6205 -0.2978  0.7080
 5013TIP3    H215046   0.715   3.296   1.774  2.9891 -1.9631 -0.8427
 5014TIP3   OH215047   2.201   5.096   2.060 -0.4757  0.4951 -0.2051
 5014TIP3    H115048   2.212   5.190   2.053  0.1982  0.5347  1.0187
 5014TIP3    H215049   2.184   5.066   1.971  0.8755  1.5786 -0.8561
 5015TIP3   OH215050   6.138   4.975   3.443 -0.0982  0.2252 -0.3022
 5015TIP3    H115051   6.128   5.045   3.508 -0.3562 -0.3053  0.2460
 5015TIP3    H215052   6.059   4.922   3.454 -0.2980  0.3082 -1.2789
 5016TIP3   OH215053   5.868   4.812   5.069  0.2489 -0.5465 -0.2160
 5016TIP3    H115054   5.873   4.724   5.106 -0.0792 -0.9507 -1.1069
 5016TIP3    H215055   5.806   4.804   4.997 -0.4119  0.5957  0.1903
 5017TIP3   OH215056   0.689   5.318   1.507  0.5405 -0.3026  0.2020
 5017TIP3    H115057   0.746   5.245   1.532  3.2053  1.7450  0.5162
 5017TIP3    H215058   0.668   5.361   1.590  1.3654  0.9004 -0.1916
 5018TIP3   OH215059   2.677   0.278   3.150 -0.3838 -0.4085  0.0873
 5018TIP3    H115060   2.590   0.289   3.110 -0.1674  1.7399  0.1071
 5018TIP3    H215061   2.674   0.190   3.188 -1.7832 -1.2306 -1.7388
 5019TIP3   OH215062   2.605   0.889   4.121  0.0249 -0.2906  0.3368
 5019TIP3    H115063   2.566   0.811   4.161 -0.7341 -0.0089  0.1727
 5019TIP3    H215064   2.560   0.896   4.037  0.5840 -0.0643  0.0576
 5020TIP3   OH215065   5.349   0.110   4.843 -0.2080 -0.3959  0.3931
 5020TIP3    H115066   5.395   0.191   4.863  0.1261 -0.7822  1.2164
 5020TIP3    H215067   5.258   0.127   4.868 -0.2092 -0.1570  0.2255
 5021TIP3   OH215068   0.070   4.025   4.186  0.0115  0.5200 -0.1260
 5021TIP3    H115069  -0.006   3.966   4.184 -0.4072  0.9923  0.9191
 5021TIP3    H215070   0.047   4.095   4.125 -0.2592  0.5030 -0.0453
 5022TIP3   OH215071   4.954   4.036   1.731 -0.0153  0.1732  0.4210
 5022TIP3    H115072   4.978   4.080   1.812  0.5829  1.9431 -0.6683
 5022TIP3    H215073   5.035   4.031   1.681 -0.7576  1.0562 -0.9415
 5023TIP3   OH215074   6.355   5.433   0.687 -0.1864 -0.2464 -0.7018
 5023TIP3    H115075   6.352   5.349   0.732 -1.0860 -0.3629 -0.9577
 5023TIP3    H215076   6.373   5.496   0.757  0.4263 -0.6367 -0.5001
 5024TIP3   OH215077   2.103   5.332   5.186 -0.3303 -0.0686  0.0938
 5024TIP3    H115078   2.019   5.350   5.143 -1.0096  1.1534  1.8099
 5024TIP3    H215079   2.141   5.418   5.201  0.6973 -0.5565  0.3762
 5025TIP3   OH215080   4.454   0.913   1.238 -0.7257  0.3153 -0.5130
 5025TIP3    H115081   4.429   0.903   1.146 -1.0888 -1.1373 -0.2927
 5025TIP3    H215082   4.421   0.833   1.280  1.5837 -0.2559  0.3931
 5026TIP3   OH215083   1.072   3.004   3.654  0.1182  1.0052  0.0439
 5026TIP3    H115084   1.036   3.061   3.586 -0.3416  1.2741  0.5085
 5026TIP3    H215085   1.091   3.062   3.727  0.3913  0.6835  0.2315
 5027TIP3   OH215086   1.126   0.672   4.300  0.0526 -0.1118  0.4742
 5027TIP3    H115087   1.148   0.646   4.210 -0.3319 -0.8522  0.5805
 5027TIP3    H215088   1.055   0.735   4.290 -1.1470 -1.4347  0.2911
 5028TIP3   OH215089   1.907   3.617   0.307 -0.0883  0.1147  0.4545
 5028TIP3    H115090   1.832   3.600   0.249  0.0303 -0.9136  0.5851
 5028TIP3    H215091   1.934   3.706   0.286 -0.0521 -0.2330 -1.0926
 5029TIP3   OH215092   1.432   3.505   5.164  0.9763  0.3060 -0.2675
 5029TIP3    H115093   1.486   3.460   5.098 -1.6663 -1.1674 -1.5896
 5029TIP3    H215094   1.352   3.529   5.117 -0.4939  0.3564  2.0953
 5030TIP3   OH215095   3.822   4.846   0.919  0.7778 -0.0303 -0.0686
 5030TIP3    H115096   3.864   4.763   0.941  0.0513 -0.4303 -0.1564
 5030TIP3    H215097   3.732   4.822   0.896  0.9905  0.5857 -1.6494
 5031TIP3   OH215098   6.029   5.626   2.551 -0.3546 -0.1336  0.0856
 5031TIP3    H115099   5.987   5.581   2.625  0.5315 -1.5478 -0.2271
 5031TIP3    H215100   6.052   5.712   2.585 -1.0628 -0.3202  1.0880
 5032TIP3   OH215101   2.810   3.640   0.492  0.0855  0.2210  0.1139
 5032TIP3    H115102   2.768   3.711   0.444  0.3636  0.0978 -0.3156
 5032TIP3    H215103   2.741   3.575   0.504  0.1968 -0.0785 -0.7816
 5033TIP3   OH215104   2.924   3.337   0.887 -0.2327  0.1787  0.5045
 5033TIP3    H115105   2.880   3.422   0.894 -1.2523 -0.1331 -1.4602
 5033TIP3    H215106   2.874   3.280   0.945 -1.6191  0.1785 -0.6254
 5034TIP3   OH215107   2.054   0.822   3.900  0.4634  0.0088  0.2425
 5034TIP3    H115108   2.091   0.863   3.822 -3.8477  1.9395 -1.0661
 5034TIP3    H215109   2.058   0.889   3.967 -0.3275  0.1303  0.1751
 5035TIP3   OH215110   1.323   2.646   3.003 -0.6867  0.0760 -0.0583
 5035TIP3    H115111   1.275   2.623   2.923  1.6641 -1.5160 -1.1412
 5035TIP3    H215112   1.325   2.564   3.053  1.8141 -0.2804 -0.6233
 5036TIP3   OH215113   5.759   4.305   0.146  0.2345  0.1607  0.0209
 5036TIP3    H115114   5.818   4.380   0.153  2.1273 -1.3243  0.9658
 5036TIP3    H215115   5.788   4.258   0.068 -0.1517 -0.2009  0.0884
 5037TIP3   OH215116   5.008   4.326   4.926 -0.6511  0.0054 -0.3737
 5037TIP3    H115117   4.914   4.315   4.941 -1.0314  1.7652 -1.1661
 5037TIP3    H215118   5.018   4.321   4.831 -0.3724  2.2207 -0.5215
 5038TIP3   OH215119   5.745   2.111   3.970 -0.1632  0.1367 -0.5610
 5038TIP3    H115120   5.680   2.126   3.901 -2.3770 -1.9216  0.9367
 5038TIP3    H215121   5.716   2.166   4.043 -0.8909 -1.5106  0.4553
 5039TIP3   OH215122   2.077   5.135   3.128 -0.1962 -0.0296  0.4550
 5039TIP3    H115123   2.027   5.199   3.079  0.5271  1.1459  1.2020
 5039TIP3    H215124   2.118   5.080   3.062 -1.0502  0.0971 -0.1913
 5040TIP3   OH215125   5.617   0.672   3.806 -0.0027  0.6356 -0.0108
 5040TIP3    H115126   5.669   0.604   3.849  0.4725  0.4961 -0.7818
 5040TIP3    H215127   5.681   0.724   3.757 -0.2828  1.9571  0.9489
 5041TIP3   OH215128   0.503   3.207   0.408  0.3640 -0.4201  0.0809
 5041TIP3    H115129   0.429   3.192   0.468  0.6239 -3.1174 -0.1752
 5041TIP3    H215130   0.486   3.293   0.371 -1.3851  0.0496  1.8045
 5042TIP3   OH215131   5.698   4.579   4.497 -0.2167 -0.0265 -0.5464
 5042TIP3    H115132   5.788   4.554   4.474 -0.3488  0.0518 -1.1719
 5042TIP3    H215133   5.659   4.607   4.414 -1.4341 -1.9075 -0.6678
 5043TIP3   OH215134   5.162   5.892   0.993 -0.3183  0.0442 -0.0376
 5043TIP3    H115135   5.121   5.873   1.078  1.5702 -2.2045  0.4571
 5043TIP3    H215136   5.177   5.807   0.953  3.0112  0.7238 -0.5447
 5044TIP3   OH215137   0.072   1.008   4.879 -0.4809  0.4873  0.2769
 5044TIP3    H115138   0.162   1.025   4.908 -0.2715  2.0053 -1.1091
 5044TIP3    H215139   0.082   0.966   4.794 -1.0096  3.0193 -1.1212
 5045TIP3   OH215140   5.476   0.668   4.044 -0.0654 -0.2849 -1.0222
 5045TIP3    H115141   5.388   0.646   4.013  0.6795 -2.7388 -1.5973
 5045TIP3    H215142   5.523   0.698   3.966  0.2813 -1.3073 -1.2153
 5046TIP3   OH215143   1.311   2.361   3.061  0.3658  0.6855 -0.6482
 5046TIP3    H115144   1.341   2.296   2.997  1.4236  1.1997 -0.7082
 5046TIP3    H215145   1.231   2.324   3.098  0.6418 -0.3875 -1.0815
 5047TIP3   OH215146   2.240   4.981   0.426  0.2069 -0.2763  0.1713
 5047TIP3    H115147   2.260   4.890   0.447  0.9479  0.1986  1.6514
 5047TIP3    H215148   2.233   4.983   0.330 -0.4047 -1.9844  0.1535
 5048TIP3   OH215149   4.041   5.903   3.634 -0.1659  0.2237  0.5073
 5048TIP3    H115150   4.106   5.852   3.586 -1.2510 -0.8677  0.1399
 5048TIP3    H215151   4.084   5.987   3.650 -0.0092  1.0415 -3.1656
 5049TIP3   OH215152   2.654   1.903   3.163 -0.1242 -0.3092 -0.3424
 5049TIP3    H115153   2.576   1.958   3.154 -0.0523  0.0440  1.0011
 5049TIP3    H215154   2.625   1.830   3.219  0.8135  0.5163  1.2930
 5050TIP3   OH215155   4.291   2.417   3.826 -0.1161  0.0646 -0.1020
 5050TIP3    H115156   4.289   2.512   3.823 -0.4891  0.0757  0.3959
 5050TIP3    H215157   4.247   2.394   3.908 -0.7450 -0.5646 -0.5963
 5051TIP3   OH215158   3.234   3.940   3.041 -0.2037 -0.5564  0.3571
 5051TIP3    H115159   3.329   3.949   3.047 -0.2970  0.6979  0.2042
 5051TIP3    H215160   3.211   3.888   3.118  0.4154  0.8010  1.4987
 5052TIP3   OH215161   5.201   4.035   3.278 -0.2220 -0.0084 -0.2435
 5052TIP3    H115162   5.186   4.073   3.364  1.0214  0.1500 -0.0846
 5052TIP3    H215163   5.164   3.947   3.285 -1.7735  0.6252 -0.1458
 5053TIP3   OH215164   2.857   1.459   0.730  0.2983 -0.5455 -0.6976
 5053TIP3    H115165   2.913   1.441   0.806  0.2530  1.8294 -0.0156
 5053TIP3    H215166   2.772   1.421   0.753 -0.2684  1.7459  1.3718
 5054TIP3   OH215167   5.462   2.155   3.197  0.0583  0.6456 -0.0793
 5054TIP3    H115168   5.539   2.152   3.141  1.4303  2.0192  1.6072
 5054TIP3    H215169   5.494   2.128   3.283 -1.5138  0.5176  0.4948
 5055TIP3   OH215170   6.066   5.918   2.664  0.2665 -0.0580 -0.3713
 5055TIP3    H115171   6.135   5.914   2.598  1.0717 -2.5956  0.4970
 5055TIP3    H215172   6.112   5.940   2.745  0.4559 -3.1824  0.5103
 5056TIP3   OH215173   4.506   0.620   3.112  0.0137  0.8876 -0.2230
 5056TIP3    H115174   4.468   0.708   3.124  0.3832  1.2352 -1.4299
 5056TIP3    H215175   4.502   0.606   3.018  0.7028 -0.0711 -0.1135
 5057TIP3   OH215176   4.000   3.313   2.503 -0.1040 -0.4308  0.4757
 5057TIP3    H115177   4.028   3.299   2.593 -0.7131 -0.8038  0.6188
 5057TIP3    H215178   4.004   3.407   2.490  2.3572 -0.5307  0.0950
 5058TIP3   OH215179   1.341   3.230   1.982 -0.5239  0.7476 -0.0705
 5058TIP3    H115180   1.293   3.168   1.927 -0.4822  0.7148 -0.0703
 5058TIP3    H215181   1.343   3.188   2.069  0.7150  0.0842 -0.3849
 5059TIP3   OH215182   5.653   0.981   3.981 -0.0840  0.3689 -0.3100
 5059TIP3    H115183   5.562   0.983   4.012  0.0738  2.2966  0.1067
 5059TIP3    H215184   5.646   0.996   3.886 -0.1453  1.5701 -0.1206
 5060TIP3   OH215185   5.692   1.378   0.670 -0.1355 -0.0615  0.0565
 5060TIP3    H115186   5.692   1.363   0.575  0.8292 -0.2936  0.0796
 5060TIP3    H215187   5.761   1.321   0.703 -1.0708 -0.6779  1.0292
 5061TIP3   OH215188   1.506   3.802   3.511  0.4866  0.1733  0.6685
 5061TIP3    H115189   1.598   3.826   3.500  0.2653  0.6297 -0.2128
 5061TIP3    H215190   1.472   3.796   3.422 -0.2769 -0.2497  0.9828
 5062TIP3   OH215191   3.530   5.873   4.706  0.3886 -0.5456  0.0674
 5062TIP3    H115192   3.512   5.852   4.797  0.5552 -3.7717 -0.5096
 5062TIP3    H215193   3.585   5.800   4.676  0.5757  0.5706 -2.5360
 5063TIP3   OH215194   5.810   5.768   1.061  0.2525 -0.0545 -0.0517
 5063TIP3    H115195   5.900   5.755   1.090  0.4603  2.0014  0.3955
 5063TIP3    H215196   5.810   5.744   0.969  1.5692  1.0593 -0.3674
 5064TIP3   OH215197   0.391   1.041   1.735  0.3694 -0.2867 -0.4152
 5064TIP3    H115198   0.485   1.031   1.721  0.7767  0.9099  1.2555
 5064TIP3    H215199   0.359   0.951   1.741  1.2462 -0.7297 -1.7682
 5065TIP3   OH215200   0.781   1.834   4.347 -0.5079 -0.7914 -0.1857
 5065TIP3    H115201   0.842   1.801   4.413 -0.8432 -2.0726 -0.5014
 5065TIP3    H215202   0.833   1.841   4.267  0.1588  1.6802  0.3516
 5066TIP3   OH215203   5.122   1.881   2.096  0.4333 -0.0094 -0.0832
 5066TIP3    H115204   5.149   1.854   2.184  0.7094 -1.1016 -0.4884
 5066TIP3    H215205   5.191   1.940   2.066 -1.3153  3.2689  1.7342
 5067TIP3   OH215206   5.893   4.354   3.527 -0.1217  0.0213 -0.1044
 5067TIP3    H115207   5.858   4.438   3.556 -0.1092  0.9840 -2.6328
 5067TIP3    H215208   5.946   4.375   3.449  1.3320 -2.1204  0.2138
 5068TIP3   OH215209   1.159   0.192   4.851 -0.3149  0.3156  0.5819
 5068TIP3    H115210   1.102   0.265   4.874 -0.2542  0.3239  0.7082
 5068TIP3    H215211   1.107   0.139   4.790  0.0692  1.0767 -0.4282
 5069TIP3   OH215212   0.174   5.491   3.534 -0.2288 -0.3061 -0.1678
 5069TIP3    H115213   0.221   5.505   3.616 -0.9871 -0.2272  0.2696
 5069TIP3    H215214   0.123   5.411   3.550 -1.0708  0.2105 -0.2296
 5070TIP3   OH215215   0.112   5.672   0.048 -0.3351 -0.0221 -0.5130
 5070TIP3    H115216   0.106   5.681   0.143 -3.2209  0.0013 -0.6106
 5070TIP3    H215217   0.162   5.591   0.035  0.9502  0.4876  0.9622
 5071TIP3   OH215218   1.843   5.188   1.303 -0.0261 -0.3333 -0.0621
 5071TIP3    H115219   1.753   5.219   1.288 -0.6044 -1.4366  0.9806
 5071TIP3    H215220   1.856   5.121   1.236  0.2156  0.1688 -0.5284
 5072TIP3   OH215221   5.025   4.117   1.400 -1.0034  0.4415 -0.4507
 5072TIP3    H115222   5.092   4.061   1.438  0.0089  0.0095 -2.7209
 5072TIP3    H215223   5.053   4.206   1.422  0.8183  0.3128 -2.0059
 5073TIP3   OH215224   2.386   3.341   0.480  0.1898 -0.3724  0.2774
 5073TIP3    H115225   2.376   3.249   0.505 -0.0306 -0.0185  1.5933
 5073TIP3    H215226   2.297   3.371   0.462  0.3218 -0.5554 -0.6980
 5074TIP3   OH215227   5.417   0.921   3.517  0.0834  0.6438 -0.3181
 5074TIP3    H115228   5.322   0.939   3.518  0.3043  1.9140  0.1927
 5074TIP3    H215229   5.429   0.859   3.445 -1.3292 -0.7235  0.5644
 5075TIP3   OH215230   5.958   1.668   0.221  0.4106 -0.0529  0.2021
 5075TIP3    H115231   5.951   1.641   0.313 -1.5831  1.4315  0.5435
 5075TIP3    H215232   6.048   1.702   0.213  0.3561  0.5734  1.8404
 5076TIP3   OH215233   1.086   1.421   2.991  0.2961 -0.0045 -0.0126
 5076TIP3    H115234   1.005   1.469   2.974 -0.4758 -0.4789  1.9902
 5076TIP3    H215235   1.059   1.329   2.988  0.6260 -0.1542  1.1629
 5077TIP3   OH215236   5.157   1.326   3.770  0.0313 -0.1764 -0.0218
 5077TIP3    H115237   5.078   1.378   3.756  0.5610  0.4056 -0.9936
 5077TIP3    H215238   5.220   1.387   3.808 -0.1408 -0.7763  1.2732
 5078TIP3   OH215239   6.158   4.016   4.876 -0.2606  0.0259  0.3745
 5078TIP3    H115240   6.225   4.083   4.875  0.6059 -0.8195  0.1484
 5078TIP3    H215241   6.111   4.027   4.794 -1.6807  1.8355  1.3468
 5079TIP3   OH215242   1.780   2.327   3.168  0.2032 -0.6949 -0.2915
 5079TIP3    H115243   1.847   2.370   3.220 -1.0398  1.8522 -0.6499
 5079TIP3    H215244   1.708   2.311   3.230  0.1507 -1.0625 -0.4453
 5080TIP3   OH215245   2.382   1.561   4.658  0.1609 -0.2847  0.0493
 5080TIP3    H115246   2.419   1.566   4.747 -0.7756  1.0698  0.3857
 5080TIP3    H215247   2.393   1.469   4.634  1.8360 -0.3666  0.9455
 5081TIP3   OH215248   2.426   3.498   1.141  0.0818  0.3299 -0.4039
 5081TIP3    H115249   2.336   3.482   1.171  0.0460  0.4559 -0.4415
 5081TIP3    H215250   2.454   3.415   1.104  0.0520  0.2319 -0.2093
 5082TIP3   OH215251   6.318   0.364   3.437  0.6044 -0.2606 -0.0030
 5082TIP3    H115252   6.268   0.438   3.472  0.7784 -0.3590  0.4605
 5082TIP3    H215253   6.376   0.402   3.371  0.9434  0.0733  0.4817
 5083TIP3   OH215254   0.752   2.217   4.452 -0.6055 -0.1030 -0.1804
 5083TIP3    H115255   0.766   2.310   4.434  0.3147  0.0052  1.0081
 5083TIP3    H215256   0.809   2.171   4.390 -1.4678  0.0868 -1.1426
 5084TIP3   OH215257   4.827   0.982   0.408  0.2991 -0.1775 -0.6181
 5084TIP3    H115258   4.838   0.926   0.331  0.2033 -0.2371 -0.5890
 5084TIP3    H215259   4.768   0.932   0.466 -1.3546  0.7668 -1.4188
 5085TIP3   OH215260   4.222   4.878   4.155 -0.2473  0.1750 -0.1502
 5085TIP3    H115261   4.155   4.886   4.222 -1.4903  2.2956 -1.5280
 5085TIP3    H215262   4.260   4.965   4.148  1.0317 -0.4150 -1.0520
 5086TIP3   OH215263   4.100   3.419   1.008  0.3911 -0.4817  0.0318
 5086TIP3    H115264   4.074   3.479   1.078 -0.9844  1.4472 -2.0121
 5086TIP3    H215265   4.040   3.345   1.016 -1.8355  1.1225 -0.8873
 5087TIP3   OH215266   1.601   3.107   4.437  0.0258 -0.1327 -0.3385
 5087TIP3    H115267   1.645   3.191   4.430  1.5858 -0.9502 -0.8781
 5087TIP3    H215268   1.581   3.082   4.347 -1.9256  0.3802 -0.0880
 5088TIP3   OH215269   3.132   5.374   0.465  0.2580 -0.2782 -0.5738
 5088TIP3    H115270   3.131   5.468   0.483 -0.2824  0.0624 -2.2119
 5088TIP3    H215271   3.119   5.333   0.551 -2.1986  1.2042 -0.1267
 5089TIP3   OH215272   2.045   2.947   0.240  0.2151 -0.2494 -0.5241
 5089TIP3    H115273   2.026   2.886   0.311 -3.4528  0.4211 -0.7667
 5089TIP3    H215274   2.045   2.894   0.161 -0.7863 -0.2930 -0.5056
 5090TIP3   OH215275   2.811   3.085   0.780 -0.3541  0.3798 -0.4419
 5090TIP3    H115276   2.781   3.176   0.782 -0.8128  0.2344  1.8043
 5090TIP3    H215277   2.877   3.081   0.850 -1.2186 -1.2801  0.3115
 5091TIP3   OH215278   4.592   0.627   4.714  0.2291  0.2507 -0.2530
 5091TIP3    H115279   4.594   0.559   4.647  1.1972 -1.5829  1.5229
 5091TIP3    H215280   4.543   0.588   4.786 -0.8146  2.1664  0.1580
 5092TIP3   OH215281   3.503   1.176   4.597  0.0064  0.4352  0.3006
 5092TIP3    H115282   3.419   1.134   4.616 -1.2121  2.3902 -0.4546
 5092TIP3    H215283   3.514   1.241   4.666  0.6713  0.5282  0.1176
 5093TIP3   OH215284   0.234   2.269   2.531  0.1739 -0.3278  0.3078
 5093TIP3    H115285   0.329   2.263   2.521  0.1699  1.8862 -1.9607
 5093TIP3    H215286   0.199   2.240   2.447 -1.0922 -0.1936  0.7729
 5094TIP3   OH215287   6.035   4.124   0.932  0.8423  0.1419 -0.5057
 5094TIP3    H115288   5.992   4.101   0.850 -0.3569  1.7074 -0.3588
 5094TIP3    H215289   6.057   4.217   0.922  1.0754  0.2405  0.7778
 5095TIP3   OH215290   2.920   4.567   4.567  0.2365 -0.2931 -0.0068
 5095TIP3    H115291   2.906   4.588   4.659 -0.9456  0.4573 -0.3341
 5095TIP3    H215292   2.960   4.480   4.568  0.0230 -0.3918  1.1993
 5096TIP3   OH215293   0.837   4.619   5.125  0.2566  0.0048 -0.3812
 5096TIP3    H115294   0.914   4.652   5.171 -1.0383  0.3105  1.6945
 5096TIP3    H215295   0.854   4.526   5.113  0.0746 -0.4016  2.0582
 5097TIP3   OH215296   1.088   1.879   3.425  0.5478  0.4061  0.2103
 5097TIP3    H115297   1.027   1.878   3.351 -0.6949  1.0112  1.1876
 5097TIP3    H215298   1.072   1.963   3.468  0.9680 -0.0808  1.3745
 5098TIP3   OH215299   4.228   3.590   3.672 -0.1331  0.0293  0.1477
 5098TIP3    H115300   4.299   3.531   3.697  0.0113  0.3795  0.5908
 5098TIP3    H215301   4.187   3.549   3.596 -1.1608 -1.5240  1.4949
 5099TIP3   OH215302   3.843   0.479   0.176 -0.3321 -0.0799 -0.5535
 5099TIP3    H115303   3.751   0.457   0.189 -0.3858  0.2710 -0.3143
 5099TIP3    H215304   3.877   0.493   0.264  0.4242 -2.0173 -0.4949
 5100TIP3   OH215305   5.083   6.004   4.416 -0.6067 -0.1152  0.1831
 5100TIP3    H115306   5.104   5.932   4.357  0.6634  0.0865  0.3532
 5100TIP3    H215307   5.029   5.964   4.484 -0.1095 -0.8624  0.1521
 5101TIP3   OH215308   5.988   4.463   0.186 -0.3039  0.5752  1.0226
 5101TIP3    H115309   5.976   4.472   0.281  0.0562  1.7025  0.9732
 5101TIP3    H215310   6.065   4.408   0.177 -0.0863  0.8124  1.3935
 5102TIP3   OH215311   2.688   2.662   1.555  0.5888  0.3401 -0.5227
 5102TIP3    H115312   2.731   2.596   1.610 -1.8762  0.1620  1.3803
 5102TIP3    H215313   2.652   2.725   1.617 -0.5519  1.2743 -2.0668
 5103TIP3   OH215314   1.857   1.846   4.969  0.6923  0.5847  0.4178
 5103TIP3    H115315   1.888   1.834   4.880  0.0377  0.4277  0.2108
 5103TIP3    H215316   1.790   1.914   4.963  0.2819  0.2138  0.7076
 5104TIP3   OH215317   3.456   1.702   2.754  0.3035  0.2134  0.1379
 5104TIP3    H115318   3.445   1.664   2.841  1.8371 -0.3525  0.1183
 5104TIP3    H215319   3.536   1.755   2.762 -0.1011  0.9529 -0.6604
 5105TIP3   OH215320   2.401   3.327   5.189  0.3865  0.2153  0.6050
 5105TIP3    H115321   2.400   3.422   5.183 -0.9815  0.2246  0.5973
 5105TIP3    H215322   2.414   3.296   5.100  1.5139  0.3886  0.7025
 5106TIP3   OH215323   4.244   4.581   3.080 -0.0442  0.1391  0.4947
 5106TIP3    H115324   4.151   4.575   3.059  0.3472 -1.0235 -1.1702
 5106TIP3    H215325   4.247   4.618   3.168 -2.0423  0.8291  0.3212
 5107TIP3   OH215326   4.746   4.289   4.968 -0.2294 -0.4795  0.0566
 5107TIP3    H115327   4.684   4.348   5.011  0.2900  0.3837 -0.3369
 5107TIP3    H215328   4.701   4.205   4.964 -0.7406 -0.2785  1.2145
 5108TIP3   OH215329   2.003   2.235   1.429  0.4171  0.9458  0.0642
 5108TIP3    H115330   1.991   2.159   1.486 -0.9982  1.0183 -0.1071
 5108TIP3    H215331   1.994   2.200   1.340  0.9107  1.1184 -0.0533
 5109TIP3   OH215332   4.059   3.534   3.425 -0.2043  0.5323  0.2163
 5109TIP3    H115333   4.120   3.575   3.364 -0.5226  0.6375 -0.0417
 5109TIP3    H215334   3.976   3.580   3.410 -0.2973  0.5248  0.6969
 5110TIP3   OH215335   3.333   3.297   4.073 -0.2447 -0.1712 -0.4454
 5110TIP3    H115336   3.400   3.232   4.053 -0.8703 -0.4258 -1.8462
 5110TIP3    H215337   3.363   3.338   4.154  1.8848  0.1025 -1.2975
 5111TIP3   OH215338   1.272   0.690   3.381  0.1243  0.6686 -0.0618
 5111TIP3    H115339   1.228   0.675   3.465 -1.2552  0.6826 -0.7601
 5111TIP3    H215340   1.294   0.603   3.349 -0.5934  0.5743 -0.3182
 5112TIP3   OH215341   2.315   4.151   4.367 -0.0625 -0.3548  0.1293
 5112TIP3    H115342   2.391   4.191   4.325 -0.0665 -1.3217 -0.8532
 5112TIP3    H215343   2.349   4.116   4.450 -0.0023  1.3587  0.8734
 5113TIP3   OH215344   0.160   0.173   3.176  0.2990 -0.2604  0.0724
 5113TIP3    H115345   0.223   0.189   3.247 -1.7713  1.2673  1.6699
 5113TIP3    H215346   0.076   0.162   3.220 -1.1249  1.0013 -2.1491
 5114TIP3   OH215347   1.429   2.492   0.704  0.0401 -0.1391 -0.1749
 5114TIP3    H115348   1.514   2.536   0.698 -1.1518  2.2096 -1.7022
 5114TIP3    H215349   1.406   2.473   0.613 -1.0975 -0.6296  0.2007
 5115TIP3   OH215350   0.987   2.390   4.098  0.1341  0.6566 -0.2555
 5115TIP3    H115351   0.919   2.399   4.164  0.2869  0.7279 -0.1049
 5115TIP3    H215352   0.971   2.305   4.058  1.5803 -0.5848  1.6595
 5116TIP3   OH215353   6.117   3.304   3.780  0.4763 -0.4946 -0.2238
 5116TIP3    H115354   6.070   3.377   3.742  2.1562 -0.4396 -2.3463
 5116TIP3    H215355   6.069   3.284   3.861 -1.1799  1.6198 -0.6096
 5117TIP3   OH215356   1.569   3.013   2.273 -0.1137  0.3055  1.0585
 5117TIP3    H115357   1.487   3.060   2.256  1.2446  2.9735  1.3333
 5117TIP3    H215358   1.574   3.010   2.369 -0.4798 -1.0147  1.0473
 5118TIP3   OH215359   0.162   5.742   1.888 -0.0080  0.3757 -0.0424
 5118TIP3    H115360   0.253   5.759   1.911  0.2333 -0.9165  0.0780
 5118TIP3    H215361   0.121   5.828   1.884  1.4501  1.0661 -1.1364
 5119TIP3   OH215362   2.839   4.500   0.874  0.5883  0.1348 -0.0933
 5119TIP3    H115363   2.897   4.431   0.907  0.3705  1.2792  3.0323
 5119TIP3    H215364   2.753   4.478   0.911  0.4908  1.9601  0.8557
 5120TIP3   OH215365   2.688   4.640   3.682 -0.1108 -0.4991 -0.6007
 5120TIP3    H115366   2.742   4.619   3.758  1.5553  0.4871 -1.4707
 5120TIP3    H215367   2.631   4.711   3.712  0.7725  0.1158 -0.3591
 5121TIP3   OH215368   2.251   3.821   3.472  0.1011 -0.4587  0.2387
 5121TIP3    H115369   2.185   3.864   3.526  0.1054 -0.7145  0.4532
 5121TIP3    H215370   2.226   3.728   3.474  1.2871 -0.7795  1.5109
 5122TIP3   OH215371   4.877   4.802   1.116 -0.2921 -0.2002 -0.3018
 5122TIP3    H115372   4.923   4.730   1.072  1.5558  1.1581 -0.7423
 5122TIP3    H215373   4.804   4.760   1.161  0.0241 -2.1735 -1.4997
 5123TIP3   OH215374   4.494   3.486   2.758 -0.3743  0.4524  0.3513
 5123TIP3    H115375   4.414   3.523   2.795 -1.1825 -0.2829 -0.6133
 5123TIP3    H215376   4.549   3.562   2.739 -0.1975  0.8904  2.3729
 5124TIP3   OH215377   1.915   4.766   4.727 -0.5503 -0.1349 -0.4578
 5124TIP3    H115378   1.898   4.715   4.806 -1.8667 -1.0607 -1.3093
 5124TIP3    H215379   1.944   4.851   4.760  2.2081 -1.4916  1.0196
 5125TIP3   OH215380   1.471   1.941   4.255 -0.0432 -0.1329  0.0528
 5125TIP3    H115381   1.545   1.925   4.314  0.1551 -2.3575 -0.7056
 5125TIP3    H215382   1.394   1.911   4.303  0.3259 -3.8354 -1.3651
 5126TIP3   OH215383   6.093   5.511   0.168  0.4689  0.0797  0.0893
 5126TIP3    H115384   6.151   5.573   0.213 -0.3699  0.5581  0.5412
 5126TIP3    H215385   6.123   5.425   0.199  1.5788  0.2461 -0.4663
 5127TIP3   OH215386   4.165   5.524   4.091  0.3619  0.3103  0.0221
 5127TIP3    H115387   4.151   5.450   4.031 -0.7482 -0.3168  1.0182
 5127TIP3    H215388   4.175   5.483   4.177  1.1379  1.2503  0.4043
 5128TIP3   OH215389   4.985   3.683   1.913  0.1054 -0.0253  0.1701
 5128TIP3    H115390   4.935   3.730   1.847  2.3663 -0.7244 -2.2396
 5128TIP3    H215391   4.988   3.742   1.988 -2.3442  0.9333 -0.4001
 5129TIP3   OH215392   0.707   4.829   0.982 -0.0132  0.6048 -0.2486
 5129TIP3    H115393   0.616   4.823   1.012 -0.5878  1.9166 -1.5984
 5129TIP3    H215394   0.729   4.922   0.991  1.8084  0.0412  1.6850
 5130TIP3   OH215395   3.467   3.267   2.185 -0.3504  0.2385 -0.1899
 5130TIP3    H115396   3.519   3.343   2.158 -0.6103  1.2143  1.8381
 5130TIP3    H215397   3.382   3.303   2.209 -1.2046 -1.0163 -1.1616
 5131TIP3   OH215398   5.879   5.445   2.282 -0.6730  0.4673 -0.1178
 5131TIP3    H115399   5.932   5.486   2.349 -0.4016 -0.7922  0.4661
 5131TIP3    H215400   5.918   5.473   2.199 -1.1854  2.2581  0.2180
 5132TIP3   OH215401   4.571   2.977   2.129  0.3952 -0.1317  0.4291
 5132TIP3    H115402   4.501   2.999   2.067  0.4988 -1.5925 -0.2488
 5132TIP3    H215403   4.586   2.883   2.116  1.4958 -0.1444  1.5856
 5133TIP3   OH215404   5.988   3.822   3.368  0.4285 -0.0355 -0.4047
 5133TIP3    H115405   5.956   3.912   3.378  1.8854  0.6294 -1.2448
 5133TIP3    H215406   6.058   3.815   3.433 -0.7993 -1.1852  0.8559
 5134TIP3   OH215407   6.293   5.210   1.342  0.2215  0.2426 -0.2064
 5134TIP3    H115408   6.312   5.238   1.431  0.2422 -0.5000  0.0286
 5134TIP3    H215409   6.265   5.118   1.351  0.2035  0.1691 -0.9564
 5135TIP3   OH215410   1.958   1.950   1.414  0.0368  0.2505  0.7994
 5135TIP3    H115411   1.926   1.887   1.478 -0.7889  0.7268  0.8745
 5135TIP3    H215412   1.879   1.999   1.388  0.3453  0.0157 -0.6285
 5136TIP3   OH215413   4.002   3.140   3.712 -0.5797  0.5927  0.0017
 5136TIP3    H115414   3.961   3.206   3.767 -0.0693  0.4307  0.5919
 5136TIP3    H215415   3.997   3.059   3.764 -0.8536  0.2448 -0.5478
 5137TIP3   OH215416   5.090   4.406   1.391  0.1584 -0.5802  0.1536
 5137TIP3    H115417   5.052   4.428   1.306  0.0967 -0.9007  0.0957
 5137TIP3    H215418   5.025   4.436   1.455  0.1476 -0.4517  0.0810
 5138TIP3   OH215419   2.223   3.781   4.456 -0.0935 -0.4856  0.3304
 5138TIP3    H115420   2.293   3.780   4.521  0.3661  0.9185 -0.1002
 5138TIP3    H215421   2.268   3.770   4.372 -0.6417 -1.8765  0.1917
 5139TIP3   OH215422   5.236   3.317   2.415 -0.3003  0.3591  0.4040
 5139TIP3    H115423   5.274   3.262   2.346 -0.1662 -0.0634  0.8088
 5139TIP3    H215424   5.175   3.375   2.369 -1.1731 -0.7838  0.0706
 5140TIP3   OH215425   4.222   5.296   0.311 -0.1159  0.0740  0.3849
 5140TIP3    H115426   4.159   5.290   0.240  0.5160  1.6586 -0.3685
 5140TIP3    H215427   4.301   5.253   0.277 -1.1767 -3.5887  1.9870
 5141TIP3   OH215428   1.046   5.580   3.628 -0.3110 -0.7209  0.4394
 5141TIP3    H115429   1.039   5.590   3.723 -0.6581  1.0895  0.2560
 5141TIP3    H215430   0.956   5.580   3.597 -0.1823 -0.5662  0.0531
 5142TIP3   OH215431   4.788   4.169   2.309  0.3297 -0.0259  0.3307
 5142TIP3    H115432   4.837   4.104   2.360  0.6315  0.6034  0.8429
 5142TIP3    H215433   4.851   4.237   2.288 -0.3592  0.9223  1.2148
 5143TIP3   OH215434   1.557   5.328   3.957  0.4165  0.4265 -0.1710
 5143TIP3    H115435   1.510   5.286   3.884 -0.4711  1.6066 -0.3166
 5143TIP3    H215436   1.547   5.267   4.030 -0.6153  0.2459 -0.4426
 5144TIP3   OH215437   1.311   5.190   2.693 -0.0334 -0.4799  0.2521
 5144TIP3    H115438   1.400   5.218   2.715 -0.1563 -0.0335  0.1900
 5144TIP3    H215439   1.311   5.095   2.708  0.8399 -0.6985 -1.0311
 5145TIP3   OH215440   2.378   4.073   4.950  0.3583  0.1634 -0.2969
 5145TIP3    H115441   2.317   4.114   5.013  2.1019  1.7744  0.4431
 5145TIP3    H215442   2.323   4.051   4.875 -1.5133 -0.3942  1.1563
 5146TIP3   OH215443   3.211   3.150   0.551 -0.2777 -0.4498  0.5872
 5146TIP3    H115444   3.288   3.150   0.494 -0.5252  0.7527  0.2359
 5146TIP3    H215445   3.227   3.079   0.614  0.3841 -1.2380 -0.4510
 5147TIP3   OH215446   6.363   5.315   4.910  0.0838  0.2538 -0.1533
 5147TIP3    H115447   6.408   5.234   4.885  0.9685  0.5270  0.5065
 5147TIP3    H215448   6.279   5.311   4.864 -1.1666 -2.4194  2.0585
 5148TIP3   OH215449   5.952   4.077   3.424  0.4215  0.0703 -0.2565
 5148TIP3    H115450   5.875   4.131   3.410  0.1621 -0.0459  0.6143
 5148TIP3    H215451   5.986   4.106   3.509 -0.1413 -1.6050  0.5779
 5149TIP3   OH215452   0.099   3.599   0.679 -0.0944 -0.1670  0.1902
 5149TIP3    H115453   0.144   3.649   0.747  0.8378 -0.1991 -0.3800
 5149TIP3    H215454   0.013   3.638   0.673 -0.3448 -0.4234  1.6664
 5150TIP3   OH215455   2.007   0.125   0.791 -0.0066  0.3315  0.5304
 5150TIP3    H115456   1.985   0.034   0.811 -2.2664  0.8039  0.5152
 5150TIP3    H215457   2.036   0.123   0.700 -2.5863 -0.0965 -0.3804
 5151TIP3   OH215458   3.466   0.464   2.092 -0.1142  0.5384  0.3453
 5151TIP3    H115459   3.500   0.402   2.157 -2.5554 -0.5088  0.7100
 5151TIP3    H215460   3.479   0.420   2.008  1.2781  1.0724  0.2446
 5152TIP3   OH215461   4.757   0.464   1.584  0.1676  1.2105  0.5754
 5152TIP3    H115462   4.831   0.474   1.524  1.0279 -1.1118  1.1319
 5152TIP3    H215463   4.795   0.473   1.671 -0.3830  0.9675  0.8466
 5153TIP3   OH215464   6.123   1.698   1.358  0.4001  0.2490 -0.0289
 5153TIP3    H115465   6.088   1.778   1.398 -0.6303  0.2097 -0.8102
 5153TIP3    H215466   6.114   1.631   1.427  0.9758  0.7237  0.5183
 5154TIP3   OH215467   0.586   1.418   2.869  0.5179  0.9573  1.0069
 5154TIP3    H115468   0.594   1.368   2.950 -0.6161 -0.7717  0.1035
 5154TIP3    H215469   0.666   1.399   2.820  1.2019  1.9998  1.6616
 5155TIP3   OH215470   3.755   2.137   2.354 -0.0535 -0.0997 -0.2733
 5155TIP3    H115471   3.748   2.076   2.427  0.0290 -0.5820 -0.6636
 5155TIP3    H215472   3.836   2.186   2.373 -0.1862 -0.0206  0.1041
 5156TIP3   OH215473   1.587   3.010   4.168 -0.2401  0.1645  0.0674
 5156TIP3    H115474   1.575   2.917   4.150  0.3053  0.1303 -0.1230
 5156TIP3    H215475   1.641   3.043   4.097 -1.1115  0.8156 -0.3196
 5157TIP3   OH215476   3.766  -0.027   2.524  0.4559 -0.1923  0.1134
 5157TIP3    H115477   3.750   0.067   2.538  0.2599 -0.2406  0.2097
 5157TIP3    H215478   3.857  -0.040   2.553  0.1814 -0.2187  0.9905
 5158TIP3   OH215479   2.488   5.397   0.488  0.1774  0.2601  0.0825
 5158TIP3    H115480   2.563   5.384   0.430  0.3433  1.5994 -0.0288
 5158TIP3    H215481   2.465   5.309   0.518  1.2284 -0.2555 -0.5843
 5159TIP3   OH215482   0.821   5.982   2.139 -0.2932 -0.2862  0.2682
 5159TIP3    H115483   0.904   6.025   2.162  0.1645 -0.6659 -0.6356
 5159TIP3    H215484   0.825   5.972   2.044 -1.8938  0.7356  0.0702
 5160TIP3   OH215485   3.371   2.880   0.401  0.0469  0.0507  0.0889
 5160TIP3    H115486   3.289   2.850   0.439  0.1837 -1.4211 -0.7011
 5160TIP3    H215487   3.391   2.816   0.333  1.3373  0.9442 -0.4169
 5161TIP3   OH215488   5.018   2.404   4.405  0.5417 -0.2052 -0.7305
 5161TIP3    H115489   4.998   2.395   4.498  1.0748  1.6454 -0.3978
 5161TIP3    H215490   5.114   2.406   4.401  0.5206 -0.2595 -1.3226
 5162TIP3   OH215491   2.423   5.502   3.554  0.2863  0.4522  0.0895
 5162TIP3    H115492   2.372   5.576   3.586  1.4138  0.5668  1.7471
 5162TIP3    H215493   2.452   5.457   3.634  1.5079 -0.4650 -0.8328
 5163TIP3   OH215494   2.365   4.518   1.819 -0.0287  0.2008  0.7295
 5163TIP3    H115495   2.334   4.572   1.892  0.0539 -0.2257  1.0891
 5163TIP3    H215496   2.335   4.563   1.741 -1.8527 -0.3540  1.0553
 5164TIP3   OH215497   3.144   2.777   0.475  0.1960 -0.2527  0.3159
 5164TIP3    H115498   3.096   2.699   0.504 -1.5291  1.1338  1.4576
 5164TIP3    H215499   3.095   2.808   0.399  1.7922 -1.0966 -1.1169
 5165TIP3   OH215500   1.786   1.551   0.864  0.4250  0.1589 -0.0949
 5165TIP3    H115501   1.743   1.471   0.895 -1.6165  1.2998  0.2648
 5165TIP3    H215502   1.871   1.551   0.907  0.3838 -1.6765  0.0869
 5166TIP3   OH215503   5.181   0.210   0.258 -0.2610  0.7292 -0.5816
 5166TIP3    H115504   5.122   0.207   0.333 -0.5927  3.2466 -0.6351
 5166TIP3    H215505   5.268   0.224   0.297  0.2198 -1.8126 -0.5603
 5167TIP3   OH215506   5.870   5.642   4.202 -0.2940 -0.5077 -0.1556
 5167TIP3    H115507   5.797   5.641   4.140 -1.0067 -2.4230  0.6452
 5167TIP3    H215508   5.924   5.716   4.174 -2.1285  0.4856 -1.2321
 5168TIP3   OH215509   5.154   4.588   3.148  0.3141  0.4245 -0.4015
 5168TIP3    H115510   5.142   4.503   3.105 -0.4499  0.3459 -0.0406
 5168TIP3    H215511   5.107   4.650   3.092 -1.3953  0.2025  0.7105
 5169TIP3   OH215512   3.095   4.298   4.914 -0.0601  0.9053 -0.0181
 5169TIP3    H115513   3.056   4.250   4.987  1.7694  0.5765  0.7983
 5169TIP3    H215514   3.034   4.370   4.897 -0.3286  1.2618  2.1507
 5170TIP3   OH215515   0.087   2.450   0.538 -0.6597  0.1579  0.2774
 5170TIP3    H115516   0.031   2.512   0.491  0.7600  0.7216 -0.7252
 5170TIP3    H215517   0.089   2.373   0.481 -0.3867  0.1627  0.2792
 5171TIP3   OH215518   5.046   0.064   1.669 -1.0022  0.2714 -0.4665
 5171TIP3    H115519   5.038   0.006   1.593 -0.8533  0.7603 -0.8525
 5171TIP3    H215520   5.124   0.117   1.652  0.7153 -1.5016  1.3036
 5172TIP3   OH215521   2.711   4.195   4.526  0.4681  0.1591 -0.7655
 5172TIP3    H115522   2.738   4.176   4.437  0.3402 -0.6550 -0.6384
 5172TIP3    H215523   2.776   4.257   4.559 -0.9425  2.6463 -2.2961
 5173TIP3   OH215524   5.132   5.227   4.687  0.0093 -0.6048 -0.6305
 5173TIP3    H115525   5.214   5.187   4.716 -1.0429 -1.5690  1.1626
 5173TIP3    H215526   5.124   5.307   4.739 -1.4966 -1.9359  1.3202
 5174TIP3   OH215527   4.358   0.093   1.621 -0.0754  0.1172 -0.0869
 5174TIP3    H115528   4.418   0.167   1.612 -0.4075  0.3226 -0.7094
 5174TIP3    H215529   4.275   0.125   1.585 -0.3985 -0.3527  0.2265
 5175TIP3   OH215530   1.166   0.902   0.504 -0.3190 -0.3404  0.1815
 5175TIP3    H115531   1.226   0.976   0.517  1.1325 -1.4601  0.0376
 5175TIP3    H215532   1.142   0.875   0.593 -0.9846  0.3820  0.2333
 5176TIP3   OH215533   1.461   0.881   4.050  0.3728  0.8356  0.2259
 5176TIP3    H115534   1.549   0.919   4.043  0.6755  1.1976  3.9777
 5176TIP3    H215535   1.476   0.794   4.086 -0.7814  0.0903 -0.9909
 5177TIP3   OH215536   2.933   0.271   0.219  0.0358 -0.1743  0.4391
 5177TIP3    H115537   2.856   0.326   0.234 -2.3094 -2.4175 -2.2775
 5177TIP3    H215538   2.993   0.328   0.170 -2.0150  0.3172 -1.6887
 5178TIP3   OH215539   0.609   5.879   4.527 -0.1313  0.3554 -0.1628
 5178TIP3    H115540   0.635   5.849   4.440 -2.2372  0.4360 -0.8895
 5178TIP3    H215541   0.663   5.957   4.543  1.3815 -0.5524 -0.6894
 5179TIP3   OH215542   5.932   2.778   4.482 -0.4580  0.1676  0.5188
 5179TIP3    H115543   5.911   2.736   4.398 -0.9649 -0.1442  0.7955
 5179TIP3    H215544   5.847   2.792   4.523 -0.2647  1.0731  0.6245
 5180TIP3   OH215545   4.172   2.695   3.075 -0.2777  0.5526 -0.3431
 5180TIP3    H115546   4.251   2.744   3.049  0.6390  0.3728  1.9202
 5180TIP3    H215547   4.108   2.717   3.007  1.5815  0.9811 -2.0931
 5181TIP3   OH215548   2.089   0.197   3.333  0.0152 -0.3479  0.3982
 5181TIP3    H115549   2.003   0.184   3.373 -1.3647  1.1496 -1.8078
 5181TIP3    H215550   2.095   0.292   3.320  0.8010 -0.6478 -1.8701
 5182TIP3   OH215551   6.280   0.597   1.148 -0.2317  0.5219 -0.3775
 5182TIP3    H115552   6.224   0.535   1.102 -0.4196  1.2362 -1.1390
 5182TIP3    H215553   6.220   0.652   1.197 -0.0051 -0.5388  1.1564
 5183TIP3   OH215554   2.391   0.105   5.123  0.1604 -0.0396  0.4102
 5183TIP3    H115555   2.424   0.137   5.207  2.6823 -1.3013  0.0043
 5183TIP3    H215556   2.441   0.153   5.058 -1.8634  1.0178 -0.4511
 5184TIP3   OH215557   1.055   3.098   1.506 -0.5825 -0.4819  0.5391
 5184TIP3    H115558   1.009   3.125   1.426 -0.3558  2.0127  1.1866
 5184TIP3    H215559   0.987   3.100   1.574 -0.3552 -0.7008  0.7754
 5185TIP3   OH215560   5.220   5.474   2.196  0.5336 -0.0492 -0.4962
 5185TIP3    H115561   5.301   5.506   2.156  0.3453  0.3553 -0.5497
 5185TIP3    H215562   5.232   5.487   2.290 -0.1070  1.4962 -0.6053
 5186TIP3   OH215563   4.832   0.629   2.234 -0.1861 -0.1162 -0.1769
 5186TIP3    H115564   4.763   0.585   2.183  0.9636 -1.6914 -0.4510
 5186TIP3    H215565   4.912   0.615   2.183  0.7101 -0.2386  1.2065
 5187TIP3   OH215566   5.466   0.568   1.806 -0.4429  0.4019 -0.0738
 5187TIP3    H115567   5.487   0.661   1.811 -0.6006  0.4903 -1.0151
 5187TIP3    H215568   5.487   0.543   1.716 -0.2679 -0.5043  0.2097
 5188TIP3   OH215569   1.749   3.375   1.042 -0.0615  0.0166  0.5722
 5188TIP3    H115570   1.654   3.388   1.047 -0.1450 -0.2990 -0.0690
 5188TIP3    H215571   1.776   3.362   1.133 -0.4729  1.1596  0.8699
 5189TIP3   OH215572   5.243   1.098   0.805  0.0128 -0.0114  0.3273
 5189TIP3    H115573   5.222   1.092   0.898 -1.1024  1.2187  0.1971
 5189TIP3    H215574   5.182   1.165   0.771  1.5283  0.8047 -0.9335
 5190TIP3   OH215575   5.350   0.627   0.119 -0.4895 -0.3559  0.2194
 5190TIP3    H115576   5.366   0.534   0.134 -0.3135 -0.3986 -0.1975
 5190TIP3    H215577   5.258   0.632   0.093 -0.2863 -0.5306 -0.5903
 5191TIP3   OH215578   4.391   5.027   3.067  0.3237  0.4394  0.1656
 5191TIP3    H115579   4.379   4.941   3.026  0.0545  1.4975 -2.1397
 5191TIP3    H215580   4.485   5.044   3.061  0.3582  0.3604  0.4896
 5192TIP3   OH215581   1.024   5.715   2.096  0.5292 -0.2059 -0.0540
 5192TIP3    H115582   0.974   5.794   2.117 -0.4966 -1.0857  1.0148
 5192TIP3    H215583   1.113   5.733   2.128  0.2288  0.4029  0.4596
 5193TIP3   OH215584   0.492   1.730   0.079  0.0155  0.2172  0.5527
 5193TIP3    H115585   0.552   1.658   0.061 -0.1833 -1.1498  4.5042
 5193TIP3    H215586   0.413   1.708   0.028  0.4954 -1.5726  0.5111
 5194TIP3   OH215587   4.158   3.864   2.982  0.4942 -0.1596  0.0275
 5194TIP3    H115588   4.118   3.834   2.900 -0.2959 -2.2331  1.0813
 5194TIP3    H215589   4.143   3.958   2.984 -1.2311 -0.3612 -1.2862
 5195TIP3   OH215590   1.543   4.097   0.981  0.3064  0.1826  0.2704
 5195TIP3    H115591   1.590   4.021   0.946 -0.8944 -1.6361  2.2942
 5195TIP3    H215592   1.612   4.153   1.018  1.1967 -0.0335 -1.0138
 5196TIP3   OH215593   3.667   5.057   4.714  0.3878 -0.1839  0.0266
 5196TIP3    H115594   3.661   5.074   4.808 -0.1470  0.7977 -0.1799
 5196TIP3    H215595   3.729   4.984   4.708  0.1825 -0.4835  1.1586
 5197TIP3   OH215596   5.240   0.870   4.618 -0.2276  0.3855  0.4458
 5197TIP3    H115597   5.184   0.812   4.567  0.8382 -0.0715 -0.2331
 5197TIP3    H215598   5.235   0.955   4.573 -0.7668  0.4847  0.6870
 5198TIP3   OH215599   1.694   1.633   1.770 -0.1773  0.0769  0.3705
 5198TIP3    H115600   1.708   1.541   1.747  0.8540  0.4879 -0.7593
 5198TIP3    H215601   1.651   1.630   1.855  1.6947 -1.4263  1.3433
 5199TIP3   OH215602   1.427   3.945   4.830 -0.1733 -1.1962 -0.3162
 5199TIP3    H115603   1.446   4.010   4.898  0.2284  2.1560 -3.2828
 5199TIP3    H215604   1.332   3.942   4.825 -0.1983 -1.2356  0.2096
 5200TIP3   OH215605   2.775   3.485   2.625  0.2223  0.3417 -0.1502
 5200TIP3    H115606   2.766   3.418   2.557  0.2104 -0.2697  0.4312
 5200TIP3    H215607   2.721   3.558   2.595  0.1400  0.0408 -0.7448
 5201TIP3   OH215608   5.253   4.299   2.920 -0.2895  0.2196 -0.0443
 5201TIP3    H115609   5.335   4.262   2.953  0.2542  0.9053 -0.6083
 5201TIP3    H215610   5.189   4.282   2.989  0.6494  0.9338  1.0218
 5202TIP3   OH215611   1.486   0.208   4.862 -0.3716  0.1632 -0.5802
 5202TIP3    H115612   1.391   0.218   4.852 -0.2911  0.3105 -1.2389
 5202TIP3    H215613   1.499   0.113   4.864 -0.3521  0.0633 -2.6264
 5203TIP3   OH215614   3.577   3.958   0.195  0.0553 -0.0764  0.1797
 5203TIP3    H115615   3.617   3.937   0.111 -1.2609  0.6005 -0.6567
 5203TIP3    H215616   3.641   4.013   0.240  1.0563 -1.0143 -0.0873
 5204TIP3   OH215617   2.048   4.347   2.087  0.0372 -0.1140 -0.2826
 5204TIP3    H115618   2.077   4.336   1.996  1.0311 -0.8614  0.0970
 5204TIP3    H215619   2.009   4.263   2.110  0.6922 -0.2825  0.2717
 5205TIP3   OH215620   0.540   5.586   4.012  0.1121 -0.4002 -0.0203
 5205TIP3    H115621   0.622   5.538   4.021 -0.6360 -1.7774 -0.3023
 5205TIP3    H215622   0.504   5.588   4.101 -0.5960 -1.7846 -0.2386
 5206TIP3   OH215623   3.193   1.774   3.509  0.4610 -0.4057 -0.4470
 5206TIP3    H115624   3.284   1.756   3.531  1.4113  1.1319 -2.6642
 5206TIP3    H215625   3.149   1.782   3.593  2.1387 -2.1666  0.6750
 5207TIP3   OH215626   4.548   4.562   2.741  0.0268 -0.4980 -0.2083
 5207TIP3    H115627   4.562   4.517   2.657  0.2863  1.1038 -1.0554
 5207TIP3    H215628   4.473   4.620   2.725  0.9783  0.8820  0.2146
 5208TIP3   OH215629   1.587   5.253   0.127 -0.7470  0.0225 -0.4807
 5208TIP3    H115630   1.494   5.231   0.130 -0.8151  0.1898 -1.2389
 5208TIP3    H215631   1.590   5.344   0.099 -0.3805  0.3483  0.5572
 5209TIP3   OH215632   0.868   3.240   4.784  0.3289  0.3075 -0.2977
 5209TIP3    H115633   0.937   3.267   4.724  0.2811 -2.0168 -1.5495
 5209TIP3    H215634   0.910   3.176   4.842  0.0427  1.5363  1.3165
 5210TIP3   OH215635   1.702   5.360   1.731 -0.0991 -0.6288  0.3110
 5210TIP3    H115636   1.681   5.437   1.784 -4.1453  0.0075 -1.7905
 5210TIP3    H215637   1.756   5.394   1.660  1.0376 -0.4791  1.2210
 5211TIP3   OH215638   2.542   3.644   2.980  0.0074 -0.1250 -0.7011
 5211TIP3    H115639   2.456   3.603   2.972  0.2349 -0.9005  0.5923
 5211TIP3    H215640   2.596   3.577   3.021  0.1873  1.7106  2.3175
 5212TIP3   OH215641   1.541   1.029   4.762  0.0496  0.7154 -0.3368
 5212TIP3    H115642   1.563   1.112   4.721  0.5037  0.5707 -0.4040
 5212TIP3    H215643   1.446   1.023   4.758  0.1465 -0.1152 -2.9944
 5213TIP3   OH215644   3.597   1.312   3.010  0.2419  0.1635  0.7081
 5213TIP3    H115645   3.661   1.259   3.057 -0.3668 -2.4893 -1.2393
 5213TIP3    H215646   3.512   1.281   3.041 -0.1314  0.9769  0.5345
 5214TIP3   OH215647   5.552   2.600   1.969 -0.6892  0.0560  0.3676
 5214TIP3    H115648   5.459   2.590   1.989 -0.1024 -0.1337  3.5646
 5214TIP3    H215649   5.572   2.690   1.994  0.0941 -0.0714  0.2278
 5215TIP3   OH215650   2.119   3.513   2.984  0.3450 -0.1976  0.1762
 5215TIP3    H115651   2.205   3.485   3.017 -0.3220 -2.4357  0.1684
 5215TIP3    H215652   2.057   3.483   3.050 -0.5020  0.9055 -0.0860
 5216TIP3   OH215653   0.774   4.613   0.569 -0.0451  0.4061 -0.0040
 5216TIP3    H115654   0.686   4.580   0.586 -0.4685  1.6211  0.3170
 5216TIP3    H215655   0.783   4.610   0.474 -0.4360  0.2737 -0.0394
 5217TIP3   OH215656   1.269   2.094   4.893  0.2419 -0.3716  0.3676
 5217TIP3    H115657   1.244   2.029   4.959  0.1548 -0.0484  0.6564
 5217TIP3    H215658   1.314   2.162   4.943  0.3921 -0.2423  0.0565
 5218TIP3   OH215659   6.269   5.118   4.084  0.2741 -0.0109  0.0302
 5218TIP3    H115660   6.255   5.177   4.010  1.5028 -1.1377 -1.1460
 5218TIP3    H215661   6.209   5.150   4.151 -0.9236  1.0160 -1.4568
 5219TIP3   OH215662   5.802   2.244   0.166  0.1161  0.2987  0.0257
 5219TIP3    H115663   5.724   2.193   0.189  0.6726 -0.1328  1.0130
 5219TIP3    H215664   5.858   2.238   0.244  1.8558 -0.7583 -1.2287
 5220TIP3   OH215665   2.405   1.264   4.534 -0.4308 -0.6391 -0.3859
 5220TIP3    H115666   2.334   1.270   4.598  0.2624 -0.3140  0.3718
 5220TIP3    H215667   2.369   1.212   4.462 -1.6745  0.1402 -0.3461
 5221TIP3   OH215668   1.970   2.218   4.465  0.3069  0.0083 -0.5153
 5221TIP3    H115669   2.054   2.173   4.449  0.0472 -0.2343 -1.2465
 5221TIP3    H215670   1.977   2.300   4.416  0.2601  0.1586 -0.2713
 5222TIP3   OH215671   4.074   4.083   0.361 -0.2112 -0.5377  0.0066
 5222TIP3    H115672   4.033   4.102   0.446  1.8360 -0.0493  0.9556
 5222TIP3    H215673   4.009   4.109   0.296 -1.7098 -0.6154  1.4209
 5223TIP3   OH215674   5.382   1.614   1.343 -0.0906 -0.4223 -0.4167
 5223TIP3    H115675   5.349   1.534   1.303 -2.8061  0.3363  0.1232
 5223TIP3    H215676   5.413   1.587   1.429  0.8413 -1.1738 -0.9669
 5224TIP3   OH215677   4.856   4.954   2.132 -0.0832 -0.3946  0.1521
 5224TIP3    H115678   4.913   4.932   2.059  0.7716  0.1689  0.6345
 5224TIP3    H215679   4.786   4.888   2.128  0.1780 -0.6344 -0.9001
 5225TIP3   OH215680   2.115   4.670   3.245  0.4217  0.0462 -0.3352
 5225TIP3    H115681   2.134   4.594   3.300  0.6033  0.3296 -0.0001
 5225TIP3    H215682   2.178   4.736   3.274  0.5726  0.1703 -0.9412
 5226TIP3   OH215683   2.484   5.643   2.235 -0.2206  0.3315 -0.0882
 5226TIP3    H115684   2.404   5.615   2.279  0.4047  2.0813  2.3560
 5226TIP3    H215685   2.528   5.561   2.212 -1.2823 -0.6823  1.2968
 5227TIP3   OH215686   1.594   3.194   3.254  0.2473  0.1885  0.4919
 5227TIP3    H115687   1.588   3.099   3.255 -1.2549  0.2430 -0.2367
 5227TIP3    H215688   1.687   3.212   3.264  0.6017 -1.3632  0.2740
 5228TIP3   OH215689   5.575   2.857   2.820 -0.1757 -0.1499  0.1142
 5228TIP3    H115690   5.521   2.830   2.894 -2.1164 -0.4071 -1.3297
 5228TIP3    H215691   5.665   2.839   2.848 -0.8891 -0.5933  2.2368
 5229TIP3   OH215692   5.735   1.139   2.721  0.5180  0.3523 -0.5034
 5229TIP3    H115693   5.702   1.067   2.774 -1.8321  1.6660 -0.0406
 5229TIP3    H215694   5.734   1.105   2.631  0.8415 -0.6349 -0.1461
 5230TIP3   OH215695   1.381   0.290   0.297 -0.1109  0.1734 -0.7041
 5230TIP3    H115696   1.317   0.255   0.235 -0.1886 -0.4112 -0.3033
 5230TIP3    H215697   1.339   0.279   0.382  0.6526 -0.5178 -0.4082
 5231TIP3   OH215698   3.550   4.237   4.719 -0.4665  0.1518 -0.2458
 5231TIP3    H115699   3.632   4.210   4.761  1.2720  2.0327 -2.1986
 5231TIP3    H215700   3.490   4.252   4.792  0.2395 -3.0463  1.1827
 5232TIP3   OH215701   3.541   3.550   4.043  0.2217  0.0774 -0.0671
 5232TIP3    H115702   3.462   3.512   4.004 -0.6215  0.9632  0.7238
 5232TIP3    H215703   3.529   3.540   4.137 -0.2279  2.5406  0.2151
 5233TIP3   OH215704   4.726   4.722   4.928 -0.0952  0.2050 -0.1370
 5233TIP3    H115705   4.696   4.805   4.964  0.5028  0.3724 -0.0115
 5233TIP3    H215706   4.791   4.746   4.862  1.9297 -0.1787  1.6046
 5234TIP3   OH215707   4.632   0.470   4.457 -0.4232 -0.1826  0.0476
 5234TIP3    H115708   4.671   0.401   4.404 -1.2144 -0.1172 -0.6336
 5234TIP3    H215709   4.637   0.549   4.403  0.0492  0.2010  0.6346
 5235TIP3   OH215710   3.684   5.390   3.430  0.0219  0.1068 -0.1227
 5235TIP3    H115711   3.731   5.452   3.486  0.4763  0.0150 -0.4031
 5235TIP3    H215712   3.592   5.407   3.449  0.1804 -0.1591  0.9027
 5236TIP3   OH215713   2.453   3.331   2.012  0.2322  0.4384  0.0978
 5236TIP3    H115714   2.511   3.366   1.944 -0.7298 -0.9737 -1.4989
 5236TIP3    H215715   2.478   3.239   2.020 -1.4059 -0.0586 -0.2422
 5237TIP3   OH215716   5.568   1.734   2.812  0.1751 -0.2132  0.4875
 5237TIP3    H115717   5.558   1.657   2.868  2.9882  0.7547  2.5235
 5237TIP3    H215718   5.530   1.806   2.862  1.4533  0.4306  0.5495
 5238TIP3   OH215719   3.150   2.890   3.823 -0.3547  0.1783 -0.1091
 5238TIP3    H115720   3.207   2.945   3.878  1.8414 -1.6210 -0.4468
 5238TIP3    H215721   3.065   2.894   3.866  0.4996  1.3431  1.6126
 5239TIP3   OH215722   3.718   1.209   4.170 -0.0595 -0.4101  0.0516
 5239TIP3    H115723   3.722   1.150   4.095 -0.8813 -1.0253  0.4870
 5239TIP3    H215724   3.707   1.152   4.246  1.2940  0.1616  0.7288
 5240TIP3   OH215725   1.358   5.317   1.273 -0.0264 -0.6604 -0.2076
 5240TIP3    H115726   1.362   5.353   1.361  1.3935 -1.2839  0.0065
 5240TIP3    H215727   1.319   5.230   1.284 -2.3012  0.2439 -0.5683
 5241TIP3   OH215728   4.471   4.887   0.026  0.1592  0.6113  0.6977
 5241TIP3    H115729   4.545   4.944   0.044  0.0493  0.8976  0.2496
 5241TIP3    H215730   4.457   4.839   0.108  0.3562  1.1061  1.0229
 5242TIP3   OH215731   1.597   4.774   5.001 -0.1282 -0.1586 -0.3675
 5242TIP3    H115732   1.589   4.857   4.953 -0.7449 -0.2775 -0.4752
 5242TIP3    H215733   1.688   4.748   4.989 -0.0540  0.2636 -0.7331
 5243TIP3   OH215734   6.182   4.231   2.600 -0.1807  0.0379 -0.4861
 5243TIP3    H115735   6.108   4.259   2.547 -0.5918 -2.6508 -1.4850
 5243TIP3    H215736   6.143   4.190   2.677  0.1184 -2.6904 -1.6899
 5244TIP3   OH215737   2.619   4.702   4.187  0.3171  0.0087  0.0148
 5244TIP3    H115738   2.627   4.786   4.232  0.5661  0.4538 -0.8321
 5244TIP3    H215739   2.669   4.640   4.240 -0.0821  0.3376  0.7832
 5245TIP3   OH215740   2.174   1.322   0.272  0.2947  0.1209 -0.0552
 5245TIP3    H115741   2.120   1.338   0.194  0.1280 -1.2967 -0.2687
 5245TIP3    H215742   2.112   1.330   0.345 -0.4357 -2.1028 -0.3360
 5246TIP3   OH215743   2.514   4.589   3.902 -0.0993  0.9162 -0.6383
 5246TIP3    H115744   2.540   4.502   3.874 -0.5697  1.0817 -1.6356
 5246TIP3    H215745   2.583   4.617   3.962  0.2734  0.0367 -0.6428
 5247TIP3   OH215746   3.857   0.190   0.414 -0.4683  0.3489  0.3919
 5247TIP3    H115747   3.927   0.256   0.408 -0.8663  0.9539  2.0509
 5247TIP3    H215748   3.899   0.109   0.386  0.4826  0.9814 -0.0948
 5248TIP3   OH215749   4.752   2.213   4.228 -0.2655 -0.0854 -0.3690
 5248TIP3    H115750   4.717   2.300   4.212 -0.6971  0.1312  1.5860
 5248TIP3    H215751   4.728   2.193   4.318 -0.2729 -2.2848 -0.8005
 5249TIP3   OH215752   1.662   4.469   3.416 -0.2640  0.7171  0.1280
 5249TIP3    H115753   1.626   4.382   3.436  0.4069  0.3587 -0.1937
 5249TIP3    H215754   1.631   4.488   3.328  1.0611  0.0074 -0.5100
 5250TIP3   OH215755   6.125   4.061   4.132  0.1544  0.3125 -0.5986
 5250TIP3    H115756   6.175   3.987   4.165 -1.1168 -0.5136 -0.4238
 5250TIP3    H215757   6.157   4.136   4.182  1.0685 -0.2179 -0.3711
 5251TIP3   OH215758   2.555   5.927   2.939 -0.4553  0.6593  0.7983
 5251TIP3    H115759   2.602   5.993   2.889  2.5570 -0.3691  2.0401
 5251TIP3    H215760   2.523   5.974   3.017 -0.8878  1.2352  0.2788
 5252TIP3   OH215761   6.242   2.964   1.035  0.2826 -0.2867  0.2239
 5252TIP3    H115762   6.306   2.932   0.972  1.4306  0.8648  0.7527
 5252TIP3    H215763   6.174   2.897   1.036 -0.1609  0.0067 -2.7478
 5253TIP3   OH215764   3.295   3.671   3.588 -0.0270 -0.6106  0.4223
 5253TIP3    H115765   3.327   3.732   3.521  0.7510 -1.8655 -0.3887
 5253TIP3    H215766   3.308   3.585   3.549  3.1038 -1.6187  3.2072
 5254TIP3   OH215767   2.868   4.517   3.548 -0.5279 -0.1143 -0.5365
 5254TIP3    H115768   2.914   4.474   3.621 -0.5441  1.5345  0.5022
 5254TIP3    H215769   2.793   4.559   3.589 -0.0588  1.5759 -1.3261
 5255TIP3   OH215770   4.491   2.294   1.676 -0.4274 -0.3263  0.5588
 5255TIP3    H115771   4.502   2.325   1.766 -0.4450  1.2689  0.0378
 5255TIP3    H215772   4.442   2.364   1.632 -0.2115 -0.9694 -0.7627
 5256TIP3   OH215773   3.216   3.224   3.498  0.2057  0.5752 -0.4993
 5256TIP3    H115774   3.171   3.153   3.543  2.0735  0.4355  1.2682
 5256TIP3    H215775   3.273   3.180   3.434 -0.0284  0.5985 -0.7261
 5257TIP3   OH215776   0.573   0.292   4.293  0.4829  0.2552  0.5412
 5257TIP3    H115777   0.596   0.375   4.333  1.2657  0.1746  0.2835
 5257TIP3    H215778   0.598   0.302   4.201 -0.9840  0.3256  0.1200
 5258TIP3   OH215779   0.489   1.040   3.079 -0.1562 -0.3937  0.5911
 5258TIP3    H115780   0.555   1.020   3.146 -1.0090 -2.0636  0.9813
 5258TIP3    H215781   0.428   0.966   3.082 -2.2018  1.1876  0.3994
 5259TIP3   OH215782   4.812   0.754   1.442  0.7293  0.2761 -0.7047
 5259TIP3    H115783   4.864   0.798   1.509 -0.6573  2.0880 -0.7212
 5259TIP3    H215784   4.742   0.710   1.491  0.6025  0.3095 -0.8531
 5260TIP3   OH215785   0.019   5.128   2.082 -0.3825 -0.1975  0.4165
 5260TIP3    H115786  -0.014   5.039   2.068  0.7717 -1.0844  2.7004
 5260TIP3    H215787   0.101   5.115   2.131  0.6077  2.0869 -0.5156
 5261TIP3   OH215788   0.488   4.821   1.367  0.3647  0.0645  0.3730
 5261TIP3    H115789   0.432   4.743   1.363  0.7865 -0.2046 -0.6076
 5261TIP3    H215790   0.477   4.863   1.282 -0.2179  1.3554  1.0630
 5262TIP3   OH215791   3.140   3.750   1.512 -0.1771  0.2023  0.2968
 5262TIP3    H115792   3.080   3.824   1.508  0.3514  0.6276  0.1376
 5262TIP3    H215793   3.098   3.682   1.460 -0.4492  0.5495  0.0547
 5263TIP3   OH215794   6.059   5.377   1.348  0.1221  0.0160  0.1689
 5263TIP3    H115795   6.143   5.334   1.334 -0.5414 -0.8455 -1.4302
 5263TIP3    H215796   6.016   5.326   1.416  0.5818  0.0091  0.4550
 5264TIP3   OH215797   2.951   5.139   4.335 -0.3065 -0.1607  0.3882
 5264TIP3    H115798   2.908   5.133   4.250 -1.2438  0.5385  0.8014
 5264TIP3    H215799   2.938   5.052   4.374 -0.1307 -0.3876 -0.0390
 5265TIP3   OH215800   2.459   3.029   1.939  0.2892 -0.2653  0.4540
 5265TIP3    H115801   2.530   3.035   1.876  0.1294  1.6466  0.3955
 5265TIP3    H215802   2.379   3.041   1.887 -0.1085 -2.1455  0.5530
 5266TIP3   OH215803   0.583   2.672   4.234 -0.1913  0.2069 -0.3867
 5266TIP3    H115804   0.653   2.736   4.219 -0.5647  0.6146 -0.4099
 5266TIP3    H215805   0.502   2.724   4.234 -0.5441 -0.3303 -0.8972
 5267TIP3   OH215806   3.831   4.122   3.362 -0.5236  0.4644  0.4983
 5267TIP3    H115807   3.921   4.100   3.338 -0.0001  1.7376  1.2073
 5267TIP3    H215808   3.777   4.071   3.302  0.6791  1.0832 -1.1738
 5268TIP3   OH215809   3.968   2.409   0.418 -0.3356 -0.5475  0.6957
 5268TIP3    H115810   4.038   2.395   0.483  0.5687  1.0659  0.1369
 5268TIP3    H215811   3.995   2.357   0.343 -0.0962 -0.4663  0.7247
 5269TIP3   OH215812   3.982   1.325   1.111  0.0155  0.3953 -0.2542
 5269TIP3    H115813   3.926   1.393   1.072 -0.8275 -0.7254 -1.0544
 5269TIP3    H215814   4.063   1.328   1.060 -0.7781 -0.5288 -1.6237
 5270TIP3   OH215815   0.627   1.018   3.307 -0.1626  0.7302 -0.0526
 5270TIP3    H115816   0.707   1.066   3.329 -0.7983  2.7280 -1.7859
 5270TIP3    H215817   0.563   1.047   3.372 -0.0044  0.5973  0.1669
 5271TIP3   OH215818   2.822   0.583   4.036  0.1785  0.7570 -0.8709
 5271TIP3    H115819   2.790   0.575   4.126  3.0417  3.4268  0.5769
 5271TIP3    H215820   2.743   0.578   3.982 -1.6860 -0.6451  1.7665
 5272TIP3   OH215821   6.141   1.785   1.919 -0.3193 -0.3536  0.6291
 5272TIP3    H115822   6.114   1.696   1.943  0.5339 -0.9110 -0.4225
 5272TIP3    H215823   6.120   1.837   1.997 -1.9887 -1.2159  0.8214
 5273TIP3   OH215824   5.594   5.212   0.954  0.1413  0.1850 -0.3793
 5273TIP3    H115825   5.635   5.144   0.901  1.2357  1.0604 -0.7098
 5273TIP3    H215826   5.660   5.234   1.020 -0.7965 -0.1474  0.7027
 5274TIP3   OH215827   1.698   2.139   4.576 -0.0686  0.1193 -0.0237
 5274TIP3    H115828   1.632   2.081   4.538 -0.7452  0.5764  0.4317
 5274TIP3    H215829   1.761   2.153   4.505 -1.3821  1.0739 -1.0512
 5275TIP3   OH215830   5.816   4.744   1.659  0.9491 -0.2057  0.3942
 5275TIP3    H115831   5.786   4.687   1.730  3.0206  1.3441  2.7166
 5275TIP3    H215832   5.906   4.715   1.641  1.1712  0.7437 -0.1070
 5276TIP3   OH215833   2.699   4.650   4.433  0.5734  0.1006  0.1020
 5276TIP3    H115834   2.759   4.619   4.501  0.4755 -1.4942 -0.4884
 5276TIP3    H215835   2.613   4.651   4.476  0.6669  0.1090  0.2913
 5277TIP3   OH215836   5.803   0.844   3.324 -0.0576  0.0364 -0.4028
 5277TIP3    H115837   5.709   0.850   3.342  0.3357  1.0300  1.5973
 5277TIP3    H215838   5.809   0.845   3.229 -2.1407 -1.4216 -0.6207
 5278TIP3   OH215839   2.242   5.807   4.585 -0.2768  0.7652 -0.0371
 5278TIP3    H115840   2.222   5.788   4.677 -0.7056 -1.0891 -0.4705
 5278TIP3    H215841   2.329   5.846   4.587 -0.2192  0.6277  1.1455
 5279TIP3   OH215842   2.819   3.140   2.635  0.6026 -0.3302 -0.3723
 5279TIP3    H115843   2.854   3.228   2.647  0.0163  0.2415 -2.4426
 5279TIP3    H215844   2.866   3.106   2.559 -1.1463 -0.6941 -1.3349
 5280TIP3   OH215845   2.726   1.075   1.585 -0.3347  0.1092 -0.5827
 5280TIP3    H115846   2.812   1.035   1.575 -0.3558 -0.4856  1.2658
 5280TIP3    H215847   2.672   1.035   1.516  1.4288  2.4771 -3.6330
 5281TIP3   OH215848   0.950   3.590   4.622 -0.1001 -0.2540  0.2029
 5281TIP3    H115849   1.033   3.575   4.667  0.5181  0.1263 -0.7764
 5281TIP3    H215850   0.946   3.521   4.556  0.4255  0.8822 -1.0832
 5282TIP3   OH215851   1.535   0.913   4.416  0.5499  0.5576  0.2579
 5282TIP3    H115852   1.457   0.894   4.363  1.0097  0.9428 -0.5725
 5282TIP3    H215853   1.530   0.850   4.489  0.5339 -0.8020 -0.8708
 5283TIP3   OH215854   5.132   2.548   2.429 -0.7418  0.1986 -0.8661
 5283TIP3    H115855   5.099   2.607   2.496 -0.4000  1.5357 -1.8420
 5283TIP3    H215856   5.111   2.590   2.346 -0.4193 -1.0164 -1.5964
 5284TIP3   OH215857   1.162   4.801   2.284  0.4506  0.4427  0.3182
 5284TIP3    H115858   1.120   4.766   2.205  1.5638  0.3529 -0.2655
 5284TIP3    H215859   1.113   4.880   2.305 -0.8964 -0.4129  0.5167
 5285TIP3   OH215860   1.256   1.907   2.722 -0.2815 -0.2951  0.7463
 5285TIP3    H115861   1.223   1.819   2.739  0.5147 -0.5055  1.2686
 5285TIP3    H215862   1.220   1.961   2.793 -1.0832 -0.1028  0.2125
 5286TIP3   OH215863   6.163   0.163   4.509 -0.3496 -0.0602 -0.3077
 5286TIP3    H115864   6.208   0.177   4.426  1.9008 -1.4521  0.5689
 5286TIP3    H215865   6.178   0.243   4.559  1.1531 -0.4744 -0.0619
 5287TIP3   OH215866   3.908   4.630   1.991  0.4572 -0.2517  0.3711
 5287TIP3    H115867   3.992   4.588   1.970  0.7416  0.4679  0.0537
 5287TIP3    H215868   3.870   4.573   2.058 -0.0600 -2.0900 -1.4126
 5288TIP3   OH215869   4.163   3.994   0.892 -0.3019  0.8235 -0.6018
 5288TIP3    H115870   4.081   4.017   0.935 -2.2107 -2.7938 -1.9168
 5288TIP3    H215871   4.139   3.927   0.828  3.7579 -0.9294 -0.6026
 5289TIP3   OH215872   2.557   5.824   3.559  0.2001 -0.1996 -0.3612
 5289TIP3    H115873   2.593   5.889   3.499 -0.2022  1.2616  0.9070
 5289TIP3    H215874   2.464   5.820   3.538  0.1263  0.0446 -0.0928
 5290TIP3   OH215875   2.862   2.136   0.898  0.3282 -0.4076 -0.1934
 5290TIP3    H115876   2.955   2.116   0.896  0.7120  0.9094  1.6033
 5290TIP3    H215877   2.819   2.052   0.882  1.7872 -0.9930 -1.3273
 5291TIP3   OH215878   6.061   1.956   3.693  0.6521 -0.3049  0.0332
 5291TIP3    H115879   5.995   1.900   3.733  0.2730  0.3991  0.4124
 5291TIP3    H215880   6.120   1.895   3.648 -1.1592 -0.8376 -1.7308
 5292TIP3   OH215881   0.371   2.056   0.222  0.5485  0.8951 -0.5573
 5292TIP3    H115882   0.306   2.081   0.156 -0.6150 -0.9789 -0.2260
 5292TIP3    H215883   0.318   2.027   0.297  1.7953  0.4908  0.1998
 5293TIP3   OH215884   1.993   3.291   2.049 -0.1183  0.1134  0.4202
 5293TIP3    H115885   2.026   3.205   2.022  0.0483  0.5018 -0.6829
 5293TIP3    H215886   1.921   3.271   2.108 -1.5623 -0.8695 -1.5489
 5294TIP3   OH215887   3.538   4.777   4.183 -0.9260  0.2744  0.2821
 5294TIP3    H115888   3.579   4.696   4.212 -3.2604 -0.8998  0.5568
 5294TIP3    H215889   3.558   4.782   4.090  0.8140  0.4303  0.6206
 5295TIP3   OH215890   1.586   0.932   0.176 -0.3369  0.1835  0.7226
 5295TIP3    H115891   1.524   0.958   0.108 -1.0760  0.8279  1.6063
 5295TIP3    H215892   1.592   0.837   0.169 -0.9297  0.1842  0.1964
 5296TIP3   OH215893   1.283   1.254   5.115  0.1731 -0.4723  0.2275
 5296TIP3    H115894   1.335   1.291   5.186 -1.1662 -0.5950  1.3204
 5296TIP3    H215895   1.328   1.172   5.092  1.5457  0.3751 -0.2485
 5297TIP3   OH215896   4.290   2.957   0.246 -0.3008 -0.4526 -0.4776
 5297TIP3    H115897   4.287   3.047   0.278 -0.7187 -0.6917  0.1741
 5297TIP3    H215898   4.273   2.903   0.323  1.4015 -1.1677 -0.5577
 5298TIP3   OH215899   0.994   1.060   1.390 -0.1607  0.3763 -0.0104
 5298TIP3    H115900   1.007   1.033   1.299  0.5377  0.9246 -0.0825
 5298TIP3    H215901   0.944   1.141   1.384  1.1821  1.2473 -0.0051
 5299TIP3   OH215902   0.186   3.400   3.931 -0.2242 -0.0047  0.0337
 5299TIP3    H115903   0.176   3.494   3.947  0.4067  0.2980 -1.1760
 5299TIP3    H215904   0.112   3.377   3.875 -1.1927 -0.5701  1.4944
 5300TIP3   OH215905   4.134   1.332   3.507  0.2489  0.1976 -0.3757
 5300TIP3    H115906   4.119   1.310   3.599 -0.5038 -0.2814 -0.6032
 5300TIP3    H215907   4.185   1.258   3.473  1.8587  1.0715 -0.0003
 5301TIP3   OH215908   5.440   3.778   2.880  0.3907  0.4699  0.6192
 5301TIP3    H115909   5.504   3.845   2.857 -1.8065  1.4655 -3.6918
 5301TIP3    H215910   5.364   3.827   2.912 -0.9370  0.1553 -1.7971
 5302TIP3   OH215911   5.625   5.223   4.705 -0.2814  0.5980 -0.9858
 5302TIP3    H115912   5.705   5.258   4.744 -0.0772 -0.2596 -0.6245
 5302TIP3    H215913   5.653   5.149   4.652 -0.7170  0.9524 -1.7350
 5303TIP3   OH215914   4.186   3.319   3.992  0.0362 -0.0420 -0.4021
 5303TIP3    H115915   4.152   3.408   3.995 -0.0905 -0.1085  1.1090
 5303TIP3    H215916   4.148   3.282   3.912 -0.4062  1.0542 -0.7214
 5304TIP3   OH215917   4.454   1.037   0.703 -0.0089 -0.4708  0.2119
 5304TIP3    H115918   4.453   1.067   0.794  0.6533 -0.0172  0.0789
 5304TIP3    H215919   4.382   1.083   0.662  0.6868  0.5798  0.1303
 5305TIP3   OH215920   5.883   3.929   2.357  0.1048  0.1489 -0.0797
 5305TIP3    H115921   5.892   3.977   2.440 -0.7005  0.0444  0.0810
 5305TIP3    H215922   5.886   3.997   2.290 -1.3463  0.4951  0.1652
 5306TIP3   OH215923   4.237   2.462   1.329 -0.0052 -0.4374  0.1447
 5306TIP3    H115924   4.295   2.398   1.288 -1.8862 -0.9805 -1.8911
 5306TIP3    H215925   4.168   2.410   1.370  0.0334  0.2251  1.0768
 5307TIP3   OH215926   1.150   5.927   1.319 -0.2612 -0.6276 -0.3109
 5307TIP3    H115927   1.062   5.964   1.313  0.6728  1.6314 -1.0701
 5307TIP3    H215928   1.166   5.918   1.413 -0.2615  1.7725 -0.0137
 5308TIP3   OH215929   1.979   2.289   3.388  0.0707  0.1626 -0.4324
 5308TIP3    H115930   1.975   2.379   3.419 -0.4107  1.0540 -2.8309
 5308TIP3    H215931   2.053   2.250   3.435  1.8738  2.5413 -1.1108
 5309TIP3   OH215932   3.679   2.965   5.140 -0.5587  0.7085  0.1702
 5309TIP3    H115933   3.742   2.930   5.202  0.0759 -0.5133 -1.0953
 5309TIP3    H215934   3.657   2.890   5.084  0.8131  2.2348 -2.6458
 5310TIP3   OH215935   2.049   3.571   4.654 -0.0454 -0.1792 -0.0296
 5310TIP3    H115936   2.080   3.494   4.607  0.9494  0.2114 -0.0206
 5310TIP3    H215937   2.022   3.632   4.585  2.4669  0.8454 -0.2009
 5311TIP3   OH215938   2.495   5.455   3.856 -0.1220  0.4421  0.6097
 5311TIP3    H115939   2.589   5.443   3.871  0.1017  0.8721 -0.4064
 5311TIP3    H215940   2.478   5.545   3.884 -0.2527  0.3375  0.8703
 5312TIP3   OH215941   1.107  -0.010   5.022  1.0151 -0.3364  0.0859
 5312TIP3    H115942   1.041   0.048   5.061  0.5938 -0.9370  0.2919
 5312TIP3    H215943   1.124   0.027   4.936 -0.0592 -0.5157 -0.2136
 5313TIP3   OH215944   1.222   2.514   4.037  0.3314 -0.5751 -0.1191
 5313TIP3    H115945   1.137   2.473   4.054 -0.7819  1.7175  0.2667
 5313TIP3    H215946   1.243   2.561   4.117  1.1407  0.2509 -0.7882
 5314TIP3   OH215947   5.828   4.664   1.297 -0.1115 -0.3075  0.1111
 5314TIP3    H115948   5.817   4.745   1.347 -0.0519  0.0202 -0.4012
 5314TIP3    H215949   5.750   4.612   1.319 -1.8597  1.2140 -2.0339
 5315TIP3   OH215950   5.903   0.287   4.848  0.0292  0.2625  0.0923
 5315TIP3    H115951   5.926   0.370   4.806 -0.1278  1.1388  1.6647
 5315TIP3    H215952   5.850   0.313   4.924  1.0466 -1.1964  1.3393
 5316TIP3   OH215953   1.607   3.454   4.172  0.7254  0.4163 -0.1450
 5316TIP3    H115954   1.689   3.407   4.158 -0.0005 -0.2902 -2.4360
 5316TIP3    H215955   1.585   3.490   4.086 -1.6448  0.1270  0.2733
 5317TIP3   OH215956   2.734   3.351   4.925 -0.3650 -0.2998 -0.2649
 5317TIP3    H115957   2.821   3.314   4.935  0.2595  1.1495 -0.1685
 5317TIP3    H215958   2.714   3.341   4.832  0.2610  0.1336 -0.4500
 5318TIP3   OH215959   4.529   2.489   1.891 -0.3030  0.1853  0.3463
 5318TIP3    H115960   4.493   2.578   1.896 -0.6656  0.2281 -1.8775
 5318TIP3    H215961   4.601   2.496   1.829 -0.4070 -1.0962  0.0575
 5319TIP3   OH215962   2.902   1.058   0.599  0.0128  0.1426 -0.3201
 5319TIP3    H115963   2.875   1.139   0.556  0.7876  0.0880 -0.9380
 5319TIP3    H215964   2.985   1.080   0.642  0.2512 -0.3281 -0.5280
 5320TIP3   OH215965   1.133   4.100   0.329  0.1146  0.6574 -0.3310
 5320TIP3    H115966   1.057   4.125   0.382 -0.3436  1.7296 -1.4473
 5320TIP3    H215967   1.208   4.119   0.385 -0.4135 -1.6479  1.3030
 5321TIP3   OH215968   1.683   2.869   0.346  0.5485 -0.1133 -0.1768
 5321TIP3    H115969   1.630   2.901   0.273  0.8785 -2.7461 -1.6919
 5321TIP3    H215970   1.638   2.791   0.376  0.0482  1.2503  3.0168
 5322TIP3   OH215971   3.300   3.029   0.150 -0.0780  0.0766 -0.5432
 5322TIP3    H115972   3.348   3.043   0.232 -0.4932 -0.2067 -0.2504
 5322TIP3    H215973   3.365   2.991   0.090  0.2482  0.3635 -0.3749
 5323TIP3   OH215974   3.508   5.916   3.399 -0.5370  0.2291  0.4315
 5323TIP3    H115975   3.594   5.935   3.362 -0.5022  0.8452  0.8087
 5323TIP3    H215976   3.449   5.975   3.353 -0.7808 -0.2670  0.1000
 5324TIP3   OH215977   4.907   1.703   1.978 -0.1316 -0.1333 -0.2977
 5324TIP3    H115978   4.975   1.769   1.966 -0.5400 -0.0787 -2.8306
 5324TIP3    H215979   4.925   1.638   1.910  0.4579 -2.9034  2.2835
 5325TIP3   OH215980   0.076   3.913   2.379 -0.3264  0.0428 -0.2490
 5325TIP3    H115981   0.079   3.819   2.362  1.3030 -0.0432  0.2803
 5325TIP3    H215982   0.089   3.953   2.293  1.8899 -0.3005 -0.1395
 5326TIP3   OH215983   0.187   2.222   3.627 -0.1186 -0.0982  0.0634
 5326TIP3    H115984   0.154   2.158   3.690  0.4410 -0.0239  0.4446
 5326TIP3    H215985   0.220   2.293   3.681 -0.8994  0.6066 -0.3603
 5327TIP3   OH215986   1.970   4.825   1.687  0.6363 -0.0853  0.5623
 5327TIP3    H115987   1.972   4.747   1.743  0.9753  0.1215  0.8338
 5327TIP3    H215988   1.951   4.790   1.600 -0.7111 -0.3365  0.9270
 5328TIP3   OH215989   6.209   4.264   4.278 -0.2188  0.1631 -0.8254
 5328TIP3    H115990   6.291   4.312   4.283  0.1616 -0.5805  0.3268
 5328TIP3    H215991   6.144   4.325   4.314 -0.2190  0.7999 -1.8565
 5329TIP3   OH215992   4.067   0.202   3.083 -1.2987  0.1835 -0.2911
 5329TIP3    H115993   4.132   0.270   3.099 -0.3403 -0.1278 -2.4478
 5329TIP3    H215994   4.028   0.185   3.169  0.3715  1.4849  0.7923
 5330TIP3   OH215995   4.120   0.117   1.051  0.2356  0.2859 -0.0849
 5330TIP3    H115996   4.025   0.126   1.041  0.3467  1.0850 -0.4558
 5330TIP3    H215997   4.136   0.023   1.039 -0.4168  0.2474 -0.7339
 5331TIP3   OH215998   0.617   0.555   4.395 -0.3703 -0.1376  0.1655
 5331TIP3    H115999   0.555   0.577   4.465  1.3971 -0.4549  1.9375
 5331TIP3    H216000   0.702   0.555   4.439  0.5829 -2.6113 -1.4944
 5332TIP3   OH216001   1.301   4.534   3.297  0.4730 -0.3080  0.7630
 5332TIP3    H116002   1.283   4.627   3.311 -2.0504 -0.3822 -1.2249
 5332TIP3    H216003   1.303   4.525   3.202  1.2584 -2.2137  0.9215
 5333TIP3   OH216004   2.958   5.788   4.152 -0.9707 -0.1844  0.0205
 5333TIP3    H116005   3.035   5.785   4.097 -1.2674  0.4651 -0.4433
 5333TIP3    H216006   2.960   5.875   4.192 -0.8092 -0.6064  0.9773
 5334TIP3   OH216007   4.564   4.406   0.627  0.3281  0.1097  0.0902
 5334TIP3    H116008   4.646   4.378   0.669 -0.0653  0.3323  1.0248
 5334TIP3    H216009   4.568   4.367   0.540  0.7344 -1.1327  0.6382
 5335TIP3   OH216010   5.630   5.115   0.218  0.4806 -0.1387  0.9158
 5335TIP3    H116011   5.646   5.205   0.245 -0.2392 -0.2162  1.6275
 5335TIP3    H216012   5.694   5.063   0.266  2.9772  0.2326 -1.7393
 5336TIP3   OH216013   3.334   5.426   5.146 -0.5503 -0.1174  0.0739
 5336TIP3    H116014   3.426   5.440   5.121 -0.9736  0.0333 -1.4879
 5336TIP3    H216015   3.325   5.469   5.231  0.9501 -0.5622  0.4867
 5337TIP3   OH216016   0.696   0.459   4.660 -0.3841 -0.7970  0.0249
 5337TIP3    H116017   0.639   0.383   4.669  1.1404 -1.9127  0.8844
 5337TIP3    H216018   0.672   0.516   4.732 -0.7033 -1.0554  0.1264
 5338TIP3   OH216019   0.088   0.843   0.926  0.1190  0.0987 -0.6387
 5338TIP3    H116020   0.180   0.847   0.898  0.7298 -0.1556  1.1927
 5338TIP3    H216021   0.054   0.762   0.887  0.7381  0.0765 -1.1448
 5339TIP3   OH216022   5.445   2.813   0.260  0.0358 -0.0817  0.0887
 5339TIP3    H116023   5.485   2.900   0.260 -1.0632  0.4452  1.0075
 5339TIP3    H216024   5.382   2.815   0.332  0.3787 -1.8275  0.5039
 5340TIP3   OH216025   1.402   1.448   4.270  0.1666  0.2015 -0.8002
 5340TIP3    H116026   1.372   1.458   4.180  0.3188 -0.6945 -0.9510
 5340TIP3    H216027   1.389   1.356   4.290  0.6432  0.2832 -0.0814
 5341TIP3   OH216028   5.720   2.158   3.075 -0.1143 -0.2260  0.3923
 5341TIP3    H116029   5.738   2.142   2.983  0.7002  0.3929  0.4329
 5341TIP3    H216030   5.762   2.086   3.121 -0.5101 -0.5284  0.2893
 5342TIP3   OH216031   2.814   3.829   2.623 -0.0301  0.3068 -0.2758
 5342TIP3    H116032   2.743   3.765   2.613  0.1899  0.0608 -0.2809
 5342TIP3    H216033   2.872   3.810   2.549 -0.7842  1.5853 -1.2530
 5343TIP3   OH216034   2.580   4.123   0.313 -0.2785  0.1930 -0.3245
 5343TIP3    H116035   2.660   4.170   0.336  1.1200 -2.6842  1.1915
 5343TIP3    H216036   2.588   4.106   0.219  0.3629  0.8512 -0.3976
 5344TIP3   OH216037   0.120   2.581   2.908 -0.7489  0.2185 -0.7503
 5344TIP3    H116038   0.065   2.507   2.931  0.2053 -0.4595 -0.5833
 5344TIP3    H216039   0.164   2.554   2.827 -1.2153  1.0504 -1.2970
 5345TIP3   OH216040   1.183   1.419   2.246  0.1036 -0.1275  0.5413
 5345TIP3    H116041   1.275   1.402   2.226 -0.4561 -0.5610 -2.2102
 5345TIP3    H216042   1.174   1.514   2.241  0.2887 -0.1320 -0.0359
 5346TIP3   OH216043   4.602   0.272   4.779  0.6141 -0.6180  0.2660
 5346TIP3    H116044   4.596   0.219   4.699  0.1588  0.8669 -0.7330
 5346TIP3    H216045   4.692   0.304   4.780  0.4490 -0.1234 -0.0218
 5347TIP3   OH216046   2.382   1.286   5.113 -0.3099  0.5058 -0.4756
 5347TIP3    H116047   2.360   1.362   5.058 -0.1271  0.4739 -0.5932
 5347TIP3    H216048   2.478   1.287   5.118 -0.1341 -1.0584 -2.3993
 5348TIP3   OH216049   1.016   1.097   4.198 -0.0360 -0.2207 -0.2413
 5348TIP3    H116050   1.077   1.125   4.266 -0.0545  0.5167 -0.5118
 5348TIP3    H216051   1.072   1.063   4.128  0.1735  1.5385 -0.9851
 5349TIP3   OH216052   4.742   3.961   0.581 -0.4758 -0.8491  0.3491
 5349TIP3    H116053   4.783   3.937   0.498 -0.5980  0.7877 -0.2299
 5349TIP3    H216054   4.815   3.973   0.641 -0.2535 -0.3129 -0.0159
 5350TIP3   OH216055   5.311   0.432   2.025 -0.4213 -0.6005 -0.6110
 5350TIP3    H116056   5.380   0.366   2.021  0.2601 -0.0752  1.5822
 5350TIP3    H216057   5.350   0.510   1.984  0.6311 -0.0758  1.2695
 5351TIP3   OH216058   0.146   0.442   3.782  0.5202  0.2576 -0.0381
 5351TIP3    H116059   0.129   0.421   3.873  0.5777 -0.8142 -0.2663
 5351TIP3    H216060   0.118   0.533   3.773  1.1059  0.5823  1.1988
 5352TIP3   OH216061   5.076   1.481   4.662  0.4797  0.1001 -0.4512
 5352TIP3    H116062   5.001   1.525   4.622  0.0783 -0.5248 -0.3877
 5352TIP3    H216063   5.073   1.506   4.754  1.6557  1.8973 -0.8562
 5353TIP3   OH216064   2.162   5.816   1.236  0.4838  0.7064 -0.4470
 5353TIP3    H116065   2.099   5.790   1.303  0.0655 -0.7318 -1.3687
 5353TIP3    H216066   2.247   5.791   1.271  0.2069 -0.6697 -0.7238
 5354TIP3   OH216067   1.462   1.130   3.893 -0.3051 -0.6281 -0.7213
 5354TIP3    H116068   1.377   1.152   3.931 -0.3133 -0.8783 -0.5926
 5354TIP3    H216069   1.497   1.061   3.950  0.4902  0.2675 -0.1071
 5355TIP3   OH216070   3.819   2.029   1.824 -0.1139 -0.5702  0.2995
 5355TIP3    H116071   3.898   1.975   1.819  0.0040 -0.3573 -0.2997
 5355TIP3    H216072   3.810   2.050   1.916  0.2798 -0.9651  0.4339
 5356TIP3   OH216073   4.638   3.542   1.274  0.1965 -0.0569  0.0442
 5356TIP3    H116074   4.603   3.461   1.238  1.5541 -1.2044  1.1942
 5356TIP3    H216075   4.621   3.536   1.368 -1.0300  1.7212 -0.0069
 5357TIP3   OH216076   5.536   3.963   3.182 -0.7183 -0.2447 -0.3556
 5357TIP3    H116077   5.451   3.931   3.213 -0.1235 -1.6677 -0.1014
 5357TIP3    H216078   5.597   3.891   3.201  0.5497  0.7539 -0.5222
 5358TIP3   OH216079   5.278   4.853   0.475  0.4824 -0.0803 -0.4894
 5358TIP3    H116080   5.347   4.853   0.409  1.5336 -0.0080  0.5682
 5358TIP3    H216081   5.314   4.905   0.548  0.0383 -1.5172  0.8065
 5359TIP3   OH216082   5.477   3.306   3.768 -0.2355  1.2018 -0.5553
 5359TIP3    H116083   5.388   3.288   3.798  0.5955 -1.6186  0.5278
 5359TIP3    H216084   5.491   3.245   3.696  1.7030 -0.6241  1.1954
 5360TIP3   OH216085   4.203   3.614   3.183 -0.1686 -0.1133 -0.3646
 5360TIP3    H116086   4.156   3.557   3.122 -1.1235  0.7266 -0.4512
 5360TIP3    H216087   4.209   3.698   3.138  1.3811 -0.1651 -0.3161
 5361TIP3   OH216088   1.068   2.759   1.872  0.1021  0.3776  0.0420
 5361TIP3    H116089   0.974   2.743   1.883 -0.0704  0.0009 -1.6791
 5361TIP3    H216090   1.097   2.792   1.957 -1.6265  0.7012  0.5401
 5362TIP3   OH216091   4.442   1.583   4.797 -0.2597 -0.2783  0.4703
 5362TIP3    H116092   4.511   1.543   4.744  0.8717  1.7409  0.3370
 5362TIP3    H216093   4.393   1.637   4.736 -1.0542 -0.5600  0.8488
 5363TIP3   OH216094   0.347   4.720   4.380 -0.3664 -0.1952 -0.3303
 5363TIP3    H116095   0.333   4.666   4.458 -1.7483 -0.2250 -0.5776
 5363TIP3    H216096   0.416   4.675   4.332  0.3766 -0.2790  0.7690
 5364TIP3   OH216097   4.837   0.044   4.198  0.2807  1.0202  0.0972
 5364TIP3    H116098   4.796  -0.042   4.187  0.3073  0.6123  2.6848
 5364TIP3    H216099   4.925   0.025   4.230  0.7254  2.0074 -0.4952
 5365TIP3   OH216100   1.842   4.280   5.165  0.1236 -0.1698 -0.2497
 5365TIP3    H116101   1.845   4.374   5.144 -1.6530 -0.2768 -1.1696
 5365TIP3    H216102   1.884   4.238   5.090  0.1606 -0.1558 -0.2370
 5366TIP3   OH216103   3.383   2.801   5.129 -0.0896 -0.7845 -0.0096
 5366TIP3    H116104   3.375   2.706   5.121  0.9469 -0.9230  0.4330
 5366TIP3    H216105   3.474   2.816   5.153 -0.6832  0.1999  1.8793
 5367TIP3   OH216106   2.029   3.139   5.091 -0.0127 -0.0651  0.5353
 5367TIP3    H116107   2.094   3.102   5.151 -1.1542 -2.1076  0.5792
 5367TIP3    H216108   2.048   3.099   5.006  0.7236  1.7652 -0.2379
 5368TIP3   OH216109   6.125   0.633   5.086 -0.0204  0.3693 -0.3172
 5368TIP3    H116110   6.094   0.716   5.121 -2.0962 -0.3727 -0.2668
 5368TIP3    H216111   6.188   0.658   5.018  2.8252  1.8766  2.5864
 5369TIP3   OH216112   3.800   4.860   4.178 -0.2063  0.1498  0.3023
 5369TIP3    H116113   3.870   4.921   4.199 -0.4337  0.8793 -0.9366
 5369TIP3    H216114   3.720   4.905   4.204 -0.2271 -0.8856  2.1787
 5370TIP3   OH216115   5.973   3.175   3.067  0.0665 -0.2877 -0.2646
 5370TIP3    H116116   6.012   3.104   3.015 -1.5075 -1.8252  0.5434
 5370TIP3    H216117   5.900   3.207   3.013 -0.0682 -0.2267 -0.0482
 5371TIP3   OH216118   2.774   1.871   4.368 -0.3289  0.4845  0.1390
 5371TIP3    H116119   2.740   1.795   4.321 -1.1589  0.5523  0.5938
 5371TIP3    H216120   2.830   1.834   4.436 -1.3897  0.2079  0.8899
 5372TIP3   OH216121   0.650   2.433   0.279  0.0378  0.2602 -0.2712
 5372TIP3    H116122   0.575   2.482   0.315 -1.2693 -1.3201 -0.7215
 5372TIP3    H216123   0.612   2.351   0.249  1.8589 -0.2719 -1.2315
 5373TIP3   OH216124   1.589   2.434   2.301 -0.2598 -0.2319 -0.1855
 5373TIP3    H116125   1.548   2.359   2.345  1.6916 -1.5698 -0.5438
 5373TIP3    H216126   1.648   2.471   2.367  1.3717 -1.1756 -1.0644
 5374TIP3   OH216127   4.290   0.479   0.256 -0.5681 -0.2636 -0.6100
 5374TIP3    H116128   4.365   0.458   0.312 -0.5766 -0.1038 -0.5377
 5374TIP3    H216129   4.307   0.432   0.174 -1.4834 -2.0426  0.1692
 5375TIP3   OH216130   0.183   3.112   3.402  0.7624 -0.1691 -0.1545
 5375TIP3    H116131   0.099   3.147   3.432  1.3905  0.2918  1.1680
 5375TIP3    H216132   0.192   3.146   3.313 -1.0354 -1.3256 -0.8281
 5376TIP3   OH216133   0.064   1.142   0.194 -0.4332 -0.4208 -0.4029
 5376TIP3    H116134   0.021   1.215   0.238 -0.0009 -1.5405  2.0419
 5376TIP3    H216135   0.015   1.065   0.223 -0.0467 -1.2429 -1.8428
 5377TIP3   OH216136   6.020   3.612   2.588  0.5605  0.9562 -0.3539
 5377TIP3    H116137   6.112   3.639   2.594  0.3916  1.2793  1.2584
 5377TIP3    H216138   6.021   3.519   2.612  0.7158  0.3410 -2.5595
 5378TIP3   OH216139   2.155   2.915   0.569 -0.1981  0.6578 -0.3375
 5378TIP3    H116140   2.119   2.963   0.643  0.8939 -1.3267  1.5923
 5378TIP3    H216141   2.084   2.857   0.541  0.3154 -0.7966  1.2323
 5379TIP3   OH216142   2.150   2.058   0.084 -0.1886 -0.5973 -0.0487
 5379TIP3    H116143   2.231   2.007   0.090  1.9491  2.5902  0.7816
 5379TIP3    H216144   2.124   2.051  -0.008  1.1171 -1.5803 -0.3681
 5380TIP3   OH216145   3.904   0.367   1.984 -0.2320  1.0236 -0.3668
 5380TIP3    H116146   3.840   0.437   1.992 -1.4540 -0.0092 -0.7539
 5380TIP3    H216147   3.980   0.409   1.942 -0.2904  2.4586  0.8722
 5381TIP3   OH216148   0.938   4.557   1.128 -0.3415  0.1875  0.1429
 5381TIP3    H116149   0.965   4.494   1.195 -1.2237 -1.6987 -1.1857
 5381TIP3    H216150   0.915   4.636   1.178 -0.2099 -0.8762  1.9817
 5382TIP3   OH216151   5.586   3.534   2.882  0.5676 -0.1903  0.7134
 5382TIP3    H116152   5.606   3.503   2.971  1.2126  0.3532  0.7639
 5382TIP3    H216153   5.522   3.604   2.895 -0.9519 -1.4985  0.5947
 5383TIP3   OH216154   0.347   5.015   2.987  0.5250 -0.2387  0.3606
 5383TIP3    H116155   0.433   5.005   3.027  0.4790 -0.5000  0.3972
 5383TIP3    H216156   0.363   5.065   2.907  0.5409  0.8060  0.9900
 5384TIP3   OH216157   5.661   2.609   2.408 -0.1018  0.3016  0.4671
 5384TIP3    H116158   5.580   2.576   2.367  0.1334  1.8433 -1.3900
 5384TIP3    H216159   5.631   2.671   2.474 -0.4581 -0.0361  0.6237
 5385TIP3   OH216160   3.478   0.932   3.060  0.6104  0.3182  0.3553
 5385TIP3    H116161   3.391   0.915   3.024  0.1935 -0.2426  1.5699
 5385TIP3    H216162   3.513   1.004   3.006 -0.8882  1.0346  0.2969
 5386TIP3   OH216163   4.531   1.220   5.059  0.0018  0.1935 -0.3775
 5386TIP3    H116164   4.469   1.176   5.117  0.4840  0.1494  0.1128
 5386TIP3    H216165   4.495   1.207   4.971 -1.6100  1.6233 -0.0009
 5387TIP3   OH216166   5.225   0.726   5.016 -0.4938  0.2427  0.3664
 5387TIP3    H116167   5.146   0.712   4.965  0.6580 -1.9290 -0.9588
 5387TIP3    H216168   5.237   0.645   5.066  1.3397  0.1303 -0.1657
 5388TIP3   OH216169   0.735   0.535   1.087 -0.2458  0.4343 -0.4382
 5388TIP3    H116170   0.689   0.452   1.074 -2.3179  1.1615  1.6431
 5388TIP3    H216171   0.796   0.517   1.158 -1.0403  0.7637  0.3507
 5389TIP3   OH216172   5.539   1.649   2.535 -0.4909  0.0540 -0.3156
 5389TIP3    H116173   5.603   1.660   2.465  0.0622 -1.2939 -0.0545
 5389TIP3    H216174   5.576   1.697   2.609 -0.5969  0.6468 -0.6360
 5390TIP3   OH216175   2.700   2.211   3.765 -0.2320 -0.1983 -0.1575
 5390TIP3    H116176   2.700   2.115   3.757 -3.1005 -0.6808  2.9581
 5390TIP3    H216177   2.734   2.227   3.854 -1.7978  1.4423  0.2003
 5391TIP3   OH216178   4.645   2.758   2.718  0.3306  0.2010  0.3818
 5391TIP3    H116179   4.665   2.834   2.663 -1.7349  1.3952  1.1581
 5391TIP3    H216180   4.670   2.785   2.807 -1.4324  0.4520  0.8376
 5392TIP3   OH216181   1.940   4.120   0.211  0.0207 -0.0210 -0.1576
 5392TIP3    H116182   2.032   4.137   0.233  0.4721 -0.2717 -1.7252
 5392TIP3    H216183   1.936   4.026   0.195  0.2688  0.4019 -3.2388
 5393TIP3   OH216184   1.815   5.453   4.592  0.0318 -0.1112 -0.0881
 5393TIP3    H116185   1.882   5.403   4.638 -1.0434  0.5702  2.3765
 5393TIP3    H216186   1.737   5.397   4.596 -0.0310 -0.1576 -1.4140
 5394TIP3   OH216187   0.698   0.111   1.260 -0.2535  0.3139  0.3119
 5394TIP3    H116188   0.768   0.047   1.247  0.4664  1.1781 -0.1993
 5394TIP3    H216189   0.637   0.096   1.188 -1.2255 -1.1997  1.3897
 5395TIP3   OH216190   1.967   5.233   3.726  0.7770  0.1693 -0.3618
 5395TIP3    H116191   1.890   5.289   3.741  0.8357 -0.1385  1.2653
 5395TIP3    H216192   2.037   5.293   3.703  0.1373  0.4795 -1.5949
 5396TIP3   OH216193   4.794   0.254   2.547  0.1015  0.2237  0.0528
 5396TIP3    H116194   4.860   0.218   2.487 -1.0145 -0.5683 -0.7263
 5396TIP3    H216195   4.788   0.346   2.524  0.4783  0.1611 -0.3005
 5397TIP3   OH216196   1.931   5.127   1.551 -0.1458  0.6481  0.4361
 5397TIP3    H116197   1.889   5.149   1.468  1.8533 -0.6611 -1.0278
 5397TIP3    H216198   1.876   5.059   1.588 -0.3128  0.2053 -0.5725
 5398TIP3   OH216199   0.094   5.609   1.312  0.2502 -0.4666 -0.0608
 5398TIP3    H116200   0.115   5.554   1.387  0.7883 -0.7371 -0.4024
 5398TIP3    H216201   0.041   5.552   1.255 -1.2603  0.1370  0.6875
 5399TIP3   OH216202   3.665   2.994   2.824 -0.1609 -0.1184  0.9848
 5399TIP3    H116203   3.598   3.036   2.878 -1.2257 -1.1787  0.5281
 5399TIP3    H216204   3.723   3.066   2.798 -0.7828  0.7277  1.8540
 5400TIP3   OH216205   1.652   3.045   1.327  0.1791 -0.0519 -0.2489
 5400TIP3    H116206   1.633   2.953   1.310 -1.0573  0.4201 -1.6776
 5400TIP3    H216207   1.593   3.093   1.268  1.3280  1.6427 -0.1012
 5401TIP3   OH216208   0.486   5.792   0.116 -0.7917 -0.4875 -0.2573
 5401TIP3    H116209   0.510   5.869   0.167 -0.0205 -1.7453  1.3795
 5401TIP3    H216210   0.551   5.789   0.046  1.3592 -1.4658  1.6486
 5402TIP3   OH216211   1.263   1.009   1.374  0.1859  0.1164 -0.5100
 5402TIP3    H116212   1.177   1.041   1.402  0.4431 -0.7147  1.3394
 5402TIP3    H216213   1.324   1.077   1.404  0.4539 -0.7300  0.9191
 5403TIP3   OH216214   1.570   1.561   3.965  0.0434  0.2197  0.3639
 5403TIP3    H116215   1.482   1.545   4.001  0.9677 -1.3985  2.0686
 5403TIP3    H216216   1.554   1.605   3.882 -2.3366  1.6729  1.4534
 5404TIP3   OH216217   1.317   0.757   4.628 -0.5330 -0.3416  0.1602
 5404TIP3    H116218   1.383   0.740   4.695 -1.5849  0.1689  1.3590
 5404TIP3    H216219   1.350   0.712   4.550 -0.0058 -2.3011  1.4228
 5405TIP3   OH216220   0.829   4.136   3.119  0.7920  0.1675 -0.3764
 5405TIP3    H116221   0.799   4.227   3.124  1.7458  0.6319 -2.0598
 5405TIP3    H216222   0.919   4.142   3.087  0.5530 -1.3783 -1.5125
 5406TIP3   OH216223   1.820   1.300   2.521 -0.3668 -0.0740 -0.2057
 5406TIP3    H116224   1.837   1.389   2.492 -0.2828  0.9660  2.6841
 5406TIP3    H216225   1.725   1.290   2.515 -0.4311  0.4220 -0.0863
 5407TIP3   OH216226   3.201   0.392   2.867  0.5330  0.1512  0.2218
 5407TIP3    H116227   3.161   0.467   2.823 -0.4300 -0.0224  0.7694
 5407TIP3    H216228   3.128   0.349   2.912  1.1876 -0.7257  0.4718
 5408TIP3   OH216229   4.961   3.252   3.730  0.3151  0.3032  0.6083
 5408TIP3    H116230   4.924   3.331   3.690  0.8949  0.7353  0.9146
 5408TIP3    H216231   4.899   3.183   3.708 -1.2743  1.2031  2.0719
 5409TIP3   OH216232   1.700   1.090   1.355  0.0834 -0.1409  0.2116
 5409TIP3    H116233   1.718   1.125   1.268 -0.3746  0.3622  0.3125
 5409TIP3    H216234   1.606   1.105   1.368  0.6109  2.2676  1.8395
 5410TIP3   OH216235   5.338   1.638   2.299 -0.3069 -0.7215  0.5087
 5410TIP3    H116236   5.368   1.671   2.383  0.9614 -0.0887 -0.1527
 5410TIP3    H216237   5.411   1.584   2.267 -0.5716 -0.5874 -0.3649
 5411TIP3   OH216238   6.205   3.980   4.476 -0.1083 -0.2636  0.0259
 5411TIP3    H116239   6.177   3.920   4.545 -1.6457 -1.4014 -1.4945
 5411TIP3    H216240   6.301   3.975   4.477 -0.1699 -2.3396  0.3263
 5412TIP3   OH216241   2.631   4.951   5.091  0.2911  0.3175  0.5149
 5412TIP3    H116242   2.544   4.972   5.055  0.4984 -1.4197 -1.1977
 5412TIP3    H216243   2.612   4.897   5.168 -0.1387  2.5817  2.0846
 5413TIP3   OH216244   5.013   4.235   1.944 -0.1638  0.1571  0.0771
 5413TIP3    H116245   5.060   4.298   1.999 -0.2030 -1.0230  1.5212
 5413TIP3    H216246   4.956   4.289   1.890  2.9377  1.7054 -1.9853
 5414TIP3   OH216247   0.164   2.477   1.569  0.0036  0.0703  0.0539
 5414TIP3    H116248   0.107   2.415   1.523 -0.0526  1.4598 -1.8932
 5414TIP3    H216249   0.133   2.563   1.541  1.5943  0.9219  0.7789
 5415TIP3   OH216250   4.865   4.711   3.674  0.5735 -0.5049 -0.1088
 5415TIP3    H116251   4.788   4.723   3.618 -1.2994 -0.6218  2.2632
 5415TIP3    H216252   4.909   4.796   3.675  0.1849 -0.2893 -1.0996
 5416TIP3   OH216253   0.106   2.194   2.258 -0.0564 -0.1282 -0.5089
 5416TIP3    H116254   0.035   2.158   2.310  0.8549 -0.2651  0.6779
 5416TIP3    H216255   0.174   2.126   2.259  1.2224  1.0990  0.7770
 5417TIP3   OH216256   1.686   5.389   0.649  0.2078  0.0748  0.0048
 5417TIP3    H116257   1.639   5.323   0.700 -1.3030  1.3461  0.3379
 5417TIP3    H216258   1.618   5.449   0.620  1.5456  1.5379 -0.2139
 5418TIP3   OH216259   2.069   2.325   4.717 -0.0091 -0.0731  0.1432
 5418TIP3    H116260   2.038   2.291   4.633  1.2751 -0.1555 -0.3078
 5418TIP3    H216261   2.068   2.420   4.706  1.9109 -0.0993 -0.6553
 5419TIP3   OH216262   2.073   5.570   1.432 -0.1509 -0.3154 -0.5797
 5419TIP3    H116263   2.165   5.558   1.453 -0.2814  0.8507  0.8385
 5419TIP3    H216264   2.052   5.499   1.372  1.4969 -0.9849 -0.4021
 5420TIP3   OH216265   1.781   0.264   3.272  0.8142  0.3205  0.5612
 5420TIP3    H116266   1.764   0.173   3.296 -1.4865  0.6949  0.5903
 5420TIP3    H216267   1.703   0.311   3.301  2.0086  2.3338  0.6486
 5421TIP3   OH216268   1.782   0.577   4.304 -0.0641 -0.0837 -0.3159
 5421TIP3    H116269   1.876   0.558   4.300  0.8005  3.0695  1.7625
 5421TIP3    H216270   1.755   0.544   4.390 -0.8109 -0.5987 -0.7358
 5422TIP3   OH216271   4.600   1.854   4.234 -0.0702  0.3283 -1.0776
 5422TIP3    H116272   4.529   1.906   4.273  0.4828 -0.8479  1.7553
 5422TIP3    H216273   4.680   1.893   4.270  0.3617 -2.2781  1.0742
 5423TIP3   OH216274   0.015   1.422   4.158 -0.0481 -0.2671  0.2429
 5423TIP3    H116275  -0.021   1.485   4.221 -1.6439  0.3683 -1.2464
 5423TIP3    H216276   0.099   1.396   4.196 -1.0110 -0.0309  2.7115
 5424TIP3   OH216277   1.798   0.006   1.575 -0.2210  0.3863  0.0222
 5424TIP3    H116278   1.752  -0.059   1.628 -3.0827  1.0161 -1.4688
 5424TIP3    H216279   1.734   0.077   1.562  1.1797  1.3790 -2.1433
 5425TIP3   OH216280   2.401   5.275   1.712 -0.1765  0.3164 -0.6232
 5425TIP3    H116281   2.379   5.273   1.806 -2.5605 -0.7766 -1.1281
 5425TIP3    H216282   2.461   5.202   1.700  0.0057  0.3537  0.0117
 5426TIP3   OH216283   3.773   4.042   3.898 -0.7941 -0.3119  0.0252
 5426TIP3    H116284   3.767   4.136   3.916 -1.7982 -0.7263  2.0538
 5426TIP3    H216285   3.862   4.019   3.924 -0.5829  0.0451 -0.3645
 5427TIP3   OH216286   4.735   3.163   3.033 -0.4093 -0.2417  0.0778
 5427TIP3    H116287   4.710   3.186   2.943  2.0108  2.0263 -0.1466
 5427TIP3    H216288   4.657   3.183   3.085 -1.0162  0.9918 -1.2274
 5428TIP3   OH216289   5.585   5.079   4.103 -0.3410  0.3511  0.3481
 5428TIP3    H116290   5.605   5.021   4.029 -0.1272  2.5022 -1.3706
 5428TIP3    H216291   5.664   5.075   4.157  1.4417  2.1204 -1.9028
 5429TIP3   OH216292   6.133   2.217   0.524 -0.3087  0.4508 -0.3026
 5429TIP3    H116293   6.108   2.126   0.511 -0.7015  0.8336 -2.8860
 5429TIP3    H216294   6.213   2.213   0.577  1.0115 -1.5930 -2.2686
 5430TIP3   OH216295   5.278   0.885   1.633 -0.1328  0.3681  0.2060
 5430TIP3    H116296   5.245   0.814   1.688  0.5155 -1.3673 -1.5695
 5430TIP3    H216297   5.373   0.876   1.636 -0.0831 -0.7730 -2.3479
 5431TIP3   OH216298   2.381   2.751   0.769 -0.1691 -0.0745 -0.5593
 5431TIP3    H116299   2.352   2.757   0.678 -2.6279  1.5313  0.2447
 5431TIP3    H216300   2.451   2.816   0.777 -0.7684  0.6376 -1.0342
 5432TIP3   OH216301   3.694   5.087   1.480 -0.2202 -0.1540 -0.1326
 5432TIP3    H116302   3.686   5.066   1.573  1.8493 -0.6171 -0.0165
 5432TIP3    H216303   3.782   5.123   1.471 -0.8005  0.9609 -1.7345
 5433TIP3   OH216304   0.778   3.218   0.490 -0.4045  0.3180 -0.0763
 5433TIP3    H116305   0.783   3.130   0.528 -1.1746  0.0331 -0.6201
 5433TIP3    H216306   0.685   3.237   0.485 -0.2369  1.3596  0.4452
 5434TIP3   OH216307   3.972   1.751   0.473  0.1676  0.0320  0.2960
 5434TIP3    H116308   3.939   1.839   0.454 -0.2324 -0.0659  0.5152
 5434TIP3    H216309   3.893   1.699   0.487  0.4123 -0.2781  0.5307
 5435TIP3   OH216310   1.427   0.515   3.927  0.1266 -0.3400  0.0865
 5435TIP3    H116311   1.522   0.508   3.923  0.0483 -1.0486 -1.3076
 5435TIP3    H216312   1.396   0.425   3.924 -0.5794 -0.1710  1.6452
 5436TIP3   OH216313   2.665   2.588   0.605  0.0484 -0.4172 -0.1830
 5436TIP3    H116314   2.612   2.508   0.600  0.2509 -0.5107 -0.9602
 5436TIP3    H216315   2.726   2.572   0.677  0.1346 -0.9967 -0.3765
 5437TIP3   OH216316   5.083   5.532   5.122 -0.3170 -0.1166 -0.1789
 5437TIP3    H116317   5.124   5.592   5.060 -1.0059 -0.2659 -0.8018
 5437TIP3    H216318   5.035   5.589   5.183 -0.8479 -0.0138 -0.6791
 5438TIP3   OH216319   5.507   1.712   3.373  0.0251  0.2978 -0.3596
 5438TIP3    H116320   5.459   1.714   3.290  1.0983  1.9603 -1.0001
 5438TIP3    H216321   5.594   1.679   3.348  0.3882  0.9220  0.0774
 5439TIP3   OH216322   5.695   4.980   1.948 -0.1316 -0.3036 -0.5608
 5439TIP3    H116323   5.651   5.054   1.990 -1.6775 -0.7725 -1.2784
 5439TIP3    H216324   5.645   4.904   1.977  2.0649 -1.2580  1.0266
 5440TIP3   OH216325   0.812   5.394   3.198  0.3426 -0.0700  0.2305
 5440TIP3    H116326   0.832   5.308   3.235 -0.3560 -0.2436  0.2339
 5440TIP3    H216327   0.716   5.397   3.196  0.3296  1.0848  1.1274
 5441TIP3   OH216328   0.192   3.741   3.314 -0.7555 -0.2764 -0.4713
 5441TIP3    H116329   0.160   3.831   3.319 -0.7800 -0.1574 -2.1661
 5441TIP3    H216330   0.199   3.724   3.220  2.0013 -1.0541 -0.2178
 5442TIP3   OH216331   4.967   0.050   4.582  0.3122  0.0263  0.1345
 5442TIP3    H116332   4.944   0.073   4.672 -1.4230 -2.1561  0.3247
 5442TIP3    H216333   4.908   0.103   4.528 -0.0573 -0.1732  0.3457
 5443TIP3   OH216334   6.161   2.933   2.474 -0.0332 -0.3505 -0.2488
 5443TIP3    H116335   6.192   2.889   2.553 -1.7860 -0.3535  0.4598
 5443TIP3    H216336   6.070   2.956   2.492  0.3284  2.2079 -1.1848
 5444TIP3   OH216337   2.643   0.759   2.871 -0.2212  0.3493 -0.7513
 5444TIP3    H116338   2.603   0.799   2.794 -2.0259  0.3109  0.1046
 5444TIP3    H216339   2.580   0.775   2.941  1.4821  0.5989  0.7829
 5445TIP3   OH216340   2.706   3.117   1.832 -0.1260  0.3659 -0.4148
 5445TIP3    H116341   2.731   3.103   1.741  1.2206 -0.8173  0.1184
 5445TIP3    H216342   2.780   3.086   1.883 -0.3367  2.1570  1.0866
 5446TIP3   OH216343   5.235   0.588   3.434  0.3107  0.5999  0.6474
 5446TIP3    H116344   5.189   0.584   3.517  0.1706 -0.4753  0.5314
 5446TIP3    H216345   5.185   0.531   3.376  0.2075  1.6011 -0.2804
 5447TIP3   OH216346   4.110   0.081   0.275  0.5453  0.0939 -0.4528
 5447TIP3    H116347   4.115   0.171   0.309 -2.2944  0.4636 -0.7303
 5447TIP3    H216348   4.138   0.027   0.349  2.5326  1.1496 -0.3497
 5448TIP3   OH216349   0.877   5.417   1.924 -0.0849 -0.1607  0.3626
 5448TIP3    H116350   0.921   5.337   1.953 -2.0761 -1.4300  0.0966
 5448TIP3    H216351   0.867   5.469   2.004 -0.7494 -1.2110  0.9836
 5449TIP3   OH216352   4.173   2.551   3.311  0.2416 -0.1772  0.7289
 5449TIP3    H116353   4.191   2.619   3.246 -0.0276  1.3226  2.1692
 5449TIP3    H216354   4.113   2.492   3.267 -0.5756  1.2430 -0.1498
 5450TIP3   OH216355   2.225   4.803   2.352 -0.2553  0.1816 -0.4569
 5450TIP3    H116356   2.267   4.746   2.416  1.1395  0.7303 -0.8526
 5450TIP3    H216357   2.176   4.866   2.405  0.3811  0.2545  0.0624
 5451TIP3   OH216358   5.247   4.017   4.736 -0.1119 -0.2779  0.1301
 5451TIP3    H116359   5.334   3.988   4.765 -0.5128 -1.0912  0.5497
 5451TIP3    H216360   5.247   4.001   4.642  0.4195  0.3195  0.0255
 5452TIP3   OH216361   2.564   1.843   2.233 -0.6297  0.0051  0.0452
 5452TIP3    H116362   2.595   1.884   2.314 -3.3514  0.7209  0.8342
 5452TIP3    H216363   2.619   1.880   2.164  0.7524  0.5353  1.3899
 5453TIP3   OH216364   5.039   2.222   2.053 -0.0153  0.2497  0.0905
 5453TIP3    H116365   4.977   2.258   1.990  0.9374  0.1495 -0.9401
 5453TIP3    H216366   4.994   2.147   2.092 -0.1551 -0.4984 -1.4378
 5454TIP3   OH216367   0.401   4.175   1.720  0.9975 -0.3677  0.6057
 5454TIP3    H116368   0.472   4.155   1.780  1.0623 -1.0844  0.3071
 5454TIP3    H216369   0.331   4.209   1.775  0.9092 -1.3927  1.1518
 5455TIP3   OH216370   3.320   5.779   5.168  0.4943 -0.2908  0.1945
 5455TIP3    H116371   3.229   5.804   5.180  0.8414  1.3563 -0.2834
 5455TIP3    H216372   3.320   5.721   5.091 -0.1972 -0.6595  0.4739
 5456TIP3   OH216373   3.300   3.974   3.810  0.4343 -0.3587  0.5325
 5456TIP3    H116374   3.380   3.947   3.855  0.7021  0.5427  0.6299
 5456TIP3    H216375   3.237   3.905   3.829  1.5991 -1.8298 -0.7675
 5457TIP3   OH216376   1.067   5.084   1.486 -0.4530  0.3391 -0.3754
 5457TIP3    H116377   1.101   5.166   1.450  1.8054 -0.2595  0.2047
 5457TIP3    H216378   0.983   5.107   1.524 -0.6693  2.0011 -1.7411
 5458TIP3   OH216379   2.367   0.927   2.284  0.2618 -0.1285 -0.3578
 5458TIP3    H116380   2.429   0.984   2.328 -0.2519  0.8552 -0.8859
 5458TIP3    H216381   2.302   0.905   2.352 -0.2085  0.9102 -0.4569
 5459TIP3   OH216382   0.987   2.572   2.245  0.0306 -0.4046 -0.0729
 5459TIP3    H116383   1.068   2.522   2.261  0.4471  0.4445  0.5348
 5459TIP3    H216384   1.016   2.653   2.205 -0.3907  0.4293  1.2537
 5460TIP3   OH216385   2.140   5.294   1.607 -0.4124 -0.3804 -0.1717
 5460TIP3    H116386   2.226   5.258   1.631 -0.4129 -0.0869  0.2770
 5460TIP3    H216387   2.083   5.217   1.605 -0.2663 -0.4997  0.1148
 5461TIP3   OH216388   4.191   5.096   2.582  0.4621  0.2935  0.1361
 5461TIP3    H116389   4.138   5.130   2.654 -0.6467 -1.3465  0.1399
 5461TIP3    H216390   4.281   5.121   2.605 -0.1064  1.7859  0.9006
 5462TIP3   OH216391   1.651   5.023   4.378  1.1594  0.4613 -0.0942
 5462TIP3    H116392   1.680   4.952   4.434  2.2561  1.0632  0.1383
 5462TIP3    H216393   1.594   5.076   4.433  1.5990  0.6155  0.2133
 5463TIP3   OH216394   5.740   1.246   2.353 -0.3497 -0.0305 -0.4604
 5463TIP3    H116395   5.744   1.297   2.435  0.2905  0.6494 -0.8985
 5463TIP3    H216396   5.677   1.177   2.371  1.1082 -1.0251  1.2576
 5464TIP3   OH216397   4.770   0.306   0.595 -0.1894 -0.1812 -0.4211
 5464TIP3    H116398   4.704   0.237   0.591 -0.4220  0.0610 -0.9796
 5464TIP3    H216399   4.838   0.277   0.534  1.1783 -1.3706  1.5506
 5465TIP3   OH216400   1.663   3.302   0.066  0.0767  0.9458  0.1268
 5465TIP3    H116401   1.600   3.312  -0.005 -0.0533  0.6287  0.1968
 5465TIP3    H216402   1.652   3.212   0.096  0.4397  0.9420  0.2570
 5466TIP3   OH216403   4.623   1.813   3.876  0.5268  1.0760 -0.0795
 5466TIP3    H116404   4.640   1.862   3.956 -0.9864 -0.6982  1.4323
 5466TIP3    H216405   4.532   1.832   3.854  0.8430  1.3264 -1.2472
 5467TIP3   OH216406   5.954   4.832   3.615  0.2058 -0.2668 -0.3854
 5467TIP3    H116407   6.024   4.783   3.658  1.4471 -0.2527 -2.2492
 5467TIP3    H216408   5.920   4.772   3.548 -0.3405  0.3606 -0.6863
 5468TIP3   OH216409   3.591   1.614   1.743 -0.6597  0.1215  0.2633
 5468TIP3    H116410   3.655   1.572   1.801 -1.8749 -0.2949  1.3455
 5468TIP3    H216411   3.605   1.573   1.658  0.5424  0.0793  0.4646
 5469TIP3   OH216412   3.174   3.213   1.824  0.1986 -0.4739 -0.1067
 5469TIP3    H116413   3.117   3.157   1.771  0.1120  0.5587 -1.1346
 5469TIP3    H216414   3.207   3.279   1.763 -2.5697  2.8868  1.6926
 5470TIP3   OH216415   2.918   0.422   2.491 -0.6629  0.3126  0.9969
 5470TIP3    H116416   2.905   0.347   2.549 -0.6951  0.9983  1.8847
 5470TIP3    H216417   2.851   0.485   2.516 -1.8808 -0.0916 -1.0232
 5471TIP3   OH216418   1.899   3.875   1.202  0.2461 -0.7041  0.3995
 5471TIP3    H116419   1.963   3.867   1.131 -0.5907 -2.0424 -0.2518
 5471TIP3    H216420   1.932   3.816   1.270  0.5201 -0.1790  0.7326
 5472TIP3   OH216421   4.834   4.981   4.548 -0.3389  0.4346  0.3016
 5472TIP3    H116422   4.740   4.978   4.532 -0.4218  1.1486  0.5891
 5472TIP3    H216423   4.847   4.925   4.624 -0.5440  0.3871  0.3032
 5473TIP3   OH216424   4.283   4.274   2.915  0.2321  0.2931 -0.1246
 5473TIP3    H116425   4.306   4.262   2.823  1.0568 -4.1515  0.4659
 5473TIP3    H216426   4.203   4.223   2.927  0.1580  0.7549  1.6520
 5474TIP3   OH216427   1.899   0.368   0.605 -0.2923  0.0454  0.1372
 5474TIP3    H116428   1.930   0.278   0.596 -1.3111 -0.6115  2.4979
 5474TIP3    H216429   1.977   0.418   0.630  0.2315 -0.2101 -0.9475
 5475TIP3   OH216430   2.040   2.076   3.220  0.3955  0.3885  0.1388
 5475TIP3    H116431   2.060   2.166   3.245 -0.3054  0.7425 -0.5215
 5475TIP3    H216432   1.948   2.064   3.246  0.1915  0.1883 -0.6391
 5476TIP3   OH216433   3.682   2.476   4.246 -0.2610 -0.2296 -0.1274
 5476TIP3    H116434   3.692   2.393   4.199  1.4123  0.5456 -1.2737
 5476TIP3    H216435   3.760   2.482   4.301 -0.2287  0.6675 -0.2442
 5477TIP3   OH216436   3.312   4.704   2.947  0.0527 -0.3688 -0.5052
 5477TIP3    H116437   3.231   4.733   2.905 -0.6119 -0.5062  0.6583
 5477TIP3    H216438   3.283   4.638   3.011  0.9164  0.6421  0.9652
 5478TIP3   OH216439   0.698   2.744   3.753 -0.0453 -0.4396 -0.4871
 5478TIP3    H116440   0.661   2.802   3.820 -1.4102 -0.5443 -1.1193
 5478TIP3    H216441   0.783   2.783   3.733  0.2195 -0.1893  1.0121
 5479TIP3   OH216442   6.239   4.415   2.124 -0.2461  0.1382 -0.5056
 5479TIP3    H116443   6.209   4.407   2.214 -0.9485 -0.8335 -0.8036
 5479TIP3    H216444   6.306   4.347   2.115  0.0424  0.4367 -0.6322
 5480TIP3   OH216445   0.814   0.063   0.500  0.1317 -0.1751  0.3816
 5480TIP3    H116446   0.729   0.022   0.513  0.3206 -0.6378  0.1967
 5480TIP3    H216447   0.864  -0.001   0.449  0.8079 -0.2006  1.0435
 5481TIP3   OH216448   2.861   1.202   0.084  0.1201 -0.3160 -0.1497
 5481TIP3    H116449   2.896   1.290   0.071  2.7711 -1.3822 -0.9353
 5481TIP3    H216450   2.865   1.162  -0.002 -0.5644 -1.3839  0.2943
 5482TIP3   OH216451   4.378   2.777   4.820  0.6294  0.0961 -0.1731
 5482TIP3    H116452   4.431   2.809   4.892  0.8680 -0.3773 -0.1334
 5482TIP3    H216453   4.394   2.683   4.819 -1.4669 -0.3346  0.8875
 5483TIP3   OH216454   5.252   3.942   2.996  0.1921 -0.1682 -0.2403
 5483TIP3    H116455   5.287   4.031   2.987  0.5801 -0.4625 -2.5416
 5483TIP3    H216456   5.159   3.953   3.011  0.1040  0.6774 -1.2657
 5484TIP3   OH216457   2.263   1.844   2.256  0.2337  0.0766  0.1742
 5484TIP3    H116458   2.288   1.791   2.332  1.2099  0.6146  0.2459
 5484TIP3    H216459   2.341   1.845   2.201  0.0717  1.0371 -0.0577
 5485TIP3   OH216460   5.397   5.210   3.503 -0.5622  0.0049  0.0210
 5485TIP3    H116461   5.375   5.295   3.543 -2.1077  0.2392 -1.2497
 5485TIP3    H216462   5.387   5.147   3.575 -1.4584  0.6444  0.4787
 5486TIP3   OH216463   0.623   1.353   0.833 -0.5573 -0.3000 -1.0313
 5486TIP3    H116464   0.603   1.361   0.740 -1.3593 -0.6284 -0.8978
 5486TIP3    H216465   0.580   1.429   0.874 -0.2219 -0.1646 -0.9255
 5487TIP3   OH216466   2.900   4.900   2.201  0.2615 -0.2436  0.3144
 5487TIP3    H116467   2.918   4.876   2.291 -1.1176  0.5734  0.8347
 5487TIP3    H216468   2.833   4.839   2.171  0.0478  0.0619  0.1530
 5488TIP3   OH216469   2.033   2.035   0.621 -0.2413  0.9234  0.5204
 5488TIP3    H116470   2.088   1.986   0.559 -1.2881  1.3244 -0.7828
 5488TIP3    H216471   2.021   1.976   0.695  0.2990  0.0508 -0.0723
 5489TIP3   OH216472   3.507   0.708   3.627 -0.1987  0.3735 -0.1165
 5489TIP3    H116473   3.432   0.743   3.676 -0.1701 -0.2622  0.3886
 5489TIP3    H216474   3.468   0.658   3.555 -0.2612 -0.1396  0.2749
 5490TIP3   OH216475   2.436   1.291   1.705 -0.7090 -0.3483  0.2118
 5490TIP3    H116476   2.527   1.266   1.719  0.0691  2.1387  0.0345
 5490TIP3    H216477   2.425   1.292   1.610  0.4707  3.4890 -0.0346
 5491TIP3   OH216478   0.302   1.972   4.475 -0.0162  0.0603 -0.0406
 5491TIP3    H116479   0.236   1.924   4.524 -0.3568  0.7496  0.1846
 5491TIP3    H216480   0.383   1.957   4.523 -0.2453  0.2760  0.4156
 5492TIP3   OH216481   0.338   1.957   4.877  0.0363  0.1710  0.1555
 5492TIP3    H116482   0.345   2.049   4.903 -0.8376 -0.0564  1.3079
 5492TIP3    H216483   0.338   1.909   4.960  1.6981 -0.9836 -0.4689
 5493TIP3   OH216484   2.454   0.491   4.956 -0.0796  0.7011  0.2436
 5493TIP3    H116485   2.545   0.517   4.942  0.2185 -0.4333 -0.0069
 5493TIP3    H216486   2.444   0.493   5.051  0.5517 -0.2640  0.3431
 5494TIP3   OH216487   0.148   4.855   1.623  0.3343  0.3069  0.0162
 5494TIP3    H116488   0.223   4.820   1.673 -0.8756 -1.1813  0.9030
 5494TIP3    H216489   0.127   4.938   1.666 -0.7705 -1.0116  2.2012
 5495TIP3   OH216490   2.267   0.756   0.297  0.0739 -0.0589 -0.6326
 5495TIP3    H116491   2.231   0.751   0.386 -0.9935  2.0606 -0.8838
 5495TIP3    H216492   2.267   0.850   0.277  1.3523 -0.4054 -2.4661
 5496TIP3   OH216493   2.329   1.573   1.102  0.2312  0.6923 -0.1318
 5496TIP3    H116494   2.274   1.651   1.099  0.1529  0.7851  2.2645
 5496TIP3    H216495   2.353   1.563   1.194 -0.5244 -2.6404 -0.1632
 5497TIP3   OH216496   0.469   3.151   4.534  0.1916  0.6629 -0.0695
 5497TIP3    H116497   0.412   3.223   4.561 -0.4719 -0.0871  0.5500
 5497TIP3    H216498   0.446   3.135   4.442 -1.1114 -0.0970  0.3697
 5498TIP3   OH216499   3.500   2.630   0.597 -0.4245 -0.1268  0.1454
 5498TIP3    H116500   3.408   2.614   0.620 -0.7734 -0.0261 -1.1330
 5498TIP3    H216501   3.516   2.573   0.522  0.4763  0.0971  0.1581
 5499TIP3   OH216502   3.797   5.136   1.141 -0.4433 -0.3722  0.0635
 5499TIP3    H116503   3.873   5.150   1.196 -0.9888 -0.3078  0.8120
 5499TIP3    H216504   3.829   5.151   1.052  0.4514 -0.5094  0.3503
 5500TIP3   OH216505   2.417   2.274   4.273  0.7445 -0.0827 -0.2765
 5500TIP3    H116506   2.490   2.215   4.291  1.2774  0.4812 -0.5353
 5500TIP3    H216507   2.446   2.325   4.197  0.7506  1.2387  0.5799
 5501TIP3   OH216508   1.863   3.579   2.105 -0.2808 -0.0434  0.1892
 5501TIP3    H116509   1.887   3.551   2.017  0.9885  1.8657 -0.1267
 5501TIP3    H216510   1.937   3.551   2.159  1.8070  3.7603 -0.3867
 5502TIP3   OH216511   4.552   5.621   0.371  0.3281  0.2013 -0.6424
 5502TIP3    H116512   4.566   5.546   0.313  0.5073  0.4889 -0.9815
 5502TIP3    H216513   4.457   5.627   0.382  0.2440  0.5710 -1.4901
 5503TIP3   OH216514   3.224   0.867   2.956 -0.1116 -0.2833  0.2389
 5503TIP3    H116515   3.175   0.882   2.875  1.7315 -0.4458 -0.9685
 5503TIP3    H216516   3.173   0.801   3.002 -1.5940  0.3512 -0.4313
 5504TIP3   OH216517   3.143   5.518   1.350  0.5824 -0.0838 -0.2916
 5504TIP3    H116518   3.229   5.541   1.385  0.6962  0.4889 -0.9268
 5504TIP3    H216519   3.087   5.514   1.428  0.9902  0.4202  0.0421
 5505TIP3   OH216520   3.821   2.528   5.143  0.4336  0.0119  0.6410
 5505TIP3    H116521   3.871   2.525   5.224 -0.2346 -0.2111  1.0555
 5505TIP3    H216522   3.742   2.477   5.161 -0.1799  0.7679  0.1644
 5506TIP3   OH216523   0.466   4.128   5.151  0.1537 -0.3825 -0.6096
 5506TIP3    H116524   0.553   4.156   5.123  0.4035 -1.4129 -0.8969
 5506TIP3    H216525   0.408   4.201   5.128  0.8600  0.0962 -0.8759
 5507TIP3   OH216526   1.272   1.783   0.943 -0.2882 -0.2412  0.1043
 5507TIP3    H116527   1.346   1.795   0.884  0.0798  1.9830  0.9007
 5507TIP3    H216528   1.211   1.727   0.895  0.5632  0.4044 -1.8306
 5508TIP3   OH216529   1.606   2.098   0.775 -0.0056 -0.2968  0.0019
 5508TIP3    H116530   1.613   2.135   0.687  0.9222 -0.4835 -0.0193
 5508TIP3    H216531   1.684   2.130   0.820 -0.7874  0.3007  0.9575
 5509TIP3   OH216532   4.065   0.340   0.371  0.7853  0.2159  0.3927
 5509TIP3    H116533   4.110   0.412   0.326 -0.0077 -0.3965 -1.4721
 5509TIP3    H216534   4.112   0.331   0.454  1.2121  2.5370  0.4722
 5510TIP3   OH216535   5.368   2.821   1.654 -0.8557  0.1758  0.2495
 5510TIP3    H116536   5.331   2.909   1.640 -1.2004  0.1844  1.1491
 5510TIP3    H216537   5.293   2.762   1.643 -0.6509 -0.0004 -0.2229
 5511TIP3   OH216538   4.547   5.734   2.210 -0.3458  0.1646  0.2778
 5511TIP3    H116539   4.553   5.711   2.303  0.0586 -2.2444 -0.2852
 5511TIP3    H216540   4.636   5.754   2.184 -0.4344  0.6743  0.3540
 5512TIP3   OH216541   3.556   4.709   0.849 -0.1741 -0.3419 -0.1782
 5512TIP3    H116542   3.527   4.719   0.939  2.3286  0.3431  0.6194
 5512TIP3    H216543   3.485   4.659   0.807 -2.6962  1.6434  1.3911
 5513TIP3   OH216544   1.010   5.511   1.711 -0.2488 -0.5541 -1.0047
 5513TIP3    H116545   0.986   5.455   1.785 -0.1589 -1.4847 -1.6667
 5513TIP3    H216546   1.004   5.600   1.746 -4.2150 -0.6744 -0.9343
 5514TIP3   OH216547   3.839   5.160   3.625 -0.3496 -0.0822  0.1709
 5514TIP3    H116548   3.818   5.073   3.661 -0.3280  0.2778  1.0779
 5514TIP3    H216549   3.912   5.145   3.565 -1.0550 -0.8559 -0.5275
 5515TIP3   OH216550   0.432   3.668   2.296  0.7192  0.2055  0.3186
 5515TIP3    H116551   0.366   3.682   2.364 -0.5823  0.8664 -1.0211
 5515TIP3    H216552   0.426   3.574   2.276  0.1791  0.2478  0.2445
 5516TIP3   OH216553   2.748   4.518   4.827  0.4996 -0.1583 -0.3855
 5516TIP3    H116554   2.729   4.433   4.866  2.3074  0.2158  1.4422
 5516TIP3    H216555   2.665   4.566   4.834 -0.1449 -1.2562 -0.1470
 5517TIP3   OH216556   5.028   3.370   5.122 -0.1494 -0.7882 -0.4825
 5517TIP3    H116557   5.042   3.332   5.035 -2.1662 -1.2087 -0.6856
 5517TIP3    H216558   4.997   3.296   5.175 -1.7974  0.0334 -0.2384
 5518TIP3   OH216559   3.422   4.718   1.365  0.5319 -0.2944  0.7547
 5518TIP3    H116560   3.429   4.688   1.456  0.8630 -0.6094  0.6229
 5518TIP3    H216561   3.450   4.810   1.369 -0.8859  0.1451  1.2279
 5519TIP3   OH216562   1.532   3.346   1.188  0.0956 -0.1937 -0.3695
 5519TIP3    H116563   1.455   3.402   1.190 -1.1463 -1.8358  0.1463
 5519TIP3    H216564   1.498   3.259   1.165  1.6297 -1.1941  0.9254
 5520TIP3   OH216565   0.132   3.080   4.908  0.3541  0.3501  0.2250
 5520TIP3    H116566   0.076   3.088   4.831 -0.1913  0.1188  0.5950
 5520TIP3    H216567   0.081   3.029   4.970  0.7530  0.6179  0.7797
 5521TIP3   OH216568   2.748   3.168   3.519  0.0243 -0.1515  0.3819
 5521TIP3    H116569   2.800   3.092   3.545 -0.5530 -0.6812  0.0257
 5521TIP3    H216570   2.667   3.131   3.483 -1.1838  0.6531  2.1124
 5522TIP3   OH216571   5.754   5.504   2.903  0.1078 -0.0067  0.2960
 5522TIP3    H116572   5.824   5.535   2.846 -1.1903  1.4802 -0.5703
 5522TIP3    H216573   5.678   5.495   2.845 -1.6888  3.0225  1.9479
 5523TIP3   OH216574   3.810   0.385   3.962  0.3891  0.1563  0.0506
 5523TIP3    H116575   3.792   0.292   3.947  1.5143 -0.2304  0.8619
 5523TIP3    H216576   3.779   0.401   4.051  1.4496  0.1765  0.4332
 5524TIP3   OH216577   5.903   3.704   2.967 -0.1361  0.4629  0.1897
 5524TIP3    H116578   5.956   3.629   2.994 -0.5782 -0.2084 -0.7805
 5524TIP3    H216579   5.933   3.775   3.024 -1.8384 -1.1171  3.3056
 5525TIP3   OH216580   2.827   4.943   1.720  0.4971 -0.1497 -0.4912
 5525TIP3    H116581   2.858   4.880   1.655 -2.6835 -0.8205 -1.5541
 5525TIP3    H216582   2.826   4.895   1.802 -0.0223 -0.8953 -0.9190
 5526TIP3   OH216583   6.348   0.134   4.844  0.3152  0.3558 -0.3363
 5526TIP3    H116584   6.254   0.136   4.858  0.4144 -0.6496  0.6250
 5526TIP3    H216585   6.368   0.217   4.803 -0.8575  1.0007  0.3426
 5527TIP3   OH216586   5.552   4.247   1.225 -0.1628  0.6868  0.0087
 5527TIP3    H116587   5.647   4.260   1.221 -0.0573  0.1246  0.5338
 5527TIP3    H216588   5.521   4.272   1.139  0.3623  1.6813  0.0968
 5528TIP3   OH216589   4.218   4.695   3.319  0.7404 -0.1037  0.4268
 5528TIP3    H116590   4.143   4.696   3.379 -0.3426 -0.3753 -0.8820
 5528TIP3    H216591   4.295   4.692   3.377 -0.1221  2.6223  1.8773
 5529TIP3   OH216592   1.329   2.605   3.804 -0.4008  0.1265 -0.6840
 5529TIP3    H116593   1.312   2.580   3.895 -0.2866 -0.9814 -0.9597
 5529TIP3    H216594   1.273   2.548   3.752  0.0825  0.2446 -1.3419
 5530TIP3   OH216595   5.177   2.256   2.530  0.0068  0.0028  0.3924
 5530TIP3    H116596   5.144   2.269   2.619 -1.8573  0.1319 -0.2671
 5530TIP3    H216597   5.174   2.344   2.490 -0.5898 -0.2889 -0.2326
 5531TIP3   OH216598   1.753   4.017   3.768 -0.3254  0.0750 -0.8078
 5531TIP3    H116599   1.842   4.050   3.786 -0.6370  1.7333 -2.0732
 5531TIP3    H216600   1.722   3.985   3.853  1.4183 -0.4145 -0.3073
 5532TIP3   OH216601   3.473   4.414   2.988 -0.1249  0.3444  0.4587
 5532TIP3    H116602   3.477   4.319   3.000 -1.3107  0.2053 -0.0708
 5532TIP3    H216603   3.564   4.443   2.992  0.3996 -1.0037 -0.7485
 5533TIP3   OH216604   4.940   0.976   2.594 -0.6472  0.4138 -0.1003
 5533TIP3    H116605   4.996   1.046   2.559 -1.4828  1.4856  0.6190
 5533TIP3    H216606   4.891   0.945   2.518 -0.6670  1.0150 -0.3448
 5534TIP3   OH216607   4.716   5.705   3.153 -0.2692 -1.1417 -1.0704
 5534TIP3    H116608   4.782   5.656   3.103 -1.7213 -2.3425 -1.8931
 5534TIP3    H216609   4.642   5.645   3.160 -2.0442  0.8313 -1.8808
 5535TIP3   OH216610   4.408   0.187   0.677  0.0195 -0.2887  0.3872
 5535TIP3    H116611   4.455   0.243   0.738 -0.3479 -0.4930  0.8603
 5535TIP3    H216612   4.322   0.228   0.667 -0.3035 -0.8315  0.8454
 5536TIP3   OH216613   0.999   0.617   2.807 -0.2817 -0.3260 -0.2504
 5536TIP3    H116614   1.051   0.550   2.764  0.2609 -0.3653  0.4386
 5536TIP3    H216615   0.926   0.633   2.748 -1.4059 -2.7738  0.3447
 5537TIP3   OH216616   5.637   5.905   4.905  0.2408  0.3991  0.0014
 5537TIP3    H116617   5.620   5.954   4.824 -1.9734 -1.9680 -1.0985
 5537TIP3    H216618   5.713   5.850   4.885  1.6863  2.0480  0.6854
 5538TIP3   OH216619   3.432   1.581   5.110  0.4269 -0.5774  0.2572
 5538TIP3    H116620   3.377   1.655   5.136 -1.0591 -1.1003 -1.2094
 5538TIP3    H216621   3.494   1.619   5.047 -0.3278 -0.5461 -0.4891
 5539TIP3   OH216622   0.277   2.262   4.474  0.1264  0.2166 -0.3122
 5539TIP3    H116623   0.299   2.292   4.386  1.5395 -0.9876 -0.4047
 5539TIP3    H216624   0.250   2.171   4.462  1.0360 -0.1834  0.5734
 5540TIP3   OH216625   3.418   2.101   5.165  0.2854  0.0684 -0.3460
 5540TIP3    H116626   3.448   2.110   5.255 -0.4143 -0.2306 -0.0811
 5540TIP3    H216627   3.366   2.021   5.164 -1.1363  0.9580 -0.6076
 5541TIP3   OH216628   1.059   2.450   4.937  0.1096  0.3096 -0.4829
 5541TIP3    H116629   1.083   2.450   5.030 -1.4167  0.5521 -0.0644
 5541TIP3    H216630   0.973   2.409   4.934 -0.4303  1.4711 -1.6320
 5542TIP3   OH216631   3.768   4.335   3.140 -0.0152  0.5476  0.1343
 5542TIP3    H116632   3.809   4.415   3.174  0.0808  1.2019 -1.4377
 5542TIP3    H216633   3.833   4.298   3.080  0.4297 -1.4035  1.7372
 5543TIP3   OH216634   2.658   1.225   3.494  0.5235 -0.7276 -0.0974
 5543TIP3    H116635   2.721   1.159   3.466  0.4703 -0.7769 -0.1021
 5543TIP3    H216636   2.637   1.201   3.584  1.2635 -0.1272  0.2441
 5544TIP3   OH216637   3.912   5.834   4.356 -0.5364 -0.5571  0.3891
 5544TIP3    H116638   3.896   5.761   4.296 -1.3675 -0.2435  0.2168
 5544TIP3    H216639   3.847   5.899   4.332 -0.9496 -0.4620  1.7074
 5545TIP3   OH216640   5.095   2.904   0.014 -0.0136  0.5518 -0.2991
 5545TIP3    H116641   5.053   2.888  -0.071  1.1833 -1.0019 -0.6432
 5545TIP3    H216642   5.093   2.819   0.058 -1.6861  1.5754  1.7945
 5546TIP3   OH216643   5.428   0.433   4.207 -0.2163 -0.2406 -0.6260
 5546TIP3    H116644   5.465   0.515   4.175 -0.5437 -0.3416 -1.2975
 5546TIP3    H216645   5.371   0.403   4.135 -0.8654 -0.5541  0.0048
 5547TIP3   OH216646   5.419   1.427   3.188  0.2883  0.2254 -0.5593
 5547TIP3    H116647   5.352   1.380   3.237  0.1995 -0.2899 -1.1670
 5547TIP3    H216648   5.382   1.514   3.174  0.7434  0.7456  1.1859
 5548TIP3   OH216649   3.352   5.641   0.884  0.1104 -0.0891  0.4303
 5548TIP3    H116650   3.316   5.604   0.965 -1.5795  1.8122  0.6116
 5548TIP3    H216651   3.348   5.569   0.821  1.2696 -1.5532  1.9386
 5549TIP3   OH216652   3.215   0.393   2.496  0.3175 -0.2155 -0.7289
 5549TIP3    H116653   3.129   0.435   2.498  0.8443  1.0203 -2.0943
 5549TIP3    H216654   3.263   0.434   2.568  0.3690  0.4939 -1.1610
 5550TIP3   OH216655   1.559   1.425   5.125 -0.2561  0.2002  0.0236
 5550TIP3    H116656   1.607   1.431   5.042 -0.3522  1.7066  0.0476
 5550TIP3    H216657   1.515   1.509   5.133 -1.9834 -0.7223  0.5785
 5551TIP3   OH216658   0.502   2.915   2.684 -0.2677 -0.4066 -0.3693
 5551TIP3    H116659   0.461   2.849   2.627  1.2513 -1.3230 -0.4689
 5551TIP3    H216660   0.589   2.880   2.701  0.9872  2.0368 -1.2248
 5552TIP3   OH216661   5.466   5.515   4.128  0.4522  0.1851 -0.3222
 5552TIP3    H116662   5.429   5.601   4.105 -0.1346 -0.4299 -1.8029
 5552TIP3    H216663   5.502   5.527   4.216 -1.1619  1.4868  0.2197
 5553TIP3   OH216664   0.309   4.383   0.752 -0.0610  0.0422 -0.0299
 5553TIP3    H116665   0.317   4.478   0.758 -0.2460  0.1266 -1.0326
 5553TIP3    H216666   0.367   4.350   0.821 -1.8521  0.9058  2.0209
 5554TIP3   OH216667   3.480   5.085   2.784 -0.5646 -0.5862 -0.2283
 5554TIP3    H116668   3.401   5.100   2.838 -0.7941 -3.3709  0.3868
 5554TIP3    H216669   3.468   5.142   2.708 -2.2526  0.4366  0.7232
 5555TIP3   OH216670   3.112   2.106   2.875 -0.6499 -0.0906  0.3918
 5555TIP3    H116671   3.157   2.026   2.851 -0.0508 -0.1594  1.6400
 5555TIP3    H216672   3.031   2.077   2.916 -0.8787 -0.0265 -0.0123
 5556TIP3   OH216673   0.674   2.418   1.724  0.2202  0.4500 -0.0588
 5556TIP3    H116674   0.587   2.447   1.750  0.5466  1.7334 -0.3377
 5556TIP3    H216675   0.683   2.331   1.763 -1.5391 -0.1145 -0.8256
 5557TIP3   OH216676   0.210   0.061   4.689 -0.0376  0.3349 -0.3874
 5557TIP3    H116677   0.258   0.060   4.772  1.0822  0.8786 -1.0025
 5557TIP3    H216678   0.118   0.057   4.715  0.3096 -0.4085  0.8449
 5558TIP3   OH216679   3.139   3.561   3.040 -0.2763  0.0769  0.0049
 5558TIP3    H116680   3.058   3.592   2.998 -0.1407  1.7356  0.9075
 5558TIP3    H216681   3.175   3.638   3.083  2.5677 -0.2871 -1.5458
 5559TIP3   OH216682   2.241   3.995   4.718 -0.7505 -0.1849  0.0847
 5559TIP3    H116683   2.223   3.901   4.711 -0.1656 -0.3247  0.3691
 5559TIP3    H216684   2.327   4.006   4.676 -0.5692  0.1333  0.5309
 5560TIP3   OH216685   6.341   0.277   0.325  0.5386  0.2849  0.0359
 5560TIP3    H116686   6.268   0.216   0.333  0.4760  0.5096  1.5123
 5560TIP3    H216687   6.310   0.357   0.368  1.6860  0.3365  0.8248
 5561TIP3   OH216688   2.936   0.497   2.198  0.5525  0.4122 -0.4340
 5561TIP3    H116689   3.023   0.458   2.209  0.1151 -0.9306 -1.5054
 5561TIP3    H216690   2.894   0.484   2.282  0.6935 -0.7854 -0.5246
 5562TIP3   OH216691   0.245   3.039   0.886 -0.2379 -0.2127  0.3811
 5562TIP3    H116692   0.322   2.982   0.876  0.7651  1.0254  0.7924
 5562TIP3    H216693   0.171   2.982   0.869  0.7551 -1.5475  0.3655
 5563TIP3   OH216694   3.940   0.192   4.144 -1.1282 -0.1850  0.4096
 5563TIP3    H116695   4.010   0.204   4.208  0.5635 -0.6485 -1.2631
 5563TIP3    H216696   3.901   0.107   4.166 -0.8866 -0.1169  1.1121
 5564TIP3   OH216697   4.531   4.194   3.689  0.6743  0.2270 -0.1052
 5564TIP3    H116698   4.475   4.262   3.725 -0.3301 -0.1743 -0.8694
 5564TIP3    H216699   4.597   4.241   3.638  0.7497  0.6789  0.4026
 5565TIP3   OH216700   5.590   0.125   0.684 -0.1526  0.1142 -0.1720
 5565TIP3    H116701   5.518   0.164   0.734 -0.1339  0.3362 -0.3154
 5565TIP3    H216702   5.567   0.033   0.677 -0.0006  0.0166  0.5112
 5566TIP3   OH216703   2.230   5.430   4.427 -0.6219 -0.1286  0.1504
 5566TIP3    H116704   2.305   5.449   4.483  0.4908 -1.7495 -0.7222
 5566TIP3    H216705   2.249   5.475   4.345 -1.0252  0.1479  0.2045
 5567TIP3   OH216706   0.688   2.292   4.787  0.0399  0.2434  0.1892
 5567TIP3    H116707   0.665   2.245   4.867  1.0876 -0.6137  0.0089
 5567TIP3    H216708   0.634   2.252   4.719  0.7945 -0.5888  0.0699
 5568TIP3   OH216709   3.252   5.161   5.011  0.4863  0.5507  0.1301
 5568TIP3    H116710   3.251   5.162   4.915  1.3336  0.8482  0.1180
 5568TIP3    H216711   3.283   5.248   5.035  0.5127  0.3919  0.6725
 5569TIP3   OH216712   5.883   1.975   0.387  0.1753  0.2730  0.0504
 5569TIP3    H116713   5.953   1.961   0.452 -0.8832 -2.2381  0.7737
 5569TIP3    H216714   5.822   2.035   0.430 -0.4887 -1.3153  1.4572
 5570TIP3   OH216715   4.614   3.807   3.452 -0.4719 -0.4944  0.3952
 5570TIP3    H116716   4.702   3.842   3.443 -0.2067 -1.1786  0.2852
 5570TIP3    H216717   4.589   3.825   3.543 -1.7568  3.2121 -0.5126
 5571TIP3   OH216718   2.971   0.883   0.108 -0.2252  0.6109  0.4487
 5571TIP3    H116719   2.995   0.922   0.024  0.2258 -0.6096 -0.0282
 5571TIP3    H216720   2.965   0.789   0.089 -2.0115  0.4976  1.3597
 5572TIP3   OH216721   5.115   4.393   0.113  0.6175 -0.6013  0.2136
 5572TIP3    H116722   5.075   4.466   0.160  0.4192  0.0979 -1.0310
 5572TIP3    H216723   5.106   4.415   0.021  1.8451 -1.5209 -0.1478
 5573TIP3   OH216724   4.114   0.133   2.815  0.3729  0.2170  0.1061
 5573TIP3    H116725   4.206   0.146   2.792  0.5361 -1.2801 -0.2018
 5573TIP3    H216726   4.089   0.213   2.863  1.3549  1.3407 -1.1873
 5574TIP3   OH216727   5.728   1.445   1.521  0.3971  0.1573  0.0406
 5574TIP3    H116728   5.731   1.524   1.466  0.0951 -0.1113 -0.3677
 5574TIP3    H216729   5.789   1.385   1.480  0.5168  0.1199  0.2695
 5575TIP3   OH216730   4.780   3.817   1.782  0.2666  0.0380  0.1406
 5575TIP3    H116731   4.698   3.853   1.816 -0.9710 -1.2328 -1.3844
 5575TIP3    H216732   4.826   3.894   1.748 -0.6328  0.6759  0.3048
 5576TIP3   OH216733   5.940   1.028   4.942 -0.7679 -0.0555  0.1551
 5576TIP3    H116734   5.987   1.089   4.885  0.9298 -2.1879 -0.8918
 5576TIP3    H216735   5.854   1.019   4.901 -1.1320  1.7239  0.4462
 5577TIP3   OH216736   0.154   5.860   2.918  0.3072  0.1840 -0.7143
 5577TIP3    H116737   0.109   5.803   2.981  2.4526 -0.6004  0.1848
 5577TIP3    H216738   0.219   5.907   2.970 -0.1626  2.1031 -1.7810
 5578TIP3   OH216739   5.375   2.019   2.375  0.1397  0.6742 -0.0358
 5578TIP3    H116740   5.326   2.100   2.393  1.1359  1.0084  1.3777
 5578TIP3    H216741   5.449   2.023   2.436  0.9178 -0.6878 -0.8624
 5579TIP3   OH216742   4.775   4.598  -0.005 -0.2196 -0.4115  0.6131
 5579TIP3    H116743   4.774   4.608   0.090 -1.5698 -1.1585  0.7019
 5579TIP3    H216744   4.739   4.680  -0.039  1.9038  0.5849  0.6261
 5580TIP3   OH216745   6.050   3.705   0.965  0.1605 -0.3050  0.1160
 5580TIP3    H116746   6.103   3.785   0.969  1.3392 -1.1269  1.5809
 5580TIP3    H216747   5.994   3.718   0.888 -0.4036  2.3628  0.8818
 5581TIP3   OH216748   4.358   1.361   1.464  0.3387 -0.1112 -0.8922
 5581TIP3    H116749   4.353   1.284   1.407  1.5869 -0.2936 -0.7757
 5581TIP3    H216750   4.352   1.435   1.404  1.9856 -0.2989 -1.3388
 5582TIP3   OH216751   5.536   0.240   2.014 -0.4274  0.2724 -0.1974
 5582TIP3    H116752   5.484   0.159   2.009 -1.1975  0.5822  1.8345
 5582TIP3    H216753   5.606   0.227   1.950 -0.0572 -2.3606  0.6104
 5583TIP3   OH216754   1.916   4.334   0.371  0.2150  0.3906 -0.2758
 5583TIP3    H116755   1.899   4.259   0.313  2.4486  0.5445 -1.2174
 5583TIP3    H216756   1.889   4.410   0.320 -4.1777  0.3001  1.4850
 5584TIP3   OH216757   1.927   2.793   1.411  0.2153  0.6923 -0.0691
 5584TIP3    H116758   1.926   2.707   1.369  0.4814  1.6577 -2.1720
 5584TIP3    H216759   1.843   2.797   1.457  1.2383 -1.6299  2.2349
 5585TIP3   OH216760   2.963   3.409   0.429  0.0032 -0.4802  0.1846
 5585TIP3    H116761   3.017   3.421   0.508 -1.6958  1.9190  1.1123
 5585TIP3    H216762   2.881   3.455   0.449 -1.1905 -1.3387 -2.3321
 5586TIP3   OH216763   1.338   0.706   0.969 -0.2383 -0.2512 -0.2695
 5586TIP3    H116764   1.357   0.788   1.016 -0.6821  0.4224 -1.2227
 5586TIP3    H216765   1.296   0.650   1.035  0.1211  0.2609  0.4151
 5587TIP3   OH216766   4.222   0.680   0.921 -0.0403 -0.3989  0.1435
 5587TIP3    H116767   4.153   0.667   0.986 -0.4993 -1.0850 -0.4582
 5587TIP3    H216768   4.176   0.685   0.837  0.3036  2.9329  0.0206
 5588TIP3   OH216769   1.225   4.628   4.854  0.0599  0.2869 -0.1926
 5588TIP3    H116770   1.220   4.602   4.762  0.0389  0.9896 -0.3950
 5588TIP3    H216771   1.305   4.586   4.886 -0.2091 -0.3907 -0.3839
 5589TIP3   OH216772   4.064   4.943   0.839 -0.1539 -0.0572  0.3533
 5589TIP3    H116773   4.085   5.006   0.909 -0.7962  1.0287 -0.3914
 5589TIP3    H216774   3.973   4.920   0.855 -0.3013  0.1925 -0.1146
 5590TIP3   OH216775   5.300   2.522   1.997  0.3384 -0.1247 -0.2032
 5590TIP3    H116776   5.342   2.437   1.990 -0.0829 -0.2304 -1.9182
 5590TIP3    H216777   5.248   2.530   1.917  0.3108  1.7175 -0.0528
 5591TIP3   OH216778   4.220   4.418   1.008  0.1242 -0.3477  0.0658
 5591TIP3    H116779   4.205   4.381   0.921 -0.1361  1.9539 -0.9326
 5591TIP3    H216780   4.133   4.422   1.048 -0.2545  1.5033 -0.8519
 5592TIP3   OH216781   1.472   5.602   1.027 -0.2329 -0.4809 -0.0287
 5592TIP3    H116782   1.436   5.596   0.939  0.3112 -0.3841 -0.2634
 5592TIP3    H216783   1.515   5.518   1.042 -2.2860 -1.4024  1.0459
 5593TIP3   OH216784   1.300   2.720   0.872 -0.3440 -0.5509 -0.6763
 5593TIP3    H116785   1.358   2.781   0.918 -0.3196 -2.7052  2.4230
 5593TIP3    H216786   1.356   2.676   0.808  0.5883 -0.2203 -0.0955
 5594TIP3   OH216787   5.914   0.723   4.851  0.1587  0.0442 -0.3578
 5594TIP3    H116788   5.998   0.768   4.851  0.6431 -0.8360  0.7281
 5594TIP3    H216789   5.853   0.787   4.815  1.1440  0.9577 -0.4481
 5595TIP3   OH216790   4.765   0.901   1.218 -0.0507 -0.2776  0.5886
 5595TIP3    H116791   4.686   0.949   1.190  0.0109 -1.3251 -1.6469
 5595TIP3    H216792   4.733   0.839   1.283 -0.7601  0.4437  0.9480
 5596TIP3   OH216793   1.231   3.087   4.892 -0.0020 -0.3493  0.2825
 5596TIP3    H116794   1.270   3.067   4.808  1.3952  2.6619  0.1202
 5596TIP3    H216795   1.299   3.132   4.942 -0.9189 -1.6046  2.9002
 5597TIP3   OH216796   4.562   1.030   3.292  0.8951  0.2212  0.1947
 5597TIP3    H116797   4.640   1.064   3.250  0.5896  0.0998 -0.4839
 5597TIP3    H216798   4.589   0.946   3.329  0.6466 -0.7094 -1.6322
 5598TIP3   OH216799   4.154   2.631   2.068  0.5286 -0.6068 -0.1650
 5598TIP3    H116800   4.155   2.727   2.069  0.1379 -0.5915  1.0687
 5598TIP3    H216801   4.237   2.606   2.109  0.6251 -0.7966 -0.4747
 5599TIP3   OH216802   2.811   0.765   1.547  0.1644 -0.3279 -0.3769
 5599TIP3    H116803   2.891   0.816   1.557 -0.9272  1.0221  2.6695
 5599TIP3    H216804   2.755   0.819   1.492  0.5347 -0.2343 -0.6646
 5600TIP3   OH216805   6.142   1.375   1.111  0.5809 -0.2335 -0.1883
 5600TIP3    H116806   6.063   1.410   1.153  0.6125  0.2729 -0.5350
 5600TIP3    H216807   6.214   1.423   1.151  0.6259  0.0994 -0.6615
 5601TIP3   OH216808   1.005   5.027   2.852  0.2249  0.7143  0.5744
 5601TIP3    H116809   1.065   5.056   2.921  1.8493 -1.5801  0.2360
 5601TIP3    H216810   1.048   5.054   2.771  0.4344 -0.2085  0.3613
 5602TIP3   OH216811   0.549   0.282   1.707 -0.2530 -0.3503  0.0832
 5602TIP3    H116812   0.511   0.212   1.761 -0.2223 -1.2477 -1.0338
 5602TIP3    H216813   0.475   0.317   1.658 -0.2928  0.5172  0.7332
 5603TIP3   OH216814   3.059   5.891   4.665  0.0565 -0.0630 -0.4317
 5603TIP3    H116815   2.982   5.946   4.652 -0.0460 -0.2973 -0.8135
 5603TIP3    H216816   3.131   5.940   4.626  0.6756  1.5186  2.3808
 5604TIP3   OH216817   4.790   2.358   1.801 -0.1955  0.0375 -0.2243
 5604TIP3    H116818   4.875   2.331   1.768  0.0268 -0.3293  0.6228
 5604TIP3    H216819   4.743   2.276   1.817 -0.5231  0.2243 -0.2192
 5605TIP3   OH216820   0.511   1.149   4.929  0.0611  0.3644  0.2036
 5605TIP3    H116821   0.454   1.220   4.956  0.6953 -0.1888  3.4336
 5605TIP3    H216822   0.599   1.178   4.954  0.7888 -0.2266 -1.5013
 5606TIP3   OH216823   2.809   4.821   2.938 -0.2946 -0.3035  0.3172
 5606TIP3    H116824   2.856   4.888   2.988 -0.9657 -1.9103  3.3534
 5606TIP3    H216825   2.839   4.738   2.976 -2.6220 -1.5375 -0.3755
 5607TIP3   OH216826   5.460   1.109   1.330 -0.3663  0.6053  0.1159
 5607TIP3    H116827   5.531   1.142   1.275 -0.3470  1.0993  0.4367
 5607TIP3    H216828   5.390   1.087   1.268 -0.3168  1.0782 -0.1146
 5608TIP3   OH216829   4.223   4.698   2.177  0.3209 -0.0953 -0.1421
 5608TIP3    H116830   4.164   4.639   2.128  1.8811 -0.8341 -1.2179
 5608TIP3    H216831   4.223   4.779   2.126 -1.6842  0.8621  1.2407
 5609TIP3   OH216832   0.546   3.669   0.931 -0.3982 -0.1617  0.3627
 5609TIP3    H116833   0.626   3.622   0.907 -0.6074 -0.8191  0.9208
 5609TIP3    H216834   0.491   3.666   0.853 -0.2192 -0.4479  0.2509
 5610TIP3   OH216835   0.806   4.706   1.319  0.5823  0.0907  0.3280
 5610TIP3    H116836   0.816   4.797   1.291  2.5923  0.0619  0.7820
 5610TIP3    H216837   0.798   4.711   1.414 -0.9416 -0.1396  0.2361
 5611TIP3   OH216838   6.247   4.610   0.586 -0.3337 -0.2491 -0.2433
 5611TIP3    H116839   6.281   4.629   0.499  0.4685 -1.4027 -0.2030
 5611TIP3    H216840   6.276   4.521   0.604 -0.7112 -0.1181  1.1045
 5612TIP3   OH216841   2.354   3.516   3.567 -0.4097  0.0513  0.0654
 5612TIP3    H116842   2.287   3.510   3.499  0.2597 -1.8457 -0.4879
 5612TIP3    H216843   2.317   3.470   3.642 -0.2579  0.1726  0.2167
 5613TIP3   OH216844   2.015   0.435   4.624  0.9832 -0.0687 -0.4884
 5613TIP3    H116845   1.945   0.440   4.690 -0.4793  0.6616 -2.0272
 5613TIP3    H216846   2.084   0.385   4.667 -1.2862 -2.6973  0.4340
 5614TIP3   OH216847   4.146   3.049   4.232  0.5504  0.2328  0.4200
 5614TIP3    H116848   4.096   3.125   4.205  2.3856  1.7083  0.9160
 5614TIP3    H216849   4.235   3.067   4.203  0.5482 -3.3304 -2.5419
 5615TIP3   OH216850   1.879   0.302   4.823  0.2753  0.3537 -0.2746
 5615TIP3    H116851   1.864   0.255   4.741  0.1145 -0.6218  0.3040
 5615TIP3    H216852   1.885   0.234   4.890 -0.5245  1.1746  0.6729
 5616TIP3   OH216853   3.436   4.792   4.445 -0.1743 -0.4945 -0.5494
 5616TIP3    H116854   3.465   4.882   4.461  1.2207 -1.0202 -0.0315
 5616TIP3    H216855   3.440   4.782   4.350  0.4963 -0.2706 -0.5503
 5617TIP3   OH216856   1.143   3.761   0.815 -0.2437 -0.2957  0.1601
 5617TIP3    H116857   1.139   3.787   0.723  2.6522 -1.1016 -0.3043
 5617TIP3    H216858   1.145   3.666   0.813  1.3238 -0.3058  0.9158
 5618TIP3   OH216859   6.190   2.341   3.395  0.0712 -0.1377  0.1779
 5618TIP3    H116860   6.284   2.343   3.410  0.1862  1.4721 -0.6055
 5618TIP3    H216861   6.166   2.432   3.379 -1.9090 -0.2199  2.0687
 5619TIP3   OH216862   2.451   2.613   0.360 -0.5437 -0.2030  0.5989
 5619TIP3    H116863   2.465   2.666   0.439  1.8222  0.1793 -0.0058
 5619TIP3    H216864   2.470   2.524   0.387  0.6919 -0.0157  0.3809
 5620TIP3   OH216865   3.023   0.940   3.638 -0.4145 -0.0141  0.2980
 5620TIP3    H116866   3.011   0.846   3.629  0.7949 -0.3274  1.6670
 5620TIP3    H216867   2.933   0.974   3.647 -0.9071 -0.9177 -0.9292
 5621TIP3   OH216868   3.438   3.119   2.455 -0.3864 -0.1518 -0.2536
 5621TIP3    H116869   3.434   3.044   2.397  2.0351 -1.2608  0.8957
 5621TIP3    H216870   3.525   3.156   2.442 -1.0260  1.6634  0.2088
 5622TIP3   OH216871   0.504   5.258   2.192  0.0497  0.0631  0.2666
 5622TIP3    H116872   0.490   5.344   2.232  3.5444  2.7916 -3.5228
 5622TIP3    H216873   0.583   5.223   2.234  1.2153  0.9281 -1.0940
 5623TIP3   OH216874   4.283   1.728   2.608  0.6877  0.3220  0.3004
 5623TIP3    H116875   4.314   1.741   2.518  3.0071 -3.6632  0.2969
 5623TIP3    H216876   4.343   1.779   2.662  0.3049  1.4075 -0.2693
 5624TIP3   OH216877   4.772   3.512   4.943  0.1209 -0.2425 -0.2892
 5624TIP3    H116878   4.758   3.607   4.940  2.4329  0.1426 -0.1572
 5624TIP3    H216879   4.762   3.489   5.035  1.3185  0.1915 -0.0407
 5625TIP3   OH216880   0.386   3.025   2.387 -0.3516  0.2504 -0.8930
 5625TIP3    H116881   0.354   2.976   2.311  0.6199 -3.7180  1.0119
 5625TIP3    H216882   0.469   2.984   2.409  1.4899  3.9785  0.0224
 5626TIP3   OH216883   5.617   5.702   2.396  0.1623 -0.8994 -0.6286
 5626TIP3    H116884   5.609   5.744   2.310 -0.1485  0.2501 -0.0564
 5626TIP3    H216885   5.622   5.608   2.376 -2.4505 -0.8986 -1.8157
 5627TIP3   OH216886   4.750   1.333   1.454  0.0489  0.3786 -0.1661
 5627TIP3    H116887   4.838   1.303   1.430 -0.1649  0.2742 -0.8424
 5627TIP3    H216888   4.760   1.367   1.543  1.0538  1.5857 -0.7050
 5628TIP3   OH216889   4.098   2.016   4.268 -0.2249  0.4058  0.0384
 5628TIP3    H116890   4.066   1.928   4.287 -0.1636 -0.0513 -1.7810
 5628TIP3    H216891   4.022   2.072   4.283 -1.0935 -0.3144 -1.3804
 5629TIP3   OH216892   2.456   1.516   4.936 -0.3964  0.2889  0.2593
 5629TIP3    H116893   2.529   1.511   4.998  0.9120  0.6096 -1.1923
 5629TIP3    H216894   2.404   1.591   4.967  1.1925  1.5652  0.0215
 5630TIP3   OH216895   2.394   2.296   3.704 -0.1562 -0.1298 -0.3139
 5630TIP3    H116896   2.415   2.366   3.642 -1.8760  1.0881  0.4037
 5630TIP3    H216897   2.480   2.262   3.732  0.7180  1.4288 -0.9645
 5631TIP3   OH216898   3.466   2.985   4.332 -0.2326 -0.3727  0.7902
 5631TIP3    H116899   3.435   3.075   4.337  1.1638  0.2602 -0.9104
 5631TIP3    H216900   3.489   2.962   4.423  1.0987  1.6294  1.0095
 5632TIP3   OH216901   4.672   0.163   4.550  0.1487  0.3940  0.1093
 5632TIP3    H116902   4.667   0.218   4.472  2.0617 -0.7553 -0.8928
 5632TIP3    H216903   4.629   0.081   4.525  1.7129 -0.3779 -0.1610
 5633TIP3   OH216904   3.189   2.080   1.596 -0.1521 -0.1269  0.4062
 5633TIP3    H116905   3.152   2.018   1.659  0.8899  0.0410  1.2150
 5633TIP3    H216906   3.208   2.028   1.518  0.0640 -0.6776  0.8257
 5634TIP3   OH216907   5.263   0.991   4.932 -0.4699  0.0590 -0.6748
 5634TIP3    H116908   5.216   0.966   4.853  1.0171 -0.3352 -1.4739
 5634TIP3    H216909   5.272   0.909   4.981  0.3586 -0.1007 -1.0757
 5635TIP3   OH216910   5.357   3.380   0.773  0.3326 -0.3399 -0.3340
 5635TIP3    H116911   5.389   3.428   0.849 -1.0174 -1.2057  0.8430
 5635TIP3    H216912   5.264   3.365   0.791  0.3402 -1.9882 -1.3828
 5636TIP3   OH216913   3.720   3.471   0.367  0.6244  0.0808 -0.4360
 5636TIP3    H116914   3.687   3.455   0.278  1.5041  1.4473 -1.0413
 5636TIP3    H216915   3.641   3.489   0.418  0.0797 -1.0015 -0.8533
 5637TIP3   OH216916   5.826   4.321   4.651 -0.2124  0.4441 -0.6976
 5637TIP3    H116917   5.917   4.329   4.621 -0.6170 -1.3872 -2.6766
 5637TIP3    H216918   5.780   4.394   4.610  0.3437  1.4550  0.4173
 5638TIP3   OH216919   3.658   1.697   4.421 -0.4310  0.4374  0.7124
 5638TIP3    H116920   3.619   1.637   4.485 -0.3059 -0.0047  0.3840
 5638TIP3    H216921   3.742   1.721   4.459  1.7120 -3.2133 -1.0796
 5639TIP3   OH216922   5.456   2.297   3.603 -0.5582 -0.6192  0.1921
 5639TIP3    H116923   5.387   2.326   3.663 -1.5034  0.8581 -1.5108
 5639TIP3    H216924   5.409   2.250   3.534  0.1188  0.3187 -0.9402
 5640TIP3   OH216925   4.431   4.427   0.144 -0.7226 -0.1494 -0.2780
 5640TIP3    H116926   4.484   4.387   0.212 -0.2153  1.8938  0.6053
 5640TIP3    H216927   4.443   4.370   0.068  2.0692 -0.2644  0.1236
 5641TIP3   OH216928   6.081   2.915   4.679  0.4773  0.1661  0.3922
 5641TIP3    H116929   6.163   2.866   4.687  0.9822  0.8640 -0.3305
 5641TIP3    H216930   6.029   2.866   4.615  0.8963  0.4543 -0.1770
 5642TIP3   OH216931   2.046   1.207   2.617  0.1820 -0.0832 -0.2527
 5642TIP3    H116932   1.961   1.250   2.605  1.2707  2.8566  1.3175
 5642TIP3    H216933   2.076   1.186   2.529 -1.9248 -0.7251 -0.8602
 5643TIP3   OH216934   5.152   3.286   4.463  0.3657  0.4456 -0.4586
 5643TIP3    H116935   5.119   3.240   4.540  0.4461  0.5072 -0.3868
 5643TIP3    H216936   5.243   3.257   4.455  0.5394  0.9025 -0.1721
 5644TIP3   OH216937   0.213   2.619   3.923 -0.3886 -0.3258  0.2749
 5644TIP3    H116938   0.181   2.557   3.988 -0.6600 -0.3367  0.1296
 5644TIP3    H216939   0.264   2.566   3.861  0.5499 -0.2062  0.9130
 5645TIP3   OH216940   2.582   2.931   0.839  0.3730  0.3399  0.4512
 5645TIP3    H116941   2.577   2.948   0.933  1.0976 -1.0843  0.7886
 5645TIP3    H216942   2.668   2.964   0.814  0.1975  0.6787  0.2905
 5646TIP3   OH216943   2.790   5.418   0.052  0.5871  0.1408  0.9827
 5646TIP3    H116944   2.864   5.471   0.023 -0.0574  0.6114  0.1542
 5646TIP3    H216945   2.714   5.462   0.015  0.0406 -1.4122  0.1904
 5647TIP3   OH216946   4.775   3.831   2.836 -0.3233  0.1659  0.0659
 5647TIP3    H116947   4.703   3.882   2.874 -0.6769  0.5799 -1.1223
 5647TIP3    H216948   4.852   3.858   2.886 -0.6605  1.2006  0.0637
 5648TIP3   OH216949   2.480   4.028   4.578 -0.1385 -0.1853  0.2618
 5648TIP3    H116950   2.538   4.104   4.564 -0.0738 -0.3008 -0.1253
 5648TIP3    H216951   2.512   3.963   4.516 -0.6507 -0.2726  0.0855
 5649TIP3   OH216952   6.292   5.133   3.147  0.0162  0.5779  0.2987
 5649TIP3    H116953   6.256   5.045   3.161  1.0263  0.2191  0.7214
 5649TIP3    H216954   6.384   5.125   3.171  0.2092  1.6621 -0.0491
 5650TIP3   OH216955   4.579   1.401   0.823  0.4012  0.8645 -0.3350
 5650TIP3    H116956   4.611   1.468   0.763  0.3855  2.5693  1.4640
 5650TIP3    H216957   4.581   1.443   0.909 -1.2776 -0.8718  0.6211
 5651TIP3   OH216958   2.513   4.662   4.853 -0.5426  0.8027  0.1386
 5651TIP3    H116959   2.511   4.745   4.805  1.2084 -0.8055 -2.9872
 5651TIP3    H216960   2.448   4.607   4.810  0.2221 -0.3227  0.3828
 5652TIP3   OH216961   1.997   5.713   1.793  0.3740 -0.4088 -0.3835
 5652TIP3    H116962   2.038   5.628   1.807 -1.0238 -1.2762 -1.2847
 5652TIP3    H216963   2.038   5.746   1.713  1.7299  0.3289  0.5673
 5653TIP3   OH216964   0.497   2.166   1.561 -0.5218 -0.0326  0.2567
 5653TIP3    H116965   0.408   2.157   1.525 -0.6917 -0.6404  0.7994
 5653TIP3    H216966   0.506   2.091   1.620  0.0611  0.4758  0.8257
 5654TIP3   OH216967   3.627   4.292   2.647  0.4394 -0.3219  0.3068
 5654TIP3    H116968   3.589   4.377   2.624 -0.0384 -0.5293  0.3333
 5654TIP3    H216969   3.609   4.236   2.572  1.6259 -0.1409 -0.1449
 5655TIP3   OH216970   2.509   4.898   0.191 -0.1103 -0.0472 -0.0746
 5655TIP3    H116971   2.575   4.906   0.261 -0.6249  0.1938  0.3938
 5655TIP3    H216972   2.533   4.965   0.128 -0.1709  0.3546  0.3217
 5656TIP3   OH216973   5.416   4.189   0.988  0.2649 -0.1843 -0.3856
 5656TIP3    H116974   5.412   4.186   0.892 -0.6723  0.2134 -0.3760
 5656TIP3    H216975   5.325   4.202   1.015  0.2629 -2.0925  0.6485
 5657TIP3   OH216976   6.125   5.148   0.438  0.3697 -0.0944  0.2299
 5657TIP3    H116977   6.044   5.190   0.410  1.0979  1.0888 -0.1586
 5657TIP3    H216978   6.193   5.213   0.421  1.6343 -1.6683 -1.0016
 5658TIP3   OH216979   0.177   1.806   1.879  0.3278 -0.4393 -0.1472
 5658TIP3    H116980   0.098   1.785   1.830 -0.0361  0.1823  0.1589
 5658TIP3    H216981   0.223   1.870   1.825 -0.4867  0.8835  0.6783
 5659TIP3   OH216982   2.356   5.190   0.890  0.2063  0.4461 -0.6557
 5659TIP3    H116983   2.447   5.178   0.866  0.8489 -0.0774  1.8133
 5659TIP3    H216984   2.311   5.204   0.807  2.9064  3.6580 -1.8248
 5660TIP3   OH216985   0.466   5.883   1.569  0.0510 -0.0848 -0.6363
 5660TIP3    H116986   0.398   5.925   1.516 -1.8118  0.7135  2.1507
 5660TIP3    H216987   0.507   5.955   1.617 -0.8103 -0.9877  1.6051
 5661TIP3   OH216988   4.786   3.858   0.951 -0.2440  0.6698  0.2856
 5661TIP3    H116989   4.812   3.787   1.010  1.9118  1.0761 -0.0948
 5661TIP3    H216990   4.696   3.879   0.977 -1.4126 -2.9296 -0.3193
 5662TIP3   OH216991   4.419   5.999   2.040  0.7274 -0.2264  0.4473
 5662TIP3    H116992   4.461   5.936   2.098  1.1156 -0.4250 -0.0443
 5662TIP3    H216993   4.462   5.987   1.955 -0.6568 -0.7978 -0.2120
 5663TIP3   OH216994   6.250   2.286   3.844 -0.2430  0.1112 -0.0964
 5663TIP3    H116995   6.161   2.255   3.863 -0.3426  1.3216  1.6524
 5663TIP3    H216996   6.237   2.370   3.798 -0.0847  1.3181  1.9491
 5664TIP3   OH216997   1.065   4.208   3.028  0.6249  0.0045  0.7166
 5664TIP3    H116998   1.114   4.186   2.949  1.4805 -0.3120  1.3171
 5664TIP3    H216999   1.130   4.201   3.098 -0.2317 -0.1486  1.4991
 5665TIP3   OH217000   2.023   5.565   0.876  0.2457  0.3890 -0.6546
 5665TIP3    H117001   2.045   5.658   0.882  2.7927 -0.1835 -0.3447
 5665TIP3    H217002   1.927   5.563   0.879  0.1444  2.9706 -0.3776
 5666TIP3   OH217003   1.909   3.411   3.111  0.1603  0.4836 -0.3083
 5666TIP3    H117004   1.815   3.418   3.097  0.1619  2.3918  0.3525
 5666TIP3    H217005   1.927   3.316   3.109 -1.7412  0.0947 -0.4852
 5667TIP3   OH217006   3.785   0.863   1.732 -0.1760 -0.2178  0.1684
 5667TIP3    H117007   3.859   0.803   1.721  1.0281  0.8110  2.1426
 5667TIP3    H217008   3.825   0.949   1.742 -1.5851  0.3087  1.6917
 5668TIP3   OH217009   1.821   2.595   2.446  0.1061  0.3466 -0.6974
 5668TIP3    H117010   1.813   2.569   2.537  1.8806  2.6701  0.2270
 5668TIP3    H217011   1.868   2.523   2.404  2.0793  0.5572  0.9898
 5669TIP3   OH217012   2.982   2.721   1.555  0.2154 -0.5847 -0.6873
 5669TIP3    H117013   2.894   2.709   1.590  0.3692 -1.7520 -0.6571
 5669TIP3    H217014   3.033   2.649   1.593  0.9737 -0.4394 -1.3910
 5670TIP3   OH217015   3.016   0.064   1.268  0.2887 -0.7558 -1.1003
 5670TIP3    H117016   2.946   0.073   1.332 -1.0782  1.3430 -2.7402
 5670TIP3    H217017   3.057   0.150   1.266  2.8600 -1.8829 -0.3359
 5671TIP3   OH217018   1.951   1.876   1.894 -0.2488 -0.4243  0.0956
 5671TIP3    H117019   2.028   1.904   1.942  0.4805 -0.5475 -0.9695
 5671TIP3    H217020   1.939   1.784   1.918 -0.0627 -0.4054  0.2593
 5672TIP3   OH217021   2.502   5.189   1.334  0.6734 -0.1235  0.0046
 5672TIP3    H117022   2.550   5.110   1.356  1.9419  0.4701 -0.5479
 5672TIP3    H217023   2.411   5.160   1.326  1.0334 -1.4101  0.3375
 5673TIP3   OH217024   5.202   2.470   1.384  0.2645 -0.3949  0.9148
 5673TIP3    H117025   5.120   2.466   1.334 -0.9144  2.4363  2.4219
 5673TIP3    H217026   5.258   2.527   1.332  2.2087 -3.7429 -1.0755
 5674TIP3   OH217027   1.875   5.604   2.700  0.4595  0.4004  0.3074
 5674TIP3    H117028   1.948   5.549   2.673 -0.3397 -0.8055  0.5118
 5674TIP3    H217029   1.836   5.635   2.619  0.7265  0.4076  0.1826
 5675TIP3   OH217030   1.916   5.312   2.968 -0.7787 -0.0770 -0.1628
 5675TIP3    H117031   1.983   5.367   3.009 -0.7147 -0.0978 -0.2388
 5675TIP3    H217032   1.850   5.374   2.937 -0.8946 -0.0711  0.0925
 5676TIP3   OH217033   0.033   0.105   5.124 -0.0314 -0.1898  0.2614
 5676TIP3    H117034   0.075   0.034   5.170 -0.3648  0.5101  1.7054
 5676TIP3    H217035  -0.044   0.066   5.084  0.4196 -0.8672  0.0451
 5677TIP3   OH217036   6.125   1.101   2.475 -0.5996 -0.0216  0.0917
 5677TIP3    H117037   6.165   1.165   2.533 -0.4095 -0.8654  0.9203
 5677TIP3    H217038   6.200   1.056   2.435 -0.7246  0.7363 -1.0381
 5678TIP3   OH217039   3.220   5.782   3.988  0.0754  0.2272  0.2653
 5678TIP3    H117040   3.218   5.856   3.928  2.8642  0.1644 -0.0195
 5678TIP3    H217041   3.174   5.712   3.941 -0.3248  1.0109 -0.5423
 5679TIP3   OH217042   0.169   4.065   4.501 -0.1651  0.8223  0.0904
 5679TIP3    H117043   0.215   4.064   4.585  0.9240 -0.6644 -0.4778
 5679TIP3    H217044   0.090   4.117   4.517  0.4879  1.3567  1.7643
 5680TIP3   OH217045   2.924   3.705   1.750 -0.0544  0.1741  0.1362
 5680TIP3    H117046   2.972   3.622   1.759  1.9861  1.3127  0.5721
 5680TIP3    H217047   2.841   3.690   1.795  0.7805 -1.2777  1.3000
 5681TIP3   OH217048   1.858   4.425   4.616 -0.0295 -0.3930  0.0758
 5681TIP3    H117049   1.840   4.332   4.627 -0.0294 -0.6998 -2.1438
 5681TIP3    H217050   1.778   4.461   4.579  0.9661 -0.1286 -1.9190
 5682TIP3   OH217051   1.968   2.764   3.203  0.7198 -0.0833 -0.3689
 5682TIP3    H117052   2.011   2.750   3.287 -0.2780  2.3708  0.6428
 5682TIP3    H217053   1.874   2.754   3.222  0.5724 -1.7024 -1.7168
 5683TIP3   OH217054   1.613   4.234   3.669 -0.3099  0.2313 -0.0604
 5683TIP3    H117055   1.677   4.301   3.692 -0.0187  0.4392 -1.3848
 5683TIP3    H217056   1.653   4.151   3.696 -0.2399  0.5040  0.6787
 5684TIP3   OH217057   2.194   1.345   4.741  0.1064  0.0128 -0.5669
 5684TIP3    H117058   2.240   1.372   4.821  0.9662  1.2828 -1.4480
 5684TIP3    H217059   2.182   1.250   4.751 -3.9825  0.6043  3.1799
 5685TIP3   OH217060   4.621   1.146   0.935  0.3815  0.8557  0.0042
 5685TIP3    H117061   4.693   1.094   0.898  1.4282  0.8006  1.9950
 5685TIP3    H217062   4.604   1.213   0.869  0.2205 -0.8716 -1.8290
 5686TIP3   OH217063   4.016   5.800   4.928  0.7626 -0.4310  0.2276
 5686TIP3    H117064   3.959   5.753   4.989  0.4680 -2.7549 -1.6983
 5686TIP3    H217065   3.972   5.884   4.914 -1.3402 -1.4902  0.1087
 5687TIP3   OH217066   3.595   5.123   4.966 -0.3522  0.2757  0.0983
 5687TIP3    H117067   3.671   5.110   5.023 -0.5546 -0.8736  0.1260
 5687TIP3    H217068   3.523   5.078   5.011 -0.8494  0.6182 -0.3415
 5688TIP3   OH217069   6.225   3.898   0.898  0.0256  0.4329  0.3319
 5688TIP3    H117070   6.277   3.933   0.825  1.2539 -0.6974  0.6240
 5688TIP3    H217071   6.191   3.976   0.942  1.9016  1.2874  0.3998
 5689TIP3   OH217072   1.613   5.448   3.536 -0.0984 -0.2592  0.0326
 5689TIP3    H117073   1.563   5.475   3.459  0.0597  0.0009  0.0174
 5689TIP3    H217074   1.636   5.357   3.519  0.0969 -0.1477 -0.3170
 5690TIP3   OH217075   0.438   5.506   2.826 -0.7904 -0.5382 -0.0226
 5690TIP3    H117076   0.445   5.537   2.736 -2.5827  0.5342  0.1741
 5690TIP3    H217077   0.504   5.557   2.874 -2.1010  1.3747 -0.1413
 5691TIP3   OH217078   5.163   3.617   0.570 -0.3139 -0.0615  0.3418
 5691TIP3    H117079   5.125   3.594   0.654  0.8974 -1.7323  0.4993
 5691TIP3    H217080   5.089   3.621   0.510 -1.2589  1.6849  1.5500
 5692TIP3   OH217081   4.678   3.179   4.647 -0.2828  0.3905 -0.3621
 5692TIP3    H117082   4.613   3.182   4.576 -2.8575  2.2901  1.8429
 5692TIP3    H217083   4.704   3.270   4.659 -1.5273  0.4893  2.3604
 5693TIP3   OH217084   3.302   1.113   4.998  0.6220 -0.6030  0.1982
 5693TIP3    H117085   3.340   1.188   5.044 -0.0457  0.0959 -0.3543
 5693TIP3    H217086   3.247   1.070   5.063 -1.3676  1.1335 -0.2236
 5694TIP3   OH217087   2.006   0.439   1.266  0.1219 -0.7797 -0.5256
 5694TIP3    H117088   2.069   0.378   1.228  1.4439 -0.0990  0.5066
 5694TIP3    H217089   1.923   0.417   1.223  0.9242 -2.0859 -1.4875
 5695TIP3   OH217090   0.272   5.072   0.542  0.4880  0.3041  0.1422
 5695TIP3    H117091   0.285   5.141   0.607  0.1911 -0.3472  0.9054
 5695TIP3    H217092   0.264   5.119   0.459 -0.5884  1.2691  0.7550
 5696TIP3   OH217093   4.913   0.986   5.130 -0.3767 -0.1084  0.1939
 5696TIP3    H117094   4.931   1.020   5.042 -3.5965 -1.2362 -1.0484
 5696TIP3    H217095   4.883   1.062   5.180 -1.3528  0.0642 -0.6170
 5697TIP3   OH217096   1.907   0.271   1.612  0.5097 -0.2256  0.3053
 5697TIP3    H117097   1.916   0.193   1.666  0.3432  0.2238  1.0037
 5697TIP3    H217098   1.942   0.342   1.666 -1.1268  0.4933  0.4877
 5698TIP3   OH217099   6.300   1.933   0.380  0.1184 -0.2550  0.5540
 5698TIP3    H117100   6.391   1.908   0.362  0.0609  0.0937 -0.2224
 5698TIP3    H217101   6.285   2.011   0.327 -0.1025  0.7179  1.9649
 5699TIP3   OH217102   2.269   5.844   0.537 -0.9180 -0.1183 -0.0426
 5699TIP3    H117103   2.349   5.857   0.589  0.7814  0.2006 -2.5435
 5699TIP3    H217104   2.204   5.901   0.579  1.0901  2.1658  0.2338
 5700TIP3   OH217105   2.078   0.832   5.102  0.6001  0.6105 -0.0677
 5700TIP3    H117106   1.996   0.875   5.124 -1.5077 -3.0240  0.0741
 5700TIP3    H217107   2.070   0.810   5.009  1.4220  0.2691 -0.0696
 5701TIP3   OH217108   1.209   1.557   4.575  0.6107  0.5489 -0.6975
 5701TIP3    H117109   1.211   1.464   4.549  1.2360  0.1566  0.6335
 5701TIP3    H217110   1.258   1.559   4.657  0.0055  1.9596 -0.3486
 5702TIP3   OH217111   2.995   3.453   1.885  0.2970 -0.2639 -0.1072
 5702TIP3    H117112   3.062   3.386   1.901 -0.7030 -1.1245  0.5773
 5702TIP3    H217113   2.992   3.503   1.967  1.9095  1.4587 -1.0274
 5703TIP3   OH217114   5.103   3.444   2.225 -0.0747 -0.2155  0.3794
 5703TIP3    H117115   5.159   3.521   2.213 -0.3905  0.0929  0.8995
 5703TIP3    H217116   5.088   3.412   2.136 -0.9666  1.0538  0.0528
 5704TIP3   OH217117   6.042   3.041   3.669  0.8634  0.0553  0.8047
 5704TIP3    H117118   5.976   3.043   3.738  0.0438 -5.2218  0.5780
 5704TIP3    H217119   6.073   3.131   3.662 -1.4428  1.5076  5.6027
 5705TIP3   OH217120   1.772   1.669   3.649 -0.5465  0.1527  0.1901
 5705TIP3    H117121   1.828   1.738   3.685 -0.3798  0.6167 -0.9028
 5705TIP3    H217122   1.830   1.593   3.641 -0.6788 -0.0590  1.2148
 5706TIP3   OH217123   4.660   4.803   3.545 -0.4018  0.3991  0.2547
 5706TIP3    H117124   4.577   4.773   3.583 -0.7971  1.2065  0.0406
 5706TIP3    H217125   4.647   4.794   3.451 -0.0611  0.0687  0.2355
 5707TIP3   OH217126   3.360   5.678   3.099 -0.5778  0.1673  0.5600
 5707TIP3    H117127   3.312   5.731   3.035  1.5079 -0.1321 -1.3631
 5707TIP3    H217128   3.437   5.730   3.120  0.1210 -0.9150  0.7500
 5708TIP3   OH217129   1.637   4.641   1.508  0.2622  0.3299  0.1578
 5708TIP3    H117130   1.645   4.554   1.547  0.5113  0.4417  0.3660
 5708TIP3    H217131   1.572   4.631   1.439 -0.2892  0.1534  0.6914
 5709TIP3   OH217132   3.531   3.960   3.975  0.1387  0.0309  0.5755
 5709TIP3    H117133   3.536   4.044   4.021 -0.7222  1.1252 -1.2258
 5709TIP3    H217134   3.618   3.948   3.938  0.2841  0.0868  0.8903
 5710TIP3   OH217135   3.812   1.942   0.246 -0.6937  0.6488  0.1502
 5710TIP3    H117136   3.836   1.974   0.333  0.0198 -0.4135  0.3618
 5710TIP3    H217137   3.854   2.004   0.186  0.5366  0.2474  0.5538
 5711TIP3   OH217138   1.108   3.712   1.622 -0.5202 -0.5652 -0.1638
 5711TIP3    H117139   1.128   3.797   1.661 -0.5052 -1.1539  1.1469
 5711TIP3    H217140   1.013   3.703   1.631 -0.8390  0.1839 -2.1769
 5712TIP3   OH217141   2.716   1.128   4.359 -0.4508  0.2957 -0.4326
 5712TIP3    H117142   2.626   1.119   4.329 -0.5136  2.4722 -1.0749
 5712TIP3    H217143   2.712   1.115   4.454 -1.8774  2.6330 -0.1034
 5713TIP3   OH217144   1.801   0.241   0.371  0.4266 -0.3772  0.2041
 5713TIP3    H117145   1.824   0.269   0.282 -1.2367 -0.0860 -0.1858
 5713TIP3    H217146   1.809   0.321   0.424 -0.6271 -0.0275 -0.1369
 5714TIP3   OH217147   1.417   5.791   1.214  0.9918 -0.3132 -0.2627
 5714TIP3    H117148   1.439   5.735   1.140 -1.0742 -0.9409 -0.4607
 5714TIP3    H217149   1.363   5.860   1.177  2.2982  1.0306  0.2305
 5715TIP3   OH217150   1.708   1.745   3.399  0.3713  0.0669 -0.1891
 5715TIP3    H117151   1.710   1.709   3.487 -0.2514  0.2483 -0.0977
 5715TIP3    H217152   1.666   1.678   3.346  0.6023  0.0238 -0.3200
 5716TIP3   OH217153   4.341   2.932   2.825  0.1323 -0.1621 -0.5078
 5716TIP3    H117154   4.385   2.886   2.897  0.9111 -0.3534 -1.0858
 5716TIP3    H217155   4.248   2.918   2.841  0.2753 -0.0314  0.5705
 5717TIP3   OH217156   3.700   1.037   2.857 -0.0285  0.1686  0.0195
 5717TIP3    H117157   3.777   1.036   2.800 -0.3717  1.3823 -0.4905
 5717TIP3    H217158   3.705   1.120   2.904 -1.5433  0.7306 -0.7448
 5718TIP3   OH217159   4.531   2.608   4.051  0.2593  0.2180 -0.4124
 5718TIP3    H117160   4.588   2.608   3.974 -0.8241  2.2992 -1.3140
 5718TIP3    H217161   4.448   2.571   4.019  0.6399 -1.5338  0.5326
 5719TIP3   OH217162   4.872   1.909   0.253  0.0790 -0.1952 -0.0544
 5719TIP3    H117163   4.791   1.954   0.230  0.5502  0.2212 -0.9741
 5719TIP3    H217164   4.941   1.970   0.228  0.7211 -1.2401 -0.9486
 5720TIP3   OH217165   2.533   2.400   0.738 -0.4794  0.3106 -0.0710
 5720TIP3    H117166   2.533   2.332   0.805  0.2069 -1.9287 -2.1535
 5720TIP3    H217167   2.441   2.422   0.726 -0.6069  0.7012  1.5318
 5721TIP3   OH217168   6.360   5.192   0.810 -0.0649 -0.1582 -0.3363
 5721TIP3    H117169   6.277   5.147   0.793  0.7889 -2.0748  0.2244
 5721TIP3    H217170   6.396   5.147   0.887  1.2574  0.9554 -0.2659
 5722TIP3   OH217171   0.765   2.582   2.975 -0.2244 -0.4688  0.3736
 5722TIP3    H117172   0.716   2.561   2.896  1.7294 -2.0049 -0.4943
 5722TIP3    H217173   0.855   2.591   2.946  0.6661 -1.7911  2.5095
 5723TIP3   OH217174   5.109   4.295   0.743 -0.4875  0.0601  0.0588
 5723TIP3    H117175   5.143   4.385   0.741 -0.6523  0.1321  0.4346
 5723TIP3    H217176   5.186   4.241   0.762 -0.1799  0.0111 -1.2318
 5724TIP3   OH217177   2.871   5.153   0.216 -0.0664  0.1525  0.0944
 5724TIP3    H117178   2.958   5.190   0.234  1.0891 -1.5861 -1.5583
 5724TIP3    H217179   2.864   5.152   0.121 -0.3211 -3.0867  0.0337
 5725TIP3   OH217180   5.385   2.514   2.640 -0.5850 -0.1707  0.0964
 5725TIP3    H117181   5.355   2.571   2.711 -0.1596 -1.1516  1.0921
 5725TIP3    H217182   5.314   2.517   2.576 -1.5550 -0.2282  1.1230
 5726TIP3   OH217183   4.681   3.733   0.078  1.0187 -0.1897 -0.2248
 5726TIP3    H117184   4.730   3.770   0.005  0.5985  0.3004 -0.2625
 5726TIP3    H217185   4.602   3.696   0.038  0.2939  0.9743  0.0837
 5727TIP3   OH217186   3.903   1.547   3.706 -0.1280  0.1539  0.3083
 5727TIP3    H117187   3.956   1.583   3.778 -0.4368  0.4608  0.3843
 5727TIP3    H217188   3.862   1.470   3.744 -0.7117  0.6103  0.6349
 5728TIP3   OH217189   3.931   2.280   4.802 -0.0209  0.0869 -0.4872
 5728TIP3    H117190   3.928   2.206   4.741 -0.9627 -1.5490  1.4024
 5728TIP3    H217191   4.022   2.308   4.803  0.5113 -1.5560 -0.7226
 5729TIP3   OH217192   5.869   4.247   4.906 -0.0454 -0.3553  0.2932
 5729TIP3    H117193   5.833   4.247   4.817  0.8487 -1.4636 -0.0959
 5729TIP3    H217194   5.840   4.165   4.944  0.5248 -0.4138  0.6139
 5730TIP3   OH217195   4.392   2.183   0.795  0.3606  0.4552  0.1435
 5730TIP3    H117196   4.315   2.223   0.834  0.7008  0.4478  0.8457
 5730TIP3    H217197   4.421   2.246   0.729 -1.0481 -0.1800 -1.1292
 5731TIP3   OH217198   0.698   0.344   3.763  0.0161  0.1105  0.8598
 5731TIP3    H117199   0.783   0.344   3.718  0.8329 -1.3545  2.3213
 5731TIP3    H217200   0.638   0.304   3.700  1.2039 -2.2206  1.0909
 5732TIP3   OH217201   4.466   2.808   1.544 -0.2938 -0.2346  0.4689
 5732TIP3    H117202   4.541   2.845   1.589 -1.4795  1.4929  1.1290
 5732TIP3    H217203   4.456   2.862   1.465 -0.7475 -0.5581  0.2967
 5733TIP3   OH217204   1.583   4.267   4.702  0.5514  0.2287 -0.1627
 5733TIP3    H117205   1.561   4.304   4.788  0.2277  0.3335 -0.2905
 5733TIP3    H217206   1.499   4.254   4.659  0.6762 -0.4282 -0.2172
 5734TIP3   OH217207   6.381   3.842   0.111  0.1537 -0.0324 -0.0081
 5734TIP3    H117208   6.388   3.819   0.203  1.1522 -1.4408 -0.4021
 5734TIP3    H217209   6.287   3.836   0.092  0.0328 -0.5162  0.7182
 5735TIP3   OH217210   2.748   0.506   1.565  0.3161 -0.2754 -0.4415
 5735TIP3    H117211   2.761   0.601   1.565 -1.9122  0.1465  2.2060
 5735TIP3    H217212   2.674   0.492   1.506  0.9465 -0.4425 -1.2010
 5736TIP3   OH217213   3.333   1.296   0.366  0.2160 -0.6675  0.1150
 5736TIP3    H117214   3.309   1.212   0.404 -3.0987 -0.8265 -1.9707
 5736TIP3    H217215   3.296   1.361   0.426  0.2790 -0.7565  0.2507
 5737TIP3   OH217216   0.841   4.068   3.410  0.0549 -0.4032 -0.6204
 5737TIP3    H117217   0.833   4.087   3.317 -3.6743  1.6246 -0.0752
 5737TIP3    H217218   0.784   3.992   3.424  0.0662 -0.2880  0.1024
 5738TIP3   OH217219   4.449   4.683   3.846  0.3219  0.0008 -0.3222
 5738TIP3    H117220   4.453   4.661   3.939 -2.1527  0.0858 -0.1312
 5738TIP3    H217221   4.454   4.779   3.843 -0.0894  0.0293 -0.2109
 5739TIP3   OH217222   4.953   1.821   0.524 -0.1916 -0.5098  0.3818
 5739TIP3    H117223   4.922   1.808   0.434  0.1778 -0.6268  0.2668
 5739TIP3    H217224   5.042   1.786   0.523  0.3960  0.9155  0.3858
 5740TIP3   OH217225   3.458   1.732   4.729 -0.1129 -0.2796  0.1733
 5740TIP3    H117226   3.485   1.656   4.678  1.0991  0.2812 -0.0670
 5740TIP3    H217227   3.515   1.731   4.806 -1.0066 -0.3582  0.8509
 5741TIP3   OH217228   3.413   1.739   0.298  0.0782  0.4802  0.5627
 5741TIP3    H117229   3.481   1.782   0.246  1.2234 -0.7164  1.0099
 5741TIP3    H217230   3.384   1.667   0.243  0.8820 -0.4380  1.3181
 5742TIP3   OH217231   4.609   3.435   3.437  0.3190 -0.3607 -0.0930
 5742TIP3    H117232   4.572   3.400   3.356  2.1880 -2.1846 -0.2608
 5742TIP3    H217233   4.533   3.463   3.488 -1.2154 -2.5232 -0.9977
 5743TIP3   OH217234   1.476   5.053   1.385 -0.7737  0.1000 -0.1787
 5743TIP3    H117235   1.465   5.126   1.446 -0.8683 -0.7504  0.8462
 5743TIP3    H217236   1.400   4.998   1.399  0.2047 -1.1446  0.4026
 5744TIP3   OH217237   4.095   1.638   1.083 -0.3277 -1.1779 -0.1553
 5744TIP3    H117238   4.125   1.550   1.058 -0.3695 -1.1099 -0.4418
 5744TIP3    H217239   4.122   1.694   1.010 -0.6147 -1.0127 -0.1346
 5745TIP3   OH217240   1.074   4.671   0.614  0.3366  0.5929 -0.0369
 5745TIP3    H117241   1.071   4.762   0.641 -0.9008  0.3227  0.8281
 5745TIP3    H217242   1.166   4.645   0.627  0.5502  1.5214  0.3432
 5746TIP3   OH217243   0.970   2.148   3.404 -0.0572  0.4948 -0.1450
 5746TIP3    H117244   0.897   2.171   3.347 -0.6582  0.2306  0.5001
 5746TIP3    H217245   0.944   2.181   3.490 -0.2342 -1.1598  0.4732
 5747TIP3   OH217246   6.322   5.308   0.322  0.0812  0.0797  0.1122
 5747TIP3    H117247   6.371   5.263   0.254 -2.0087 -1.3904 -0.5402
 5747TIP3    H217248   6.372   5.387   0.341  1.0331  0.2362 -2.7103
 5748TIP3   OH217249   4.950   3.352   0.448  0.9402 -0.4457  0.1463
 5748TIP3    H117250   4.910   3.439   0.448 -1.2776 -1.3760 -1.7514
 5748TIP3    H217251   4.911   3.308   0.524 -1.0825 -1.0525 -1.1830
 5749TIP3   OH217252   6.067   3.109   1.468 -0.2996 -0.3560 -0.1457
 5749TIP3    H117253   6.060   3.184   1.408 -0.4005 -1.1166 -1.1084
 5749TIP3    H217254   6.161   3.099   1.482 -0.2764 -0.1533 -0.1431
 5750TIP3   OH217255   5.643   0.436   4.675  0.8108  0.5855  0.0295
 5750TIP3    H117256   5.580   0.454   4.605 -1.8177 -2.7320  1.2972
 5750TIP3    H217257   5.662   0.522   4.713 -0.6655  2.0214 -2.2171
 5751TIP3   OH217258   5.201   0.505   4.322 -0.3510  0.0874 -0.2875
 5751TIP3    H117259   5.139   0.440   4.291 -0.2034 -0.1079 -0.1748
 5751TIP3    H217260   5.287   0.474   4.292 -0.4186  0.9352 -1.4138
 5752TIP3   OH217261   5.790   2.191   1.298 -0.3183 -0.3958  0.4393
 5752TIP3    H117262   5.869   2.188   1.352  0.3926 -0.4842 -0.5827
 5752TIP3    H217263   5.730   2.130   1.340  1.5408 -3.3388 -0.8645
 5753TIP3   OH217264   3.964   4.611   3.026 -0.5709 -0.6180 -0.0332
 5753TIP3    H117265   3.940   4.531   2.978 -1.1844 -0.2036 -0.4430
 5753TIP3    H217266   3.955   4.681   2.961 -1.1383 -0.0793  0.6084
 5754TIP3   OH217267   2.484   2.949   1.641  0.1240  0.3803 -0.4675
 5754TIP3    H117268   2.390   2.971   1.636  0.0964  0.8755  1.4002
 5754TIP3    H217269   2.487   2.869   1.693  0.7463  0.4204 -0.4376
 5755TIP3   OH217270   3.833   0.975   4.977  0.4372  0.4117  0.0382
 5755TIP3    H117271   3.751   0.953   4.933 -0.1635 -0.1481  1.3776
 5755TIP3    H217272   3.901   0.964   4.910 -0.5337  0.5563 -0.9976
 5756TIP3   OH217273   2.829   5.660   0.878 -0.0583 -0.8623  0.3808
 5756TIP3    H117274   2.886   5.592   0.843 -0.7901 -0.4241 -1.8552
 5756TIP3    H217275   2.760   5.612   0.924 -0.5289 -1.6666 -1.1061
 5757TIP3   OH217276   3.770   5.599   3.775 -0.4884 -0.5748 -0.4582
 5757TIP3    H117277   3.862   5.626   3.774 -0.7310  0.5693  2.0034
 5757TIP3    H217278   3.729   5.653   3.708  0.5057 -0.7094 -1.2081
 5758TIP3   OH217279   0.919   1.789   0.490  0.6752 -0.6643 -0.1915
 5758TIP3    H117280   0.909   1.849   0.416  0.1608  0.6642  0.9114
 5758TIP3    H217281   0.945   1.845   0.563  0.7040 -1.8724  0.7613
 5759TIP3   OH217282   1.482   0.406   2.449 -0.1222 -0.0778 -0.2684
 5759TIP3    H117283   1.426   0.479   2.478  0.5563  0.0620  0.7536
 5759TIP3    H217284   1.477   0.408   2.354 -1.6031  0.1324 -0.2090
 5760TIP3   OH217285   1.623   5.239   4.210 -0.3082 -0.1522  0.0230
 5760TIP3    H117286   1.621   5.157   4.259 -0.1903 -0.7898 -1.0204
 5760TIP3    H217287   1.709   5.240   4.168 -0.8744 -0.2237 -1.1746
 5761TIP3   OH217288   5.697   5.184   0.566  0.2946  0.0685 -0.1806
 5761TIP3    H117289   5.693   5.256   0.628  2.1597  0.0830 -0.0244
 5761TIP3    H217290   5.728   5.223   0.485  0.4314 -0.3968 -0.3583
 5762TIP3   OH217291   4.773   4.732   0.254  0.2655  0.6314  0.5201
 5762TIP3    H117292   4.678   4.733   0.264  0.2434  0.5102  0.3383
 5762TIP3    H217293   4.807   4.739   0.343  0.0868  0.7499  0.5805
 5763TIP3   OH217294   5.420   1.433   0.614 -0.2922 -0.0917  0.2400
 5763TIP3    H117295   5.378   1.446   0.699 -0.8411 -2.5299  0.4196
 5763TIP3    H217296   5.513   1.421   0.634  0.4019  3.7216 -0.0107
 5764TIP3   OH217297   0.654   1.324   4.631 -0.0548  0.2331  0.1015
 5764TIP3    H117298   0.719   1.320   4.560  1.5395  2.3648  1.3410
 5764TIP3    H217299   0.657   1.237   4.670  3.2036  0.6181  1.0173
 5765TIP3   OH217300   1.883   4.072   0.845  0.2257  0.1770 -0.5366
 5765TIP3    H117301   1.899   4.020   0.767 -0.9264 -1.4857  0.2851
 5765TIP3    H217302   1.945   4.038   0.910  0.2943  0.6739 -0.3342
 5766TIP3   OH217303   1.438   2.829   0.067  0.4024 -0.1336 -0.5576
 5766TIP3    H117304   1.466   2.738   0.073  1.0984  0.0360 -1.0106
 5766TIP3    H217305   1.345   2.825   0.048 -0.0314 -0.7179  1.4740
 5767TIP3   OH217306   4.379   1.389   4.434 -0.2721 -0.1512  0.3915
 5767TIP3    H117307   4.364   1.481   4.453  0.2638  0.0373 -0.0737
 5767TIP3    H217308   4.446   1.389   4.367  0.1993 -0.9037  0.8475
 5768TIP3   OH217309   0.112   2.839   0.210  0.1250 -0.0938 -0.1667
 5768TIP3    H117310   0.176   2.907   0.230  0.2029 -0.2601  0.1572
 5768TIP3    H217311   0.062   2.829   0.291  0.3782 -0.7050 -0.0784
 5769TIP3   OH217312   2.114   0.828   4.803  0.5703 -0.6842 -0.0709
 5769TIP3    H117313   2.176   0.756   4.815  0.0965 -1.1333 -0.2889
 5769TIP3    H217314   2.072   0.810   4.719  0.5830 -0.0459 -0.2248
 5770TIP3   OH217315   4.680   2.839   0.740 -0.0306 -0.4941  0.1209
 5770TIP3    H117316   4.659   2.786   0.816 -0.9863  0.1327  0.3059
 5770TIP3    H217317   4.660   2.782   0.665  0.1233 -0.8171  0.3216
 5771TIP3   OH217318   3.789   3.454   1.026  0.2360 -0.6973  0.2308
 5771TIP3    H117319   3.724   3.397   1.068  0.3915 -0.9150  0.1745
 5771TIP3    H217320   3.851   3.394   0.984  0.5568 -0.4911  0.4079
 5772TIP3   OH217321   1.849   2.148   0.922 -0.2258  0.1003  0.2632
 5772TIP3    H117322   1.909   2.186   0.986  0.2487  0.6398 -0.4872
 5772TIP3    H217323   1.899   2.077   0.881 -1.1903 -1.5683  1.8372
 5773TIP3   OH217324   2.906   3.517   4.624 -0.8365  0.3209 -0.7302
 5773TIP3    H117325   2.854   3.523   4.705 -0.6193 -0.2572 -0.5461
 5773TIP3    H217326   2.943   3.604   4.614  0.9161 -0.1579  0.9927
 5774TIP3   OH217327   1.410   5.588   4.280  0.1660 -0.2135 -0.8653
 5774TIP3    H117328   1.353   5.636   4.219 -2.0106 -3.3023 -1.5181
 5774TIP3    H217329   1.383   5.618   4.367  0.7247  1.5592 -1.2563
 5775TIP3   OH217330   6.309   1.958   2.942 -0.4250  0.0718  0.4338
 5775TIP3    H117331   6.242   1.919   2.886  0.3962 -1.7736  0.6512
 5775TIP3    H217332   6.363   2.010   2.883 -0.4502 -0.6442 -0.2418
 5776TIP3   OH217333   4.339   4.281   3.198 -0.4508  0.4192 -0.4244
 5776TIP3    H117334   4.345   4.308   3.107 -1.0382  0.7036 -0.3835
 5776TIP3    H217335   4.274   4.211   3.198 -0.5747  0.5325 -0.2012
 5777TIP3   OH217336   4.309   2.344   1.972  0.1595  0.1417  0.1026
 5777TIP3    H117337   4.375   2.405   1.939 -0.5281 -0.4353 -2.5711
 5777TIP3    H217338   4.355   2.260   1.978 -0.4867 -0.5136 -2.8437
 5778TIP3   OH217339   1.165   4.490   2.824  0.0424 -0.2945 -0.0583
 5778TIP3    H117340   1.128   4.576   2.803 -2.8892 -1.0996  1.3144
 5778TIP3    H217341   1.260   4.505   2.826 -0.3744  3.4896  2.2885
 5779TIP3   OH217342   1.537   0.836   2.576 -0.4204  0.8819  0.1476
 5779TIP3    H117343   1.465   0.865   2.519 -1.3371  2.0606  1.7760
 5779TIP3    H217344   1.543   0.905   2.642  0.9103 -0.1811  1.1937
 5780TIP3   OH217345   6.128   5.163   5.059 -0.2564  0.1999  0.3225
 5780TIP3    H117346   6.130   5.158   4.963 -1.2661 -0.0535  0.3017
 5780TIP3    H217347   6.035   5.160   5.081 -0.2428  3.0879  1.1877
 5781TIP3   OH217348   0.725   2.357   3.455 -0.7160 -0.0388 -0.4029
 5781TIP3    H117349   0.793   2.408   3.411 -2.1379  0.9951 -1.4968
 5781TIP3    H217350   0.681   2.310   3.385 -1.6939  0.0006  0.1745
 5782TIP3   OH217351   0.772   1.489   4.843 -0.1040  0.1919  0.4424
 5782TIP3    H117352   0.837   1.429   4.807  0.1598  1.5798 -1.5640
 5782TIP3    H217353   0.691   1.468   4.796  0.1548  1.7815 -0.7903
 5783TIP3   OH217354   4.974   3.991   2.962 -0.6926  0.3276 -0.2269
 5783TIP3    H117355   4.959   4.085   2.971 -0.2995  0.3227  0.5105
 5783TIP3    H217356   4.960   3.955   3.049 -0.5184 -0.2545 -0.4306
 5784TIP3   OH217357   5.638   5.913   3.149 -0.7742  0.5165  0.7264
 5784TIP3    H117358   5.603   5.867   3.225 -1.3844 -0.9037 -0.3520
 5784TIP3    H217359   5.658   6.001   3.180 -2.6322  0.5054  2.0912
 5785TIP3   OH217360   5.612   2.851   2.550 -0.8030  0.3282 -0.0512
 5785TIP3    H117361   5.540   2.892   2.502 -1.3598 -1.5951 -0.9556
 5785TIP3    H217362   5.587   2.858   2.642 -0.8614  1.9711 -0.1659
 5786TIP3   OH217363   5.036   4.331   2.611  0.1498  0.1268  0.1924
 5786TIP3    H117364   4.947   4.300   2.629  0.5432 -1.6982 -0.8272
 5786TIP3    H217365   5.082   4.255   2.577  2.2783  0.8903  1.1706
 5787TIP3   OH217366   3.271   2.826   1.698  0.0706  0.1384 -0.1732
 5787TIP3    H117367   3.183   2.828   1.737 -0.2047  3.1570 -0.6778
 5787TIP3    H217368   3.265   2.887   1.623  2.3954 -0.1811 -0.6892
 5788TIP3   OH217369   0.517   4.587   3.865  0.3666 -0.0241  0.1694
 5788TIP3    H117370   0.596   4.639   3.848  0.8679 -0.0771  2.1305
 5788TIP3    H217371   0.512   4.527   3.791  1.2793  1.0113 -0.7831
 5789TIP3   OH217372   5.466   0.355   4.918 -0.4078  0.6702 -0.2893
 5789TIP3    H117373   5.483   0.382   5.008 -0.1576 -0.6270  0.0723
 5789TIP3    H217374   5.552   0.359   4.876 -0.6302  1.9199 -0.6793
 5790TIP3   OH217375   5.608   4.295   4.164  0.4338 -0.0580 -0.5628
 5790TIP3    H117376   5.584   4.379   4.201  3.2908  1.2441 -1.4107
 5790TIP3    H217377   5.628   4.240   4.240 -1.9313 -0.2405  0.0161
 5791TIP3   OH217378   3.858   4.561   5.040  0.1288  0.9665 -0.1328
 5791TIP3    H117379   3.819   4.639   5.001 -1.7275  0.2261  0.1833
 5791TIP3    H217380   3.790   4.525   5.096  1.0445 -0.7593 -0.0605
 5792TIP3   OH217381   5.861   0.404   4.250 -0.1734 -0.6215  0.1100
 5792TIP3    H117382   5.780   0.360   4.224 -0.4425 -0.3268  0.4510
 5792TIP3    H217383   5.864   0.394   4.345 -1.1698  1.6743  0.4448
 5793TIP3   OH217384   0.432   5.572   0.476  0.3170 -0.4457 -0.3593
 5793TIP3    H117385   0.465   5.482   0.477  0.4209 -0.4589  2.0633
 5793TIP3    H217386   0.487   5.618   0.541  0.7314  1.5658 -2.0306
 5794TIP3   OH217387   5.512   3.085   3.598  0.3637  0.0388 -0.5657
 5794TIP3    H117388   5.557   3.001   3.599 -1.1782 -0.8183 -0.4040
 5794TIP3    H217389   5.452   3.080   3.523 -0.9058  0.3275  0.3947
 5795TIP3   OH217390   1.026   2.205   2.229  0.5921  0.4440 -0.0400
 5795TIP3    H117391   1.076   2.184   2.150  0.6483  1.7994 -0.3787
 5795TIP3    H217392   1.079   2.270   2.275  0.3343  0.0141  0.8872
 5796TIP3   OH217393   2.125   1.840   0.376  0.3421  0.9622  0.1161
 5796TIP3    H117394   2.061   1.888   0.323  0.6782  0.9633 -0.2980
 5796TIP3    H217395   2.195   1.904   0.392 -0.0156  1.1335  1.0462
 5797TIP3   OH217396   1.426   1.366   3.378 -0.0974 -0.3026  0.1773
 5797TIP3    H117397   1.406   1.438   3.319 -0.3263 -0.0126  0.6028
 5797TIP3    H217398   1.380   1.291   3.340  1.6683 -0.6996 -1.3162
 5798TIP3   OH217399   2.853   1.599   3.965  0.4681  0.4015 -0.1374
 5798TIP3    H117400   2.820   1.536   3.901  1.0101 -0.6661  0.5932
 5798TIP3    H217401   2.948   1.591   3.959  0.5329  0.7759  0.3336
 5799TIP3   OH217402   3.038   4.823   1.027  0.1777 -0.7999 -0.2367
 5799TIP3    H117403   2.989   4.856   0.951 -1.5270 -1.0727  0.7036
 5799TIP3    H217404   2.977   4.765   1.072  2.1260 -3.0000 -0.2369
 5800TIP3   OH217405   0.143   4.838   1.996  0.2722  0.6721  0.1173
 5800TIP3    H117406   0.164   4.921   1.952 -0.9177  0.3005 -1.2601
 5800TIP3    H217407   0.050   4.844   2.014 -0.0781 -0.7633 -0.9930
 5801TIP3   OH217408   1.239   1.235   0.074 -0.0856 -0.1874  0.8590
 5801TIP3    H117409   1.213   1.233   0.166  0.7682  1.0902  1.1378
 5801TIP3    H217410   1.202   1.317   0.041  0.5716 -0.0888  0.3588
 5802TIP3   OH217411   4.953   0.407   4.241 -0.6003  0.1671 -0.2115
 5802TIP3    H117412   4.881   0.353   4.274  1.5317 -2.1146  1.0468
 5802TIP3    H217413   4.968   0.375   4.152  0.0644 -0.7501  0.2116
 5803TIP3   OH217414   4.934   5.413   3.780 -0.2807 -0.0568 -0.2671
 5803TIP3    H117415   4.922   5.487   3.841  0.6978 -0.1092 -0.0030
 5803TIP3    H217416   5.014   5.370   3.810  1.1224  0.8370 -2.5356
 5804TIP3   OH217417   1.515   4.479   4.896 -0.3993 -0.0844 -0.0743
 5804TIP3    H117418   1.522   4.440   4.983 -1.7640 -0.1596  0.0219
 5804TIP3    H217419   1.544   4.570   4.907  2.3597 -0.8337 -0.2053
 5805TIP3   OH217420   4.668   4.200   4.605  0.0695 -0.3323  0.2528
 5805TIP3    H117421   4.588   4.166   4.645  0.4081 -0.8116  0.5266
 5805TIP3    H217422   4.663   4.295   4.618  0.1807 -0.4728  1.4555
 5806TIP3   OH217423   1.307   1.989   1.447 -0.3289  0.5749 -0.2300
 5806TIP3    H117424   1.384   1.970   1.395 -0.4373 -1.7091  0.2969
 5806TIP3    H217425   1.248   2.036   1.388  0.0336 -0.8632 -1.8008
 5807TIP3   OH217426   3.005   3.824   0.517  0.3981  0.3762 -0.1986
 5807TIP3    H117427   2.943   3.753   0.499 -1.6967  2.0425  0.0680
 5807TIP3    H217428   3.073   3.813   0.450 -0.4543 -1.2182 -0.8608
 5808TIP3   OH217429   5.103   1.821   5.007  0.0537  0.1825  0.4972
 5808TIP3    H117430   5.152   1.835   4.926 -2.3065  1.3956 -0.8298
 5808TIP3    H217431   5.042   1.894   5.011  0.5890  0.5805  3.8342
 5809TIP3   OH217432   2.023   4.491   1.551 -0.2111  0.6300 -0.1849
 5809TIP3    H117433   1.994   4.558   1.489 -0.7499  1.0442  0.5048
 5809TIP3    H217434   2.002   4.527   1.637 -1.5474 -0.8849  0.1627
 5810TIP3   OH217435   0.410   4.022   3.532  0.0092 -0.3230 -0.5534
 5810TIP3    H117436   0.341   4.088   3.522  1.8619  1.6305 -1.2709
 5810TIP3    H217437   0.398   3.988   3.621 -0.6695  1.4341  0.0783
 5811TIP3   OH217438   1.775   0.383   1.122 -0.1656 -0.1930  0.9510
 5811TIP3    H117439   1.760   0.293   1.152  1.6675 -1.6951 -2.1774
 5811TIP3    H217440   1.753   0.381   1.029 -1.6937  3.1107  1.1139
 5812TIP3   OH217441   3.603   1.411   2.001 -0.1585  0.5526  0.2666
 5812TIP3    H117442   3.631   1.485   2.056 -0.5230  1.5405 -0.8330
 5812TIP3    H217443   3.508   1.422   1.993  0.0073  1.0034 -1.3499
 5813TIP3   OH217444   5.470   5.830   2.188 -0.5030  0.1334 -0.7327
 5813TIP3    H117445   5.487   5.917   2.225 -0.8240  0.7498 -1.9815
 5813TIP3    H217446   5.464   5.845   2.094  1.0357 -1.4959 -1.1469
 5814TIP3   OH217447   1.482   4.774   1.074 -0.0433  0.2313 -1.1075
 5814TIP3    H117448   1.389   4.796   1.062  0.0349  1.4283  0.2774
 5814TIP3    H217449   1.482   4.707   1.143  0.1557  0.5062 -0.8424
 5815TIP3   OH217450   2.146   2.211   5.126 -0.7321  0.5275 -0.0230
 5815TIP3    H117451   2.189   2.254   5.051 -0.8916  0.4449 -0.1623
 5815TIP3    H217452   2.055   2.203   5.100 -0.4597 -1.1511 -0.5906
 5816TIP3   OH217453   5.266   4.352   5.005  0.2529  1.1050 -0.0437
 5816TIP3    H117454   5.174   4.349   4.980  0.2263 -1.5696  0.1896
 5816TIP3    H217455   5.266   4.343   5.100  0.7075  3.7309  0.2787
 5817TIP3   OH217456   5.073   0.092   2.807  0.3160  0.4816 -0.0993
 5817TIP3    H117457   5.089   0.024   2.873 -1.3291  0.3150  0.1860
 5817TIP3    H217458   5.153   0.144   2.805  1.1444 -0.7161  0.5760
 5818TIP3   OH217459   5.686   1.182   4.370 -0.5016  0.1306  0.1987
 5818TIP3    H117460   5.747   1.126   4.321 -0.9089 -1.1411  1.0736
 5818TIP3    H217461   5.731   1.265   4.380  0.6931 -0.4739 -0.0123
 5819TIP3   OH217462   1.513   1.299   0.697 -0.1758  0.4342 -0.1517
 5819TIP3    H117463   1.480   1.243   0.767  0.7917  1.6348  1.3385
 5819TIP3    H217464   1.441   1.359   0.677 -0.4006  0.1901 -0.0760
 5820TIP3   OH217465   1.650   0.135   2.216  0.5879 -0.3061 -0.1114
 5820TIP3    H117466   1.700   0.217   2.220  0.0840 -0.0409  1.1015
 5820TIP3    H217467   1.577   0.155   2.157  1.2975 -0.3677 -1.0353
 5821TIP3   OH217468   3.935   5.607   4.205 -0.2931 -0.5367 -0.0176
 5821TIP3    H117469   3.883   5.531   4.181 -0.2674 -1.1211  1.6688
 5821TIP3    H217470   4.019   5.594   4.160 -0.8835 -0.5965 -1.1335
 5822TIP3   OH217471   5.649   5.493   3.599 -0.4675 -0.1373 -0.4314
 5822TIP3    H117472   5.709   5.494   3.674  1.1638  1.1732 -1.6675
 5822TIP3    H217473   5.587   5.564   3.617  0.7696  1.1149 -0.9020
 5823TIP3   OH217474   2.856   0.786   3.347  0.0727 -0.0535  0.0389
 5823TIP3    H117475   2.940   0.746   3.325  0.3134 -0.6840  1.9218
 5823TIP3    H217476   2.824   0.735   3.421 -1.7273  0.5235 -0.2944
 5824TIP3   OH217477   5.848   5.317   4.845 -0.0230 -0.0302 -0.4498
 5824TIP3    H117478   5.805   5.382   4.900 -0.2610 -0.4636 -0.1200
 5824TIP3    H217479   5.935   5.307   4.883  1.0448  2.0558 -2.0679
 5825TIP3   OH217480   3.809   4.472   1.422 -0.0378 -0.0656  0.2770
 5825TIP3    H117481   3.789   4.540   1.486  3.9654  2.8212 -1.1380
 5825TIP3    H217482   3.880   4.422   1.461 -0.8491 -1.5016 -0.0110
 5826TIP3   OH217483   4.437   2.933   1.003  0.2734  0.4284  0.1983
 5826TIP3    H117484   4.419   3.016   1.047  0.2965  0.7564 -0.3905
 5826TIP3    H217485   4.440   2.868   1.073 -0.3348  0.8306  0.6064
 5827TIP3   OH217486   0.970   1.677   5.115  0.1097  0.1838  0.1292
 5827TIP3    H117487   0.992   1.589   5.147  0.5627 -0.2552 -1.2780
 5827TIP3    H217488   0.875   1.681   5.118  0.1177 -0.1051  0.8325
 5828TIP3   OH217489   3.420   3.758   5.073 -0.2788  0.6855  0.1056
 5828TIP3    H117490   3.342   3.704   5.087  0.7272 -0.8900 -0.2121
 5828TIP3    H217491   3.445   3.742   4.982 -0.2164  2.0731 -0.1499
 5829TIP3   OH217492   4.173   2.933   2.126  0.1968  0.4026  0.4095
 5829TIP3    H117493   4.244   2.924   2.189  0.7969  0.5198 -0.2416
 5829TIP3    H217494   4.208   2.992   2.059 -0.0193 -0.6383 -0.6308
 5830TIP3   OH217495   3.867   2.943   1.096 -0.0465  0.0214 -0.0660
 5830TIP3    H117496   3.847   2.997   1.020  2.8572  0.6705 -0.4892
 5830TIP3    H217497   3.853   3.000   1.171 -0.9483  0.0302 -0.2354
 5831TIP3   OH217498   2.935   2.183   4.330  0.3315  0.4706  0.3279
 5831TIP3    H117499   2.982   2.100   4.339  0.0286  0.3602  0.9732
 5831TIP3    H217500   2.942   2.223   4.417 -1.3730  0.1187  0.6610
 5832TIP3   OH217501   5.189   0.888   0.579 -0.4383 -0.6660 -0.5770
 5832TIP3    H117502   5.160   0.805   0.618  2.3983 -1.1077  0.8337
 5832TIP3    H217503   5.181   0.952   0.650  0.0724 -0.3719 -0.7784
 5833TIP3   OH217504   5.131   0.307   4.679  0.6687  0.2347  0.2193
 5833TIP3    H117505   5.171   0.379   4.727  2.0992 -0.2694 -0.1515
 5833TIP3    H217506   5.122   0.236   4.743  0.5543  0.2782  0.2518
 5834TIP3   OH217507   5.940   0.148   2.349 -0.3913  0.1213 -0.0147
 5834TIP3    H117508   5.855   0.181   2.378 -0.0172 -0.3105  1.6455
 5834TIP3    H217509   6.003   0.215   2.378 -0.1444  0.5606 -1.4417
 5835TIP3   OH217510   5.753   2.006   2.855 -0.3021 -0.0675 -0.1656
 5835TIP3    H117511   5.787   1.917   2.863 -1.5901 -0.6637 -1.0985
 5835TIP3    H217512   5.829   2.058   2.828  1.0940 -0.3361  2.7724
 5836TIP3   OH217513   6.255   4.924   2.758  0.4345 -0.1524 -0.3204
 5836TIP3    H117514   6.277   5.017   2.764 -0.5622  0.1800 -1.4902
 5836TIP3    H217515   6.339   4.880   2.746  0.9189  0.5859  0.2800
 5837TIP3   OH217516   2.009   0.662   2.701  0.3261  0.3079 -0.1922
 5837TIP3    H117517   1.923   0.635   2.733  0.0085 -0.3037 -1.4984
 5837TIP3    H217518   1.990   0.719   2.626  1.0599  0.3707 -0.3371
 5838TIP3   OH217519   3.779   4.792   2.698 -0.0279  0.0979  0.1195
 5838TIP3    H117520   3.708   4.786   2.762  0.2249 -0.5355  0.3477
 5838TIP3    H217521   3.831   4.866   2.726  0.1090 -0.2047  0.6820
 5839TIP3   OH217522   2.221   3.715   4.790 -0.2646 -0.0911  0.1126
 5839TIP3    H117523   2.309   3.690   4.763  0.6451  1.4941  1.4970
 5839TIP3    H217524   2.164   3.656   4.739  1.5445 -1.1211 -0.8489
 5840TIP3   OH217525   5.626   0.208   0.204  0.4919  0.0245 -0.1484
 5840TIP3    H117526   5.617   0.171   0.116 -0.1837  0.8572 -0.4386
 5840TIP3    H217527   5.564   0.157   0.257  0.7714 -0.3587 -0.1795
 5841TIP3   OH217528   5.172   4.672   2.069  0.0215  0.0495  0.3651
 5841TIP3    H117529   5.229   4.615   2.018 -1.8281 -0.9992 -0.6066
 5841TIP3    H217530   5.154   4.623   2.149  0.7655  0.5560  0.8604
 5842TIP3   OH217531   5.528   0.175   1.222 -0.2532  0.0705 -0.2555
 5842TIP3    H117532   5.561   0.116   1.154 -0.2316  0.2182 -0.3737
 5842TIP3    H217533   5.589   0.164   1.295 -0.8517 -0.8425  0.1215
 5843TIP3   OH217534   0.937   0.022   3.977  0.6014 -0.1032  0.4671
 5843TIP3    H117535   1.025  -0.000   4.007 -0.2384 -0.6917  2.6727
 5843TIP3    H217536   0.925   0.113   4.005  0.7348  0.2373 -0.5099
 5844TIP3   OH217537   3.415   1.058   1.541  0.4820 -0.4406  0.0776
 5844TIP3    H117538   3.469   1.046   1.619 -0.9585 -0.6848  1.0799
 5844TIP3    H217539   3.477   1.086   1.473  1.9389 -1.2547  1.0063
 5845TIP3   OH217540   2.418   3.364   4.725 -0.9432 -0.2497  0.0792
 5845TIP3    H117541   2.416   3.456   4.750 -0.4133 -0.0305 -0.6845
 5845TIP3    H217542   2.509   3.347   4.701 -0.6316 -1.4283  1.8762
 5846TIP3   OH217543   6.104   5.938   2.114  0.0979  0.6730 -0.1231
 5846TIP3    H117544   6.032   5.963   2.056 -0.8599 -1.4782  0.0104
 5846TIP3    H217545   6.063   5.931   2.200  0.7404  0.5621  0.1773
 5847TIP3   OH217546   2.256   0.788   3.236  0.6260 -0.5181 -0.3812
 5847TIP3    H117547   2.314   0.737   3.294  1.8427 -0.2541 -1.3334
 5847TIP3    H217548   2.168   0.758   3.259  0.8620  0.8519  2.8698
 5848TIP3   OH217549   5.653   0.483   0.236 -0.0383  0.2151 -0.1322
 5848TIP3    H117550   5.664   0.388   0.227  1.5627  0.5505 -2.4906
 5848TIP3    H217551   5.650   0.515   0.146 -3.3809  2.1973  0.4969
 5849TIP3   OH217552   1.989   1.255   0.476 -0.1509  0.5783 -0.0439
 5849TIP3    H117553   1.906   1.242   0.521  0.8518 -2.4041  1.1838
 5849TIP3    H217554   2.046   1.294   0.542  0.2672 -0.2982  0.1286
 5850TIP3   OH217555   2.720   4.076   2.586  0.5702 -0.0153 -0.1312
 5850TIP3    H117556   2.748   3.985   2.597 -0.7763 -0.4582 -0.2340
 5850TIP3    H217557   2.784   4.127   2.636  0.2060 -1.1759  1.6031
 5851TIP3   OH217558   2.471   5.951   2.368 -0.2848  0.3146 -0.6005
 5851TIP3    H117559   2.488   5.988   2.455  0.5756  1.6056 -1.2937
 5851TIP3    H217560   2.388   5.989   2.341  1.1436  2.8160 -1.8023
 5852TIP3   OH217561   6.100   2.009   2.644 -0.4239  0.0777  0.2798
 5852TIP3    H117562   6.039   1.986   2.573 -1.0826  0.0508  0.8388
 5852TIP3    H217563   6.114   1.926   2.690  2.3732 -0.5909 -1.5462
 5853TIP3   OH217564   1.617   3.921   0.130  0.5782  0.1236  0.3953
 5853TIP3    H117565   1.570   4.000   0.103  1.7046  0.7248  0.1559
 5853TIP3    H217566   1.560   3.849   0.102 -0.2962  0.8372  0.3002
 5854TIP3   OH217567   5.361   4.629   3.937 -0.0176  0.1295  1.0974
 5854TIP3    H117568   5.312   4.568   3.881  0.0351 -0.2115  1.4234
 5854TIP3    H217569   5.391   4.576   4.010  1.4261  0.1815  0.5704
 5855TIP3   OH217570   3.013   0.295   1.793 -0.3254  0.1415  0.6119
 5855TIP3    H117571   2.987   0.229   1.857 -1.8512 -0.5896 -0.6905
 5855TIP3    H217572   3.107   0.307   1.808 -0.1692 -1.7076  1.4406
 5856TIP3   OH217573   0.124   2.497   0.801 -0.3308  0.2405 -0.1906
 5856TIP3    H117574   0.034   2.523   0.820 -0.1503  2.3713 -1.8743
 5856TIP3    H217575   0.119   2.453   0.716  0.1664 -0.2011 -0.0025
 5857TIP3   OH217576   5.812   0.504   0.703  0.4704  0.5886 -0.3079
 5857TIP3    H117577   5.893   0.453   0.703 -0.6807 -1.3678  0.3651
 5857TIP3    H217578   5.753   0.455   0.645 -1.2171  0.1827  1.6342
 5858TIP3   OH217579   3.441   4.165   4.135 -0.8853  0.4904  0.3942
 5858TIP3    H117580   3.494   4.224   4.189 -1.4673 -0.6283  2.3009
 5858TIP3    H217581   3.388   4.116   4.198 -0.1684 -2.3276 -1.0194
 5859TIP3   OH217582   3.892   0.149   3.297 -0.5044 -0.0466 -0.4197
 5859TIP3    H117583   3.799   0.127   3.309 -0.0411 -1.4890  0.8382
 5859TIP3    H217584   3.937   0.064   3.297  0.8011  0.6203 -1.2399
 5860TIP3   OH217585   0.180   3.168   2.170 -0.3428  0.1490 -0.3371
 5860TIP3    H117586   0.131   3.094   2.205  0.6284 -0.8942 -1.0999
 5860TIP3    H217587   0.114   3.224   2.129 -1.2475  0.3920  1.3576
 5861TIP3   OH217588   3.729   2.109   2.093 -0.0945  0.1143 -0.5321
 5861TIP3    H117589   3.675   2.185   2.074 -1.5334 -1.0112 -1.1579
 5861TIP3    H217590   3.739   2.109   2.188 -0.7974  0.6014 -0.4553
 5862TIP3   OH217591   2.654   1.323   0.981 -0.2755 -0.1631 -0.2250
 5862TIP3    H117592   2.666   1.308   0.888 -0.4767  2.4298 -0.7246
 5862TIP3    H217593   2.742   1.314   1.019  0.4211  1.9227 -1.2084
 5863TIP3   OH217594   4.944   5.325   1.627  0.1491  0.2929  0.4138
 5863TIP3    H117595   4.883   5.299   1.558 -0.2113  0.6660  0.5860
 5863TIP3    H217596   4.919   5.415   1.648  0.9118  0.5343  0.3218
 5864TIP3   OH217597   5.664   3.135   3.172 -0.0374 -0.1689  0.3264
 5864TIP3    H117598   5.758   3.132   3.153  0.0738 -2.6187  0.8883
 5864TIP3    H217599   5.622   3.134   3.086  0.4956 -1.9799  0.0327
 5865TIP3   OH217600   3.781   2.467   3.002  0.1125 -0.4227 -0.6530
 5865TIP3    H117601   3.731   2.403   2.951 -0.0526 -2.7282  2.1416
 5865TIP3    H217602   3.725   2.545   3.005 -1.7467 -1.6969 -0.5677
 5866TIP3   OH217603   5.194   3.319   0.335  0.0158 -0.4022 -0.4028
 5866TIP3    H117604   5.119   3.329   0.393  1.4599 -0.2338  1.5169
 5866TIP3    H217605   5.175   3.239   0.285 -1.2862 -0.5241  0.2430
 5867TIP3   OH217606   1.625   2.966   3.009  0.1008 -0.0418  0.3275
 5867TIP3    H117607   1.563   2.935   2.942 -1.2948  1.2494  0.9700
 5867TIP3    H217608   1.602   2.918   3.088  0.8194 -0.5269  0.2535
 5868TIP3   OH217609   2.351   4.838   3.290 -0.7511  0.1308  0.1603
 5868TIP3    H117610   2.390   4.897   3.225  1.1525 -0.5867  0.6041
 5868TIP3    H217611   2.352   4.887   3.371 -0.3854 -0.0206  0.2511
 5869TIP3   OH217612   3.152   0.285   0.438 -0.5007  0.4407  0.0483
 5869TIP3    H117613   3.206   0.263   0.514 -2.5124 -0.5671  1.2571
 5869TIP3    H217614   3.186   0.370   0.409  2.0695 -0.3947  0.3509
 5870TIP3   OH217615   4.391   5.622   0.683  0.0445  0.4053 -0.3957
 5870TIP3    H117616   4.439   5.543   0.708 -0.1048  0.5350  0.3377
 5870TIP3    H217617   4.394   5.623   0.588  2.2428  0.8598 -0.3702
 5871TIP3   OH217618   3.510   2.214   2.387 -0.0134 -0.2263 -0.0797
 5871TIP3    H117619   3.597   2.173   2.389 -0.2096 -0.6231  0.8238
 5871TIP3    H217620   3.527   2.308   2.387  0.4241 -0.3036 -0.5231
 5872TIP3   OH217621   2.756   1.896   0.817  0.4242 -0.1969  0.8485
 5872TIP3    H117622   2.745   1.814   0.866 -1.6547 -1.4063 -1.3696
 5872TIP3    H217623   2.731   1.873   0.727  0.2732  2.7728  0.0229
 5873TIP3   OH217624   3.417   5.551   1.423  0.4036 -0.3882  0.2461
 5873TIP3    H117625   3.469   5.512   1.353  1.6879  0.9023  0.4214
 5873TIP3    H217626   3.477   5.551   1.499  0.1777  1.1720  0.4432
 5874TIP3   OH217627   4.985   0.981   1.333 -0.1299 -0.1289  0.1999
 5874TIP3    H117628   4.910   0.933   1.296  1.8458 -3.2425 -0.1208
 5874TIP3    H217629   5.049   0.984   1.262  0.4383  1.6858  0.7432
 5875TIP3   OH217630   6.173   3.541   2.154  0.0164 -0.7345  0.1656
 5875TIP3    H117631   6.165   3.576   2.065 -0.6478 -1.9731 -0.2969
 5875TIP3    H217632   6.110   3.592   2.205  0.6967  0.2645  0.0327
 5876TIP3   OH217633   1.347   1.892   1.948  0.6254 -0.1865  0.4951
 5876TIP3    H117634   1.396   1.857   1.873 -0.0333 -0.8157  0.3542
 5876TIP3    H217635   1.410   1.893   2.020  0.7907 -1.1937  0.3713
 5877TIP3   OH217636   1.760   5.807   3.461 -0.1162 -0.4029  0.3958
 5877TIP3    H117637   1.683   5.757   3.434 -0.4659  0.3960 -0.1615
 5877TIP3    H217638   1.778   5.864   3.386  1.8077 -1.4698 -0.0105
 5878TIP3   OH217639   4.357   2.155   5.009  0.2190 -0.2373  0.1334
 5878TIP3    H117640   4.448   2.184   5.012  0.1995 -0.1501 -0.1218
 5878TIP3    H217641   4.355   2.085   4.944  0.5063 -1.6780  1.6046
 5879TIP3   OH217642   0.478   3.691   1.185  0.0390 -0.0268  0.5628
 5879TIP3    H117643   0.420   3.614   1.186  1.2714 -0.9763  0.7409
 5879TIP3    H217644   0.506   3.698   1.094  1.5976 -1.1175  0.9121
 5880TIP3   OH217645   1.968   2.579   4.677 -0.0420 -0.1933 -0.2358
 5880TIP3    H117646   2.017   2.641   4.622  2.0257  1.0267  2.6719
 5880TIP3    H217647   1.919   2.635   4.738 -1.3822 -1.4672 -0.0995
 5881TIP3   OH217648   2.866   4.120   4.786  0.4514  0.2536 -0.1905
 5881TIP3    H117649   2.918   4.087   4.859  0.9718 -1.9835 -1.4882
 5881TIP3    H217650   2.777   4.091   4.805  0.7134 -0.9764 -0.7694
 5882TIP3   OH217651   3.789   2.560   0.020  0.0187 -0.1533  0.7068
 5882TIP3    H117652   3.868   2.511   0.000 -0.6473 -0.7529 -0.5541
 5882TIP3    H217653   3.737   2.501   0.074 -0.5612 -0.6561 -0.3863
 5883TIP3   OH217654   3.130   5.178   2.396 -0.1808  0.7514  0.0859
 5883TIP3    H117655   3.208   5.122   2.393 -0.5999  0.1699 -0.0230
 5883TIP3    H217656   3.141   5.237   2.322  0.5042  1.1498  0.4864
 5884TIP3   OH217657   1.501   1.512   0.268 -0.0382  0.7483 -0.3375
 5884TIP3    H117658   1.517   1.591   0.320  0.2487  0.9899 -0.7842
 5884TIP3    H217659   1.578   1.457   0.283  0.5859  1.3006 -1.3706
 5885TIP3   OH217660   0.473   1.474   1.385  0.4076 -0.3662 -0.2551
 5885TIP3    H117661   0.398   1.533   1.375  0.8758  0.4346  0.7567
 5885TIP3    H217662   0.435   1.391   1.412 -0.0988  0.1728  0.7494
 5886TIP3   OH217663   6.120   3.363   5.171  0.1538 -0.2682 -0.3749
 5886TIP3    H117664   6.149   3.435   5.114 -0.5812  0.1163 -0.2806
 5886TIP3    H217665   6.049   3.401   5.223 -2.3953 -1.8614 -2.4411
 5887TIP3   OH217666   2.355   3.051   1.296  0.1373 -0.0019  0.0185
 5887TIP3    H117667   2.280   3.105   1.321 -0.7710 -0.4574 -1.5587
 5887TIP3    H217668   2.338   2.966   1.338  0.2360  0.1547  0.3808
 5888TIP3   OH217669   3.739   4.880   1.299  0.2724 -0.0529  0.2535
 5888TIP3    H117670   3.788   4.923   1.229  1.4997  0.6864  1.5341
 5888TIP3    H217671   3.727   4.947   1.365 -2.0800 -0.3570  0.2206
 5889TIP3   OH217672   1.390   5.852   5.134 -0.3998  0.0911 -0.4003
 5889TIP3    H117673   1.406   5.791   5.061 -0.7395  1.5509 -1.7598
 5889TIP3    H217674   1.298   5.838   5.156 -1.4587  2.1970 -2.8752
 5890TIP3   OH217675   3.885   1.772   4.545 -0.5225 -0.2631  0.5688
 5890TIP3    H117676   3.963   1.774   4.488 -1.4493  1.5159 -0.7445
 5890TIP3    H217677   3.916   1.734   4.627  1.8777  0.8732  0.2723
 5891TIP3   OH217678   2.592   3.677   2.566  0.0687  0.5603 -0.6705
 5891TIP3    H117679   2.548   3.749   2.521 -1.0605  0.1880 -0.2004
 5891TIP3    H217680   2.522   3.627   2.607  0.8406 -0.7167 -0.8272
 5892TIP3   OH217681   1.676   3.596   0.152  0.3678  0.1207  0.1769
 5892TIP3    H117682   1.669   3.501   0.140 -0.1211  0.1343  0.3050
 5892TIP3    H217683   1.655   3.632   0.066  0.9954  0.0999  0.0153
 5893TIP3   OH217684   4.413   3.745   4.797 -0.5824  0.1354  0.2378
 5893TIP3    H117685   4.380   3.729   4.885 -0.8914 -0.8703 -0.0435
 5893TIP3    H217686   4.354   3.812   4.761 -0.9243 -0.0083  0.5292
 5894TIP3   OH217687   4.298   3.199   2.431 -0.9854  0.5167  0.1832
 5894TIP3    H117688   4.289   3.196   2.526  0.2062 -0.9321  0.2884
 5894TIP3    H217689   4.342   3.117   2.409 -0.0992  1.3949 -1.4952
 5895TIP3   OH217690   5.717   5.382   0.768 -0.0245  0.8769  0.5445
 5895TIP3    H117691   5.662   5.450   0.729  1.8859  1.2622 -1.7385
 5895TIP3    H217692   5.658   5.333   0.825 -2.0582  2.8691  0.3052
 5896TIP3   OH217693   6.253   3.820   4.204 -0.4675  0.0937 -0.0660
 5896TIP3    H117694   6.196   3.748   4.232  0.6847 -0.6954  0.3314
 5896TIP3    H217695   6.326   3.817   4.266 -1.1536  2.6590  1.0271
 5897TIP3   OH217696   2.575   5.732   3.838  0.0065  0.0317  0.0416
 5897TIP3    H117697   2.573   5.757   3.746  0.3207 -2.1250 -0.6072
 5897TIP3    H217698   2.503   5.781   3.878 -1.0922 -0.1086 -1.6705
 5898TIP3   OH217699   3.938   4.136   0.681 -0.2319 -0.5741  0.0314
 5898TIP3    H117700   3.876   4.146   0.754 -0.9278  0.5362 -0.6861
 5898TIP3    H217701   3.959   4.042   0.680 -1.1207 -0.7976  0.9132
 5899TIP3   OH217702   2.827   4.790   0.828  0.0856  1.1581  0.0826
 5899TIP3    H117703   2.812   4.764   0.918 -0.6331  0.7232 -0.1500
 5899TIP3    H217704   2.796   4.716   0.776 -0.7792  1.9369 -0.5606
 5900TIP3   OH217705   2.772   3.560   0.810 -0.0698 -0.2396 -0.0147
 5900TIP3    H117706   2.743   3.649   0.831 -1.6935 -0.5152 -0.8862
 5900TIP3    H217707   2.845   3.572   0.750 -0.6104  0.5195 -0.5397
 5901TIP3   OH217708   0.696   3.197   3.319  0.7263 -0.0646 -0.2461
 5901TIP3    H117709   0.761   3.267   3.319  2.1831 -1.3419 -0.8604
 5901TIP3    H217710   0.623   3.230   3.372  0.9444  2.2545 -1.2970
 5902TIP3   OH217711   1.302   2.082   0.800 -0.0013 -0.2517 -0.1944
 5902TIP3    H117712   1.390   2.078   0.763 -0.5269 -0.5735 -1.4536
 5902TIP3    H217713   1.314   2.058   0.892  1.3205  0.4343 -0.1602
 5903TIP3   OH217714   3.010   5.548   0.184 -0.0543  0.1594 -0.5807
 5903TIP3    H117715   3.022   5.569   0.276 -2.4983  2.0360 -0.5997
 5903TIP3    H217716   3.009   5.452   0.181  2.7975 -0.0280  0.8437
 5904TIP3   OH217717   6.318   2.766   4.701  0.0160 -0.0638  0.3850
 5904TIP3    H117718   6.403   2.743   4.665  1.1455  2.3808  1.2442
 5904TIP3    H217719   6.317   2.726   4.788 -1.0769 -2.6708 -0.7374
 5905TIP3   OH217720   5.821   4.874   3.190  0.2714  0.7347 -0.1454
 5905TIP3    H117721   5.742   4.894   3.239 -0.0218 -1.9282  0.6359
 5905TIP3    H217722   5.792   4.864   3.099 -0.3938 -0.4956  0.1787
 5906TIP3   OH217723   4.179   2.166   3.058 -0.8341 -0.3443  0.1403
 5906TIP3    H117724   4.260   2.179   3.009 -1.1678 -0.8264 -0.5713
 5906TIP3    H217725   4.204   2.112   3.133 -0.4658 -0.3286  0.0305
 5907TIP3   OH217726   5.928   1.485   5.067 -0.4586 -0.2656  0.9313
 5907TIP3    H117727   5.922   1.472   4.972 -2.4042  0.6901  0.8721
 5907TIP3    H217728   5.988   1.416   5.097  1.1763  0.1624 -1.1096
 5908TIP3   OH217729   1.886   5.694   4.722  0.0998 -0.3331 -0.1040
 5908TIP3    H117730   1.929   5.688   4.637  0.6426  0.0885  0.1366
 5908TIP3    H217731   1.908   5.612   4.766 -1.2432 -1.1253 -0.8461
 5909TIP3   OH217732   2.342   0.271   2.505 -0.2268  0.0659 -0.0943
 5909TIP3    H117733   2.285   0.307   2.574  0.9167  1.6095  0.0980
 5909TIP3    H217734   2.290   0.278   2.425 -2.0309 -2.8066  0.6582
 5910TIP3   OH217735   2.577   5.136   2.290 -0.2042  0.0664  0.0561
 5910TIP3    H117736   2.510   5.075   2.259 -0.8753 -0.1582  1.8368
 5910TIP3    H217737   2.627   5.085   2.354  1.6019  0.2894 -1.0802
 5911TIP3   OH217738   0.155   0.742   1.229 -0.3356  0.2895  0.1499
 5911TIP3    H117739   0.060   0.736   1.234 -0.3627  1.2532  1.2183
 5911TIP3    H217740   0.173   0.771   1.140 -0.8892 -2.0200 -0.7828
 5912TIP3   OH217741   2.954   1.797   0.076  0.0440  0.1410  0.2092
 5912TIP3    H117742   3.046   1.821   0.081  0.5531 -1.9194  2.6931
 5912TIP3    H217743   2.942   1.766  -0.013  1.5844  0.9283 -0.3115
 5913TIP3   OH217744   3.165   4.992   0.774  0.2596  0.2830  0.2498
 5913TIP3    H117745   3.117   4.968   0.695  1.0869 -0.6361  0.0092
 5913TIP3    H217746   3.179   5.086   0.766 -0.6761  0.3991 -0.1230
 5914TIP3   OH217747   6.113   5.066   4.807 -0.4918 -0.2333  0.8715
 5914TIP3    H117748   6.068   4.982   4.800  0.2806 -0.5745 -0.4790
 5914TIP3    H217749   6.185   5.060   4.744 -1.0975  1.8447 -0.1311
 5915TIP3   OH217750   2.562   3.931   1.053 -0.2689 -0.2826 -0.2451
 5915TIP3    H117751   2.553   4.008   0.997 -0.9192 -0.2416 -0.0912
 5915TIP3    H217752   2.581   3.966   1.140  1.0956 -0.3575 -0.4957
 5916TIP3   OH217753   2.605   4.928   1.471 -0.4248  0.0893  0.0570
 5916TIP3    H117754   2.608   4.984   1.549 -0.7535  1.0484 -0.5999
 5916TIP3    H217755   2.522   4.882   1.477 -1.4094  1.6895 -0.7330
 5917TIP3   OH217756   4.421   3.665   4.383 -0.7602 -0.2298  0.4149
 5917TIP3    H117757   4.402   3.575   4.358 -0.6134 -0.1123 -0.1466
 5917TIP3    H217758   4.487   3.694   4.319 -0.1807  0.0025  1.1011
 5918TIP3   OH217759   5.668   2.910   4.390  0.3637  0.3718  0.2723
 5918TIP3    H117760   5.715   2.975   4.442  0.7166  1.1339 -0.9839
 5918TIP3    H217761   5.735   2.867   4.338 -0.0872  0.1662 -0.1424
 5919TIP3   OH217762   6.214   5.680   0.615 -0.4709  0.1373  0.0540
 5919TIP3    H117763   6.240   5.596   0.653 -2.1030  0.0783  1.1797
 5919TIP3    H217764   6.122   5.668   0.591 -0.5370  1.3863 -0.4013
 5920TIP3   OH217765   0.033   3.813   4.986 -0.4704  0.2440  0.3864
 5920TIP3    H117766  -0.020   3.842   4.913 -1.7717  1.4222  1.7304
 5920TIP3    H217767   0.120   3.848   4.969 -1.0268  1.4554 -0.0527
 5921TIP3   OH217768   1.204   1.289   3.600  0.0034  0.2051  0.2987
 5921TIP3    H117769   1.205   1.344   3.522  1.6260 -1.7798 -1.2001
 5921TIP3    H217770   1.266   1.330   3.660  1.2588 -0.0138 -0.8260
 5922TIP3   OH217771   0.571   2.726   1.574 -0.0477 -0.1385 -0.0996
 5922TIP3    H117772   0.502   2.704   1.511  3.0620 -3.3521 -2.8197
 5922TIP3    H217773   0.631   2.783   1.525 -0.5317  2.6155  2.2044
 5923TIP3   OH217774   1.043   0.957  -0.003  0.0671 -0.5791 -0.4402
 5923TIP3    H117775   1.050   0.937   0.091  1.4235 -2.4770 -0.8835
 5923TIP3    H217776   1.130   0.988  -0.027  0.2308 -1.7563 -1.4126
 5924TIP3   OH217777   0.117   2.099   2.775  0.1910  0.1699  0.1662
 5924TIP3    H117778   0.140   2.168   2.712 -1.8278 -1.4102 -2.5379
 5924TIP3    H217779   0.192   2.039   2.774  0.6564  0.7450  0.1620
 5925TIP3   OH217780   6.075   2.828   0.695 -0.4197  0.2585  0.4771
 5925TIP3    H117781   5.992   2.856   0.734  0.7521  5.7335 -0.1814
 5925TIP3    H217782   6.094   2.893   0.628  3.0167 -2.5359 -1.6506
 5926TIP3   OH217783   1.378   1.165   3.198 -0.1835 -0.3398 -0.2830
 5926TIP3    H117784   1.397   1.072   3.187  2.4903  0.3105 -2.1947
 5926TIP3    H217785   1.419   1.207   3.122 -0.6698  2.4863  0.8856
 5927TIP3   OH217786   0.777   3.389   2.214 -0.3005  0.1334 -0.1754
 5927TIP3    H117787   0.721   3.376   2.291  0.0374 -0.7691 -0.0725
 5927TIP3    H217788   0.778   3.484   2.201 -2.7121  0.1208 -0.8290
 5928TIP3   OH217789   4.846   1.773   4.772 -0.4829 -0.3033 -0.0009
 5928TIP3    H117790   4.756   1.762   4.742 -1.6859  0.7688  2.8956
 5928TIP3    H217791   4.858   1.705   4.837  0.0328  0.8936  1.1962
 5929TIP3   OH217792   5.329   3.842   0.450 -0.5294 -1.0550  0.3437
 5929TIP3    H117793   5.402   3.810   0.398  0.4506 -0.0645  1.0612
 5929TIP3    H217794   5.252   3.797   0.414 -0.0436  0.1298 -2.4706
 5930TIP3   OH217795   1.839   3.444   0.573 -0.3555 -0.3462  0.0156
 5930TIP3    H117796   1.863   3.514   0.512  2.1057 -0.1438  1.0911
 5930TIP3    H217797   1.773   3.393   0.526 -0.0901  0.9945 -1.9574
 5931TIP3   OH217798   3.023   3.671   4.023  0.2940  0.3891 -0.2649
 5931TIP3    H117799   2.978   3.587   4.032 -0.5564  0.4632 -2.9421
 5931TIP3    H217800   3.106   3.649   3.982  0.2600  0.7913 -0.5544
 5932TIP3   OH217801   3.820   1.411   4.741 -0.0289 -0.4727 -0.0125
 5932TIP3    H117802   3.869   1.335   4.709  0.1963 -0.4641  0.3066
 5932TIP3    H217803   3.796   1.389   4.831  2.7315  1.0367  1.2214
 5933TIP3   OH217804   0.349   4.050   4.307 -0.1062 -0.2132  0.1866
 5933TIP3    H117805   0.279   4.049   4.243  0.6909  1.5522 -0.7717
 5933TIP3    H217806   0.305   4.064   4.391 -0.9284  0.3564 -0.3356
 5934TIP3   OH217807   0.728   1.339   3.895 -0.1451  0.0635  0.1878
 5934TIP3    H117808   0.724   1.299   3.982 -0.2471 -0.0639  0.1242
 5934TIP3    H217809   0.684   1.424   3.905 -0.9323 -0.3246  0.0534
 5935TIP3   OH217810   1.936   1.259   4.015  0.0956 -0.7215  0.0952
 5935TIP3    H117811   1.888   1.328   4.062  0.1162  0.1556 -1.1254
 5935TIP3    H217812   1.881   1.240   3.939  0.5368 -1.4239 -0.0495
 5936TIP3   OH217813   3.460   2.864   2.336 -0.0649  0.3954  0.0942
 5936TIP3    H117814   3.545   2.832   2.305  0.5649  2.0837 -0.0137
 5936TIP3    H217815   3.397   2.823   2.277  0.9036  1.3657 -1.6950
 5937TIP3   OH217816   4.398   3.426   3.253  0.2231  0.5037  0.2502
 5937TIP3    H117817   4.440   3.482   3.188 -0.2835  0.1484 -0.3951
 5937TIP3    H217818   4.307   3.455   3.253 -0.4137 -1.3148 -1.2227
 5938TIP3   OH217819   2.765   3.995   3.956 -0.0231  0.2849 -0.3194
 5938TIP3    H117820   2.758   3.981   4.051  1.4818 -0.6982 -0.3059
 5938TIP3    H217821   2.831   4.064   3.947 -1.2045  1.3977 -0.6335
 5939TIP3   OH217822   1.302   5.813   2.016 -0.1335  0.1380 -0.2461
 5939TIP3    H117823   1.333   5.768   2.095 -0.8393  0.1809  0.0682
 5939TIP3    H217824   1.381   5.843   1.972  0.3592 -1.3794 -0.4409
 5940TIP3   OH217825   4.472   3.849   0.390  0.1457 -0.0393 -0.3276
 5940TIP3    H117826   4.563   3.880   0.388  0.0285  0.4191  0.7261
 5940TIP3    H217827   4.444   3.853   0.299  1.4986 -1.1856 -0.8375
 5941TIP3   OH217828   5.324   0.345   0.045 -0.0888  0.3514 -0.3401
 5941TIP3    H117829   5.288   0.281   0.106  1.7387  0.4151  0.8598
 5941TIP3    H217830   5.340   0.295  -0.035  1.7576 -0.8625  0.7313
 5942TIP3   OH217831   1.120   2.596   1.508  0.3378  0.3754  0.6282
 5942TIP3    H117832   1.180   2.528   1.478 -0.0306  0.9203 -1.5641
 5942TIP3    H217833   1.051   2.549   1.554  0.2264 -0.7473 -0.6292
 5943TIP3   OH217834   0.221   1.521   0.596  0.0565  0.0913  0.2033
 5943TIP3    H117835   0.307   1.563   0.598 -0.3342  1.0686 -1.4300
 5943TIP3    H217836   0.207   1.492   0.686  2.5039 -1.0124  0.3253
 5944TIP3   OH217837   5.445   0.807   1.948  0.0809 -0.0946 -0.1969
 5944TIP3    H117838   5.374   0.867   1.972 -1.2373 -2.0285  0.9905
 5944TIP3    H217839   5.500   0.801   2.026 -0.1456 -0.8547 -0.0816
 5945TIP3   OH217840   1.886   4.083   2.041 -0.0112  0.1149  0.4763
 5945TIP3    H117841   1.839   4.140   1.980 -1.2078 -1.5192 -0.1845
 5945TIP3    H217842   1.937   4.024   1.985  1.0222  0.3487  1.1422
 5946TIP3   OH217843   1.670  -0.006   3.062  0.4619  0.0564 -0.3241
 5946TIP3    H117844   1.581  -0.024   3.030  0.9925 -0.9857 -1.3096
 5946TIP3    H217845   1.659   0.060   3.130 -1.3627 -2.0746  1.5703
 5947TIP3   OH217846   2.946   3.577   2.151 -0.2224  0.3755 -0.0212
 5947TIP3    H117847   2.869   3.614   2.194 -0.7010 -0.4845 -0.1336
 5947TIP3    H217848   2.946   3.485   2.175  0.5467  0.2791 -0.3537
 5948TIP3   OH217849   2.282   0.383   3.205 -0.0851  0.0321  0.2328
 5948TIP3    H117850   2.353   0.431   3.164 -1.0807  0.3147 -1.2216
 5948TIP3    H217851   2.239   0.337   3.133 -0.2559 -1.6309  1.3379
 5949TIP3   OH217852   4.846   3.885   0.344 -0.2103 -0.0849  0.2858
 5949TIP3    H117853   4.937   3.881   0.315  0.1835 -3.5477  1.5286
 5949TIP3    H217854   4.805   3.948   0.285  2.4283 -0.2798 -1.9712
 5950TIP3   OH217855   2.045   0.975   4.493  0.1154 -0.0158 -0.4424
 5950TIP3    H117856   2.020   0.884   4.512  2.9094 -0.7167  0.3365
 5950TIP3    H217857   1.995   1.027   4.556 -0.6795 -1.1018 -0.1389
 5951TIP3   OH217858   5.750   3.170   3.458 -0.1806  0.1865 -0.1410
 5951TIP3    H117859   5.740   3.100   3.393 -1.4663 -0.9101  1.1578
 5951TIP3    H217860   5.712   3.134   3.538 -0.1822  2.1129  0.7920
 5952TIP3   OH217861   2.191   4.349   4.529 -0.0428  0.4868  0.1632
 5952TIP3    H117862   2.167   4.407   4.457  1.0029 -0.1059 -0.6874
 5952TIP3    H217863   2.236   4.276   4.488  0.8590  0.2765  1.4340
 5953TIP3   OH217864   0.680   4.460   1.486  0.0055 -0.7980  0.5676
 5953TIP3    H117865   0.585   4.459   1.478 -0.0367  0.4871  0.6113
 5953TIP3    H217866   0.711   4.505   1.407  0.4774 -0.0823  1.1424
 5954TIP3   OH217867   5.312   3.049   3.005 -0.3025 -0.3836 -0.2668
 5954TIP3    H117868   5.243   3.047   3.071 -1.2567 -0.3722 -1.2414
 5954TIP3    H217869   5.333   3.142   2.995 -0.5499 -0.3415 -0.3885
 5955TIP3   OH217870   0.682   1.275   1.769  0.3638 -0.4723 -0.3281
 5955TIP3    H117871   0.723   1.189   1.782  0.5373 -0.1989  1.1584
 5955TIP3    H217872   0.685   1.289   1.675 -2.9875 -3.6818 -1.1540
 5956TIP3   OH217873   1.399   2.988   2.776  0.4124 -0.1478 -0.3989
 5956TIP3    H117874   1.370   3.051   2.709  1.9205  0.7267 -0.2812
 5956TIP3    H217875   1.358   3.019   2.857  0.5002  0.2235 -0.4914
 5957TIP3   OH217876   3.909   4.023   1.316 -0.0586  0.1402 -0.4053
 5957TIP3    H117877   3.872   3.941   1.350  0.7237 -0.6384 -1.3632
 5957TIP3    H217878   3.832   4.076   1.292 -0.6595  0.7494  2.4710
 5958TIP3   OH217879   5.417   4.510   4.531 -0.7055 -0.2223 -0.0270
 5958TIP3    H117880   5.499   4.557   4.516 -0.6277 -0.4402 -0.3022
 5958TIP3    H217881   5.415   4.493   4.625 -1.5971  1.9149  0.3884
 5959TIP3   OH217882   1.841   2.189   0.117 -0.1638  0.1216 -0.3475
 5959TIP3    H117883   1.782   2.263   0.124 -0.6656 -0.1064 -1.8191
 5959TIP3    H217884   1.917   2.222   0.069  1.3949  0.6430  2.2352
 5960TIP3   OH217885   2.798   2.829   3.307 -0.0559  0.1527 -0.0852
 5960TIP3    H117886   2.829   2.902   3.253  0.3686  0.2337  0.2675
 5960TIP3    H217887   2.713   2.806   3.268  0.6953 -0.4769 -1.4516
 5961TIP3   OH217888   1.974   4.311   0.633  0.1116 -0.2203  0.2421
 5961TIP3    H117889   2.030   4.233   0.637  1.5833  0.8214  0.6843
 5961TIP3    H217890   1.947   4.316   0.541  1.4566 -0.2808 -0.1743
 5962TIP3   OH217891   4.158   0.285   3.454 -0.0201 -0.2858  0.2945
 5962TIP3    H117892   4.161   0.218   3.386  1.2701 -0.6293  0.6607
 5962TIP3    H217893   4.076   0.331   3.438 -0.6718 -1.5795 -0.3155
 5963TIP3   OH217894   2.551   2.878   1.122 -0.0425  0.0225  0.1353
 5963TIP3    H117895   2.570   2.786   1.142 -0.6490 -0.2905 -0.6511
 5963TIP3    H217896   2.546   2.921   1.208  0.6139 -0.5993  0.4948
 5964TIP3   OH217897   2.729   1.813   4.788 -0.2280  0.0260  0.7098
 5964TIP3    H117898   2.712   1.822   4.881  0.5026 -0.4442  0.8975
 5964TIP3    H217899   2.676   1.881   4.747 -1.1043 -0.2139  1.4052
 5965TIP3   OH217900   3.305   1.186   1.865  0.4323 -0.2134 -0.3259
 5965TIP3    H117901   3.364   1.156   1.796 -0.4841 -0.8580 -0.8442
 5965TIP3    H217902   3.268   1.268   1.831 -1.0216 -1.1905 -1.2260
 5966TIP3   OH217903   2.592   0.972   1.811  0.7466  0.1716  0.1110
 5966TIP3    H117904   2.639   0.950   1.891  0.8717 -1.9907 -0.5165
 5966TIP3    H217905   2.659   0.973   1.743  0.3307 -0.0840 -0.3103
 5967TIP3   OH217906   6.244   0.498   0.443  0.2021 -0.5222 -0.3571
 5967TIP3    H117907   6.325   0.531   0.484  0.1583 -1.2554  0.3492
 5967TIP3    H217908   6.185   0.573   0.444  0.3460 -0.4071  0.5607
 5968TIP3   OH217909   5.233   0.784   3.256 -0.6146 -0.5243  0.6480
 5968TIP3    H117910   5.221   0.715   3.321 -0.8177  1.6405  3.0667
 5968TIP3    H217911   5.144   0.809   3.231 -0.5690 -0.2512  0.7613
 5969TIP3   OH217912   1.615   3.478   2.150 -0.4321 -1.0742  0.4038
 5969TIP3    H117913   1.619   3.430   2.232 -1.2175 -1.3096  0.3162
 5969TIP3    H217914   1.705   3.505   2.133 -0.5826  0.9219  2.4685
 5970TIP3   OH217915   2.029   4.452   0.872 -0.1613  0.3010  0.1494
 5970TIP3    H117916   1.941   4.482   0.893  0.2674 -0.2719  3.1250
 5970TIP3    H217917   2.016   4.388   0.802 -2.2257 -0.3980  1.1008
 5971TIP3   OH217918   5.834   4.403   2.282 -0.1955 -0.3440  0.3663
 5971TIP3    H117919   5.766   4.345   2.315 -0.7771 -0.1783 -0.4894
 5971TIP3    H217920   5.897   4.344   2.240 -1.0998 -0.3700 -1.0618
 5972TIP3   OH217921   1.071   2.185   1.038 -0.2215  0.3189 -0.4319
 5972TIP3    H117922   1.104   2.127   1.106 -0.7532  0.0346 -0.4092
 5972TIP3    H217923   0.976   2.183   1.048 -0.2179  2.2412  0.4277
 5973TIP3   OH217924   4.478   3.406   0.841  0.0073  0.2945 -0.1154
 5973TIP3    H117925   4.405   3.453   0.801  1.0828  1.5630 -0.6487
 5973TIP3    H217926   4.549   3.470   0.846  0.0966  0.1191  3.4930
 5974TIP3   OH217927   0.211   3.456   2.937  0.2439 -0.3839  0.7047
 5974TIP3    H117928   0.225   3.537   2.987 -0.6362  0.1070  0.1794
 5974TIP3    H217929   0.299   3.430   2.910  0.5392  0.4157  0.8502
 5975TIP3   OH217930   3.358   2.207   2.614  0.3372 -0.2106  0.0261
 5975TIP3    H117931   3.402   2.134   2.658  2.6787  0.4499 -1.0599
 5975TIP3    H217932   3.408   2.221   2.533 -2.1138  0.4248 -1.4959
 5976TIP3   OH217933   0.026   0.096   3.811  0.6456  0.3872 -0.1659
 5976TIP3    H117934   0.061   0.008   3.821  1.5677  0.8632  1.0656
 5976TIP3    H217935   0.046   0.120   3.720  1.5930 -0.1742 -0.1200
 5977TIP3   OH217936   2.434   4.994   1.695  0.3131  0.0149  0.1391
 5977TIP3    H117937   2.342   4.993   1.721  0.4982 -1.3634  0.8275
 5977TIP3    H217938   2.481   4.958   1.770  1.2867 -0.4102 -0.6431
 5978TIP3   OH217939   1.143   5.582   5.105 -0.7583 -0.1562 -0.4060
 5978TIP3    H117940   1.143   5.674   5.131  0.3306  0.0669 -1.1128
 5978TIP3    H217941   1.108   5.581   5.016  2.7248  0.1503 -1.9674
 5979TIP3   OH217942   2.709   2.743   1.301 -0.4519 -0.7940  0.1695
 5979TIP3    H117943   2.659   2.697   1.367  0.0796  0.3785  1.4546
 5979TIP3    H217944   2.799   2.744   1.335 -0.5340  1.6302  0.5401
 5980TIP3   OH217945   0.718   5.367   4.094  0.2351  0.2968  0.4764
 5980TIP3    H117946   0.667   5.287   4.105  2.3100 -1.3759 -1.1661
 5980TIP3    H217947   0.772   5.373   4.173  2.5514 -1.9700 -0.7748
 5981TIP3   OH217948   1.730   0.521   1.487 -0.5217 -0.4479  0.0429
 5981TIP3    H117949   1.722   0.435   1.446 -0.4201 -1.1153  1.3783
 5981TIP3    H217950   1.646   0.535   1.530 -0.8295  0.4921 -0.8269
 5982TIP3   OH217951   5.313   4.962   3.017 -0.5188  0.4249  0.1467
 5982TIP3    H117952   5.313   4.968   3.113  1.0050  1.4915  0.1109
 5982TIP3    H217953   5.312   5.052   2.987 -0.4775  0.1050 -0.8461
 5983TIP3   OH217954   4.325   4.241   1.930 -0.2585  0.1900 -0.0659
 5983TIP3    H117955   4.352   4.188   1.855  1.5339  1.7805 -0.6363
 5983TIP3    H217956   4.399   4.237   1.990 -0.3540  1.4572  0.1782
 5984TIP3   OH217957   6.213   1.396   4.799 -0.1810  0.0202  0.1836
 5984TIP3    H117958   6.275   1.413   4.871 -0.2639  1.3293 -0.0337
 5984TIP3    H217959   6.257   1.429   4.721 -0.1334 -1.3088 -0.3770
 5985TIP3   OH217960   4.000   2.763   1.462  0.2422 -0.2812 -0.4265
 5985TIP3    H117961   3.935   2.694   1.450 -1.6486  1.2259  0.6363
 5985TIP3    H217962   4.048   2.737   1.541 -0.7825 -0.1543  0.2492
 5986TIP3   OH217963   3.335   1.461   1.455  0.5776 -0.2579 -0.1361
 5986TIP3    H117964   3.430   1.460   1.445  0.3645 -0.4155 -3.7690
 5986TIP3    H217965   3.304   1.505   1.376 -2.4276 -1.5898  0.1654
 5987TIP3   OH217966   1.056   5.588   4.845 -0.1228 -0.2452 -0.3327
 5987TIP3    H117967   1.057   5.541   4.763  0.2234  1.5488 -1.4144
 5987TIP3    H217968   1.051   5.680   4.820 -0.6543  0.3264  1.6659
 5988TIP3   OH217969   5.352   3.463   4.014 -0.1766 -0.3102  0.0449
 5988TIP3    H117970   5.400   3.407   4.075  1.4493 -0.2367 -1.0834
 5988TIP3    H217971   5.272   3.415   3.995 -0.3763 -0.6659  1.6497
 5989TIP3   OH217972   3.038   4.397   2.366  0.5376 -0.1239  0.4658
 5989TIP3    H117973   3.080   4.319   2.403 -1.4950 -2.1473 -1.2491
 5989TIP3    H217974   2.944   4.382   2.379  0.0934  2.2638  0.4174
 5990TIP3   OH217975   3.533   3.750   0.803 -0.1730 -0.1992 -0.9890
 5990TIP3    H117976   3.463   3.773   0.864 -0.2993 -0.0771 -1.1796
 5990TIP3    H217977   3.610   3.796   0.837  0.0254 -1.0529 -0.2740
 5991TIP3   OH217978   4.323   3.248   4.619 -0.6265 -0.5995 -0.6006
 5991TIP3    H117979   4.334   3.342   4.602  0.4565 -0.6139 -0.0800
 5991TIP3    H217980   4.392   3.207   4.567 -0.7579 -1.0662 -0.4036
 5992TIP3   OH217981   0.020   4.288   4.594 -0.4018 -0.0521 -0.0959
 5992TIP3    H117982   0.018   4.376   4.555 -1.0104  0.0645  0.1921
 5992TIP3    H217983   0.068   4.299   4.676  0.9722 -0.3169 -0.8178
 5993TIP3   OH217984   4.688   5.813   0.824  0.3933 -0.1551  0.4759
 5993TIP3    H117985   4.772   5.853   0.800 -0.3679  1.2964  0.0876
 5993TIP3    H217986   4.639   5.809   0.742 -0.3735  0.1876  0.9040
 5994TIP3   OH217987   1.617   3.870   0.842  0.7739  0.1981 -0.4829
 5994TIP3    H117988   1.710   3.882   0.821  0.1663  1.7036 -2.5127
 5994TIP3    H217989   1.596   3.784   0.807  1.7785 -0.9922  1.6265
 5995TIP3   OH217990   0.934   1.059   2.274  0.0718 -0.4029 -0.5282
 5995TIP3    H117991   0.882   0.985   2.241 -2.7062  1.4523 -0.6128
 5995TIP3    H217992   0.974   1.025   2.354 -2.5379 -1.5845  0.4136
 5996TIP3   OH217993   3.127   3.951   4.123 -0.6412 -0.1343  0.5705
 5996TIP3    H117994   3.196   3.886   4.137  0.8245  1.3742  0.7033
 5996TIP3    H217995   3.050   3.900   4.100  0.3441 -1.9285  1.0780
 5997TIP3   OH217996   3.087   4.777   2.775  0.1088  0.2695 -0.3765
 5997TIP3    H117997   3.106   4.708   2.712 -1.0916 -0.2380 -0.2147
 5997TIP3    H217998   3.015   4.742   2.828 -0.5384  1.6266 -0.3062
 5998TIP3   OH217999   5.542   4.607   4.269  0.3221 -0.4144 -0.0363
 5998TIP3    H118000   5.510   4.696   4.277  0.6439 -0.3348  0.3659
 5998TIP3    H218001   5.463   4.554   4.259  0.0207 -0.2820  1.5229
 5999TIP3   OH218002   0.463   3.958   2.714  0.8240  0.2028 -0.4392
 5999TIP3    H118003   0.490   3.873   2.749 -1.3090  0.1009  1.1242
 5999TIP3    H218004   0.437   4.009   2.791 -0.2681  1.4033 -1.5501
 6000TIP3   OH218005   1.104   5.319   5.196  0.0509  0.3389  0.1164
 6000TIP3    H118006   1.012   5.313   5.170 -0.2001  1.0815  0.8089
 6000TIP3    H218007   1.137   5.396   5.149  0.3495  0.0135 -0.2115
 6001TIP3   OH218008   5.583   5.649   4.394 -0.5422  0.8085 -0.0036
 6001TIP3    H118009   5.514   5.715   4.403 -1.4628 -0.0719 -0.3206
 6001TIP3    H218010   5.664   5.696   4.410 -0.9784  2.5085 -2.3438
 6002TIP3   OH218011   0.756   4.022   4.611  0.1139 -0.1317 -0.7842
 6002TIP3    H118012   0.706   4.041   4.532 -1.5501  1.3818  0.5474
 6002TIP3    H218013   0.691   4.025   4.681  1.9157  0.9873  0.9275
 6003TIP3   OH218014   3.341   4.518   0.896  0.0659 -0.7136 -0.5053
 6003TIP3    H118015   3.336   4.579   0.970 -1.7399 -0.8394 -0.4932
 6003TIP3    H218016   3.269   4.544   0.838  0.8906 -1.1934 -1.7960
 6004TIP3   OH218017   3.606   1.718   4.968 -0.4321 -0.8051  0.1699
 6004TIP3    H118018   3.604   1.808   5.000 -0.1057 -0.9446  0.5875
 6004TIP3    H218019   3.678   1.677   5.016  0.2334 -0.9461 -0.9112
 6005TIP3   OH218020   1.470   0.714   2.222  0.1236  0.1158 -0.0367
 6005TIP3    H118021   1.479   0.619   2.215 -0.1037  0.1434 -0.7862
 6005TIP3    H218022   1.379   0.726   2.251  0.1467  0.0989  0.0410
 6006TIP3   OH218023   4.218   0.042   3.334 -0.0215 -0.7887  0.4589
 6006TIP3    H118024   4.216   0.020   3.241 -3.3336  1.2791 -0.1601
 6006TIP3    H218025   4.224  -0.042   3.379  0.9259 -1.8946 -1.5885
 6007TIP3   OH218026   1.206   5.091   3.044 -0.3792  0.6667 -0.1855
 6007TIP3    H118027   1.267   5.165   3.042 -0.2607  0.6002  0.8321
 6007TIP3    H218028   1.152   5.106   3.121  0.1518 -0.7019  0.4758
 6008TIP3   OH218029   5.311   1.681   3.139 -0.3978  0.1434 -0.0949
 6008TIP3    H118030   5.310   1.774   3.115 -1.5930  0.5834  1.4993
 6008TIP3    H218031   5.219   1.654   3.136  0.0356 -1.3344 -1.6452
 6009TIP3   OH218032   4.953   4.212   0.513  0.0769  0.0362 -0.1823
 6009TIP3    H118033   4.888   4.252   0.571  0.5126  1.0647 -0.3684
 6009TIP3    H218034   5.001   4.151   0.569  2.3215  2.9605  1.4032
 6010TIP3   OH218035   1.793   4.045   2.802  0.8292 -0.2910  0.0576
 6010TIP3    H118036   1.880   4.042   2.762  1.4294  1.6084  1.0818
 6010TIP3    H218037   1.810   4.039   2.896  0.0246  1.6585  0.3655
 6011TIP3   OH218038   1.131   4.764   3.041 -0.3344 -0.2671  0.0898
 6011TIP3    H118039   1.219   4.802   3.047 -0.5105  0.0090  1.0828
 6011TIP3    H218040   1.124   4.735   2.950  1.3248 -1.5903  0.3206
 6012TIP3   OH218041   1.108   2.313   2.812  0.0612  0.3569  0.7238
 6012TIP3    H118042   1.177   2.270   2.762  0.1106  3.1174 -1.9249
 6012TIP3    H218043   1.050   2.242   2.840  2.6911 -1.7974  1.0221
 6013TIP3   OH218044   3.895   1.067   2.657  0.0460  0.0158 -0.2869
 6013TIP3    H118045   3.811   1.066   2.612  0.3386  0.3270 -0.8474
 6013TIP3    H218046   3.957   1.030   2.594  0.4919  0.5937 -0.2031
 6014TIP3   OH218047   2.126   3.217   2.897 -0.1547  0.1544 -0.2301
 6014TIP3    H118048   2.222   3.217   2.901 -0.1688 -0.3543  0.1830
 6014TIP3    H218049   2.102   3.309   2.908  0.2605  0.1880  0.5078
 6015TIP3   OH218050   2.082   2.758   1.884  0.2729 -0.2277 -0.3755
 6015TIP3    H118051   2.063   2.847   1.912 -1.6663 -0.2422 -1.4749
 6015TIP3    H218052   2.092   2.764   1.789 -1.6049 -1.3717 -0.7025
 6016TIP3   OH218053   6.025   0.354   1.409 -0.1724 -0.3073  0.3701
 6016TIP3    H118054   6.021   0.428   1.470 -1.3620 -0.2503  0.2456
 6016TIP3    H218055   5.951   0.368   1.349  0.2699 -0.9926 -0.3582
 6017TIP3   OH218056   1.705   4.360   2.273  0.0351 -0.1412 -0.2707
 6017TIP3    H118057   1.752   4.277   2.275 -1.0268 -0.7500  0.1659
 6017TIP3    H218058   1.649   4.358   2.351 -0.7480  0.5320 -0.7999
 6018TIP3   OH218059   3.783   0.391   2.672 -0.2857 -0.0777 -0.6394
 6018TIP3    H118060   3.871   0.378   2.637 -0.5136  0.8682 -1.6491
 6018TIP3    H218061   3.775   0.328   2.743  1.6505  0.6443  0.2868
 6019TIP3   OH218062   3.441   4.519   4.913 -0.2350 -0.1431 -0.1773
 6019TIP3    H118063   3.444   4.570   4.994  1.4307  1.3055 -1.0660
 6019TIP3    H218064   3.456   4.429   4.941  3.4361  0.6461  0.9721
 6020TIP3   OH218065   6.203   0.137   0.739 -0.0710 -0.0737 -0.2354
 6020TIP3    H118066   6.264   0.116   0.668  0.2829  0.0354  0.0299
 6020TIP3    H218067   6.256   0.129   0.819 -0.1740  0.8868 -0.0584
 6021TIP3   OH218068   4.139   4.004   4.911 -0.3633 -0.2329  0.0001
 6021TIP3    H118069   4.127   4.038   5.000  0.5938 -1.1464  0.4966
 6021TIP3    H218070   4.163   3.912   4.924 -2.4643 -1.0204 -1.2955
 6022TIP3   OH218071   2.537   5.236   4.621 -0.2180 -0.4119 -0.8869
 6022TIP3    H118072   2.504   5.324   4.600 -1.4611 -0.2507  1.4315
 6022TIP3    H218073   2.632   5.245   4.615 -0.3721  0.4678 -2.8403
 6023TIP3   OH218074   4.592   0.653   2.837  0.3567  0.5335 -0.0479
 6023TIP3    H118075   4.667   0.713   2.838  0.4786  0.3818  0.5331
 6023TIP3    H218076   4.631   0.567   2.854  0.1702  0.2975 -0.7510
 6024TIP3   OH218077   4.458   0.909   2.703 -0.4254 -0.5930  0.0590
 6024TIP3    H118078   4.424   0.983   2.653 -0.5145  0.4338  1.5863
 6024TIP3    H218079   4.518   0.865   2.643 -0.7091  0.4406 -1.0234
 6025TIP3   OH218080   4.726   2.019   4.433 -0.6147 -0.0596 -0.2649
 6025TIP3    H118081   4.685   1.940   4.468 -0.1201 -0.0858  0.2668
 6025TIP3    H218082   4.814   2.019   4.469 -0.2461  0.1653 -1.1457
 6026TIP3   OH218083   6.181   2.907   3.472 -0.1755 -0.5049 -0.1315
 6026TIP3    H118084   6.112   2.940   3.530  0.4737  0.2232  0.2486
 6026TIP3    H218085   6.220   2.986   3.434  0.6999 -0.8823 -0.0437
 6027TIP3   OH218086   1.147   4.787   4.364 -0.1286 -0.3235 -0.5961
 6027TIP3    H118087   1.118   4.813   4.277  0.5691  0.4029 -0.6255
 6027TIP3    H218088   1.130   4.693   4.369  0.8079 -0.5735 -1.8943
 6028TIP3   OH218089   5.013   3.958   2.006  0.9610  0.3047 -0.7546
 6028TIP3    H118090   4.931   3.941   2.053  1.5620 -0.9682 -0.0959
 6028TIP3    H218091   5.028   4.051   2.018 -1.3339  0.9938 -2.4951
 6029TIP3   OH218092   1.171   0.537   1.135 -0.2221 -0.1262 -0.1874
 6029TIP3    H118093   1.199   0.556   1.225  1.8795 -0.6136 -0.6766
 6029TIP3    H218094   1.079   0.563   1.133 -0.1484  0.5394  1.9086
 6030TIP3   OH218095   0.559   1.122   2.613 -0.0215  0.2801 -0.1422
 6030TIP3    H118096   0.494   1.111   2.681 -0.8724  0.6379 -0.8761
 6030TIP3    H218097   0.543   1.051   2.552  1.5785 -0.8279  0.6488
 6031TIP3   OH218098   4.001   0.783   3.209 -0.4938 -0.0877  0.0159
 6031TIP3    H118099   4.069   0.800   3.273  0.1729  1.2902 -1.0101
 6031TIP3    H218100   3.927   0.836   3.238 -0.9932 -1.1965  0.8503
 6032TIP3   OH218101   0.913   4.269   4.676  0.2245 -0.1093 -0.5571
 6032TIP3    H118102   0.819   4.269   4.658  0.4010 -0.3795 -1.5713
 6032TIP3    H218103   0.938   4.361   4.671  0.0345 -0.0444 -0.3615
 6033TIP3   OH218104   3.688   1.757   0.976 -0.2017  0.5957  0.1891
 6033TIP3    H118105   3.631   1.773   0.901  0.5750 -0.9676 -0.7859
 6033TIP3    H218106   3.768   1.805   0.956 -0.4548  1.2307  0.6553
 6034TIP3   OH218107   0.513   4.057   4.743 -0.1697  0.3281  0.0858
 6034TIP3    H118108   0.460   4.124   4.699 -1.0315  0.3460  1.1017
 6034TIP3    H218109   0.449   4.001   4.786  0.4565 -1.8186 -1.5762
 6035TIP3   OH218110   0.436   0.997   4.178  0.1756  0.5134  0.1195
 6035TIP3    H118111   0.436   1.091   4.196 -0.7394  0.2639  1.6046
 6035TIP3    H218112   0.520   0.965   4.211  0.2644  0.7277  0.0988
 6036TIP3   OH218113   5.775   3.561   3.437 -0.1615  0.0145 -0.2826
 6036TIP3    H118114   5.815   3.517   3.362  1.4553  0.1063  0.5006
 6036TIP3    H218115   5.831   3.538   3.511  0.4682  2.9503  0.2474
 6037TIP3   OH218116   3.899   0.597   3.022  0.4045  0.1805 -0.7749
 6037TIP3    H118117   3.907   0.655   3.098 -0.2701 -1.1357  0.3542
 6037TIP3    H218118   3.989   0.575   3.000  0.6211  0.7465 -0.4948
 6038TIP3   OH218119   2.790   3.392   3.372  0.0630 -0.2939 -0.6667
 6038TIP3    H118120   2.773   3.327   3.304  0.0362 -2.3254  1.1601
 6038TIP3    H218121   2.807   3.340   3.451 -0.5171  1.9514  1.0393
 6039TIP3   OH218122   1.439   0.238   0.735  0.3970 -0.1861  0.5599
 6039TIP3    H118123   1.406   0.246   0.825  0.4861  0.5251  0.5353
 6039TIP3    H218124   1.439   0.328   0.702 -1.0099 -0.6000 -0.6536
 6040TIP3   OH218125   2.895   5.699   1.593 -0.0385 -0.0850  0.0769
 6040TIP3    H118126   2.929   5.751   1.520  0.1950  0.1488  0.3527
 6040TIP3    H218127   2.840   5.632   1.551  1.1741 -0.8040 -0.4285
 6041TIP3   OH218128   0.778   4.978   2.252 -0.3306  0.2606  0.5199
 6041TIP3    H118129   0.704   4.952   2.196 -0.4133 -0.7892  1.0908
 6041TIP3    H218130   0.807   4.896   2.292 -0.1325  0.9613  1.8415
 6042TIP3   OH218131   3.491   0.540   1.687 -0.4159 -0.3767 -0.4316
 6042TIP3    H118132   3.569   0.498   1.650  0.1512  1.0099 -0.8397
 6042TIP3    H218133   3.428   0.542   1.614  0.6178  2.1406 -1.3437
 6043TIP3   OH218134   5.044   1.242   1.417 -0.3537 -0.2828  0.3325
 6043TIP3    H118135   5.035   1.153   1.385 -2.2452 -0.1605  0.3895
 6043TIP3    H218136   5.044   1.233   1.513  2.1133 -0.3950  0.3709
 6044TIP3   OH218137   6.147   0.158   3.380  0.1002 -0.3759 -0.8068
 6044TIP3    H118138   6.190   0.230   3.426 -0.4550 -1.1059  0.9543
 6044TIP3    H218139   6.159   0.178   3.287 -0.8126  2.4575 -0.4109
 6045TIP3   OH218140   1.632   4.203   3.321 -0.2705 -0.4379  0.0075
 6045TIP3    H118141   1.572   4.168   3.386 -0.9999  0.6079 -0.0688
 6045TIP3    H218142   1.604   4.164   3.238  0.2366 -1.2542  0.2141
 6046TIP3   OH218143   4.416   4.520   4.651  0.2815  0.3725  0.1453
 6046TIP3    H118144   4.511   4.516   4.660  0.4294  1.3875 -0.7072
 6046TIP3    H218145   4.400   4.508   4.558 -0.5293 -0.9720  0.4359
 6047TIP3   OH218146   6.322   3.675   0.329 -0.3302 -0.1643  0.0961
 6047TIP3    H118147   6.326   3.607   0.261  0.6608  0.9819 -1.0335
 6047TIP3    H218148   6.237   3.661   0.371 -2.2377  0.7114 -3.1378
 6048TIP3   OH218149   4.957   5.391   2.312  0.2986  0.4151 -0.2646
 6048TIP3    H118150   4.956   5.334   2.388  0.3077  0.8082  0.0343
 6048TIP3    H218151   5.050   5.404   2.291  0.2885  0.0534 -0.5369
 6049TIP3   OH218152   3.349   2.829   1.026 -0.0630 -0.1213  0.3479
 6049TIP3    H118153   3.331   2.825   1.120  1.4062  2.9947  0.9271
 6049TIP3    H218154   3.441   2.802   1.018  0.7700  2.3998  0.3625
 6050TIP3   OH218155   3.732   4.713   1.807 -0.1307 -0.4556 -0.1959
 6050TIP3    H118156   3.803   4.680   1.862  1.9295  0.6171 -2.0202
 6050TIP3    H218157   3.769   4.713   1.718 -2.8035 -0.8274 -1.4000
 6051TIP3   OH218158   0.514   0.889   4.784  0.0482 -0.4745  0.0019
 6051TIP3    H118159   0.545   0.927   4.702 -0.4273 -0.3175 -0.1110
 6051TIP3    H218160   0.486   0.964   4.836  0.7582 -0.5389  0.4881
 6052TIP3   OH218161   4.133   0.925   1.477 -0.0022  0.2115 -0.2967
 6052TIP3    H118162   4.053   0.899   1.522  0.3847 -0.5813 -0.0352
 6052TIP3    H218163   4.204   0.891   1.532  0.5280  1.3174 -0.2713
 6053TIP3   OH218164   0.134   4.369   1.067  0.6863  0.0658 -0.0835
 6053TIP3    H118165   0.079   4.437   1.106 -0.1233 -0.7637  0.2749
 6053TIP3    H218166   0.223   4.402   1.075  0.1903  2.2064 -2.1314
 6054TIP3   OH218167   2.737   0.437   3.585  0.3114 -0.0056 -0.2118
 6054TIP3    H118168   2.813   0.442   3.645  0.4454  0.9618 -0.4456
 6054TIP3    H218169   2.776   0.430   3.498  0.1605  1.4962 -0.4192
 6055TIP3   OH218170   1.374   2.778   5.020  0.0904 -0.1391 -0.5347
 6055TIP3    H118171   1.362   2.859   5.071 -1.5557 -0.2456 -0.7081
 6055TIP3    H218172   1.295   2.727   5.037  0.3312 -0.9679 -1.7895
 6056TIP3   OH218173   5.437   0.581   4.513  0.4156  0.9458  0.3139
 6056TIP3    H118174   5.465   0.657   4.463  0.6509  0.8521  0.3018
 6056TIP3    H218175   5.347   0.564   4.483  0.4939  0.9937  0.0530
 6057TIP3   OH218176   3.504   2.318   3.297  0.4978 -0.1422 -0.3159
 6057TIP3    H118177   3.444   2.359   3.359  0.3881  0.7641 -0.9947
 6057TIP3    H218178   3.460   2.326   3.212 -0.7169 -3.8998 -0.2436
 6058TIP3   OH218179   1.152   4.113   1.456 -0.0151 -0.2944 -0.3882
 6058TIP3    H118180   1.116   4.062   1.383 -1.3449  1.0112 -0.7040
 6058TIP3    H218181   1.190   4.191   1.414 -0.7228  0.4337  0.2885
 6059TIP3   OH218182  -0.025   5.930   0.112 -0.0579  0.1125  0.6738
 6059TIP3    H118183   0.018   5.960   0.032  0.7815 -2.5024  0.0544
 6059TIP3    H218184   0.014   5.983   0.181  1.0446  0.7183 -0.3735
 6060TIP3   OH218185   1.999   0.977   4.215  0.2365 -0.6726  0.6102
 6060TIP3    H118186   2.023   0.959   4.305 -1.4479 -1.0318  1.0257
 6060TIP3    H218187   1.905   0.958   4.211  0.1084  0.1169 -1.0120
 6061TIP3   OH218188   5.284   5.176   4.346 -0.6880  0.4581 -0.1232
 6061TIP3    H118189   5.334   5.125   4.410 -1.1933  0.0148 -0.0821
 6061TIP3    H218190   5.305   5.267   4.367  1.6659  0.2921 -1.3336
 6062TIP3   OH218191   4.941   3.211   2.780 -0.1788 -1.1137 -0.7519
 6062TIP3    H118192   4.968   3.218   2.872  1.6578 -0.4326 -1.3039
 6062TIP3    H218193   4.856   3.256   2.776  1.5536  2.5601 -0.1230
 6063TIP3   OH218194   5.108   4.513   4.605  0.6145  0.3096 -0.1703
 6063TIP3    H118195   5.201   4.528   4.589  0.4742  1.5012  0.0798
 6063TIP3    H218196   5.103   4.422   4.634  1.7886  0.4759  0.5823
 6064TIP3   OH218197   4.285   0.314   1.126  0.3654 -0.0206  0.0606
 6064TIP3    H118198   4.309   0.308   1.034 -0.9260  0.8246 -0.3524
 6064TIP3    H218199   4.244   0.230   1.146 -1.0722  0.4739 -0.6827
 6065TIP3   OH218200   2.004   1.179   3.011 -0.1753  0.6020  0.3333
 6065TIP3    H118201   1.954   1.229   3.076  0.5565  0.6076  0.9108
 6065TIP3    H218202   1.988   1.088   3.034  0.2590  0.6068  0.6643
 6066TIP3   OH218203   4.067   5.659   4.487  0.0305  0.2503 -0.0576
 6066TIP3    H118204   4.079   5.577   4.439  0.3574 -0.3818  1.0741
 6066TIP3    H218205   4.005   5.709   4.433  0.4060 -0.4102 -1.1456
 6067TIP3   OH218206   1.715   4.252   0.754  0.3878  0.6092  0.0928
 6067TIP3    H118207   1.776   4.293   0.693  1.3241  0.1804  0.7222
 6067TIP3    H218208   1.760   4.175   0.787 -0.9554 -0.3792 -0.2901
 6068TIP3   OH218209   6.080   0.855   1.379  0.3440  0.1266 -0.1293
 6068TIP3    H118210   6.097   0.874   1.287 -0.8500  1.4876 -0.1039
 6068TIP3    H218211   5.985   0.843   1.385  0.1749  1.7262  1.1760
 6069TIP3   OH218212   4.322   4.140   1.688  0.1277 -0.2855  0.2615
 6069TIP3    H118213   4.258   4.117   1.620 -0.8016  0.2248  0.9311
 6069TIP3    H218214   4.361   4.222   1.656 -3.8530  2.8623  2.4579
 6070TIP3   OH218215   4.579   4.405   2.461 -0.9211  0.1889  0.5226
 6070TIP3    H118216   4.651   4.361   2.416 -2.0401  0.2037 -1.4036
 6070TIP3    H218217   4.592   4.498   2.441 -1.2155  0.2378  0.5491
 6071TIP3   OH218218   0.569   4.893   2.072  0.0119 -0.5058  0.7113
 6071TIP3    H118219   0.491   4.926   2.028  0.5976 -0.9567 -0.7061
 6071TIP3    H218220   0.543   4.808   2.108  0.0299 -0.9853 -0.3761
 6072TIP3   OH218221   3.961   4.414   3.667  0.1641 -0.2102  0.3384
 6072TIP3    H118222   3.906   4.385   3.595  2.5605 -1.3772 -1.1229
 6072TIP3    H218223   3.968   4.509   3.655 -0.7772 -0.1641  0.0521
 6073TIP3   OH218224   1.459   3.506   3.679 -0.2652 -0.0234 -0.3558
 6073TIP3    H118225   1.490   3.421   3.647 -0.9692 -1.1217  1.7032
 6073TIP3    H218226   1.480   3.506   3.773 -1.6195  1.4470 -0.0093
 6074TIP3   OH218227   4.515   0.315   1.620  0.4787  0.1739  0.0249
 6074TIP3    H118228   4.588   0.354   1.572  0.6210  0.3828  0.4077
 6074TIP3    H218229   4.512   0.363   1.703 -0.7936  0.9406 -0.4300
 6075TIP3   OH218230   1.456   5.490   1.517  0.4687 -0.0927  0.6101
 6075TIP3    H118231   1.417   5.570   1.482 -4.5873 -1.9018  1.3419
 6075TIP3    H218232   1.454   5.501   1.612  0.7771 -0.6854  0.6944
 6076TIP3   OH218233   1.930   4.960   3.833 -0.0120 -0.0582  0.3927
 6076TIP3    H118234   1.885   4.945   3.750  1.5251 -0.9188 -0.3095
 6076TIP3    H218235   1.977   5.043   3.821 -1.2537  0.7874  1.0913
 6077TIP3   OH218236   1.990   4.830   2.765 -0.1141 -0.0982 -0.7128
 6077TIP3    H118237   1.900   4.816   2.795  0.5249 -0.7211  1.0947
 6077TIP3    H218238   2.040   4.761   2.809  1.2488  0.2363 -1.6895
 6078TIP3   OH218239   4.329   2.424   2.929 -0.1189 -0.6330 -0.1073
 6078TIP3    H118240   4.242   2.463   2.926  0.0967 -0.2009 -1.3695
 6078TIP3    H218241   4.384   2.483   2.877  1.4595  0.3586  2.4780
 6079TIP3   OH218242   1.854   0.192   1.355  0.4640 -0.1044  0.4626
 6079TIP3    H118243   1.765   0.226   1.346  0.4426 -0.1426  0.5333
 6079TIP3    H218244   1.875   0.205   1.447  0.7879  0.5486  0.3062
 6080TIP3   OH218245   5.364   1.242   1.768 -0.8033 -0.4372  0.0008
 6080TIP3    H118246   5.381   1.271   1.678 -1.6351 -1.4430 -0.5037
 6080TIP3    H218247   5.450   1.242   1.810 -0.2433 -0.9592 -1.1089
 6081TIP3   OH218248   3.515   1.061   2.643 -0.1139 -0.4413  0.5747
 6081TIP3    H118249   3.533   1.003   2.716  0.6014  0.0337  0.7925
 6081TIP3    H218250   3.599   1.071   2.598 -0.0387  0.9879  0.9695
 6082TIP3   OH218251   2.443   3.737   4.626 -0.2551 -0.1144 -0.2294
 6082TIP3    H118252   2.507   3.715   4.693 -0.5277  0.1274  0.1111
 6082TIP3    H218253   2.496   3.752   4.547 -0.0442 -1.7026 -0.4149
 6083TIP3   OH218254   4.071   5.470   2.736 -0.0604  0.2468  0.1788
 6083TIP3    H118255   4.078   5.485   2.830  2.2381 -1.5992  0.4164
 6083TIP3    H218256   4.130   5.534   2.697  1.7377 -1.2094  0.3592
 6084TIP3   OH218257   1.259   2.689   0.450  0.0645 -0.2649  0.3435
 6084TIP3    H118258   1.168   2.660   0.447 -0.3826  1.0881 -1.5965
 6084TIP3    H218259   1.310   2.608   0.447 -0.9893 -1.1475  3.3662
 6085TIP3   OH218260   1.817   5.184   0.499  0.1410  0.5006  0.0366
 6085TIP3    H118261   1.739   5.169   0.446  1.1327  1.6120 -1.8679
 6085TIP3    H218262   1.807   5.274   0.531  0.2754  0.3653  0.4683
 6086TIP3   OH218263   3.079   5.349   2.158 -0.1710 -0.2160 -0.2324
 6086TIP3    H118264   3.009   5.285   2.146 -1.7254  1.6250 -1.5862
 6086TIP3    H218265   3.128   5.347   2.076 -1.5352  1.7242 -1.1759
 6087TIP3   OH218266   0.275   1.123   2.420 -0.0182  0.3890 -0.0412
 6087TIP3    H118267   0.220   1.122   2.342 -0.2679  0.9210  0.1242
 6087TIP3    H218268   0.240   1.194   2.474  0.9427  0.8645 -0.0258
 6088TIP3   OH218269   3.058   4.751   5.139  0.3727  0.5263 -0.3085
 6088TIP3    H118270   2.977   4.777   5.183 -0.3050  0.2196 -1.3419
 6088TIP3    H218271   3.127   4.796   5.188 -0.5666  2.2991 -0.5425
 6089TIP3   OH218272   5.637   0.250   2.405  0.6027  0.1261 -0.2118
 6089TIP3    H118273   5.581   0.285   2.474  0.8700  0.3930 -0.1261
 6089TIP3    H218274   5.628   0.312   2.333 -1.3561 -1.2709 -1.2446
 6090TIP3   OH218275   6.109   5.997   4.343  0.1802 -0.1115 -0.5879
 6090TIP3    H118276   6.152   5.925   4.390 -0.8422  0.0225  0.6235
 6090TIP3    H218277   6.179   6.041   4.296  1.1788 -0.5782  0.4232
 6091TIP3   OH218278   4.772   0.570   0.710 -0.0499  0.1240  0.4886
 6091TIP3    H118279   4.766   0.477   0.689  0.0842  0.3568 -0.6250
 6091TIP3    H218280   4.860   0.582   0.745 -0.1304 -0.1996  0.8022
 6092TIP3   OH218281   5.451   2.581   3.288  0.1393  0.0724 -0.4121
 6092TIP3    H118282   5.505   2.584   3.368  2.0184 -0.9586 -1.5763
 6092TIP3    H218283   5.366   2.550   3.319  1.1325 -1.4031  1.0838
 6093TIP3   OH218284   4.433   4.696   5.073 -0.1538 -0.8787  0.2992
 6093TIP3    H118285   4.369   4.707   5.143 -0.3802  0.5786 -0.0961
 6093TIP3    H218286   4.414   4.610   5.036 -0.7979 -1.1559  1.2580
 6094TIP3   OH218287   1.447   3.255   4.989  0.0977  0.7666 -0.2951
 6094TIP3    H118288   1.531   3.219   5.016  0.0489  2.3279  2.2015
 6094TIP3    H218289   1.470   3.329   4.932  0.2715 -0.4567 -1.9080
 6095TIP3   OH218290   1.930   0.402   3.093  0.1160  0.2793  0.2862
 6095TIP3    H118291   1.878   0.341   3.145 -0.4865  1.0431  0.6049
 6095TIP3    H218292   1.870   0.475   3.074  0.6540  0.5167 -0.5514
 6096TIP3   OH218293   5.916   2.888   1.350 -0.1306  0.1613  0.7284
 6096TIP3    H118294   5.990   2.946   1.370 -0.1588  0.3018  0.4321
 6096TIP3    H218295   5.840   2.945   1.351 -0.3881 -0.1776  2.1140
 6097TIP3   OH218296   0.381   3.605   1.853  0.1449 -0.4785 -0.2013
 6097TIP3    H118297   0.447   3.551   1.897  1.5026  2.5282  1.7467
 6097TIP3    H218298   0.402   3.598   1.760 -0.0435 -3.5435 -0.1227
 6098TIP3   OH218299   3.609   0.743   3.213 -0.6297  0.0498  0.0751
 6098TIP3    H118300   3.556   0.807   3.166  1.5253  0.4277 -2.0211
 6098TIP3    H218301   3.688   0.792   3.238 -0.3899 -0.9654  1.3857
 6099TIP3   OH218302   0.778   4.677   0.306  0.3818 -0.2285 -0.2281
 6099TIP3    H118303   0.712   4.691   0.238  0.4873  0.8472 -0.1360
 6099TIP3    H218304   0.849   4.738   0.283  0.3844  0.2192  0.8877
 6100TIP3   OH218305   1.906   3.195   4.733 -0.6399  0.0248  0.2361
 6100TIP3    H118306   1.824   3.148   4.750 -0.4084 -0.1974  0.7844
 6100TIP3    H218307   1.967   3.127   4.704 -0.4912  0.0968  0.3786
 6101TIP3   OH218308   1.523   3.367   3.924 -0.0148  0.2585  0.6229
 6101TIP3    H118309   1.455   3.379   3.991 -0.3689  1.4048  0.0808
 6101TIP3    H218310   1.525   3.272   3.910 -1.4817  0.1873  0.6888
 6102TIP3   OH218311   1.611   2.163   3.571 -0.0490  0.2345 -0.2262
 6102TIP3    H118312   1.564   2.236   3.612 -1.2272 -0.1722 -0.8038
 6102TIP3    H218313   1.625   2.191   3.481 -0.4249 -0.1936 -0.4269
 6103TIP3   OH218314   3.164   4.626   0.301 -0.1730  0.5213 -0.2098
 6103TIP3    H118315   3.207   4.704   0.336  0.5310  0.1458 -0.1989
 6103TIP3    H218316   3.214   4.553   0.339 -1.5877  0.0248  0.7869
 6104TIP3   OH218317   3.251   1.157   4.703  0.3166  0.2118 -0.3707
 6104TIP3    H118318   3.221   1.131   4.791 -2.1637  0.3295 -1.1186
 6104TIP3    H218319   3.230   1.250   4.697 -0.6439 -0.0510 -1.4812
 6105TIP3   OH218320   3.526   0.791   0.083 -0.5774 -0.2133  0.4708
 6105TIP3    H118321   3.441   0.765   0.118 -0.3492 -0.0180  1.1958
 6105TIP3    H218322   3.571   0.831   0.158  0.1423 -0.3021  0.0920
 6106TIP3   OH218323   4.503   4.700   0.228  0.0231  0.5834 -0.1470
 6106TIP3    H118324   4.511   4.609   0.199  0.3943  0.4652  0.3092
 6106TIP3    H218325   4.419   4.703   0.272 -0.5736  0.7796 -1.2689
 6107TIP3   OH218326   0.287   5.597   4.471 -0.2463  0.0361  0.4605
 6107TIP3    H118327   0.205   5.548   4.481 -0.5011 -0.0567 -1.6191
 6107TIP3    H218328   0.267   5.684   4.504 -1.1448 -0.0296  0.1174
 6108TIP3   OH218329   5.093   5.266   3.441 -0.1024  0.7913  0.2453
 6108TIP3    H118330   5.159   5.333   3.456  1.4564 -0.5183 -0.4580
 6108TIP3    H218331   5.063   5.282   3.352  1.2804 -0.2368 -0.4360
 6109TIP3   OH218332   1.113   5.293   3.847  0.1144  0.5845 -0.2782
 6109TIP3    H118333   1.043   5.358   3.841  0.7450  1.2560 -0.5108
 6109TIP3    H218334   1.105   5.257   3.935 -1.1172 -0.0370 -0.6249
 6110TIP3   OH218335   0.646   3.778   5.128  0.0014  0.4780  0.1369
 6110TIP3    H118336   0.618   3.690   5.103  2.8111 -0.7199  0.7009
 6110TIP3    H218337   0.633   3.832   5.050  0.5102 -1.0565 -1.0531
 6111TIP3   OH218338   1.435   3.048   4.675  0.3202  0.2958  0.2354
 6111TIP3    H118339   1.512   3.044   4.731  0.8164  0.5304 -0.4206
 6111TIP3    H218340   1.465   3.091   4.595 -0.7193  1.2925  0.3441
 6112TIP3   OH218341   2.525   2.067   0.862  0.3321 -0.1325 -0.1108
 6112TIP3    H118342   2.604   2.015   0.849  1.0636  1.3474 -2.0108
 6112TIP3    H218343   2.532   2.099   0.952  2.3688  0.6961 -0.5195
 6113TIP3   OH218344   2.090   1.110   4.765  0.1834 -0.1756 -0.4091
 6113TIP3    H118345   2.004   1.136   4.798  0.4406 -0.2960  0.3774
 6113TIP3    H218346   2.095   1.016   4.783  1.3008  0.1905  1.5205
 6114TIP3   OH218347   0.830   1.027   4.926  0.0345  0.2658  0.0455
 6114TIP3    H118348   0.823   1.117   4.957 -1.2360 -0.2852  1.5064
 6114TIP3    H218349   0.820   1.033   4.831  0.3751  1.6983  0.0872
 6115TIP3   OH218350   5.007   3.195   1.595  0.0493 -0.7794  0.1274
 6115TIP3    H118351   4.974   3.270   1.644  0.2222  0.4355 -1.5264
 6115TIP3    H218352   4.983   3.213   1.504  2.3709 -1.4401 -0.6914
 6116TIP3   OH218353   1.000   3.105   1.990 -0.0627  0.3687 -0.2822
 6116TIP3    H118354   1.055   3.080   2.064  1.1197  1.0320 -0.9014
 6116TIP3    H218355   1.038   3.059   1.915 -0.4294  0.7331 -0.6968
 6117TIP3   OH218356   3.319   3.885   2.325  0.3048  0.6611  0.6970
 6117TIP3    H118357   3.285   3.884   2.236  0.4342  0.6399  0.6470
 6117TIP3    H218358   3.310   3.794   2.355 -1.7444  1.0712  1.4841
 6118TIP3   OH218359   1.659   1.538   2.419  0.2028  0.4238  0.1323
 6118TIP3    H118360   1.573   1.520   2.457  1.2047 -2.0540  1.3652
 6118TIP3    H218361   1.652   1.506   2.329 -0.0631 -0.0588  0.3235
 6119TIP3   OH218362   4.345   4.242   2.258 -0.0911 -0.0406  0.4083
 6119TIP3    H118363   4.424   4.189   2.266 -0.2669 -0.1485  1.5941
 6119TIP3    H218364   4.377   4.329   2.233  0.4110 -0.0929  0.8445
 6120TIP3   OH218365   4.808   4.935   3.892 -0.8712  0.3070 -0.2632
 6120TIP3    H118366   4.839   5.018   3.927 -1.4421  0.6032 -0.4424
 6120TIP3    H218367   4.866   4.917   3.818 -0.4869  0.3352  0.0272
 6121TIP3   OH218368   2.823   1.339   2.086  0.2053  0.0794 -0.8840
 6121TIP3    H118369   2.784   1.345   1.999 -0.1270  0.7969 -0.6893
 6121TIP3    H218370   2.917   1.348   2.071  0.2749 -1.1473 -1.3011
 6122TIP3   OH218371   5.850   3.057   3.855 -0.3453  0.7168 -0.4618
 6122TIP3    H118372   5.907   3.050   3.931 -0.0956  0.2553 -0.6880
 6122TIP3    H218373   5.768   3.091   3.889 -0.1923  0.6312 -0.0082
 6123TIP3   OH218374   6.040   0.990   0.192  0.3206 -0.7095 -0.3193
 6123TIP3    H118375   5.965   0.956   0.241 -0.0502 -1.0323 -1.0942
 6123TIP3    H218376   6.117   0.957   0.237 -0.0155 -0.8999  0.1114
 6124TIP3   OH218377   5.518   0.989   0.676  0.2009  0.0232 -0.0351
 6124TIP3    H118378   5.611   0.975   0.693  0.0350 -0.1259  0.7870
 6124TIP3    H218379   5.478   0.997   0.763 -0.5855 -0.1183 -0.3720
 6125TIP3   OH218380   3.601   3.511   1.783 -1.1607  0.1789  0.0623
 6125TIP3    H118381   3.560   3.544   1.864 -3.4988 -0.0854 -0.9263
 6125TIP3    H218382   3.637   3.589   1.741 -0.4261  0.4016  1.0500
 6126TIP3   OH218383   3.635   0.293   1.897 -0.1737  0.0815 -0.2400
 6126TIP3    H118384   3.638   0.256   1.809 -0.5989 -3.0745  0.9452
 6126TIP3    H218385   3.725   0.288   1.929 -0.6835 -3.7457  1.1935
 6127TIP3   OH218386   4.586   1.429   1.252 -0.1701 -0.4504  0.4251
 6127TIP3    H118387   4.615   1.401   1.339 -0.2472  1.1201  0.9843
 6127TIP3    H218388   4.536   1.354   1.219 -0.1267 -1.0886  1.7267
 6128TIP3   OH218389   1.006   5.110   2.247  0.1209  0.2913 -0.3611
 6128TIP3    H118390   1.066   5.065   2.188  1.0343  0.9750  0.0263
 6128TIP3    H218391   0.919   5.081   2.219  0.5634  0.1096 -1.6187
 6129TIP3   OH218392   3.979   1.148   0.048  0.7277 -0.1008  0.6841
 6129TIP3    H118393   3.927   1.091  -0.010  0.8451  0.4828 -0.0027
 6129TIP3    H218394   4.067   1.110   0.046  0.8700  0.2443  0.0140
 6130TIP3   OH218395   0.747   3.609   0.385 -0.2018 -0.0796 -0.1988
 6130TIP3    H118396   0.758   3.651   0.299 -2.6654  0.6730 -0.2325
 6130TIP3    H218397   0.783   3.673   0.447 -0.9437  0.6583 -0.4993
 6131TIP3   OH218398   4.622   5.382   3.825 -0.0117 -0.1002 -0.1278
 6131TIP3    H118399   4.715   5.397   3.808 -0.0002 -1.5257 -1.5411
 6131TIP3    H218400   4.617   5.366   3.919  1.3889 -1.3316 -0.2267
 6132TIP3   OH218401   2.890   4.123   0.274  0.1996 -0.2434  0.5437
 6132TIP3    H118402   2.946   4.179   0.221 -1.5391  0.8316 -0.2559
 6132TIP3    H218403   2.908   4.034   0.243  0.0429  0.2610 -1.0725
 6133TIP3   OH218404   2.923   1.219   0.352  0.2674 -0.5318  0.1294
 6133TIP3    H118405   2.906   1.201   0.260 -1.1319  2.6458 -0.3913
 6133TIP3    H218406   3.014   1.248   0.355  0.3485 -0.7486 -0.2141
 6134TIP3   OH218407   1.953   5.161   1.823  0.1605 -0.2931  0.5642
 6134TIP3    H118408   1.880   5.193   1.875  0.6340  1.6710  0.1191
 6134TIP3    H218409   1.921   5.162   1.733  0.3685 -0.5059  0.4867
 6135TIP3   OH218410   3.921   1.371   3.300 -0.3347  0.0332 -0.2382
 6135TIP3    H118411   3.861   1.416   3.359 -0.9926 -0.1666 -0.7388
 6135TIP3    H218412   3.998   1.353   3.353 -0.4531  0.8721  0.2373
 6136TIP3   OH218413   4.429   4.261   1.082  0.1578 -0.0828 -0.0685
 6136TIP3    H118414   4.361   4.328   1.071  0.8264  0.9520  1.7242
 6136TIP3    H218415   4.382   4.179   1.092 -0.8001  0.5168  0.4045
 6137TIP3   OH218416   3.568   4.666   2.024  0.3673  0.0974 -0.0550
 6137TIP3    H118417   3.482   4.655   1.984  0.7962 -2.8945 -0.3765
 6137TIP3    H218418   3.621   4.708   1.956 -0.7463  1.7962  0.0855
 6138TIP3   OH218419   5.634   2.640   4.695  0.0194 -0.2913 -0.3209
 6138TIP3    H118420   5.704   2.577   4.680  0.5419 -0.5311  2.5842
 6138TIP3    H218421   5.554   2.591   4.678  0.4637 -0.6912 -1.3909
 6139TIP3   OH218422   4.654   4.045   1.881 -0.0322 -0.0897  0.1330
 6139TIP3    H118423   4.741   4.077   1.856  0.0745 -0.0817  0.5145
 6139TIP3    H218424   4.628   4.101   1.954 -0.6496  0.3536 -0.4097
 6140TIP3   OH218425   6.090   2.099   4.167 -0.0883  0.1177  0.2166
 6140TIP3    H118426   6.153   2.028   4.178  0.9473  1.0974  0.9854
 6140TIP3    H218427   6.080   2.108   4.073 -1.4471 -2.0255  0.0908
 6141TIP3   OH218428   4.913   1.130   4.645  0.6128 -0.1437  0.1672
 6141TIP3    H118429   4.919   1.077   4.565  1.8524  2.9142 -1.9603
 6141TIP3    H218430   5.000   1.169   4.654  0.9764 -1.4503  3.9625
 6142TIP3   OH218431   5.178   2.667   5.054 -0.0305 -0.3140 -0.1090
 6142TIP3    H118432   5.236   2.601   5.017 -0.3295  0.4129 -1.9971
 6142TIP3    H218433   5.176   2.647   5.148  1.0300 -2.0573 -0.4036
 6143TIP3   OH218434   1.746   4.548   0.988  0.4817 -0.2247  0.4305
 6143TIP3    H118435   1.811   4.593   1.043 -0.3801  0.4406  0.9402
 6143TIP3    H218436   1.662   4.582   1.019  0.0139  1.6466 -2.5324
 6144TIP3   OH218437   3.248   1.001   2.558 -0.0914  0.1157  0.4635
 6144TIP3    H118438   3.339   1.027   2.571 -0.1419  0.3826  0.2813
 6144TIP3    H218439   3.210   1.000   2.646  0.6067 -1.9547  0.7854
 6145TIP3   OH218440   4.713   0.643   4.045 -0.4915  0.0985  0.2014
 6145TIP3    H118441   4.659   0.651   4.124 -0.7954  0.6676 -0.0542
 6145TIP3    H218442   4.721   0.733   4.014  0.4431 -0.0113  0.1225
 6146TIP3   OH218443   2.078   3.106   1.109  0.2784  0.0412 -0.2321
 6146TIP3    H118444   2.001   3.074   1.064 -0.4978  1.6082 -0.0803
 6146TIP3    H218445   2.057   3.096   1.202 -0.2245  1.4707 -0.1690
 6147TIP3   OH218446   4.186   4.252   0.785 -0.2235 -0.0147  0.5426
 6147TIP3    H118447   4.141   4.233   0.703  0.5750 -1.8557  0.4911
 6147TIP3    H218448   4.180   4.172   0.835  2.0236  0.0173  0.9739
 6148TIP3   OH218449   3.794   3.118   1.954 -0.0468 -0.1676 -0.0799
 6148TIP3    H118450   3.875   3.165   1.975  0.1953 -0.7881  0.4052
 6148TIP3    H218451   3.755   3.168   1.882 -0.3683  1.4306  1.1397
 6149TIP3   OH218452   5.986   4.938   2.199 -0.6072  0.3325  0.1966
 6149TIP3    H118453   5.948   5.014   2.243  0.1779  0.3748  0.8228
 6149TIP3    H218454   5.912   4.880   2.185 -0.9733  0.5418  1.1259
 6150TIP3   OH218455   3.012   1.702   1.945  0.2434 -0.5780  0.3092
 6150TIP3    H118456   3.100   1.672   1.921 -0.3091 -1.6407 -0.4510
 6150TIP3    H218457   2.993   1.658   2.028 -0.6405 -2.5686 -0.8968
 6151TIP3   OH218458   6.023   0.077   2.753 -0.7740  0.1435  0.2789
 6151TIP3    H118459   5.972   0.156   2.766  0.4783  1.4863 -2.2389
 6151TIP3    H218460   6.112   0.101   2.780 -0.9524 -1.5497  2.7379
 6152TIP3   OH218461   0.199   1.005   4.057  0.7729  0.8273  0.1189
 6152TIP3    H118462   0.273   1.016   4.116  1.4472 -2.4055  0.0587
 6152TIP3    H218463   0.231   1.034   3.972  1.3666  1.1312  0.4434
 6153TIP3   OH218464  -0.007   5.571   0.909  0.2608 -0.1076  0.6098
 6153TIP3    H118465  -0.026   5.502   0.972 -0.4358 -0.9724 -0.5043
 6153TIP3    H218466   0.034   5.640   0.961  0.2150 -1.0074  1.8996
 6154TIP3   OH218467   2.611   2.147   4.908  0.8268  0.8908 -0.4225
 6154TIP3    H118468   2.531   2.104   4.935  0.6292  2.2421  1.3292
 6154TIP3    H218469   2.584   2.207   4.838  0.0624  2.0609  0.8183
 6155TIP3   OH218470   2.798   4.370   1.333 -0.0764 -0.3966 -0.8109
 6155TIP3    H118471   2.882   4.339   1.299  0.3425  0.8210 -0.9199
 6155TIP3    H218472   2.787   4.325   1.416  0.8627 -0.2877 -0.6209
 6156TIP3   OH218473   4.977   2.652   1.139  0.0410 -0.8190 -0.0897
 6156TIP3    H118474   5.046   2.682   1.079  1.6483 -0.3661  1.8619
 6156TIP3    H218475   4.995   2.559   1.151  0.9523 -0.5168  1.1258
 6157TIP3   OH218476   5.448   0.015   3.190  0.2711 -0.1532 -0.8172
 6157TIP3    H118477   5.391  -0.026   3.124  0.9028 -0.9049 -0.9075
 6157TIP3    H218478   5.519   0.054   3.139  0.0329  0.4613 -0.6776
 6158TIP3   OH218479   2.902   1.205   1.021 -0.1027 -0.0827 -0.2273
 6158TIP3    H118480   2.952   1.206   1.103 -1.1897  0.2331  0.4490
 6158TIP3    H218481   2.969   1.210   0.953  0.8241 -0.3776  0.6339
 6159TIP3   OH218482   1.562   0.082   0.368  0.4468  0.3389  0.4844
 6159TIP3    H118483   1.647   0.125   0.367  0.0032  1.2550  0.6266
 6159TIP3    H218484   1.501   0.149   0.337 -0.8425  1.1246  4.2196
 6160TIP3   OH218485   4.121   3.282   2.235  0.1583  0.2681 -0.1486
 6160TIP3    H118486   4.215   3.264   2.238  0.0869 -0.4476 -1.3944
 6160TIP3    H218487   4.089   3.261   2.323  1.2233  0.9490  0.4157
 6161TIP3   OH218488   2.502   2.815   4.839 -0.0392  0.4560 -0.2403
 6161TIP3    H118489   2.530   2.806   4.930  0.7691  0.5755 -0.4696
 6161TIP3    H218490   2.469   2.904   4.832  0.6947  0.7267 -0.2746
 6162TIP3   OH218491   3.014   2.993   4.126 -0.2842 -0.6848  0.0665
 6162TIP3    H118492   3.011   2.908   4.171 -0.5348 -0.4544  0.4927
 6162TIP3    H218493   2.953   2.982   4.052 -1.2494 -0.5038  0.8058
 6163TIP3   OH218494   1.378   5.597   0.767  0.4178  0.6382 -0.3825
 6163TIP3    H118495   1.309   5.658   0.739  0.7527  0.5357 -1.4825
 6163TIP3    H218496   1.338   5.511   0.759 -0.0479  0.6853  1.1528
 6164TIP3   OH218497   4.770   4.900   0.850 -0.2613  0.1487  0.7108
 6164TIP3    H118498   4.735   4.811   0.853  0.5789 -0.2189  0.1427
 6164TIP3    H218499   4.775   4.927   0.942  1.0603 -1.0600  1.0339
 6165TIP3   OH218500   4.433   1.791   0.043 -0.5866 -0.4756  0.6858
 6165TIP3    H118501   4.496   1.724   0.071 -1.6071 -2.5738 -1.6002
 6165TIP3    H218502   4.356   1.776   0.097 -0.4597 -0.4814  0.8657
 6166TIP3   OH218503   2.729   3.163   2.926  0.4000 -0.0433 -0.1592
 6166TIP3    H118504   2.774   3.135   2.846 -0.3442 -2.6204  0.2216
 6166TIP3    H218505   2.636   3.159   2.904  0.1932  2.8214 -0.1890
 6167TIP3   OH218506   4.345   2.332   4.622 -0.0060  0.0992  0.3269
 6167TIP3    H118507   4.277   2.376   4.571 -0.4852  0.0460  0.9105
 6167TIP3    H218508   4.327   2.358   4.712  0.3649 -0.4285  0.5569
 6168TIP3   OH218509   4.211   3.523   0.803 -0.7943 -0.4803 -0.2531
 6168TIP3    H118510   4.179   3.473   0.728 -0.6876 -0.2026 -0.4865
 6168TIP3    H218511   4.158   3.494   0.877 -1.6102  0.0034 -0.6383
 6169TIP3   OH218512   3.628   2.884   0.557  0.3813 -0.5211 -0.2364
 6169TIP3    H118513   3.701   2.836   0.518  0.8619 -0.7460  0.9046
 6169TIP3    H218514   3.553   2.825   0.548  0.5600 -0.7182 -0.4746
 6170TIP3   OH218515   2.055   4.534   2.554 -0.0249 -0.4980  0.3196
 6170TIP3    H118516   2.059   4.487   2.470 -2.2304  0.1669 -0.2331
 6170TIP3    H218517   2.142   4.570   2.566  0.3679 -0.6601 -1.6834
 6171TIP3   OH218518   3.468   2.612   1.702  0.4530 -0.1090  0.1729
 6171TIP3    H118519   3.412   2.563   1.642  1.5221 -1.3996  0.1887
 6171TIP3    H218520   3.421   2.694   1.717 -0.6497 -0.4828 -1.0671
 6172TIP3   OH218521   1.870   4.723   1.443 -0.4851  0.1337 -0.1296
 6172TIP3    H118522   1.861   4.738   1.348 -1.7397 -1.9564 -0.3994
 6172TIP3    H218523   1.781   4.704   1.473 -0.1503  1.0812  1.5623
 6173TIP3   OH218524   5.900   3.071   1.683 -0.0192  0.2133  0.0543
 6173TIP3    H118525   5.837   3.142   1.670  0.7826  0.8738 -0.2893
 6173TIP3    H218526   5.946   3.063   1.600  0.2283 -0.3976  0.2395
 6174TIP3   OH218527   1.871   4.003   4.497 -0.5562 -0.0831 -0.4069
 6174TIP3    H118528   1.824   4.087   4.503 -1.0719 -0.2988 -1.2888
 6174TIP3    H218529   1.962   4.025   4.516 -0.9261  0.4129  0.9487
 6175TIP3   OH218530   5.865   0.057   4.318 -0.1684 -0.0500 -0.5987
 6175TIP3    H118531   5.770   0.058   4.310 -0.0734  0.5086 -1.8271
 6175TIP3    H218532   5.881   0.090   4.407 -1.0706  1.8948 -1.0900
 6176TIP3   OH218533   4.294   1.825   4.663 -0.4894 -0.9047  0.3473
 6176TIP3    H118534   4.242   1.756   4.623 -2.8141 -0.0443  1.6892
 6176TIP3    H218535   4.236   1.901   4.665  1.2384  0.4934  0.8782
 6177TIP3   OH218536   2.146   0.868   2.401 -0.0919 -0.2531  0.7441
 6177TIP3    H118537   2.108   0.783   2.425  1.4917 -0.8408  1.2823
 6177TIP3    H218538   2.075   0.913   2.354 -1.9183 -0.7492  2.8348
 6178TIP3   OH218539   3.463   3.800   4.816  0.2278 -0.4587  0.5777
 6178TIP3    H118540   3.475   3.718   4.767 -0.9582 -0.4464  0.2447
 6178TIP3    H218541   3.462   3.868   4.749  2.3549  0.0049  0.9304
 6179TIP3   OH218542   0.664   4.772   2.988  0.6860 -0.0544 -0.1821
 6179TIP3    H118543   0.638   4.690   2.946  0.4690 -1.6892  2.8813
 6179TIP3    H218544   0.592   4.791   3.048  1.2132  1.8605 -0.1088
 6180TIP3   OH218545   0.940   1.851   3.181  0.6563 -0.1068 -0.5454
 6180TIP3    H118546   1.023   1.813   3.151  1.2980  0.4937  0.4125
 6180TIP3    H218547   0.882   1.775   3.190  1.6093 -0.7578  0.3771
 6181TIP3   OH218548   1.912   2.234   2.541 -0.1633 -0.3442  0.0346
 6181TIP3    H118549   1.899   2.292   2.466  0.6153 -0.8506 -0.5078
 6181TIP3    H218550   1.837   2.175   2.539  0.0946 -0.6488 -0.6192
 6182TIP3   OH218551   2.075   3.454   4.130 -0.4564  0.7674 -0.5577
 6182TIP3    H118552   2.046   3.442   4.221  0.3579 -0.4392 -0.4300
 6182TIP3    H218553   2.035   3.536   4.103 -0.3094  1.4248  1.0658
 6183TIP3   OH218554   2.226   5.731   2.579 -0.6723  0.0782  0.1845
 6183TIP3    H118555   2.311   5.735   2.621 -0.8612  0.9200  0.4970
 6183TIP3    H218556   2.239   5.674   2.503 -0.0704 -0.5610  0.7627
 6184TIP3   OH218557   1.513   1.969   4.789 -0.0030 -0.0229 -0.1045
 6184TIP3    H118558   1.440   2.029   4.802 -0.8805 -0.5632 -2.1191
 6184TIP3    H218559   1.588   2.014   4.827 -1.3058  0.6661  1.7993
 6185TIP3   OH218560   0.565   3.471   1.993  0.5989 -0.2100  0.4375
 6185TIP3    H118561   0.550   3.431   2.078 -0.9477 -1.9093 -0.5581
 6185TIP3    H218562   0.635   3.419   1.954  1.0460  0.3321  0.4984
 6186TIP3   OH218563   5.821   2.895   0.739 -0.3191 -0.4340  0.0871
 6186TIP3    H118564   5.766   2.822   0.713  1.2977 -1.9104  0.6039
 6186TIP3    H218565   5.808   2.960   0.670 -0.9618 -1.6561 -0.9922
 6187TIP3   OH218566   0.749   1.291   5.042  0.2305 -0.8256 -1.0787
 6187TIP3    H118567   0.712   1.373   5.008 -3.3207 -1.5081  0.6235
 6187TIP3    H218568   0.758   1.306   5.136 -1.3893 -2.6004 -0.5855
 6188TIP3   OH218569   0.045   0.800   1.730 -0.3507  0.2745 -0.0590
 6188TIP3    H118570   0.006   0.821   1.814 -0.8569 -0.8639  0.0056
 6188TIP3    H218571   0.132   0.765   1.751 -0.4939 -0.0496 -0.0092
 6189TIP3   OH218572   0.413   1.365   3.757 -0.3569 -0.6360  0.0481
 6189TIP3    H118573   0.470   1.329   3.825 -1.0234  0.1555  1.0808
 6189TIP3    H218574   0.337   1.306   3.756  0.1180 -1.2469 -0.7733
 6190TIP3   OH218575   4.897   2.436   1.338 -0.0267 -0.6591 -0.0232
 6190TIP3    H118576   4.812   2.395   1.323  0.3686 -1.2413 -0.7390
 6190TIP3    H218577   4.918   2.415   1.429 -0.0497 -1.6755 -0.2343
 6191TIP3   OH218578   4.579   4.731   3.216  0.1681  0.5482  0.1941
 6191TIP3    H118579   4.540   4.693   3.138 -1.0576  1.1997  0.4579
 6191TIP3    H218580   4.661   4.770   3.186  0.7443 -1.0037 -0.3410
 6192TIP3   OH218581   2.059   4.511   4.798  0.0087  0.5071  0.0844
 6192TIP3    H118582   2.012   4.533   4.878  0.2464  0.2319  0.3027
 6192TIP3    H218583   1.990   4.502   4.731 -0.2066  0.5446  0.3010
 6193TIP3   OH218584   5.917   5.269   4.528 -0.1284 -0.1399 -0.0840
 6193TIP3    H118585   5.902   5.319   4.608  0.5460  0.6860 -0.4554
 6193TIP3    H218586   5.930   5.335   4.461  0.6978 -0.8181 -0.6120
 6194TIP3   OH218587   0.744   1.660   3.192  0.4724 -0.2663 -0.0986
 6194TIP3    H118588   0.778   1.575   3.220 -1.4274 -0.2356  2.6609
 6194TIP3    H218589   0.669   1.639   3.136 -0.7921 -0.5020  1.6163
 6195TIP3   OH218590   4.994   3.206   1.322 -0.0430 -0.5912 -0.3186
 6195TIP3    H118591   5.055   3.135   1.305  2.4883  0.7516  2.3215
 6195TIP3    H218592   5.048   3.285   1.321 -2.2239  0.9936 -0.2753
 6196TIP3   OH218593   3.827   2.731   3.477 -0.1096  0.8430  0.2444
 6196TIP3    H118594   3.822   2.683   3.560  2.7066  0.9108  0.5399
 6196TIP3    H218595   3.823   2.662   3.410  0.3033  0.5107  0.5513
 6197TIP3   OH218596   2.754   0.035   0.165  0.4323 -0.4137 -0.1313
 6197TIP3    H118597   2.736   0.046   0.258  3.6366 -0.7213  0.6558
 6197TIP3    H218598   2.759   0.125   0.131  0.4669 -0.2545  0.2877
 6198TIP3   OH218599   3.079   3.247   4.173 -0.4069  0.2228 -0.0156
 6198TIP3    H118600   3.164   3.279   4.144  0.7558 -1.2496  1.6154
 6198TIP3    H218601   3.078   3.155   4.146 -1.8135  0.3973 -0.6496
 6199TIP3   OH218602   0.582   0.285   2.274  0.2136 -0.3142 -0.1493
 6199TIP3    H118603   0.663   0.283   2.224  0.5598 -0.8627  0.4239
 6199TIP3    H218604   0.583   0.204   2.325 -0.4345 -0.0680  0.2672
 6200TIP3   OH218605   2.520   0.801   3.600 -0.1014 -0.0452 -0.4893
 6200TIP3    H118606   2.592   0.862   3.613 -1.3338  1.6536 -1.2192
 6200TIP3    H218607   2.486   0.784   3.688 -0.1060  0.7866 -0.3259
 6201TIP3   OH218608   6.006   2.645   3.984 -0.1599  0.4765  0.6517
 6201TIP3    H118609   6.067   2.613   4.051  2.6994  0.3079 -1.8221
 6201TIP3    H218610   5.968   2.565   3.947  1.0554  0.3108 -0.3054
 6202TIP3   OH218611   6.334   4.461   3.233  0.0315 -0.3123 -0.4079
 6202TIP3    H118612   6.346   4.555   3.220 -0.3592 -0.5498 -3.1500
 6202TIP3    H218613   6.365   4.421   3.152  0.1571 -2.5789  0.6681
 6203TIP3   OH218614   2.038   1.889   4.482 -0.2804  0.1933 -0.6381
 6203TIP3    H118615   2.098   1.943   4.430  1.7301 -0.5108  0.8197
 6203TIP3    H218616   2.078   1.803   4.484 -0.8560 -0.0819  1.1351
 6204TIP3   OH218617   5.100   4.514   1.759 -0.1942  0.0697 -0.0768
 6204TIP3    H118618   5.148   4.597   1.762  0.6790 -0.4425  1.1588
 6204TIP3    H218619   5.167   4.448   1.778 -0.8386 -0.9475 -1.2338
 6205TIP3   OH218620   2.254   4.090   1.620 -0.3051 -0.3555  0.0522
 6205TIP3    H118621   2.198   4.132   1.555 -0.9875 -0.3541  0.6338
 6205TIP3    H218622   2.329   4.057   1.570  0.0567  1.1960 -0.4772
 6206TIP3   OH218623   6.100   0.814   0.828 -0.3613  0.0331  0.6843
 6206TIP3    H118624   6.068   0.823   0.918 -1.1824 -1.5841  0.5914
 6206TIP3    H218625   6.180   0.762   0.836 -0.2647  0.1559  0.5120
 6207TIP3   OH218626   2.802   0.487   0.267 -0.0244  0.1453 -0.2906
 6207TIP3    H118627   2.730   0.549   0.258 -0.3467 -0.3396 -1.1770
 6207TIP3    H218628   2.861   0.528   0.331 -1.9559 -0.3044  1.9219
 6208TIP3   OH218629   0.634   4.104   1.876 -0.3620  0.6002 -0.3366
 6208TIP3    H118630   0.719   4.132   1.845  0.0275 -0.5541 -0.3698
 6208TIP3    H218631   0.636   4.120   1.971  0.6813 -1.2764 -0.0042
 6209TIP3   OH218632   3.651   2.959   3.419 -0.0745  0.2001 -0.2606
 6209TIP3    H118633   3.707   2.881   3.414  0.8157  0.7777  0.4132
 6209TIP3    H218634   3.659   3.000   3.333  2.1942  1.3596  0.4172
 6210TIP3   OH218635   3.427   5.361   3.772  0.0012  0.3413  0.4629
 6210TIP3    H118636   3.415   5.286   3.714  0.2974  0.3888  0.3393
 6210TIP3    H218637   3.520   5.379   3.769  0.2870 -0.6112  2.1578
 6211TIP3   OH218638   5.987   2.338   2.197  1.1488 -0.7900  0.5201
 6211TIP3    H118639   5.990   2.432   2.218  0.9674 -0.4200 -0.9521
 6211TIP3    H218640   6.006   2.335   2.103  0.7739 -2.2041  0.4745
 6212TIP3   OH218641   5.033   5.260   4.215  0.0247  0.7224  0.0116
 6212TIP3    H118642   4.988   5.243   4.298  0.8901  1.3951  0.6471
 6212TIP3    H218643   5.117   5.214   4.223 -0.0859  0.3871 -0.6983
 6213TIP3   OH218644   1.262   3.777   0.564  0.3328 -0.6428  0.1732
 6213TIP3    H118645   1.216   3.748   0.485 -0.1888 -1.0003  0.6067
 6213TIP3    H218646   1.329   3.709   0.578  1.0151 -0.1235 -0.4557
 6214TIP3   OH218647   0.964   3.687   4.969 -0.2288 -0.7741  0.7015
 6214TIP3    H118648   0.904   3.692   5.044 -1.3276  0.4793 -0.2037
 6214TIP3    H218649   0.912   3.720   4.895  1.0611 -1.2743 -0.4696
 6215TIP3   OH218650   2.493   4.002   1.525  0.6862  0.1501 -0.2572
 6215TIP3    H118651   2.550   4.016   1.601 -0.3221 -0.6023  0.6760
 6215TIP3    H218652   2.525   3.921   1.485  1.2743  0.5950 -0.6954
 6216TIP3   OH218653   3.168   2.512   4.173  0.2546  0.5111  0.0723
 6216TIP3    H118654   3.160   2.419   4.154  0.6032 -0.0625  2.4199
 6216TIP3    H218655   3.210   2.549   4.095 -2.4653 -0.7048 -2.1512
 6217TIP3   OH218656   5.978   2.978   4.083 -0.4132  0.4001  0.5420
 6217TIP3    H118657   6.050   3.012   4.136 -0.3755  2.7049 -0.8764
 6217TIP3    H218658   6.003   2.887   4.065  0.2721 -0.0005  3.1642
 6218TIP3   OH218659   2.338   3.109   0.712  0.2356 -0.0243  0.3276
 6218TIP3    H118660   2.433   3.096   0.704  0.0397 -1.5254  0.0146
 6218TIP3    H218661   2.316   3.065   0.795 -0.1637  0.4927  0.4976
 6219TIP3   OH218662   2.966   0.627   1.959  0.0073  0.1499 -0.2224
 6219TIP3    H118663   2.890   0.623   1.901 -1.8022  0.4876  2.0064
 6219TIP3    H218664   2.957   0.550   2.015  0.5517  0.9161  0.9476
 6220TIP3   OH218665   4.720   0.358   3.270  0.1601 -0.0012  0.1723
 6220TIP3    H118666   4.641   0.307   3.285 -0.4442  1.3151  1.7651
 6220TIP3    H218667   4.754   0.376   3.357  1.2523  0.9242 -0.4194
 6221TIP3   OH218668   5.342   5.297   2.950  0.0832  0.2237 -0.1310
 6221TIP3    H118669   5.423   5.247   2.937  0.5373  0.3130  2.0144
 6221TIP3    H218670   5.354   5.376   2.897  0.9277 -0.2734 -0.7026
 6222TIP3   OH218671   5.435   2.762   3.018 -0.5245  0.2142 -0.2383
 6222TIP3    H118672   5.476   2.782   3.102  0.0605  2.1591 -0.9401
 6222TIP3    H218673   5.347   2.799   3.024 -0.7615 -0.3423 -0.2087
 6223TIP3   OH218674   4.801   1.210   3.841 -0.7053 -0.2878  0.0063
 6223TIP3    H118675   4.861   1.192   3.768  0.8521  0.7838  0.9592
 6223TIP3    H218676   4.748   1.284   3.811 -0.3282 -0.0888 -0.1770
 6224TIP3   OH218677   6.066   1.108   2.761 -0.5625  0.1339  0.1049
 6224TIP3    H118678   6.108   1.023   2.745  0.4171  0.6413 -0.0727
 6224TIP3    H218679   6.005   1.118   2.688  1.0165  0.6247 -1.2152
 6225TIP3   OH218680   2.538   4.444   2.219  0.4641 -0.2047 -0.1642
 6225TIP3    H118681   2.544   4.387   2.142 -0.5646 -1.3012  0.5242
 6225TIP3    H218682   2.444   4.447   2.239  0.7709 -0.5208  1.4511
 6226TIP3   OH218683   0.660   3.474   2.626  0.0628 -0.1119  0.4127
 6226TIP3    H118684   0.624   3.393   2.590 -0.0041  0.0957  0.0064
 6226TIP3    H218685   0.681   3.527   2.549 -1.1878  0.8232  0.6660
 6227TIP3   OH218686   4.249   5.829   2.824 -0.0547 -0.2503  0.2119
 6227TIP3    H118687   4.200   5.752   2.794 -0.5569  0.4961 -0.9446
 6227TIP3    H218688   4.265   5.812   2.917 -1.2359 -1.1938  0.2746
 6228TIP3   OH218689   2.711   2.730   0.376 -0.6672 -0.5958 -0.0676
 6228TIP3    H118690   2.631   2.710   0.327 -0.6785 -0.5461 -0.0693
 6228TIP3    H218691   2.723   2.655   0.434 -0.6086 -0.6937 -0.2064
 6229TIP3   OH218692   5.940   0.228   0.890  0.8890 -0.1962  0.4600
 6229TIP3    H118693   5.988   0.242   0.808  0.7484 -0.7016  0.2874
 6229TIP3    H218694   5.954   0.136   0.910  1.0134 -0.0481  1.0700
 6230TIP3   OH218695   3.037   2.515   2.674 -0.5786  0.0389 -0.0003
 6230TIP3    H118696   3.133   2.512   2.677 -0.5680  0.4554  0.0961
 6230TIP3    H218697   3.015   2.607   2.689 -0.8526  0.7176 -3.5995
 6231TIP3   OH218698   1.875   1.634   2.261 -0.3263  0.0386  0.0959
 6231TIP3    H118699   1.911   1.610   2.176  1.8552  0.3419  0.8574
 6231TIP3    H218700   1.924   1.713   2.286  0.4491 -1.0922  2.4087
 6232TIP3   OH218701   4.187   4.698   0.683 -0.5361 -0.3066  1.0010
 6232TIP3    H118702   4.220   4.772   0.734 -0.4223  0.0345  0.4469
 6232TIP3    H218703   4.249   4.627   0.701 -0.6184 -0.2590  1.4953
 6233TIP3   OH218704   4.749   5.758   4.369 -0.3335  0.4882  0.5187
 6233TIP3    H118705   4.841   5.786   4.377 -0.6216  1.8574 -0.6083
 6233TIP3    H218706   4.701   5.817   4.426 -0.5810  0.0271  0.7990
 6234TIP3   OH218707   5.098   1.345   0.204  0.1376 -0.3499  0.2482
 6234TIP3    H118708   5.138   1.259   0.217  0.6923  0.0806  1.6292
 6234TIP3    H218709   5.005   1.331   0.224 -0.1994 -1.0547 -1.6108
 6235TIP3   OH218710   1.011   0.647   0.469 -0.3348 -0.3665 -0.4149
 6235TIP3    H118711   1.036   0.629   0.559 -0.2699  0.7659 -0.1837
 6235TIP3    H218712   0.918   0.626   0.464 -1.3565  3.1349  1.0208
 6236TIP3   OH218713   4.380   5.151   1.958  0.5784 -0.3353  0.5187
 6236TIP3    H118714   4.323   5.227   1.962  0.3474 -0.4338 -0.5622
 6236TIP3    H218715   4.463   5.181   1.996 -0.8001 -0.8651  4.3566
 6237TIP3   OH218716   2.096   1.598   3.937 -0.2408 -0.2480  0.6841
 6237TIP3    H118717   2.171   1.634   3.985  1.6777  1.0007 -2.9001
 6237TIP3    H218718   2.133   1.523   3.889 -0.3840  1.9914 -3.2763
 6238TIP3   OH218719   3.950   5.101   1.739 -1.0015 -0.0634  0.3361
 6238TIP3    H118720   3.983   5.095   1.829 -0.2294  0.5071  0.1013
 6238TIP3    H218721   3.866   5.055   1.741 -0.5182 -0.9449  1.1131
 6239TIP3   OH218722   4.982   3.565   3.403  0.0928 -0.1276  0.3672
 6239TIP3    H118723   5.053   3.621   3.370 -0.5494  0.7757  0.4865
 6239TIP3    H218724   4.973   3.590   3.495  2.1372 -2.9046  1.4525
 6240TIP3   OH218725   3.843   5.721   3.087  0.0802 -0.5166  0.3639
 6240TIP3    H118726   3.809   5.677   3.009 -0.5849  0.3713  0.1349
 6240TIP3    H218727   3.836   5.656   3.156 -1.4726 -0.6093  0.1649
 6241TIP3   OH218728   6.367   3.814   3.913 -0.3857 -0.2688 -0.0759
 6241TIP3    H118729   6.361   3.907   3.891  0.5321 -0.3650 -0.8097
 6241TIP3    H218730   6.355   3.811   4.008  2.8199  0.9766  0.4773
 6242TIP3   OH218731   0.385   4.844   0.346  0.5160 -0.0875 -0.6159
 6242TIP3    H118732   0.319   4.883   0.288 -0.8304 -0.9802  0.2478
 6242TIP3    H218733   0.388   4.903   0.422  1.0625  0.1950 -0.8526
 6243TIP3   OH218734   4.043   3.941   2.181 -0.2501  0.1492  0.6710
 6243TIP3    H118735   4.018   3.902   2.265 -1.8205 -0.2820  0.0457
 6243TIP3    H218736   4.075   4.029   2.204  1.5372 -0.7695  1.9164
 6244TIP3   OH218737   3.755   3.851   2.857  0.6881  0.7353  0.2450
 6244TIP3    H118738   3.839   3.839   2.814  0.1869  2.8846 -1.5183
 6244TIP3    H218739   3.705   3.772   2.835  1.3966  0.5745 -0.8285
 6245TIP3   OH218740   5.796   4.314   2.760 -0.5027  0.4935  0.4007
 6245TIP3    H118741   5.835   4.386   2.809 -0.7819  0.3369  0.8562
 6245TIP3    H218742   5.706   4.342   2.744 -0.0180  1.1884 -1.3077
 6246TIP3   OH218743   0.019   4.358   5.142 -0.9269  0.6206 -0.3304
 6246TIP3    H118744   0.022   4.451   5.117 -1.2395  1.5774  2.7902
 6246TIP3    H218745  -0.024   4.357   5.227  0.2856 -2.2610  0.3660
 6247TIP3   OH218746   0.244   1.515   2.966  0.2470 -0.6399  0.0259
 6247TIP3    H118747   0.240   1.577   3.038 -1.6134  0.6030 -1.0790
 6247TIP3    H218748   0.248   1.569   2.887  0.7168 -1.9523 -0.8890
 6248TIP3   OH218749   2.990   1.535   1.662 -0.1711 -0.7819 -0.9589
 6248TIP3    H118750   2.963   1.605   1.722  0.5522 -0.3684 -1.1047
 6248TIP3    H218751   2.927   1.540   1.590 -0.9951 -1.2237 -0.3016
 6249TIP3   OH218752   6.156   4.337   1.142  0.0839  0.5917  0.2598
 6249TIP3    H118753   6.224   4.396   1.172 -0.5082  0.9236  0.9858
 6249TIP3    H218754   6.101   4.390   1.084  0.4499  0.3124 -0.3628
 6250TIP3   OH218755   5.753   5.187   2.773 -0.1073 -0.2362 -0.2110
 6250TIP3    H118756   5.820   5.196   2.706 -1.0390  2.5206 -0.9182
 6250TIP3    H218757   5.742   5.275   2.808 -0.2873 -1.4021  3.0117
 6251TIP3   OH218758   1.134   5.955   2.756 -0.0323 -0.0323 -0.3219
 6251TIP3    H118759   1.190   6.023   2.792  1.0730 -0.1095 -1.8022
 6251TIP3    H218760   1.119   5.981   2.665 -1.9707 -0.3126 -0.1377
 6252TIP3   OH218761  -0.028   1.458   3.022  0.5071 -0.1029  0.4135
 6252TIP3    H118762   0.065   1.459   3.001  0.7924 -0.2221  1.5895
 6252TIP3    H218763  -0.034   1.510   3.102 -0.5868  0.7609 -0.2063
 6253TIP3   OH218764   1.202   0.137   2.071  0.1466 -0.3401 -0.0979
 6253TIP3    H118765   1.130   0.200   2.070  1.1106  0.7969 -0.1620
 6253TIP3    H218766   1.237   0.142   2.160  1.0354  0.1792 -0.4645
 6254TIP3   OH218767   2.508   0.502   2.620 -0.4243 -0.3250  0.5278
 6254TIP3    H118768   2.426   0.545   2.644 -0.1158  1.2808 -1.0673
 6254TIP3    H218769   2.496   0.411   2.647 -2.5293 -0.0286  0.7788
 6255TIP3   OH218770   4.398   5.084   4.185  0.3745  0.2952  0.0999
 6255TIP3    H118771   4.392   5.174   4.216  0.5928  0.6110 -0.7669
 6255TIP3    H218772   4.441   5.037   4.257  1.0704  1.0635  0.1903
 6256TIP3   OH218773   4.198   0.986   0.045  0.1903  0.4078 -0.5255
 6256TIP3    H118774   4.177   0.902   0.004 -1.9017  0.3828  0.4445
 6256TIP3    H218775   4.259   0.964   0.115 -0.9927 -0.5022  0.2720
 6257TIP3   OH218776   4.370   4.746   2.656  0.1249 -0.3129  0.2120
 6257TIP3    H118777   4.407   4.728   2.570  1.9842  1.1595  0.6263
 6257TIP3    H218778   4.276   4.758   2.641 -0.0698 -2.8518 -1.1160
 6258TIP3   OH218779   4.999   1.645   1.219 -0.5944 -0.4272 -0.6342
 6258TIP3    H118780   4.975   1.635   1.311 -1.4490  0.6890 -0.7152
 6258TIP3    H218781   4.934   1.594   1.171 -0.5202 -0.5085 -0.6482
 6259TIP3   OH218782   6.291   4.149   1.531 -0.1256 -0.0482  0.1961
 6259TIP3    H118783   6.221   4.115   1.475 -0.7297  0.2250  0.7807
 6259TIP3    H218784   6.333   4.071   1.566 -1.6199 -0.2389  1.6754
 6260TIP3   OH218785   2.891   4.925   4.952 -0.2844  0.1601 -0.3805
 6260TIP3    H118786   2.949   4.859   4.991 -1.2946  0.4833  1.8125
 6260TIP3    H218787   2.813   4.924   5.008 -0.3262  3.1925 -0.2452
 6261TIP3   OH218788   0.180   1.741   0.415  0.2925  0.1030  0.7200
 6261TIP3    H118789   0.225   1.819   0.446  1.8353 -0.6776  0.5323
 6261TIP3    H218790   0.204   1.672   0.477  0.1737 -0.5541  0.0579
 6262TIP3   OH218791   1.965   0.632   1.016 -0.1347 -0.3547  0.0668
 6262TIP3    H118792   1.994   0.542   0.997 -0.2280 -0.1962 -0.8814
 6262TIP3    H218793   1.903   0.622   1.087  0.1647 -1.0013  0.2513
 6263TIP3   OH218794   2.064   0.546   2.446 -0.1212 -0.1364 -0.1359
 6263TIP3    H118795   2.145   0.538   2.395  0.1588  2.0280 -0.1163
 6263TIP3    H218796   2.086   0.507   2.531  0.4241 -0.8533 -0.5859
 6264TIP3   OH218797   3.167   5.045   3.747 -0.0791 -0.0305  0.2632
 6264TIP3    H118798   3.119   4.993   3.683  0.6910  0.1148 -0.4550
 6264TIP3    H218799   3.185   4.985   3.819  0.3953 -0.6422 -0.3561
 6265TIP3   OH218800   4.853   5.962   4.056  0.9612  0.3597 -0.2582
 6265TIP3    H118801   4.793   5.979   4.128 -0.2192  0.6476 -1.2660
 6265TIP3    H218802   4.863   6.047   4.013  0.5573 -0.0670 -1.2258
 6266TIP3   OH218803   2.841   5.068   3.688 -0.5619  0.0484 -0.0330
 6266TIP3    H118804   2.805   5.010   3.622 -1.7719  1.5786 -0.7814
 6266TIP3    H218805   2.888   5.010   3.748  0.5353 -1.3912 -2.1664
 6267TIP3   OH218806   0.804   2.079   4.146  0.2175 -0.4104  0.4973
 6267TIP3    H118807   0.769   2.028   4.073  0.4954 -0.1463  0.1792
 6267TIP3    H218808   0.893   2.046   4.158  0.1080 -0.5849  0.8413
 6268TIP3   OH218809   3.412   3.943   2.735 -0.5566  0.1704 -0.7295
 6268TIP3    H118810   3.389   3.856   2.767  1.8387 -0.1521  0.3663
 6268TIP3    H218811   3.488   3.929   2.679  0.6836  1.6294  0.4888
 6269TIP3   OH218812   2.741   4.913   0.349  0.2432  0.3830 -0.1110
 6269TIP3    H118813   2.764   4.981   0.285 -0.6172  0.3451 -0.4775
 6269TIP3    H218814   2.810   4.847   0.340  1.3377  1.4006  0.5630
 6270TIP3   OH218815   1.170   0.196   1.761  0.9082 -0.3744  0.5553
 6270TIP3    H118816   1.204   0.274   1.803  0.6479 -0.5185  1.0334
 6270TIP3    H218817   1.138   0.141   1.832  0.8867 -0.8217  0.2094
 6271TIP3   OH218818   2.819   5.449   0.577  0.2771  0.4974  0.3768
 6271TIP3    H118819   2.896   5.505   0.565  0.3193  0.5851  1.0031
 6271TIP3    H218820   2.800   5.415   0.490  0.4516  1.2293  0.0414
 6272TIP3   OH218821   0.331   2.501   3.720  0.2417  0.1016 -0.3422
 6272TIP3    H118822   0.268   2.548   3.664  1.7580  1.1540 -1.2268
 6272TIP3    H218823   0.413   2.502   3.670  1.1555 -0.6477  1.0781
 6273TIP3   OH218824   0.584   0.868   1.448  0.5206  0.0431  0.2429
 6273TIP3    H118825   0.559   0.780   1.479 -1.3142  0.7184  0.7971
 6273TIP3    H218826   0.511   0.896   1.394  0.8374  1.4448  0.5081
 6274TIP3   OH218827   1.200   3.558   5.023  0.5337  0.6435  0.2871
 6274TIP3    H118828   1.160   3.632   4.976  2.3365  1.2683 -0.3275
 6274TIP3    H218829   1.128   3.524   5.077 -0.9052  1.5305 -0.9552
 6275TIP3   OH218830   3.641   0.818   2.394 -0.1515 -0.5184  0.1263
 6275TIP3    H118831   3.579   0.792   2.325 -1.7748 -1.1675  1.7568
 6275TIP3    H218832   3.668   0.736   2.434  0.2738 -0.1117  0.6746
 6276TIP3   OH218833   0.569   2.443   2.047  0.1133 -0.3122 -0.4720
 6276TIP3    H118834   0.515   2.364   2.036 -1.4454  0.6133  0.2184
 6276TIP3    H218835   0.658   2.410   2.055 -0.6446 -2.1349  1.2248
 6277TIP3   OH218836   5.663   2.115   2.488  0.0204 -0.0903 -0.5771
 6277TIP3    H118837   5.716   2.195   2.489 -0.7877  0.4719 -1.4645
 6277TIP3    H218838   5.612   2.120   2.569 -2.2622  1.8739 -2.0223
 6278TIP3   OH218839   3.165   3.738   2.106  0.4097 -0.3767 -0.1015
 6278TIP3    H118840   3.090   3.687   2.135  0.7662 -1.1435 -0.5024
 6278TIP3    H218841   3.131   3.792   2.034 -0.2816  0.9481  1.1600
 6279TIP3   OH218842   1.566   4.382   1.622 -0.0374  0.5954 -0.0756
 6279TIP3    H118843   1.495   4.333   1.580 -0.8027  1.2766  0.3957
 6279TIP3    H218844   1.639   4.320   1.625 -0.2046  0.2760 -1.6803
 6280TIP3   OH218845   5.920   1.489   1.678  0.6163 -0.2426  0.0591
 6280TIP3    H118846   5.941   1.402   1.712  0.2646 -0.4228 -0.1842
 6280TIP3    H218847   5.833   1.480   1.640  1.1568 -0.1443 -1.2384
 6281TIP3   OH218848   3.997   2.315   3.473 -0.4345  0.2390 -0.0791
 6281TIP3    H118849   4.022   2.398   3.434 -1.3579  1.4492  1.7535
 6281TIP3    H218850   3.929   2.280   3.416 -1.5194  1.7894  0.2120
 6282TIP3   OH218851   3.853   4.351   4.471  0.0214 -0.2647 -0.2881
 6282TIP3    H118852   3.943   4.333   4.498  0.2748 -0.2495 -1.0794
 6282TIP3    H218853   3.858   4.437   4.429 -0.2492 -0.5066 -0.8271
 6283TIP3   OH218854   5.044   2.973   0.447  0.3155 -0.2539 -0.0692
 6283TIP3    H118855   5.049   2.881   0.423 -0.0269 -0.6540  1.2900
 6283TIP3    H218856   4.974   2.977   0.513  1.1981  0.7482  0.8549
 6284TIP3   OH218857   3.912   4.902   4.775 -0.4454  0.1443 -0.3042
 6284TIP3    H118858   3.876   4.872   4.692  1.9420  0.2086 -1.4530
 6284TIP3    H218859   3.996   4.942   4.752  0.5006 -0.2003  2.1751
 6285TIP3   OH218860   4.724   2.480   3.395  0.3643 -0.4599 -0.5054
 6285TIP3    H118861   4.638   2.520   3.383  0.8728  1.0602  0.6417
 6285TIP3    H218862   4.782   2.553   3.415  1.8811 -1.4980 -0.9851
 6286TIP3   OH218863   1.207   5.440   2.337 -0.2414 -0.3698 -0.4199
 6286TIP3    H118864   1.240   5.357   2.304  0.4854  0.1149 -0.9582
 6286TIP3    H218865   1.241   5.446   2.426  1.3685  0.2057 -1.0240
 6287TIP3   OH218866   1.188   1.300   0.345  0.0247  0.3141 -1.0094
 6287TIP3    H118867   1.227   1.254   0.419  2.4849  0.7665 -1.9595
 6287TIP3    H218868   1.183   1.391   0.373  0.9070  0.4768 -1.3796
 6288TIP3   OH218869   3.346   5.285   4.632  0.2200 -0.0148 -0.1502
 6288TIP3    H118870   3.349   5.202   4.680 -1.7525 -0.3313 -0.4815
 6288TIP3    H218871   3.296   5.265   4.553  0.0976  1.3884 -0.4476
 6289TIP3   OH218872   1.981   4.746   3.628 -0.3714  0.5335  0.2896
 6289TIP3    H118873   1.957   4.654   3.617  0.3816  0.4438 -0.7319
 6289TIP3    H218874   1.900   4.794   3.614 -0.9046  0.0083  1.4360
 6290TIP3   OH218875   5.582   4.229   0.551 -0.7508 -0.2875 -0.2618
 6290TIP3    H118876   5.567   4.204   0.459  0.8966 -0.1139 -0.6082
 6290TIP3    H218877   5.651   4.294   0.547 -0.4718 -0.4649  1.1354
 6291TIP3   OH218878   2.334   5.231   3.210  0.5179  0.2613  0.3538
 6291TIP3    H118879   2.389   5.161   3.176 -0.5376 -1.3685  1.8467
 6291TIP3    H218880   2.245   5.196   3.205 -0.0579  1.5686  0.9700
 6292TIP3   OH218881   4.883   1.738   3.819  0.1841 -0.4492 -0.4963
 6292TIP3    H118882   4.883   1.647   3.788  0.9156 -0.3927 -0.6730
 6292TIP3    H218883   4.792   1.753   3.847  0.6218 -2.1626  2.2881
 6293TIP3   OH218884   5.679   0.018   1.830  0.0740 -0.1947  0.2269
 6293TIP3    H118885   5.587   0.037   1.851  0.0822  0.9712 -0.6953
 6293TIP3    H218886   5.728   0.088   1.874  0.3833  0.1047 -0.5820
 6294TIP3   OH218887   2.707   5.148   0.485 -0.5545 -0.4861  0.2961
 6294TIP3    H118888   2.762   5.198   0.424 -0.3154 -0.6956  0.3387
 6294TIP3    H218889   2.699   5.062   0.444 -0.9116 -0.4352  0.2554
 6295TIP3   OH218890   2.264   2.485   4.381 -0.5783 -0.8756 -0.0546
 6295TIP3    H118891   2.308   2.419   4.327  0.8848  0.2415 -0.2880
 6295TIP3    H218892   2.322   2.496   4.456 -0.6009  0.4133 -0.2184
 6296TIP3   OH218893   5.344   3.841   3.718 -0.0655 -0.2409 -0.4234
 6296TIP3    H118894   5.389   3.922   3.696  2.1419 -0.8985  1.3701
 6296TIP3    H218895   5.382   3.775   3.660  0.3658 -0.5548  0.2078
 6297TIP3   OH218896   3.959   3.503   4.649 -0.4822 -0.1922 -0.8044
 6297TIP3    H118897   4.010   3.547   4.582 -1.5618  0.8797 -0.9453
 6297TIP3    H218898   3.932   3.572   4.709 -0.7209 -0.9233 -0.0469
 6298TIP3   OH218899   5.510   0.733   0.537  0.2584 -0.3557 -0.2652
 6298TIP3    H118900   5.603   0.749   0.521  0.3960  1.0252  1.5297
 6298TIP3    H218901   5.477   0.817   0.569 -1.6924 -0.7361 -1.1671
 6299TIP3   OH218902   6.371   3.703   1.028 -0.0625  0.0375 -0.2595
 6299TIP3    H118903   6.330   3.783   0.994  0.1856  0.2760 -0.0026
 6299TIP3    H218904   6.314   3.632   0.998  0.4326  0.1894 -1.6013
 6300TIP3   OH218905   3.878   5.314   2.570  0.1547  0.3528  0.2860
 6300TIP3    H118906   3.947   5.377   2.591  0.6376 -0.0249 -0.1276
 6300TIP3    H218907   3.885   5.248   2.638  0.9135 -0.2331 -0.3291
 6301TIP3   OH218908   1.749   0.625   3.064 -0.1742 -1.0350  0.1831
 6301TIP3    H118909   1.803   0.700   3.038  1.3629 -2.2199 -0.2095
 6301TIP3    H218910   1.674   0.627   3.006 -1.4358  1.5563  1.7400
 6302TIP3   OH218911   1.548   1.608   4.443 -0.3131  0.1044 -0.6118
 6302TIP3    H118912   1.523   1.700   4.434 -0.0677  0.3427  0.8608
 6302TIP3    H218913   1.495   1.563   4.377  0.4256  1.4140 -2.1818
 6303TIP3   OH218914   5.337   1.644   4.399  0.5573 -0.4742  0.6325
 6303TIP3    H118915   5.251   1.603   4.414  0.0197 -0.4593 -1.9440
 6303TIP3    H218916   5.321   1.737   4.410  0.7153 -0.5899  2.0068
 6304TIP3   OH218917   4.286   3.128   0.745 -0.4185 -0.0829  0.0381
 6304TIP3    H118918   4.194   3.121   0.722 -0.3857 -1.4724  0.2606
 6304TIP3    H218919   4.326   3.173   0.670 -0.5814 -3.1270 -2.0554
 6305TIP3   OH218920   3.014   1.735   5.144  0.3207 -0.3511  0.0058
 6305TIP3    H118921   2.978   1.701   5.226 -0.2543 -0.5624 -0.3313
 6305TIP3    H218922   2.971   1.820   5.133 -1.4776 -1.3704 -1.3078
 6306TIP3   OH218923   2.339   4.513   0.865  0.2128 -0.4036  0.0628
 6306TIP3    H118924   2.254   4.530   0.905 -0.0374 -1.9785  0.2321
 6306TIP3    H218925   2.395   4.583   0.899 -0.7508  0.0702  0.7412
 6307TIP3   OH218926   0.168   4.442   3.467 -0.0668  0.0579  0.0847
 6307TIP3    H118927   0.078   4.459   3.437 -0.0810 -1.4670 -0.8769
 6307TIP3    H218928   0.223   4.473   3.395  0.2413  1.4943  0.9046
 6308TIP3   OH218929   2.525   3.836   3.450  0.5305  0.1162  0.3659
 6308TIP3    H118930   2.525   3.824   3.355 -1.6988  1.9978  0.0234
 6308TIP3    H218931   2.432   3.828   3.474  0.8762  1.0908  2.1611
 6309TIP3   OH218932   4.895   1.698   2.574  0.2680 -0.4939  0.1735
 6309TIP3    H118933   4.815   1.742   2.604  0.3384 -0.8112  0.8231
 6309TIP3    H218934   4.947   1.685   2.653 -0.2438 -2.7948  0.1965
 6310TIP3   OH218935   5.351   5.077   5.022 -0.2545 -0.1087  0.5558
 6310TIP3    H118936   5.340   5.086   4.927 -0.3015 -0.0757  0.5645
 6310TIP3    H218937   5.267   5.103   5.059  0.1828  1.1915  0.6767
 6311TIP3   OH218938   3.964   0.850   4.115 -0.4026  0.0682 -0.4611
 6311TIP3    H118939   3.933   0.795   4.043  0.9276  0.8014 -1.6332
 6311TIP3    H218940   4.052   0.819   4.133 -0.5956  0.1224  0.6364
 6312TIP3   OH218941   0.659   4.321   5.030 -0.0388 -0.1914 -0.2593
 6312TIP3    H118942   0.736   4.343   5.082  1.7294 -1.0141 -2.3244
 6312TIP3    H218943   0.649   4.395   4.970 -0.6013 -0.2696 -0.2624
 6313TIP3   OH218944   5.774   5.230   1.143  0.1759  0.1849  0.3282
 6313TIP3    H118945   5.849   5.266   1.095  0.4493  0.9466  1.2792
 6313TIP3    H218946   5.814   5.177   1.212 -0.1854 -0.2518  0.2005
 6314TIP3   OH218947   2.355   4.914   1.142  0.2016  0.6183 -0.4340
 6314TIP3    H118948   2.318   4.995   1.178  1.4464  0.8538  0.3511
 6314TIP3    H218949   2.368   4.857   1.217  1.8888  0.7385 -0.5919
 6315TIP3   OH218950   0.563   0.953   0.240 -0.9604  0.0990 -0.0386
 6315TIP3    H118951   0.598   0.912   0.161  0.2113  0.6849  0.1484
 6315TIP3    H218952   0.485   1.000   0.211 -0.7169  0.0474 -0.7871
 6316TIP3   OH218953   2.482   2.938   4.527 -0.0502 -0.2584 -0.3194
 6316TIP3    H118954   2.408   2.990   4.495  1.0009  2.7050  1.6254
 6316TIP3    H218955   2.442   2.869   4.580 -1.4639 -0.2979 -1.3709
 6317TIP3   OH218956   0.281   4.497   2.605  0.0616 -0.2642 -0.3246
 6317TIP3    H118957   0.255   4.496   2.513  0.5516 -1.2700 -0.4722
 6317TIP3    H218958   0.309   4.407   2.623 -0.5653 -0.2290  0.9657
 6318TIP3   OH218959   2.279   2.741   2.379  0.0376  0.0850  0.0650
 6318TIP3    H118960   2.210   2.790   2.334  0.1520 -0.7151 -1.0162
 6318TIP3    H218961   2.287   2.659   2.330  1.9293  0.2562 -0.0100
 6319TIP3   OH218962   3.985   4.363   4.868 -0.1720  0.1795 -0.4370
 6319TIP3    H118963   3.926   4.289   4.858 -0.3196  0.2634 -0.1987
 6319TIP3    H218964   3.943   4.419   4.933  1.7881 -1.3908  2.3946
 6320TIP3   OH218965   4.150   0.067   2.280  0.5906 -0.0646 -0.5550
 6320TIP3    H118966   4.070   0.110   2.249  0.8983 -0.1423 -1.4906
 6320TIP3    H218967   4.176   0.117   2.358  0.1749  0.5743 -0.8202
 6321TIP3   OH218968   3.582   5.573   3.999  1.0443  0.1484 -0.1899
 6321TIP3    H118969   3.631   5.617   3.930  0.9544  1.1054  0.3474
 6321TIP3    H218970   3.490   5.591   3.979  0.9609 -0.4919 -0.4217
 6322TIP3   OH218971   1.696   0.543   3.980  0.3082 -0.1087  0.0229
 6322TIP3    H118972   1.774   0.599   3.977  0.5382 -0.4830 -1.7610
 6322TIP3    H218973   1.722   0.463   3.935 -0.6812 -0.8125  0.6743
 6323TIP3   OH218974   3.814   3.230   2.955 -0.1453  0.2828  0.0569
 6323TIP3    H118975   3.819   3.299   2.888 -1.9683  1.2640  0.8638
 6323TIP3    H218976   3.822   3.277   3.038  1.1747 -0.8257  0.5860
 6324TIP3   OH218977   2.518   4.729   0.977  0.1016  0.1601  0.0536
 6324TIP3    H118978   2.479   4.801   1.028 -0.1059 -0.2091  0.4282
 6324TIP3    H218979   2.544   4.769   0.895 -0.6383  0.5218 -0.0118
 6325TIP3   OH218980   3.790   2.227   5.129 -0.2040  0.2701 -0.1560
 6325TIP3    H118981   3.843   2.265   5.059  1.5838 -1.6370  0.0835
 6325TIP3    H218982   3.745   2.153   5.087  2.6438 -2.3445  1.0443
 6326TIP3   OH218983   2.278   5.042   3.950  0.8401 -1.0198 -0.2374
 6326TIP3    H118984   2.366   5.079   3.941  0.0235  0.9516 -0.6293
 6326TIP3    H218985   2.243   5.081   4.030  0.5143 -2.2767  0.2604
 6327TIP3   OH218986   5.411   0.457   0.370  0.7052 -0.0446  0.3945
 6327TIP3    H118987   5.428   0.546   0.401  2.6698 -0.3356  0.2956
 6327TIP3    H218988   5.484   0.438   0.311 -0.9933 -0.8415 -1.5751
 6328TIP3   OH218989   4.070   0.847   0.337  0.1233  0.1110  0.4975
 6328TIP3    H118990   4.147   0.824   0.389  0.3929  0.2047  0.1497
 6328TIP3    H218991   4.097   0.830   0.247  0.3418  1.7670  0.2144
 6329TIP3   OH218992   1.263   2.659   3.334 -0.1124 -0.6077  0.3445
 6329TIP3    H118993   1.217   2.737   3.365  0.2827 -0.4998  0.6574
 6329TIP3    H218994   1.300   2.684   3.250  0.7695 -0.1680  0.8479
 6330TIP3   OH218995   0.565   1.932   3.001 -0.4113  0.5282  0.4345
 6330TIP3    H118996   0.581   1.862   2.938  0.2655  1.0637 -0.0042
 6330TIP3    H218997   0.558   1.887   3.085 -0.3893 -0.1042  0.1050
 6331TIP3   OH218998   3.268   3.648   1.717  0.4202  0.1658 -0.3769
 6331TIP3    H118999   3.289   3.560   1.685  0.7658 -0.0750  0.4851
 6331TIP3    H219000   3.196   3.677   1.661 -0.6312 -1.2157  0.1859
 6332TIP3   OH219001   2.508   3.271   2.616 -0.5092 -0.3687  0.4574
 6332TIP3    H119002   2.536   3.212   2.545  2.0181  0.9755  0.2021
 6332TIP3    H219003   2.484   3.212   2.687 -0.3689 -1.7413 -0.5881
 6333TIP3   OH219004   1.927   0.995   1.476  0.2496  0.3634  0.8480
 6333TIP3    H119005   1.856   1.020   1.417  2.7771 -0.3821 -2.8309
 6333TIP3    H219006   1.907   0.905   1.502  0.5333 -0.4564 -1.5256
 6334TIP3   OH219007   3.590   5.139   3.969 -0.2049  0.5199 -0.2166
 6334TIP3    H119008   3.641   5.200   3.915  0.0379  1.4283  0.9848
 6334TIP3    H219009   3.504   5.180   3.977  0.2818  1.2972  1.4791
 6335TIP3   OH219010   4.000   3.041   3.390 -0.0846  0.0433 -0.3620
 6335TIP3    H119011   4.022   3.074   3.477 -0.6487 -2.3442  0.7736
 6335TIP3    H219012   3.928   2.980   3.405  1.5369 -2.5039 -2.0548
 6336TIP3   OH219013   3.782   2.518   3.277  0.3632 -0.3251 -0.1375
 6336TIP3    H119014   3.787   2.508   3.182 -0.9021 -1.6129 -0.1084
 6336TIP3    H219015   3.768   2.429   3.310 -2.5716  0.3931  0.9656
 6337TIP3   OH219016   1.657   0.431   4.906 -0.5498 -0.4922 -0.1876
 6337TIP3    H119017   1.739   0.386   4.889  0.2948  0.4846  1.1122
 6337TIP3    H219018   1.589   0.366   4.888  0.4165 -0.9782 -2.3749
 6338TIP3   OH219019   1.360   4.290   3.606  0.2408 -0.1831  0.1243
 6338TIP3    H119020   1.453   4.279   3.628  0.3265  1.4369  0.7146
 6338TIP3    H219021   1.348   4.237   3.528  1.7736 -0.0965 -0.2175
 6339TIP3   OH219022   6.107   0.139   0.330 -0.0813  0.1386  0.3596
 6339TIP3    H119023   6.114   0.079   0.256 -2.4909 -2.0983  1.7817
 6339TIP3    H219024   6.013   0.143   0.349  0.2533  2.3628  1.9777
 6340TIP3   OH219025   5.781   0.637   4.099  0.2464  0.4088  0.4921
 6340TIP3    H119026   5.792   0.551   4.140 -0.3973 -0.2118 -0.5885
 6340TIP3    H219027   5.714   0.681   4.152 -1.0030 -0.6054 -0.1950
 6341TIP3   OH219028   3.010   1.266   1.807 -0.0016  0.1073 -0.1975
 6341TIP3    H119029   2.937   1.229   1.757 -0.6067 -0.6737  1.1994
 6341TIP3    H219030   3.048   1.331   1.748 -1.0347 -0.3506 -1.4435
 6342TIP3   OH219031   0.642   2.403   1.449 -0.8081  0.9300 -0.5026
 6342TIP3    H119032   0.595   2.322   1.468 -1.4604  1.2914 -0.5441
 6342TIP3    H219033   0.669   2.436   1.535  0.9474 -0.1820 -0.5835
 6343TIP3   OH219034   2.984   3.904   1.176  0.4393 -0.3727  0.8634
 6343TIP3    H119035   3.041   3.964   1.224  0.0031  0.0906  0.8031
 6343TIP3    H219036   2.960   3.952   1.097  1.0221 -1.0685  0.2443
 6344TIP3   OH219037   2.506   1.472   3.576 -0.3410  0.4077 -0.3685
 6344TIP3    H119038   2.543   1.390   3.544 -0.3615  0.1525  0.2495
 6344TIP3    H219039   2.582   1.520   3.612 -0.6368 -0.3022  1.3016
 6345TIP3   OH219040   5.761   3.676   2.646  0.2053  0.2680  1.0583
 6345TIP3    H119041   5.742   3.633   2.729 -0.9039 -0.1336  0.6242
 6345TIP3    H219042   5.851   3.650   2.625 -0.0082 -0.8229  1.4228
 6346TIP3   OH219043   4.452   1.121   0.390  0.6632 -0.2516 -0.0697
 6346TIP3    H119044   4.478   1.191   0.331  1.9700 -1.1139 -0.5441
 6346TIP3    H219045   4.437   1.165   0.474 -1.5448  1.0337 -1.0569
 6347TIP3   OH219046   1.893   3.217   2.709 -0.1709 -0.0782 -0.4759
 6347TIP3    H119047   1.959   3.196   2.776 -0.8475  1.6204  0.8047
 6347TIP3    H219048   1.809   3.212   2.755 -0.6364  1.3373 -1.0960
 6348TIP3   OH219049   2.853   2.196   0.598 -0.2496 -0.4790  0.3842
 6348TIP3    H119050   2.864   2.289   0.578  0.4356 -0.3551  1.2464
 6348TIP3    H219051   2.862   2.191   0.694 -1.1239 -1.3256  0.4350
 6349TIP3   OH219052   5.421   2.519   2.342  0.3762  0.1543  0.1246
 6349TIP3    H119053   5.326   2.511   2.349  0.3992  0.4925  0.9047
 6349TIP3    H219054   5.444   2.467   2.265 -0.2553 -1.3547  0.9264
 6350TIP3   OH219055   0.344   0.047   2.538  0.8753  0.0950 -0.5757
 6350TIP3    H119056   0.388   0.088   2.612  0.4099  0.6362 -0.5852
 6350TIP3    H219057   0.406   0.056   2.466  1.1171  0.0377 -0.3764
 6351TIP3   OH219058   4.063   4.236   2.255  0.4517 -0.3988  0.3957
 6351TIP3    H119059   4.022   4.274   2.332 -0.6633  0.2773 -0.5010
 6351TIP3    H219060   4.154   4.223   2.280  0.2651  0.4589  1.5840
 6352TIP3   OH219061   3.259   1.029   3.508 -0.4656 -0.3282  0.0770
 6352TIP3    H119062   3.181   1.012   3.561 -0.7925  1.0778  0.0951
 6352TIP3    H219063   3.332   1.021   3.569 -0.7519  0.1702  0.4964
 6353TIP3   OH219064   4.120   5.496   0.018  0.5358 -0.3569  0.1036
 6353TIP3    H119065   4.109   5.405   0.044  1.3425 -0.0151  1.7938
 6353TIP3    H219066   4.201   5.497  -0.034  0.5047 -0.6043  0.0509
 6354TIP3   OH219067   1.860   3.146   3.161 -0.3562 -0.9324  0.0673
 6354TIP3    H119068   1.821   3.094   3.090  2.2389 -0.0478 -2.2281
 6354TIP3    H219069   1.918   3.084   3.206  1.9802 -0.4249 -2.0378
 6355TIP3   OH219070   0.156   1.873   4.695  0.2146 -0.4376 -0.2320
 6355TIP3    H119071   0.204   1.914   4.767 -0.7874 -0.7900  0.6592
 6355TIP3    H219072   0.135   1.785   4.727  1.7326 -1.4553 -1.8461
 6356TIP3   OH219073   6.155   5.591   3.123 -0.3244 -0.2932  0.1909
 6356TIP3    H119074   6.074   5.587   3.175 -1.4453 -0.3117 -1.4521
 6356TIP3    H219075   6.192   5.677   3.144 -0.3384 -0.5999  1.5582
 6357TIP3   OH219076   0.185   3.386   1.449  0.1917 -0.0396 -0.1476
 6357TIP3    H119077   0.166   3.293   1.461  0.2673 -0.2951 -1.7754
 6357TIP3    H219078   0.100   3.428   1.456 -0.1504 -0.4811 -1.3291
 6358TIP3   OH219079   4.583   1.667   1.069  0.0249 -0.0787 -0.2926
 6358TIP3    H119080   4.616   1.753   1.097  1.7838 -0.4603 -1.0196
 6358TIP3    H219081   4.584   1.614   1.149  1.1893 -0.0504 -0.2628
 6359TIP3   OH219082   4.072   4.981   0.021 -0.0705 -0.5197 -0.5618
 6359TIP3    H119083   4.070   4.937   0.106  1.4882 -0.3488 -0.4055
 6359TIP3    H219084   4.054   4.912  -0.043  0.1929 -0.9480 -0.1787
 6360TIP3   OH219085   4.032   1.446   2.843 -0.0975 -0.6673 -0.3288
 6360TIP3    H119086   3.960   1.439   2.781  0.4276 -1.9096 -0.8358
 6360TIP3    H219087   4.011   1.523   2.897 -3.1617 -2.4529  1.3028
 6361TIP3   OH219088   5.584   4.257   5.166 -0.0948 -0.0921  0.0438
 6361TIP3    H119089   5.490   4.249   5.184 -0.4234  1.1882 -0.9578
 6361TIP3    H219090   5.592   4.241   5.072  0.9379 -1.8054  0.3771
 6362TIP3   OH219091   4.142   4.441   2.088  0.0295  0.3310  0.0373
 6362TIP3    H119092   4.174   4.388   2.016 -0.8932 -0.9536  0.5458
 6362TIP3    H219093   4.128   4.380   2.160  0.5752  1.5215  1.2199
 6363TIP3   OH219094   6.049   3.459   2.961  0.1717 -0.4673  0.1496
 6363TIP3    H119095   5.963   3.423   2.944 -0.0565 -0.0287  0.3550
 6363TIP3    H219096   6.092   3.462   2.875 -0.1423 -0.3701 -0.0053
 6364TIP3   OH219097   0.620   4.530   1.751 -0.3157  0.0956  0.0306
 6364TIP3    H119098   0.626   4.525   1.655  1.3499  1.0729  0.0517
 6364TIP3    H219099   0.682   4.598   1.775 -0.9195  0.0591  1.8087
 6365TIP3   OH219100   4.411   5.152   0.163  0.7080 -0.1983 -0.1866
 6365TIP3    H119101   4.488   5.107   0.129  0.5236  0.2995 -1.3134
 6365TIP3    H219102   4.340   5.128   0.104  0.1441 -0.0977  0.4306
 6366TIP3   OH219103   3.408   6.024   2.718 -0.0311  0.7280  0.5770
 6366TIP3    H119104   3.373   6.004   2.631  1.9049  1.3953 -0.4351
 6366TIP3    H219105   3.419   5.939   2.760  1.6764  0.0998 -0.9935
 6367TIP3   OH219106   5.808   4.743   4.182  0.3962  0.0224 -0.2657
 6367TIP3    H119107   5.822   4.765   4.089 -1.2665 -0.9328 -0.7755
 6367TIP3    H219108   5.721   4.705   4.185 -0.0594  1.0666  1.8974
 6368TIP3   OH219109   3.260   3.663   3.848 -0.1999  0.3144 -0.0792
 6368TIP3    H119110   3.308   3.580   3.851  2.1775  1.5767 -0.4976
 6368TIP3    H219111   3.276   3.697   3.760 -0.7853  1.4212  0.2227
 6369TIP3   OH219112   4.351   3.679   1.709  0.0736 -0.0701  0.1574
 6369TIP3    H119113   4.373   3.766   1.741 -0.9603  0.8725 -1.5232
 6369TIP3    H219114   4.255   3.678   1.705 -0.0491 -1.9648  1.8419
 6370TIP3   OH219115   3.596   0.407   4.919  0.0621  0.2738 -0.5665
 6370TIP3    H119116   3.574   0.316   4.902  0.8457  0.4197 -2.6344
 6370TIP3    H219117   3.515   0.445   4.953 -0.1232 -1.2815  0.8500
 6371TIP3   OH219118   0.560   2.434   4.121 -0.2810 -0.4113 -0.1116
 6371TIP3    H119119   0.549   2.515   4.171  0.1776  0.3240 -1.1780
 6371TIP3    H219120   0.628   2.454   4.056  0.1422 -1.7738 -0.1388
 6372TIP3   OH219121   3.557   2.884   3.879  0.0825 -0.3982 -0.2742
 6372TIP3    H119122   3.624   2.856   3.941 -0.1370 -1.1212 -0.3593
 6372TIP3    H219123   3.558   2.819   3.810 -1.0343 -0.7015 -0.0340
 6373TIP3   OH219124   3.097   1.219   0.731  0.3629 -0.0199 -0.5674
 6373TIP3    H119125   3.093   1.268   0.649 -0.5079  0.4475 -0.2568
 6373TIP3    H219126   3.133   1.280   0.795 -3.2390  1.2729  0.4910
 6374TIP3   OH219127   1.979   2.528   1.718  0.0509  0.4467  0.4082
 6374TIP3    H119128   1.937   2.533   1.632  1.1644 -1.0193 -0.2602
 6374TIP3    H219129   2.068   2.499   1.699  0.2164 -0.2233  2.0908
 6375TIP3   OH219130   4.861   3.906   3.490  0.0981  0.3465 -0.0586
 6375TIP3    H119131   4.892   3.823   3.526 -0.8481  0.0763  0.1549
 6375TIP3    H219132   4.855   3.965   3.565 -1.7804 -0.1880  0.2529
 6376TIP3   OH219133   5.155   3.714   4.650 -0.4117 -0.1964 -0.0095
 6376TIP3    H119134   5.175   3.784   4.588  1.6501 -0.4868  0.2701
 6376TIP3    H219135   5.061   3.698   4.637 -0.4155  0.9122 -1.8183
 6377TIP3   OH219136   1.658   0.311   2.986 -0.0315 -0.0052  0.3786
 6377TIP3    H119137   1.710   0.386   2.958  0.0746  0.1117  0.8822
 6377TIP3    H219138   1.638   0.264   2.905 -0.1598  0.6034  0.0548
 6378TIP3   OH219139   3.616   4.160   3.646 -0.1274  0.1632  0.3473
 6378TIP3    H119140   3.659   4.162   3.732  0.5161  0.0490  0.0388
 6378TIP3    H219141   3.634   4.247   3.609 -1.2064  0.5499  0.7025
 6379TIP3   OH219142   3.393   2.042   0.089 -0.4895 -0.1264 -0.6129
 6379TIP3    H119143   3.417   2.058  -0.003 -1.5813 -0.3396 -0.9442
 6379TIP3    H219144   3.453   2.098   0.139  1.4289 -1.4485 -1.3350
 6380TIP3   OH219145   5.599   0.628   1.049  0.4004 -0.5797 -0.6211
 6380TIP3    H119146   5.532   0.560   1.046  1.1747 -1.3615 -0.8270
 6380TIP3    H219147   5.620   0.646   0.957 -0.3027  0.4735 -0.5964
 6381TIP3   OH219148   4.478   1.490   5.086 -0.4130 -0.2067  0.2014
 6381TIP3    H119149   4.466   1.529   5.000  0.6889 -1.1918 -0.4275
 6381TIP3    H219150   4.500   1.398   5.068  1.3985 -0.0632  1.4453
 6382TIP3   OH219151   5.408   1.349   1.508  0.4222 -0.8415 -0.0962
 6382TIP3    H119152   5.424   1.281   1.442 -0.9963 -0.1202 -1.2358
 6382TIP3    H219153   5.488   1.401   1.508  0.5095 -0.9493 -1.1374
 6383TIP3   OH219154   0.956   4.360   2.714  0.4105 -0.0563  0.2593
 6383TIP3    H119155   0.911   4.314   2.785  0.5509 -1.5121 -0.5607
 6383TIP3    H219156   1.029   4.404   2.757  0.2737 -0.6027  1.0763
 6384TIP3   OH219157   4.103   4.711   2.631 -0.3720  0.1101  0.6886
 6384TIP3    H119158   4.051   4.787   2.603 -1.4230 -1.5258 -2.1617
 6384TIP3    H219159   4.038   4.648   2.662  0.3945 -0.0845  1.9471
 6385TIP3   OH219160   3.111   2.650   4.395  0.4192 -0.1336 -0.1051
 6385TIP3    H119161   3.070   2.727   4.356  0.9517  0.5595  0.6730
 6385TIP3    H219162   3.133   2.594   4.320 -0.7853  0.0431 -0.6212
 6386TIP3   OH219163   4.991   5.646   4.509  0.2370 -0.4244  0.0938
 6386TIP3    H119164   4.964   5.682   4.424  0.7848 -0.3814 -0.0634
 6386TIP3    H219165   5.073   5.600   4.491 -0.0783 -1.1296  0.4399
 6387TIP3   OH219166   1.309   3.492   4.069 -0.2563  0.4791 -0.1544
 6387TIP3    H119167   1.328   3.584   4.053  5.1074 -0.1575  0.4723
 6387TIP3    H219168   1.321   3.481   4.163  1.9658 -1.1131 -0.5155
 6388TIP3   OH219169   1.382   1.550   3.584 -0.2318 -0.7827 -0.1688
 6388TIP3    H119170   1.403   1.493   3.510  0.1604 -0.8025 -0.0427
 6388TIP3    H219171   1.463   1.597   3.602 -0.3422 -0.7341  0.2143
 6389TIP3   OH219172   0.192   1.884   0.975 -0.2239  0.2304  0.6624
 6389TIP3    H119173   0.190   1.938   1.054 -1.1684  1.2587 -0.0423
 6389TIP3    H219174   0.103   1.851   0.966  0.3377 -1.4970  1.0866
 6390TIP3   OH219175   3.269   3.448   4.531 -0.2710 -0.5636  0.1491
 6390TIP3    H119176   3.192   3.397   4.506 -0.2394 -0.1174 -0.9020
 6390TIP3    H219177   3.272   3.441   4.627 -1.7102 -0.4423  0.2285
 6391TIP3   OH219178   6.318   2.108   4.577  0.0355  0.5395  0.1472
 6391TIP3    H119179   6.304   2.080   4.668  0.0570  0.3957  0.1070
 6391TIP3    H219180   6.369   2.189   4.585 -1.4088  1.4644  0.3193
 6392TIP3   OH219181   0.522   5.195   5.119 -0.3630 -0.6426  0.2442
 6392TIP3    H119182   0.465   5.131   5.161  0.4667 -2.1421 -0.8242
 6392TIP3    H219183   0.608   5.153   5.116 -0.2995 -0.5274 -2.6105
 6393TIP3   OH219184   5.589   0.790   0.171 -0.0828 -0.6204 -0.3027
 6393TIP3    H119185   5.625   0.764   0.087  1.8423 -0.0311  0.2869
 6393TIP3    H219186   5.515   0.731   0.185 -0.0724 -1.1059 -2.1143
 6394TIP3   OH219187   4.395   1.787   1.845  1.0952 -0.0880  0.0161
 6394TIP3    H119188   4.343   1.806   1.923  0.4566  0.0126 -0.4342
 6394TIP3    H219189   4.352   1.712   1.805  1.7795 -0.5278  0.0838
 6395TIP3   OH219190   1.763   2.889   2.657  0.4805  0.2093 -0.4501
 6395TIP3    H119191   1.776   2.861   2.566  0.5087  0.1146 -0.4179
 6395TIP3    H219192   1.707   2.966   2.651  0.6284  0.3086 -0.5598
 6396TIP3   OH219193   0.902   0.341   0.850 -0.1921 -0.2852 -0.8908
 6396TIP3    H119194   0.858   0.393   0.916 -0.4782  0.6524 -1.7956
 6396TIP3    H219195   0.836   0.328   0.782  0.7616  0.7405 -2.0559
 6397TIP3   OH219196   5.519   1.957   0.481 -0.3485  0.0985 -0.1511
 6397TIP3    H119197   5.581   1.892   0.449 -1.6798 -1.3517  0.0668
 6397TIP3    H219198   5.458   1.970   0.409 -1.1223 -0.2610  0.4200
 6398TIP3   OH219199   3.924   1.558   2.199 -0.1929 -0.2798 -0.5513
 6398TIP3    H119200   3.902   1.636   2.249  0.2138 -1.1176  1.0082
 6398TIP3    H219201   3.978   1.590   2.127  0.3336  0.8320  0.3128
 6399TIP3   OH219202   3.738   2.752   2.266  0.8643 -0.1522  0.4767
 6399TIP3    H119203   3.761   2.681   2.206 -0.2145 -0.2050  0.0997
 6399TIP3    H219204   3.709   2.824   2.209 -2.5761 -1.0386  0.8905
 6400TIP3   OH219205   1.394   5.019   5.069 -0.0856 -0.1001  0.3715
 6400TIP3    H119206   1.449   5.093   5.043  0.1576 -0.0564  0.9956
 6400TIP3    H219207   1.429   4.991   5.154 -0.1036 -1.0049  0.0887
 6401TIP3   OH219208   4.794   1.653   0.251 -0.4561  0.1789 -0.1480
 6401TIP3    H119209   4.876   1.620   0.288 -0.5726  2.3788  2.3751
 6401TIP3    H219210   4.811   1.746   0.234 -1.3394 -0.1203 -3.1820
 6402TIP3   OH219211   1.562   4.093   3.076 -0.1087 -0.1277 -0.3648
 6402TIP3    H119212   1.555   4.132   2.989  1.9427  1.6971  0.2003
 6402TIP3    H219213   1.587   4.002   3.059 -1.7345 -0.3946 -1.6582
 6403TIP3   OH219214   5.648   0.192   3.019 -0.2162  0.1486 -0.1039
 6403TIP3    H119215   5.742   0.182   3.034 -0.2438  1.7283  1.5706
 6403TIP3    H219216   5.642   0.233   2.933  0.6786  0.5382  0.0021
 6404TIP3   OH219217   0.457   3.226   3.463 -0.0145 -0.3634 -0.3141
 6404TIP3    H119218   0.428   3.277   3.539  0.0339 -1.8510  0.7641
 6404TIP3    H219219   0.376   3.204   3.417 -0.1917 -0.6297  0.1106
 6405TIP3   OH219220   3.014   2.842   5.200 -0.3080  0.2733  0.1420
 6405TIP3    H119221   3.060   2.926   5.197 -2.1978  1.3415 -0.0861
 6405TIP3    H219222   3.008   2.814   5.109 -2.3372  1.4459 -0.1374
 6406TIP3   OH219223   6.240   2.553   0.285  0.1644  0.1285 -0.1388
 6406TIP3    H119224   6.152   2.535   0.252 -0.2230  1.5216  0.0551
 6406TIP3    H219225   6.292   2.570   0.207  0.4074 -1.2062 -0.2877
 6407TIP3   OH219226   6.288   3.265   2.691  0.8463  0.4025 -0.3811
 6407TIP3    H119227   6.360   3.239   2.635  0.1657 -2.9965  0.1026
 6407TIP3    H219228   6.323   3.259   2.780 -0.0255 -1.7699 -0.1083
 6408TIP3   OH219229   4.328   5.427   4.672 -0.3004 -0.4716  0.1818
 6408TIP3    H119230   4.345   5.517   4.643 -0.1100 -0.7544 -0.6007
 6408TIP3    H219231   4.250   5.434   4.727 -0.3226  0.1653  0.0813
 6409TIP3   OH219232   1.119   2.820   1.341  0.0474  0.0274  0.7253
 6409TIP3    H119233   1.113   2.753   1.409  0.9849 -0.0636  0.7290
 6409TIP3    H219234   1.174   2.889   1.379 -0.0236  0.3095  0.3279
 6410TIP3   OH219235   5.357   1.885   2.641  0.0402 -0.0248  0.2392
 6410TIP3    H119236   5.423   1.953   2.653 -0.7696  0.7240  0.5440
 6410TIP3    H219237   5.398   1.805   2.675  0.2777  0.7069  1.7701
 6411TIP3   OH219238   1.286   4.656   0.232 -0.2580  0.1220 -0.3138
 6411TIP3    H119239   1.368   4.645   0.279  0.0450 -0.1848 -0.8935
 6411TIP3    H219240   1.273   4.572   0.188 -2.2054 -0.8014  1.8008
 6412TIP3   OH219241   4.080   2.238   2.092 -0.2793  0.1201 -0.0002
 6412TIP3    H119242   4.162   2.264   2.050 -0.6052 -1.2884 -1.6283
 6412TIP3    H219243   4.014   2.297   2.056 -0.2991 -0.0813 -0.3028
 6413TIP3   OH219244   6.062   2.212   0.984  0.1577  0.0466 -0.3422
 6413TIP3    H119245   6.018   2.128   0.983 -1.1101  0.6849  0.0484
 6413TIP3    H219246   6.134   2.202   0.922 -0.7183 -0.9211 -1.2286
 6414TIP3   OH219247   1.537   5.698   2.164  0.1492 -0.4297 -0.9958
 6414TIP3    H119248   1.557   5.708   2.257 -0.1336 -2.3255 -0.7074
 6414TIP3    H219249   1.612   5.737   2.120 -0.9980  3.2680 -0.1073
 6415TIP3   OH219250   5.581   2.080   1.424 -0.0088 -0.1751 -0.5099
 6415TIP3    H119251   5.615   2.083   1.513 -0.3912 -0.4666 -0.3491
 6415TIP3    H219252   5.532   1.998   1.420 -1.2364  0.5231 -0.5242
 6416TIP3   OH219253   5.538   3.939   0.978 -0.5462  0.6805 -0.1185
 6416TIP3    H119254   5.481   4.007   1.013 -1.8113  0.1158 -1.0175
 6416TIP3    H219255   5.613   3.987   0.942  0.2791  1.3474  2.2622
 6417TIP3   OH219256   4.013   3.015   0.758  0.3189 -0.0944  0.2386
 6417TIP3    H119257   3.984   2.983   0.673  0.4002  0.6967 -0.0901
 6417TIP3    H219258   4.085   2.957   0.782  1.5358  0.8024 -1.0969
 6418TIP3   OH219259   4.424   3.229   0.519  0.3647  0.3806 -0.0658
 6418TIP3    H119260   4.493   3.293   0.538  0.8759  0.3821 -1.7438
 6418TIP3    H219261   4.471   3.152   0.488 -0.3564  0.2150 -0.7799
 6419TIP3   OH219262   1.962   2.937   2.423  0.2179  0.2045 -0.7341
 6419TIP3    H119263   1.966   2.846   2.451 -1.5610  0.5731  0.9562
 6419TIP3    H219264   2.020   2.984   2.483  0.2014  0.3549 -0.8327
 6420TIP3   OH219265   2.597   5.605   0.623  0.0067 -0.2181 -0.1165
 6420TIP3    H119266   2.677   5.552   0.618 -0.8200 -1.3912 -2.2844
 6420TIP3    H219267   2.529   5.548   0.587 -1.4412  1.4273 -0.0709
 6421TIP3   OH219268   5.988   3.535   4.022  0.1044 -0.8163  0.1926
 6421TIP3    H119269   6.064   3.505   4.072 -0.9462 -0.7649  1.9044
 6421TIP3    H219270   5.943   3.454   3.996  0.5978 -0.8403 -0.6081
 6422TIP3   OH219271   3.887   0.473   2.340  0.0001  0.0849 -0.4878
 6422TIP3    H119272   3.823   0.521   2.393 -0.2268 -0.5399 -0.1860
 6422TIP3    H219273   3.953   0.539   2.317  0.1914  0.3499  0.7137
 6423TIP3   OH219274   3.771   3.841   1.510 -0.3792 -0.2192 -0.1448
 6423TIP3    H119275   3.744   3.918   1.561 -0.5077  0.4861 -1.2330
 6423TIP3    H219276   3.708   3.773   1.535 -0.8850  0.3260  0.0999
 6424TIP3   OH219277   1.573   0.601   3.518  0.1760  0.3241  0.4763
 6424TIP3    H119278   1.655   0.634   3.554  0.3451 -0.2622  0.6493
 6424TIP3    H219279   1.512   0.601   3.592  0.6238 -1.2169  0.8887
 6425TIP3   OH219280   3.306   4.615   2.212  0.8327  0.4265 -0.0956
 6425TIP3    H119281   3.329   4.541   2.267 -2.5341  0.5551  1.7374
 6425TIP3    H219282   3.238   4.581   2.153  0.1926  1.7113 -0.1349
 6426TIP3   OH219283   0.469   5.787   2.454  0.1692  0.9101  0.1785
 6426TIP3    H119284   0.543   5.844   2.432 -0.3109  1.5707  0.2395
 6426TIP3    H219285   0.406   5.846   2.495  0.2032  0.0890  1.4580
 6427TIP3   OH219286   5.767   3.760   0.126  0.4283  0.5192  0.1232
 6427TIP3    H119287   5.733   3.687   0.074 -0.9617  0.0890  1.5320
 6427TIP3    H219288   5.833   3.721   0.182 -0.1932  0.3412  0.7540
 6428TIP3   OH219289   5.329   2.035   0.092 -0.2898 -0.4342 -0.0443
 6428TIP3    H119290   5.363   1.995   0.012  1.7770 -0.0811  0.6030
 6428TIP3    H219291   5.351   2.128   0.084 -2.7372  0.1890 -0.3557
 6429TIP3   OH219292   4.504   1.450   3.487  0.0479 -0.3782  0.3947
 6429TIP3    H119293   4.541   1.403   3.562 -1.4361 -0.6080  1.0140
 6429TIP3    H219294   4.485   1.538   3.521 -1.1958 -0.6649  0.4832
 6430TIP3   OH219295   2.877   5.238   1.325  0.4563 -0.2944  0.0179
 6430TIP3    H119296   2.807   5.283   1.374 -1.0065 -2.3306 -0.0834
 6430TIP3    H219297   2.903   5.301   1.258 -1.0303  0.6799  0.3020
 6431TIP3   OH219298   3.768   4.089   4.526 -0.2648 -0.1126 -0.2860
 6431TIP3    H119299   3.821   4.046   4.593  0.7377  0.5157 -0.6472
 6431TIP3    H219300   3.801   4.179   4.524  0.9482 -0.5128 -2.7773
 6432TIP3   OH219301   1.898   5.969   4.831  0.3063  0.5686 -0.9198
 6432TIP3    H119302   1.807   5.990   4.852  0.3955  0.0914 -0.0169
 6432TIP3    H219303   1.898   5.876   4.810  1.1452 -0.4015  2.7809
 6433TIP3   OH219304   1.978   2.288   0.560  0.3194  0.2630  0.5797
 6433TIP3    H119305   2.016   2.203   0.581 -0.6896 -0.5709 -0.8285
 6433TIP3    H219306   2.048   2.335   0.514 -0.1471 -1.1408 -1.7129
 6434TIP3   OH219307   3.974   4.723   3.488 -0.1772 -0.6772 -0.0076
 6434TIP3    H119308   3.883   4.752   3.474 -0.6115 -2.2447 -0.7307
 6434TIP3    H219309   3.997   4.756   3.575 -1.8523 -1.2256  0.6829
 6435TIP3   OH219310   0.631   2.643   3.207 -0.0776  0.3091  0.2241
 6435TIP3    H119311   0.682   2.623   3.285  0.1470  1.2450  0.3344
 6435TIP3    H219312   0.687   2.616   3.134 -0.1857 -0.3393  0.3798
 6436TIP3   OH219313   5.854   1.191   1.282 -0.0376  0.0453  0.0772
 6436TIP3    H119314   5.880   1.283   1.282  1.0961 -0.2597 -1.2964
 6436TIP3    H219315   5.773   1.190   1.231  0.6390  0.1150 -1.0250
 6437TIP3   OH219316   1.443   0.698   3.731  0.0020 -0.3474  0.1977
 6437TIP3    H119317   1.471   0.789   3.723  0.8381 -0.3855  2.0723
 6437TIP3    H219318   1.477   0.671   3.817 -2.0651 -1.7647  0.6191
 6438TIP3   OH219319   5.904   2.938   4.907 -0.4570 -0.4804 -0.0091
 6438TIP3    H119320   5.955   2.910   4.831 -1.5639  1.2434 -1.4871
 6438TIP3    H219321   5.813   2.933   4.877 -0.9635 -0.3106  1.4220
 6439TIP3   OH219322   1.676   1.434   2.144  0.1192  0.0709 -0.1548
 6439TIP3    H119323   1.688   1.346   2.181 -0.6158 -1.3124 -2.9263
 6439TIP3    H219324   1.751   1.446   2.086 -0.2986  0.8911 -0.5364
 6440TIP3   OH219325   4.386   3.033   1.360 -0.1958 -0.3197 -0.0279
 6440TIP3    H119326   4.311   2.989   1.320 -0.6669 -0.5531  1.0737
 6440TIP3    H219327   4.347   3.090   1.427  0.4151  1.5976 -1.2248
 6441TIP3   OH219328   1.275   0.657   0.287 -0.2939  0.1134  0.2399
 6441TIP3    H119329   1.206   0.701   0.338 -2.1440 -1.3138 -0.8879
 6441TIP3    H219330   1.245   0.566   0.280 -0.2429  0.2446 -3.4770
 6442TIP3   OH219331   1.667   3.149   1.609  0.0098  0.4839 -0.5048
 6442TIP3    H119332   1.653   3.068   1.561  1.8621 -0.5931  0.6480
 6442TIP3    H219333   1.654   3.218   1.545  0.9812 -0.8401 -2.2108
 6443TIP3   OH219334   5.763   1.232   0.081 -0.0601 -0.0606 -0.2693
 6443TIP3    H119335   5.815   1.305   0.046 -0.9414  2.1436  2.5478
 6443TIP3    H219336   5.815   1.154   0.062  0.8514  1.1725 -3.6311
 6444TIP3   OH219337   3.359   0.507   3.099  0.2482 -0.3963 -0.1130
 6444TIP3    H119338   3.328   0.472   3.015  0.4086 -0.1064 -0.2960
 6444TIP3    H219339   3.450   0.533   3.081  0.6986 -1.4943  0.4881
 6445TIP3   OH219340   5.328   0.215   2.787  0.0016  0.2966  0.4282
 6445TIP3    H119341   5.382   0.276   2.737 -0.9481 -0.9858 -2.3192
 6445TIP3    H219342   5.379   0.134   2.789 -1.2771 -0.6109 -1.2980
 6446TIP3   OH219343   4.796   3.451   3.673 -1.0038 -0.5141  0.2220
 6446TIP3    H119344   4.774   3.541   3.699 -0.2770 -0.0318 -0.7918
 6446TIP3    H219345   4.776   3.447   3.580 -1.1238 -1.4407  0.2816
 6447TIP3   OH219346   0.673   4.307   2.823 -0.2298  0.1988 -0.3418
 6447TIP3    H119347   0.606   4.375   2.831 -0.6866  0.0378 -2.3183
 6447TIP3    H219348   0.639   4.247   2.757  1.5473 -0.2860 -0.8763
 6448TIP3   OH219349   2.025   0.123   3.735 -0.1723  0.6900  0.5995
 6448TIP3    H119350   2.018   0.212   3.702  0.4839 -0.0842 -1.8486
 6448TIP3    H219351   1.950   0.113   3.794 -1.2396  2.3170 -0.4104
 6449TIP3   OH219352   5.660   3.875   4.749  0.7473 -0.2428  0.3551
 6449TIP3    H119353   5.612   3.945   4.705  0.6855  1.4575  2.9630
 6449TIP3    H219354   5.604   3.798   4.739  0.7448  0.0118 -2.4360
 6450TIP3   OH219355   1.182   5.269   0.291 -0.7087 -0.6558 -0.2254
 6450TIP3    H119356   1.269   5.275   0.252 -0.5935 -0.0691  0.1089
 6450TIP3    H219357   1.163   5.357   0.323 -1.0158 -0.9960  0.5729
 6451TIP3   OH219358   3.126   1.767   4.112 -0.0636 -0.3291  0.2673
 6451TIP3    H119359   3.063   1.719   4.165 -0.9735  0.9948  0.4311
 6451TIP3    H219360   3.212   1.733   4.139 -0.4889  0.2296  2.5482
 6452TIP3   OH219361   5.497   5.616   3.827  0.5773 -0.3154 -0.3953
 6452TIP3    H119362   5.505   5.531   3.870  1.9300 -0.4583 -0.8758
 6452TIP3    H219363   5.403   5.632   3.823  0.3560 -1.0790  1.0671
 6453TIP3   OH219364   0.823   3.355   4.049  0.0720  0.6256  0.4169
 6453TIP3    H119365   0.780   3.275   4.020 -2.0010  1.7652  0.1343
 6453TIP3    H219366   0.908   3.354   4.006  0.9733 -2.3335  1.9584
 6454TIP3   OH219367   1.907   5.779   1.486  0.3833  0.3447 -0.1469
 6454TIP3    H119368   1.846   5.750   1.418  0.8684  1.7254 -1.2059
 6454TIP3    H219369   1.970   5.708   1.493 -0.3616 -0.3473 -0.2480
 6455TIP3   OH219370   1.086   1.337   1.945  0.7591 -0.6524 -0.3516
 6455TIP3    H119371   1.051   1.397   2.011  2.6597 -0.8358  0.8852
 6455TIP3    H219372   1.021   1.267   1.939  0.4713 -0.5374  1.1859
 6456TIP3   OH219373   4.580   5.824   1.119 -0.0596 -0.1512 -0.1230
 6456TIP3    H119374   4.580   5.815   1.024 -0.6518 -0.1475 -0.1296
 6456TIP3    H219375   4.504   5.773   1.148  0.6794 -0.9675  0.4314
 6457TIP3   OH219376   3.485   5.922   3.783 -0.1566  0.1666 -0.4806
 6457TIP3    H119377   3.544   5.866   3.833 -0.1137 -0.2233 -0.9505
 6457TIP3    H219378   3.528   6.008   3.781  0.3798 -0.1022 -0.7789
 6458TIP3   OH219379   0.898   3.393   4.418  0.2862 -0.7281  0.2830
 6458TIP3    H119380   0.914   3.315   4.470  2.6560  0.6915  1.8558
 6458TIP3    H219381   0.969   3.394   4.354  0.6706  0.4332  0.7000
 6459TIP3   OH219382   1.441   4.239   0.393  0.3655 -0.0553 -0.0867
 6459TIP3    H119383   1.484   4.213   0.311 -0.9043  1.8899 -1.4631
 6459TIP3    H219384   1.443   4.160   0.447  1.5448 -1.3135 -1.8505
 6460TIP3   OH219385   3.550   0.761   2.722 -0.0708 -0.5166 -1.0809
 6460TIP3    H119386   3.581   0.722   2.640 -0.6040 -0.0948 -1.4872
 6460TIP3    H219387   3.630   0.795   2.763  0.0652  0.2597 -1.9569
 6461TIP3   OH219388   3.008   3.656   1.030 -0.2670  0.3919  0.1385
 6461TIP3    H119389   2.978   3.735   1.074 -0.1263  1.5346 -1.7001
 6461TIP3    H219390   3.052   3.688   0.951 -1.7137 -1.5567 -1.5566
 6462TIP3   OH219391   3.963   2.862   3.921 -0.0586 -0.1640 -0.4373
 6462TIP3    H119392   3.949   2.771   3.946 -0.7423  0.2691  0.8335
 6462TIP3    H219393   3.927   2.913   3.993  0.1831  1.1260 -1.1903
 6463TIP3   OH219394   1.427   0.126   1.133  0.2754  0.1741 -0.6454
 6463TIP3    H119395   1.442   0.052   1.074  0.2258 -0.3464 -0.0139
 6463TIP3    H219396   1.365   0.182   1.086  0.3139 -0.1817 -1.1265
 6464TIP3   OH219397   6.164   4.134   3.029 -0.5295 -0.1917 -0.6257
 6464TIP3    H119398   6.102   4.142   2.956  1.0818  0.4397 -1.9766
 6464TIP3    H219399   6.247   4.164   2.994  0.0199  1.5278  1.8945
 6465TIP3   OH219400   1.555   3.704   0.597 -0.3605  0.1158  0.6028
 6465TIP3    H119401   1.625   3.662   0.647 -0.4995  2.0523  2.5700
 6465TIP3    H219402   1.598   3.777   0.553 -0.8293  0.2152  0.3085
 6466TIP3   OH219403   3.819   3.676   3.421 -0.1833 -0.3506 -0.2938
 6466TIP3    H119404   3.881   3.736   3.462  0.4540 -0.6934 -0.7349
 6466TIP3    H219405   3.746   3.670   3.483 -0.5514  1.3553 -0.5248
 6467TIP3   OH219406   4.639   1.325   0.209 -0.3085 -0.1564  0.0983
 6467TIP3    H119407   4.603   1.309   0.122  0.2332 -0.5748 -0.0496
 6467TIP3    H219408   4.610   1.414   0.230  1.9569  1.1160 -1.7435
 6468TIP3   OH219409   4.189   2.571   4.065 -0.3242 -0.6114  0.1768
 6468TIP3    H119410   4.157   2.630   4.133  0.5364 -0.5694  0.5504
 6468TIP3    H219411   4.113   2.516   4.044 -0.6383 -0.5285  1.0589
 6469TIP3   OH219412   4.712   5.421   3.358 -0.3103  0.7403 -0.1531
 6469TIP3    H119413   4.702   5.469   3.441 -0.6381  0.3081  0.0636
 6469TIP3    H219414   4.718   5.329   3.384  1.7026  0.7503 -0.4790
 6470TIP3   OH219415   1.990   3.366   4.402  0.2966  0.6717 -0.0271
 6470TIP3    H119416   1.971   3.274   4.383  0.0944  0.7027  0.0153
 6470TIP3    H219417   2.060   3.363   4.468  0.0691  0.5406  0.2130
 6471TIP3   OH219418   4.943   0.217   1.397 -0.1952  0.0067  0.7734
 6471TIP3    H119419   4.855   0.180   1.391  0.2268 -0.8314 -0.8952
 6471TIP3    H219420   4.987   0.165   1.465 -0.8203  0.1179  1.2758
 6472TIP3   OH219421   0.016   4.609   2.864 -0.1346  0.0904  0.1756
 6472TIP3    H119422   0.056   4.659   2.793  0.6600 -0.8853 -0.0925
 6472TIP3    H219423  -0.057   4.562   2.822 -0.5816  0.6317  0.3281
 6473TIP3   OH219424   1.945   4.319   3.111  0.0031  0.3168 -0.0050
 6473TIP3    H119425   1.951   4.346   3.203 -1.4096  0.4177  0.0755
 6473TIP3    H219426   1.903   4.393   3.067 -0.9183 -0.4105 -0.3865
 6474TIP3   OH219427   1.115   3.697   1.296 -0.7545  0.6612 -0.1147
 6474TIP3    H119428   1.095   3.789   1.313  0.9550  0.9842  0.4113
 6474TIP3    H219429   1.145   3.695   1.205  0.8167  0.9577  0.3690
 6475TIP3   OH219430   5.597   3.009   5.185  0.8386 -0.6895  0.2122
 6475TIP3    H119431   5.597   2.940   5.250 -1.9589 -0.0477  1.0396
 6475TIP3    H219432   5.528   2.984   5.123  1.5894  0.0575 -0.9570
 6476TIP3   OH219433   4.556   3.137   0.860  0.2318  0.8179  0.1863
 6476TIP3    H119434   4.506   3.056   0.869  0.1782  0.4546 -2.5843
 6476TIP3    H219435   4.490   3.204   0.844  0.3339  1.3302  1.7306
 6477TIP3   OH219436   0.567   4.896   1.604 -0.1363 -0.9978  0.0730
 6477TIP3    H119437   0.644   4.841   1.622  1.1726  0.8079  0.2173
 6477TIP3    H219438   0.540   4.871   1.515  1.4145 -0.7658 -0.4900
 6478TIP3   OH219439   1.746   2.411   0.966 -0.1387 -0.1657 -0.2753
 6478TIP3    H119440   1.783   2.457   0.891  1.8073 -0.3439  0.5266
 6478TIP3    H219441   1.743   2.319   0.939  2.1314 -0.4922  0.3787
 6479TIP3   OH219442   2.330   0.701   2.705 -0.0672 -0.4666 -0.2346
 6479TIP3    H119443   2.352   0.791   2.681  0.1726 -0.5249 -0.2347
 6479TIP3    H219444   2.237   0.704   2.729  0.4454  0.2196  1.8578
 6480TIP3   OH219445   4.050   1.630   4.744  0.1161 -0.5172 -0.1900
 6480TIP3    H119446   4.112   1.578   4.692 -0.1409 -1.2496  0.2171
 6480TIP3    H219447   3.975   1.572   4.756  0.6911 -0.8904  2.1047
 6481TIP3   OH219448   5.869   0.354   4.543  0.3617 -0.2318 -0.2971
 6481TIP3    H119449   5.933   0.393   4.603  0.3849 -0.2150 -0.3322
 6481TIP3    H219450   5.788   0.351   4.593  0.2854  0.1359 -0.3921
 6482TIP3   OH219451   5.619   1.866   3.576  0.0772  0.7460  0.0105
 6482TIP3    H119452   5.581   1.819   3.502  0.8358  0.5192 -0.2493
 6482TIP3    H219453   5.643   1.797   3.638  3.0709  0.5172 -1.2338
 6483TIP3   OH219454   6.251   0.823   1.952 -0.5104  0.0972 -0.6699
 6483TIP3    H119455   6.159   0.835   1.977 -0.0641  1.0010  0.6881
 6483TIP3    H219456   6.273   0.735   1.982 -0.9528 -0.1621 -1.0951
 6484TIP3   OH219457   0.386   4.048   2.963 -0.1787  0.2987 -0.1513
 6484TIP3    H119458   0.419   4.065   3.051  1.2970  2.3549 -1.0324
 6484TIP3    H219459   0.291   4.059   2.970 -0.0555  0.6340  1.1155
 6485TIP3   OH219460   0.719   3.530   4.238  0.5232  0.0159  0.1868
 6485TIP3    H119461   0.723   3.451   4.184  0.0560  0.1498 -0.0502
 6485TIP3    H219462   0.750   3.502   4.324  0.8548 -0.3005 -0.0322
 6486TIP3   OH219463   0.987   5.894   2.447  0.0937  0.3866 -0.5244
 6486TIP3    H119464   1.006   5.816   2.501  0.5226 -1.1366 -2.7427
 6486TIP3    H219465   1.052   5.958   2.475  1.6918 -1.0979 -0.6644
 6487TIP3   OH219466   4.577   2.378   3.593  0.0921  0.0219  0.1840
 6487TIP3    H119467   4.495   2.398   3.549  0.1042 -0.8598 -0.2647
 6487TIP3    H219468   4.643   2.383   3.524  0.0683 -1.6904 -0.0057
 6488TIP3   OH219469   2.414   4.358   0.310 -0.7666  0.1743  0.0247
 6488TIP3    H119470   2.402   4.398   0.396  0.1349  0.6125 -0.0493
 6488TIP3    H219471   2.467   4.281   0.327  0.0138  0.6496 -0.2258
 6489TIP3   OH219472   1.627   4.126   1.458  0.3675 -0.0235  0.3920
 6489TIP3    H119473   1.560   4.105   1.393  0.6939 -1.5221  0.5106
 6489TIP3    H219474   1.710   4.113   1.412  0.6392  2.2765  0.0984
 6490TIP3   OH219475   5.820   2.321   1.054 -0.0547  0.1284  0.0499
 6490TIP3    H119476   5.798   2.266   1.130 -0.1481 -0.7997 -0.6248
 6490TIP3    H219477   5.911   2.299   1.035  0.3928  1.3401  0.6786
 6491TIP3   OH219478   5.087   0.547   0.670  0.0452 -0.2166 -0.4390
 6491TIP3    H119479   5.182   0.559   0.680 -0.1624  2.6469 -1.0095
 6491TIP3    H219480   5.073   0.540   0.576 -0.3662  0.3839 -0.4318
 6492TIP3   OH219481   2.579   2.869   0.145 -0.0593  0.9290 -0.2560
 6492TIP3    H119482   2.645   2.938   0.159  0.0673  0.8650 -0.5287
 6492TIP3    H219483   2.495   2.915   0.147  0.0735  1.2681 -1.5031
 6493TIP3   OH219484   1.752   5.004   3.258  0.0629 -0.3013  0.2954
 6493TIP3    H119485   1.660   4.990   3.233 -0.2334 -0.0013  1.1675
 6493TIP3    H219486   1.799   4.933   3.215 -0.7723 -1.2494  0.8906
 6494TIP3   OH219487   2.985   1.001   1.534 -0.2112 -0.1695 -0.3443
 6494TIP3    H119488   2.972   1.011   1.439  0.3786 -2.2329 -0.6893
 6494TIP3    H219489   3.071   1.039   1.551 -2.3714  5.2530  0.4178
 6495TIP3   OH219490   1.404   3.989   2.743 -0.0687 -0.0152 -0.3301
 6495TIP3    H119491   1.468   4.031   2.685 -0.5096  0.5286 -0.4450
 6495TIP3    H219492   1.335   4.055   2.752 -0.3901 -0.4158  0.1589
 6496TIP3   OH219493   3.633   2.536   1.234 -0.1257  0.3546 -0.1988
 6496TIP3    H119494   3.638   2.626   1.201  1.9782  0.0909 -0.7412
 6496TIP3    H219495   3.701   2.490   1.186  0.4770 -0.9575  1.8305
 6497TIP3   OH219496   0.515   0.804   3.933 -0.2781 -0.8266 -0.3194
 6497TIP3    H119497   0.482   0.886   3.970 -0.8866 -1.1552 -0.1179
 6497TIP3    H219498   0.525   0.746   4.009  1.0369 -0.6624 -0.3333
 6498TIP3   OH219499   4.389   3.368   3.756  0.3957  0.1708 -0.3152
 6498TIP3    H119500   4.405   3.324   3.673 -1.6325  0.9061 -1.1630
 6498TIP3    H219501   4.413   3.304   3.822 -0.2352 -1.3440 -1.4842
 6499TIP3   OH219502   0.582   5.312   0.074 -0.6865  0.0369 -0.0665
 6499TIP3    H119503   0.613   5.255   0.144 -2.7403 -0.6177  0.3707
 6499TIP3    H219504   0.596   5.401   0.107 -0.7153 -0.2545  0.7466
 6500TIP3   OH219505   4.070   1.285   3.792  0.4197  0.1969 -0.4101
 6500TIP3    H119506   4.007   1.308   3.860 -1.2632 -2.2483 -0.9925
 6500TIP3    H219507   4.089   1.192   3.808  0.7428 -0.1759 -2.6370
 6501TIP3   OH219508   2.865   2.399   3.068 -0.4057  0.1899  0.8523
 6501TIP3    H119509   2.922   2.374   3.141  0.1828  1.8187  0.9884
 6501TIP3    H219510   2.820   2.318   3.044  1.1558 -0.9130  1.4524
 6502TIP3   OH219511   1.127   5.781   3.942  0.4794 -0.5779  0.4177
 6502TIP3    H119512   1.203   5.840   3.944  0.5870 -0.5602 -1.6434
 6502TIP3    H219513   1.165   5.694   3.958  1.0042 -0.5934 -0.7784
 6503TIP3   OH219514   1.638   5.870   0.772  0.5706 -0.8026  0.2408
 6503TIP3    H119515   1.610   5.809   0.840 -0.4328 -0.8019 -0.1470
 6503TIP3    H219516   1.652   5.814   0.695  1.3154 -0.7526  0.3324
 6504TIP3   OH219517   2.116   3.685   1.902 -0.1611 -0.1068 -0.1365
 6504TIP3    H119518   2.139   3.592   1.908 -1.3421 -0.3755  0.6737
 6504TIP3    H219519   2.104   3.700   1.808 -1.2116 -1.1185 -0.1924
 6505TIP3   OH219520   1.334   3.022   3.421 -0.4801 -0.2476 -0.3497
 6505TIP3    H119521   1.424   3.024   3.391 -0.2423  1.6198  0.3687
 6505TIP3    H219522   1.338   2.980   3.507 -0.1135  0.8675  0.1867
 6506TIP3   OH219523   1.982   4.827   0.026 -0.3550 -0.1228  0.0677
 6506TIP3    H119524   1.899   4.858   0.062 -0.3642 -0.6883  0.5430
 6506TIP3    H219525   2.049   4.877   0.072 -0.3452 -1.1621  1.2202
 6507TIP3   OH219526   3.769   4.889   3.664 -0.3420  0.2339 -0.7938
 6507TIP3    H119527   3.771   4.803   3.707 -0.3764  0.9974  0.7925
 6507TIP3    H219528   3.717   4.875   3.585 -1.8024 -0.8294  0.3056
 6508TIP3   OH219529   0.641   2.879   3.985  0.1085 -0.1788 -0.5094
 6508TIP3    H119530   0.638   2.968   4.018  1.0449 -0.5868  0.7475
 6508TIP3    H219531   0.556   2.866   3.942  0.0126  1.3317 -0.8234
 6509TIP3   OH219532   0.392   1.830   3.902  0.3593  0.0588  0.0277
 6509TIP3    H119533   0.437   1.878   3.971 -0.2451  0.8437 -0.1019
 6509TIP3    H219534   0.341   1.897   3.856 -0.0911 -0.6260 -0.4929
 6510TIP3   OH219535   4.992   0.476   3.113  0.4918  0.1008 -0.0350
 6510TIP3    H119536   4.904   0.458   3.147  0.4904 -1.0728 -0.6153
 6510TIP3    H219537   4.978   0.510   3.025  0.6314 -0.3719 -0.2397
 6511TIP3   OH219538   0.349   1.114   0.137  0.4589 -0.4611  0.2016
 6511TIP3    H119539   0.377   1.193   0.090  0.6697  0.8831  2.4517
 6511TIP3    H219540   0.260   1.134   0.166  0.5118 -1.0438  0.7772
 6512TIP3   OH219541   5.996   0.593   3.325  0.4137 -0.2945  0.0348
 6512TIP3    H119542   5.932   0.522   3.333 -0.4638  0.1661 -2.0250
 6512TIP3    H219543   5.945   0.672   3.343  0.6138  0.0103 -0.7112
 6513TIP3   OH219544   2.729   4.147   2.340 -0.3737  0.0601 -0.2488
 6513TIP3    H119545   2.720   4.241   2.327 -3.0581 -0.0656  0.2101
 6513TIP3    H219546   2.735   4.136   2.435 -3.8149 -0.3549  0.0424
 6514TIP3   OH219547   2.540   3.047   4.101  0.3759 -0.2411 -0.0113
 6514TIP3    H119548   2.590   2.966   4.099  0.6486 -0.0653 -1.1470
 6514TIP3    H219549   2.602   3.113   4.133  0.1762 -0.4549  0.8357
 6515TIP3   OH219550   3.430   3.605   2.975  0.7532 -0.3064 -0.4530
 6515TIP3    H119551   3.391   3.552   3.045  2.0668 -0.0746  0.5110
 6515TIP3    H219552   3.502   3.651   3.018  1.0129  0.5729 -1.7705
 6516TIP3   OH219553   0.968   5.141   3.690  0.4663 -0.4193 -0.1157
 6516TIP3    H119554   0.979   5.048   3.711 -1.6049 -0.4720  0.9234
 6516TIP3    H219555   1.025   5.187   3.751  2.1367 -0.9890 -1.1727
 6517TIP3   OH219556   5.798   0.132   3.771 -0.2455  0.3588  0.1846
 6517TIP3    H119557   5.727   0.163   3.828 -1.2138 -0.3856 -0.5704
 6517TIP3    H219558   5.820   0.046   3.805 -0.8974 -0.1321 -0.5948
 6518TIP3   OH219559   1.396   3.014   5.193  0.4494 -0.8811 -0.3369
 6518TIP3    H119560   1.464   2.981   5.253 -0.1056 -2.0621 -0.3298
 6518TIP3    H219561   1.445   3.065   5.129  1.1875 -0.5449  0.4616
 6519TIP3   OH219562   1.790   5.537   2.455  0.2176  0.3945  0.1629
 6519TIP3    H119563   1.713   5.593   2.446 -1.1495 -1.5410 -0.8833
 6519TIP3    H219564   1.837   5.547   2.373  0.1134  0.2153  0.0810
 6520TIP3   OH219565   3.319   4.038   1.125 -0.2624 -0.7697  0.0658
 6520TIP3    H119566   3.387   3.989   1.078 -1.4162 -0.6831 -1.8206
 6520TIP3    H219567   3.273   4.086   1.056 -3.7718 -2.6959  0.8488
 6521TIP3   OH219568   4.472   3.801   5.101  0.4418  0.0244  0.2509
 6521TIP3    H119569   4.560   3.788   5.067  0.6704  0.2063  0.7641
 6521TIP3    H219570   4.454   3.722   5.152 -0.2231 -0.6286 -0.9460
 6522TIP3   OH219571   6.033   2.158   1.428  0.0354  0.0707 -0.7348
 6522TIP3    H119572   6.021   2.220   1.500 -0.2827 -0.6606 -0.1418
 6522TIP3    H219573   6.127   2.143   1.425  0.1006  0.4847 -0.7975
 6523TIP3   OH219574   3.645   2.240   1.496  0.1407 -0.1130 -0.0802
 6523TIP3    H119575   3.638   2.208   1.406 -0.5648  0.8825 -0.3974
 6523TIP3    H219576   3.560   2.279   1.514 -0.5226 -2.2436  1.8212
 6524TIP3   OH219577   5.894   1.548   0.468 -0.4054 -0.1674  0.6626
 6524TIP3    H119578   5.933   1.525   0.552  1.4558  0.1291 -0.0741
 6524TIP3    H219579   5.845   1.469   0.442  0.9916 -1.1601  0.9208
 6525TIP3   OH219580   0.312   0.476   1.633 -0.2850 -0.3031 -0.3277
 6525TIP3    H119581   0.289   0.477   1.725  0.4913 -1.0959 -0.1115
 6525TIP3    H219582   0.240   0.520   1.589 -0.4870  0.4012  0.6915
 6526TIP3   OH219583   2.052   3.752   3.230  0.3674  0.3963  0.1662
 6526TIP3    H119584   2.130   3.799   3.201 -0.8089  2.0847 -0.4407
 6526TIP3    H219585   2.004   3.732   3.150 -0.7012  1.0305  0.6238
 6527TIP3   OH219586   4.522   5.575   5.062 -0.2908  1.0114  0.2386
 6527TIP3    H119587   4.454   5.567   5.128 -0.1685 -0.7129  0.2174
 6527TIP3    H219588   4.597   5.527   5.100  0.2970  1.3416 -0.4856
 6528TIP3   OH219589   5.063   0.639   4.792  0.3485 -0.1601  0.4224
 6528TIP3    H119590   5.047   0.668   4.702  1.9943  0.0676  0.1828
 6528TIP3    H219591   5.155   0.616   4.794 -0.5497 -4.7021  0.8401
 6529TIP3   OH219592   1.492   1.732   1.512  0.0386 -0.1198 -0.2906
 6529TIP3    H119593   1.459   1.791   1.445 -0.3594  1.4462  1.1976
 6529TIP3    H219594   1.413   1.692   1.550  0.1754 -0.0773  0.0456
 6530TIP3   OH219595   0.102   3.641   2.005  0.3770  0.3999  0.3249
 6530TIP3    H119596   0.163   3.634   1.931  0.6776  1.3833  0.4650
 6530TIP3    H219597   0.015   3.632   1.965  0.5575  0.4013 -0.0757
 6531TIP3   OH219598   6.214   5.424   4.720  0.3117 -0.4077  0.4360
 6531TIP3    H119599   6.305   5.424   4.692  0.2244  0.7424  0.1300
 6531TIP3    H219600   6.165   5.461   4.646  0.2034  3.8511  2.3351
 6532TIP3   OH219601   1.452   2.452   4.571  0.2453 -0.3855 -0.2708
 6532TIP3    H119602   1.363   2.465   4.604  0.6531  1.1279  0.2852
 6532TIP3    H219603   1.441   2.396   4.494 -1.0849 -0.9852  0.3230
 6533TIP3   OH219604   5.573   4.870   2.565  0.1124  0.2778  0.3947
 6533TIP3    H119605   5.507   4.803   2.548  0.4138 -0.0493  0.4956
 6533TIP3    H219606   5.655   4.821   2.572  0.4197  0.7128 -0.0938
 6534TIP3   OH219607   2.975   4.230   1.802  0.4269  0.2500 -0.0082
 6534TIP3    H119608   2.976   4.282   1.883 -0.5740 -0.6083  0.5948
 6534TIP3    H219609   3.064   4.199   1.792  0.1379 -1.4555  2.0342
 6535TIP3   OH219610   1.411   3.888   3.742  0.2178  0.0735 -0.2965
 6535TIP3    H119611   1.419   3.856   3.652  2.5041 -1.0716  0.2337
 6535TIP3    H219612   1.468   3.830   3.793  0.8002  2.0898  1.5168
 6536TIP3   OH219613   4.515   3.191   3.908 -0.1999  0.4854 -0.1200
 6536TIP3    H119614   4.528   3.102   3.943  0.2841  1.0121  1.1030
 6536TIP3    H219615   4.594   3.238   3.934 -1.2235  1.7503  0.8037
 6537TIP3   OH219616   3.742   4.827   3.385 -0.7090  0.2769 -0.4312
 6537TIP3    H119617   3.701   4.778   3.312  1.0619 -1.4329 -0.3506
 6537TIP3    H219618   3.822   4.863   3.347 -0.3881  0.4028  0.3593
 6538TIP3   OH219619   5.899   3.825   1.291 -0.0888 -0.2702  0.1621
 6538TIP3    H119620   5.922   3.914   1.268 -0.6784  0.2812  1.5400
 6538TIP3    H219621   5.838   3.797   1.223  1.9675 -0.5682 -1.6689
 6539TIP3   OH219622   0.574   2.566   3.589  0.3373 -0.1099  0.1178
 6539TIP3    H119623   0.633   2.490   3.589  0.1804 -0.2363  0.7477
 6539TIP3    H219624   0.622   2.634   3.636  0.5503  0.2520 -0.5990
 6540TIP3   OH219625   5.332   2.975   0.913 -0.0565  0.4578 -0.0256
 6540TIP3    H119626   5.390   2.915   0.868 -1.0505 -1.0597  0.6489
 6540TIP3    H219627   5.247   2.963   0.872 -0.7511 -0.2156  1.5035
 6541TIP3   OH219628   1.046   5.751   3.206 -0.2438 -0.4070 -0.4628
 6541TIP3    H119629   1.049   5.658   3.186 -2.5630 -0.2126 -2.1959
 6541TIP3    H219630   0.969   5.783   3.159 -0.4725  2.0848  1.3843
 6542TIP3   OH219631   1.836   4.275   1.667  0.1364  0.1162 -0.0447
 6542TIP3    H119632   1.930   4.294   1.676 -0.0412  0.1691  2.1557
 6542TIP3    H219633   1.833   4.193   1.618  1.3964 -0.3349  0.5823
 6543TIP3   OH219634   5.709   3.057   0.096 -0.1734 -0.2072  0.0239
 6543TIP3    H119635   5.681   3.040   0.187  1.0723 -1.6143  0.1768
 6543TIP3    H219636   5.715   2.970   0.056  1.0367  0.2576 -0.8676
 6544TIP3   OH219637   1.983   0.121   1.975 -0.2285  0.2449 -0.4353
 6544TIP3    H119638   2.062   0.120   1.921  0.6251 -0.2028  0.7834
 6544TIP3    H219639   1.971   0.030   2.000 -0.4261  0.4933  0.3852
 6545TIP3   OH219640   0.040   0.464   2.286 -0.3561  0.3286 -0.3969
 6545TIP3    H119641   0.133   0.443   2.285  0.0085  1.7812 -0.4825
 6545TIP3    H219642  -0.004   0.381   2.269  0.9402 -0.2944 -0.8514
 6546TIP3   OH219643   5.054   0.702   4.517 -0.3194 -0.1657  0.4698
 6546TIP3    H119644   4.978   0.751   4.486  0.5056 -0.1341 -1.7106
 6546TIP3    H219645   5.061   0.629   4.455  1.8396  0.2585  0.1428
 6547TIP3   OH219646   1.767   1.460   4.145  0.3175  0.2799  0.2148
 6547TIP3    H119647   1.695   1.493   4.092 -2.2419 -1.4456  2.3755
 6547TIP3    H219648   1.828   1.534   4.151 -0.1605  1.1610 -3.3707
 6548TIP3   OH219649   5.415   2.377   5.196  0.5465 -0.1913 -0.0736
 6548TIP3    H119650   5.324   2.375   5.226  0.8431 -1.7494  0.8234
 6548TIP3    H219651   5.409   2.403   5.104 -0.8634 -0.7929 -0.1776
 6549TIP3   OH219652   5.113   3.877   2.753  0.2695 -0.0088 -0.7721
 6549TIP3    H119653   5.052   3.917   2.815  0.5016  0.6333 -0.9468
 6549TIP3    H219654   5.163   3.814   2.804  1.5801  1.6447  0.0967
 6550TIP3   OH219655   5.921   5.292   0.344 -0.4570 -0.2114  0.3748
 6550TIP3    H119656   5.877   5.331   0.268  2.4468  0.5572 -1.0502
 6550TIP3    H219657   5.918   5.360   0.411 -0.3570  0.3186 -0.1452
 6551TIP3   OH219658   3.191   3.005   2.680  0.0175 -0.4667 -0.4903
 6551TIP3    H119659   3.164   2.959   2.759  1.9788  1.1709  1.2532
 6551TIP3    H219660   3.278   2.969   2.661 -0.0786 -0.2322 -1.4289
 6552TIP3   OH219661   1.371   0.190   4.156 -0.1047  0.3087  0.5136
 6552TIP3    H119662   1.448   0.228   4.115 -0.0697  0.7476  0.9764
 6552TIP3    H219663   1.312   0.264   4.170 -0.8765 -0.1098 -0.3936
 6553TIP3   OH219664   5.184   0.877   2.893  0.0401 -0.1263  0.0502
 6553TIP3    H119665   5.185   0.783   2.878  1.1985 -0.3303  1.1939
 6553TIP3    H219666   5.259   0.893   2.949 -0.2108  1.4722 -0.0170
 6554TIP3   OH219667   1.365   0.927   1.124 -0.1514  0.0828  0.2716
 6554TIP3    H119668   1.311   0.930   1.203 -1.1001  1.7371 -0.3782
 6554TIP3    H219669   1.403   1.015   1.118  0.6117 -0.2940 -0.6433
 6555TIP3   OH219670   3.486   3.516   4.771  0.3803 -0.2166  0.1069
 6555TIP3    H119671   3.519   3.486   4.856 -0.2407  1.6376  1.0422
 6555TIP3    H219672   3.392   3.500   4.776  0.3393 -0.0752 -0.2247
 6556TIP3   OH219673   1.498   3.793   1.117 -0.3847  0.0396 -0.2273
 6556TIP3    H119674   1.533   3.704   1.111 -0.0492  0.0908  0.7724
 6556TIP3    H219675   1.559   3.846   1.065  0.5364 -0.0191  0.7621
 6557TIP3   OH219676   4.599   3.700   4.160  0.7013  0.1322 -0.0379
 6557TIP3    H119677   4.666   3.634   4.177  0.6960  0.4193  1.2081
 6557TIP3    H219678   4.526   3.652   4.121  1.1051 -0.4150 -0.1209
 6558TIP3   OH219679   5.004   1.785   2.350 -0.2222  0.3131  0.6378
 6558TIP3    H119680   4.964   1.751   2.430  0.2217  1.7673  1.5168
 6558TIP3    H219681   5.042   1.869   2.376 -1.0116  1.3548 -1.3501
 6559TIP3   OH219682   0.875   1.029   0.568 -0.0273  0.1212  0.2768
 6559TIP3    H119683   0.876   1.124   0.559 -0.4935  0.1346  0.3316
 6559TIP3    H219684   0.957   1.000   0.530 -0.4298  0.4509 -0.8682
 6560TIP3   OH219685  -0.002   1.279   3.303  0.5156 -0.4632  0.1220
 6560TIP3    H119686  -0.044   1.354   3.262  0.6361  0.0625  0.9364
 6560TIP3    H219687   0.082   1.270   3.258  1.8994  1.8336  2.0119
 6561TIP3   OH219688   5.769   1.676   5.168 -0.3251 -0.0753  0.0758
 6561TIP3    H119689   5.812   1.600   5.129  0.8092  1.3557 -1.6524
 6561TIP3    H219690   5.819   1.694   5.247  0.7239  0.0766 -0.5983
 6562TIP3   OH219691   2.627   3.822   3.177 -0.0136  0.1929  0.0265
 6562TIP3    H119692   2.721   3.820   3.156  0.6808 -1.4047  2.7968
 6562TIP3    H219693   2.588   3.755   3.121  1.0052 -0.9964  0.6860
 6563TIP3   OH219694   0.218   5.429   2.076  0.2576  0.3061 -0.3890
 6563TIP3    H119695   0.159   5.385   2.015  1.3760 -0.4781 -0.9542
 6563TIP3    H219696   0.161   5.483   2.131 -0.9218 -0.1097 -1.1703
 6564TIP3   OH219697   1.863   1.298   1.456 -0.1783 -0.3504 -0.4683
 6564TIP3    H119698   1.883   1.337   1.370 -0.0451 -0.6183 -0.5594
 6564TIP3    H219699   1.815   1.218   1.436 -0.0731 -0.4582 -0.2967
 6565TIP3   OH219700   5.679   4.536   4.944 -0.1368 -0.0365  0.0164
 6565TIP3    H119701   5.746   4.505   4.882 -0.5105 -1.4691  0.2811
 6565TIP3    H219702   5.697   4.486   5.024 -0.4689  0.8405  0.6452
 6566TIP3   OH219703   2.581   0.794   5.015  0.2384  0.6443  0.8572
 6566TIP3    H119704   2.586   0.744   4.934 -0.1085  0.2263  1.0856
 6566TIP3    H219705   2.494   0.834   5.012  0.6518  1.5409  0.5051
 6567TIP3   OH219706   4.417   4.425   3.798  0.7122 -0.0593  0.3328
 6567TIP3    H119707   4.412   4.519   3.813 -0.2595  0.3164 -1.9251
 6567TIP3    H219708   4.331   4.391   3.824  1.2470 -0.4558  1.6784
 6568TIP3   OH219709   3.394   1.888   1.060  0.1647  0.0086 -0.0296
 6568TIP3    H119710   3.478   1.918   1.096  0.1231 -1.0498  1.0213
 6568TIP3    H219711   3.412   1.873   0.967  0.6893  1.3326 -0.1676
 6569TIP3   OH219712   2.066   1.761   3.490 -0.3164 -0.1305 -0.5162
 6569TIP3    H119713   2.026   1.785   3.573 -1.3069 -0.1141 -0.9873
 6569TIP3    H219714   2.091   1.669   3.501  2.7880  0.7627  1.0189
 6570TIP3   OH219715   1.307   3.286   3.326  0.0435  0.1041 -0.1349
 6570TIP3    H119716   1.234   3.281   3.264 -0.6217 -1.5021  0.7155
 6570TIP3    H219717   1.304   3.203   3.373  1.0030  0.9706  1.5413
 6571TIP3   OH219718   5.790   3.420   2.055 -0.0325 -0.0202  0.0184
 6571TIP3    H119719   5.763   3.337   2.095 -1.7930  0.9073  0.8567
 6571TIP3    H219720   5.823   3.472   2.128  0.1306  0.3912 -0.3419
 6572TIP3   OH219721   5.199   1.203   4.248 -0.5667 -0.0710 -0.4767
 6572TIP3    H119722   5.202   1.181   4.155 -1.0256 -0.4015 -0.4150
 6572TIP3    H219723   5.148   1.133   4.288  1.4622 -1.1636  0.3791
 6573TIP3   OH219724   1.594   4.558   4.623 -0.1771 -0.5336  0.1994
 6573TIP3    H119725   1.516   4.580   4.572 -0.4223  0.2524  0.8953
 6573TIP3    H219726   1.561   4.523   4.705  0.2101 -0.8840  0.2090
 6574TIP3   OH219727   4.361   3.487   2.319 -0.1178  0.2595  0.2091
 6574TIP3    H119728   4.451   3.486   2.287 -0.9902 -0.6402 -2.5553
 6574TIP3    H219729   4.353   3.408   2.373  0.4456 -0.3556 -0.5835
 6575TIP3   OH219730   2.569   0.536   3.892 -0.7008  0.1324 -0.6146
 6575TIP3    H119731   2.619   0.508   3.815 -1.0157  1.5982 -1.3836
 6575TIP3    H219732   2.493   0.478   3.893 -0.6702  0.0673 -1.3840
 6576TIP3   OH219733   3.932   3.417   1.561 -0.1729 -0.3737  0.2579
 6576TIP3    H119734   3.859   3.467   1.525  1.1450 -0.3336 -2.6757
 6576TIP3    H219735   3.892   3.351   1.617 -2.2101  1.3987  1.0224
 6577TIP3   OH219736   4.888   5.348   0.137  0.0531  0.2695 -1.2494
 6577TIP3    H119737   4.954   5.358   0.206 -1.3157  0.3697  0.0819
 6577TIP3    H219738   4.907   5.263   0.098 -0.3965 -0.7779  0.6686
 6578TIP3   OH219739   3.106   0.224   3.626  0.1879 -0.6375  0.1015
 6578TIP3    H119740   3.153   0.242   3.544  1.4850  3.7640  1.5575
 6578TIP3    H219741   3.175   0.215   3.692 -0.8903 -1.6866  1.1328
 6579TIP3   OH219742   4.338   4.140   0.325  0.3947 -0.0110 -0.2056
 6579TIP3    H119743   4.348   4.096   0.240 -0.6786  0.0382 -0.3742
 6579TIP3    H219744   4.245   4.133   0.344  0.5407  0.4612  0.7215
 6580TIP3   OH219745   0.601   1.637   4.079  0.4329 -0.0117 -0.1593
 6580TIP3    H119746   0.559   1.699   4.138  0.8238  0.0586  0.0481
 6580TIP3    H219747   0.679   1.683   4.047  0.7103 -0.3821 -0.0239
 6581TIP3   OH219748   1.663   1.139   3.031  0.4428  0.1871 -0.3431
 6581TIP3    H119749   1.667   1.185   3.115  0.0077 -0.4617  0.0501
 6581TIP3    H219750   1.722   1.064   3.042 -1.4895 -1.3522  0.3477
 6582TIP3   OH219751   2.852   4.172   1.516  0.4357 -0.2223  0.1090
 6582TIP3    H119752   2.861   4.194   1.609 -2.7735 -0.3313  0.5442
 6582TIP3    H219753   2.867   4.077   1.513 -0.9018 -0.4749  0.7964
 6583TIP3   OH219754   0.618   5.511   5.148  0.2848 -0.6250 -0.4142
 6583TIP3    H119755   0.585   5.511   5.058 -2.7789  0.1916  0.5937
 6583TIP3    H219756   0.585   5.429   5.185  0.5691 -0.4300  0.2750
 6584TIP3   OH219757   1.260   2.258   3.345 -0.2446  0.0162  1.1594
 6584TIP3    H119758   1.322   2.186   3.333 -0.6502 -0.4194  1.6252
 6584TIP3    H219759   1.178   2.215   3.369 -1.4297  0.3896 -1.7825
 6585TIP3   OH219760   5.669   1.674   0.073  0.3312 -0.1373  0.3005
 6585TIP3    H119761   5.703   1.646  -0.012  0.2701  0.7873 -0.0470
 6585TIP3    H219762   5.744   1.669   0.132  0.4421 -0.5169  0.1333
 6586TIP3   OH219763   1.720   2.555   4.235 -0.0972 -0.3165  0.0662
 6586TIP3    H119764   1.710   2.566   4.330 -1.0062  3.3970 -0.3076
 6586TIP3    H219765   1.644   2.503   4.209 -0.8137  0.1402  1.1668
 6587TIP3   OH219766   4.657   0.105   1.366 -0.2288  0.4861  0.3148
 6587TIP3    H119767   4.624   0.106   1.456  0.9937 -0.0082  0.7797
 6587TIP3    H219768   4.684   0.014   1.351 -1.5440  0.2580 -0.9928
 6588TIP3   OH219769   0.669   5.359   3.673  0.9231  0.0549 -0.0434
 6588TIP3    H119770   0.583   5.321   3.657  0.1834  2.4957 -2.9279
 6588TIP3    H219771   0.652   5.452   3.690  2.8704  0.1093  2.1377
 6589TIP3   OH219772   0.015   2.444   4.588 -0.5487 -0.7049 -0.3671
 6589TIP3    H119773   0.002   2.421   4.680 -1.5436  0.1511 -0.2844
 6589TIP3    H219774   0.099   2.490   4.586 -0.4687 -0.8254  0.0861
 6590TIP3   OH219775   0.798   4.484   4.128  0.8655  0.2722  0.9161
 6590TIP3    H119776   0.878   4.452   4.085  0.0592 -0.3444 -0.1896
 6590TIP3    H219777   0.727   4.456   4.070  0.0169  3.7291 -0.0047
 6591TIP3   OH219778   0.539   4.238   4.216  0.4446  0.2781  0.2250
 6591TIP3    H119779   0.542   4.198   4.129  2.6933 -0.5472  0.6197
 6591TIP3    H219780   0.477   4.184   4.265 -2.8975  2.2560 -1.4446
 6592TIP3   OH219781   5.736   5.044   4.524  0.3747  0.3192  0.5603
 6592TIP3    H119782   5.772   5.132   4.526 -2.3998  1.6478 -1.1072
 6592TIP3    H219783   5.736   5.020   4.431 -2.7834  0.4376  0.4228
 6593TIP3   OH219784   6.120   3.237   0.966 -0.3334 -0.2335 -0.4326
 6593TIP3    H119785   6.044   3.224   1.023  0.0310  0.5767  0.2664
 6593TIP3    H219786   6.160   3.150   0.959 -0.6327 -0.4272  0.2060
 6594TIP3   OH219787   3.392   0.587   0.674 -0.2889  0.0144  0.2041
 6594TIP3    H119788   3.414   0.649   0.743  1.3864  1.8886 -1.8733
 6594TIP3    H219789   3.449   0.512   0.690 -0.3335  0.1619  1.1397
 6595TIP3   OH219790   3.496   1.879   4.047 -0.0032 -0.5845  0.0784
 6595TIP3    H119791   3.462   1.802   4.092 -0.8205 -1.0034 -1.2196
 6595TIP3    H219792   3.506   1.852   3.956  0.4525  0.6117 -0.2495
 6596TIP3   OH219793   2.701   0.285   1.145  0.0996  0.0502  0.3002
 6596TIP3    H119794   2.640   0.286   1.071 -2.0122 -0.7082  1.9257
 6596TIP3    H219795   2.645   0.288   1.223  2.1782 -0.0579  1.9025
 6597TIP3   OH219796   4.041   5.388   2.285  0.1102  0.2967 -0.4932
 6597TIP3    H119797   3.997   5.373   2.201 -1.3539  0.9976  0.1187
 6597TIP3    H219798   3.971   5.407   2.346  1.2539  1.0707  0.6301
 6598TIP3   OH219799   4.704   4.055   0.198 -0.0798  0.0836 -0.1111
 6598TIP3    H119800   4.662   3.994   0.137  0.1716 -0.5445  0.3242
 6598TIP3    H219801   4.734   4.127   0.143  2.5605 -1.7023 -1.2716
 6599TIP3   OH219802   1.062   0.021   3.744  0.4803 -0.1969  0.4137
 6599TIP3    H119803   1.023   0.046   3.828 -1.7625 -1.7507 -0.0691
 6599TIP3    H219804   0.990   0.031   3.681  0.8569 -3.0524 -0.5722
 6600TIP3   OH219805   0.453   1.921   2.481 -0.5825  0.2014  0.4285
 6600TIP3    H119806   0.494   1.834   2.480 -1.8061 -0.3900 -0.3456
 6600TIP3    H219807   0.497   1.967   2.553 -0.3783 -1.2776  1.2987
 6601TIP3   OH219808   2.731   4.628   0.214 -0.4014  0.0327 -0.1553
 6601TIP3    H119809   2.773   4.695   0.161  1.5843  0.2206  1.5140
 6601TIP3    H219810   2.788   4.620   0.291 -1.6420 -2.1919  0.6055
 6602TIP3   OH219811   0.399   2.533   1.721 -0.7485  0.2061  0.8249
 6602TIP3    H119812   0.335   2.514   1.652 -1.6154  1.0027  1.3834
 6602TIP3    H219813   0.447   2.609   1.688 -0.4913 -0.0254  0.6655
 6603TIP3   OH219814   3.493   2.009   3.005  0.5757 -0.2169 -0.0226
 6603TIP3    H119815   3.415   1.982   3.055 -0.8870  1.6209 -1.1777
 6603TIP3    H219816   3.565   1.998   3.066 -0.9239  0.3999  1.9698
 6604TIP3   OH219817   2.898   5.400   1.098 -0.2465  0.1802 -0.4732
 6604TIP3    H119818   2.951   5.348   1.038  0.5745  0.8885 -0.3816
 6604TIP3    H219819   2.820   5.422   1.048 -0.3265 -0.6298 -0.7140
 6605TIP3   OH219820   3.874   2.893   3.067  0.0908 -0.0011  0.0298
 6605TIP3    H119821   3.823   2.818   3.035 -0.6889  0.2998  0.5290
 6605TIP3    H219822   3.816   2.936   3.130  0.6707  0.8061  0.0294
 6606TIP3   OH219823   4.997   5.010   2.958  0.5200 -0.4492  0.1423
 6606TIP3    H119824   5.035   5.051   3.035 -0.0477 -0.4240  0.4139
 6606TIP3    H219825   4.939   5.077   2.921  1.0466 -0.3397 -0.5018
 6607TIP3   OH219826   1.723   1.354   0.314 -0.1054  0.3897 -0.3239
 6607TIP3    H119827   1.770   1.273   0.337  2.0963  1.0645 -2.0826
 6607TIP3    H219828   1.751   1.416   0.381 -1.0751 -0.0210  0.4910
 6608TIP3   OH219829   3.754   2.716   4.682 -0.6347 -0.4127  0.4566
 6608TIP3    H119830   3.815   2.693   4.751 -1.1501 -0.5033  0.8860
 6608TIP3    H219831   3.670   2.678   4.709 -0.3206 -2.7112 -1.4496
 6609TIP3   OH219832   4.650   4.515   1.934  0.0971  0.1387 -0.7906
 6609TIP3    H119833   4.660   4.553   1.847  0.0200 -0.9631 -1.2919
 6609TIP3    H219834   4.727   4.459   1.945  1.8928  2.7605  1.2122
 6610TIP3   OH219835   5.051   1.590   0.331  0.5721 -0.1909  0.3731
 6610TIP3    H119836   5.131   1.621   0.373  2.0357 -0.1697 -2.1867
 6610TIP3    H219837   5.079   1.515   0.278 -1.6210 -1.7702  1.3012
 6611TIP3   OH219838   5.446   3.047   4.587 -0.1086  0.2627  0.2758
 6611TIP3    H119839   5.541   3.041   4.584 -0.2152 -2.9425 -0.2142
 6611TIP3    H219840   5.428   3.098   4.666  1.9633  2.2174 -0.4166
 6612TIP3   OH219841   1.302   2.055   1.725  0.0662 -0.5215  0.5875
 6612TIP3    H119842   1.372   2.004   1.765  1.1738  0.0190 -0.5985
 6612TIP3    H219843   1.307   2.033   1.632 -0.0018  1.0661  0.1845
 6613TIP3   OH219844   0.172   2.080   1.162 -0.7845  0.2108  0.7491
 6613TIP3    H119845   0.091   2.045   1.198 -0.2430  0.4131  2.2442
 6613TIP3    H219846   0.158   2.175   1.159 -0.2069  0.3537  2.1048
 6614TIP3   OH219847   4.246   0.430   3.653 -0.9326 -0.3061  0.0963
 6614TIP3    H119848   4.164   0.460   3.691 -2.1508 -0.2245 -2.3835
 6614TIP3    H219849   4.219   0.384   3.573  1.4144 -0.6664 -0.5517
 6615TIP3   OH219850   4.685   1.153   1.896  0.9036 -0.5340  0.0767
 6615TIP3    H119851   4.711   1.103   1.819  1.6840 -1.1459  0.7128
 6615TIP3    H219852   4.756   1.139   1.958 -0.0443 -0.6647  1.1744
 6616TIP3   OH219853   4.722   4.644   0.753  0.8623 -0.1092 -0.6788
 6616TIP3    H119854   4.717   4.562   0.704 -2.5452 -0.3108 -0.2574
 6616TIP3    H219855   4.657   4.634   0.823  2.2069  1.9848  0.9793
 6617TIP3   OH219856   3.170   0.303   4.298  0.0525 -0.1973 -0.3759
 6617TIP3    H119857   3.182   0.213   4.329  0.7626  0.0024 -0.0775
 6617TIP3    H219858   3.179   0.357   4.376 -0.2296  0.1494 -0.5813
 6618TIP3   OH219859   0.150   1.888   3.119  0.0747  0.4261  0.6227
 6618TIP3    H119860   0.090   1.949   3.075  3.1301  2.5065 -0.9929
 6618TIP3    H219861   0.205   1.944   3.173  1.3512 -1.2240  1.1036
 6619TIP3   OH219862   5.203   3.931   4.479 -0.1721 -0.2174  0.2365
 6619TIP3    H119863   5.115   3.937   4.440 -0.3296  0.7338  0.7172
 6619TIP3    H219864   5.263   3.947   4.407 -0.4783  2.5662  0.5084
 6620TIP3   OH219865   3.806   4.298   4.153 -0.1351 -0.1141 -0.2478
 6620TIP3    H119866   3.755   4.365   4.198 -1.1811 -1.5538  0.8148
 6620TIP3    H219867   3.795   4.318   4.060 -3.2098 -0.6718 -0.1016
 6621TIP3   OH219868   2.357   2.050   4.926 -0.1056  0.0089  0.3104
 6621TIP3    H119869   2.345   2.012   5.013  2.8668  0.0027  0.8155
 6621TIP3    H219870   2.337   1.978   4.866 -1.0817 -0.3180  0.9970
 6622TIP3   OH219871   1.023   2.771   3.753 -0.7628 -0.2783  0.0673
 6622TIP3    H119872   1.048   2.774   3.846 -0.5955  0.0807  0.0118
 6622TIP3    H219873   1.034   2.861   3.723 -0.6127 -0.4391 -0.3582
 6623TIP3   OH219874   3.725   1.324   3.850 -0.5539 -0.0946 -0.1234
 6623TIP3    H119875   3.805   1.318   3.902 -1.1562 -0.5182  0.7872
 6623TIP3    H219876   3.686   1.407   3.875 -0.5725 -0.0498 -0.3024
 6624TIP3   OH219877   3.438   5.940   4.965  0.3229  0.2347 -0.7058
 6624TIP3    H119878   3.414   5.869   5.025  0.5254  1.9459  1.5493
 6624TIP3    H219879   3.355   5.966   4.925 -0.4149  1.1102  1.2723
 6625TIP3   OH219880   2.532   3.864   4.341 -0.6246  0.1583  0.1470
 6625TIP3    H119881   2.618   3.881   4.302 -0.0071 -0.8224  0.9967
 6625TIP3    H219882   2.483   3.819   4.273 -0.4765  0.7337 -0.3511
 6626TIP3   OH219883   1.885   3.437   4.856 -0.2460  0.5574  0.1378
 6626TIP3    H119884   1.935   3.475   4.784 -0.1236  1.0022  0.4473
 6626TIP3    H219885   1.871   3.346   4.831  1.4579  0.1798  0.4318
 6627TIP3   OH219886   0.018   2.836   2.903 -0.0956 -0.1190  0.2784
 6627TIP3    H119887   0.076   2.896   2.855 -0.5001  0.4385  0.4708
 6627TIP3    H219888   0.064   2.752   2.901  0.4467  0.1738 -0.0694
 6628TIP3   OH219889   6.162   2.593   2.255 -0.4235  0.1444  0.0928
 6628TIP3    H119890   6.092   2.622   2.314  0.4994  0.5458  1.0223
 6628TIP3    H219891   6.216   2.535   2.309  0.4307  0.5078 -0.3485
 6629TIP3   OH219892   2.872   5.777   3.225  0.4681  0.1621 -0.2679
 6629TIP3    H119893   2.933   5.717   3.183  0.2446 -0.2400 -0.0288
 6629TIP3    H219894   2.788   5.758   3.183  0.7490  1.7107 -1.6342
 6630TIP3   OH219895   6.039   3.943   1.700 -0.2681 -0.1774 -0.4112
 6630TIP3    H119896   5.956   3.905   1.729 -0.4533  0.6727  0.2205
 6630TIP3    H219897   6.082   3.970   1.780 -0.9846  2.6419 -0.8760
 6631TIP3   OH219898   0.903   5.898   2.908 -0.1458 -0.2123 -0.1171
 6631TIP3    H119899   0.874   5.977   2.953  0.1191  0.1102 -0.5129
 6631TIP3    H219900   0.971   5.928   2.849 -0.3785 -0.6631 -0.6144
 6632TIP3   OH219901   4.505   3.480   0.020  0.3499  0.6217 -0.1349
 6632TIP3    H119902   4.414   3.475   0.048  0.5217  0.2590  0.3755
 6632TIP3    H219903   4.553   3.427   0.084  1.1149  1.9278  0.4199
 6633TIP3   OH219904   4.846   0.406   0.313 -0.0338 -0.1971  0.6945
 6633TIP3    H119905   4.929   0.447   0.286 -0.4636 -0.2287 -0.6952
 6633TIP3    H219906   4.799   0.476   0.359  0.5302 -0.0339  1.0433
 6634TIP3   OH219907   3.810   0.780   2.847 -0.1338 -0.5833  0.3817
 6634TIP3    H119908   3.761   0.845   2.898  0.7212  0.2243  0.1812
 6634TIP3    H219909   3.809   0.702   2.903 -1.3263 -0.4780  0.5447
 6635TIP3   OH219910   6.104   0.374   2.121  0.0325 -0.5298 -0.5594
 6635TIP3    H119911   6.150   0.295   2.091 -0.6327 -1.3264  0.4602
 6635TIP3    H219912   6.157   0.446   2.087  1.2187 -1.4078 -0.6694
 6636TIP3   OH219913   5.676   0.647   1.624  0.5190  0.3871  0.3508
 6636TIP3    H119914   5.627   0.723   1.654  1.9944  0.9050  1.6292
 6636TIP3    H219915   5.719   0.613   1.703  2.3503  0.1096 -0.6874
 6637TIP3   OH219916   5.487   1.091   2.465  0.1265  0.5725 -0.2189
 6637TIP3    H119917   5.413   1.061   2.516 -0.7001 -0.5175 -1.9496
 6637TIP3    H219918   5.455   1.168   2.418  0.8332  1.4857  0.7458
 6638TIP3   OH219919   2.118   1.594   1.793  0.6594  0.4849 -0.3626
 6638TIP3    H119920   2.094   1.542   1.717  0.3689 -0.1994  0.1807
 6638TIP3    H219921   2.167   1.668   1.758 -2.6859  2.3004 -1.6016
 6639TIP3   OH219922   4.595   1.947   2.533  0.9448 -0.0227 -0.1363
 6639TIP3    H119923   4.601   1.865   2.483  0.2578  0.3412 -0.8385
 6639TIP3    H219924   4.643   2.010   2.480 -1.3445  0.8205 -1.3669
 6640TIP3   OH219925   2.210   5.357   1.032 -0.2667 -0.3268  0.1463
 6640TIP3    H119926   2.158   5.403   0.965  1.8176  0.9871 -0.6899
 6640TIP3    H219927   2.265   5.297   0.982 -1.0992 -1.8852  1.0339
 6641TIP3   OH219928   6.140   2.871   4.347  0.0257  0.2498  0.7393
 6641TIP3    H119929   6.105   2.960   4.339 -0.1688  0.0735 -0.4940
 6641TIP3    H219930   6.079   2.827   4.407  0.0850  0.9200  1.3017
 6642TIP3   OH219931   0.058   0.019   0.891 -0.2977  0.1221 -0.3889
 6642TIP3    H119932   0.143  -0.001   0.852 -0.3260  1.1229 -1.0039
 6642TIP3    H219933   0.079   0.055   0.977 -0.2246 -1.9037  0.4923
 6643TIP3   OH219934   2.384   3.714   2.054 -0.0771 -0.2218  0.2336
 6643TIP3    H119935   2.300   3.669   2.045 -0.3923  0.4089 -0.0390
 6643TIP3    H219936   2.383   3.780   1.985  0.8851 -0.5720 -0.1354
 6644TIP3   OH219937   3.017   3.868   3.809  0.0566 -0.0800 -0.0520
 6644TIP3    H119938   3.023   3.811   3.885 -2.2850  1.6985  1.5987
 6644TIP3    H219939   2.994   3.809   3.737  0.0127 -1.4909  1.0754
 6645TIP3   OH219940   4.658   5.336   2.568 -0.1081  0.1175  0.2141
 6645TIP3    H119941   4.579   5.382   2.539 -0.9592  0.0020  2.1558
 6645TIP3    H219942   4.698   5.304   2.487 -0.4886  2.6104 -1.0480
   6.36356   5.99961   5.19582   0.00000   0.00000  -2.12120   0.00000  -2.12120  -2.99981
