Title t=  21.00000 step= 10500
29212
    1ASP      N    1   2.167   3.513   4.789
    1ASP    HT1    2   2.107   3.579   4.843
    1ASP    HT2    3   2.154   3.539   4.689
    1ASP    HT3    4   2.262   3.530   4.827
    1ASP     CA    5   2.114   3.378   4.831
    1ASP     HA    6   2.105   3.387   4.938
    1ASP     CB    7   1.966   3.362   4.770
    1ASP    HB1    8   1.916   3.268   4.803
    1ASP    HB2    9   1.967   3.364   4.659
    1ASP     CG   10   1.882   3.490   4.805
    1ASP    OD1   11   1.932   3.579   4.884
    1ASP    OD2   12   1.769   3.515   4.760
    1ASP      C   13   2.215   3.268   4.788
    1ASP      O   14   2.329   3.267   4.823
    2GLY      N   15   2.166   3.174   4.715
    2GLY     HN   16   2.069   3.173   4.693
    2GLY     CA   17   2.243   3.065   4.647
    2GLY    HA1   18   2.163   3.007   4.604
    2GLY    HA2   19   2.299   3.022   4.729
    2GLY      C   20   2.348   3.090   4.543
    2GLY      O   21   2.406   3.200   4.544
    3ASP      N   22   2.377   2.993   4.461
    3ASP     HN   23   2.346   2.900   4.480
    3ASP     CA   24   2.486   3.002   4.368
    3ASP     HA   25   2.563   3.055   4.422
    3ASP     CB   26   2.541   2.861   4.337
    3ASP    HB1   27   2.624   2.859   4.264
    3ASP    HB2   28   2.454   2.799   4.306
    3ASP     CG   29   2.586   2.792   4.456
    3ASP    OD1   30   2.616   2.852   4.561
    3ASP    OD2   31   2.628   2.672   4.432
    3ASP      C   32   2.449   3.083   4.243
    3ASP      O   33   2.334   3.072   4.196
    4GLY      N   34   2.542   3.169   4.192
    4GLY     HN   35   2.630   3.178   4.238
    4GLY     CA   36   2.517   3.254   4.078
    4GLY    HA1   37   2.573   3.345   4.092
    4GLY    HA2   38   2.411   3.273   4.086
    4GLY      C   39   2.546   3.186   3.945
    4GLY      O   40   2.568   3.063   3.938
    5PRO      N   41   2.545   3.260   3.835
    5PRO     CD   42   2.487   3.388   3.822
    5PRO    HD1   43   2.549   3.473   3.858
    5PRO    HD2   44   2.382   3.402   3.855
    5PRO     CA   45   2.600   3.203   3.708
    5PRO     HA   46   2.528   3.130   3.677
    5PRO     CB   47   2.608   3.329   3.624
    5PRO    HB1   48   2.585   3.304   3.518
    5PRO    HB2   49   2.703   3.386   3.629
    5PRO     CG   50   2.480   3.401   3.669
    5PRO    HG1   51   2.464   3.504   3.630
    5PRO    HG2   52   2.384   3.359   3.633
    5PRO      C   53   2.742   3.139   3.717
    5PRO      O   54   2.827   3.188   3.795
    6GLY      N   55   2.764   3.048   3.621
    6GLY     HN   56   2.696   3.020   3.553
    6GLY     CA   57   2.898   3.001   3.591
    6GLY    HA1   58   2.881   2.940   3.504
    6GLY    HA2   59   2.946   2.953   3.674
    6GLY      C   60   2.999   3.102   3.528
    6GLY      O   61   2.968   3.223   3.508
    7ASP      N   62   3.121   3.049   3.498
    7ASP     HN   63   3.131   2.952   3.516
    7ASP     CA   64   3.232   3.123   3.438
    7ASP     HA   65   3.241   3.209   3.503
    7ASP     CB   66   3.364   3.043   3.454
    7ASP    HB1   67   3.435   3.113   3.404
    7ASP    HB2   68   3.355   2.944   3.403
    7ASP     CG   69   3.402   3.031   3.603
    7ASP    OD1   70   3.333   3.091   3.694
    7ASP    OD2   71   3.509   2.974   3.630
    7ASP      C   72   3.203   3.173   3.293
    7ASP      O   73   3.130   3.107   3.219
    8PRO      N   74   3.266   3.288   3.247
    8PRO     CD   75   3.339   3.385   3.331
    8PRO    HD1   76   3.442   3.343   3.335
    8PRO    HD2   77   3.314   3.403   3.438
    8PRO     CA   78   3.241   3.341   3.112
    8PRO     HA   79   3.135   3.364   3.116
    8PRO     CB   80   3.339   3.461   3.115
    8PRO    HB1   81   3.321   3.541   3.040
    8PRO    HB2   82   3.441   3.419   3.097
    8PRO     CG   83   3.335   3.516   3.261
    8PRO    HG1   84   3.427   3.574   3.282
    8PRO    HG2   85   3.241   3.572   3.282
    8PRO      C   86   3.263   3.251   2.997
    8PRO      O   87   3.368   3.190   2.984
    9GLY      N   88   3.174   3.251   2.895
    9GLY     HN   89   3.083   3.289   2.904
    9GLY     CA   90   3.215   3.202   2.761
    9GLY    HA1   91   3.124   3.165   2.715
    9GLY    HA2   92   3.291   3.126   2.768
    9GLY      C   93   3.251   3.313   2.679
    9GLY      O   94   3.306   3.408   2.725
   10ASP      N   95   3.234   3.303   2.544
   10ASP     HN   96   3.196   3.218   2.510
   10ASP     CA   97   3.251   3.413   2.448
   10ASP     HA   98   3.312   3.489   2.493
   10ASP     CB   99   3.298   3.368   2.308
   10ASP    HB1  100   3.288   3.449   2.233
   10ASP    HB2  101   3.227   3.294   2.264
   10ASP     CG  102   3.437   3.307   2.301
   10ASP    OD1  103   3.465   3.225   2.210
   10ASP    OD2  104   3.515   3.356   2.382
   10ASP      C  105   3.115   3.480   2.430
   10ASP      O  106   3.017   3.412   2.429
   11GLY      N  107   3.100   3.616   2.406
   11GLY     HN  108   3.175   3.681   2.402
   11GLY     CA  109   2.976   3.684   2.376
   11GLY    HA1  110   2.944   3.743   2.461
   11GLY    HA2  111   2.901   3.613   2.346
   11GLY      C  112   2.991   3.783   2.260
   11GLY    OT1  113   2.988   3.908   2.287
   11GLY    OT2  114   3.022   3.746   2.148
   12SOD    SOD  115   5.298   1.334   2.184
   13SOD    SOD  116   6.500   1.153   1.864
   14SOD    SOD  117   2.568   0.409   2.592
   15SOD    SOD  118   0.687   0.155   3.597
   16SOD    SOD  119   4.322   1.980   2.823
   17SOD    SOD  120   4.925   5.706   0.494
   18SOD    SOD  121   6.121   2.017   1.728
   19SOD    SOD  122   5.269   0.865   3.911
   20SOD    SOD  123   6.289   1.598   4.888
   21SOD    SOD  124   6.577   1.161   0.501
   22SOD    SOD  125   1.371   4.701   0.440
   23SOD    SOD  126   3.321   2.965   1.758
   24SOD    SOD  127   2.256   0.318   3.239
   25SOD    SOD  128   3.457   4.580   0.724
   26SOD    SOD  129   4.101   4.346   4.069
   27SOD    SOD  130   4.344   3.201   4.144
   28SOD    SOD  131   6.244   2.709   3.873
   29SOD    SOD  132   0.858   1.850   2.073
   30SOD    SOD  133   3.367   0.598   2.724
   31SOD    SOD  134   4.370   0.134   4.191
   32SOD    SOD  135   2.979   4.324   2.850
   33SOD    SOD  136   1.422   4.312   2.490
   34SOD    SOD  137   0.485   0.390   1.968
   35SOD    SOD  138   4.275   2.943   2.920
   36SOD    SOD  139   6.576   3.826   4.557
   37SOD    SOD  140   4.154   4.992   0.431
   38SOD    SOD  141   2.003   5.875   4.215
   39SOD    SOD  142   0.579   4.725   4.536
   40SOD    SOD  143   2.396   6.557   0.438
   41SOD    SOD  144   6.921   3.831   0.287
   42SOD    SOD  145   5.807   5.102   5.503
   43CLA    CLA  146   2.220   6.282   3.685
   44CLA    CLA  147   3.744   0.199   3.786
   45CLA    CLA  148   2.883   4.552   1.250
   46CLA    CLA  149   6.601   4.480   4.494
   47CLA    CLA  150   0.697   5.786   0.486
   48CLA    CLA  151   5.302   0.921   2.071
   49CLA    CLA  152   0.239   3.248   5.734
   50CLA    CLA  153   4.865   6.486   4.443
   51CLA    CLA  154   0.388   4.409   3.160
   52CLA    CLA  155   7.161   2.351   1.965
   53CLA    CLA  156   0.859   2.919   0.669
   54CLA    CLA  157   6.154   5.038   5.108
   55CLA    CLA  158   1.164   0.971   2.170
   56CLA    CLA  159   3.993   4.827   5.682
   57CLA    CLA  160   2.930   4.724   2.535
   58CLA    CLA  161   4.001   2.141   3.347
   59CLA    CLA  162   0.186   2.740   3.182
   60CLA    CLA  163   2.750   1.150   5.859
   61CLA    CLA  164   3.436   2.163   5.701
   62CLA    CLA  165   4.956   2.544   3.172
   63CLA    CLA  166   0.234   3.708   4.939
   64CLA    CLA  167   0.959   2.408   5.874
   65CLA    CLA  168   4.426   0.363   0.439
   66CLA    CLA  169   0.281   5.400   1.765
   67CLA    CLA  170   2.606   2.631   2.877
   68CLA    CLA  171   4.728   0.736   0.291
   69CLA    CLA  172   4.950   1.398   4.078
   70TIP3   OH2  173   3.600   2.944   0.984
   70TIP3    H1  174   3.642   3.025   0.957
   70TIP3    H2  175   3.603   2.888   0.906
   71TIP3   OH2  176   5.936   0.908   5.923
   71TIP3    H1  177   5.882   0.953   5.857
   71TIP3    H2  178   5.896   0.822   5.932
   72TIP3   OH2  179   3.781   3.756   5.606
   72TIP3    H1  180   3.745   3.820   5.668
   72TIP3    H2  181   3.824   3.809   5.539
   73TIP3   OH2  182   1.645   1.010   4.798
   73TIP3    H1  183   1.557   1.024   4.763
   73TIP3    H2  184   1.691   1.092   4.781
   74TIP3   OH2  185   2.417   6.196   3.432
   74TIP3    H1  186   2.486   6.189   3.498
   74TIP3    H2  187   2.336   6.202   3.483
   75TIP3   OH2  188   0.050   6.009   4.030
   75TIP3    H1  189   0.038   6.101   4.050
   75TIP3    H2  190   0.088   5.972   4.109
   76TIP3   OH2  191   4.708   5.605   0.056
   76TIP3    H1  192   4.621   5.638   0.033
   76TIP3    H2  193   4.723   5.534  -0.006
   77TIP3   OH2  194   2.419   0.963   0.656
   77TIP3    H1  195   2.345   0.914   0.620
   77TIP3    H2  196   2.496   0.912   0.633
   78TIP3   OH2  197   3.337   0.938   0.350
   78TIP3    H1  198   3.303   0.953   0.262
   78TIP3    H2  199   3.403   0.869   0.338
   79TIP3   OH2  200   1.286   6.269   0.616
   79TIP3    H1  201   1.256   6.282   0.706
   79TIP3    H2  202   1.323   6.353   0.591
   80TIP3   OH2  203   1.069   3.170   2.577
   80TIP3    H1  204   1.150   3.120   2.567
   80TIP3    H2  205   1.000   3.110   2.550
   81TIP3   OH2  206   1.987   4.496   4.673
   81TIP3    H1  207   2.008   4.441   4.748
   81TIP3    H2  208   2.035   4.577   4.689
   82TIP3   OH2  209   0.772   3.867   2.398
   82TIP3    H1  210   0.776   3.930   2.470
   82TIP3    H2  211   0.749   3.784   2.440
   83TIP3   OH2  212   1.587   3.908   5.446
   83TIP3    H1  213   1.505   3.886   5.402
   83TIP3    H2  214   1.636   3.960   5.382
   84TIP3   OH2  215   5.643   0.340   0.054
   84TIP3    H1  216   5.620   0.344   0.147
   84TIP3    H2  217   5.604   0.258   0.023
   85TIP3   OH2  218   2.644   4.539   2.708
   85TIP3    H1  219   2.716   4.590   2.670
   85TIP3    H2  220   2.679   4.450   2.715
   86TIP3   OH2  221   1.308   1.636   5.681
   86TIP3    H1  222   1.226   1.593   5.705
   86TIP3    H2  223   1.336   1.594   5.600
   87TIP3   OH2  224   2.318   2.507   1.536
   87TIP3    H1  225   2.388   2.447   1.512
   87TIP3    H2  226   2.301   2.487   1.628
   88TIP3   OH2  227   5.650   1.474   4.820
   88TIP3    H1  228   5.589   1.407   4.789
   88TIP3    H2  229   5.734   1.451   4.780
   89TIP3   OH2  230   3.252   6.728   5.363
   89TIP3    H1  231   3.289   6.708   5.449
   89TIP3    H2  232   3.274   6.652   5.309
   90TIP3   OH2  233   1.384   3.374   2.579
   90TIP3    H1  234   1.407   3.416   2.495
   90TIP3    H2  235   1.448   3.409   2.641
   91TIP3   OH2  236   5.773   6.753   1.339
   91TIP3    H1  237   5.684   6.763   1.304
   91TIP3    H2  238   5.760   6.715   1.426
   92TIP3   OH2  239   5.649   5.500   4.114
   92TIP3    H1  240   5.611   5.423   4.071
   92TIP3    H2  241   5.743   5.493   4.097
   93TIP3   OH2  242   1.011   1.441   2.034
   93TIP3    H1  243   1.034   1.374   1.970
   93TIP3    H2  244   1.088   1.497   2.038
   94TIP3   OH2  245   2.949   6.312   2.732
   94TIP3    H1  246   2.954   6.216   2.731
   94TIP3    H2  247   3.020   6.340   2.675
   95TIP3   OH2  248   6.146   4.155   2.705
   95TIP3    H1  249   6.186   4.194   2.782
   95TIP3    H2  250   6.220   4.134   2.648
   96TIP3   OH2  251   6.971   3.623   0.153
   96TIP3    H1  252   6.944   3.533   0.172
   96TIP3    H2  253   7.066   3.622   0.164
   97TIP3   OH2  254   7.137   1.188   1.247
   97TIP3    H1  255   7.089   1.132   1.186
   97TIP3    H2  256   7.229   1.172   1.226
   98TIP3   OH2  257   3.547   5.086   3.526
   98TIP3    H1  258   3.574   4.996   3.539
   98TIP3    H2  259   3.466   5.080   3.476
   99TIP3   OH2  260   6.316   1.155   1.219
   99TIP3    H1  261   6.242   1.125   1.166
   99TIP3    H2  262   6.391   1.107   1.185
  100TIP3   OH2  263   7.082   6.017   0.068
  100TIP3    H1  264   7.090   5.986  -0.022
  100TIP3    H2  265   6.997   5.984   0.098
  101TIP3   OH2  266   0.375   2.301   0.121
  101TIP3    H1  267   0.407   2.327   0.035
  101TIP3    H2  268   0.316   2.371   0.147
  102TIP3   OH2  269   5.296   2.766   4.552
  102TIP3    H1  270   5.363   2.825   4.518
  102TIP3    H2  271   5.224   2.772   4.489
  103TIP3   OH2  272   5.387   3.464   4.945
  103TIP3    H1  273   5.356   3.549   4.916
  103TIP3    H2  274   5.432   3.481   5.028
  104TIP3   OH2  275   3.913   3.900   1.907
  104TIP3    H1  276   3.996   3.852   1.903
  104TIP3    H2  277   3.897   3.912   2.001
  105TIP3   OH2  278   2.807   5.484   2.488
  105TIP3    H1  279   2.771   5.451   2.570
  105TIP3    H2  280   2.731   5.486   2.429
  106TIP3   OH2  281   2.131   5.586   1.702
  106TIP3    H1  282   2.040   5.608   1.723
  106TIP3    H2  283   2.177   5.670   1.705
  107TIP3   OH2  284   0.966   5.314   4.639
  107TIP3    H1  285   1.022   5.362   4.701
  107TIP3    H2  286   0.884   5.363   4.639
  108TIP3   OH2  287   5.846   6.550   2.244
  108TIP3    H1  288   5.785   6.482   2.216
  108TIP3    H2  289   5.803   6.632   2.218
  109TIP3   OH2  290   6.456   1.015   2.071
  109TIP3    H1  291   6.383   1.048   2.124
  109TIP3    H2  292   6.531   1.017   2.130
  110TIP3   OH2  293   4.302   5.463   5.378
  110TIP3    H1  294   4.377   5.445   5.320
  110TIP3    H2  295   4.304   5.558   5.390
  111TIP3   OH2  296   3.229   2.754   1.727
  111TIP3    H1  297   3.135   2.760   1.745
  111TIP3    H2  298   3.235   2.717   1.639
  112TIP3   OH2  299   6.563   2.673   1.651
  112TIP3    H1  300   6.546   2.671   1.745
  112TIP3    H2  301   6.651   2.710   1.643
  113TIP3   OH2  302   3.185   0.048   5.327
  113TIP3    H1  303   3.148  -0.013   5.263
  113TIP3    H2  304   3.113   0.108   5.347
  114TIP3   OH2  305   4.993   5.986   1.732
  114TIP3    H1  306   4.933   6.059   1.750
  114TIP3    H2  307   5.002   5.941   1.816
  115TIP3   OH2  308   6.054   3.240   4.700
  115TIP3    H1  309   5.991   3.294   4.747
  115TIP3    H2  310   6.018   3.151   4.706
  116TIP3   OH2  311   5.441   2.693   2.542
  116TIP3    H1  312   5.393   2.741   2.474
  116TIP3    H2  313   5.498   2.633   2.493
  117TIP3   OH2  314   0.732   4.600   3.809
  117TIP3    H1  315   0.816   4.636   3.780
  117TIP3    H2  316   0.706   4.655   3.883
  118TIP3   OH2  317   0.207   6.226   2.698
  118TIP3    H1  318   0.135   6.198   2.754
  118TIP3    H2  319   0.251   6.145   2.672
  119TIP3   OH2  320   0.542   6.615   1.034
  119TIP3    H1  321   0.618   6.651   0.987
  119TIP3    H2  322   0.522   6.681   1.101
  120TIP3   OH2  323   3.168   2.805   2.895
  120TIP3    H1  324   3.190   2.844   2.811
  120TIP3    H2  325   3.079   2.771   2.883
  121TIP3   OH2  326   5.950   3.409   0.289
  121TIP3    H1  327   5.930   3.467   0.215
  121TIP3    H2  328   5.875   3.419   0.348
  122TIP3   OH2  329   0.158   4.603   3.936
  122TIP3    H1  330   0.235   4.565   3.978
  122TIP3    H2  331   0.183   4.693   3.915
  123TIP3   OH2  332   5.099   6.727   0.633
  123TIP3    H1  333   5.186   6.717   0.592
  123TIP3    H2  334   5.049   6.652   0.600
  124TIP3   OH2  335   4.615   6.478   2.572
  124TIP3    H1  336   4.591   6.540   2.641
  124TIP3    H2  337   4.709   6.464   2.583
  125TIP3   OH2  338   6.560   2.306   4.562
  125TIP3    H1  339   6.597   2.304   4.474
  125TIP3    H2  340   6.465   2.306   4.548
  126TIP3   OH2  341   1.514   4.380   1.753
  126TIP3    H1  342   1.518   4.285   1.760
  126TIP3    H2  343   1.519   4.398   1.659
  127TIP3   OH2  344   1.855   4.128   2.546
  127TIP3    H1  345   1.859   4.214   2.588
  127TIP3    H2  346   1.916   4.134   2.473
  128TIP3   OH2  347   1.595   5.086   5.341
  128TIP3    H1  348   1.631   5.159   5.392
  128TIP3    H2  349   1.502   5.084   5.365
  129TIP3   OH2  350   5.927   4.742   5.771
  129TIP3    H1  351   5.933   4.820   5.717
  129TIP3    H2  352   6.017   4.711   5.780
  130TIP3   OH2  353   5.470   3.368   2.848
  130TIP3    H1  354   5.458   3.324   2.764
  130TIP3    H2  355   5.384   3.403   2.869
  131TIP3   OH2  356   6.677   3.653   2.592
  131TIP3    H1  357   6.708   3.665   2.502
  131TIP3    H2  358   6.659   3.559   2.599
  132TIP3   OH2  359   5.037   3.479   0.398
  132TIP3    H1  360   5.093   3.543   0.442
  132TIP3    H2  361   5.090   3.400   0.394
  133TIP3   OH2  362   2.936   1.812   2.630
  133TIP3    H1  363   2.860   1.766   2.594
  133TIP3    H2  364   2.968   1.867   2.558
  134TIP3   OH2  365   1.276   0.059   2.539
  134TIP3    H1  366   1.328   0.134   2.567
  134TIP3    H2  367   1.313  -0.015   2.588
  135TIP3   OH2  368   0.698   3.140   0.122
  135TIP3    H1  369   0.716   3.199   0.049
  135TIP3    H2  370   0.674   3.057   0.081
  136TIP3   OH2  371   2.727   4.478   3.471
  136TIP3    H1  372   2.650   4.473   3.414
  136TIP3    H2  373   2.696   4.524   3.549
  137TIP3   OH2  374   7.009   2.317   3.327
  137TIP3    H1  375   6.959   2.328   3.246
  137TIP3    H2  376   7.018   2.405   3.362
  138TIP3   OH2  377   1.786   1.450   1.305
  138TIP3    H1  378   1.768   1.364   1.266
  138TIP3    H2  379   1.828   1.500   1.235
  139TIP3   OH2  380   3.190   0.186   4.155
  139TIP3    H1  381   3.199   0.275   4.120
  139TIP3    H2  382   3.139   0.139   4.089
  140TIP3   OH2  383   3.464   0.222   1.974
  140TIP3    H1  384   3.429   0.141   2.010
  140TIP3    H2  385   3.470   0.207   1.880
  141TIP3   OH2  386   1.566   3.488   2.320
  141TIP3    H1  387   1.608   3.433   2.253
  141TIP3    H2  388   1.635   3.505   2.384
  142TIP3   OH2  389   5.149   3.998   4.340
  142TIP3    H1  390   5.096   4.058   4.392
  142TIP3    H2  391   5.216   4.052   4.299
  143TIP3   OH2  392   2.012   5.067   4.164
  143TIP3    H1  393   1.968   5.052   4.247
  143TIP3    H2  394   2.088   5.121   4.186
  144TIP3   OH2  395   1.134   3.624   1.657
  144TIP3    H1  396   1.133   3.701   1.601
  144TIP3    H2  397   1.210   3.637   1.714
  145TIP3   OH2  398   1.798   0.267   5.530
  145TIP3    H1  399   1.818   0.249   5.438
  145TIP3    H2  400   1.708   0.236   5.541
  146TIP3   OH2  401   3.338   3.172   4.928
  146TIP3    H1  402   3.322   3.236   4.998
  146TIP3    H2  403   3.297   3.092   4.960
  147TIP3   OH2  404   2.153   5.022   2.466
  147TIP3    H1  405   2.112   4.936   2.478
  147TIP3    H2  406   2.079   5.083   2.466
  148TIP3   OH2  407   1.772   3.487   1.356
  148TIP3    H1  408   1.726   3.406   1.379
  148TIP3    H2  409   1.706   3.542   1.314
  149TIP3   OH2  410   6.094   0.879   1.922
  149TIP3    H1  411   6.121   0.790   1.943
  149TIP3    H2  412   6.007   0.888   1.961
  150TIP3   OH2  413   5.000   0.884   0.313
  150TIP3    H1  414   5.010   0.919   0.402
  150TIP3    H2  415   4.923   0.828   0.318
  151TIP3   OH2  416   0.534   6.387   0.452
  151TIP3    H1  417   0.604   6.439   0.491
  151TIP3    H2  418   0.502   6.333   0.523
  152TIP3   OH2  419   2.578   3.327  -0.002
  152TIP3    H1  420   2.651   3.378  -0.036
  152TIP3    H2  421   2.618   3.250   0.038
  153TIP3   OH2  422   6.948   3.582   2.850
  153TIP3    H1  423   6.932   3.586   2.945
  153TIP3    H2  424   6.875   3.532   2.815
  154TIP3   OH2  425   6.756   4.174   4.526
  154TIP3    H1  426   6.720   4.140   4.444
  154TIP3    H2  427   6.702   4.249   4.547
  155TIP3   OH2  428   3.054   5.085   5.733
  155TIP3    H1  429   3.118   5.072   5.802
  155TIP3    H2  430   3.004   5.162   5.760
  156TIP3   OH2  431   2.837   5.603   3.290
  156TIP3    H1  432   2.785   5.674   3.329
  156TIP3    H2  433   2.917   5.646   3.260
  157TIP3   OH2  434   5.930   1.817   3.664
  157TIP3    H1  435   6.000   1.761   3.631
  157TIP3    H2  436   5.960   1.906   3.646
  158TIP3   OH2  437   4.859   5.150   2.463
  158TIP3    H1  438   4.776   5.187   2.495
  158TIP3    H2  439   4.859   5.060   2.495
  159TIP3   OH2  440   3.391   2.622   4.660
  159TIP3    H1  441   3.483   2.632   4.632
  159TIP3    H2  442   3.368   2.533   4.634
  160TIP3   OH2  443   6.865   5.407   1.607
  160TIP3    H1  444   6.905   5.494   1.612
  160TIP3    H2  445   6.793   5.417   1.545
  161TIP3   OH2  446   2.364   1.127   1.873
  161TIP3    H1  447   2.286   1.123   1.929
  161TIP3    H2  448   2.382   1.036   1.851
  162TIP3   OH2  449   1.805   3.170   5.306
  162TIP3    H1  450   1.810   3.200   5.397
  162TIP3    H2  451   1.715   3.138   5.297
  163TIP3   OH2  452   1.421   4.837   0.036
  163TIP3    H1  453   1.414   4.775   0.108
  163TIP3    H2  454   1.351   4.901   0.052
  164TIP3   OH2  455   4.047   0.252   1.538
  164TIP3    H1  456   4.031   0.345   1.558
  164TIP3    H2  457   4.049   0.249   1.442
  165TIP3   OH2  458   0.932   6.379   1.762
  165TIP3    H1  459   0.956   6.301   1.812
  165TIP3    H2  460   1.016   6.413   1.730
  166TIP3   OH2  461   6.691   2.914   3.141
  166TIP3    H1  462   6.706   3.009   3.146
  166TIP3    H2  463   6.656   2.891   3.227
  167TIP3   OH2  464   1.465   2.219   2.175
  167TIP3    H1  465   1.372   2.200   2.160
  167TIP3    H2  466   1.500   2.137   2.210
  168TIP3   OH2  467   4.434   2.277   1.985
  168TIP3    H1  468   4.480   2.216   1.927
  168TIP3    H2  469   4.486   2.277   2.066
  169TIP3   OH2  470   5.843   4.687   2.047
  169TIP3    H1  471   5.779   4.749   2.011
  169TIP3    H2  472   5.837   4.699   2.142
  170TIP3   OH2  473   3.028   0.761   4.571
  170TIP3    H1  474   3.066   0.701   4.634
  170TIP3    H2  475   2.935   0.739   4.569
  171TIP3   OH2  476  -0.013   1.625   3.458
  171TIP3    H1  477  -0.024   1.719   3.442
  171TIP3    H2  478   0.080   1.609   3.443
  172TIP3   OH2  479   1.752   1.935   5.290
  172TIP3    H1  480   1.748   2.029   5.307
  172TIP3    H2  481   1.665   1.912   5.259
  173TIP3   OH2  482   2.492   2.006   4.948
  173TIP3    H1  483   2.573   2.036   4.990
  173TIP3    H2  484   2.521   1.965   4.866
  174TIP3   OH2  485   0.186   6.074   5.763
  174TIP3    H1  486   0.154   6.123   5.840
  174TIP3    H2  487   0.158   5.984   5.779
  175TIP3   OH2  488   5.882   0.809   0.502
  175TIP3    H1  489   5.823   0.834   0.573
  175TIP3    H2  490   5.849   0.725   0.471
  176TIP3   OH2  491   1.273   6.819   2.135
  176TIP3    H1  492   1.202   6.825   2.071
  176TIP3    H2  493   1.351   6.804   2.082
  177TIP3   OH2  494   7.121   0.369   4.318
  177TIP3    H1  495   7.125   0.301   4.250
  177TIP3    H2  496   7.097   0.322   4.398
  178TIP3   OH2  497   2.617   6.596   0.382
  178TIP3    H1  498   2.647   6.611   0.292
  178TIP3    H2  499   2.665   6.660   0.434
  179TIP3   OH2  500   6.093   1.542   3.255
  179TIP3    H1  501   6.097   1.538   3.350
  179TIP3    H2  502   6.154   1.473   3.225
  180TIP3   OH2  503   6.665   2.116   0.155
  180TIP3    H1  504   6.753   2.081   0.165
  180TIP3    H2  505   6.665   2.197   0.206
  181TIP3   OH2  506   5.997   3.607   0.074
  181TIP3    H1  507   6.030   3.604  -0.015
  181TIP3    H2  508   5.971   3.698   0.087
  182TIP3   OH2  509   1.010   3.725   5.190
  182TIP3    H1  510   1.029   3.731   5.284
  182TIP3    H2  511   1.095   3.709   5.150
  183TIP3   OH2  512   4.330   0.330   2.868
  183TIP3    H1  513   4.380   0.369   2.796
  183TIP3    H2  514   4.244   0.372   2.863
  184TIP3   OH2  515   4.714   0.638   1.428
  184TIP3    H1  516   4.670   0.672   1.350
  184TIP3    H2  517   4.736   0.547   1.405
  185TIP3   OH2  518   2.179   4.031   1.557
  185TIP3    H1  519   2.244   4.033   1.628
  185TIP3    H2  520   2.231   4.028   1.477
  186TIP3   OH2  521   5.904   6.033   0.439
  186TIP3    H1  522   5.859   5.992   0.366
  186TIP3    H2  523   5.953   5.962   0.480
  187TIP3   OH2  524   0.049   2.957   1.696
  187TIP3    H1  525  -0.045   2.937   1.689
  187TIP3    H2  526   0.075   2.923   1.781
  188TIP3   OH2  527   4.988   2.197   0.439
  188TIP3    H1  528   4.914   2.250   0.408
  188TIP3    H2  529   4.957   2.107   0.432
  189TIP3   OH2  530   5.268   4.504   0.931
  189TIP3    H1  531   5.319   4.579   0.902
  189TIP3    H2  532   5.214   4.481   0.855
  190TIP3   OH2  533   5.153   4.929   2.316
  190TIP3    H1  534   5.099   4.937   2.394
  190TIP3    H2  535   5.222   4.993   2.328
  191TIP3   OH2  536   0.812   4.347   1.405
  191TIP3    H1  537   0.801   4.436   1.372
  191TIP3    H2  538   0.893   4.316   1.365
  192TIP3   OH2  539   5.541   4.606   2.052
  192TIP3    H1  540   5.553   4.694   2.018
  192TIP3    H2  541   5.625   4.584   2.093
  193TIP3   OH2  542   1.492   3.481   4.577
  193TIP3    H1  543   1.483   3.446   4.488
  193TIP3    H2  544   1.526   3.569   4.565
  194TIP3   OH2  545   5.214   5.536   5.492
  194TIP3    H1  546   5.201   5.469   5.558
  194TIP3    H2  547   5.294   5.581   5.519
  195TIP3   OH2  548   5.484   4.746   5.614
  195TIP3    H1  549   5.439   4.790   5.686
  195TIP3    H2  550   5.435   4.664   5.602
  196TIP3   OH2  551   3.261   5.229   2.187
  196TIP3    H1  552   3.172   5.215   2.220
  196TIP3    H2  553   3.256   5.312   2.140
  197TIP3   OH2  554   0.629   6.408   0.831
  197TIP3    H1  555   0.610   6.320   0.864
  197TIP3    H2  556   0.550   6.434   0.785
  198TIP3   OH2  557   0.218   6.071   1.640
  198TIP3    H1  558   0.232   6.106   1.552
  198TIP3    H2  559   0.124   6.052   1.644
  199TIP3   OH2  560   5.274   1.464   1.439
  199TIP3    H1  561   5.322   1.394   1.485
  199TIP3    H2  562   5.335   1.496   1.373
  200TIP3   OH2  563   7.024   4.698   3.264
  200TIP3    H1  564   6.999   4.655   3.182
  200TIP3    H2  565   6.951   4.682   3.323
  201TIP3   OH2  566   6.010   1.993   2.149
  201TIP3    H1  567   6.068   2.067   2.135
  201TIP3    H2  568   6.046   1.949   2.226
  202TIP3   OH2  569   3.279   0.233   0.309
  202TIP3    H1  570   3.219   0.210   0.239
  202TIP3    H2  571   3.226   0.232   0.388
  203TIP3   OH2  572   2.660   5.450   3.935
  203TIP3    H1  573   2.652   5.419   4.025
  203TIP3    H2  574   2.607   5.388   3.884
  204TIP3   OH2  575   1.963   3.118   4.297
  204TIP3    H1  576   1.889   3.156   4.249
  204TIP3    H2  577   1.925   3.045   4.346
  205TIP3   OH2  578   3.986   6.323   1.009
  205TIP3    H1  579   3.979   6.415   0.984
  205TIP3    H2  580   4.016   6.279   0.929
  206TIP3   OH2  581   3.112   0.914   0.489
  206TIP3    H1  582   3.136   0.854   0.560
  206TIP3    H2  583   3.189   0.916   0.432
  207TIP3   OH2  584   1.870   6.478   4.093
  207TIP3    H1  585   1.831   6.536   4.029
  207TIP3    H2  586   1.898   6.401   4.043
  208TIP3   OH2  587   3.756   0.424   3.471
  208TIP3    H1  588   3.829   0.483   3.489
  208TIP3    H2  589   3.774   0.389   3.384
  209TIP3   OH2  590   2.144   2.930   2.730
  209TIP3    H1  591   2.176   2.841   2.740
  209TIP3    H2  592   2.223   2.984   2.735
  210TIP3   OH2  593   0.509   6.465   4.218
  210TIP3    H1  594   0.590   6.462   4.269
  210TIP3    H2  595   0.441   6.434   4.278
  211TIP3   OH2  596   6.235   5.792   0.327
  211TIP3    H1  597   6.255   5.816   0.236
  211TIP3    H2  598   6.311   5.821   0.376
  212TIP3   OH2  599   1.414   5.330   4.240
  212TIP3    H1  600   1.379   5.356   4.325
  212TIP3    H2  601   1.509   5.336   4.249
  213TIP3   OH2  602   3.045   6.255   2.239
  213TIP3    H1  603   3.037   6.159   2.241
  213TIP3    H2  604   2.956   6.286   2.227
  214TIP3   OH2  605   3.193   1.466   1.969
  214TIP3    H1  606   3.226   1.377   1.982
  214TIP3    H2  607   3.159   1.466   1.880
  215TIP3   OH2  608   1.224   3.343   2.201
  215TIP3    H1  609   1.179   3.375   2.279
  215TIP3    H2  610   1.155   3.301   2.149
  216TIP3   OH2  611   0.928   5.893   0.840
  216TIP3    H1  612   1.015   5.860   0.818
  216TIP3    H2  613   0.932   5.987   0.822
  217TIP3   OH2  614   2.882   0.806   1.229
  217TIP3    H1  615   2.907   0.739   1.166
  217TIP3    H2  616   2.945   0.797   1.301
  218TIP3   OH2  617   4.507   0.552   1.704
  218TIP3    H1  618   4.546   0.596   1.780
  218TIP3    H2  619   4.551   0.593   1.629
  219TIP3   OH2  620   6.471   0.161   0.997
  219TIP3    H1  621   6.395   0.117   1.033
  219TIP3    H2  622   6.526   0.091   0.963
  220TIP3   OH2  623   0.422   5.613   0.999
  220TIP3    H1  624   0.374   5.538   0.964
  220TIP3    H2  625   0.514   5.586   0.997
  221TIP3   OH2  626   1.715   6.596   4.875
  221TIP3    H1  627   1.631   6.571   4.915
  221TIP3    H2  628   1.760   6.513   4.861
  222TIP3   OH2  629   4.135   0.470   3.238
  222TIP3    H1  630   4.051   0.515   3.243
  222TIP3    H2  631   4.200   0.540   3.251
  223TIP3   OH2  632   4.593   6.556   3.009
  223TIP3    H1  633   4.574   6.631   3.065
  223TIP3    H2  634   4.507   6.519   2.988
  224TIP3   OH2  635   5.131   1.181   2.147
  224TIP3    H1  636   5.194   1.119   2.111
  224TIP3    H2  637   5.046   1.144   2.124
  225TIP3   OH2  638   0.009   4.224   0.364
  225TIP3    H1  639   0.033   4.133   0.343
  225TIP3    H2  640   0.017   4.229   0.459
  226TIP3   OH2  641   3.527   2.595   3.546
  226TIP3    H1  642   3.479   2.624   3.468
  226TIP3    H2  643   3.491   2.509   3.566
  227TIP3   OH2  644   3.680   3.516   4.468
  227TIP3    H1  645   3.609   3.456   4.492
  227TIP3    H2  646   3.744   3.461   4.422
  228TIP3   OH2  647   3.711   6.264   3.606
  228TIP3    H1  648   3.708   6.265   3.702
  228TIP3    H2  649   3.749   6.348   3.582
  229TIP3   OH2  650   0.040   0.491   5.239
  229TIP3    H1  651   0.108   0.507   5.174
  229TIP3    H2  652  -0.038   0.534   5.204
  230TIP3   OH2  653   5.362   1.891   4.710
  230TIP3    H1  654   5.282   1.944   4.711
  230TIP3    H2  655   5.371   1.860   4.800
  231TIP3   OH2  656   5.158   2.382   3.853
  231TIP3    H1  657   5.088   2.321   3.876
  231TIP3    H2  658   5.238   2.329   3.857
  232TIP3   OH2  659   1.588   4.218   2.606
  232TIP3    H1  660   1.653   4.153   2.581
  232TIP3    H2  661   1.620   4.253   2.689
  233TIP3   OH2  662   2.713   0.699   4.147
  233TIP3    H1  663   2.653   0.691   4.073
  233TIP3    H2  664   2.722   0.610   4.181
  234TIP3   OH2  665   6.261   5.527   1.995
  234TIP3    H1  666   6.183   5.559   1.950
  234TIP3    H2  667   6.250   5.432   2.000
  235TIP3   OH2  668   3.892   2.302   1.000
  235TIP3    H1  669   3.953   2.337   1.065
  235TIP3    H2  670   3.862   2.220   1.037
  236TIP3   OH2  671   0.917   5.160   0.399
  236TIP3    H1  672   0.836   5.166   0.347
  236TIP3    H2  673   0.982   5.127   0.337
  237TIP3   OH2  674   1.155   5.052   3.433
  237TIP3    H1  675   1.072   5.024   3.471
  237TIP3    H2  676   1.206   4.972   3.423
  238TIP3   OH2  677   6.527   6.780   2.931
  238TIP3    H1  678   6.544   6.707   2.871
  238TIP3    H2  679   6.589   6.766   3.003
  239TIP3   OH2  680   6.604   3.132   2.117
  239TIP3    H1  681   6.551   3.184   2.057
  239TIP3    H2  682   6.687   3.119   2.071
  240TIP3   OH2  683   5.171   6.224   0.648
  240TIP3    H1  684   5.230   6.212   0.573
  240TIP3    H2  685   5.135   6.137   0.664
  241TIP3   OH2  686   6.119   4.377   0.941
  241TIP3    H1  687   6.062   4.438   0.987
  241TIP3    H2  688   6.206   4.416   0.947
  242TIP3   OH2  689   6.588   6.263   2.765
  242TIP3    H1  690   6.557   6.245   2.854
  242TIP3    H2  691   6.520   6.225   2.709
  243TIP3   OH2  692   4.412   6.068   0.599
  243TIP3    H1  693   4.494   6.069   0.551
  243TIP3    H2  694   4.436   6.043   0.688
  244TIP3   OH2  695   7.193   5.971   4.851
  244TIP3    H1  696   7.135   6.039   4.886
  244TIP3    H2  697   7.135   5.898   4.832
  245TIP3   OH2  698   2.256   6.284   4.186
  245TIP3    H1  699   2.286   6.194   4.170
  245TIP3    H2  700   2.292   6.305   4.272
  246TIP3   OH2  701   1.840   1.422   5.529
  246TIP3    H1  702   1.803   1.369   5.600
  246TIP3    H2  703   1.922   1.379   5.506
  247TIP3   OH2  704   2.807   6.199   4.374
  247TIP3    H1  705   2.887   6.202   4.427
  247TIP3    H2  706   2.809   6.114   4.331
  248TIP3   OH2  707   1.020   6.578   1.363
  248TIP3    H1  708   0.977   6.493   1.366
  248TIP3    H2  709   1.063   6.580   1.277
  249TIP3   OH2  710   6.866   3.260   3.088
  249TIP3    H1  711   6.944   3.212   3.061
  249TIP3    H2  712   6.898   3.329   3.146
  250TIP3   OH2  713   6.329   0.435   5.356
  250TIP3    H1  714   6.355   0.366   5.295
  250TIP3    H2  715   6.276   0.495   5.303
  251TIP3   OH2  716   0.674   3.075   4.865
  251TIP3    H1  717   0.689   3.019   4.789
  251TIP3    H2  718   0.748   3.058   4.923
  252TIP3   OH2  719   6.014   3.483   2.183
  252TIP3    H1  720   6.063   3.542   2.127
  252TIP3    H2  721   5.999   3.406   2.129
  253TIP3   OH2  722   0.179   0.197   0.690
  253TIP3    H1  723   0.176   0.102   0.679
  253TIP3    H2  724   0.117   0.230   0.626
  254TIP3   OH2  725   2.006   4.889   3.050
  254TIP3    H1  726   2.063   4.832   2.997
  254TIP3    H2  727   2.067   4.946   3.097
  255TIP3   OH2  728   4.486   6.602   0.103
  255TIP3    H1  729   4.530   6.569   0.180
  255TIP3    H2  730   4.554   6.646   0.052
  256TIP3   OH2  731   0.280   2.022   3.290
  256TIP3    H1  732   0.197   1.990   3.327
  256TIP3    H2  733   0.286   2.113   3.321
  257TIP3   OH2  734   4.618   6.708   2.745
  257TIP3    H1  735   4.679   6.779   2.726
  257TIP3    H2  736   4.644   6.676   2.831
  258TIP3   OH2  737   6.297   3.863   2.794
  258TIP3    H1  738   6.388   3.834   2.806
  258TIP3    H2  739   6.304   3.941   2.740
  259TIP3   OH2  740   3.221   2.923   3.846
  259TIP3    H1  741   3.272   2.987   3.796
  259TIP3    H2  742   3.170   2.976   3.908
  260TIP3   OH2  743   2.422   4.727   1.220
  260TIP3    H1  744   2.399   4.737   1.127
  260TIP3    H2  745   2.383   4.644   1.246
  261TIP3   OH2  746   4.432   2.526   2.171
  261TIP3    H1  747   4.509   2.547   2.117
  261TIP3    H2  748   4.365   2.499   2.108
  262TIP3   OH2  749   0.067   4.481   0.863
  262TIP3    H1  750   0.086   4.402   0.913
  262TIP3    H2  751   0.114   4.551   0.909
  263TIP3   OH2  752   6.463   5.890   2.330
  263TIP3    H1  753   6.424   5.955   2.272
  263TIP3    H2  754   6.555   5.886   2.303
  264TIP3   OH2  755   7.072   4.563   5.701
  264TIP3    H1  756   7.054   4.603   5.787
  264TIP3    H2  757   6.987   4.531   5.671
  265TIP3   OH2  758   0.062   1.769   3.687
  265TIP3    H1  759   0.150   1.756   3.652
  265TIP3    H2  760   0.029   1.847   3.642
  266TIP3   OH2  761   0.414   4.125   4.361
  266TIP3    H1  762   0.506   4.148   4.354
  266TIP3    H2  763   0.407   4.080   4.445
  267TIP3   OH2  764   1.188   3.476   0.039
  267TIP3    H1  765   1.204   3.390   0.002
  267TIP3    H2  766   1.165   3.531  -0.035
  268TIP3   OH2  767   1.136   1.120   4.594
  268TIP3    H1  768   1.156   1.184   4.526
  268TIP3    H2  769   1.044   1.137   4.616
  269TIP3   OH2  770   6.011   1.076   5.341
  269TIP3    H1  771   5.986   1.149   5.284
  269TIP3    H2  772   6.009   0.999   5.284
  270TIP3   OH2  773   3.153   2.825   2.611
  270TIP3    H1  774   3.111   2.884   2.549
  270TIP3    H2  775   3.245   2.825   2.586
  271TIP3   OH2  776   2.232   2.681   5.525
  271TIP3    H1  777   2.292   2.755   5.531
  271TIP3    H2  778   2.180   2.699   5.447
  272TIP3   OH2  779   0.363   6.413   1.197
  272TIP3    H1  780   0.377   6.491   1.143
  272TIP3    H2  781   0.449   6.392   1.232
  273TIP3   OH2  782   5.492   5.397   0.267
  273TIP3    H1  783   5.432   5.322   0.260
  273TIP3    H2  784   5.486   5.440   0.182
  274TIP3   OH2  785   4.313   4.899   4.022
  274TIP3    H1  786   4.235   4.848   3.999
  274TIP3    H2  787   4.280   4.987   4.041
  275TIP3   OH2  788   3.330   5.137   3.294
  275TIP3    H1  789   3.247   5.162   3.334
  275TIP3    H2  790   3.393   5.201   3.328
  276TIP3   OH2  791   1.251   3.850   0.987
  276TIP3    H1  792   1.253   3.935   1.031
  276TIP3    H2  793   1.183   3.801   1.033
  277TIP3   OH2  794   2.185   1.171   2.080
  277TIP3    H1  795   2.212   1.262   2.071
  277TIP3    H2  796   2.113   1.173   2.143
  278TIP3   OH2  797   4.455   4.586   5.189
  278TIP3    H1  798   4.406   4.620   5.264
  278TIP3    H2  799   4.542   4.623   5.198
  279TIP3   OH2  800   5.113   2.873   5.199
  279TIP3    H1  801   5.097   2.921   5.280
  279TIP3    H2  802   5.208   2.869   5.192
  280TIP3   OH2  803   0.845   3.783   0.355
  280TIP3    H1  804   0.777   3.720   0.377
  280TIP3    H2  805   0.924   3.731   0.342
  281TIP3   OH2  806   2.636   5.774   1.984
  281TIP3    H1  807   2.639   5.757   1.890
  281TIP3    H2  808   2.543   5.776   2.006
  282TIP3   OH2  809   2.530   0.588   3.436
  282TIP3    H1  810   2.609   0.598   3.384
  282TIP3    H2  811   2.539   0.653   3.506
  283TIP3   OH2  812   4.357   0.123   3.736
  283TIP3    H1  813   4.420   0.074   3.684
  283TIP3    H2  814   4.271   0.090   3.709
  284TIP3   OH2  815   5.188   1.349   3.883
  284TIP3    H1  816   5.113   1.348   3.942
  284TIP3    H2  817   5.153   1.383   3.801
  285TIP3   OH2  818   0.729   1.415   2.078
  285TIP3    H1  819   0.673   1.375   2.011
  285TIP3    H2  820   0.817   1.383   2.058
  286TIP3   OH2  821   7.092   3.956   3.877
  286TIP3    H1  822   7.111   3.996   3.792
  286TIP3    H2  823   7.119   3.865   3.868
  287TIP3   OH2  824   0.644   5.244   0.201
  287TIP3    H1  825   0.575   5.270   0.262
  287TIP3    H2  826   0.597   5.212   0.124
  288TIP3   OH2  827   4.721   0.325   0.284
  288TIP3    H1  828   4.646   0.350   0.339
  288TIP3    H2  829   4.724   0.229   0.290
  289TIP3   OH2  830   6.556   3.476   2.207
  289TIP3    H1  831   6.549   3.504   2.298
  289TIP3    H2  832   6.471   3.438   2.186
  290TIP3   OH2  833   4.769   2.359   0.388
  290TIP3    H1  834   4.697   2.332   0.444
  290TIP3    H2  835   4.813   2.428   0.437
  291TIP3   OH2  836   2.991   1.838   5.414
  291TIP3    H1  837   2.912   1.812   5.461
  291TIP3    H2  838   3.036   1.897   5.474
  292TIP3   OH2  839   1.369   6.314   1.648
  292TIP3    H1  840   1.392   6.221   1.639
  292TIP3    H2  841   1.306   6.330   1.578
  293TIP3   OH2  842   0.192   4.193   3.571
  293TIP3    H1  843   0.247   4.144   3.511
  293TIP3    H2  844   0.209   4.285   3.550
  294TIP3   OH2  845   5.985   5.096   0.742
  294TIP3    H1  846   5.999   5.002   0.757
  294TIP3    H2  847   5.966   5.102   0.648
  295TIP3   OH2  848   6.846   5.405   2.265
  295TIP3    H1  849   6.795   5.338   2.219
  295TIP3    H2  850   6.929   5.362   2.284
  296TIP3   OH2  851   3.816   1.878   5.012
  296TIP3    H1  852   3.911   1.869   5.016
  296TIP3    H2  853   3.799   1.965   5.048
  297TIP3   OH2  854   2.281   3.461   0.618
  297TIP3    H1  855   2.203   3.439   0.567
  297TIP3    H2  856   2.285   3.393   0.685
  298TIP3   OH2  857   4.196   2.227   3.102
  298TIP3    H1  858   4.260   2.293   3.128
  298TIP3    H2  859   4.122   2.240   3.162
  299TIP3   OH2  860   2.819   0.152   4.378
  299TIP3    H1  861   2.749   0.168   4.440
  299TIP3    H2  862   2.893   0.123   4.431
  300TIP3   OH2  863   6.666   1.681   0.120
  300TIP3    H1  864   6.611   1.621   0.171
  300TIP3    H2  865   6.607   1.750   0.092
  301TIP3   OH2  866   1.671   4.910   1.501
  301TIP3    H1  867   1.691   4.849   1.430
  301TIP3    H2  868   1.757   4.930   1.540
  302TIP3   OH2  869   0.074   0.543   0.607
  302TIP3    H1  870   0.049   0.617   0.550
  302TIP3    H2  871   0.052   0.465   0.556
  303TIP3   OH2  872   1.835   0.824   4.645
  303TIP3    H1  873   1.874   0.902   4.605
  303TIP3    H2  874   1.779   0.858   4.715
  304TIP3   OH2  875   1.582   2.690   4.769
  304TIP3    H1  876   1.512   2.631   4.798
  304TIP3    H2  877   1.565   2.702   4.675
  305TIP3   OH2  878   5.243   1.812   5.539
  305TIP3    H1  879   5.149   1.795   5.538
  305TIP3    H2  880   5.282   1.743   5.485
  306TIP3   OH2  881   4.063   6.197   2.992
  306TIP3    H1  882   3.999   6.137   2.953
  306TIP3    H2  883   4.126   6.140   3.036
  307TIP3   OH2  884   1.544   3.455   4.293
  307TIP3    H1  885   1.589   3.378   4.328
  307TIP3    H2  886   1.613   3.509   4.257
  308TIP3   OH2  887   5.718   1.951   2.603
  308TIP3    H1  888   5.632   1.978   2.637
  308TIP3    H2  889   5.773   2.028   2.615
  309TIP3   OH2  890   5.456   0.127   4.929
  309TIP3    H1  891   5.362   0.108   4.923
  309TIP3    H2  892   5.476   0.122   5.022
  310TIP3   OH2  893   1.933   5.023   1.306
  310TIP3    H1  894   1.982   5.042   1.226
  310TIP3    H2  895   1.842   5.041   1.284
  311TIP3   OH2  896   5.239   3.498   2.878
  311TIP3    H1  897   5.185   3.418   2.879
  311TIP3    H2  898   5.215   3.543   2.959
  312TIP3   OH2  899   2.713   6.183   3.895
  312TIP3    H1  900   2.654   6.128   3.946
  312TIP3    H2  901   2.777   6.214   3.959
  313TIP3   OH2  902   0.132   2.806   3.628
  313TIP3    H1  903   0.039   2.812   3.647
  313TIP3    H2  904   0.174   2.849   3.703
  314TIP3   OH2  905   1.476   3.836   1.519
  314TIP3    H1  906   1.456   3.782   1.443
  314TIP3    H2  907   1.542   3.786   1.567
  315TIP3   OH2  908   6.228   3.014   1.807
  315TIP3    H1  909   6.260   3.005   1.717
  315TIP3    H2  910   6.152   2.956   1.811
  316TIP3   OH2  911   3.246   4.925   4.277
  316TIP3    H1  912   3.269   5.014   4.251
  316TIP3    H2  913   3.246   4.876   4.194
  317TIP3   OH2  914   0.773   1.640   0.604
  317TIP3    H1  915   0.754   1.646   0.697
  317TIP3    H2  916   0.868   1.645   0.598
  318TIP3   OH2  917   3.557   6.736   5.599
  318TIP3    H1  918   3.652   6.742   5.605
  318TIP3    H2  919   3.530   6.820   5.562
  319TIP3   OH2  920   1.307   4.026   3.226
  319TIP3    H1  921   1.302   3.948   3.280
  319TIP3    H2  922   1.373   4.081   3.269
  320TIP3   OH2  923   2.060   5.915   1.017
  320TIP3    H1  924   2.025   5.937   1.103
  320TIP3    H2  925   2.152   5.893   1.033
  321TIP3   OH2  926   0.124   6.322   3.960
  321TIP3    H1  927   0.178   6.384   3.911
  321TIP3    H2  928   0.127   6.241   3.908
  322TIP3   OH2  929   4.407   3.774   4.288
  322TIP3    H1  930   4.471   3.706   4.265
  322TIP3    H2  931   4.378   3.751   4.376
  323TIP3   OH2  932   3.491   0.028   1.074
  323TIP3    H1  933   3.434  -0.042   1.044
  323TIP3    H2  934   3.578  -0.012   1.079
  324TIP3   OH2  935   5.523   1.986   4.231
  324TIP3    H1  936   5.532   1.891   4.225
  324TIP3    H2  937   5.446   2.007   4.179
  325TIP3   OH2  938   4.250   2.479   1.949
  325TIP3    H1  939   4.158   2.479   1.920
  325TIP3    H2  940   4.268   2.387   1.969
  326TIP3   OH2  941   0.578   1.894   1.484
  326TIP3    H1  942   0.532   1.935   1.410
  326TIP3    H2  943   0.654   1.950   1.499
  327TIP3   OH2  944   3.907   6.218   0.483
  327TIP3    H1  945   3.994   6.180   0.500
  327TIP3    H2  946   3.905   6.232   0.389
  328TIP3   OH2  947   4.078   0.054   4.778
  328TIP3    H1  948   4.081  -0.041   4.795
  328TIP3    H2  949   4.138   0.092   4.842
  329TIP3   OH2  950   2.602   2.674   1.606
  329TIP3    H1  951   2.594   2.768   1.626
  329TIP3    H2  952   2.687   2.667   1.563
  330TIP3   OH2  953   2.427   1.778   0.054
  330TIP3    H1  954   2.507   1.781   0.002
  330TIP3    H2  955   2.457   1.767   0.144
  331TIP3   OH2  956   6.225   1.796   1.774
  331TIP3    H1  957   6.286   1.765   1.707
  331TIP3    H2  958   6.230   1.730   1.843
  332TIP3   OH2  959   3.256   2.071   3.017
  332TIP3    H1  960   3.215   2.091   2.933
  332TIP3    H2  961   3.216   1.989   3.044
  333TIP3   OH2  962   4.703   6.120   4.183
  333TIP3    H1  963   4.698   6.183   4.112
  333TIP3    H2  964   4.696   6.034   4.141
  334TIP3   OH2  965   1.969   1.337   4.033
  334TIP3    H1  966   1.896   1.286   3.998
  334TIP3    H2  967   2.017   1.367   3.955
  335TIP3   OH2  968   7.095   5.454   3.475
  335TIP3    H1  969   7.000   5.451   3.462
  335TIP3    H2  970   7.108   5.524   3.539
  336TIP3   OH2  971   0.537   4.336   4.637
  336TIP3    H1  972   0.448   4.324   4.669
  336TIP3    H2  973   0.547   4.431   4.631
  337TIP3   OH2  974   5.859   6.137   1.299
  337TIP3    H1  975   5.944   6.153   1.258
  337TIP3    H2  976   5.879   6.084   1.376
  338TIP3   OH2  977   2.445   6.100   0.952
  338TIP3    H1  978   2.454   6.189   0.985
  338TIP3    H2  979   2.533   6.063   0.959
  339TIP3   OH2  980   1.808   1.114   4.218
  339TIP3    H1  981   1.900   1.112   4.243
  339TIP3    H2  982   1.774   1.028   4.242
  340TIP3   OH2  983   2.801   1.085   5.223
  340TIP3    H1  984   2.768   1.146   5.289
  340TIP3    H2  985   2.722   1.052   5.180
  341TIP3   OH2  986   2.683   6.151   2.910
  341TIP3    H1  987   2.620   6.143   2.839
  341TIP3    H2  988   2.764   6.112   2.875
  342TIP3   OH2  989   6.359   4.535   0.524
  342TIP3    H1  990   6.382   4.447   0.496
  342TIP3    H2  991   6.286   4.523   0.584
  343TIP3   OH2  992   0.566   1.623   5.467
  343TIP3    H1  993   0.641   1.666   5.427
  343TIP3    H2  994   0.579   1.530   5.450
  344TIP3   OH2  995   1.552   6.635   2.272
  344TIP3    H1  996   1.481   6.634   2.336
  344TIP3    H2  997   1.622   6.584   2.313
  345TIP3   OH2  998   2.178   6.142   4.966
  345TIP3    H1  999   2.089   6.118   4.939
  345TIP3    H2 1000   2.166   6.192   5.047
  346TIP3   OH2 1001   5.446   6.532   2.036
  346TIP3    H1 1002   5.386   6.602   2.061
  346TIP3    H2 1003   5.435   6.466   2.105
  347TIP3   OH2 1004   5.808   5.083   4.346
  347TIP3    H1 1005   5.856   5.101   4.266
  347TIP3    H2 1006   5.874   5.089   4.416
  348TIP3   OH2 1007   3.668   5.604   5.596
  348TIP3    H1 1008   3.602   5.541   5.567
  348TIP3    H2 1009   3.657   5.678   5.536
  349TIP3   OH2 1010   5.887   2.166   5.695
  349TIP3    H1 1011   5.845   2.252   5.697
  349TIP3    H2 1012   5.868   2.128   5.781
  350TIP3   OH2 1013   4.792   3.612   2.207
  350TIP3    H1 1014   4.753   3.562   2.135
  350TIP3    H2 1015   4.874   3.646   2.171
  351TIP3   OH2 1016   3.454   4.300   2.971
  351TIP3    H1 1017   3.472   4.379   2.920
  351TIP3    H2 1018   3.361   4.283   2.956
  352TIP3   OH2 1019   3.314   1.856   0.208
  352TIP3    H1 1020   3.380   1.809   0.260
  352TIP3    H2 1021   3.240   1.864   0.268
  353TIP3   OH2 1022   6.758   6.204   3.606
  353TIP3    H1 1023   6.799   6.124   3.638
  353TIP3    H2 1024   6.821   6.240   3.544
  354TIP3   OH2 1025   2.328   4.474   5.061
  354TIP3    H1 1026   2.401   4.467   5.123
  354TIP3    H2 1027   2.285   4.557   5.083
  355TIP3   OH2 1028   3.407   2.681   3.290
  355TIP3    H1 1029   3.483   2.696   3.234
  355TIP3    H2 1030   3.339   2.736   3.253
  356TIP3   OH2 1031   5.434   1.478   2.046
  356TIP3    H1 1032   5.483   1.559   2.045
  356TIP3    H2 1033   5.420   1.456   1.954
  357TIP3   OH2 1034   3.256   0.441   4.087
  357TIP3    H1 1035   3.286   0.477   4.003
  357TIP3    H2 1036   3.182   0.497   4.112
  358TIP3   OH2 1037   2.971   4.853   1.294
  358TIP3    H1 1038   2.940   4.763   1.281
  358TIP3    H2 1039   2.918   4.886   1.367
  359TIP3   OH2 1040   5.163   1.601   4.500
  359TIP3    H1 1041   5.143   1.524   4.447
  359TIP3    H2 1042   5.168   1.673   4.438
  360TIP3   OH2 1043   0.144   3.792   2.263
  360TIP3    H1 1044   0.169   3.862   2.202
  360TIP3    H2 1045   0.166   3.711   2.217
  361TIP3   OH2 1046   2.789   3.468   2.560
  361TIP3    H1 1047   2.871   3.450   2.514
  361TIP3    H2 1048   2.773   3.389   2.612
  362TIP3   OH2 1049   0.025   1.987   3.487
  362TIP3    H1 1050  -0.039   2.051   3.455
  362TIP3    H2 1051   0.067   2.030   3.561
  363TIP3   OH2 1052   2.450   0.898   2.494
  363TIP3    H1 1053   2.539   0.924   2.472
  363TIP3    H2 1054   2.441   0.919   2.587
  364TIP3   OH2 1055   2.824   0.857   5.708
  364TIP3    H1 1056   2.794   0.942   5.740
  364TIP3    H2 1057   2.913   0.874   5.676
  365TIP3   OH2 1058   1.184   4.996   5.083
  365TIP3    H1 1059   1.221   4.911   5.107
  365TIP3    H2 1060   1.222   5.057   5.146
  366TIP3   OH2 1061   6.582   4.902   1.848
  366TIP3    H1 1062   6.608   4.895   1.756
  366TIP3    H2 1063   6.503   4.955   1.847
  367TIP3   OH2 1064   4.069   4.492   0.844
  367TIP3    H1 1065   4.111   4.414   0.807
  367TIP3    H2 1066   4.119   4.510   0.924
  368TIP3   OH2 1067   0.753   3.539   0.116
  368TIP3    H1 1068   0.760   3.455   0.070
  368TIP3    H2 1069   0.743   3.515   0.208
  369TIP3   OH2 1070   5.233   2.018   5.752
  369TIP3    H1 1071   5.274   1.950   5.698
  369TIP3    H2 1072   5.296   2.033   5.823
  370TIP3   OH2 1073   0.529   2.753   1.580
  370TIP3    H1 1074   0.568   2.757   1.492
  370TIP3    H2 1075   0.445   2.710   1.567
  371TIP3   OH2 1076   6.700   3.757   0.231
  371TIP3    H1 1077   6.619   3.734   0.277
  371TIP3    H2 1078   6.672   3.780   0.143
  372TIP3   OH2 1079   4.471   5.463   0.435
  372TIP3    H1 1080   4.552   5.419   0.411
  372TIP3    H2 1081   4.419   5.464   0.354
  373TIP3   OH2 1082   5.214   0.188   4.192
  373TIP3    H1 1083   5.130   0.204   4.234
  373TIP3    H2 1084   5.263   0.135   4.255
  374TIP3   OH2 1085   5.882   4.861   1.320
  374TIP3    H1 1086   5.953   4.921   1.342
  374TIP3    H2 1087   5.830   4.908   1.255
  375TIP3   OH2 1088   0.955   4.681   4.316
  375TIP3    H1 1089   0.918   4.647   4.234
  375TIP3    H2 1090   1.047   4.699   4.295
  376TIP3   OH2 1091   5.744   3.667   5.389
  376TIP3    H1 1092   5.660   3.643   5.429
  376TIP3    H2 1093   5.802   3.593   5.409
  377TIP3   OH2 1094   0.728   3.539   2.883
  377TIP3    H1 1095   0.687   3.609   2.833
  377TIP3    H2 1096   0.821   3.561   2.884
  378TIP3   OH2 1097   0.986   1.729   3.989
  378TIP3    H1 1098   1.061   1.772   3.947
  378TIP3    H2 1099   0.926   1.801   4.008
  379TIP3   OH2 1100   7.145   2.983   1.429
  379TIP3    H1 1101   7.228   2.994   1.475
  379TIP3    H2 1102   7.082   2.960   1.498
  380TIP3   OH2 1103   6.162   4.380   3.095
  380TIP3    H1 1104   6.073   4.345   3.091
  380TIP3    H2 1105   6.150   4.475   3.104
  381TIP3   OH2 1106   2.974   4.994   4.233
  381TIP3    H1 1107   3.049   4.947   4.270
  381TIP3    H2 1108   2.985   4.985   4.138
  382TIP3   OH2 1109   6.446   3.967   5.274
  382TIP3    H1 1110   6.460   3.906   5.346
  382TIP3    H2 1111   6.475   4.052   5.309
  383TIP3   OH2 1112   5.360   4.513   2.652
  383TIP3    H1 1113   5.345   4.568   2.729
  383TIP3    H2 1114   5.282   4.459   2.644
  384TIP3   OH2 1115   6.621   4.179   4.246
  384TIP3    H1 1116   6.607   4.236   4.171
  384TIP3    H2 1117   6.536   4.174   4.290
  385TIP3   OH2 1118   0.206   6.398   5.587
  385TIP3    H1 1119   0.157   6.332   5.537
  385TIP3    H2 1120   0.190   6.480   5.541
  386TIP3   OH2 1121   0.711   4.384   3.200
  386TIP3    H1 1122   0.627   4.377   3.153
  386TIP3    H2 1123   0.688   4.370   3.292
  387TIP3   OH2 1124   5.007   3.180   2.257
  387TIP3    H1 1125   5.080   3.223   2.211
  387TIP3    H2 1126   4.928   3.220   2.220
  388TIP3   OH2 1127   4.182   3.937   4.294
  388TIP3    H1 1128   4.188   4.017   4.241
  388TIP3    H2 1129   4.231   3.872   4.243
  389TIP3   OH2 1130   5.935   3.354   3.799
  389TIP3    H1 1131   5.869   3.305   3.849
  389TIP3    H2 1132   5.966   3.293   3.733
  390TIP3   OH2 1133   1.899   6.377   4.942
  390TIP3    H1 1134   1.963   6.357   5.010
  390TIP3    H2 1135   1.878   6.292   4.903
  391TIP3   OH2 1136   1.096   5.032   1.991
  391TIP3    H1 1137   1.106   5.086   2.070
  391TIP3    H2 1138   1.165   4.966   1.999
  392TIP3   OH2 1139   3.566   1.146   1.486
  392TIP3    H1 1140   3.634   1.088   1.451
  392TIP3    H2 1141   3.550   1.209   1.416
  393TIP3   OH2 1142   1.275   4.362   2.316
  393TIP3    H1 1143   1.251   4.270   2.315
  393TIP3    H2 1144   1.209   4.403   2.372
  394TIP3   OH2 1145   1.513   6.289   2.379
  394TIP3    H1 1146   1.496   6.200   2.349
  394TIP3    H2 1147   1.536   6.337   2.300
  395TIP3   OH2 1148   5.431   3.897   2.626
  395TIP3    H1 1149   5.459   3.836   2.694
  395TIP3    H2 1150   5.411   3.978   2.673
  396TIP3   OH2 1151   3.189   0.443   5.023
  396TIP3    H1 1152   3.262   0.505   5.018
  396TIP3    H2 1153   3.214   0.381   5.091
  397TIP3   OH2 1154   5.870   1.293   2.789
  397TIP3    H1 1155   5.801   1.359   2.796
  397TIP3    H2 1156   5.951   1.343   2.799
  398TIP3   OH2 1157   3.393   4.738   5.245
  398TIP3    H1 1158   3.470   4.682   5.253
  398TIP3    H2 1159   3.366   4.756   5.335
  399TIP3   OH2 1160   6.124   1.823   3.866
  399TIP3    H1 1161   6.118   1.917   3.883
  399TIP3    H2 1162   6.137   1.816   3.771
  400TIP3   OH2 1163   2.072   1.269   5.485
  400TIP3    H1 1164   2.070   1.174   5.475
  400TIP3    H2 1165   2.110   1.301   5.403
  401TIP3   OH2 1166   1.680   2.274   0.150
  401TIP3    H1 1167   1.644   2.186   0.162
  401TIP3    H2 1168   1.775   2.263   0.160
  402TIP3   OH2 1169   0.354   6.278   5.274
  402TIP3    H1 1170   0.384   6.364   5.302
  402TIP3    H2 1171   0.275   6.295   5.222
  403TIP3   OH2 1172   5.717   6.285   4.962
  403TIP3    H1 1173   5.628   6.295   4.997
  403TIP3    H2 1174   5.759   6.369   4.981
  404TIP3   OH2 1175   4.933   5.129   3.454
  404TIP3    H1 1176   4.883   5.054   3.422
  404TIP3    H2 1177   4.876   5.171   3.517
  405TIP3   OH2 1178   4.437   4.783   4.853
  405TIP3    H1 1179   4.370   4.779   4.784
  405TIP3    H2 1180   4.458   4.691   4.871
  406TIP3   OH2 1181   0.942   3.716   2.629
  406TIP3    H1 1182   0.904   3.779   2.690
  406TIP3    H2 1183   1.029   3.698   2.663
  407TIP3   OH2 1184   6.941   2.813   1.283
  407TIP3    H1 1185   6.853   2.849   1.299
  407TIP3    H2 1186   7.000   2.885   1.303
  408TIP3   OH2 1187   4.707   0.171   1.053
  408TIP3    H1 1188   4.648   0.245   1.045
  408TIP3    H2 1189   4.651   0.098   1.077
  409TIP3   OH2 1190   4.053   3.114   4.969
  409TIP3    H1 1191   4.112   3.163   4.912
  409TIP3    H2 1192   4.110   3.059   5.022
  410TIP3   OH2 1193   1.379   2.522   2.219
  410TIP3    H1 1194   1.305   2.462   2.213
  410TIP3    H2 1195   1.430   2.490   2.294
  411TIP3   OH2 1196   6.506   1.133   3.930
  411TIP3    H1 1197   6.480   1.177   3.849
  411TIP3    H2 1198   6.504   1.202   3.996
  412TIP3   OH2 1199   3.230   0.258   2.164
  412TIP3    H1 1200   3.171   0.332   2.156
  412TIP3    H2 1201   3.203   0.197   2.095
  413TIP3   OH2 1202   4.092   1.118   1.753
  413TIP3    H1 1203   4.097   1.132   1.847
  413TIP3    H2 1204   3.998   1.117   1.734
  414TIP3   OH2 1205   0.421   3.150   3.623
  414TIP3    H1 1206   0.458   3.062   3.629
  414TIP3    H2 1207   0.496   3.207   3.607
  415TIP3   OH2 1208   7.165   2.958   2.293
  415TIP3    H1 1209   7.235   2.903   2.328
  415TIP3    H2 1210   7.085   2.922   2.330
  416TIP3   OH2 1211   1.686   0.564   5.226
  416TIP3    H1 1212   1.691   0.531   5.136
  416TIP3    H2 1213   1.771   0.543   5.264
  417TIP3   OH2 1214   5.590   2.337   4.474
  417TIP3    H1 1215   5.616   2.245   4.473
  417TIP3    H2 1216   5.632   2.373   4.552
  418TIP3   OH2 1217   5.191   1.591   4.814
  418TIP3    H1 1218   5.278   1.631   4.821
  418TIP3    H2 1219   5.175   1.587   4.719
  419TIP3   OH2 1220   0.930   0.138   4.702
  419TIP3    H1 1221   0.925   0.140   4.606
  419TIP3    H2 1222   1.023   0.147   4.721
  420TIP3   OH2 1223   4.353   5.656   4.050
  420TIP3    H1 1224   4.286   5.682   4.114
  420TIP3    H2 1225   4.366   5.732   3.995
  421TIP3   OH2 1226   5.547   4.493   4.559
  421TIP3    H1 1227   5.599   4.421   4.525
  421TIP3    H2 1228   5.600   4.529   4.630
  422TIP3   OH2 1229   4.561   3.532   3.765
  422TIP3    H1 1230   4.520   3.606   3.810
  422TIP3    H2 1231   4.649   3.527   3.801
  423TIP3   OH2 1232   4.801   2.864   2.139
  423TIP3    H1 1233   4.750   2.942   2.159
  423TIP3    H2 1234   4.839   2.837   2.222
  424TIP3   OH2 1235   4.705   1.293   1.074
  424TIP3    H1 1236   4.661   1.253   0.999
  424TIP3    H2 1237   4.788   1.245   1.082
  425TIP3   OH2 1238   6.516   6.114   4.377
  425TIP3    H1 1239   6.427   6.079   4.369
  425TIP3    H2 1240   6.573   6.037   4.377
  426TIP3   OH2 1241   0.794   1.696   5.779
  426TIP3    H1 1242   0.822   1.761   5.716
  426TIP3    H2 1243   0.865   1.692   5.843
  427TIP3   OH2 1244   5.347   5.612   0.064
  427TIP3    H1 1245   5.355   5.528   0.020
  427TIP3    H2 1246   5.353   5.677  -0.006
  428TIP3   OH2 1247   0.790   1.695   0.072
  428TIP3    H1 1248   0.841   1.623   0.108
  428TIP3    H2 1249   0.738   1.727   0.145
  429TIP3   OH2 1250   2.429   4.493   0.279
  429TIP3    H1 1251   2.380   4.521   0.357
  429TIP3    H2 1252   2.514   4.535   0.288
  430TIP3   OH2 1253   1.653   1.842   1.876
  430TIP3    H1 1254   1.585   1.799   1.929
  430TIP3    H2 1255   1.682   1.916   1.930
  431TIP3   OH2 1256   1.017   5.391   2.877
  431TIP3    H1 1257   1.017   5.297   2.861
  431TIP3    H2 1258   1.062   5.401   2.961
  432TIP3   OH2 1259   1.946   2.896   0.741
  432TIP3    H1 1260   1.882   2.934   0.681
  432TIP3    H2 1261   1.994   2.833   0.688
  433TIP3   OH2 1262   3.671   2.107   3.115
  433TIP3    H1 1263   3.720   2.146   3.187
  433TIP3    H2 1264   3.730   2.040   3.079
  434TIP3   OH2 1265   1.884   0.985   1.887
  434TIP3    H1 1266   1.859   1.072   1.855
  434TIP3    H2 1267   1.801   0.939   1.899
  435TIP3   OH2 1268   5.384   1.619   0.689
  435TIP3    H1 1269   5.459   1.572   0.652
  435TIP3    H2 1270   5.398   1.710   0.665
  436TIP3   OH2 1271   3.771   1.242   5.260
  436TIP3    H1 1272   3.715   1.269   5.187
  436TIP3    H2 1273   3.752   1.148   5.271
  437TIP3   OH2 1274   0.425   5.775   5.224
  437TIP3    H1 1275   0.330   5.773   5.220
  437TIP3    H2 1276   0.449   5.707   5.287
  438TIP3   OH2 1277   5.268   5.131   5.227
  438TIP3    H1 1278   5.317   5.060   5.269
  438TIP3    H2 1279   5.194   5.087   5.185
  439TIP3   OH2 1280   0.503   5.052   4.269
  439TIP3    H1 1281   0.502   5.148   4.279
  439TIP3    H2 1282   0.531   5.019   4.354
  440TIP3   OH2 1283   1.193   6.101   1.463
  440TIP3    H1 1284   1.282   6.079   1.439
  440TIP3    H2 1285   1.158   6.149   1.387
  441TIP3   OH2 1286   3.829   1.482   4.588
  441TIP3    H1 1287   3.868   1.570   4.584
  441TIP3    H2 1288   3.777   1.475   4.509
  442TIP3   OH2 1289   4.245   6.701   2.773
  442TIP3    H1 1290   4.330   6.732   2.742
  442TIP3    H2 1291   4.202   6.667   2.695
  443TIP3   OH2 1292   4.961   1.614   4.989
  443TIP3    H1 1293   5.032   1.658   4.942
  443TIP3    H2 1294   4.997   1.527   5.010
  444TIP3   OH2 1295   6.541   1.237   5.204
  444TIP3    H1 1296   6.530   1.156   5.253
  444TIP3    H2 1297   6.451   1.267   5.187
  445TIP3   OH2 1298   4.685   3.511   3.227
  445TIP3    H1 1299   4.708   3.449   3.296
  445TIP3    H2 1300   4.768   3.533   3.185
  446TIP3   OH2 1301   5.058   4.025   4.802
  446TIP3    H1 1302   5.105   4.072   4.733
  446TIP3    H2 1303   5.125   4.009   4.869
  447TIP3   OH2 1304   2.043   6.198   1.312
  447TIP3    H1 1305   2.075   6.274   1.264
  447TIP3    H2 1306   2.106   6.188   1.384
  448TIP3   OH2 1307   3.636   2.393   2.725
  448TIP3    H1 1308   3.648   2.478   2.682
  448TIP3    H2 1309   3.600   2.416   2.812
  449TIP3   OH2 1310   1.539   6.551   3.161
  449TIP3    H1 1311   1.602   6.619   3.137
  449TIP3    H2 1312   1.453   6.592   3.150
  450TIP3   OH2 1313   1.621   0.185   2.577
  450TIP3    H1 1314   1.582   0.254   2.524
  450TIP3    H2 1315   1.547   0.143   2.622
  451TIP3   OH2 1316   5.712   6.573   5.276
  451TIP3    H1 1317   5.636   6.515   5.272
  451TIP3    H2 1318   5.752   6.566   5.189
  452TIP3   OH2 1319   0.179   0.468   4.361
  452TIP3    H1 1320   0.090   0.436   4.343
  452TIP3    H2 1321   0.231   0.388   4.369
  453TIP3   OH2 1322   2.730   0.367   2.343
  453TIP3    H1 1323   2.673   0.376   2.266
  453TIP3    H2 1324   2.754   0.275   2.345
  454TIP3   OH2 1325   0.552   0.864   5.482
  454TIP3    H1 1326   0.503   0.811   5.545
  454TIP3    H2 1327   0.610   0.918   5.536
  455TIP3   OH2 1328   0.647   5.639   3.185
  455TIP3    H1 1329   0.688   5.710   3.135
  455TIP3    H2 1330   0.671   5.560   3.138
  456TIP3   OH2 1331   3.043   2.614   4.987
  456TIP3    H1 1332   3.019   2.706   4.984
  456TIP3    H2 1333   3.047   2.587   4.896
  457TIP3   OH2 1334   4.601   4.013   4.147
  457TIP3    H1 1335   4.667   3.983   4.084
  457TIP3    H2 1336   4.527   4.040   4.092
  458TIP3   OH2 1337   1.455   0.510   0.185
  458TIP3    H1 1338   1.504   0.449   0.130
  458TIP3    H2 1339   1.377   0.461   0.211
  459TIP3   OH2 1340   5.503   3.324   5.215
  459TIP3    H1 1341   5.452   3.372   5.281
  459TIP3    H2 1342   5.465   3.237   5.215
  460TIP3   OH2 1343   6.186   5.082   3.307
  460TIP3    H1 1344   6.162   5.007   3.363
  460TIP3    H2 1345   6.247   5.132   3.360
  461TIP3   OH2 1346   7.185   1.098   4.241
  461TIP3    H1 1347   7.159   1.110   4.150
  461TIP3    H2 1348   7.112   1.133   4.291
  462TIP3   OH2 1349   2.692   2.579   0.260
  462TIP3    H1 1350   2.718   2.530   0.337
  462TIP3    H2 1351   2.649   2.515   0.204
  463TIP3   OH2 1352   0.442   3.491   2.686
  463TIP3    H1 1353   0.450   3.501   2.781
  463TIP3    H2 1354   0.504   3.422   2.664
  464TIP3   OH2 1355   1.912   5.040   2.826
  464TIP3    H1 1356   1.874   5.123   2.853
  464TIP3    H2 1357   1.948   5.002   2.906
  465TIP3   OH2 1358   0.919   4.201   3.238
  465TIP3    H1 1359   0.903   4.288   3.201
  465TIP3    H2 1360   1.001   4.210   3.287
  466TIP3   OH2 1361   4.986   6.589   4.720
  466TIP3    H1 1362   4.902   6.562   4.758
  466TIP3    H2 1363   4.976   6.573   4.626
  467TIP3   OH2 1364   4.612   0.849   2.807
  467TIP3    H1 1365   4.630   0.768   2.760
  467TIP3    H2 1366   4.648   0.917   2.749
  468TIP3   OH2 1367   0.526   3.697   5.055
  468TIP3    H1 1368   0.602   3.737   5.012
  468TIP3    H2 1369   0.459   3.692   4.987
  469TIP3   OH2 1370   0.909   2.575   4.733
  469TIP3    H1 1371   1.001   2.557   4.716
  469TIP3    H2 1372   0.862   2.534   4.660
  470TIP3   OH2 1373   0.297   5.626   3.398
  470TIP3    H1 1374   0.323   5.545   3.441
  470TIP3    H2 1375   0.255   5.598   3.317
  471TIP3   OH2 1376   3.014   4.431   4.519
  471TIP3    H1 1377   3.090   4.486   4.504
  471TIP3    H2 1378   2.960   4.441   4.441
  472TIP3   OH2 1379   5.401   3.421   4.115
  472TIP3    H1 1380   5.360   3.475   4.048
  472TIP3    H2 1381   5.437   3.346   4.067
  473TIP3   OH2 1382   3.152   1.158   5.056
  473TIP3    H1 1383   3.177   1.229   5.115
  473TIP3    H2 1384   3.201   1.082   5.087
  474TIP3   OH2 1385   6.681   2.525   2.812
  474TIP3    H1 1386   6.752   2.463   2.828
  474TIP3    H2 1387   6.719   2.610   2.836
  475TIP3   OH2 1388   3.878   6.009   2.867
  475TIP3    H1 1389   3.790   6.045   2.859
  475TIP3    H2 1390   3.893   5.962   2.786
  476TIP3   OH2 1391   6.519   0.184   3.228
  476TIP3    H1 1392   6.441   0.229   3.195
  476TIP3    H2 1393   6.525   0.104   3.176
  477TIP3   OH2 1394   2.530   2.165   4.557
  477TIP3    H1 1395   2.464   2.100   4.535
  477TIP3    H2 1396   2.601   2.149   4.494
  478TIP3   OH2 1397   3.780   5.994   4.209
  478TIP3    H1 1398   3.762   6.078   4.167
  478TIP3    H2 1399   3.723   5.993   4.286
  479TIP3   OH2 1400   4.107   3.399   2.830
  479TIP3    H1 1401   4.033   3.382   2.771
  479TIP3    H2 1402   4.154   3.471   2.789
  480TIP3   OH2 1403   6.579   2.930   5.717
  480TIP3    H1 1404   6.673   2.914   5.708
  480TIP3    H2 1405   6.538   2.847   5.691
  481TIP3   OH2 1406   3.117   0.644   4.306
  481TIP3    H1 1407   3.089   0.651   4.214
  481TIP3    H2 1408   3.078   0.719   4.349
  482TIP3   OH2 1409   1.485   0.574   3.730
  482TIP3    H1 1410   1.476   0.631   3.806
  482TIP3    H2 1411   1.399   0.533   3.721
  483TIP3   OH2 1412   4.503   6.081   0.874
  483TIP3    H1 1413   4.537   5.993   0.861
  483TIP3    H2 1414   4.561   6.119   0.941
  484TIP3   OH2 1415   3.189   4.949   1.146
  484TIP3    H1 1416   3.209   5.043   1.145
  484TIP3    H2 1417   3.126   4.938   1.218
  485TIP3   OH2 1418   5.868   5.631   3.786
  485TIP3    H1 1419   5.815   5.618   3.708
  485TIP3    H2 1420   5.954   5.657   3.752
  486TIP3   OH2 1421   1.022   1.925   3.593
  486TIP3    H1 1422   1.099   1.870   3.576
  486TIP3    H2 1423   1.057   2.014   3.597
  487TIP3   OH2 1424   4.630   6.683   4.541
  487TIP3    H1 1425   4.714   6.649   4.512
  487TIP3    H2 1426   4.575   6.605   4.552
  488TIP3   OH2 1427   5.922   4.275   3.034
  488TIP3    H1 1428   5.916   4.265   2.939
  488TIP3    H2 1429   5.906   4.187   3.069
  489TIP3   OH2 1430   1.728   3.970   4.562
  489TIP3    H1 1431   1.686   3.885   4.578
  489TIP3    H2 1432   1.680   4.031   4.617
  490TIP3   OH2 1433   1.631   5.999   1.414
  490TIP3    H1 1434   1.633   5.962   1.325
  490TIP3    H2 1435   1.694   6.071   1.411
  491TIP3   OH2 1436   4.196   0.798   2.015
  491TIP3    H1 1437   4.127   0.863   2.028
  491TIP3    H2 1438   4.187   0.770   1.924
  492TIP3   OH2 1439   0.334   2.108   0.703
  492TIP3    H1 1440   0.274   2.131   0.631
  492TIP3    H2 1441   0.395   2.181   0.707
  493TIP3   OH2 1442   2.348   4.223   4.681
  493TIP3    H1 1443   2.290   4.174   4.622
  493TIP3    H2 1444   2.294   4.240   4.758
  494TIP3   OH2 1445   3.222   2.463   4.112
  494TIP3    H1 1446   3.289   2.519   4.151
  494TIP3    H2 1447   3.171   2.522   4.056
  495TIP3   OH2 1448   3.066   3.391   4.792
  495TIP3    H1 1449   3.085   3.359   4.704
  495TIP3    H2 1450   3.030   3.479   4.778
  496TIP3   OH2 1451   0.647   0.744   0.408
  496TIP3    H1 1452   0.567   0.732   0.459
  496TIP3    H2 1453   0.616   0.783   0.325
  497TIP3   OH2 1454   0.502   1.886   3.632
  497TIP3    H1 1455   0.535   1.930   3.711
  497TIP3    H2 1456   0.497   1.956   3.566
  498TIP3   OH2 1457   2.517   5.414   3.431
  498TIP3    H1 1458   2.553   5.427   3.343
  498TIP3    H2 1459   2.526   5.319   3.446
  499TIP3   OH2 1460   0.886   2.215   4.578
  499TIP3    H1 1461   0.814   2.278   4.582
  499TIP3    H2 1462   0.850   2.134   4.614
  500TIP3   OH2 1463   3.117   3.672   5.757
  500TIP3    H1 1464   3.082   3.752   5.795
  500TIP3    H2 1465   3.065   3.602   5.797
  501TIP3   OH2 1466   5.141   2.818   5.867
  501TIP3    H1 1467   5.081   2.836   5.795
  501TIP3    H2 1468   5.085   2.783   5.936
  502TIP3   OH2 1469   3.591   1.901   1.112
  502TIP3    H1 1470   3.497   1.908   1.131
  502TIP3    H2 1471   3.610   1.808   1.123
  503TIP3   OH2 1472   2.268   5.110   4.297
  503TIP3    H1 1473   2.333   5.180   4.306
  503TIP3    H2 1474   2.201   5.131   4.362
  504TIP3   OH2 1475   2.007   4.785   2.551
  504TIP3    H1 1476   1.939   4.847   2.576
  504TIP3    H2 1477   1.965   4.729   2.485
  505TIP3   OH2 1478   3.278   4.798   3.822
  505TIP3    H1 1479   3.237   4.857   3.759
  505TIP3    H2 1480   3.341   4.852   3.870
  506TIP3   OH2 1481   1.446   1.342   1.741
  506TIP3    H1 1482   1.529   1.318   1.700
  506TIP3    H2 1483   1.446   1.438   1.739
  507TIP3   OH2 1484   4.849   6.245   5.435
  507TIP3    H1 1485   4.899   6.304   5.378
  507TIP3    H2 1486   4.896   6.162   5.428
  508TIP3   OH2 1487   4.931   1.338   0.403
  508TIP3    H1 1488   4.982   1.387   0.339
  508TIP3    H2 1489   4.868   1.401   0.438
  509TIP3   OH2 1490   5.176   3.724   4.284
  509TIP3    H1 1491   5.171   3.735   4.189
  509TIP3    H2 1492   5.165   3.812   4.319
  510TIP3   OH2 1493   5.480   0.464   0.295
  510TIP3    H1 1494   5.444   0.414   0.368
  510TIP3    H2 1495   5.450   0.554   0.310
  511TIP3   OH2 1496   4.371   0.931   2.897
  511TIP3    H1 1497   4.399   0.995   2.963
  511TIP3    H2 1498   4.452   0.889   2.869
  512TIP3   OH2 1499   2.801   1.572   5.087
  512TIP3    H1 1500   2.835   1.584   5.175
  512TIP3    H2 1501   2.835   1.487   5.059
  513TIP3   OH2 1502   3.705   3.528   0.964
  513TIP3    H1 1503   3.690   3.520   0.870
  513TIP3    H2 1504   3.662   3.611   0.988
  514TIP3   OH2 1505   6.025   6.556   0.660
  514TIP3    H1 1506   6.069   6.584   0.579
  514TIP3    H2 1507   6.078   6.483   0.691
  515TIP3   OH2 1508   2.360   3.237   3.063
  515TIP3    H1 1509   2.322   3.150   3.051
  515TIP3    H2 1510   2.294   3.285   3.112
  516TIP3   OH2 1511   1.770   4.699   3.011
  516TIP3    H1 1512   1.704   4.768   3.018
  516TIP3    H2 1513   1.853   4.742   3.034
  517TIP3   OH2 1514   1.692   3.834   5.042
  517TIP3    H1 1515   1.685   3.864   4.952
  517TIP3    H2 1516   1.785   3.837   5.062
  518TIP3   OH2 1517   3.827   0.906   3.815
  518TIP3    H1 1518   3.782   0.829   3.781
  518TIP3    H2 1519   3.885   0.872   3.882
  519TIP3   OH2 1520   2.324   3.749   0.380
  519TIP3    H1 1521   2.263   3.812   0.417
  519TIP3    H2 1522   2.269   3.682   0.339
  520TIP3   OH2 1523   4.214   4.639   1.978
  520TIP3    H1 1524   4.123   4.611   1.986
  520TIP3    H2 1525   4.249   4.632   2.067
  521TIP3   OH2 1526   1.279   2.480   0.472
  521TIP3    H1 1527   1.270   2.518   0.386
  521TIP3    H2 1528   1.277   2.385   0.457
  522TIP3   OH2 1529   3.453   2.342   3.601
  522TIP3    H1 1530   3.380   2.296   3.560
  522TIP3    H2 1531   3.514   2.273   3.625
  523TIP3   OH2 1532   1.612   2.437   2.083
  523TIP3    H1 1533   1.674   2.395   2.143
  523TIP3    H2 1534   1.528   2.434   2.128
  524TIP3   OH2 1535   5.954   3.239   0.940
  524TIP3    H1 1536   5.990   3.238   1.029
  524TIP3    H2 1537   5.859   3.249   0.953
  525TIP3   OH2 1538   4.091   2.325   2.196
  525TIP3    H1 1539   4.031   2.398   2.213
  525TIP3    H2 1540   4.119   2.296   2.283
  526TIP3   OH2 1541   2.412   6.517   5.648
  526TIP3    H1 1542   2.319   6.506   5.630
  526TIP3    H2 1543   2.420   6.606   5.683
  527TIP3   OH2 1544   2.549   1.035   5.082
  527TIP3    H1 1545   2.470   0.996   5.045
  527TIP3    H2 1546   2.557   1.119   5.036
  528TIP3   OH2 1547   3.157   2.274   1.501
  528TIP3    H1 1548   3.062   2.288   1.511
  528TIP3    H2 1549   3.194   2.363   1.500
  529TIP3   OH2 1550   6.527   1.965   0.574
  529TIP3    H1 1551   6.545   2.056   0.598
  529TIP3    H2 1552   6.598   1.915   0.615
  530TIP3   OH2 1553   4.995   0.410   1.690
  530TIP3    H1 1554   4.989   0.454   1.605
  530TIP3    H2 1555   4.941   0.331   1.679
  531TIP3   OH2 1556   7.000   0.273   1.513
  531TIP3    H1 1557   6.912   0.241   1.532
  531TIP3    H2 1558   7.023   0.326   1.589
  532TIP3   OH2 1559   1.612   2.645   4.069
  532TIP3    H1 1560   1.596   2.705   4.142
  532TIP3    H2 1561   1.706   2.630   4.071
  533TIP3   OH2 1562   0.228   2.954   3.419
  533TIP3    H1 1563   0.198   2.899   3.491
  533TIP3    H2 1564   0.191   2.914   3.340
  534TIP3   OH2 1565   0.148   4.985   5.545
  534TIP3    H1 1566   0.091   5.060   5.560
  534TIP3    H2 1567   0.199   4.977   5.625
  535TIP3   OH2 1568   2.880   5.085   5.355
  535TIP3    H1 1569   2.901   5.103   5.446
  535TIP3    H2 1570   2.923   5.001   5.337
  536TIP3   OH2 1571   4.812   4.575   0.365
  536TIP3    H1 1572   4.807   4.665   0.336
  536TIP3    H2 1573   4.868   4.532   0.300
  537TIP3   OH2 1574   2.747   6.320   1.443
  537TIP3    H1 1575   2.817   6.384   1.456
  537TIP3    H2 1576   2.758   6.257   1.514
  538TIP3   OH2 1577   2.010   2.975   3.881
  538TIP3    H1 1578   1.960   2.906   3.838
  538TIP3    H2 1579   1.955   3.053   3.874
  539TIP3   OH2 1580   0.703   4.379   5.643
  539TIP3    H1 1581   0.671   4.291   5.658
  539TIP3    H2 1582   0.798   4.370   5.640
  540TIP3   OH2 1583   1.560   4.643   4.261
  540TIP3    H1 1584   1.522   4.581   4.323
  540TIP3    H2 1585   1.622   4.695   4.313
  541TIP3   OH2 1586   6.253   2.926   5.371
  541TIP3    H1 1587   6.209   2.853   5.328
  541TIP3    H2 1588   6.238   2.911   5.465
  542TIP3   OH2 1589   5.190   3.757   5.073
  542TIP3    H1 1590   5.125   3.703   5.029
  542TIP3    H2 1591   5.140   3.811   5.134
  543TIP3   OH2 1592   0.423   5.331   5.774
  543TIP3    H1 1593   0.344   5.301   5.730
  543TIP3    H2 1594   0.432   5.274   5.850
  544TIP3   OH2 1595   4.163   0.236   0.633
  544TIP3    H1 1596   4.201   0.149   0.622
  544TIP3    H2 1597   4.213   0.293   0.575
  545TIP3   OH2 1598   1.390   5.350   2.577
  545TIP3    H1 1599   1.362   5.364   2.487
  545TIP3    H2 1600   1.374   5.434   2.621
  546TIP3   OH2 1601   4.786   1.475   1.488
  546TIP3    H1 1602   4.707   1.452   1.440
  546TIP3    H2 1603   4.833   1.392   1.498
  547TIP3   OH2 1604   6.030   6.245   5.557
  547TIP3    H1 1605   6.051   6.338   5.551
  547TIP3    H2 1606   5.956   6.241   5.618
  548TIP3   OH2 1607   0.703   2.354   0.069
  548TIP3    H1 1608   0.691   2.449   0.062
  548TIP3    H2 1609   0.643   2.316   0.006
  549TIP3   OH2 1610   0.026   6.317   4.812
  549TIP3    H1 1611   0.084   6.247   4.842
  549TIP3    H2 1612   0.079   6.396   4.817
  550TIP3   OH2 1613   0.698   0.504   3.045
  550TIP3    H1 1614   0.698   0.591   3.085
  550TIP3    H2 1615   0.767   0.507   2.979
  551TIP3   OH2 1616   3.654   3.179   0.160
  551TIP3    H1 1617   3.707   3.098   0.159
  551TIP3    H2 1618   3.565   3.149   0.143
  552TIP3   OH2 1619   2.471   3.559   2.798
  552TIP3    H1 1620   2.391   3.579   2.748
  552TIP3    H2 1621   2.536   3.621   2.764
  553TIP3   OH2 1622   0.335   3.771   2.742
  553TIP3    H1 1623   0.353   3.696   2.686
  553TIP3    H2 1624   0.329   3.845   2.682
  554TIP3   OH2 1625   4.224   1.861   2.193
  554TIP3    H1 1626   4.194   1.944   2.155
  554TIP3    H2 1627   4.316   1.855   2.169
  555TIP3   OH2 1628   2.995   4.784   0.444
  555TIP3    H1 1629   2.982   4.807   0.535
  555TIP3    H2 1630   2.988   4.867   0.396
  556TIP3   OH2 1631   6.166   2.394   4.181
  556TIP3    H1 1632   6.214   2.312   4.197
  556TIP3    H2 1633   6.097   2.369   4.119
  557TIP3   OH2 1634   6.812   5.011   1.926
  557TIP3    H1 1635   6.873   4.938   1.934
  557TIP3    H2 1636   6.729   4.971   1.903
  558TIP3   OH2 1637   5.503   3.221   1.510
  558TIP3    H1 1638   5.483   3.153   1.446
  558TIP3    H2 1639   5.537   3.294   1.458
  559TIP3   OH2 1640   1.150   0.679   5.781
  559TIP3    H1 1641   1.214   0.739   5.744
  559TIP3    H2 1642   1.081   0.735   5.816
  560TIP3   OH2 1643   4.768   2.865   4.582
  560TIP3    H1 1644   4.736   2.867   4.672
  560TIP3    H2 1645   4.842   2.925   4.581
  561TIP3   OH2 1646   0.160   0.071   0.189
  561TIP3    H1 1647   0.098   0.096   0.121
  561TIP3    H2 1648   0.126  -0.011   0.224
  562TIP3   OH2 1649   6.054   2.823   3.791
  562TIP3    H1 1650   5.988   2.787   3.731
  562TIP3    H2 1651   6.050   2.917   3.777
  563TIP3   OH2 1652   6.674   3.229   2.553
  563TIP3    H1 1653   6.705   3.224   2.463
  563TIP3    H2 1654   6.579   3.236   2.545
  564TIP3   OH2 1655   6.544   0.541   4.626
  564TIP3    H1 1656   6.471   0.598   4.603
  564TIP3    H2 1657   6.531   0.462   4.574
  565TIP3   OH2 1658   3.021   6.365   5.811
  565TIP3    H1 1659   3.049   6.419   5.738
  565TIP3    H2 1660   2.962   6.300   5.772
  566TIP3   OH2 1661   6.349   3.252   2.752
  566TIP3    H1 1662   6.379   3.342   2.744
  566TIP3    H2 1663   6.405   3.213   2.819
  567TIP3   OH2 1664   6.926   5.158   4.872
  567TIP3    H1 1665   6.932   5.066   4.897
  567TIP3    H2 1666   6.865   5.197   4.934
  568TIP3   OH2 1667   3.911   1.817   1.796
  568TIP3    H1 1668   3.906   1.910   1.815
  568TIP3    H2 1669   3.904   1.812   1.700
  569TIP3   OH2 1670   3.222   3.152   5.494
  569TIP3    H1 1671   3.156   3.220   5.506
  569TIP3    H2 1672   3.300   3.187   5.538
  570TIP3   OH2 1673   4.693   4.388   4.457
  570TIP3    H1 1674   4.729   4.299   4.463
  570TIP3    H2 1675   4.677   4.414   4.548
  571TIP3   OH2 1676   3.596   6.580   1.684
  571TIP3    H1 1677   3.553   6.662   1.709
  571TIP3    H2 1678   3.620   6.540   1.767
  572TIP3   OH2 1679   5.760   0.147   1.042
  572TIP3    H1 1680   5.725   0.126   0.955
  572TIP3    H2 1681   5.844   0.101   1.046
  573TIP3   OH2 1682   3.273   3.436   3.699
  573TIP3    H1 1683   3.238   3.377   3.766
  573TIP3    H2 1684   3.368   3.420   3.701
  574TIP3   OH2 1685   3.057   2.262   3.207
  574TIP3    H1 1686   3.052   2.341   3.154
  574TIP3    H2 1687   3.086   2.194   3.146
  575TIP3   OH2 1688   4.139   1.695   2.422
  575TIP3    H1 1689   4.097   1.615   2.390
  575TIP3    H2 1690   4.161   1.744   2.343
  576TIP3   OH2 1691   6.028   1.236   2.036
  576TIP3    H1 1692   6.006   1.196   1.952
  576TIP3    H2 1693   5.943   1.257   2.075
  577TIP3   OH2 1694   1.826   1.804   3.721
  577TIP3    H1 1695   1.837   1.762   3.635
  577TIP3    H2 1696   1.914   1.834   3.744
  578TIP3   OH2 1697   5.267   4.140   0.612
  578TIP3    H1 1698   5.297   4.099   0.532
  578TIP3    H2 1699   5.172   4.148   0.602
  579TIP3   OH2 1700   3.486   0.404   4.498
  579TIP3    H1 1701   3.401   0.447   4.492
  579TIP3    H2 1702   3.490   0.348   4.420
  580TIP3   OH2 1703   6.928   4.463   1.418
  580TIP3    H1 1704   7.015   4.438   1.447
  580TIP3    H2 1705   6.901   4.533   1.478
  581TIP3   OH2 1706   4.343   1.825   0.226
  581TIP3    H1 1707   4.408   1.760   0.251
  581TIP3    H2 1708   4.344   1.825   0.130
  582TIP3   OH2 1709   5.874   4.286   4.463
  582TIP3    H1 1710   5.908   4.218   4.404
  582TIP3    H2 1711   5.858   4.361   4.407
  583TIP3   OH2 1712   0.825   5.588   2.834
  583TIP3    H1 1713   0.893   5.524   2.856
  583TIP3    H2 1714   0.746   5.535   2.824
  584TIP3   OH2 1715   2.119   2.550   2.505
  584TIP3    H1 1716   2.101   2.644   2.511
  584TIP3    H2 1717   2.172   2.530   2.582
  585TIP3   OH2 1718   5.641   0.990   3.527
  585TIP3    H1 1719   5.598   0.918   3.481
  585TIP3    H2 1720   5.709   0.948   3.580
  586TIP3   OH2 1721   1.022   1.758   2.423
  586TIP3    H1 1722   1.020   1.719   2.510
  586TIP3    H2 1723   1.026   1.684   2.363
  587TIP3   OH2 1724   4.676   0.974   0.068
  587TIP3    H1 1725   4.756   1.027   0.061
  587TIP3    H2 1726   4.694   0.915   0.141
  588TIP3   OH2 1727   3.153   6.729   5.825
  588TIP3    H1 1728   3.238   6.709   5.785
  588TIP3    H2 1729   3.103   6.770   5.755
  589TIP3   OH2 1730   1.423   1.567   0.652
  589TIP3    H1 1731   1.516   1.575   0.674
  589TIP3    H2 1732   1.406   1.641   0.594
  590TIP3   OH2 1733   0.245   6.165   1.379
  590TIP3    H1 1734   0.312   6.205   1.323
  590TIP3    H2 1735   0.235   6.076   1.344
  591TIP3   OH2 1736   3.902   4.851   3.524
  591TIP3    H1 1737   3.810   4.854   3.549
  591TIP3    H2 1738   3.928   4.759   3.537
  592TIP3   OH2 1739   4.113   6.594   2.017
  592TIP3    H1 1740   4.111   6.611   1.923
  592TIP3    H2 1741   4.145   6.503   2.024
  593TIP3   OH2 1742   5.612   6.190   0.878
  593TIP3    H1 1743   5.535   6.185   0.935
  593TIP3    H2 1744   5.576   6.187   0.789
  594TIP3   OH2 1745   1.112   1.393   5.247
  594TIP3    H1 1746   1.157   1.364   5.167
  594TIP3    H2 1747   1.025   1.355   5.241
  595TIP3   OH2 1748   2.241   2.907   4.924
  595TIP3    H1 1749   2.199   2.862   4.851
  595TIP3    H2 1750   2.334   2.906   4.903
  596TIP3   OH2 1751   1.853   1.562   0.031
  596TIP3    H1 1752   1.767   1.604   0.025
  596TIP3    H2 1753   1.836   1.480   0.078
  597TIP3   OH2 1754   0.780   6.237   2.862
  597TIP3    H1 1755   0.749   6.327   2.877
  597TIP3    H2 1756   0.730   6.184   2.923
  598TIP3   OH2 1757   2.302   3.936   5.018
  598TIP3    H1 1758   2.329   3.958   5.107
  598TIP3    H2 1759   2.267   4.018   4.982
  599TIP3   OH2 1760   3.579   1.022   1.821
  599TIP3    H1 1761   3.489   0.991   1.835
  599TIP3    H2 1762   3.572   1.117   1.824
  600TIP3   OH2 1763   6.259   2.277   5.841
  600TIP3    H1 1764   6.218   2.193   5.863
  600TIP3    H2 1765   6.330   2.286   5.904
  601TIP3   OH2 1766   0.786   5.369   0.529
  601TIP3    H1 1767   0.805   5.335   0.617
  601TIP3    H2 1768   0.847   5.323   0.472
  602TIP3   OH2 1769   0.409   0.201   0.147
  602TIP3    H1 1770   0.451   0.213   0.232
  602TIP3    H2 1771   0.331   0.148   0.166
  603TIP3   OH2 1772   1.877   2.100   2.572
  603TIP3    H1 1773   1.906   2.092   2.663
  603TIP3    H2 1774   1.881   2.194   2.554
  604TIP3   OH2 1775   6.382   2.056   3.691
  604TIP3    H1 1776   6.288   2.046   3.709
  604TIP3    H2 1777   6.390   2.043   3.597
  605TIP3   OH2 1778   6.270   1.350   1.781
  605TIP3    H1 1779   6.248   1.265   1.744
  605TIP3    H2 1780   6.277   1.408   1.705
  606TIP3   OH2 1781   2.753   2.485   2.097
  606TIP3    H1 1782   2.670   2.484   2.144
  606TIP3    H2 1783   2.807   2.421   2.143
  607TIP3   OH2 1784   6.533   0.495   0.678
  607TIP3    H1 1785   6.594   0.421   0.671
  607TIP3    H2 1786   6.460   0.472   0.620
  608TIP3   OH2 1787   1.179   2.801   0.675
  608TIP3    H1 1788   1.093   2.831   0.703
  608TIP3    H2 1789   1.177   2.706   0.688
  609TIP3   OH2 1790   7.010   2.901   2.662
  609TIP3    H1 1791   7.086   2.959   2.649
  609TIP3    H2 1792   7.042   2.814   2.636
  610TIP3   OH2 1793   5.941   4.615   1.395
  610TIP3    H1 1794   6.033   4.606   1.420
  610TIP3    H2 1795   5.933   4.705   1.364
  611TIP3   OH2 1796   5.371   3.026   4.407
  611TIP3    H1 1797   5.304   3.039   4.340
  611TIP3    H2 1798   5.325   3.042   4.490
  612TIP3   OH2 1799   2.220   1.346   1.146
  612TIP3    H1 1800   2.158   1.281   1.113
  612TIP3    H2 1801   2.283   1.295   1.197
  613TIP3   OH2 1802   4.478   1.550   2.030
  613TIP3    H1 1803   4.436   1.628   2.066
  613TIP3    H2 1804   4.455   1.551   1.937
  614TIP3   OH2 1805   6.275   2.014   5.649
  614TIP3    H1 1806   6.281   1.963   5.568
  614TIP3    H2 1807   6.211   2.082   5.631
  615TIP3   OH2 1808   0.432   6.141   3.786
  615TIP3    H1 1809   0.488   6.195   3.730
  615TIP3    H2 1810   0.458   6.165   3.875
  616TIP3   OH2 1811   0.243   6.697   2.163
  616TIP3    H1 1812   0.255   6.612   2.121
  616TIP3    H2 1813   0.267   6.761   2.096
  617TIP3   OH2 1814   2.277   0.486   2.134
  617TIP3    H1 1815   2.220   0.484   2.058
  617TIP3    H2 1816   2.259   0.404   2.180
  618TIP3   OH2 1817   2.648   3.057   2.780
  618TIP3    H1 1818   2.604   3.137   2.809
  618TIP3    H2 1819   2.711   3.039   2.850
  619TIP3   OH2 1820   5.694   3.307   0.980
  619TIP3    H1 1821   5.604   3.338   0.991
  619TIP3    H2 1822   5.746   3.364   1.037
  620TIP3   OH2 1823   1.088   2.407   3.817
  620TIP3    H1 1824   1.157   2.473   3.808
  620TIP3    H2 1825   1.047   2.426   3.902
  621TIP3   OH2 1826   6.069   5.443   3.386
  621TIP3    H1 1827   5.989   5.405   3.422
  621TIP3    H2 1828   6.065   5.536   3.411
  622TIP3   OH2 1829   7.177   1.998   2.470
  622TIP3    H1 1830   7.243   1.931   2.455
  622TIP3    H2 1831   7.134   2.010   2.386
  623TIP3   OH2 1832   4.225   4.558   0.502
  623TIP3    H1 1833   4.260   4.525   0.585
  623TIP3    H2 1834   4.256   4.649   0.498
  624TIP3   OH2 1835   0.607   5.154   3.067
  624TIP3    H1 1836   0.522   5.124   3.100
  624TIP3    H2 1837   0.602   5.249   3.074
  625TIP3   OH2 1838   0.816   3.201   2.236
  625TIP3    H1 1839   0.775   3.205   2.323
  625TIP3    H2 1840   0.747   3.171   2.178
  626TIP3   OH2 1841   3.212   1.175   3.619
  626TIP3    H1 1842   3.270   1.114   3.665
  626TIP3    H2 1843   3.225   1.259   3.663
  627TIP3   OH2 1844   0.058   2.513   2.420
  627TIP3    H1 1845   0.067   2.504   2.515
  627TIP3    H2 1846   0.121   2.451   2.384
  628TIP3   OH2 1847   4.015   2.697   3.622
  628TIP3    H1 1848   3.932   2.745   3.627
  628TIP3    H2 1849   3.989   2.605   3.613
  629TIP3   OH2 1850   1.390   1.273   3.671
  629TIP3    H1 1851   1.325   1.336   3.702
  629TIP3    H2 1852   1.441   1.320   3.606
  630TIP3   OH2 1853   3.604   2.551   1.522
  630TIP3    H1 1854   3.667   2.562   1.594
  630TIP3    H2 1855   3.591   2.639   1.488
  631TIP3   OH2 1856   1.279   2.796   4.224
  631TIP3    H1 1857   1.362   2.749   4.223
  631TIP3    H2 1858   1.264   2.821   4.133
  632TIP3   OH2 1859   5.225   2.692   2.052
  632TIP3    H1 1860   5.245   2.785   2.040
  632TIP3    H2 1861   5.141   2.680   2.008
  633TIP3   OH2 1862   3.616   3.744   2.861
  633TIP3    H1 1863   3.578   3.688   2.794
  633TIP3    H2 1864   3.705   3.709   2.874
  634TIP3   OH2 1865   5.488   3.969   2.161
  634TIP3    H1 1866   5.523   3.945   2.246
  634TIP3    H2 1867   5.517   4.058   2.147
  635TIP3   OH2 1868   2.262   2.348   0.394
  635TIP3    H1 1869   2.254   2.274   0.334
  635TIP3    H2 1870   2.320   2.410   0.348
  636TIP3   OH2 1871   5.776   0.352   4.154
  636TIP3    H1 1872   5.696   0.342   4.206
  636TIP3    H2 1873   5.786   0.447   4.144
  637TIP3   OH2 1874   3.799   3.567   2.170
  637TIP3    H1 1875   3.777   3.543   2.080
  637TIP3    H2 1876   3.825   3.659   2.165
  638TIP3   OH2 1877   6.804   6.459   0.363
  638TIP3    H1 1878   6.713   6.467   0.391
  638TIP3    H2 1879   6.853   6.446   0.445
  639TIP3   OH2 1880   3.387   0.199   3.065
  639TIP3    H1 1881   3.332   0.266   3.106
  639TIP3    H2 1882   3.451   0.176   3.133
  640TIP3   OH2 1883   4.669   4.860   0.823
  640TIP3    H1 1884   4.659   4.919   0.749
  640TIP3    H2 1885   4.686   4.917   0.898
  641TIP3   OH2 1886   6.142   4.230   4.964
  641TIP3    H1 1887   6.223   4.181   4.952
  641TIP3    H2 1888   6.121   4.265   4.878
  642TIP3   OH2 1889   4.164   5.528   0.156
  642TIP3    H1 1890   4.174   5.526   0.061
  642TIP3    H2 1891   4.098   5.595   0.172
  643TIP3   OH2 1892   0.946   4.309   3.877
  643TIP3    H1 1893   0.908   4.272   3.957
  643TIP3    H2 1894   0.961   4.401   3.897
  644TIP3   OH2 1895   1.355   0.762   4.823
  644TIP3    H1 1896   1.375   0.685   4.875
  644TIP3    H2 1897   1.368   0.836   4.883
  645TIP3   OH2 1898   0.675   3.306   2.742
  645TIP3    H1 1899   0.703   3.378   2.798
  645TIP3    H2 1900   0.622   3.250   2.799
  646TIP3   OH2 1901   2.957   6.038   5.467
  646TIP3    H1 1902   2.916   6.094   5.532
  646TIP3    H2 1903   3.002   5.971   5.518
  647TIP3   OH2 1904   3.732   1.601   5.738
  647TIP3    H1 1905   3.695   1.637   5.658
  647TIP3    H2 1906   3.656   1.577   5.791
  648TIP3   OH2 1907   5.058   4.016   5.839
  648TIP3    H1 1908   5.044   3.949   5.771
  648TIP3    H2 1909   5.071   4.097   5.790
  649TIP3   OH2 1910   5.366   3.036   1.080
  649TIP3    H1 1911   5.418   3.050   1.000
  649TIP3    H2 1912   5.298   3.104   1.076
  650TIP3   OH2 1913   6.697   1.181   2.009
  650TIP3    H1 1914   6.768   1.140   1.959
  650TIP3    H2 1915   6.738   1.209   2.091
  651TIP3   OH2 1916   0.611   4.099   5.706
  651TIP3    H1 1917   0.543   4.041   5.741
  651TIP3    H2 1918   0.693   4.058   5.734
  652TIP3   OH2 1919   2.727   5.503   5.768
  652TIP3    H1 1920   2.654   5.535   5.820
  652TIP3    H2 1921   2.799   5.563   5.788
  653TIP3   OH2 1922   3.444   2.318   0.334
  653TIP3    H1 1923   3.470   2.227   0.327
  653TIP3    H2 1924   3.450   2.338   0.428
  654TIP3   OH2 1925   4.503   2.258   2.253
  654TIP3    H1 1926   4.468   2.334   2.299
  654TIP3    H2 1927   4.479   2.184   2.308
  655TIP3   OH2 1928   1.993   3.895   0.389
  655TIP3    H1 1929   1.907   3.860   0.414
  655TIP3    H2 1930   2.023   3.837   0.319
  656TIP3   OH2 1931   3.649   4.391   4.198
  656TIP3    H1 1932   3.586   4.319   4.203
  656TIP3    H2 1933   3.614   4.449   4.131
  657TIP3   OH2 1934   4.510   0.653   0.520
  657TIP3    H1 1935   4.528   0.717   0.451
  657TIP3    H2 1936   4.496   0.571   0.474
  658TIP3   OH2 1937   5.370   0.966   4.724
  658TIP3    H1 1938   5.328   0.941   4.807
  658TIP3    H2 1939   5.450   0.913   4.721
  659TIP3   OH2 1940   0.068   3.977   4.917
  659TIP3    H1 1941   0.110   3.892   4.926
  659TIP3    H2 1942   0.119   4.036   4.972
  660TIP3   OH2 1943   6.649   5.517   5.774
  660TIP3    H1 1944   6.588   5.582   5.739
  660TIP3    H2 1945   6.736   5.551   5.753
  661TIP3   OH2 1946   1.714   5.586   4.794
  661TIP3    H1 1947   1.645   5.531   4.757
  661TIP3    H2 1948   1.677   5.620   4.875
  662TIP3   OH2 1949   1.322   4.528   3.467
  662TIP3    H1 1950   1.301   4.474   3.391
  662TIP3    H2 1951   1.352   4.466   3.534
  663TIP3   OH2 1952   0.340   2.961   2.268
  663TIP3    H1 1953   0.259   2.928   2.305
  663TIP3    H2 1954   0.382   3.008   2.340
  664TIP3   OH2 1955   2.250   4.603   1.510
  664TIP3    H1 1956   2.324   4.593   1.570
  664TIP3    H2 1957   2.250   4.522   1.458
  665TIP3   OH2 1958   3.212   0.465   4.473
  665TIP3    H1 1959   3.193   0.520   4.397
  665TIP3    H2 1960   3.212   0.526   4.547
  666TIP3   OH2 1961   2.658   6.807   5.608
  666TIP3    H1 1962   2.629   6.822   5.517
  666TIP3    H2 1963   2.683   6.715   5.610
  667TIP3   OH2 1964   2.145   2.897   4.147
  667TIP3    H1 1965   2.218   2.949   4.179
  667TIP3    H2 1966   2.132   2.928   4.057
  668TIP3   OH2 1967   3.586   0.743   0.320
  668TIP3    H1 1968   3.655   0.796   0.280
  668TIP3    H2 1969   3.634   0.680   0.375
  669TIP3   OH2 1970   6.288   1.359   3.177
  669TIP3    H1 1971   6.347   1.404   3.117
  669TIP3    H2 1972   6.233   1.304   3.121
  670TIP3   OH2 1973   2.960   2.806   1.726
  670TIP3    H1 1974   2.954   2.898   1.702
  670TIP3    H2 1975   2.924   2.759   1.650
  671TIP3   OH2 1976   0.772   1.089   1.423
  671TIP3    H1 1977   0.863   1.105   1.397
  671TIP3    H2 1978   0.743   1.172   1.460
  672TIP3   OH2 1979   1.640   0.919   3.792
  672TIP3    H1 1980   1.675   0.975   3.861
  672TIP3    H2 1981   1.665   0.830   3.817
  673TIP3   OH2 1982   3.205   6.312   1.610
  673TIP3    H1 1983   3.291   6.293   1.573
  673TIP3    H2 1984   3.213   6.290   1.703
  674TIP3   OH2 1985   4.633   6.024   5.325
  674TIP3    H1 1986   4.671   5.936   5.320
  674TIP3    H2 1987   4.684   6.076   5.263
  675TIP3   OH2 1988   2.333   5.761   5.261
  675TIP3    H1 1989   2.428   5.769   5.262
  675TIP3    H2 1990   2.317   5.670   5.283
  676TIP3   OH2 1991   3.296   3.717   0.227
  676TIP3    H1 1992   3.382   3.680   0.208
  676TIP3    H2 1993   3.305   3.754   0.315
  677TIP3   OH2 1994   4.078   1.141   0.485
  677TIP3    H1 1995   4.070   1.083   0.409
  677TIP3    H2 1996   3.994   1.185   0.492
  678TIP3   OH2 1997   4.240   5.018   2.898
  678TIP3    H1 1998   4.205   5.059   2.978
  678TIP3    H2 1999   4.276   4.935   2.928
  679TIP3   OH2 2000   7.013   0.008   0.259
  679TIP3    H1 2001   7.012   0.075   0.327
  679TIP3    H2 2002   6.931   0.021   0.211
  680TIP3   OH2 2003   6.846   4.416   4.059
  680TIP3    H1 2004   6.792   4.486   4.096
  680TIP3    H2 2005   6.933   4.456   4.051
  681TIP3   OH2 2006   5.993   2.105   4.704
  681TIP3    H1 2007   6.045   2.045   4.758
  681TIP3    H2 2008   6.054   2.134   4.635
  682TIP3   OH2 2009   1.005   6.249   5.083
  682TIP3    H1 2010   0.938   6.181   5.072
  682TIP3    H2 2011   1.039   6.236   5.171
  683TIP3   OH2 2012   0.880   3.948   2.761
  683TIP3    H1 2013   0.965   3.906   2.770
  683TIP3    H2 2014   0.859   3.979   2.849
  684TIP3   OH2 2015   1.946   2.462   3.244
  684TIP3    H1 2016   1.894   2.390   3.208
  684TIP3    H2 2017   2.015   2.478   3.180
  685TIP3   OH2 2018   1.039   1.412   2.698
  685TIP3    H1 2019   1.068   1.365   2.620
  685TIP3    H2 2020   0.956   1.370   2.722
  686TIP3   OH2 2021   2.896   4.188   2.214
  686TIP3    H1 2022   2.805   4.214   2.196
  686TIP3    H2 2023   2.900   4.097   2.186
  687TIP3   OH2 2024   1.832   6.002   3.750
  687TIP3    H1 2025   1.819   6.082   3.800
  687TIP3    H2 2026   1.882   6.029   3.673
  688TIP3   OH2 2027   0.169   5.636   0.756
  688TIP3    H1 2028   0.200   5.701   0.693
  688TIP3    H2 2029   0.129   5.567   0.702
  689TIP3   OH2 2030   5.002   6.251   2.078
  689TIP3    H1 2031   4.945   6.269   2.153
  689TIP3    H2 2032   4.942   6.225   2.009
  690TIP3   OH2 2033   0.417   0.316   2.183
  690TIP3    H1 2034   0.339   0.290   2.232
  690TIP3    H2 2035   0.474   0.356   2.248
  691TIP3   OH2 2036   0.231   5.593   2.208
  691TIP3    H1 2037   0.223   5.688   2.221
  691TIP3    H2 2038   0.275   5.585   2.123
  692TIP3   OH2 2039   2.114   0.406   3.080
  692TIP3    H1 2040   2.148   0.441   2.998
  692TIP3    H2 2041   2.025   0.441   3.085
  693TIP3   OH2 2042   0.958   3.207   1.557
  693TIP3    H1 2043   0.966   3.119   1.593
  693TIP3    H2 2044   0.956   3.194   1.462
  694TIP3   OH2 2045   0.008   4.568   1.723
  694TIP3    H1 2046   0.091   4.550   1.680
  694TIP3    H2 2047   0.029   4.632   1.791
  695TIP3   OH2 2048   6.765   5.533   4.808
  695TIP3    H1 2049   6.806   5.567   4.887
  695TIP3    H2 2050   6.716   5.606   4.772
  696TIP3   OH2 2051   4.975   6.476   0.557
  696TIP3    H1 2052   4.998   6.398   0.608
  696TIP3    H2 2053   4.917   6.444   0.488
  697TIP3   OH2 2054   0.740   6.654   2.487
  697TIP3    H1 2055   0.671   6.587   2.480
  697TIP3    H2 2056   0.694   6.737   2.478
  698TIP3   OH2 2057   3.452   6.192   0.373
  698TIP3    H1 2058   3.377   6.206   0.430
  698TIP3    H2 2059   3.526   6.181   0.432
  699TIP3   OH2 2060   3.491   4.491   0.951
  699TIP3    H1 2061   3.576   4.448   0.936
  699TIP3    H2 2062   3.450   4.440   1.020
  700TIP3   OH2 2063   3.572   6.499   0.117
  700TIP3    H1 2064   3.618   6.503   0.034
  700TIP3    H2 2065   3.611   6.426   0.164
  701TIP3   OH2 2066   3.053   0.976   3.278
  701TIP3    H1 2067   3.114   1.046   3.298
  701TIP3    H2 2068   3.089   0.899   3.321
  702TIP3   OH2 2069   4.247   3.442   3.057
  702TIP3    H1 2070   4.327   3.391   3.066
  702TIP3    H2 2071   4.213   3.419   2.970
  703TIP3   OH2 2072   3.018   5.858   0.034
  703TIP3    H1 2073   3.107   5.825   0.026
  703TIP3    H2 2074   2.965   5.781   0.052
  704TIP3   OH2 2075   4.872   2.061   1.612
  704TIP3    H1 2076   4.778   2.078   1.620
  704TIP3    H2 2077   4.907   2.077   1.700
  705TIP3   OH2 2078   6.049   1.188   3.139
  705TIP3    H1 2079   6.058   1.176   3.233
  705TIP3    H2 2080   5.975   1.248   3.129
  706TIP3   OH2 2081   3.980   1.749   3.226
  706TIP3    H1 2082   3.990   1.655   3.217
  706TIP3    H2 2083   4.031   1.772   3.303
  707TIP3   OH2 2084   3.840   3.548   3.969
  707TIP3    H1 2085   3.912   3.604   3.995
  707TIP3    H2 2086   3.833   3.560   3.874
  708TIP3   OH2 2087   3.439   6.797   4.705
  708TIP3    H1 2088   3.527   6.761   4.712
  708TIP3    H2 2089   3.451   6.891   4.711
  709TIP3   OH2 2090   6.688   0.699   1.975
  709TIP3    H1 2091   6.597   0.727   1.961
  709TIP3    H2 2092   6.713   0.740   2.058
  710TIP3   OH2 2093   2.229   6.360   4.632
  710TIP3    H1 2094   2.294   6.368   4.562
  710TIP3    H2 2095   2.184   6.444   4.632
  711TIP3   OH2 2096   2.847   6.196   5.669
  711TIP3    H1 2097   2.798   6.127   5.715
  711TIP3    H2 2098   2.782   6.263   5.651
  712TIP3   OH2 2099   1.614   2.507   2.570
  712TIP3    H1 2100   1.639   2.590   2.529
  712TIP3    H2 2101   1.544   2.473   2.514
  713TIP3   OH2 2102   0.862   0.666   0.067
  713TIP3    H1 2103   0.836   0.738   0.010
  713TIP3    H2 2104   0.868   0.590   0.008
  714TIP3   OH2 2105   2.099   2.417   5.597
  714TIP3    H1 2106   2.130   2.351   5.535
  714TIP3    H2 2107   2.158   2.492   5.584
  715TIP3   OH2 2108   3.893   2.204   4.222
  715TIP3    H1 2109   3.879   2.280   4.278
  715TIP3    H2 2110   3.838   2.219   4.146
  716TIP3   OH2 2111   3.523   5.752   1.838
  716TIP3    H1 2112   3.596   5.708   1.795
  716TIP3    H2 2113   3.447   5.695   1.821
  717TIP3   OH2 2114   2.397   6.279   3.162
  717TIP3    H1 2115   2.437   6.286   3.248
  717TIP3    H2 2116   2.373   6.186   3.154
  718TIP3   OH2 2117   3.449   5.423   2.499
  718TIP3    H1 2118   3.530   5.413   2.548
  718TIP3    H2 2119   3.406   5.338   2.506
  719TIP3   OH2 2120   0.449   0.182   0.441
  719TIP3    H1 2121   0.461   0.102   0.390
  719TIP3    H2 2122   0.494   0.165   0.524
  720TIP3   OH2 2123   5.674   3.418   3.931
  720TIP3    H1 2124   5.705   3.330   3.951
  720TIP3    H2 2125   5.613   3.407   3.859
  721TIP3   OH2 2126   0.015   3.552   5.079
  721TIP3    H1 2127  -0.059   3.605   5.052
  721TIP3    H2 2128   0.092   3.603   5.055
  722TIP3   OH2 2129   1.133   1.416   0.361
  722TIP3    H1 2130   1.127   1.418   0.457
  722TIP3    H2 2131   1.187   1.493   0.340
  723TIP3   OH2 2132   2.079   4.297   1.530
  723TIP3    H1 2133   2.045   4.315   1.617
  723TIP3    H2 2134   2.131   4.218   1.539
  724TIP3   OH2 2135   3.493   0.613   4.719
  724TIP3    H1 2136   3.492   0.582   4.629
  724TIP3    H2 2137   3.469   0.706   4.713
  725TIP3   OH2 2138   0.884   2.094   2.630
  725TIP3    H1 2139   0.870   2.156   2.701
  725TIP3    H2 2140   0.807   2.038   2.632
  726TIP3   OH2 2141   6.876   3.998   1.881
  726TIP3    H1 2142   6.932   3.960   1.949
  726TIP3    H2 2143   6.815   4.054   1.928
  727TIP3   OH2 2144   0.767   0.087   3.369
  727TIP3    H1 2145   0.829   0.067   3.299
  727TIP3    H2 2146   0.694   0.026   3.354
  728TIP3   OH2 2147   4.812   6.191   2.259
  728TIP3    H1 2148   4.782   6.190   2.350
  728TIP3    H2 2149   4.821   6.098   2.237
  729TIP3   OH2 2150   3.653   4.237   5.729
  729TIP3    H1 2151   3.742   4.247   5.761
  729TIP3    H2 2152   3.601   4.219   5.808
  730TIP3   OH2 2153   3.616   5.568   5.288
  730TIP3    H1 2154   3.539   5.519   5.258
  730TIP3    H2 2155   3.615   5.649   5.237
  731TIP3   OH2 2156   5.142   4.220   3.761
  731TIP3    H1 2157   5.141   4.293   3.699
  731TIP3    H2 2158   5.058   4.177   3.750
  732TIP3   OH2 2159   2.425   2.515   3.112
  732TIP3    H1 2160   2.454   2.551   3.028
  732TIP3    H2 2161   2.506   2.497   3.159
  733TIP3   OH2 2162   2.229   3.245   2.271
  733TIP3    H1 2163   2.255   3.222   2.182
  733TIP3    H2 2164   2.305   3.290   2.307
  734TIP3   OH2 2165   0.103   3.644   0.919
  734TIP3    H1 2166   0.186   3.598   0.914
  734TIP3    H2 2167   0.075   3.654   0.828
  735TIP3   OH2 2168   2.402   3.031   0.027
  735TIP3    H1 2169   2.496   3.051   0.032
  735TIP3    H2 2170   2.360   3.107   0.066
  736TIP3   OH2 2171   5.682   3.144   3.633
  736TIP3    H1 2172   5.588   3.126   3.638
  736TIP3    H2 2173   5.715   3.085   3.565
  737TIP3   OH2 2174   1.795   0.825   0.092
  737TIP3    H1 2175   1.868   0.877   0.128
  737TIP3    H2 2176   1.753   0.787   0.169
  738TIP3   OH2 2177   1.559   3.600   3.157
  738TIP3    H1 2178   1.603   3.551   3.087
  738TIP3    H2 2179   1.540   3.685   3.118
  739TIP3   OH2 2180   4.990   1.451   3.370
  739TIP3    H1 2181   4.904   1.473   3.407
  739TIP3    H2 2182   4.976   1.367   3.325
  740TIP3   OH2 2183   6.906   2.454   4.551
  740TIP3    H1 2184   6.861   2.370   4.558
  740TIP3    H2 2185   6.965   2.456   4.626
  741TIP3   OH2 2186   1.043   1.233   3.157
  741TIP3    H1 2187   1.085   1.278   3.083
  741TIP3    H2 2188   1.048   1.140   3.135
  742TIP3   OH2 2189   0.348   5.047   3.140
  742TIP3    H1 2190   0.280   5.112   3.126
  742TIP3    H2 2191   0.318   4.970   3.091
  743TIP3   OH2 2192   4.568   1.268   3.965
  743TIP3    H1 2193   4.600   1.357   3.979
  743TIP3    H2 2194   4.475   1.278   3.947
  744TIP3   OH2 2195   4.125   1.744   5.577
  744TIP3    H1 2196   4.126   1.648   5.584
  744TIP3    H2 2197   4.099   1.774   5.664
  745TIP3   OH2 2198   2.894   6.372   4.901
  745TIP3    H1 2199   2.830   6.377   4.829
  745TIP3    H2 2200   2.889   6.281   4.931
  746TIP3   OH2 2201   6.624   2.369   1.391
  746TIP3    H1 2202   6.567   2.425   1.338
  746TIP3    H2 2203   6.615   2.282   1.353
  747TIP3   OH2 2204   1.798   6.670   1.164
  747TIP3    H1 2205   1.871   6.719   1.125
  747TIP3    H2 2206   1.720   6.721   1.141
  748TIP3   OH2 2207   7.019   4.318   4.869
  748TIP3    H1 2208   7.017   4.359   4.956
  748TIP3    H2 2209   6.968   4.237   4.880
  749TIP3   OH2 2210   5.148   1.634   3.228
  749TIP3    H1 2211   5.120   1.593   3.146
  749TIP3    H2 2212   5.119   1.573   3.296
  750TIP3   OH2 2213   2.518   1.375   1.483
  750TIP3    H1 2214   2.553   1.460   1.508
  750TIP3    H2 2215   2.479   1.340   1.563
  751TIP3   OH2 2216   1.246   4.534   4.426
  751TIP3    H1 2217   1.306   4.465   4.398
  751TIP3    H2 2218   1.161   4.491   4.432
  752TIP3   OH2 2219   4.010   3.422   1.783
  752TIP3    H1 2220   4.093   3.453   1.746
  752TIP3    H2 2221   4.037   3.372   1.861
  753TIP3   OH2 2222   1.092   5.471   5.341
  753TIP3    H1 2223   1.110   5.407   5.410
  753TIP3    H2 2224   1.117   5.427   5.260
  754TIP3   OH2 2225   0.077   3.319   0.209
  754TIP3    H1 2226   0.129   3.240   0.190
  754TIP3    H2 2227   0.017   3.292   0.278
  755TIP3   OH2 2228   1.001   2.362   1.853
  755TIP3    H1 2229   0.928   2.301   1.838
  755TIP3    H2 2230   1.077   2.305   1.864
  756TIP3   OH2 2231   2.091   5.121   3.897
  756TIP3    H1 2232   2.094   5.214   3.923
  756TIP3    H2 2233   2.075   5.074   3.979
  757TIP3   OH2 2234   2.630   4.197   1.542
  757TIP3    H1 2235   2.587   4.276   1.573
  757TIP3    H2 2236   2.562   4.129   1.544
  758TIP3   OH2 2237   4.352   0.864   4.506
  758TIP3    H1 2238   4.398   0.870   4.590
  758TIP3    H2 2239   4.261   0.884   4.528
  759TIP3   OH2 2240   1.225   2.287   2.792
  759TIP3    H1 2241   1.199   2.220   2.729
  759TIP3    H2 2242   1.175   2.365   2.767
  760TIP3   OH2 2243   0.560   5.946   2.367
  760TIP3    H1 2244   0.475   5.935   2.324
  760TIP3    H2 2245   0.619   5.887   2.321
  761TIP3   OH2 2246   0.583   6.154   5.509
  761TIP3    H1 2247   0.536   6.119   5.585
  761TIP3    H2 2248   0.521   6.144   5.436
  762TIP3   OH2 2249   5.913   0.546   5.691
  762TIP3    H1 2250   5.881   0.467   5.735
  762TIP3    H2 2251   5.844   0.611   5.707
  763TIP3   OH2 2252   6.796   3.976   0.438
  763TIP3    H1 2253   6.824   3.985   0.530
  763TIP3    H2 2254   6.701   3.975   0.442
  764TIP3   OH2 2255   6.200   2.152   0.470
  764TIP3    H1 2256   6.272   2.149   0.408
  764TIP3    H2 2257   6.128   2.106   0.427
  765TIP3   OH2 2258   4.583   3.737   0.367
  765TIP3    H1 2259   4.509   3.739   0.428
  765TIP3    H2 2260   4.609   3.645   0.363
  766TIP3   OH2 2261   2.807   1.731   4.060
  766TIP3    H1 2262   2.885   1.687   4.027
  766TIP3    H2 2263   2.807   1.714   4.154
  767TIP3   OH2 2264   3.929   2.134   2.660
  767TIP3    H1 2265   3.970   2.196   2.720
  767TIP3    H2 2266   3.992   2.122   2.590
  768TIP3   OH2 2267   5.820   4.289   2.743
  768TIP3    H1 2268   5.773   4.243   2.813
  768TIP3    H2 2269   5.752   4.312   2.680
  769TIP3   OH2 2270   0.889   3.957   0.553
  769TIP3    H1 2271   0.847   3.913   0.479
  769TIP3    H2 2272   0.916   3.886   0.611
  770TIP3   OH2 2273   0.072   4.497   4.990
  770TIP3    H1 2274   0.138   4.507   5.059
  770TIP3    H2 2275   0.008   4.435   5.027
  771TIP3   OH2 2276   1.750   1.232   2.073
  771TIP3    H1 2277   1.728   1.243   1.981
  771TIP3    H2 2278   1.823   1.292   2.088
  772TIP3   OH2 2279   6.782   2.134   2.202
  772TIP3    H1 2280   6.776   2.180   2.118
  772TIP3    H2 2281   6.789   2.204   2.267
  773TIP3   OH2 2282   4.134   2.152   5.524
  773TIP3    H1 2283   4.102   2.114   5.443
  773TIP3    H2 2284   4.229   2.143   5.519
  774TIP3   OH2 2285   6.041   3.060   1.490
  774TIP3    H1 2286   6.091   2.983   1.516
  774TIP3    H2 2287   5.950   3.031   1.488
  775TIP3   OH2 2288   6.072   3.111   3.906
  775TIP3    H1 2289   6.104   3.195   3.940
  775TIP3    H2 2290   6.072   3.124   3.811
  776TIP3   OH2 2291   3.347   2.358   1.957
  776TIP3    H1 2292   3.406   2.402   2.019
  776TIP3    H2 2293   3.400   2.348   1.878
  777TIP3   OH2 2294   2.247   4.466   2.412
  777TIP3    H1 2295   2.247   4.496   2.322
  777TIP3    H2 2296   2.282   4.377   2.408
  778TIP3   OH2 2297   1.925   2.024   2.314
  778TIP3    H1 2298   2.020   2.013   2.315
  778TIP3    H2 2299   1.899   2.018   2.406
  779TIP3   OH2 2300   2.761   5.380   1.242
  779TIP3    H1 2301   2.796   5.323   1.310
  779TIP3    H2 2302   2.666   5.374   1.251
  780TIP3   OH2 2303   0.647   1.926   3.366
  780TIP3    H1 2304   0.681   1.881   3.289
  780TIP3    H2 2305   0.661   2.019   3.348
  781TIP3   OH2 2306   0.207   1.537   4.825
  781TIP3    H1 2307   0.114   1.555   4.813
  781TIP3    H2 2308   0.247   1.564   4.742
  782TIP3   OH2 2309   2.903   2.582   3.205
  782TIP3    H1 2310   2.965   2.627   3.263
  782TIP3    H2 2311   2.903   2.634   3.125
  783TIP3   OH2 2312   5.630   2.562   5.806
  783TIP3    H1 2313   5.539   2.532   5.811
  783TIP3    H2 2314   5.623   2.658   5.807
  784TIP3   OH2 2315   7.165   1.537   1.208
  784TIP3    H1 2316   7.155   1.575   1.121
  784TIP3    H2 2317   7.257   1.511   1.213
  785TIP3   OH2 2318   1.959   2.422   3.508
  785TIP3    H1 2319   1.971   2.409   3.413
  785TIP3    H2 2320   2.001   2.346   3.548
  786TIP3   OH2 2321   2.464   6.025   1.685
  786TIP3    H1 2322   2.498   6.016   1.596
  786TIP3    H2 2323   2.421   6.110   1.686
  787TIP3   OH2 2324   6.827   5.094   2.256
  787TIP3    H1 2325   6.744   5.077   2.300
  787TIP3    H2 2326   6.808   5.082   2.163
  788TIP3   OH2 2327   4.292   1.030   2.630
  788TIP3    H1 2328   4.297   0.993   2.718
  788TIP3    H2 2329   4.373   1.080   2.621
  789TIP3   OH2 2330   4.136   0.845   1.440
  789TIP3    H1 2331   4.149   0.795   1.520
  789TIP3    H2 2332   4.146   0.937   1.467
  790TIP3   OH2 2333   3.029   1.236   4.356
  790TIP3    H1 2334   3.115   1.194   4.360
  790TIP3    H2 2335   3.007   1.237   4.263
  791TIP3   OH2 2336   1.046   4.161   5.507
  791TIP3    H1 2337   1.111   4.122   5.449
  791TIP3    H2 2338   1.025   4.091   5.569
  792TIP3   OH2 2339   1.034   3.061   1.322
  792TIP3    H1 2340   1.116   3.097   1.290
  792TIP3    H2 2341   0.991   3.025   1.245
  793TIP3   OH2 2342   2.715   2.066   2.215
  793TIP3    H1 2343   2.755   2.150   2.235
  793TIP3    H2 2344   2.782   2.020   2.164
  794TIP3   OH2 2345   3.254   5.444   4.946
  794TIP3    H1 2346   3.193   5.428   5.018
  794TIP3    H2 2347   3.202   5.428   4.867
  795TIP3   OH2 2348   2.397   6.340   4.434
  795TIP3    H1 2349   2.452   6.413   4.404
  795TIP3    H2 2350   2.459   6.274   4.464
  796TIP3   OH2 2351   0.786   2.247   4.887
  796TIP3    H1 2352   0.850   2.189   4.845
  796TIP3    H2 2353   0.735   2.189   4.944
  797TIP3   OH2 2354   6.170   5.300   2.396
  797TIP3    H1 2355   6.099   5.236   2.409
  797TIP3    H2 2356   6.131   5.383   2.423
  798TIP3   OH2 2357   5.459   4.249   4.893
  798TIP3    H1 2358   5.449   4.181   4.826
  798TIP3    H2 2359   5.430   4.330   4.849
  799TIP3   OH2 2360   3.056   2.669   3.914
  799TIP3    H1 2361   3.081   2.732   3.846
  799TIP3    H2 2362   2.980   2.624   3.878
  800TIP3   OH2 2363   4.454   6.678   1.374
  800TIP3    H1 2364   4.516   6.741   1.338
  800TIP3    H2 2365   4.389   6.666   1.306
  801TIP3   OH2 2366   2.818   1.630   0.004
  801TIP3    H1 2367   2.861   1.704   0.047
  801TIP3    H2 2368   2.736   1.618   0.053
  802TIP3   OH2 2369   5.338   3.682   4.763
  802TIP3    H1 2370   5.381   3.628   4.696
  802TIP3    H2 2371   5.251   3.700   4.727
  803TIP3   OH2 2372   2.390   4.416   3.655
  803TIP3    H1 2373   2.379   4.511   3.660
  803TIP3    H2 2374   2.336   4.389   3.581
  804TIP3   OH2 2375   0.825   2.496   0.699
  804TIP3    H1 2376   0.848   2.520   0.788
  804TIP3    H2 2377   0.866   2.563   0.644
  805TIP3   OH2 2378   5.423   6.194   3.455
  805TIP3    H1 2379   5.447   6.141   3.531
  805TIP3    H2 2380   5.507   6.228   3.423
  806TIP3   OH2 2381   3.492   1.310   2.248
  806TIP3    H1 2382   3.578   1.270   2.251
  806TIP3    H2 2383   3.507   1.401   2.273
  807TIP3   OH2 2384   6.207   1.413   4.770
  807TIP3    H1 2385   6.114   1.393   4.776
  807TIP3    H2 2386   6.242   1.349   4.708
  808TIP3   OH2 2387   0.231   5.458   5.291
  808TIP3    H1 2388   0.221   5.553   5.283
  808TIP3    H2 2389   0.170   5.422   5.226
  809TIP3   OH2 2390   1.877   3.459   3.908
  809TIP3    H1 2391   1.932   3.384   3.884
  809TIP3    H2 2392   1.877   3.514   3.829
  810TIP3   OH2 2393   6.978   0.013   3.184
  810TIP3    H1 2394   7.054   0.066   3.210
  810TIP3    H2 2395   6.931   0.069   3.123
  811TIP3   OH2 2396   3.837   6.636   5.821
  811TIP3    H1 2397   3.829   6.670   5.732
  811TIP3    H2 2398   3.931   6.616   5.830
  812TIP3   OH2 2399   4.801   6.711   5.699
  812TIP3    H1 2400   4.864   6.704   5.628
  812TIP3    H2 2401   4.854   6.714   5.778
  813TIP3   OH2 2402   1.187   1.274   1.063
  813TIP3    H1 2403   1.124   1.311   1.002
  813TIP3    H2 2404   1.135   1.248   1.139
  814TIP3   OH2 2405   5.915   2.170   0.038
  814TIP3    H1 2406   5.999   2.166  -0.008
  814TIP3    H2 2407   5.898   2.080   0.065
  815TIP3   OH2 2408   6.046   4.501   5.936
  815TIP3    H1 2409   6.041   4.411   5.905
  815TIP3    H2 2410   6.104   4.544   5.873
  816TIP3   OH2 2411   1.253   3.102   4.326
  816TIP3    H1 2412   1.175   3.049   4.311
  816TIP3    H2 2413   1.223   3.192   4.323
  817TIP3   OH2 2414   2.919   0.504   5.077
  817TIP3    H1 2415   3.009   0.475   5.064
  817TIP3    H2 2416   2.870   0.463   5.005
  818TIP3   OH2 2417   0.234   6.020   5.321
  818TIP3    H1 2418   0.149   6.020   5.276
  818TIP3    H2 2419   0.273   6.104   5.297
  819TIP3   OH2 2420   3.761   4.088   5.078
  819TIP3    H1 2421   3.747   4.054   4.990
  819TIP3    H2 2422   3.854   4.108   5.083
  820TIP3   OH2 2423   4.848   6.369   3.150
  820TIP3    H1 2424   4.819   6.284   3.115
  820TIP3    H2 2425   4.769   6.408   3.188
  821TIP3   OH2 2426   7.226   1.358   1.510
  821TIP3    H1 2427   7.312   1.396   1.490
  821TIP3    H2 2428   7.189   1.338   1.424
  822TIP3   OH2 2429   2.970   6.024   2.409
  822TIP3    H1 2430   3.050   5.986   2.445
  822TIP3    H2 2431   2.929   5.952   2.361
  823TIP3   OH2 2432   1.404   4.836   5.482
  823TIP3    H1 2433   1.348   4.822   5.406
  823TIP3    H2 2434   1.492   4.847   5.445
  824TIP3   OH2 2435   1.055   1.170   1.931
  824TIP3    H1 2436   1.124   1.139   1.872
  824TIP3    H2 2437   1.087   1.147   2.018
  825TIP3   OH2 2438   0.205   3.311   3.543
  825TIP3    H1 2439   0.203   3.352   3.629
  825TIP3    H2 2440   0.275   3.246   3.549
  826TIP3   OH2 2441   1.940   4.592   5.111
  826TIP3    H1 2442   1.954   4.565   5.202
  826TIP3    H2 2443   1.901   4.679   5.117
  827TIP3   OH2 2444   7.073   5.619   3.705
  827TIP3    H1 2445   7.026   5.702   3.715
  827TIP3    H2 2446   7.019   5.555   3.752
  828TIP3   OH2 2447   2.708   4.929   4.227
  828TIP3    H1 2448   2.684   4.990   4.298
  828TIP3    H2 2449   2.801   4.947   4.211
  829TIP3   OH2 2450   6.567   1.415   5.618
  829TIP3    H1 2451   6.574   1.388   5.526
  829TIP3    H2 2452   6.489   1.470   5.621
  830TIP3   OH2 2453   7.002   1.596   4.308
  830TIP3    H1 2454   7.031   1.686   4.300
  830TIP3    H2 2455   7.072   1.552   4.356
  831TIP3   OH2 2456   0.546   0.485   2.366
  831TIP3    H1 2457   0.594   0.485   2.449
  831TIP3    H2 2458   0.613   0.506   2.300
  832TIP3   OH2 2459   3.866   1.740   0.503
  832TIP3    H1 2460   3.796   1.718   0.565
  832TIP3    H2 2461   3.922   1.663   0.502
  833TIP3   OH2 2462   2.774   6.631   5.026
  833TIP3    H1 2463   2.810   6.604   5.111
  833TIP3    H2 2464   2.807   6.566   4.964
  834TIP3   OH2 2465   3.679   1.631   5.087
  834TIP3    H1 2466   3.744   1.681   5.038
  834TIP3    H2 2467   3.690   1.660   5.178
  835TIP3   OH2 2468   1.702   1.629   4.665
  835TIP3    H1 2469   1.710   1.721   4.640
  835TIP3    H2 2470   1.739   1.581   4.591
  836TIP3   OH2 2471   3.742   5.273   0.516
  836TIP3    H1 2472   3.709   5.269   0.426
  836TIP3    H2 2473   3.828   5.316   0.508
  837TIP3   OH2 2474   2.564   0.035   0.043
  837TIP3    H1 2475   2.652   0.040   0.080
  837TIP3    H2 2476   2.566  -0.042  -0.014
  838TIP3   OH2 2477   1.796   4.819   5.130
  838TIP3    H1 2478   1.734   4.883   5.094
  838TIP3    H2 2479   1.749   4.778   5.202
  839TIP3   OH2 2480   6.237   1.080   2.996
  839TIP3    H1 2481   6.152   1.113   3.026
  839TIP3    H2 2482   6.253   1.127   2.914
  840TIP3   OH2 2483   2.993   6.563   0.589
  840TIP3    H1 2484   2.953   6.476   0.580
  840TIP3    H2 2485   2.938   6.620   0.535
  841TIP3   OH2 2486   6.505   1.923   3.267
  841TIP3    H1 2487   6.520   1.899   3.176
  841TIP3    H2 2488   6.572   1.990   3.285
  842TIP3   OH2 2489   6.477   1.732   3.470
  842TIP3    H1 2490   6.433   1.794   3.412
  842TIP3    H2 2491   6.542   1.689   3.415
  843TIP3   OH2 2492   4.101   0.284   3.917
  843TIP3    H1 2493   4.192   0.288   3.945
  843TIP3    H2 2494   4.105   0.288   3.822
  844TIP3   OH2 2495   0.361   0.842   2.097
  844TIP3    H1 2496   0.374   0.769   2.157
  844TIP3    H2 2497   0.266   0.856   2.097
  845TIP3   OH2 2498   5.074   2.534   1.524
  845TIP3    H1 2499   5.109   2.448   1.501
  845TIP3    H2 2500   5.102   2.548   1.615
  846TIP3   OH2 2501   2.241   4.694   4.063
  846TIP3    H1 2502   2.146   4.683   4.074
  846TIP3    H2 2503   2.266   4.758   4.129
  847TIP3   OH2 2504   7.026   5.681   5.407
  847TIP3    H1 2505   7.114   5.664   5.441
  847TIP3    H2 2506   6.994   5.754   5.459
  848TIP3   OH2 2507   7.090   2.839   3.749
  848TIP3    H1 2508   7.091   2.905   3.817
  848TIP3    H2 2509   7.008   2.855   3.701
  849TIP3   OH2 2510   3.166   1.578   2.640
  849TIP3    H1 2511   3.125   1.659   2.613
  849TIP3    H2 2512   3.185   1.591   2.733
  850TIP3   OH2 2513   4.587   6.294   1.730
  850TIP3    H1 2514   4.552   6.279   1.642
  850TIP3    H2 2515   4.511   6.321   1.782
  851TIP3   OH2 2516   5.078   3.875   3.038
  851TIP3    H1 2517   5.129   3.798   3.062
  851TIP3    H2 2518   5.144   3.941   3.015
  852TIP3   OH2 2519   5.775   1.064   0.048
  852TIP3    H1 2520   5.764   1.154   0.018
  852TIP3    H2 2521   5.760   1.011  -0.029
  853TIP3   OH2 2522   5.603   5.569   0.671
  853TIP3    H1 2523   5.667   5.503   0.647
  853TIP3    H2 2524   5.641   5.652   0.642
  854TIP3   OH2 2525   5.015   1.272   5.412
  854TIP3    H1 2526   4.960   1.298   5.486
  854TIP3    H2 2527   5.100   1.254   5.451
  855TIP3   OH2 2528   1.272   2.414   4.140
  855TIP3    H1 2529   1.289   2.350   4.209
  855TIP3    H2 2530   1.178   2.428   4.143
  856TIP3   OH2 2531   3.783   5.889   0.867
  856TIP3    H1 2532   3.787   5.819   0.932
  856TIP3    H2 2533   3.735   5.850   0.794
  857TIP3   OH2 2534   0.035   1.965   5.718
  857TIP3    H1 2535   0.023   1.945   5.626
  857TIP3    H2 2536   0.120   2.008   5.723
  858TIP3   OH2 2537   3.892   0.809   2.591
  858TIP3    H1 2538   3.808   0.854   2.596
  858TIP3    H2 2539   3.908   0.779   2.681
  859TIP3   OH2 2540   3.498   2.538   4.087
  859TIP3    H1 2541   3.430   2.603   4.074
  859TIP3    H2 2542   3.525   2.513   3.998
  860TIP3   OH2 2543   6.811   4.921   0.057
  860TIP3    H1 2544   6.817   4.857   0.128
  860TIP3    H2 2545   6.768   4.874  -0.014
  861TIP3   OH2 2546   2.913   1.695   2.335
  861TIP3    H1 2547   2.917   1.601   2.354
  861TIP3    H2 2548   3.005   1.723   2.338
  862TIP3   OH2 2549   5.509   2.703   3.480
  862TIP3    H1 2550   5.589   2.707   3.428
  862TIP3    H2 2551   5.446   2.758   3.432
  863TIP3   OH2 2552   5.342   0.598   5.742
  863TIP3    H1 2553   5.373   0.577   5.830
  863TIP3    H2 2554   5.332   0.694   5.742
  864TIP3   OH2 2555   5.884   3.317   2.021
  864TIP3    H1 2556   5.875   3.238   1.968
  864TIP3    H2 2557   5.796   3.335   2.053
  865TIP3   OH2 2558   3.358   3.377   0.682
  865TIP3    H1 2559   3.418   3.305   0.662
  865TIP3    H2 2560   3.287   3.367   0.618
  866TIP3   OH2 2561   1.902   0.880   0.452
  866TIP3    H1 2562   1.871   0.938   0.382
  866TIP3    H2 2563   1.824   0.832   0.481
  867TIP3   OH2 2564   3.023   2.580   2.697
  867TIP3    H1 2565   3.064   2.661   2.665
  867TIP3    H2 2566   2.988   2.538   2.619
  868TIP3   OH2 2567   0.169   3.144   4.086
  868TIP3    H1 2568   0.237   3.173   4.148
  868TIP3    H2 2569   0.122   3.224   4.063
  869TIP3   OH2 2570   4.140   2.855   4.083
  869TIP3    H1 2571   4.188   2.778   4.112
  869TIP3    H2 2572   4.193   2.891   4.012
  870TIP3   OH2 2573   5.147   0.848   4.107
  870TIP3    H1 2574   5.178   0.784   4.171
  870TIP3    H2 2575   5.062   0.877   4.142
  871TIP3   OH2 2576   3.764   0.571   0.499
  871TIP3    H1 2577   3.694   0.585   0.562
  871TIP3    H2 2578   3.825   0.511   0.544
  872TIP3   OH2 2579   2.406   0.294   5.732
  872TIP3    H1 2580   2.313   0.277   5.742
  872TIP3    H2 2581   2.430   0.250   5.650
  873TIP3   OH2 2582   4.472   5.209   4.386
  873TIP3    H1 2583   4.488   5.136   4.326
  873TIP3    H2 2584   4.428   5.275   4.333
  874TIP3   OH2 2585   2.889   1.068   0.574
  874TIP3    H1 2586   2.968   1.017   0.557
  874TIP3    H2 2587   2.873   1.115   0.492
  875TIP3   OH2 2588   0.974   6.214   2.038
  875TIP3    H1 2589   0.975   6.133   2.089
  875TIP3    H2 2590   1.065   6.229   2.015
  876TIP3   OH2 2591   4.531   0.270   4.602
  876TIP3    H1 2592   4.540   0.175   4.615
  876TIP3    H2 2593   4.600   0.308   4.655
  877TIP3   OH2 2594   1.653   5.465   5.423
  877TIP3    H1 2595   1.711   5.391   5.442
  877TIP3    H2 2596   1.586   5.428   5.365
  878TIP3   OH2 2597   6.725   2.835   2.533
  878TIP3    H1 2598   6.738   2.899   2.603
  878TIP3    H2 2599   6.701   2.888   2.457
  879TIP3   OH2 2600   1.426   3.821   3.414
  879TIP3    H1 2601   1.409   3.889   3.479
  879TIP3    H2 2602   1.404   3.739   3.459
  880TIP3   OH2 2603   5.660   1.870   0.372
  880TIP3    H1 2604   5.652   1.876   0.468
  880TIP3    H2 2605   5.607   1.795   0.348
  881TIP3   OH2 2606   6.680   1.895   2.297
  881TIP3    H1 2607   6.642   1.976   2.331
  881TIP3    H2 2608   6.754   1.924   2.244
  882TIP3   OH2 2609   4.739   2.058   0.783
  882TIP3    H1 2610   4.692   1.983   0.820
  882TIP3    H2 2611   4.720   2.054   0.689
  883TIP3   OH2 2612   1.430   5.649   3.810
  883TIP3    H1 2613   1.395   5.710   3.744
  883TIP3    H2 2614   1.488   5.703   3.863
  884TIP3   OH2 2615   6.067   1.560   2.699
  884TIP3    H1 2616   6.094   1.575   2.790
  884TIP3    H2 2617   6.000   1.627   2.682
  885TIP3   OH2 2618   0.937   5.733   5.791
  885TIP3    H1 2619   1.007   5.729   5.856
  885TIP3    H2 2620   0.925   5.827   5.774
  886TIP3   OH2 2621   2.870   2.827   4.872
  886TIP3    H1 2622   2.831   2.750   4.830
  886TIP3    H2 2623   2.822   2.901   4.835
  887TIP3   OH2 2624   4.814   3.665   4.229
  887TIP3    H1 2625   4.831   3.698   4.317
  887TIP3    H2 2626   4.894   3.686   4.180
  888TIP3   OH2 2627   6.444   1.089   3.181
  888TIP3    H1 2628   6.390   1.092   3.102
  888TIP3    H2 2629   6.532   1.112   3.152
  889TIP3   OH2 2630   7.129   1.008   5.479
  889TIP3    H1 2631   7.056   0.969   5.431
  889TIP3    H2 2632   7.205   0.993   5.423
  890TIP3   OH2 2633   1.015   5.748   5.271
  890TIP3    H1 2634   0.994   5.787   5.356
  890TIP3    H2 2635   1.022   5.654   5.289
  891TIP3   OH2 2636   4.607   2.423   3.467
  891TIP3    H1 2637   4.652   2.395   3.546
  891TIP3    H2 2638   4.661   2.494   3.432
  892TIP3   OH2 2639   7.096   3.589   1.667
  892TIP3    H1 2640   7.062   3.555   1.750
  892TIP3    H2 2641   7.026   3.572   1.604
  893TIP3   OH2 2642   1.419   1.706   4.702
  893TIP3    H1 2643   1.483   1.668   4.761
  893TIP3    H2 2644   1.451   1.685   4.614
  894TIP3   OH2 2645   1.762   2.066   3.448
  894TIP3    H1 2646   1.748   1.996   3.385
  894TIP3    H2 2647   1.680   2.069   3.498
  895TIP3   OH2 2648   5.284   1.688   0.046
  895TIP3    H1 2649   5.365   1.722   0.084
  895TIP3    H2 2650   5.298   1.594   0.038
  896TIP3   OH2 2651   2.022   5.406   3.867
  896TIP3    H1 2652   2.042   5.403   3.774
  896TIP3    H2 2653   1.958   5.477   3.875
  897TIP3   OH2 2654   1.877   4.297   2.160
  897TIP3    H1 2655   1.926   4.353   2.099
  897TIP3    H2 2656   1.789   4.292   2.122
  898TIP3   OH2 2657   4.080   6.544   3.924
  898TIP3    H1 2658   4.150   6.501   3.972
  898TIP3    H2 2659   4.043   6.607   3.986
  899TIP3   OH2 2660   1.932   4.392   1.213
  899TIP3    H1 2661   1.956   4.300   1.202
  899TIP3    H2 2662   1.927   4.404   1.307
  900TIP3   OH2 2663   3.271   0.603   2.202
  900TIP3    H1 2664   3.244   0.693   2.186
  900TIP3    H2 2665   3.290   0.568   2.115
  901TIP3   OH2 2666   3.837   1.308   3.980
  901TIP3    H1 2667   3.804   1.221   4.002
  901TIP3    H2 2668   3.894   1.294   3.905
  902TIP3   OH2 2669   2.595   1.227   4.355
  902TIP3    H1 2670   2.641   1.250   4.275
  902TIP3    H2 2671   2.511   1.191   4.325
  903TIP3   OH2 2672   1.341   1.451   4.920
  903TIP3    H1 2673   1.278   1.379   4.918
  903TIP3    H2 2674   1.397   1.437   4.844
  904TIP3   OH2 2675   5.888   2.751   5.283
  904TIP3    H1 2676   5.881   2.815   5.353
  904TIP3    H2 2677   5.857   2.669   5.321
  905TIP3   OH2 2678   2.749   2.147   4.359
  905TIP3    H1 2679   2.841   2.172   4.346
  905TIP3    H2 2680   2.704   2.181   4.282
  906TIP3   OH2 2681   2.463   3.704   2.190
  906TIP3    H1 2682   2.504   3.690   2.275
  906TIP3    H2 2683   2.454   3.617   2.152
  907TIP3   OH2 2684   5.749   2.930   0.716
  907TIP3    H1 2685   5.822   2.913   0.775
  907TIP3    H2 2686   5.788   2.932   0.629
  908TIP3   OH2 2687   6.065   3.746   2.472
  908TIP3    H1 2688   6.160   3.754   2.481
  908TIP3    H2 2689   6.032   3.836   2.482
  909TIP3   OH2 2690   4.653   0.023   3.849
  909TIP3    H1 2691   4.609  -0.059   3.828
  909TIP3    H2 2692   4.742  -0.002   3.872
  910TIP3   OH2 2693   7.116   1.013   0.377
  910TIP3    H1 2694   7.081   1.057   0.455
  910TIP3    H2 2695   7.043   1.011   0.315
  911TIP3   OH2 2696   4.526   6.294   5.353
  911TIP3    H1 2697   4.534   6.216   5.409
  911TIP3    H2 2698   4.538   6.262   5.264
  912TIP3   OH2 2699   2.760   2.701   1.919
  912TIP3    H1 2700   2.768   2.624   1.975
  912TIP3    H2 2701   2.842   2.704   1.869
  913TIP3   OH2 2702   5.335   6.174   4.003
  913TIP3    H1 2703   5.291   6.255   4.029
  913TIP3    H2 2704   5.393   6.200   3.932
  914TIP3   OH2 2705   3.747   4.157   3.690
  914TIP3    H1 2706   3.738   4.110   3.772
  914TIP3    H2 2707   3.731   4.249   3.713
  915TIP3   OH2 2708   0.701   0.280   4.795
  915TIP3    H1 2709   0.673   0.287   4.886
  915TIP3    H2 2710   0.789   0.243   4.800
  916TIP3   OH2 2711   4.172   5.024   2.397
  916TIP3    H1 2712   4.251   5.017   2.344
  916TIP3    H2 2713   4.204   5.040   2.486
  917TIP3   OH2 2714   3.525   3.905   3.252
  917TIP3    H1 2715   3.548   3.820   3.289
  917TIP3    H2 2716   3.572   3.968   3.306
  918TIP3   OH2 2717   1.155   2.783   2.707
  918TIP3    H1 2718   1.080   2.729   2.683
  918TIP3    H2 2719   1.172   2.836   2.629
  919TIP3   OH2 2720   2.123   4.166   0.936
  919TIP3    H1 2721   2.061   4.152   0.865
  919TIP3    H2 2722   2.190   4.099   0.923
  920TIP3   OH2 2723   0.490   3.508   5.233
  920TIP3    H1 2724   0.506   3.602   5.223
  920TIP3    H2 2725   0.499   3.473   5.145
  921TIP3   OH2 2726   3.667   4.012   4.793
  921TIP3    H1 2727   3.594   4.074   4.799
  921TIP3    H2 2728   3.637   3.946   4.730
  922TIP3   OH2 2729   4.580   5.389   2.200
  922TIP3    H1 2730   4.518   5.449   2.158
  922TIP3    H2 2731   4.660   5.398   2.149
  923TIP3   OH2 2732   7.097   1.288   5.473
  923TIP3    H1 2733   7.126   1.197   5.462
  923TIP3    H2 2734   7.171   1.341   5.446
  924TIP3   OH2 2735   4.233   4.528   1.330
  924TIP3    H1 2736   4.263   4.452   1.381
  924TIP3    H2 2737   4.314   4.575   1.309
  925TIP3   OH2 2738   0.243   0.502   1.631
  925TIP3    H1 2739   0.324   0.550   1.613
  925TIP3    H2 2740   0.173   0.562   1.603
  926TIP3   OH2 2741   2.574   0.736   1.027
  926TIP3    H1 2742   2.496   0.683   1.044
  926TIP3    H2 2743   2.634   0.677   0.982
  927TIP3   OH2 2744   4.237   4.395   5.233
  927TIP3    H1 2745   4.159   4.445   5.259
  927TIP3    H2 2746   4.306   4.460   5.227
  928TIP3   OH2 2747   6.313   2.335   1.075
  928TIP3    H1 2748   6.308   2.286   0.993
  928TIP3    H2 2749   6.319   2.267   1.142
  929TIP3   OH2 2750   5.620   4.342   5.846
  929TIP3    H1 2751   5.669   4.424   5.840
  929TIP3    H2 2752   5.613   4.312   5.755
  930TIP3   OH2 2753   2.436   1.370   1.780
  930TIP3    H1 2754   2.425   1.278   1.802
  930TIP3    H2 2755   2.531   1.383   1.781
  931TIP3   OH2 2756   6.824   3.881   4.540
  931TIP3    H1 2757   6.854   3.867   4.629
  931TIP3    H2 2758   6.898   3.921   4.495
  932TIP3   OH2 2759   1.907   2.718   1.239
  932TIP3    H1 2760   1.921   2.756   1.152
  932TIP3    H2 2761   1.995   2.700   1.272
  933TIP3   OH2 2762   2.998   3.538   1.073
  933TIP3    H1 2763   2.948   3.458   1.059
  933TIP3    H2 2764   3.071   3.511   1.130
  934TIP3   OH2 2765   7.162   6.690   4.563
  934TIP3    H1 2766   7.132   6.683   4.654
  934TIP3    H2 2767   7.156   6.601   4.528
  935TIP3   OH2 2768   3.676   4.162   0.742
  935TIP3    H1 2769   3.628   4.086   0.710
  935TIP3    H2 2770   3.608   4.228   0.759
  936TIP3   OH2 2771   2.590   3.594   2.424
  936TIP3    H1 2772   2.663   3.555   2.471
  936TIP3    H2 2773   2.583   3.683   2.459
  937TIP3   OH2 2774   2.872   1.704   2.871
  937TIP3    H1 2775   2.886   1.733   2.781
  937TIP3    H2 2776   2.877   1.609   2.866
  938TIP3   OH2 2777   2.336   1.784   1.011
  938TIP3    H1 2778   2.281   1.708   1.029
  938TIP3    H2 2779   2.412   1.747   0.965
  939TIP3   OH2 2780   1.762   2.976   5.790
  939TIP3    H1 2781   1.806   3.060   5.776
  939TIP3    H2 2782   1.670   3.000   5.805
  940TIP3   OH2 2783   6.853   0.911   4.075
  940TIP3    H1 2784   6.847   0.979   4.142
  940TIP3    H2 2785   6.763   0.880   4.064
  941TIP3   OH2 2786   3.736   2.847   5.211
  941TIP3    H1 2787   3.680   2.774   5.183
  941TIP3    H2 2788   3.824   2.822   5.180
  942TIP3   OH2 2789   0.413   5.637   0.467
  942TIP3    H1 2790   0.424   5.572   0.397
  942TIP3    H2 2791   0.501   5.672   0.481
  943TIP3   OH2 2792   0.311   1.779   2.645
  943TIP3    H1 2793   0.309   1.740   2.732
  943TIP3    H2 2794   0.286   1.870   2.659
  944TIP3   OH2 2795   7.140   1.302   4.703
  944TIP3    H1 2796   7.069   1.238   4.694
  944TIP3    H2 2797   7.219   1.252   4.684
  945TIP3   OH2 2798   2.321   5.516   3.632
  945TIP3    H1 2799   2.234   5.492   3.601
  945TIP3    H2 2800   2.378   5.504   3.555
  946TIP3   OH2 2801   6.156   5.602   5.256
  946TIP3    H1 2802   6.194   5.547   5.187
  946TIP3    H2 2803   6.227   5.659   5.284
  947TIP3   OH2 2804   7.093   3.247   2.261
  947TIP3    H1 2805   7.039   3.168   2.258
  947TIP3    H2 2806   7.043   3.308   2.315
  948TIP3   OH2 2807   0.540   3.039   2.656
  948TIP3    H1 2808   0.532   3.079   2.743
  948TIP3    H2 2809   0.478   3.088   2.602
  949TIP3   OH2 2810   0.193   4.868   3.846
  949TIP3    H1 2811   0.211   4.953   3.886
  949TIP3    H2 2812   0.240   4.870   3.763
  950TIP3   OH2 2813   2.410   6.356   1.156
  950TIP3    H1 2814   2.505   6.363   1.153
  950TIP3    H2 2815   2.380   6.436   1.199
  951TIP3   OH2 2816  -0.003   0.657   5.809
  951TIP3    H1 2817   0.009   0.602   5.731
  951TIP3    H2 2818   0.081   0.652   5.854
  952TIP3   OH2 2819   1.452   2.201   3.750
  952TIP3    H1 2820   1.363   2.224   3.778
  952TIP3    H2 2821   1.509   2.249   3.809
  953TIP3   OH2 2822   3.639   0.204   2.792
  953TIP3    H1 2823   3.569   0.155   2.750
  953TIP3    H2 2824   3.710   0.140   2.803
  954TIP3   OH2 2825   2.105   1.140   3.364
  954TIP3    H1 2826   2.178   1.162   3.306
  954TIP3    H2 2827   2.053   1.220   3.370
  955TIP3   OH2 2828   2.074   5.352   2.282
  955TIP3    H1 2829   2.061   5.268   2.326
  955TIP3    H2 2830   2.004   5.408   2.316
  956TIP3   OH2 2831   6.843   6.002   0.908
  956TIP3    H1 2832   6.905   6.052   0.855
  956TIP3    H2 2833   6.870   5.911   0.896
  957TIP3   OH2 2834   1.514   1.827   0.597
  957TIP3    H1 2835   1.589   1.879   0.625
  957TIP3    H2 2836   1.438   1.872   0.633
  958TIP3   OH2 2837   4.814   4.103   1.809
  958TIP3    H1 2838   4.835   4.077   1.898
  958TIP3    H2 2839   4.753   4.177   1.819
  959TIP3   OH2 2840   0.129   5.483   4.627
  959TIP3    H1 2841   0.166   5.447   4.708
  959TIP3    H2 2842   0.141   5.414   4.562
  960TIP3   OH2 2843   6.246   2.644   3.399
  960TIP3    H1 2844   6.211   2.728   3.369
  960TIP3    H2 2845   6.209   2.579   3.339
  961TIP3   OH2 2846   2.585   5.337   4.687
  961TIP3    H1 2847   2.671   5.333   4.645
  961TIP3    H2 2848   2.586   5.419   4.736
  962TIP3   OH2 2849   6.736   0.989   3.744
  962TIP3    H1 2850   6.717   1.046   3.819
  962TIP3    H2 2851   6.810   0.934   3.774
  963TIP3   OH2 2852   0.803   4.110   5.269
  963TIP3    H1 2853   0.715   4.139   5.294
  963TIP3    H2 2854   0.830   4.052   5.339
  964TIP3   OH2 2855   5.803   3.652   1.020
  964TIP3    H1 2856   5.751   3.672   1.098
  964TIP3    H2 2857   5.831   3.561   1.033
  965TIP3   OH2 2858   1.004   4.845   5.642
  965TIP3    H1 2859   1.030   4.931   5.677
  965TIP3    H2 2860   0.921   4.863   5.597
  966TIP3   OH2 2861   5.203   1.421   1.841
  966TIP3    H1 2862   5.128   1.418   1.900
  966TIP3    H2 2863   5.224   1.329   1.823
  967TIP3   OH2 2864   0.848   0.107   4.443
  967TIP3    H1 2865   0.892   0.067   4.368
  967TIP3    H2 2866   0.795   0.177   4.405
  968TIP3   OH2 2867   4.385   2.657   1.321
  968TIP3    H1 2868   4.428   2.651   1.406
  968TIP3    H2 2869   4.312   2.596   1.326
  969TIP3   OH2 2870   6.826   3.684   0.761
  969TIP3    H1 2871   6.736   3.717   0.765
  969TIP3    H2 2872   6.845   3.679   0.667
  970TIP3   OH2 2873   0.756   3.448   4.162
  970TIP3    H1 2874   0.755   3.525   4.105
  970TIP3    H2 2875   0.755   3.374   4.101
  971TIP3   OH2 2876   0.847   1.477   3.124
  971TIP3    H1 2877   0.923   1.488   3.181
  971TIP3    H2 2878   0.874   1.409   3.062
  972TIP3   OH2 2879   2.448   4.441   5.883
  972TIP3    H1 2880   2.354   4.454   5.895
  972TIP3    H2 2881   2.455   4.365   5.825
  973TIP3   OH2 2882   0.073   4.050   4.497
  973TIP3    H1 2883   0.017   3.978   4.524
  973TIP3    H2 2884   0.043   4.124   4.550
  974TIP3   OH2 2885   0.829   3.196   4.457
  974TIP3    H1 2886   0.862   3.212   4.545
  974TIP3    H2 2887   0.734   3.186   4.469
  975TIP3   OH2 2888   2.639   3.598   0.588
  975TIP3    H1 2889   2.679   3.637   0.511
  975TIP3    H2 2890   2.713   3.566   0.640
  976TIP3   OH2 2891   5.410   3.646   0.325
  976TIP3    H1 2892   5.460   3.564   0.326
  976TIP3    H2 2893   5.469   3.709   0.284
  977TIP3   OH2 2894   4.294   5.114   3.279
  977TIP3    H1 2895   4.369   5.058   3.259
  977TIP3    H2 2896   4.332   5.201   3.294
  978TIP3   OH2 2897   4.918   6.494   2.610
  978TIP3    H1 2898   4.974   6.572   2.617
  978TIP3    H2 2899   4.940   6.442   2.687
  979TIP3   OH2 2900   5.880   5.930   5.435
  979TIP3    H1 2901   5.915   6.000   5.491
  979TIP3    H2 2902   5.935   5.933   5.356
  980TIP3   OH2 2903   3.050   6.345   4.165
  980TIP3    H1 2904   3.047   6.298   4.249
  980TIP3    H2 2905   3.097   6.287   4.106
  981TIP3   OH2 2906   2.540   4.137   5.006
  981TIP3    H1 2907   2.445   4.136   4.990
  981TIP3    H2 2908   2.548   4.159   5.099
  982TIP3   OH2 2909   6.214   4.776   5.492
  982TIP3    H1 2910   6.293   4.739   5.452
  982TIP3    H2 2911   6.240   4.864   5.520
  983TIP3   OH2 2912   4.400   5.896   3.450
  983TIP3    H1 2913   4.319   5.847   3.466
  983TIP3    H2 2914   4.375   5.988   3.459
  984TIP3   OH2 2915   2.766   2.383   4.575
  984TIP3    H1 2916   2.830   2.368   4.505
  984TIP3    H2 2917   2.758   2.298   4.619
  985TIP3   OH2 2918   3.308   5.293   5.783
  985TIP3    H1 2919   3.383   5.269   5.728
  985TIP3    H2 2920   3.282   5.211   5.825
  986TIP3   OH2 2921   3.408   4.028   0.747
  986TIP3    H1 2922   3.325   4.026   0.795
  986TIP3    H2 2923   3.460   3.957   0.786
  987TIP3   OH2 2924   3.036   4.360   0.994
  987TIP3    H1 2925   3.015   4.349   1.087
  987TIP3    H2 2926   2.951   4.360   0.950
  988TIP3   OH2 2927   4.317   5.100   3.780
  988TIP3    H1 2928   4.392   5.041   3.776
  988TIP3    H2 2929   4.264   5.077   3.704
  989TIP3   OH2 2930   6.155   3.727   0.814
  989TIP3    H1 2931   6.061   3.731   0.797
  989TIP3    H2 2932   6.166   3.762   0.902
  990TIP3   OH2 2933   6.663   0.437   0.248
  990TIP3    H1 2934   6.630   0.388   0.172
  990TIP3    H2 2935   6.645   0.529   0.226
  991TIP3   OH2 2936   5.215   5.341   3.189
  991TIP3    H1 2937   5.254   5.395   3.121
  991TIP3    H2 2938   5.132   5.313   3.153
  992TIP3   OH2 2939   5.087   4.282   4.189
  992TIP3    H1 2940   5.182   4.282   4.199
  992TIP3    H2 2941   5.053   4.301   4.276
  993TIP3   OH2 2942   3.167   6.246   3.444
  993TIP3    H1 2943   3.162   6.329   3.396
  993TIP3    H2 2944   3.080   6.235   3.482
  994TIP3   OH2 2945   1.849   5.325   4.800
  994TIP3    H1 2946   1.829   5.408   4.843
  994TIP3    H2 2947   1.847   5.261   4.871
  995TIP3   OH2 2948   1.132   4.597   5.600
  995TIP3    H1 2949   1.216   4.640   5.615
  995TIP3    H2 2950   1.067   4.660   5.632
  996TIP3   OH2 2951   0.749   5.996   5.329
  996TIP3    H1 2952   0.722   6.051   5.403
  996TIP3    H2 2953   0.711   5.910   5.348
  997TIP3   OH2 2954   0.984   4.027   1.066
  997TIP3    H1 2955   0.888   4.033   1.071
  997TIP3    H2 2956   1.002   4.008   0.974
  998TIP3   OH2 2957   0.736   5.149   0.978
  998TIP3    H1 2958   0.696   5.171   1.062
  998TIP3    H2 2959   0.809   5.091   1.000
  999TIP3   OH2 2960   3.921   1.700   4.768
  999TIP3    H1 2961   3.962   1.704   4.681
  999TIP3    H2 2962   3.995   1.700   4.829
 1000TIP3   OH2 2963   2.456   3.082   5.660
 1000TIP3    H1 2964   2.470   3.120   5.573
 1000TIP3    H2 2965   2.477   3.153   5.721
 1001TIP3   OH2 2966   7.128   3.031   3.953
 1001TIP3    H1 2967   7.082   3.086   4.016
 1001TIP3    H2 2968   7.214   3.016   3.993
 1002TIP3   OH2 2969   2.838   5.674   0.115
 1002TIP3    H1 2970   2.869   5.633   0.195
 1002TIP3    H2 2971   2.760   5.624   0.091
 1003TIP3   OH2 2972   2.236   2.046   4.472
 1003TIP3    H1 2973   2.180   2.057   4.549
 1003TIP3    H2 2974   2.251   2.135   4.441
 1004TIP3   OH2 2975   5.299   4.855   1.183
 1004TIP3    H1 2976   5.381   4.812   1.158
 1004TIP3    H2 2977   5.232   4.789   1.170
 1005TIP3   OH2 2978   3.579   2.515   3.810
 1005TIP3    H1 2979   3.653   2.507   3.750
 1005TIP3    H2 2980   3.509   2.555   3.758
 1006TIP3   OH2 2981   0.758   3.997   1.326
 1006TIP3    H1 2982   0.725   4.063   1.265
 1006TIP3    H2 2983   0.837   4.035   1.364
 1007TIP3   OH2 2984   4.055   3.183   1.025
 1007TIP3    H1 2985   4.092   3.150   0.943
 1007TIP3    H2 2986   4.071   3.277   1.022
 1008TIP3   OH2 2987   4.786   4.023   5.446
 1008TIP3    H1 2988   4.874   4.061   5.444
 1008TIP3    H2 2989   4.759   4.028   5.537
 1009TIP3   OH2 2990   1.741   2.665   0.083
 1009TIP3    H1 2991   1.778   2.609   0.151
 1009TIP3    H2 2992   1.810   2.671   0.017
 1010TIP3   OH2 2993   6.973   0.546   2.140
 1010TIP3    H1 2994   6.938   0.602   2.210
 1010TIP3    H2 2995   6.939   0.459   2.160
 1011TIP3   OH2 2996   7.170   6.441   4.457
 1011TIP3    H1 2997   7.122   6.367   4.494
 1011TIP3    H2 2998   7.194   6.412   4.369
 1012TIP3   OH2 2999   5.083   5.442   5.058
 1012TIP3    H1 3000   5.031   5.459   4.979
 1012TIP3    H2 3001   5.133   5.522   5.070
 1013TIP3   OH2 3002   5.049   1.305   1.464
 1013TIP3    H1 3003   5.123   1.367   1.464
 1013TIP3    H2 3004   5.038   1.281   1.556
 1014TIP3   OH2 3005   2.734   6.024   2.082
 1014TIP3    H1 3006   2.699   6.034   2.170
 1014TIP3    H2 3007   2.695   5.942   2.050
 1015TIP3   OH2 3008   0.996   6.267   4.165
 1015TIP3    H1 3009   1.048   6.187   4.179
 1015TIP3    H2 3010   0.962   6.289   4.252
 1016TIP3   OH2 3011   3.173   0.519   1.530
 1016TIP3    H1 3012   3.082   0.508   1.556
 1016TIP3    H2 3013   3.214   0.563   1.604
 1017TIP3   OH2 3014   4.098   0.615   5.262
 1017TIP3    H1 3015   4.050   0.627   5.180
 1017TIP3    H2 3016   4.076   0.692   5.314
 1018TIP3   OH2 3017   4.332   2.023   0.433
 1018TIP3    H1 3018   4.363   1.975   0.356
 1018TIP3    H2 3019   4.284   2.097   0.396
 1019TIP3   OH2 3020   6.159   4.764   1.120
 1019TIP3    H1 3021   6.161   4.842   1.176
 1019TIP3    H2 3022   6.233   4.711   1.151
 1020TIP3   OH2 3023   5.104   5.637   4.189
 1020TIP3    H1 3024   5.051   5.559   4.205
 1020TIP3    H2 3025   5.187   5.619   4.233
 1021TIP3   OH2 3026   2.632   4.388   1.141
 1021TIP3    H1 3027   2.664   4.298   1.137
 1021TIP3    H2 3028   2.710   4.440   1.160
 1022TIP3   OH2 3029   6.014   0.839   3.517
 1022TIP3    H1 3030   6.010   0.886   3.434
 1022TIP3    H2 3031   6.008   0.746   3.492
 1023TIP3   OH2 3032   4.158   4.301   2.460
 1023TIP3    H1 3033   4.207   4.358   2.519
 1023TIP3    H2 3034   4.070   4.297   2.497
 1024TIP3   OH2 3035   3.338   2.369   2.894
 1024TIP3    H1 3036   3.413   2.351   2.951
 1024TIP3    H2 3037   3.266   2.387   2.954
 1025TIP3   OH2 3038   2.217   3.455   2.835
 1025TIP3    H1 3039   2.267   3.477   2.914
 1025TIP3    H2 3040   2.183   3.368   2.853
 1026TIP3   OH2 3041   6.727   6.295   3.989
 1026TIP3    H1 3042   6.770   6.342   3.917
 1026TIP3    H2 3043   6.793   6.233   4.019
 1027TIP3   OH2 3044   5.298   0.428   2.218
 1027TIP3    H1 3045   5.204   0.450   2.220
 1027TIP3    H2 3046   5.300   0.333   2.225
 1028TIP3   OH2 3047   1.751   1.201   5.691
 1028TIP3    H1 3048   1.805   1.156   5.626
 1028TIP3    H2 3049   1.734   1.135   5.758
 1029TIP3   OH2 3050   4.071   1.367   3.707
 1029TIP3    H1 3051   4.039   1.278   3.695
 1029TIP3    H2 3052   3.995   1.422   3.686
 1030TIP3   OH2 3053   2.348   4.337   3.097
 1030TIP3    H1 3054   2.256   4.311   3.092
 1030TIP3    H2 3055   2.361   4.394   3.022
 1031TIP3   OH2 3056   6.046   5.663   1.814
 1031TIP3    H1 3057   6.112   5.724   1.782
 1031TIP3    H2 3058   5.963   5.701   1.784
 1032TIP3   OH2 3059   6.537   4.116   3.045
 1032TIP3    H1 3060   6.578   4.152   3.123
 1032TIP3    H2 3061   6.497   4.034   3.074
 1033TIP3   OH2 3062   0.407   6.287   5.828
 1033TIP3    H1 3063   0.315   6.288   5.802
 1033TIP3    H2 3064   0.453   6.337   5.760
 1034TIP3   OH2 3065   0.281   1.639   2.105
 1034TIP3    H1 3066   0.365   1.630   2.061
 1034TIP3    H2 3067   0.254   1.729   2.089
 1035TIP3   OH2 3068   5.104   4.280   5.717
 1035TIP3    H1 3069   5.098   4.360   5.769
 1035TIP3    H2 3070   5.065   4.303   5.633
 1036TIP3   OH2 3071   4.950   1.165   5.861
 1036TIP3    H1 3072   4.868   1.128   5.828
 1036TIP3    H2 3073   4.923   1.240   5.914
 1037TIP3   OH2 3074   1.188   1.186   4.933
 1037TIP3    H1 3075   1.240   1.163   5.010
 1037TIP3    H2 3076   1.112   1.128   4.937
 1038TIP3   OH2 3077   1.235   1.444   4.200
 1038TIP3    H1 3078   1.235   1.501   4.123
 1038TIP3    H2 3079   1.320   1.459   4.241
 1039TIP3   OH2 3080   1.269   1.753   0.039
 1039TIP3    H1 3081   1.178   1.755   0.009
 1039TIP3    H2 3082   1.301   1.842   0.025
 1040TIP3   OH2 3083   3.672   4.635   3.383
 1040TIP3    H1 3084   3.737   4.668   3.320
 1040TIP3    H2 3085   3.591   4.628   3.332
 1041TIP3   OH2 3086   5.767   3.980   2.196
 1041TIP3    H1 3087   5.828   3.910   2.172
 1041TIP3    H2 3088   5.753   4.028   2.115
 1042TIP3   OH2 3089   2.673   3.417   4.640
 1042TIP3    H1 3090   2.602   3.407   4.576
 1042TIP3    H2 3091   2.682   3.511   4.652
 1043TIP3   OH2 3092   7.203   2.901   4.727
 1043TIP3    H1 3093   7.129   2.950   4.763
 1043TIP3    H2 3094   7.178   2.884   4.636
 1044TIP3   OH2 3095   6.436   0.655   2.708
 1044TIP3    H1 3096   6.361   0.595   2.710
 1044TIP3    H2 3097   6.434   0.697   2.794
 1045TIP3   OH2 3098   4.103   2.784   0.089
 1045TIP3    H1 3099   4.014   2.797   0.055
 1045TIP3    H2 3100   4.158   2.782   0.011
 1046TIP3   OH2 3101   2.699   3.610   3.459
 1046TIP3    H1 3102   2.792   3.590   3.460
 1046TIP3    H2 3103   2.681   3.645   3.546
 1047TIP3   OH2 3104   4.403   0.545   3.384
 1047TIP3    H1 3105   4.443   0.459   3.398
 1047TIP3    H2 3106   4.432   0.571   3.297
 1048TIP3   OH2 3107   4.526   5.362   3.084
 1048TIP3    H1 3108   4.485   5.340   3.000
 1048TIP3    H2 3109   4.618   5.338   3.072
 1049TIP3   OH2 3110   7.037   6.377   1.109
 1049TIP3    H1 3111   7.102   6.307   1.115
 1049TIP3    H2 3112   6.983   6.366   1.188
 1050TIP3   OH2 3113   1.414   5.058   4.250
 1050TIP3    H1 3114   1.429   5.057   4.344
 1050TIP3    H2 3115   1.418   5.151   4.226
 1051TIP3   OH2 3116   3.808   0.790   0.884
 1051TIP3    H1 3117   3.755   0.804   0.806
 1051TIP3    H2 3118   3.897   0.780   0.851
 1052TIP3   OH2 3119   3.981   4.005   3.725
 1052TIP3    H1 3120   3.899   4.045   3.695
 1052TIP3    H2 3121   4.005   3.944   3.656
 1053TIP3   OH2 3122   2.786   2.332   5.362
 1053TIP3    H1 3123   2.823   2.397   5.302
 1053TIP3    H2 3124   2.691   2.346   5.356
 1054TIP3   OH2 3125   3.693   0.786   1.549
 1054TIP3    H1 3126   3.717   0.796   1.641
 1054TIP3    H2 3127   3.775   0.800   1.501
 1055TIP3   OH2 3128   6.510   1.525   2.573
 1055TIP3    H1 3129   6.535   1.493   2.660
 1055TIP3    H2 3130   6.593   1.547   2.531
 1056TIP3   OH2 3131   2.561   6.284   5.227
 1056TIP3    H1 3132   2.653   6.258   5.234
 1056TIP3    H2 3133   2.549   6.349   5.296
 1057TIP3   OH2 3134   4.003   4.537   5.293
 1057TIP3    H1 3135   3.946   4.598   5.340
 1057TIP3    H2 3136   3.958   4.519   5.211
 1058TIP3   OH2 3137   4.808   2.706   2.714
 1058TIP3    H1 3138   4.872   2.640   2.688
 1058TIP3    H2 3139   4.845   2.747   2.792
 1059TIP3   OH2 3140   4.186   4.083   1.286
 1059TIP3    H1 3141   4.217   4.013   1.344
 1059TIP3    H2 3142   4.217   4.058   1.199
 1060TIP3   OH2 3143   5.261   5.264   3.592
 1060TIP3    H1 3144   5.329   5.332   3.601
 1060TIP3    H2 3145   5.207   5.295   3.519
 1061TIP3   OH2 3146   4.583   1.405   5.055
 1061TIP3    H1 3147   4.594   1.310   5.066
 1061TIP3    H2 3148   4.519   1.413   4.984
 1062TIP3   OH2 3149   1.526   0.347   0.950
 1062TIP3    H1 3150   1.457   0.414   0.953
 1062TIP3    H2 3151   1.606   0.394   0.970
 1063TIP3   OH2 3152   3.086   0.974   2.814
 1063TIP3    H1 3153   3.059   0.939   2.899
 1063TIP3    H2 3154   3.031   1.052   2.801
 1064TIP3   OH2 3155   2.481   4.510   5.558
 1064TIP3    H1 3156   2.469   4.527   5.651
 1064TIP3    H2 3157   2.546   4.440   5.554
 1065TIP3   OH2 3158   2.372   4.311   1.483
 1065TIP3    H1 3159   2.379   4.234   1.427
 1065TIP3    H2 3160   2.366   4.385   1.423
 1066TIP3   OH2 3161   0.993   2.637   1.807
 1066TIP3    H1 3162   0.922   2.662   1.748
 1066TIP3    H2 3163   0.998   2.542   1.800
 1067TIP3   OH2 3164   6.574   4.353   3.197
 1067TIP3    H1 3165   6.560   4.390   3.109
 1067TIP3    H2 3166   6.601   4.428   3.250
 1068TIP3   OH2 3167   3.004   6.293   0.246
 1068TIP3    H1 3168   3.017   6.234   0.172
 1068TIP3    H2 3169   3.090   6.331   0.262
 1069TIP3   OH2 3170   1.262   6.202   2.533
 1069TIP3    H1 3171   1.307   6.258   2.470
 1069TIP3    H2 3172   1.218   6.264   2.592
 1070TIP3   OH2 3173   4.021   6.158   5.084
 1070TIP3    H1 3174   4.063   6.216   5.147
 1070TIP3    H2 3175   4.072   6.077   5.088
 1071TIP3   OH2 3176   1.548   6.326   2.998
 1071TIP3    H1 3177   1.461   6.286   2.999
 1071TIP3    H2 3178   1.538   6.408   3.046
 1072TIP3   OH2 3179   4.971   4.593   4.510
 1072TIP3    H1 3180   5.034   4.623   4.444
 1072TIP3    H2 3181   4.895   4.564   4.458
 1073TIP3   OH2 3182   5.158   6.426   4.032
 1073TIP3    H1 3183   5.073   6.382   4.032
 1073TIP3    H2 3184   5.186   6.424   4.124
 1074TIP3   OH2 3185   3.320   0.067   4.345
 1074TIP3    H1 3186   3.259   0.116   4.291
 1074TIP3    H2 3187   3.264   0.015   4.403
 1075TIP3   OH2 3188   4.801   3.402   1.749
 1075TIP3    H1 3189   4.724   3.444   1.709
 1075TIP3    H2 3190   4.875   3.456   1.722
 1076TIP3   OH2 3191   3.058   6.606   0.864
 1076TIP3    H1 3192   2.988   6.570   0.918
 1076TIP3    H2 3193   3.039   6.574   0.776
 1077TIP3   OH2 3194   2.999   0.785   2.434
 1077TIP3    H1 3195   2.933   0.824   2.376
 1077TIP3    H2 3196   3.027   0.858   2.490
 1078TIP3   OH2 3197   5.180   0.302   0.690
 1078TIP3    H1 3198   5.229   0.303   0.608
 1078TIP3    H2 3199   5.148   0.212   0.698
 1079TIP3   OH2 3200   4.602   0.571   3.190
 1079TIP3    H1 3201   4.668   0.550   3.257
 1079TIP3    H2 3202   4.651   0.619   3.123
 1080TIP3   OH2 3203   1.325   2.439   1.061
 1080TIP3    H1 3204   1.348   2.525   1.027
 1080TIP3    H2 3205   1.331   2.448   1.156
 1081TIP3   OH2 3206   1.564   4.981   3.568
 1081TIP3    H1 3207   1.611   5.057   3.600
 1081TIP3    H2 3208   1.484   5.017   3.528
 1082TIP3   OH2 3209   5.148   6.406   5.709
 1082TIP3    H1 3210   5.098   6.334   5.746
 1082TIP3    H2 3211   5.202   6.438   5.781
 1083TIP3   OH2 3212   4.824   4.422   1.261
 1083TIP3    H1 3213   4.835   4.476   1.339
 1083TIP3    H2 3214   4.736   4.442   1.230
 1084TIP3   OH2 3215   5.296   2.426   0.040
 1084TIP3    H1 3216   5.356   2.401   0.110
 1084TIP3    H2 3217   5.257   2.344   0.011
 1085TIP3   OH2 3218   3.737   0.533   5.395
 1085TIP3    H1 3219   3.719   0.623   5.420
 1085TIP3    H2 3220   3.706   0.526   5.305
 1086TIP3   OH2 3221   6.669   5.805   2.601
 1086TIP3    H1 3222   6.763   5.786   2.592
 1086TIP3    H2 3223   6.629   5.766   2.524
 1087TIP3   OH2 3224   5.319   6.138   0.430
 1087TIP3    H1 3225   5.379   6.189   0.375
 1087TIP3    H2 3226   5.240   6.129   0.376
 1088TIP3   OH2 3227   3.825   1.999   0.410
 1088TIP3    H1 3228   3.855   1.914   0.442
 1088TIP3    H2 3229   3.807   1.985   0.317
 1089TIP3   OH2 3230   5.463   6.241   5.121
 1089TIP3    H1 3231   5.387   6.185   5.135
 1089TIP3    H2 3232   5.474   6.287   5.204
 1090TIP3   OH2 3233   3.049   5.712   1.731
 1090TIP3    H1 3234   2.987   5.678   1.667
 1090TIP3    H2 3235   3.016   5.682   1.815
 1091TIP3   OH2 3236   6.556   5.016   3.910
 1091TIP3    H1 3237   6.603   4.934   3.898
 1091TIP3    H2 3238   6.492   4.998   3.979
 1092TIP3   OH2 3239   2.018   5.544   3.195
 1092TIP3    H1 3240   1.927   5.557   3.167
 1092TIP3    H2 3241   2.044   5.628   3.232
 1093TIP3   OH2 3242   0.552   6.426   5.548
 1093TIP3    H1 3243   0.495   6.466   5.483
 1093TIP3    H2 3244   0.553   6.333   5.525
 1094TIP3   OH2 3245   3.579   1.427   0.749
 1094TIP3    H1 3246   3.575   1.355   0.686
 1094TIP3    H2 3247   3.661   1.413   0.797
 1095TIP3   OH2 3248   6.287   5.012   0.794
 1095TIP3    H1 3249   6.367   5.001   0.845
 1095TIP3    H2 3250   6.297   5.099   0.755
 1096TIP3   OH2 3251   2.397   4.265   4.105
 1096TIP3    H1 3252   2.337   4.221   4.045
 1096TIP3    H2 3253   2.437   4.334   4.051
 1097TIP3   OH2 3254   3.759   3.910   1.172
 1097TIP3    H1 3255   3.762   3.859   1.253
 1097TIP3    H2 3256   3.794   3.995   1.196
 1098TIP3   OH2 3257   4.819   3.549   4.833
 1098TIP3    H1 3258   4.897   3.604   4.830
 1098TIP3    H2 3259   4.747   3.607   4.808
 1099TIP3   OH2 3260   2.552   3.259   5.832
 1099TIP3    H1 3261   2.496   3.331   5.859
 1099TIP3    H2 3262   2.606   3.240   5.908
 1100TIP3   OH2 3263   5.606   6.375   2.288
 1100TIP3    H1 3264   5.544   6.347   2.221
 1100TIP3    H2 3265   5.551   6.416   2.355
 1101TIP3   OH2 3266   0.278   3.335   4.682
 1101TIP3    H1 3267   0.276   3.350   4.587
 1101TIP3    H2 3268   0.197   3.289   4.701
 1102TIP3   OH2 3269   2.068   2.989   2.284
 1102TIP3    H1 3270   2.144   3.029   2.325
 1102TIP3    H2 3271   2.026   3.061   2.237
 1103TIP3   OH2 3272   3.004   3.125   0.237
 1103TIP3    H1 3273   3.052   3.199   0.201
 1103TIP3    H2 3274   2.937   3.164   0.293
 1104TIP3   OH2 3275   5.052   1.482   0.738
 1104TIP3    H1 3276   5.117   1.463   0.805
 1104TIP3    H2 3277   4.986   1.414   0.748
 1105TIP3   OH2 3278   4.570   0.824   4.330
 1105TIP3    H1 3279   4.488   0.829   4.380
 1105TIP3    H2 3280   4.573   0.906   4.281
 1106TIP3   OH2 3281   5.377   2.934   3.361
 1106TIP3    H1 3282   5.299   2.975   3.398
 1106TIP3    H2 3283   5.347   2.896   3.278
 1107TIP3   OH2 3284   1.802   2.974   4.111
 1107TIP3    H1 3285   1.791   3.060   4.070
 1107TIP3    H2 3286   1.896   2.955   4.103
 1108TIP3   OH2 3287   3.898   6.496   0.525
 1108TIP3    H1 3288   3.951   6.421   0.500
 1108TIP3    H2 3289   3.960   6.557   0.566
 1109TIP3   OH2 3290   0.705   4.995   3.872
 1109TIP3    H1 3291   0.686   5.016   3.781
 1109TIP3    H2 3292   0.799   5.011   3.881
 1110TIP3   OH2 3293   6.980   3.846   2.724
 1110TIP3    H1 3294   6.929   3.766   2.740
 1110TIP3    H2 3295   6.999   3.880   2.812
 1111TIP3   OH2 3296   3.692   4.254   0.212
 1111TIP3    H1 3297   3.625   4.321   0.197
 1111TIP3    H2 3298   3.740   4.285   0.289
 1112TIP3   OH2 3299   5.938   5.449   1.618
 1112TIP3    H1 3300   5.973   5.525   1.664
 1112TIP3    H2 3301   6.014   5.411   1.573
 1113TIP3   OH2 3302   3.541   3.281   1.381
 1113TIP3    H1 3303   3.508   3.320   1.462
 1113TIP3    H2 3304   3.599   3.211   1.411
 1114TIP3   OH2 3305   5.583   3.839   1.851
 1114TIP3    H1 3306   5.502   3.836   1.902
 1114TIP3    H2 3307   5.566   3.906   1.784
 1115TIP3   OH2 3308   5.989   4.260   4.167
 1115TIP3    H1 3309   5.987   4.342   4.215
 1115TIP3    H2 3310   6.082   4.246   4.147
 1116TIP3   OH2 3311   2.054   3.582   2.674
 1116TIP3    H1 3312   2.132   3.612   2.628
 1116TIP3    H2 3313   2.085   3.511   2.729
 1117TIP3   OH2 3314   2.458   2.218   3.069
 1117TIP3    H1 3315   2.435   2.292   3.125
 1117TIP3    H2 3316   2.475   2.257   2.984
 1118TIP3   OH2 3317   0.543   4.066   3.566
 1118TIP3    H1 3318   0.569   4.151   3.602
 1118TIP3    H2 3319   0.479   4.087   3.498
 1119TIP3   OH2 3320   0.341   2.173   5.390
 1119TIP3    H1 3321   0.314   2.189   5.480
 1119TIP3    H2 3322   0.293   2.094   5.365
 1120TIP3   OH2 3323   0.839   3.952   5.784
 1120TIP3    H1 3324   0.911   3.944   5.722
 1120TIP3    H2 3325   0.840   3.869   5.832
 1121TIP3   OH2 3326   3.885   0.621   3.198
 1121TIP3    H1 3327   3.824   0.646   3.267
 1121TIP3    H2 3328   3.944   0.696   3.190
 1122TIP3   OH2 3329   1.984   1.198   2.327
 1122TIP3    H1 3330   1.930   1.232   2.256
 1122TIP3    H2 3331   1.921   1.153   2.385
 1123TIP3   OH2 3332   5.675   0.467   2.483
 1123TIP3    H1 3333   5.701   0.556   2.461
 1123TIP3    H2 3334   5.737   0.441   2.551
 1124TIP3   OH2 3335   1.905   0.088   2.584
 1124TIP3    H1 3336   1.932   0.145   2.656
 1124TIP3    H2 3337   1.813   0.112   2.568
 1125TIP3   OH2 3338   1.304   0.034   3.864
 1125TIP3    H1 3339   1.360  -0.015   3.924
 1125TIP3    H2 3340   1.352   0.115   3.846
 1126TIP3   OH2 3341   3.123   5.464   1.295
 1126TIP3    H1 3342   3.083   5.440   1.379
 1126TIP3    H2 3343   3.179   5.539   1.316
 1127TIP3   OH2 3344   6.256   1.973   0.080
 1127TIP3    H1 3345   6.176   1.934   0.114
 1127TIP3    H2 3346   6.226   2.028   0.007
 1128TIP3   OH2 3347   2.722   2.565   5.197
 1128TIP3    H1 3348   2.697   2.576   5.105
 1128TIP3    H2 3349   2.694   2.646   5.239
 1129TIP3   OH2 3350   2.635   1.993   3.146
 1129TIP3    H1 3351   2.604   2.070   3.098
 1129TIP3    H2 3352   2.639   1.924   3.081
 1130TIP3   OH2 3353   2.042   0.955   4.099
 1130TIP3    H1 3354   2.031   0.991   4.011
 1130TIP3    H2 3355   2.066   1.030   4.153
 1131TIP3   OH2 3356   4.569   3.760   0.100
 1131TIP3    H1 3357   4.509   3.833   0.087
 1131TIP3    H2 3358   4.605   3.774   0.188
 1132TIP3   OH2 3359   2.882   4.873   3.612
 1132TIP3    H1 3360   2.798   4.841   3.643
 1132TIP3    H2 3361   2.864   4.963   3.585
 1133TIP3   OH2 3362   1.339   4.941   1.331
 1133TIP3    H1 3363   1.385   4.882   1.271
 1133TIP3    H2 3364   1.315   5.016   1.277
 1134TIP3   OH2 3365   0.088   5.017   4.148
 1134TIP3    H1 3366   0.005   5.022   4.101
 1134TIP3    H2 3367   0.071   5.057   4.233
 1135TIP3   OH2 3368   3.764   4.713   3.131
 1135TIP3    H1 3369   3.714   4.648   3.082
 1135TIP3    H2 3370   3.806   4.766   3.064
 1136TIP3   OH2 3371   2.379   1.644   5.056
 1136TIP3    H1 3372   2.468   1.612   5.040
 1136TIP3    H2 3373   2.386   1.696   5.136
 1137TIP3   OH2 3374   5.088   0.172   1.424
 1137TIP3    H1 3375   5.136   0.112   1.481
 1137TIP3    H2 3376   5.001   0.179   1.464
 1138TIP3   OH2 3377   3.312   5.183   4.219
 1138TIP3    H1 3378   3.386   5.208   4.162
 1138TIP3    H2 3379   3.247   5.251   4.204
 1139TIP3   OH2 3380   0.463   1.661   5.208
 1139TIP3    H1 3381   0.480   1.736   5.150
 1139TIP3    H2 3382   0.528   1.668   5.277
 1140TIP3   OH2 3383   6.043   0.099   0.942
 1140TIP3    H1 3384   6.116   0.147   0.904
 1140TIP3    H2 3385   6.062   0.095   1.035
 1141TIP3   OH2 3386   2.212   3.801   4.207
 1141TIP3    H1 3387   2.252   3.847   4.281
 1141TIP3    H2 3388   2.285   3.785   4.147
 1142TIP3   OH2 3389   5.156   5.448   5.750
 1142TIP3    H1 3390   5.062   5.450   5.734
 1142TIP3    H2 3391   5.166   5.386   5.823
 1143TIP3   OH2 3392   1.884   0.319   4.665
 1143TIP3    H1 3393   1.826   0.350   4.596
 1143TIP3    H2 3394   1.929   0.244   4.627
 1144TIP3   OH2 3395   4.557   2.858   0.044
 1144TIP3    H1 3396   4.585   2.933  -0.008
 1144TIP3    H2 3397   4.578   2.883   0.134
 1145TIP3   OH2 3398   3.232   2.243   0.047
 1145TIP3    H1 3399   3.240   2.326   0.001
 1145TIP3    H2 3400   3.149   2.206   0.017
 1146TIP3   OH2 3401   5.813   0.413   1.941
 1146TIP3    H1 3402   5.754   0.343   1.969
 1146TIP3    H2 3403   5.880   0.369   1.888
 1147TIP3   OH2 3404   1.911   5.362   4.269
 1147TIP3    H1 3405   1.992   5.337   4.226
 1147TIP3    H2 3406   1.907   5.308   4.348
 1148TIP3   OH2 3407   3.608   3.681   1.545
 1148TIP3    H1 3408   3.666   3.667   1.619
 1148TIP3    H2 3409   3.525   3.709   1.583
 1149TIP3   OH2 3410   1.635   3.576   3.418
 1149TIP3    H1 3411   1.595   3.601   3.334
 1149TIP3    H2 3412   1.632   3.480   3.419
 1150TIP3   OH2 3413   4.166   5.219   3.985
 1150TIP3    H1 3414   4.090   5.259   3.943
 1150TIP3    H2 3415   4.219   5.187   3.912
 1151TIP3   OH2 3416   2.101   2.541   0.140
 1151TIP3    H1 3417   2.153   2.555   0.219
 1151TIP3    H2 3418   2.124   2.452   0.112
 1152TIP3   OH2 3419   4.077   5.134   3.117
 1152TIP3    H1 3420   4.151   5.106   3.171
 1152TIP3    H2 3421   4.013   5.165   3.180
 1153TIP3   OH2 3422   0.528   3.344   1.708
 1153TIP3    H1 3423   0.502   3.253   1.695
 1153TIP3    H2 3424   0.623   3.340   1.720
 1154TIP3   OH2 3425   6.510   0.507   1.689
 1154TIP3    H1 3426   6.437   0.545   1.640
 1154TIP3    H2 3427   6.480   0.509   1.780
 1155TIP3   OH2 3428   2.803   4.264   0.816
 1155TIP3    H1 3429   2.740   4.317   0.767
 1155TIP3    H2 3430   2.751   4.223   0.884
 1156TIP3   OH2 3431   6.850   3.478   1.393
 1156TIP3    H1 3432   6.812   3.522   1.469
 1156TIP3    H2 3433   6.774   3.447   1.343
 1157TIP3   OH2 3434   1.583   1.026   1.797
 1157TIP3    H1 3435   1.628   0.995   1.718
 1157TIP3    H2 3436   1.634   1.102   1.825
 1158TIP3   OH2 3437   0.938   0.248   3.562
 1158TIP3    H1 3438   0.998   0.228   3.633
 1158TIP3    H2 3439   0.975   0.204   3.485
 1159TIP3   OH2 3440   2.674   5.352   1.593
 1159TIP3    H1 3441   2.584   5.355   1.559
 1159TIP3    H2 3442   2.721   5.295   1.532
 1160TIP3   OH2 3443   1.416   6.218   3.360
 1160TIP3    H1 3444   1.390   6.292   3.416
 1160TIP3    H2 3445   1.413   6.253   3.271
 1161TIP3   OH2 3446   4.515   2.177   3.395
 1161TIP3    H1 3447   4.432   2.174   3.443
 1161TIP3    H2 3448   4.548   2.266   3.408
 1162TIP3   OH2 3449   0.295   1.794   3.966
 1162TIP3    H1 3450   0.367   1.742   3.930
 1162TIP3    H2 3451   0.216   1.748   3.937
 1163TIP3   OH2 3452   3.225   5.991   3.278
 1163TIP3    H1 3453   3.197   6.055   3.343
 1163TIP3    H2 3454   3.317   6.010   3.262
 1164TIP3   OH2 3455   3.644   5.001   4.581
 1164TIP3    H1 3456   3.657   5.054   4.659
 1164TIP3    H2 3457   3.567   5.039   4.539
 1165TIP3   OH2 3458   2.484   3.101   0.500
 1165TIP3    H1 3459   2.561   3.045   0.492
 1165TIP3    H2 3460   2.511   3.185   0.463
 1166TIP3   OH2 3461   0.272   6.317   0.413
 1166TIP3    H1 3462   0.351   6.359   0.446
 1166TIP3    H2 3463   0.249   6.366   0.334
 1167TIP3   OH2 3464   2.244   1.801   0.486
 1167TIP3    H1 3465   2.246   1.741   0.411
 1167TIP3    H2 3466   2.198   1.752   0.554
 1168TIP3   OH2 3467   6.953   3.570   4.924
 1168TIP3    H1 3468   6.985   3.628   4.854
 1168TIP3    H2 3469   6.858   3.579   4.921
 1169TIP3   OH2 3470   3.738   1.107   4.794
 1169TIP3    H1 3471   3.706   1.195   4.816
 1169TIP3    H2 3472   3.762   1.113   4.701
 1170TIP3   OH2 3473   6.498   5.860   1.465
 1170TIP3    H1 3474   6.446   5.931   1.502
 1170TIP3    H2 3475   6.495   5.875   1.370
 1171TIP3   OH2 3476   5.092   6.751   1.181
 1171TIP3    H1 3477   5.155   6.690   1.219
 1171TIP3    H2 3478   5.144   6.805   1.122
 1172TIP3   OH2 3479   4.999   0.531   2.892
 1172TIP3    H1 3480   5.070   0.592   2.876
 1172TIP3    H2 3481   4.990   0.482   2.810
 1173TIP3   OH2 3482   1.487   3.915   2.454
 1173TIP3    H1 3483   1.489   3.853   2.381
 1173TIP3    H2 3484   1.532   3.993   2.421
 1174TIP3   OH2 3485   6.228   0.696   5.119
 1174TIP3    H1 3486   6.259   0.749   5.045
 1174TIP3    H2 3487   6.290   0.716   5.190
 1175TIP3   OH2 3488   6.660   6.509   3.549
 1175TIP3    H1 3489   6.661   6.573   3.478
 1175TIP3    H2 3490   6.707   6.433   3.513
 1176TIP3   OH2 3491   4.597   3.068   5.445
 1176TIP3    H1 3492   4.511   3.033   5.468
 1176TIP3    H2 3493   4.586   3.163   5.449
 1177TIP3   OH2 3494   0.266   2.141   4.761
 1177TIP3    H1 3495   0.291   2.232   4.744
 1177TIP3    H2 3496   0.338   2.106   4.814
 1178TIP3   OH2 3497   5.288   2.168   2.911
 1178TIP3    H1 3498   5.199   2.201   2.922
 1178TIP3    H2 3499   5.339   2.245   2.888
 1179TIP3   OH2 3500   2.503   3.967   2.797
 1179TIP3    H1 3501   2.467   4.003   2.717
 1179TIP3    H2 3502   2.432   3.974   2.861
 1180TIP3   OH2 3503   6.084   4.443   0.656
 1180TIP3    H1 3504   6.027   4.514   0.628
 1180TIP3    H2 3505   6.071   4.437   0.750
 1181TIP3   OH2 3506   5.026   1.664   1.137
 1181TIP3    H1 3507   4.943   1.626   1.110
 1181TIP3    H2 3508   5.011   1.696   1.226
 1182TIP3   OH2 3509   0.933   4.234   0.800
 1182TIP3    H1 3510   0.990   4.160   0.778
 1182TIP3    H2 3511   0.859   4.194   0.845
 1183TIP3   OH2 3512   2.410   3.710   0.746
 1183TIP3    H1 3513   2.472   3.732   0.677
 1183TIP3    H2 3514   2.375   3.625   0.722
 1184TIP3   OH2 3515   2.478   1.007   1.531
 1184TIP3    H1 3516   2.520   0.926   1.560
 1184TIP3    H2 3517   2.385   0.985   1.525
 1185TIP3   OH2 3518   6.094   3.126   2.389
 1185TIP3    H1 3519   6.108   3.167   2.304
 1185TIP3    H2 3520   6.106   3.198   2.452
 1186TIP3   OH2 3521   6.646   5.390   0.574
 1186TIP3    H1 3522   6.598   5.386   0.491
 1186TIP3    H2 3523   6.708   5.462   0.561
 1187TIP3   OH2 3524   5.306   5.279   0.484
 1187TIP3    H1 3525   5.351   5.249   0.563
 1187TIP3    H2 3526   5.365   5.343   0.445
 1188TIP3   OH2 3527   5.740   3.670   2.761
 1188TIP3    H1 3528   5.694   3.740   2.807
 1188TIP3    H2 3529   5.677   3.638   2.696
 1189TIP3   OH2 3530   5.700   0.598   0.518
 1189TIP3    H1 3531   5.653   0.551   0.587
 1189TIP3    H2 3532   5.761   0.534   0.482
 1190TIP3   OH2 3533   1.765   0.346   1.957
 1190TIP3    H1 3534   1.826   0.302   1.898
 1190TIP3    H2 3535   1.684   0.295   1.950
 1191TIP3   OH2 3536   4.284   1.011   4.204
 1191TIP3    H1 3537   4.249   1.100   4.209
 1191TIP3    H2 3538   4.372   1.021   4.169
 1192TIP3   OH2 3539   6.099   5.091   1.704
 1192TIP3    H1 3540   6.045   5.155   1.658
 1192TIP3    H2 3541   6.182   5.090   1.656
 1193TIP3   OH2 3542   6.970   4.607   2.933
 1193TIP3    H1 3543   7.064   4.601   2.916
 1193TIP3    H2 3544   6.943   4.687   2.887
 1194TIP3   OH2 3545   3.345   3.008   2.128
 1194TIP3    H1 3546   3.396   2.969   2.057
 1194TIP3    H2 3547   3.390   3.090   2.148
 1195TIP3   OH2 3548   4.716   6.586   3.279
 1195TIP3    H1 3549   4.665   6.546   3.349
 1195TIP3    H2 3550   4.662   6.659   3.248
 1196TIP3   OH2 3551   6.653   4.580   3.321
 1196TIP3    H1 3552   6.670   4.662   3.275
 1196TIP3    H2 3553   6.735   4.560   3.367
 1197TIP3   OH2 3554   6.413   6.730   3.908
 1197TIP3    H1 3555   6.430   6.655   3.852
 1197TIP3    H2 3556   6.478   6.795   3.882
 1198TIP3   OH2 3557   4.488   6.229   2.584
 1198TIP3    H1 3558   4.420   6.234   2.651
 1198TIP3    H2 3559   4.532   6.314   2.589
 1199TIP3   OH2 3560   5.843   5.510   2.328
 1199TIP3    H1 3561   5.802   5.489   2.244
 1199TIP3    H2 3562   5.817   5.601   2.345
 1200TIP3   OH2 3563   1.554   1.435   2.714
 1200TIP3    H1 3564   1.629   1.430   2.655
 1200TIP3    H2 3565   1.504   1.356   2.695
 1201TIP3   OH2 3566   3.614   4.805   3.599
 1201TIP3    H1 3567   3.631   4.742   3.529
 1201TIP3    H2 3568   3.527   4.783   3.630
 1202TIP3   OH2 3569   6.946   1.777   0.699
 1202TIP3    H1 3570   6.920   1.802   0.610
 1202TIP3    H2 3571   6.964   1.683   0.693
 1203TIP3   OH2 3572   4.442  -0.020   4.656
 1203TIP3    H1 3573   4.419   0.008   4.745
 1203TIP3    H2 3574   4.536  -0.038   4.660
 1204TIP3   OH2 3575   5.680   4.147   3.381
 1204TIP3    H1 3576   5.734   4.194   3.445
 1204TIP3    H2 3577   5.637   4.078   3.432
 1205TIP3   OH2 3578   2.726   6.662   0.147
 1205TIP3    H1 3579   2.702   6.663   0.054
 1205TIP3    H2 3580   2.816   6.692   0.149
 1206TIP3   OH2 3581   3.852   1.817   4.197
 1206TIP3    H1 3582   3.848   1.722   4.200
 1206TIP3    H2 3583   3.891   1.842   4.281
 1207TIP3   OH2 3584   4.355   2.982   4.643
 1207TIP3    H1 3585   4.266   2.967   4.613
 1207TIP3    H2 3586   4.382   2.899   4.682
 1208TIP3   OH2 3587   5.570   2.059   2.086
 1208TIP3    H1 3588   5.621   2.029   2.162
 1208TIP3    H2 3589   5.635   2.072   2.017
 1209TIP3   OH2 3590   4.831   4.530   2.758
 1209TIP3    H1 3591   4.745   4.568   2.775
 1209TIP3    H2 3592   4.868   4.515   2.844
 1210TIP3   OH2 3593   2.113   6.557   2.046
 1210TIP3    H1 3594   2.077   6.537   1.960
 1210TIP3    H2 3595   2.042   6.603   2.091
 1211TIP3   OH2 3596   2.378   1.589   3.030
 1211TIP3    H1 3597   2.351   1.656   2.968
 1211TIP3    H2 3598   2.387   1.509   2.978
 1212TIP3   OH2 3599   0.743   5.743   1.106
 1212TIP3    H1 3600   0.775   5.786   1.027
 1212TIP3    H2 3601   0.729   5.652   1.081
 1213TIP3   OH2 3602   6.745   6.680   5.223
 1213TIP3    H1 3603   6.803   6.604   5.227
 1213TIP3    H2 3604   6.696   6.669   5.142
 1214TIP3   OH2 3605   4.286   0.141   1.790
 1214TIP3    H1 3606   4.332   0.145   1.706
 1214TIP3    H2 3607   4.240   0.225   1.796
 1215TIP3   OH2 3608   5.076   4.251   1.148
 1215TIP3    H1 3609   5.172   4.250   1.155
 1215TIP3    H2 3610   5.050   4.323   1.205
 1216TIP3   OH2 3611   2.496   0.967   2.196
 1216TIP3    H1 3612   2.401   0.981   2.201
 1216TIP3    H2 3613   2.521   0.999   2.110
 1217TIP3   OH2 3614   5.957   1.124   0.835
 1217TIP3    H1 3615   5.877   1.175   0.832
 1217TIP3    H2 3616   5.978   1.106   0.744
 1218TIP3   OH2 3617   4.366   6.388   2.918
 1218TIP3    H1 3618   4.369   6.292   2.924
 1218TIP3    H2 3619   4.292   6.406   2.859
 1219TIP3   OH2 3620   4.050   1.683   3.707
 1219TIP3    H1 3621   4.100   1.620   3.760
 1219TIP3    H2 3622   4.091   1.679   3.621
 1220TIP3   OH2 3623   4.970   1.207   1.706
 1220TIP3    H1 3624   4.989   1.115   1.686
 1220TIP3    H2 3625   5.021   1.225   1.785
 1221TIP3   OH2 3626   4.417   1.378   4.827
 1221TIP3    H1 3627   4.466   1.301   4.797
 1221TIP3    H2 3628   4.418   1.438   4.752
 1222TIP3   OH2 3629   4.834   4.110   3.950
 1222TIP3    H1 3630   4.928   4.092   3.946
 1222TIP3    H2 3631   4.793   4.025   3.930
 1223TIP3   OH2 3632   2.971   3.594   0.109
 1223TIP3    H1 3633   2.999   3.680   0.140
 1223TIP3    H2 3634   3.052   3.546   0.093
 1224TIP3   OH2 3635   5.935   2.267   3.540
 1224TIP3    H1 3636   5.949   2.309   3.455
 1224TIP3    H2 3637   5.946   2.338   3.604
 1225TIP3   OH2 3638   6.278   6.722   3.264
 1225TIP3    H1 3639   6.329   6.695   3.188
 1225TIP3    H2 3640   6.295   6.655   3.330
 1226TIP3   OH2 3641   4.953   5.373   5.284
 1226TIP3    H1 3642   5.023   5.355   5.347
 1226TIP3    H2 3643   4.998   5.385   5.201
 1227TIP3   OH2 3644   3.526   1.280   5.612
 1227TIP3    H1 3645   3.566   1.311   5.694
 1227TIP3    H2 3646   3.458   1.345   5.593
 1228TIP3   OH2 3647   6.209   6.181   4.394
 1228TIP3    H1 3648   6.217   6.253   4.332
 1228TIP3    H2 3649   6.150   6.119   4.351
 1229TIP3   OH2 3650   6.860   0.292   1.244
 1229TIP3    H1 3651   6.788   0.246   1.286
 1229TIP3    H2 3652   6.895   0.350   1.311
 1230TIP3   OH2 3653   4.963   1.993   4.975
 1230TIP3    H1 3654   4.924   1.979   5.061
 1230TIP3    H2 3655   5.046   2.038   4.994
 1231TIP3   OH2 3656   4.019   3.302   2.425
 1231TIP3    H1 3657   3.984   3.317   2.513
 1231TIP3    H2 3658   3.949   3.258   2.378
 1232TIP3   OH2 3659   1.535   3.851   0.161
 1232TIP3    H1 3660   1.467   3.824   0.099
 1232TIP3    H2 3661   1.604   3.887   0.106
 1233TIP3   OH2 3662   5.454   4.249   2.423
 1233TIP3    H1 3663   5.531   4.193   2.413
 1233TIP3    H2 3664   5.380   4.190   2.408
 1234TIP3   OH2 3665   4.379   6.744   4.090
 1234TIP3    H1 3666   4.436   6.812   4.055
 1234TIP3    H2 3667   4.431   6.664   4.084
 1235TIP3   OH2 3668   1.085   0.103   2.332
 1235TIP3    H1 3669   1.156   0.113   2.396
 1235TIP3    H2 3670   1.067   0.192   2.302
 1236TIP3   OH2 3671   0.145   1.860   1.987
 1236TIP3    H1 3672   0.154   1.955   1.978
 1236TIP3    H2 3673   0.052   1.843   1.976
 1237TIP3   OH2 3674   0.719   5.982   5.777
 1237TIP3    H1 3675   0.751   6.046   5.840
 1237TIP3    H2 3676   0.624   5.995   5.774
 1238TIP3   OH2 3677   1.778   2.261   1.293
 1238TIP3    H1 3678   1.855   2.303   1.332
 1238TIP3    H2 3679   1.705   2.288   1.348
 1239TIP3   OH2 3680   4.590   4.477   3.115
 1239TIP3    H1 3681   4.603   4.563   3.155
 1239TIP3    H2 3682   4.577   4.497   3.022
 1240TIP3   OH2 3683   2.300   3.414   5.107
 1240TIP3    H1 3684   2.223   3.374   5.148
 1240TIP3    H2 3685   2.371   3.352   5.124
 1241TIP3   OH2 3686   1.481   0.601   2.606
 1241TIP3    H1 3687   1.393   0.587   2.572
 1241TIP3    H2 3688   1.526   0.649   2.537
 1242TIP3   OH2 3689   4.893   4.614   3.575
 1242TIP3    H1 3690   4.800   4.611   3.553
 1242TIP3    H2 3691   4.911   4.707   3.592
 1243TIP3   OH2 3692   4.900   3.066   3.369
 1243TIP3    H1 3693   4.861   3.070   3.281
 1243TIP3    H2 3694   4.973   3.005   3.360
 1244TIP3   OH2 3695   6.776   6.489   3.795
 1244TIP3    H1 3696   6.854   6.464   3.746
 1244TIP3    H2 3697   6.707   6.495   3.729
 1245TIP3   OH2 3698   4.272   0.985   2.266
 1245TIP3    H1 3699   4.185   1.019   2.287
 1245TIP3    H2 3700   4.299   0.937   2.344
 1246TIP3   OH2 3701   0.971   3.599   3.206
 1246TIP3    H1 3702   1.061   3.603   3.174
 1246TIP3    H2 3703   0.931   3.526   3.158
 1247TIP3   OH2 3704   1.120   3.720   4.883
 1247TIP3    H1 3705   1.027   3.701   4.873
 1247TIP3    H2 3706   1.164   3.653   4.831
 1248TIP3   OH2 3707   0.498   1.666   3.840
 1248TIP3    H1 3708   0.582   1.671   3.885
 1248TIP3    H2 3709   0.505   1.729   3.769
 1249TIP3   OH2 3710   0.238   2.905   4.419
 1249TIP3    H1 3711   0.155   2.943   4.449
 1249TIP3    H2 3712   0.291   2.898   4.498
 1250TIP3   OH2 3713   3.582   3.512   0.713
 1250TIP3    H1 3714   3.571   3.578   0.645
 1250TIP3    H2 3715   3.492   3.490   0.739
 1251TIP3   OH2 3716   4.463   1.836   1.444
 1251TIP3    H1 3717   4.548   1.865   1.412
 1251TIP3    H2 3718   4.400   1.884   1.390
 1252TIP3   OH2 3719   0.706   0.301   3.778
 1252TIP3    H1 3720   0.645   0.375   3.778
 1252TIP3    H2 3721   0.748   0.305   3.863
 1253TIP3   OH2 3722   4.019   6.260   1.282
 1253TIP3    H1 3723   4.073   6.330   1.320
 1253TIP3    H2 3724   4.011   6.282   1.190
 1254TIP3   OH2 3725   2.565   6.048   4.835
 1254TIP3    H1 3726   2.592   6.125   4.885
 1254TIP3    H2 3727   2.473   6.065   4.812
 1255TIP3   OH2 3728   4.037   0.333   3.636
 1255TIP3    H1 3729   4.057   0.275   3.563
 1255TIP3    H2 3730   3.941   0.331   3.642
 1256TIP3   OH2 3731   1.231   4.848   0.586
 1256TIP3    H1 3732   1.224   4.919   0.522
 1256TIP3    H2 3733   1.267   4.890   0.664
 1257TIP3   OH2 3734   0.987   3.038   4.294
 1257TIP3    H1 3735   0.968   3.109   4.356
 1257TIP3    H2 3736   0.924   2.970   4.316
 1258TIP3   OH2 3737   0.530   6.309   4.590
 1258TIP3    H1 3738   0.595   6.372   4.559
 1258TIP3    H2 3739   0.571   6.269   4.667
 1259TIP3   OH2 3740   5.305   2.153   4.472
 1259TIP3    H1 3741   5.323   2.059   4.463
 1259TIP3    H2 3742   5.349   2.179   4.553
 1260TIP3   OH2 3743   4.989   2.411   3.584
 1260TIP3    H1 3744   4.943   2.376   3.661
 1260TIP3    H2 3745   5.078   2.378   3.591
 1261TIP3   OH2 3746   4.464   6.491   5.782
 1261TIP3    H1 3747   4.420   6.447   5.855
 1261TIP3    H2 3748   4.524   6.425   5.747
 1262TIP3   OH2 3749   2.161   0.739   2.693
 1262TIP3    H1 3750   2.167   0.666   2.755
 1262TIP3    H2 3751   2.111   0.806   2.740
 1263TIP3   OH2 3752   2.918   4.208   1.236
 1263TIP3    H1 3753   2.964   4.156   1.302
 1263TIP3    H2 3754   2.906   4.294   1.277
 1264TIP3   OH2 3755   5.840   5.584   5.688
 1264TIP3    H1 3756   5.863   5.533   5.766
 1264TIP3    H2 3757   5.924   5.613   5.653
 1265TIP3   OH2 3758   0.180   0.284   2.859
 1265TIP3    H1 3759   0.163   0.379   2.859
 1265TIP3    H2 3760   0.256   0.273   2.803
 1266TIP3   OH2 3761   3.517   4.239   2.680
 1266TIP3    H1 3762   3.473   4.173   2.734
 1266TIP3    H2 3763   3.451   4.307   2.668
 1267TIP3   OH2 3764   4.221   0.740   1.701
 1267TIP3    H1 3765   4.235   0.645   1.705
 1267TIP3    H2 3766   4.308   0.777   1.717
 1268TIP3   OH2 3767   0.278   0.243   4.040
 1268TIP3    H1 3768   0.276   0.227   3.945
 1268TIP3    H2 3769   0.322   0.167   4.076
 1269TIP3   OH2 3770   1.467   5.395   5.211
 1269TIP3    H1 3771   1.511   5.355   5.137
 1269TIP3    H2 3772   1.407   5.459   5.172
 1270TIP3   OH2 3773   0.845   3.655   3.469
 1270TIP3    H1 3774   0.877   3.662   3.379
 1270TIP3    H2 3775   0.797   3.736   3.484
 1271TIP3   OH2 3776   0.828   1.241   0.402
 1271TIP3    H1 3777   0.827   1.178   0.330
 1271TIP3    H2 3778   0.864   1.321   0.363
 1272TIP3   OH2 3779   0.512   5.451   5.302
 1272TIP3    H1 3780   0.501   5.497   5.385
 1272TIP3    H2 3781   0.423   5.436   5.271
 1273TIP3   OH2 3782   0.541   1.140   5.834
 1273TIP3    H1 3783   0.573   1.179   5.915
 1273TIP3    H2 3784   0.453   1.176   5.823
 1274TIP3   OH2 3785   2.229   5.043   3.090
 1274TIP3    H1 3786   2.181   5.117   3.126
 1274TIP3    H2 3787   2.305   5.081   3.047
 1275TIP3   OH2 3788   3.084   1.974   1.534
 1275TIP3    H1 3789   3.098   2.066   1.512
 1275TIP3    H2 3790   3.082   1.973   1.630
 1276TIP3   OH2 3791   2.620   4.186   4.753
 1276TIP3    H1 3792   2.530   4.195   4.723
 1276TIP3    H2 3793   2.612   4.155   4.843
 1277TIP3   OH2 3794   2.438   6.202   5.537
 1277TIP3    H1 3795   2.435   6.158   5.452
 1277TIP3    H2 3796   2.468   6.291   5.517
 1278TIP3   OH2 3797   5.694   4.886   4.531
 1278TIP3    H1 3798   5.755   4.894   4.604
 1278TIP3    H2 3799   5.705   4.967   4.481
 1279TIP3   OH2 3800   4.227   2.095   2.042
 1279TIP3    H1 3801   4.159   2.158   2.020
 1279TIP3    H2 3802   4.308   2.145   2.041
 1280TIP3   OH2 3803   4.949   6.727   3.842
 1280TIP3    H1 3804   4.877   6.695   3.897
 1280TIP3    H2 3805   4.931   6.689   3.756
 1281TIP3   OH2 3806   2.058   4.802   5.696
 1281TIP3    H1 3807   2.086   4.738   5.761
 1281TIP3    H2 3808   1.963   4.810   5.709
 1282TIP3   OH2 3809   2.851   2.199   1.029
 1282TIP3    H1 3810   2.823   2.116   1.067
 1282TIP3    H2 3811   2.837   2.189   0.935
 1283TIP3   OH2 3812   3.015   3.274   4.523
 1283TIP3    H1 3813   3.005   3.189   4.566
 1283TIP3    H2 3814   2.928   3.293   4.488
 1284TIP3   OH2 3815   2.117   4.206   3.154
 1284TIP3    H1 3816   2.051   4.217   3.086
 1284TIP3    H2 3817   2.080   4.141   3.214
 1285TIP3   OH2 3818   1.399   0.569   3.193
 1285TIP3    H1 3819   1.469   0.568   3.258
 1285TIP3    H2 3820   1.397   0.659   3.162
 1286TIP3   OH2 3821   1.857   5.742   5.532
 1286TIP3    H1 3822   1.790   5.736   5.599
 1286TIP3    H2 3823   1.924   5.680   5.560
 1287TIP3   OH2 3824   4.043   5.841   2.182
 1287TIP3    H1 3825   3.976   5.823   2.116
 1287TIP3    H2 3826   4.121   5.797   2.150
 1288TIP3   OH2 3827   4.323   6.131   2.792
 1288TIP3    H1 3828   4.384   6.068   2.752
 1288TIP3    H2 3829   4.251   6.138   2.729
 1289TIP3   OH2 3830   4.271   5.725   2.083
 1289TIP3    H1 3831   4.293   5.743   2.174
 1289TIP3    H2 3832   4.338   5.663   2.053
 1290TIP3   OH2 3833   3.085   3.286   1.137
 1290TIP3    H1 3834   3.112   3.277   1.228
 1290TIP3    H2 3835   2.989   3.284   1.140
 1291TIP3   OH2 3836   1.174   5.229   3.138
 1291TIP3    H1 3837   1.141   5.157   3.084
 1291TIP3    H2 3838   1.268   5.212   3.146
 1292TIP3   OH2 3839   1.412   1.003   1.199
 1292TIP3    H1 3840   1.382   0.990   1.289
 1292TIP3    H2 3841   1.331   1.011   1.148
 1293TIP3   OH2 3842   3.377   4.490   2.402
 1293TIP3    H1 3843   3.367   4.397   2.383
 1293TIP3    H2 3844   3.300   4.512   2.454
 1294TIP3   OH2 3845   5.254   2.562   5.830
 1294TIP3    H1 3846   5.217   2.650   5.829
 1294TIP3    H2 3847   5.257   2.538   5.922
 1295TIP3   OH2 3848   3.245   6.244   1.105
 1295TIP3    H1 3849   3.277   6.320   1.056
 1295TIP3    H2 3850   3.318   6.181   1.101
 1296TIP3   OH2 3851   6.190   3.497   2.920
 1296TIP3    H1 3852   6.099   3.494   2.890
 1296TIP3    H2 3853   6.207   3.590   2.936
 1297TIP3   OH2 3854   4.229   3.374   4.289
 1297TIP3    H1 3855   4.195   3.454   4.248
 1297TIP3    H2 3856   4.154   3.338   4.336
 1298TIP3   OH2 3857   4.692   2.718   3.961
 1298TIP3    H1 3858   4.652   2.634   3.986
 1298TIP3    H2 3859   4.695   2.715   3.865
 1299TIP3   OH2 3860   2.614   4.230   0.458
 1299TIP3    H1 3861   2.663   4.259   0.382
 1299TIP3    H2 3862   2.679   4.189   0.515
 1300TIP3   OH2 3863   1.987   3.856   5.013
 1300TIP3    H1 3864   2.070   3.807   5.015
 1300TIP3    H2 3865   1.966   3.864   4.920
 1301TIP3   OH2 3866   6.737   0.649   5.356
 1301TIP3    H1 3867   6.695   0.614   5.278
 1301TIP3    H2 3868   6.682   0.618   5.428
 1302TIP3   OH2 3869   3.653   1.300   0.227
 1302TIP3    H1 3870   3.619   1.227   0.175
 1302TIP3    H2 3871   3.579   1.328   0.280
 1303TIP3   OH2 3872   5.219   1.921   5.212
 1303TIP3    H1 3873   5.233   1.967   5.294
 1303TIP3    H2 3874   5.207   1.991   5.147
 1304TIP3   OH2 3875   2.835   2.193   1.392
 1304TIP3    H1 3876   2.767   2.206   1.458
 1304TIP3    H2 3877   2.842   2.277   1.347
 1305TIP3   OH2 3878   0.992   4.077   2.534
 1305TIP3    H1 3879   0.941   4.046   2.609
 1305TIP3    H2 3880   0.929   4.126   2.481
 1306TIP3   OH2 3881   5.773   3.160   3.915
 1306TIP3    H1 3882   5.783   3.095   3.985
 1306TIP3    H2 3883   5.766   3.109   3.835
 1307TIP3   OH2 3884   0.651   6.094   0.583
 1307TIP3    H1 3885   0.720   6.028   0.580
 1307TIP3    H2 3886   0.587   6.066   0.517
 1308TIP3   OH2 3887   5.969   2.060   3.212
 1308TIP3    H1 3888   5.993   1.968   3.225
 1308TIP3    H2 3889   6.035   2.109   3.261
 1309TIP3   OH2 3890   3.574   0.660   4.028
 1309TIP3    H1 3891   3.666   0.681   4.047
 1309TIP3    H2 3892   3.546   0.607   4.102
 1310TIP3   OH2 3893   5.620   6.442   4.638
 1310TIP3    H1 3894   5.672   6.403   4.709
 1310TIP3    H2 3895   5.552   6.492   4.683
 1311TIP3   OH2 3896   7.064   0.950   5.122
 1311TIP3    H1 3897   7.066   1.045   5.127
 1311TIP3    H2 3898   6.991   0.925   5.179
 1312TIP3   OH2 3899   2.498   3.719   4.146
 1312TIP3    H1 3900   2.544   3.796   4.114
 1312TIP3    H2 3901   2.567   3.663   4.182
 1313TIP3   OH2 3902   6.874   1.875   0.465
 1313TIP3    H1 3903   6.815   1.890   0.391
 1313TIP3    H2 3904   6.902   1.963   0.492
 1314TIP3   OH2 3905   1.149   5.393   0.183
 1314TIP3    H1 3906   1.086   5.325   0.158
 1314TIP3    H2 3907   1.218   5.387   0.117
 1315TIP3   OH2 3908   6.438   4.853   4.976
 1315TIP3    H1 3909   6.434   4.858   5.071
 1315TIP3    H2 3910   6.346   4.846   4.948
 1316TIP3   OH2 3911   1.685   4.509   1.396
 1316TIP3    H1 3912   1.725   4.531   1.480
 1316TIP3    H2 3913   1.673   4.593   1.352
 1317TIP3   OH2 3914   5.281   3.424   1.909
 1317TIP3    H1 3915   5.370   3.458   1.905
 1317TIP3    H2 3916   5.272   3.369   1.831
 1318TIP3   OH2 3917   6.640   0.105   1.959
 1318TIP3    H1 3918   6.670   0.037   2.019
 1318TIP3    H2 3919   6.687   0.088   1.877
 1319TIP3   OH2 3920   2.662   0.068   3.578
 1319TIP3    H1 3921   2.631  -0.007   3.527
 1319TIP3    H2 3922   2.741   0.097   3.533
 1320TIP3   OH2 3923   2.339   4.543   0.534
 1320TIP3    H1 3924   2.264   4.602   0.537
 1320TIP3    H2 3925   2.308   4.463   0.578
 1321TIP3   OH2 3926   4.060   4.785   0.035
 1321TIP3    H1 3927   4.039   4.719  -0.031
 1321TIP3    H2 3928   4.152   4.769   0.056
 1322TIP3   OH2 3929   5.093   4.466   0.724
 1322TIP3    H1 3930   5.096   4.469   0.628
 1322TIP3    H2 3931   5.002   4.444   0.744
 1323TIP3   OH2 3932   4.178   2.150   5.099
 1323TIP3    H1 3933   4.270   2.177   5.109
 1323TIP3    H2 3934   4.128   2.228   5.124
 1324TIP3   OH2 3935   6.720   2.623   5.750
 1324TIP3    H1 3936   6.717   2.542   5.699
 1324TIP3    H2 3937   6.705   2.594   5.840
 1325TIP3   OH2 3938   1.984   1.314   4.470
 1325TIP3    H1 3939   1.945   1.387   4.423
 1325TIP3    H2 3940   2.054   1.354   4.521
 1326TIP3   OH2 3941   7.184   4.788   3.569
 1326TIP3    H1 3942   7.277   4.811   3.564
 1326TIP3    H2 3943   7.161   4.762   3.480
 1327TIP3   OH2 3944   4.223   5.925   0.819
 1327TIP3    H1 3945   4.318   5.910   0.818
 1327TIP3    H2 3946   4.215   6.017   0.844
 1328TIP3   OH2 3947   6.510   0.572   5.542
 1328TIP3    H1 3948   6.441   0.547   5.481
 1328TIP3    H2 3949   6.512   0.503   5.607
 1329TIP3   OH2 3950   6.273   1.222   2.755
 1329TIP3    H1 3951   6.326   1.295   2.786
 1329TIP3    H2 3952   6.270   1.234   2.660
 1330TIP3   OH2 3953   2.521   6.809   3.902
 1330TIP3    H1 3954   2.552   6.821   3.812
 1330TIP3    H2 3955   2.601   6.808   3.955
 1331TIP3   OH2 3956   0.604   2.329   3.772
 1331TIP3    H1 3957   0.528   2.329   3.714
 1331TIP3    H2 3958   0.679   2.321   3.713
 1332TIP3   OH2 3959   1.372   2.796   0.133
 1332TIP3    H1 3960   1.358   2.891   0.127
 1332TIP3    H2 3961   1.373   2.778   0.227
 1333TIP3   OH2 3962   3.448   3.297   5.581
 1333TIP3    H1 3963   3.537   3.326   5.601
 1333TIP3    H2 3964   3.391   3.356   5.630
 1334TIP3   OH2 3965   3.057   2.051   4.554
 1334TIP3    H1 3966   3.063   2.039   4.459
 1334TIP3    H2 3967   3.148   2.046   4.584
 1335TIP3   OH2 3968   4.742   0.603   2.110
 1335TIP3    H1 3969   4.797   0.651   2.172
 1335TIP3    H2 3970   4.670   0.569   2.164
 1336TIP3   OH2 3971   0.083   5.364   5.790
 1336TIP3    H1 3972   0.134   5.402   5.718
 1336TIP3    H2 3973   0.137   5.380   5.867
 1337TIP3   OH2 3974   2.354   3.283   0.219
 1337TIP3    H1 3975   2.401   3.321   0.293
 1337TIP3    H2 3976   2.395   3.323   0.142
 1338TIP3   OH2 3977   2.322   4.098   0.502
 1338TIP3    H1 3978   2.365   4.137   0.426
 1338TIP3    H2 3979   2.295   4.173   0.556
 1339TIP3   OH2 3980   0.039   1.470   2.976
 1339TIP3    H1 3981   0.124   1.433   3.003
 1339TIP3    H2 3982   0.000   1.401   2.922
 1340TIP3   OH2 3983   2.439   4.873   2.108
 1340TIP3    H1 3984   2.524   4.906   2.081
 1340TIP3    H2 3985   2.409   4.821   2.033
 1341TIP3   OH2 3986   1.631   0.720   1.889
 1341TIP3    H1 3987   1.692   0.696   1.958
 1341TIP3    H2 3988   1.545   0.716   1.930
 1342TIP3   OH2 3989   3.881   3.018   2.204
 1342TIP3    H1 3990   3.823   3.092   2.221
 1342TIP3    H2 3991   3.859   2.955   2.273
 1343TIP3   OH2 3992   7.091   3.743   2.351
 1343TIP3    H1 3993   7.177   3.758   2.311
 1343TIP3    H2 3994   7.105   3.758   2.444
 1344TIP3   OH2 3995   5.895   0.169   0.216
 1344TIP3    H1 3996   5.977   0.166   0.167
 1344TIP3    H2 3997   5.871   0.077   0.227
 1345TIP3   OH2 3998   1.382   5.863   5.037
 1345TIP3    H1 3999   1.377   5.908   4.953
 1345TIP3    H2 4000   1.373   5.933   5.102
 1346TIP3   OH2 4001   6.949   0.605   0.487
 1346TIP3    H1 4002   6.894   0.616   0.410
 1346TIP3    H2 4003   7.032   0.647   0.464
 1347TIP3   OH2 4004   4.067   2.528   1.599
 1347TIP3    H1 4005   4.094   2.619   1.609
 1347TIP3    H2 4006   4.066   2.514   1.504
 1348TIP3   OH2 4007   2.204   1.291   2.478
 1348TIP3    H1 4008   2.121   1.260   2.441
 1348TIP3    H2 4009   2.270   1.230   2.445
 1349TIP3   OH2 4010   3.802   2.655   5.475
 1349TIP3    H1 4011   3.841   2.656   5.562
 1349TIP3    H2 4012   3.744   2.731   5.475
 1350TIP3   OH2 4013   4.306   4.437   3.975
 1350TIP3    H1 4014   4.378   4.489   4.009
 1350TIP3    H2 4015   4.308   4.451   3.881
 1351TIP3   OH2 4016   0.132   4.005   5.506
 1351TIP3    H1 4017   0.133   3.919   5.549
 1351TIP3    H2 4018   0.073   3.993   5.431
 1352TIP3   OH2 4019   3.569   1.424   3.071
 1352TIP3    H1 4020   3.640   1.452   3.014
 1352TIP3    H2 4021   3.603   1.437   3.160
 1353TIP3   OH2 4022   4.726   6.238   4.604
 1353TIP3    H1 4023   4.649   6.277   4.646
 1353TIP3    H2 4024   4.760   6.306   4.547
 1354TIP3   OH2 4025   1.326   1.818   2.732
 1354TIP3    H1 4026   1.249   1.763   2.716
 1354TIP3    H2 4027   1.297   1.907   2.713
 1355TIP3   OH2 4028   5.006   5.733   5.574
 1355TIP3    H1 4029   5.083   5.691   5.536
 1355TIP3    H2 4030   4.957   5.661   5.614
 1356TIP3   OH2 4031   1.192   2.166   1.357
 1356TIP3    H1 4032   1.192   2.243   1.413
 1356TIP3    H2 4033   1.281   2.132   1.362
 1357TIP3   OH2 4034   4.405   1.595   2.832
 1357TIP3    H1 4035   4.335   1.606   2.896
 1357TIP3    H2 4036   4.359   1.586   2.748
 1358TIP3   OH2 4037   4.531   1.861   2.844
 1358TIP3    H1 4038   4.587   1.909   2.783
 1358TIP3    H2 4039   4.522   1.774   2.806
 1359TIP3   OH2 4040   6.808   1.110   3.196
 1359TIP3    H1 4041   6.864   1.158   3.136
 1359TIP3    H2 4042   6.791   1.172   3.267
 1360TIP3   OH2 4043   1.445   2.016   0.282
 1360TIP3    H1 4044   1.445   2.107   0.311
 1360TIP3    H2 4045   1.398   2.016   0.199
 1361TIP3   OH2 4046   1.447   2.363   2.428
 1361TIP3    H1 4047   1.483   2.313   2.355
 1361TIP3    H2 4048   1.362   2.322   2.446
 1362TIP3   OH2 4049   4.837   6.678   2.421
 1362TIP3    H1 4050   4.826   6.765   2.460
 1362TIP3    H2 4051   4.874   6.625   2.491
 1363TIP3   OH2 4052   2.686   4.255   4.463
 1363TIP3    H1 4053   2.611   4.309   4.436
 1363TIP3    H2 4054   2.670   4.235   4.555
 1364TIP3   OH2 4055   4.319   4.802   0.878
 1364TIP3    H1 4056   4.249   4.854   0.919
 1364TIP3    H2 4057   4.399   4.828   0.925
 1365TIP3   OH2 4058   4.034   3.796   5.478
 1365TIP3    H1 4059   4.092   3.795   5.402
 1365TIP3    H2 4060   4.035   3.705   5.510
 1366TIP3   OH2 4061   3.765   0.210   0.829
 1366TIP3    H1 4062   3.774   0.193   0.735
 1366TIP3    H2 4063   3.744   0.125   0.866
 1367TIP3   OH2 4064   4.313   0.715   0.677
 1367TIP3    H1 4065   4.361   0.712   0.760
 1367TIP3    H2 4066   4.369   0.669   0.615
 1368TIP3   OH2 4067  -0.009   3.297   1.389
 1368TIP3    H1 4068  -0.065   3.225   1.419
 1368TIP3    H2 4069   0.080   3.260   1.392
 1369TIP3   OH2 4070   5.117   2.269   2.122
 1369TIP3    H1 4071   5.185   2.233   2.064
 1369TIP3    H2 4072   5.148   2.357   2.144
 1370TIP3   OH2 4073   6.476   0.654   0.234
 1370TIP3    H1 4074   6.498   0.741   0.201
 1370TIP3    H2 4075   6.389   0.636   0.199
 1371TIP3   OH2 4076   1.168   5.440   3.672
 1371TIP3    H1 4077   1.166   5.375   3.602
 1371TIP3    H2 4078   1.195   5.391   3.750
 1372TIP3   OH2 4079   0.841   2.284   2.134
 1372TIP3    H1 4080   0.919   2.340   2.140
 1372TIP3    H2 4081   0.865   2.216   2.070
 1373TIP3   OH2 4082   1.328   6.756   0.904
 1373TIP3    H1 4083   1.296   6.682   0.852
 1373TIP3    H2 4084   1.413   6.727   0.936
 1374TIP3   OH2 4085   6.729   5.951   4.882
 1374TIP3    H1 4086   6.638   5.955   4.908
 1374TIP3    H2 4087   6.727   5.946   4.786
 1375TIP3   OH2 4088   0.507   1.124   3.740
 1375TIP3    H1 4089   0.416   1.149   3.750
 1375TIP3    H2 4090   0.540   1.178   3.668
 1376TIP3   OH2 4091   0.787   5.410   3.128
 1376TIP3    H1 4092   0.816   5.373   3.045
 1376TIP3    H2 4093   0.865   5.452   3.165
 1377TIP3   OH2 4094   3.586   2.466   2.235
 1377TIP3    H1 4095   3.611   2.444   2.145
 1377TIP3    H2 4096   3.634   2.546   2.255
 1378TIP3   OH2 4097   3.330   5.510   0.827
 1378TIP3    H1 4098   3.318   5.581   0.765
 1378TIP3    H2 4099   3.334   5.431   0.773
 1379TIP3   OH2 4100   0.893   3.183   5.555
 1379TIP3    H1 4101   0.922   3.247   5.491
 1379TIP3    H2 4102   0.934   3.101   5.528
 1380TIP3   OH2 4103   1.041   2.496   2.779
 1380TIP3    H1 4104   0.973   2.456   2.833
 1380TIP3    H2 4105   1.077   2.566   2.834
 1381TIP3   OH2 4106   1.449   0.829   1.621
 1381TIP3    H1 4107   1.496   0.758   1.577
 1381TIP3    H2 4108   1.490   0.836   1.707
 1382TIP3   OH2 4109   5.170   1.174   2.650
 1382TIP3    H1 4110   5.257   1.159   2.614
 1382TIP3    H2 4111   5.185   1.192   2.742
 1383TIP3   OH2 4112   6.319   4.179   0.167
 1383TIP3    H1 4113   6.349   4.232   0.093
 1383TIP3    H2 4114   6.365   4.216   0.242
 1384TIP3   OH2 4115   3.167   0.679   1.742
 1384TIP3    H1 4116   3.188   0.771   1.758
 1384TIP3    H2 4117   3.090   0.663   1.797
 1385TIP3   OH2 4118   7.007   1.746   4.571
 1385TIP3    H1 4119   6.968   1.660   4.555
 1385TIP3    H2 4120   7.101   1.730   4.574
 1386TIP3   OH2 4121   4.535   1.699   2.516
 1386TIP3    H1 4122   4.608   1.647   2.551
 1386TIP3    H2 4123   4.471   1.634   2.488
 1387TIP3   OH2 4124   6.661   2.787   1.096
 1387TIP3    H1 4125   6.657   2.759   1.187
 1387TIP3    H2 4126   6.574   2.766   1.060
 1388TIP3   OH2 4127   1.285   0.609   5.488
 1388TIP3    H1 4128   1.217   0.547   5.515
 1388TIP3    H2 4129   1.328   0.567   5.413
 1389TIP3   OH2 4130   1.254   0.556   2.447
 1389TIP3    H1 4131   1.186   0.521   2.389
 1389TIP3    H2 4132   1.283   0.637   2.405
 1390TIP3   OH2 4133   6.056   4.446   5.573
 1390TIP3    H1 4134   6.039   4.373   5.633
 1390TIP3    H2 4135   6.104   4.509   5.626
 1391TIP3   OH2 4136   0.115   5.584   1.945
 1391TIP3    H1 4137   0.169   5.541   1.879
 1391TIP3    H2 4138   0.080   5.661   1.901
 1392TIP3   OH2 4139   4.087   3.155   0.739
 1392TIP3    H1 4140   4.172   3.110   0.740
 1392TIP3    H2 4141   4.100   3.230   0.680
 1393TIP3   OH2 4142   1.628   4.239   1.390
 1393TIP3    H1 4143   1.645   4.333   1.378
 1393TIP3    H2 4144   1.710   4.205   1.426
 1394TIP3   OH2 4145   5.787   1.342   5.673
 1394TIP3    H1 4146   5.832   1.341   5.757
 1394TIP3    H2 4147   5.727   1.416   5.679
 1395TIP3   OH2 4148   6.616   2.394   5.624
 1395TIP3    H1 4149   6.639   2.335   5.696
 1395TIP3    H2 4150   6.522   2.384   5.614
 1396TIP3   OH2 4151   2.036   2.122   3.787
 1396TIP3    H1 4152   1.996   2.061   3.849
 1396TIP3    H2 4153   2.037   2.206   3.832
 1397TIP3   OH2 4154   7.248   5.055   1.909
 1397TIP3    H1 4155   7.191   5.113   1.961
 1397TIP3    H2 4156   7.246   5.092   1.821
 1398TIP3   OH2 4157   3.312   6.678   1.596
 1398TIP3    H1 4158   3.376   6.749   1.590
 1398TIP3    H2 4159   3.325   6.627   1.516
 1399TIP3   OH2 4160   5.672   5.405   1.542
 1399TIP3    H1 4161   5.757   5.435   1.572
 1399TIP3    H2 4162   5.680   5.310   1.537
 1400TIP3   OH2 4163   6.087   5.582   1.415
 1400TIP3    H1 4164   6.012   5.618   1.463
 1400TIP3    H2 4165   6.156   5.573   1.480
 1401TIP3   OH2 4166   3.189   1.473   4.813
 1401TIP3    H1 4167   3.274   1.518   4.816
 1401TIP3    H2 4168   3.141   1.507   4.889
 1402TIP3   OH2 4169   4.353   4.147   4.597
 1402TIP3    H1 4170   4.366   4.241   4.608
 1402TIP3    H2 4171   4.401   4.126   4.516
 1403TIP3   OH2 4172   6.519   3.787   4.805
 1403TIP3    H1 4173   6.424   3.792   4.815
 1403TIP3    H2 4174   6.552   3.775   4.894
 1404TIP3   OH2 4175   0.239   3.620   2.071
 1404TIP3    H1 4176   0.234   3.524   2.062
 1404TIP3    H2 4177   0.333   3.639   2.071
 1405TIP3   OH2 4178   6.077   2.339   0.615
 1405TIP3    H1 4179   6.117   2.286   0.546
 1405TIP3    H2 4180   6.011   2.392   0.569
 1406TIP3   OH2 4181   5.438   4.748   4.507
 1406TIP3    H1 4182   5.504   4.818   4.510
 1406TIP3    H2 4183   5.488   4.668   4.522
 1407TIP3   OH2 4184   0.945   0.698   5.579
 1407TIP3    H1 4185   0.956   0.637   5.652
 1407TIP3    H2 4186   0.960   0.784   5.617
 1408TIP3   OH2 4187   4.773   3.120   4.149
 1408TIP3    H1 4188   4.700   3.154   4.201
 1408TIP3    H2 4189   4.785   3.185   4.080
 1409TIP3   OH2 4190   6.885   5.898   3.672
 1409TIP3    H1 4191   6.979   5.916   3.665
 1409TIP3    H2 4192   6.863   5.919   3.762
 1410TIP3   OH2 4193   0.973   4.000   3.465
 1410TIP3    H1 4194   0.894   3.957   3.500
 1410TIP3    H2 4195   0.954   4.093   3.469
 1411TIP3   OH2 4196   6.921   0.824   3.811
 1411TIP3    H1 4197   6.929   0.753   3.875
 1411TIP3    H2 4198   6.984   0.802   3.743
 1412TIP3   OH2 4199   1.815   1.999   5.768
 1412TIP3    H1 4200   1.758   2.032   5.699
 1412TIP3    H2 4201   1.901   2.038   5.749
 1413TIP3   OH2 4202   5.060   6.155   0.341
 1413TIP3    H1 4203   4.974   6.163   0.381
 1413TIP3    H2 4204   5.077   6.240   0.301
 1414TIP3   OH2 4205   0.316   0.550   2.005
 1414TIP3    H1 4206   0.352   0.631   1.968
 1414TIP3    H2 4207   0.223   0.570   2.019
 1415TIP3   OH2 4208   2.611   2.780   2.607
 1415TIP3    H1 4209   2.643   2.721   2.675
 1415TIP3    H2 4210   2.632   2.867   2.640
 1416TIP3   OH2 4211   5.024   0.485   1.959
 1416TIP3    H1 4212   5.109   0.529   1.952
 1416TIP3    H2 4213   5.006   0.455   1.870
 1417TIP3   OH2 4214   1.207   1.079   5.580
 1417TIP3    H1 4215   1.205   1.074   5.485
 1417TIP3    H2 4216   1.269   1.010   5.606
 1418TIP3   OH2 4217   3.241   5.351   5.503
 1418TIP3    H1 4218   3.227   5.257   5.502
 1418TIP3    H2 4219   3.309   5.366   5.437
 1419TIP3   OH2 4220   1.798   1.367   3.740
 1419TIP3    H1 4221   1.893   1.353   3.744
 1419TIP3    H2 4222   1.767   1.303   3.675
 1420TIP3   OH2 4223   6.713   6.033   1.670
 1420TIP3    H1 4224   6.666   6.084   1.604
 1420TIP3    H2 4225   6.653   5.962   1.693
 1421TIP3   OH2 4226   2.853   5.211   2.890
 1421TIP3    H1 4227   2.869   5.152   2.963
 1421TIP3    H2 4228   2.784   5.168   2.839
 1422TIP3   OH2 4229   2.564   4.531   5.225
 1422TIP3    H1 4230   2.527   4.619   5.213
 1422TIP3    H2 4231   2.657   4.542   5.204
 1423TIP3   OH2 4232   0.128   4.281   3.829
 1423TIP3    H1 4233   0.141   4.215   3.897
 1423TIP3    H2 4234   0.177   4.248   3.754
 1424TIP3   OH2 4235   4.026   2.790   1.776
 1424TIP3    H1 4236   4.029   2.849   1.701
 1424TIP3    H2 4237   4.044   2.847   1.851
 1425TIP3   OH2 4238   1.470   0.253   5.827
 1425TIP3    H1 4239   1.395   0.304   5.795
 1425TIP3    H2 4240   1.491   0.194   5.756
 1426TIP3   OH2 4241   0.096   1.802   4.450
 1426TIP3    H1 4242   0.155   1.766   4.383
 1426TIP3    H2 4243   0.022   1.837   4.400
 1427TIP3   OH2 4244   7.163   4.497   3.733
 1427TIP3    H1 4245   7.174   4.577   3.784
 1427TIP3    H2 4246   7.221   4.434   3.776
 1428TIP3   OH2 4247   4.386   2.448   5.778
 1428TIP3    H1 4248   4.411   2.374   5.724
 1428TIP3    H2 4249   4.347   2.511   5.717
 1429TIP3   OH2 4250   4.676   0.381   4.784
 1429TIP3    H1 4251   4.621   0.438   4.837
 1429TIP3    H2 4252   4.737   0.441   4.740
 1430TIP3   OH2 4253   0.967   2.212   2.371
 1430TIP3    H1 4254   0.904   2.190   2.440
 1430TIP3    H2 4255   0.913   2.243   2.298
 1431TIP3   OH2 4256   4.279   0.400   4.523
 1431TIP3    H1 4257   4.194   0.368   4.555
 1431TIP3    H2 4258   4.335   0.322   4.523
 1432TIP3   OH2 4259   1.741   0.339   0.219
 1432TIP3    H1 4260   1.774   0.274   0.281
 1432TIP3    H2 4261   1.820   0.379   0.181
 1433TIP3   OH2 4262   0.880   0.023   0.712
 1433TIP3    H1 4263   0.945  -0.015   0.771
 1433TIP3    H2 4264   0.810   0.053   0.770
 1434TIP3   OH2 4265   3.105   2.464   1.850
 1434TIP3    H1 4266   3.186   2.416   1.867
 1434TIP3    H2 4267   3.038   2.417   1.900
 1435TIP3   OH2 4268   4.902   2.321   0.677
 1435TIP3    H1 4269   4.813   2.287   0.678
 1435TIP3    H2 4270   4.936   2.297   0.591
 1436TIP3   OH2 4271   2.223   5.360   0.605
 1436TIP3    H1 4272   2.180   5.383   0.523
 1436TIP3    H2 4273   2.243   5.444   0.646
 1437TIP3   OH2 4274   5.681   6.596   3.220
 1437TIP3    H1 4275   5.753   6.575   3.279
 1437TIP3    H2 4276   5.681   6.525   3.156
 1438TIP3   OH2 4277   1.506   3.028   4.379
 1438TIP3    H1 4278   1.412   3.046   4.371
 1438TIP3    H2 4279   1.519   3.011   4.472
 1439TIP3   OH2 4280   3.478   3.266   5.321
 1439TIP3    H1 4281   3.450   3.269   5.412
 1439TIP3    H2 4282   3.476   3.173   5.299
 1440TIP3   OH2 4283   4.132   6.319   2.141
 1440TIP3    H1 4284   4.089   6.343   2.223
 1440TIP3    H2 4285   4.195   6.252   2.167
 1441TIP3   OH2 4286   3.978   5.807   3.050
 1441TIP3    H1 4287   3.899   5.753   3.052
 1441TIP3    H2 4288   3.948   5.892   3.017
 1442TIP3   OH2 4289   2.145   0.481   3.406
 1442TIP3    H1 4290   2.132   0.571   3.377
 1442TIP3    H2 4291   2.205   0.488   3.480
 1443TIP3   OH2 4292   0.455   3.839   5.627
 1443TIP3    H1 4293   0.411   3.758   5.601
 1443TIP3    H2 4294   0.502   3.817   5.707
 1444TIP3   OH2 4295   3.166   0.564   4.727
 1444TIP3    H1 4296   3.114   0.488   4.754
 1444TIP3    H2 4297   3.188   0.609   4.809
 1445TIP3   OH2 4298   4.752   1.231   4.287
 1445TIP3    H1 4299   4.823   1.267   4.232
 1445TIP3    H2 4300   4.724   1.305   4.341
 1446TIP3   OH2 4301   5.949   4.902   5.414
 1446TIP3    H1 4302   5.898   4.849   5.352
 1446TIP3    H2 4303   6.030   4.853   5.426
 1447TIP3   OH2 4304   5.020   5.165   5.745
 1447TIP3    H1 4305   5.108   5.131   5.756
 1447TIP3    H2 4306   5.002   5.154   5.651
 1448TIP3   OH2 4307   4.615   1.129   4.979
 1448TIP3    H1 4308   4.708   1.110   4.984
 1448TIP3    H2 4309   4.601   1.159   4.889
 1449TIP3   OH2 4310   1.544   2.718   5.089
 1449TIP3    H1 4311   1.539   2.624   5.076
 1449TIP3    H2 4312   1.609   2.730   5.159
 1450TIP3   OH2 4313   4.220   3.490   2.371
 1450TIP3    H1 4314   4.315   3.479   2.370
 1450TIP3    H2 4315   4.186   3.401   2.369
 1451TIP3   OH2 4316   4.473   3.474   5.217
 1451TIP3    H1 4317   4.519   3.441   5.139
 1451TIP3    H2 4318   4.381   3.477   5.191
 1452TIP3   OH2 4319   0.780   4.516   4.163
 1452TIP3    H1 4320   0.750   4.572   4.091
 1452TIP3    H2 4321   0.765   4.427   4.131
 1453TIP3   OH2 4322   1.888   6.644   5.098
 1453TIP3    H1 4323   1.962   6.593   5.063
 1453TIP3    H2 4324   1.835   6.665   5.021
 1454TIP3   OH2 4325   5.600   5.112   2.948
 1454TIP3    H1 4326   5.599   5.020   2.923
 1454TIP3    H2 4327   5.662   5.153   2.888
 1455TIP3   OH2 4328   1.716   4.271   0.551
 1455TIP3    H1 4329   1.797   4.252   0.504
 1455TIP3    H2 4330   1.651   4.287   0.482
 1456TIP3   OH2 4331   4.771   4.858   0.319
 1456TIP3    H1 4332   4.821   4.940   0.325
 1456TIP3    H2 4333   4.721   4.866   0.238
 1457TIP3   OH2 4334   6.328   4.378   4.619
 1457TIP3    H1 4335   6.372   4.309   4.669
 1457TIP3    H2 4336   6.400   4.427   4.578
 1458TIP3   OH2 4337   1.176   0.450   3.273
 1458TIP3    H1 4338   1.261   0.485   3.245
 1458TIP3    H2 4339   1.197   0.399   3.351
 1459TIP3   OH2 4340   1.872   2.672   2.964
 1459TIP3    H1 4341   1.927   2.597   2.985
 1459TIP3    H2 4342   1.788   2.634   2.938
 1460TIP3   OH2 4343   5.040   1.108   3.963
 1460TIP3    H1 4344   4.996   1.190   3.985
 1460TIP3    H2 4345   4.969   1.045   3.953
 1461TIP3   OH2 4346   5.113   6.403   3.116
 1461TIP3    H1 4347   5.024   6.368   3.117
 1461TIP3    H2 4348   5.151   6.374   3.199
 1462TIP3   OH2 4349   0.873   3.882   4.069
 1462TIP3    H1 4350   0.833   3.909   4.152
 1462TIP3    H2 4351   0.963   3.858   4.092
 1463TIP3   OH2 4352   2.920   4.093   5.763
 1463TIP3    H1 4353   2.998   4.056   5.721
 1463TIP3    H2 4354   2.911   4.180   5.724
 1464TIP3   OH2 4355   1.710   3.607   4.140
 1464TIP3    H1 4356   1.801   3.635   4.151
 1464TIP3    H2 4357   1.689   3.628   4.049
 1465TIP3   OH2 4358   1.150   6.212   0.372
 1465TIP3    H1 4359   1.193   6.187   0.454
 1465TIP3    H2 4360   1.104   6.294   0.394
 1466TIP3   OH2 4361   5.141   1.135   3.313
 1466TIP3    H1 4362   5.202   1.204   3.285
 1466TIP3    H2 4363   5.054   1.171   3.294
 1467TIP3   OH2 4364   1.702   1.259   2.354
 1467TIP3    H1 4365   1.724   1.285   2.265
 1467TIP3    H2 4366   1.674   1.340   2.397
 1468TIP3   OH2 4367   1.970   3.406   0.566
 1468TIP3    H1 4368   1.940   3.426   0.655
 1468TIP3    H2 4369   1.896   3.426   0.510
 1469TIP3   OH2 4370   5.956   1.116   0.573
 1469TIP3    H1 4371   5.884   1.053   0.574
 1469TIP3    H2 4372   6.035   1.063   0.577
 1470TIP3   OH2 4373   4.117   3.729   4.724
 1470TIP3    H1 4374   4.170   3.764   4.794
 1470TIP3    H2 4375   4.026   3.741   4.753
 1471TIP3   OH2 4376   4.728   5.585   1.209
 1471TIP3    H1 4377   4.760   5.652   1.269
 1471TIP3    H2 4378   4.640   5.616   1.185
 1472TIP3   OH2 4379   1.573   0.089   1.984
 1472TIP3    H1 4380   1.548   0.012   1.932
 1472TIP3    H2 4381   1.498   0.103   2.042
 1473TIP3   OH2 4382   3.960   1.382   1.619
 1473TIP3    H1 4383   4.007   1.453   1.575
 1473TIP3    H2 4384   3.946   1.316   1.551
 1474TIP3   OH2 4385   4.872   1.978   3.696
 1474TIP3    H1 4386   4.868   1.894   3.741
 1474TIP3    H2 4387   4.884   1.957   3.604
 1475TIP3   OH2 4388   3.943   1.338   1.895
 1475TIP3    H1 4389   3.936   1.349   1.800
 1475TIP3    H2 4390   3.930   1.426   1.930
 1476TIP3   OH2 4391   2.312   2.099   3.785
 1476TIP3    H1 4392   2.328   2.103   3.879
 1476TIP3    H2 4393   2.217   2.098   3.777
 1477TIP3   OH2 4394   4.789   3.574   1.281
 1477TIP3    H1 4395   4.820   3.513   1.348
 1477TIP3    H2 4396   4.722   3.524   1.233
 1478TIP3   OH2 4397   1.372   4.685   5.699
 1478TIP3    H1 4398   1.452   4.646   5.733
 1478TIP3    H2 4399   1.401   4.742   5.628
 1479TIP3   OH2 4400   6.388   1.598   2.332
 1479TIP3    H1 4401   6.381   1.690   2.356
 1479TIP3    H2 4402   6.414   1.553   2.412
 1480TIP3   OH2 4403   1.456   3.024   2.884
 1480TIP3    H1 4404   1.491   3.112   2.901
 1480TIP3    H2 4405   1.432   3.025   2.792
 1481TIP3   OH2 4406   3.291   4.763   4.525
 1481TIP3    H1 4407   3.347   4.707   4.472
 1481TIP3    H2 4408   3.260   4.831   4.465
 1482TIP3   OH2 4409   4.603   0.750   1.909
 1482TIP3    H1 4410   4.590   0.827   1.966
 1482TIP3    H2 4411   4.655   0.690   1.962
 1483TIP3   OH2 4412   6.894   0.568   1.377
 1483TIP3    H1 4413   6.854   0.586   1.462
 1483TIP3    H2 4414   6.825   0.584   1.314
 1484TIP3   OH2 4415   5.699   0.139   1.516
 1484TIP3    H1 4416   5.625   0.082   1.495
 1484TIP3    H2 4417   5.708   0.196   1.440
 1485TIP3   OH2 4418   2.139   0.665   0.138
 1485TIP3    H1 4419   2.224   0.647   0.098
 1485TIP3    H2 4420   2.133   0.760   0.140
 1486TIP3   OH2 4421   6.070   2.331   1.488
 1486TIP3    H1 4422   6.032   2.415   1.463
 1486TIP3    H2 4423   6.050   2.273   1.415
 1487TIP3   OH2 4424   1.340   1.992   1.155
 1487TIP3    H1 4425   1.426   1.988   1.196
 1487TIP3    H2 4426   1.335   2.081   1.118
 1488TIP3   OH2 4427   4.201   0.579   0.378
 1488TIP3    H1 4428   4.260   0.624   0.318
 1488TIP3    H2 4429   4.255   0.509   0.416
 1489TIP3   OH2 4430   1.150   1.209   4.123
 1489TIP3    H1 4431   1.158   1.304   4.133
 1489TIP3    H2 4432   1.085   1.198   4.054
 1490TIP3   OH2 4433   4.858   5.897   2.239
 1490TIP3    H1 4434   4.787   5.880   2.300
 1490TIP3    H2 4435   4.937   5.872   2.287
 1491TIP3   OH2 4436   6.438   3.515   2.749
 1491TIP3    H1 4437   6.512   3.555   2.795
 1491TIP3    H2 4438   6.363   3.529   2.806
 1492TIP3   OH2 4439   5.383   1.415   4.481
 1492TIP3    H1 4440   5.384   1.385   4.390
 1492TIP3    H2 4441   5.354   1.507   4.475
 1493TIP3   OH2 4442   1.783   3.962   0.111
 1493TIP3    H1 4443   1.847   4.003   0.169
 1493TIP3    H2 4444   1.827   3.884   0.078
 1494TIP3   OH2 4445   2.131   1.216   2.866
 1494TIP3    H1 4446   2.093   1.274   2.932
 1494TIP3    H2 4447   2.070   1.220   2.792
 1495TIP3   OH2 4448   4.069  -0.010   4.478
 1495TIP3    H1 4449   3.998   0.042   4.441
 1495TIP3    H2 4450   4.106   0.044   4.548
 1496TIP3   OH2 4451   3.629   5.179   3.833
 1496TIP3    H1 4452   3.683   5.104   3.857
 1496TIP3    H2 4453   3.692   5.248   3.811
 1497TIP3   OH2 4454   3.526   1.228   4.474
 1497TIP3    H1 4455   3.491   1.264   4.555
 1497TIP3    H2 4456   3.613   1.196   4.498
 1498TIP3   OH2 4457   7.143   3.144   3.503
 1498TIP3    H1 4458   7.130   3.159   3.597
 1498TIP3    H2 4459   7.237   3.134   3.493
 1499TIP3   OH2 4460   6.272   2.870   1.529
 1499TIP3    H1 4461   6.366   2.864   1.511
 1499TIP3    H2 4462   6.243   2.779   1.532
 1500TIP3   OH2 4463   3.731   2.051   0.132
 1500TIP3    H1 4464   3.736   1.967   0.086
 1500TIP3    H2 4465   3.660   2.098   0.088
 1501TIP3   OH2 4466   5.168   4.177   2.072
 1501TIP3    H1 4467   5.157   4.254   2.127
 1501TIP3    H2 4468   5.081   4.137   2.069
 1502TIP3   OH2 4469   0.142   3.111   1.129
 1502TIP3    H1 4470   0.078   3.121   1.059
 1502TIP3    H2 4471   0.176   3.022   1.118
 1503TIP3   OH2 4472   0.587   0.411   4.586
 1503TIP3    H1 4473   0.515   0.361   4.549
 1503TIP3    H2 4474   0.632   0.348   4.643
 1504TIP3   OH2 4475   1.692   3.727   1.183
 1504TIP3    H1 4476   1.622   3.702   1.123
 1504TIP3    H2 4477   1.656   3.801   1.233
 1505TIP3   OH2 4478   4.248   4.696   2.509
 1505TIP3    H1 4479   4.202   4.697   2.593
 1505TIP3    H2 4480   4.244   4.786   2.478
 1506TIP3   OH2 4481   4.131   1.849   2.840
 1506TIP3    H1 4482   4.106   1.759   2.819
 1506TIP3    H2 4483   4.062   1.881   2.897
 1507TIP3   OH2 4484   1.769   6.216   3.922
 1507TIP3    H1 4485   1.860   6.231   3.949
 1507TIP3    H2 4486   1.728   6.174   3.998
 1508TIP3   OH2 4487   2.816   4.420   3.821
 1508TIP3    H1 4488   2.911   4.415   3.811
 1508TIP3    H2 4489   2.799   4.391   3.910
 1509TIP3   OH2 4490   4.532   4.434   5.752
 1509TIP3    H1 4491   4.567   4.511   5.797
 1509TIP3    H2 4492   4.440   4.430   5.779
 1510TIP3   OH2 4493   0.229   1.165   1.193
 1510TIP3    H1 4494   0.323   1.145   1.196
 1510TIP3    H2 4495   0.224   1.249   1.148
 1511TIP3   OH2 4496   4.176   6.287   4.861
 1511TIP3    H1 4497   4.102   6.337   4.827
 1511TIP3    H2 4498   4.141   6.240   4.936
 1512TIP3   OH2 4499   2.448   1.380   2.140
 1512TIP3    H1 4500   2.369   1.394   2.087
 1512TIP3    H2 4501   2.484   1.467   2.154
 1513TIP3   OH2 4502   7.015   6.038   5.707
 1513TIP3    H1 4503   7.071   6.092   5.651
 1513TIP3    H2 4504   7.014   6.084   5.791
 1514TIP3   OH2 4505   6.450   3.155   3.873
 1514TIP3    H1 4506   6.402   3.163   3.790
 1514TIP3    H2 4507   6.434   3.237   3.919
 1515TIP3   OH2 4508   6.726   0.049   5.488
 1515TIP3    H1 4509   6.670  -0.028   5.477
 1515TIP3    H2 4510   6.804   0.016   5.532
 1516TIP3   OH2 4511   3.066   0.245   0.116
 1516TIP3    H1 4512   3.020   0.216   0.195
 1516TIP3    H2 4513   3.004   0.303   0.073
 1517TIP3   OH2 4514   0.822   5.726   3.719
 1517TIP3    H1 4515   0.893   5.744   3.657
 1517TIP3    H2 4516   0.757   5.677   3.668
 1518TIP3   OH2 4517   3.713   4.971   5.244
 1518TIP3    H1 4518   3.624   5.007   5.251
 1518TIP3    H2 4519   3.705   4.882   5.279
 1519TIP3   OH2 4520   4.197   6.679   1.197
 1519TIP3    H1 4521   4.167   6.623   1.268
 1519TIP3    H2 4522   4.173   6.632   1.117
 1520TIP3   OH2 4523   1.218   0.239   3.458
 1520TIP3    H1 4524   1.207   0.158   3.408
 1520TIP3    H2 4525   1.305   0.232   3.498
 1521TIP3   OH2 4526   6.434   0.959   2.596
 1521TIP3    H1 4527   6.502   0.892   2.607
 1521TIP3    H2 4528   6.482   1.041   2.591
 1522TIP3   OH2 4529   6.244   6.457   0.397
 1522TIP3    H1 4530   6.197   6.375   0.385
 1522TIP3    H2 4531   6.203   6.517   0.334
 1523TIP3   OH2 4532   2.347   6.824   5.179
 1523TIP3    H1 4533   2.318   6.789   5.095
 1523TIP3    H2 4534   2.428   6.776   5.198
 1524TIP3   OH2 4535   5.583   6.554   3.944
 1524TIP3    H1 4536   5.649   6.485   3.940
 1524TIP3    H2 4537   5.535   6.537   4.025
 1525TIP3   OH2 4538   5.866   3.102   1.765
 1525TIP3    H1 4539   5.850   3.099   1.671
 1525TIP3    H2 4540   5.939   3.041   1.779
 1526TIP3   OH2 4541   3.532   6.085   3.510
 1526TIP3    H1 4542   3.516   6.088   3.416
 1526TIP3    H2 4543   3.609   6.141   3.523
 1527TIP3   OH2 4544   5.808   2.272   1.410
 1527TIP3    H1 4545   5.721   2.248   1.378
 1527TIP3    H2 4546   5.861   2.281   1.331
 1528TIP3   OH2 4547   6.977   4.472   2.635
 1528TIP3    H1 4548   6.961   4.388   2.591
 1528TIP3    H2 4549   6.996   4.448   2.726
 1529TIP3   OH2 4550   1.878   0.881   1.272
 1529TIP3    H1 4551   1.863   0.795   1.313
 1529TIP3    H2 4552   1.815   0.939   1.315
 1530TIP3   OH2 4553   1.159   3.263   5.146
 1530TIP3    H1 4554   1.240   3.314   5.153
 1530TIP3    H2 4555   1.089   3.329   5.151
 1531TIP3   OH2 4556   3.341   2.988   2.442
 1531TIP3    H1 4557   3.292   3.027   2.370
 1531TIP3    H2 4558   3.373   2.905   2.406
 1532TIP3   OH2 4559   1.424   5.524   2.220
 1532TIP3    H1 4560   1.431   5.439   2.264
 1532TIP3    H2 4561   1.473   5.584   2.276
 1533TIP3   OH2 4562   7.064   1.066   3.962
 1533TIP3    H1 4563   7.017   0.986   3.939
 1533TIP3    H2 4564   7.093   1.101   3.878
 1534TIP3   OH2 4565   2.338   5.786   4.969
 1534TIP3    H1 4566   2.307   5.796   5.059
 1534TIP3    H2 4567   2.434   5.794   4.976
 1535TIP3   OH2 4568   2.290   4.252   5.349
 1535TIP3    H1 4569   2.279   4.210   5.435
 1535TIP3    H2 4570   2.206   4.297   5.334
 1536TIP3   OH2 4571   6.710   4.512   1.280
 1536TIP3    H1 4572   6.778   4.460   1.323
 1536TIP3    H2 4573   6.660   4.551   1.353
 1537TIP3   OH2 4574   7.161   5.980   4.465
 1537TIP3    H1 4575   7.222   6.002   4.395
 1537TIP3    H2 4576   7.199   6.020   4.543
 1538TIP3   OH2 4577   3.210   5.365   2.718
 1538TIP3    H1 4578   3.221   5.313   2.798
 1538TIP3    H2 4579   3.162   5.308   2.659
 1539TIP3   OH2 4580   1.871   1.346   2.952
 1539TIP3    H1 4581   1.878   1.319   2.860
 1539TIP3    H2 4582   1.904   1.436   2.953
 1540TIP3   OH2 4583   3.973   0.000   3.837
 1540TIP3    H1 4584   3.908   0.069   3.821
 1540TIP3    H2 4585   3.995  -0.033   3.750
 1541TIP3   OH2 4586   7.104   3.551   0.494
 1541TIP3    H1 4587   7.046   3.488   0.450
 1541TIP3    H2 4588   7.072   3.637   0.467
 1542TIP3   OH2 4589   4.938   2.675   1.106
 1542TIP3    H1 4590   4.971   2.591   1.072
 1542TIP3    H2 4591   4.900   2.653   1.191
 1543TIP3   OH2 4592   0.646   0.965   2.706
 1543TIP3    H1 4593   0.721   0.994   2.655
 1543TIP3    H2 4594   0.581   1.034   2.695
 1544TIP3   OH2 4595   4.266   1.325   2.960
 1544TIP3    H1 4596   4.183   1.283   2.985
 1544TIP3    H2 4597   4.280   1.392   3.026
 1545TIP3   OH2 4598   0.243   2.657   1.605
 1545TIP3    H1 4599   0.205   2.573   1.629
 1545TIP3    H2 4600   0.172   2.703   1.559
 1546TIP3   OH2 4601   4.049   1.534   0.261
 1546TIP3    H1 4602   4.050   1.537   0.357
 1546TIP3    H2 4603   4.058   1.625   0.234
 1547TIP3   OH2 4604   5.826   3.432   1.189
 1547TIP3    H1 4605   5.913   3.397   1.209
 1547TIP3    H2 4606   5.787   3.451   1.274
 1548TIP3   OH2 4607   2.986   2.596   4.699
 1548TIP3    H1 4608   2.893   2.576   4.699
 1548TIP3    H2 4609   3.005   2.625   4.610
 1549TIP3   OH2 4610   0.806   2.792   4.484
 1549TIP3    H1 4611   0.890   2.756   4.456
 1549TIP3    H2 4612   0.748   2.716   4.492
 1550TIP3   OH2 4613   3.244   4.704   5.486
 1550TIP3    H1 4614   3.187   4.629   5.502
 1550TIP3    H2 4615   3.232   4.760   5.562
 1551TIP3   OH2 4616   2.448   1.991   1.132
 1551TIP3    H1 4617   2.377   2.041   1.173
 1551TIP3    H2 4618   2.412   1.904   1.118
 1552TIP3   OH2 4619   6.539   0.925   4.106
 1552TIP3    H1 4620   6.460   0.900   4.153
 1552TIP3    H2 4621   6.513   1.003   4.056
 1553TIP3   OH2 4622   6.140   6.657   2.950
 1553TIP3    H1 4623   6.069   6.616   2.900
 1553TIP3    H2 4624   6.181   6.585   2.997
 1554TIP3   OH2 4625   2.357   1.260   4.695
 1554TIP3    H1 4626   2.312   1.298   4.771
 1554TIP3    H2 4627   2.403   1.334   4.655
 1555TIP3   OH2 4628   6.074   0.578   0.643
 1555TIP3    H1 4629   6.101   0.598   0.554
 1555TIP3    H2 4630   6.008   0.509   0.634
 1556TIP3   OH2 4631   5.785   3.388   3.179
 1556TIP3    H1 4632   5.837   3.434   3.244
 1556TIP3    H2 4633   5.700   3.373   3.221
 1557TIP3   OH2 4634   1.599   1.739   1.292
 1557TIP3    H1 4635   1.676   1.685   1.280
 1557TIP3    H2 4636   1.564   1.713   1.378
 1558TIP3   OH2 4637   5.970   6.758   1.915
 1558TIP3    H1 4638   5.998   6.773   2.006
 1558TIP3    H2 4639   5.875   6.748   1.921
 1559TIP3   OH2 4640   6.867   1.915   0.148
 1559TIP3    H1 4641   6.958   1.888   0.157
 1559TIP3    H2 4642   6.840   1.877   0.064
 1560TIP3   OH2 4643   2.223   1.475   4.914
 1560TIP3    H1 4644   2.281   1.549   4.933
 1560TIP3    H2 4645   2.153   1.482   4.979
 1561TIP3   OH2 4646   3.602   5.654   4.809
 1561TIP3    H1 4647   3.681   5.601   4.796
 1561TIP3    H2 4648   3.557   5.650   4.725
 1562TIP3   OH2 4649   1.292   5.611   5.134
 1562TIP3    H1 4650   1.311   5.697   5.095
 1562TIP3    H2 4651   1.198   5.599   5.120
 1563TIP3   OH2 4652   0.061   6.510   0.127
 1563TIP3    H1 4653   0.155   6.516   0.111
 1563TIP3    H2 4654   0.022   6.566   0.061
 1564TIP3   OH2 4655   6.571   6.547   2.811
 1564TIP3    H1 4656   6.489   6.516   2.774
 1564TIP3    H2 4657   6.627   6.469   2.816
 1565TIP3   OH2 4658   6.826   2.962   4.622
 1565TIP3    H1 4659   6.765   2.954   4.696
 1565TIP3    H2 4660   6.849   2.872   4.600
 1566TIP3   OH2 4661   4.728   2.635   0.207
 1566TIP3    H1 4662   4.788   2.563   0.225
 1566TIP3    H2 4663   4.693   2.615   0.120
 1567TIP3   OH2 4664   0.297   5.051   2.007
 1567TIP3    H1 4665   0.289   5.079   2.098
 1567TIP3    H2 4666   0.210   5.019   1.984
 1568TIP3   OH2 4667   3.089   0.959   5.649
 1568TIP3    H1 4668   3.123   0.920   5.568
 1568TIP3    H2 4669   3.113   1.052   5.642
 1569TIP3   OH2 4670   1.367   5.891   0.686
 1569TIP3    H1 4671   1.343   5.980   0.659
 1569TIP3    H2 4672   1.283   5.847   0.699
 1570TIP3   OH2 4673   0.615   2.522   0.522
 1570TIP3    H1 4674   0.690   2.497   0.575
 1570TIP3    H2 4675   0.591   2.609   0.554
 1571TIP3   OH2 4676   6.704   3.154   5.126
 1571TIP3    H1 4677   6.694   3.196   5.211
 1571TIP3    H2 4678   6.755   3.075   5.144
 1572TIP3   OH2 4679   1.009   1.902   5.480
 1572TIP3    H1 4680   1.018   1.815   5.442
 1572TIP3    H2 4681   0.951   1.949   5.420
 1573TIP3   OH2 4682   3.169   0.778   5.452
 1573TIP3    H1 4683   3.245   0.734   5.412
 1573TIP3    H2 4684   3.100   0.712   5.450
 1574TIP3   OH2 4685   4.034   4.716   4.440
 1574TIP3    H1 4686   4.035   4.734   4.534
 1574TIP3    H2 4687   3.964   4.653   4.428
 1575TIP3   OH2 4688   3.604   6.639   4.308
 1575TIP3    H1 4689   3.512   6.612   4.319
 1575TIP3    H2 4690   3.611   6.721   4.356
 1576TIP3   OH2 4691   6.115   1.715   0.184
 1576TIP3    H1 4692   6.099   1.711   0.090
 1576TIP3    H2 4693   6.178   1.644   0.200
 1577TIP3   OH2 4694   5.037   0.471   4.912
 1577TIP3    H1 4695   5.127   0.467   4.943
 1577TIP3    H2 4696   4.998   0.388   4.941
 1578TIP3   OH2 4697   2.979   6.290   1.122
 1578TIP3    H1 4698   2.970   6.228   1.194
 1578TIP3    H2 4699   3.049   6.254   1.067
 1579TIP3   OH2 4700   3.971   3.617   4.500
 1579TIP3    H1 4701   3.988   3.647   4.589
 1579TIP3    H2 4702   3.926   3.690   4.458
 1580TIP3   OH2 4703   0.498   1.190   4.751
 1580TIP3    H1 4704   0.517   1.164   4.841
 1580TIP3    H2 4705   0.402   1.191   4.745
 1581TIP3   OH2 4706   0.814   1.579   3.791
 1581TIP3    H1 4707   0.810   1.626   3.874
 1581TIP3    H2 4708   0.798   1.646   3.724
 1582TIP3   OH2 4709   6.826   5.250   2.650
 1582TIP3    H1 4710   6.851   5.281   2.563
 1582TIP3    H2 4711   6.735   5.223   2.642
 1583TIP3   OH2 4712   5.858   5.589   2.634
 1583TIP3    H1 4713   5.814   5.595   2.719
 1583TIP3    H2 4714   5.943   5.551   2.654
 1584TIP3   OH2 4715   2.473   4.456   4.618
 1584TIP3    H1 4716   2.442   4.479   4.530
 1584TIP3    H2 4717   2.455   4.362   4.626
 1585TIP3   OH2 4718   1.739   2.514   5.849
 1585TIP3    H1 4719   1.809   2.459   5.884
 1585TIP3    H2 4720   1.663   2.456   5.844
 1586TIP3   OH2 4721   0.106   1.913   5.431
 1586TIP3    H1 4722   0.080   1.918   5.339
 1586TIP3    H2 4723   0.197   1.882   5.429
 1587TIP3   OH2 4724   0.784   2.293   3.553
 1587TIP3    H1 4725   0.857   2.240   3.584
 1587TIP3    H2 4726   0.751   2.246   3.477
 1588TIP3   OH2 4727   6.507   1.356   2.294
 1588TIP3    H1 4728   6.466   1.442   2.283
 1588TIP3    H2 4729   6.601   1.375   2.299
 1589TIP3   OH2 4730   5.314   4.308   4.381
 1589TIP3    H1 4731   5.394   4.257   4.372
 1589TIP3    H2 4732   5.323   4.380   4.319
 1590TIP3   OH2 4733   3.134   3.639   2.787
 1590TIP3    H1 4734   3.161   3.710   2.729
 1590TIP3    H2 4735   3.204   3.574   2.779
 1591TIP3   OH2 4736   7.137   5.796   0.389
 1591TIP3    H1 4737   7.216   5.777   0.440
 1591TIP3    H2 4738   7.167   5.802   0.299
 1592TIP3   OH2 4739   5.449   1.075   3.117
 1592TIP3    H1 4740   5.420   1.043   3.032
 1592TIP3    H2 4741   5.459   1.169   3.106
 1593TIP3   OH2 4742   3.894   1.240   5.740
 1593TIP3    H1 4743   3.828   1.280   5.796
 1593TIP3    H2 4744   3.875   1.273   5.652
 1594TIP3   OH2 4745   0.992   6.765   2.010
 1594TIP3    H1 4746   0.986   6.737   2.102
 1594TIP3    H2 4747   0.914   6.728   1.968
 1595TIP3   OH2 4748   3.486   3.486   5.165
 1595TIP3    H1 4749   3.471   3.415   5.227
 1595TIP3    H2 4750   3.524   3.556   5.218
 1596TIP3   OH2 4751   4.834   5.117   1.713
 1596TIP3    H1 4752   4.901   5.154   1.655
 1596TIP3    H2 4753   4.768   5.186   1.721
 1597TIP3   OH2 4754   6.907   4.181   5.850
 1597TIP3    H1 4755   6.949   4.266   5.858
 1597TIP3    H2 4756   6.925   4.137   5.933
 1598TIP3   OH2 4757   6.839   1.795   5.908
 1598TIP3    H1 4758   6.869   1.886   5.916
 1598TIP3    H2 4759   6.746   1.802   5.888
 1599TIP3   OH2 4760   5.303   2.652   4.822
 1599TIP3    H1 4761   5.363   2.577   4.828
 1599TIP3    H2 4762   5.333   2.700   4.745
 1600TIP3   OH2 4763   4.011   0.330   4.415
 1600TIP3    H1 4764   3.950   0.358   4.483
 1600TIP3    H2 4765   3.967   0.256   4.373
 1601TIP3   OH2 4766   1.781   4.759   5.629
 1601TIP3    H1 4767   1.783   4.806   5.546
 1601TIP3    H2 4768   1.803   4.668   5.606
 1602TIP3   OH2 4769   0.045   0.075   4.449
 1602TIP3    H1 4770   0.056   0.123   4.366
 1602TIP3    H2 4771   0.054  -0.017   4.424
 1603TIP3   OH2 4772   0.192   5.548   3.159
 1603TIP3    H1 4773   0.118   5.492   3.181
 1603TIP3    H2 4774   0.164   5.596   3.082
 1604TIP3   OH2 4775   6.003   2.849   1.856
 1604TIP3    H1 4776   5.924   2.843   1.802
 1604TIP3    H2 4777   5.999   2.774   1.915
 1605TIP3   OH2 4778   3.243   6.732   4.089
 1605TIP3    H1 4779   3.249   6.820   4.051
 1605TIP3    H2 4780   3.310   6.681   4.042
 1606TIP3   OH2 4781   6.245   1.293   3.988
 1606TIP3    H1 4782   6.205   1.378   3.971
 1606TIP3    H2 4783   6.328   1.314   4.031
 1607TIP3   OH2 4784   3.925   6.398   4.817
 1607TIP3    H1 4785   3.884   6.349   4.888
 1607TIP3    H2 4786   3.864   6.391   4.744
 1608TIP3   OH2 4787   1.323   6.671   3.298
 1608TIP3    H1 4788   1.242   6.663   3.348
 1608TIP3    H2 4789   1.374   6.737   3.345
 1609TIP3   OH2 4790   4.176   3.552   3.303
 1609TIP3    H1 4791   4.122   3.479   3.333
 1609TIP3    H2 4792   4.203   3.528   3.215
 1610TIP3   OH2 4793   2.879   2.696   4.430
 1610TIP3    H1 4794   2.874   2.708   4.335
 1610TIP3    H2 4795   2.789   2.697   4.459
 1611TIP3   OH2 4796   3.903   2.919   1.041
 1611TIP3    H1 4797   3.955   2.997   1.022
 1611TIP3    H2 4798   3.813   2.945   1.018
 1612TIP3   OH2 4799   5.394   0.829   2.606
 1612TIP3    H1 4800   5.339   0.881   2.548
 1612TIP3    H2 4801   5.465   0.798   2.551
 1613TIP3   OH2 4802   0.037   2.558   2.969
 1613TIP3    H1 4803  -0.014   2.637   2.986
 1613TIP3    H2 4804   0.109   2.561   3.032
 1614TIP3   OH2 4805   4.767   0.421   3.839
 1614TIP3    H1 4806   4.672   0.420   3.850
 1614TIP3    H2 4807   4.802   0.429   3.928
 1615TIP3   OH2 4808   6.090   5.266   1.455
 1615TIP3    H1 4809   6.007   5.224   1.435
 1615TIP3    H2 4810   6.107   5.323   1.379
 1616TIP3   OH2 4811   4.208   2.189   1.050
 1616TIP3    H1 4812   4.170   2.207   0.964
 1616TIP3    H2 4813   4.230   2.096   1.048
 1617TIP3   OH2 4814   6.713   1.168   0.110
 1617TIP3    H1 4815   6.628   1.211   0.098
 1617TIP3    H2 4816   6.764   1.229   0.163
 1618TIP3   OH2 4817   3.779   1.937   3.448
 1618TIP3    H1 4818   3.840   1.996   3.403
 1618TIP3    H2 4819   3.723   1.903   3.379
 1619TIP3   OH2 4820   6.898   1.139   4.692
 1619TIP3    H1 4821   6.896   1.104   4.781
 1619TIP3    H2 4822   6.807   1.142   4.664
 1620TIP3   OH2 4823   0.845   3.982   1.911
 1620TIP3    H1 4824   0.798   3.964   1.829
 1620TIP3    H2 4825   0.935   3.997   1.883
 1621TIP3   OH2 4826   3.277   5.941   0.906
 1621TIP3    H1 4827   3.305   5.926   0.816
 1621TIP3    H2 4828   3.352   5.982   0.948
 1622TIP3   OH2 4829   5.720   3.296   2.920
 1622TIP3    H1 4830   5.636   3.325   2.884
 1622TIP3    H2 4831   5.745   3.366   2.980
 1623TIP3   OH2 4832   3.774   4.687   4.099
 1623TIP3    H1 4833   3.781   4.780   4.121
 1623TIP3    H2 4834   3.680   4.669   4.100
 1624TIP3   OH2 4835   1.225   0.439   4.732
 1624TIP3    H1 4836   1.164   0.509   4.755
 1624TIP3    H2 4837   1.284   0.478   4.668
 1625TIP3   OH2 4838   6.270   0.161   2.532
 1625TIP3    H1 4839   6.232   0.175   2.445
 1625TIP3    H2 4840   6.333   0.232   2.542
 1626TIP3   OH2 4841   6.914   1.323   0.314
 1626TIP3    H1 4842   6.919   1.405   0.362
 1626TIP3    H2 4843   6.954   1.342   0.230
 1627TIP3   OH2 4844   3.087   1.500   1.085
 1627TIP3    H1 4845   3.079   1.516   0.991
 1627TIP3    H2 4846   3.030   1.425   1.101
 1628TIP3   OH2 4847   1.080   1.057   2.456
 1628TIP3    H1 4848   1.123   0.991   2.509
 1628TIP3    H2 4849   1.116   1.045   2.368
 1629TIP3   OH2 4850   0.133   1.855   4.735
 1629TIP3    H1 4851   0.228   1.844   4.734
 1629TIP3    H2 4852   0.108   1.852   4.643
 1630TIP3   OH2 4853   0.852   1.969   3.834
 1630TIP3    H1 4854   0.914   2.028   3.878
 1630TIP3    H2 4855   0.900   1.936   3.758
 1631TIP3   OH2 4856   0.398   1.841   4.671
 1631TIP3    H1 4857   0.417   1.870   4.582
 1631TIP3    H2 4858   0.444   1.758   4.680
 1632TIP3   OH2 4859   6.794   2.239   4.405
 1632TIP3    H1 4860   6.799   2.237   4.309
 1632TIP3    H2 4861   6.826   2.152   4.432
 1633TIP3   OH2 4862   3.473   2.627   4.385
 1633TIP3    H1 4863   3.531   2.598   4.314
 1633TIP3    H2 4864   3.457   2.547   4.436
 1634TIP3   OH2 4865   6.005   2.694   5.682
 1634TIP3    H1 4866   6.047   2.712   5.766
 1634TIP3    H2 4867   5.979   2.780   5.649
 1635TIP3   OH2 4868   1.512   1.667   4.444
 1635TIP3    H1 4869   1.578   1.675   4.375
 1635TIP3    H2 4870   1.447   1.734   4.423
 1636TIP3   OH2 4871   1.000   4.900   0.243
 1636TIP3    H1 4872   0.925   4.856   0.282
 1636TIP3    H2 4873   0.968   4.930   0.158
 1637TIP3   OH2 4874   2.476   5.939   0.331
 1637TIP3    H1 4875   2.407   6.002   0.307
 1637TIP3    H2 4876   2.441   5.854   0.305
 1638TIP3   OH2 4877   4.918   4.456   1.587
 1638TIP3    H1 4878   4.958   4.373   1.613
 1638TIP3    H2 4879   4.932   4.515   1.661
 1639TIP3   OH2 4880   4.920   5.082   0.369
 1639TIP3    H1 4881   5.010   5.062   0.392
 1639TIP3    H2 4882   4.890   5.143   0.437
 1640TIP3   OH2 4883   7.172   0.909   1.095
 1640TIP3    H1 4884   7.213   0.850   1.158
 1640TIP3    H2 4885   7.116   0.852   1.041
 1641TIP3   OH2 4886   5.048   4.427   5.484
 1641TIP3    H1 4887   4.966   4.410   5.437
 1641TIP3    H2 4888   5.070   4.518   5.462
 1642TIP3   OH2 4889   2.388   2.819   0.229
 1642TIP3    H1 4890   2.330   2.884   0.266
 1642TIP3    H2 4891   2.386   2.835   0.135
 1643TIP3   OH2 4892   3.565   3.796   4.660
 1643TIP3    H1 4893   3.594   3.709   4.634
 1643TIP3    H2 4894   3.496   3.781   4.725
 1644TIP3   OH2 4895   0.447   1.116   2.160
 1644TIP3    H1 4896   0.385   1.154   2.221
 1644TIP3    H2 4897   0.414   1.028   2.143
 1645TIP3   OH2 4898   2.336   0.724   0.484
 1645TIP3    H1 4899   2.259   0.748   0.432
 1645TIP3    H2 4900   2.411   0.753   0.432
 1646TIP3   OH2 4901   0.730   2.244   1.829
 1646TIP3    H1 4902   0.690   2.330   1.841
 1646TIP3    H2 4903   0.678   2.203   1.759
 1647TIP3   OH2 4904   3.239   2.209   2.520
 1647TIP3    H1 4905   3.269   2.250   2.439
 1647TIP3    H2 4906   3.317   2.168   2.557
 1648TIP3   OH2 4907   3.230   3.252   1.390
 1648TIP3    H1 4908   3.264   3.338   1.363
 1648TIP3    H2 4909   3.291   3.189   1.352
 1649TIP3   OH2 4910   5.135   1.759   0.607
 1649TIP3    H1 4911   5.154   1.667   0.625
 1649TIP3    H2 4912   5.153   1.769   0.514
 1650TIP3   OH2 4913   6.982   0.509   3.384
 1650TIP3    H1 4914   6.934   0.474   3.458
 1650TIP3    H2 4915   6.960   0.450   3.311
 1651TIP3   OH2 4916   1.377   4.269   0.150
 1651TIP3    H1 4917   1.294   4.233   0.120
 1651TIP3    H2 4918   1.394   4.344   0.093
 1652TIP3   OH2 4919   2.097   1.060   3.851
 1652TIP3    H1 4920   2.180   1.108   3.847
 1652TIP3    H2 4921   2.040   1.105   3.789
 1653TIP3   OH2 4922   7.154   1.640   4.855
 1653TIP3    H1 4923   7.089   1.684   4.910
 1653TIP3    H2 4924   7.193   1.711   4.803
 1654TIP3   OH2 4925   0.176   5.339   1.427
 1654TIP3    H1 4926   0.218   5.352   1.512
 1654TIP3    H2 4927   0.211   5.408   1.371
 1655TIP3   OH2 4928   1.665   5.012   1.222
 1655TIP3    H1 4929   1.659   5.101   1.188
 1655TIP3    H2 4930   1.611   5.013   1.301
 1656TIP3   OH2 4931   4.340   4.647   0.125
 1656TIP3    H1 4932   4.295   4.574   0.168
 1656TIP3    H2 4933   4.393   4.606   0.057
 1657TIP3   OH2 4934   6.745   5.457   1.891
 1657TIP3    H1 4935   6.751   5.502   1.807
 1657TIP3    H2 4936   6.817   5.492   1.943
 1658TIP3   OH2 4937   3.619   6.760   3.005
 1658TIP3    H1 4938   3.597   6.696   3.073
 1658TIP3    H2 4939   3.683   6.818   3.046
 1659TIP3   OH2 4940   5.342   5.807   0.257
 1659TIP3    H1 4941   5.314   5.751   0.185
 1659TIP3    H2 4942   5.410   5.863   0.219
 1660TIP3   OH2 4943   6.282   6.565   0.811
 1660TIP3    H1 4944   6.260   6.480   0.773
 1660TIP3    H2 4945   6.363   6.548   0.860
 1661TIP3   OH2 4946   4.623   5.185   2.574
 1661TIP3    H1 4947   4.553   5.249   2.566
 1661TIP3    H2 4948   4.655   5.195   2.663
 1662TIP3   OH2 4949   4.275   0.920   5.790
 1662TIP3    H1 4950   4.187   0.912   5.827
 1662TIP3    H2 4951   4.317   0.988   5.842
 1663TIP3   OH2 4952   6.778   0.237   1.716
 1663TIP3    H1 4953   6.765   0.327   1.748
 1663TIP3    H2 4954   6.826   0.193   1.786
 1664TIP3   OH2 4955   0.738   6.381   2.071
 1664TIP3    H1 4956   0.804   6.444   2.040
 1664TIP3    H2 4957   0.787   6.299   2.082
 1665TIP3   OH2 4958   4.631   0.659   4.112
 1665TIP3    H1 4959   4.605   0.705   4.192
 1665TIP3    H2 4960   4.586   0.706   4.042
 1666TIP3   OH2 4961   6.453   0.130   4.801
 1666TIP3    H1 4962   6.512   0.141   4.725
 1666TIP3    H2 4963   6.451   0.036   4.815
 1667TIP3   OH2 4964   5.802   1.599   2.074
 1667TIP3    H1 4965   5.764   1.685   2.057
 1667TIP3    H2 4966   5.818   1.562   1.987
 1668TIP3   OH2 4967   5.574   0.200   2.474
 1668TIP3    H1 4968   5.523   0.212   2.394
 1668TIP3    H2 4969   5.605   0.288   2.496
 1669TIP3   OH2 4970   3.740   2.572   2.992
 1669TIP3    H1 4971   3.726   2.613   3.077
 1669TIP3    H2 4972   3.697   2.486   2.999
 1670TIP3   OH2 4973   4.692   6.067   2.721
 1670TIP3    H1 4974   4.709   5.973   2.714
 1670TIP3    H2 4975   4.612   6.081   2.670
 1671TIP3   OH2 4976   0.792   0.689   2.446
 1671TIP3    H1 4977   0.734   0.758   2.411
 1671TIP3    H2 4978   0.857   0.736   2.498
 1672TIP3   OH2 4979   1.801   0.463   0.543
 1672TIP3    H1 4980   1.884   0.481   0.499
 1672TIP3    H2 4981   1.752   0.545   0.537
 1673TIP3   OH2 4982   4.358   6.722   3.320
 1673TIP3    H1 4983   4.409   6.783   3.266
 1673TIP3    H2 4984   4.334   6.652   3.260
 1674TIP3   OH2 4985   5.267   1.598   2.788
 1674TIP3    H1 4986   5.248   1.659   2.717
 1674TIP3    H2 4987   5.346   1.552   2.759
 1675TIP3   OH2 4988   0.451   4.884   1.877
 1675TIP3    H1 4989   0.405   4.957   1.918
 1675TIP3    H2 4990   0.528   4.869   1.932
 1676TIP3   OH2 4991   4.545   1.210   0.856
 1676TIP3    H1 4992   4.478   1.224   0.923
 1676TIP3    H2 4993   4.503   1.153   0.792
 1677TIP3   OH2 4994   1.526   4.509   2.420
 1677TIP3    H1 4995   1.572   4.581   2.463
 1677TIP3    H2 4996   1.526   4.533   2.327
 1678TIP3   OH2 4997   4.528   3.061   2.502
 1678TIP3    H1 4998   4.583   3.128   2.542
 1678TIP3    H2 4999   4.440   3.099   2.502
 1679TIP3   OH2 5000   3.939   0.862   4.813
 1679TIP3    H1 5001   3.871   0.886   4.750
 1679TIP3    H2 5002   3.995   0.940   4.818
 1680TIP3   OH2 5003   2.876   3.442   0.321
 1680TIP3    H1 5004   2.869   3.509   0.254
 1680TIP3    H2 5005   2.952   3.467   0.373
 1681TIP3   OH2 5006   6.713   5.102   1.003
 1681TIP3    H1 5007   6.687   5.123   1.093
 1681TIP3    H2 5008   6.670   5.018   0.985
 1682TIP3   OH2 5009   1.314   2.444   3.003
 1682TIP3    H1 5010   1.338   2.519   2.948
 1682TIP3    H2 5011   1.280   2.379   2.942
 1683TIP3   OH2 5012   2.324   0.145   1.230
 1683TIP3    H1 5013   2.350   0.211   1.166
 1683TIP3    H2 5014   2.247   0.104   1.191
 1684TIP3   OH2 5015   5.049   6.184   3.660
 1684TIP3    H1 5016   5.087   6.255   3.710
 1684TIP3    H2 5017   5.020   6.224   3.578
 1685TIP3   OH2 5018   1.253   5.235   4.678
 1685TIP3    H1 5019   1.158   5.231   4.678
 1685TIP3    H2 5020   1.280   5.162   4.735
 1686TIP3   OH2 5021   3.395   1.593   4.150
 1686TIP3    H1 5022   3.471   1.535   4.153
 1686TIP3    H2 5023   3.339   1.557   4.080
 1687TIP3   OH2 5024   5.413   5.716   0.991
 1687TIP3    H1 5025   5.455   5.775   0.929
 1687TIP3    H2 5026   5.397   5.770   1.069
 1688TIP3   OH2 5027   1.818   4.266   3.930
 1688TIP3    H1 5028   1.772   4.350   3.929
 1688TIP3    H2 5029   1.864   4.264   4.013
 1689TIP3   OH2 5030   3.624   6.442   5.058
 1689TIP3    H1 5031   3.638   6.349   5.074
 1689TIP3    H2 5032   3.556   6.445   4.990
 1690TIP3   OH2 5033   4.953   4.764   1.287
 1690TIP3    H1 5034   5.038   4.729   1.259
 1690TIP3    H2 5035   4.889   4.718   1.232
 1691TIP3   OH2 5036   0.628   2.624   0.097
 1691TIP3    H1 5037   0.536   2.626   0.071
 1691TIP3    H2 5038   0.626   2.639   0.192
 1692TIP3   OH2 5039   4.651   5.632   3.842
 1692TIP3    H1 5040   4.642   5.690   3.766
 1692TIP3    H2 5041   4.561   5.621   3.874
 1693TIP3   OH2 5042   0.766   6.528   0.200
 1693TIP3    H1 5043   0.835   6.548   0.263
 1693TIP3    H2 5044   0.809   6.476   0.132
 1694TIP3   OH2 5045   2.089   0.913   3.169
 1694TIP3    H1 5046   2.062   0.825   3.194
 1694TIP3    H2 5047   2.060   0.969   3.241
 1695TIP3   OH2 5048   3.744   2.574   0.680
 1695TIP3    H1 5049   3.837   2.564   0.701
 1695TIP3    H2 5050   3.744   2.614   0.593
 1696TIP3   OH2 5051   2.910   0.156   3.487
 1696TIP3    H1 5052   2.941   0.123   3.572
 1696TIP3    H2 5053   2.895   0.250   3.502
 1697TIP3   OH2 5054   5.880   2.518   1.995
 1697TIP3    H1 5055   5.832   2.462   2.057
 1697TIP3    H2 5056   5.914   2.589   2.049
 1698TIP3   OH2 5057   6.921   0.011   0.567
 1698TIP3    H1 5058   6.967   0.091   0.592
 1698TIP3    H2 5059   6.986  -0.059   0.578
 1699TIP3   OH2 5060   2.867   1.330   0.412
 1699TIP3    H1 5061   2.831   1.372   0.490
 1699TIP3    H2 5062   2.796   1.276   0.379
 1700TIP3   OH2 5063   4.907   1.476   4.679
 1700TIP3    H1 5064   4.858   1.436   4.751
 1700TIP3    H2 5065   4.990   1.428   4.676
 1701TIP3   OH2 5066   2.192   5.662   1.235
 1701TIP3    H1 5067   2.189   5.734   1.297
 1701TIP3    H2 5068   2.236   5.591   1.282
 1702TIP3   OH2 5069   7.018   1.905   2.923
 1702TIP3    H1 5070   7.004   1.881   3.014
 1702TIP3    H2 5071   7.105   1.945   2.921
 1703TIP3   OH2 5072   0.775   4.814   2.711
 1703TIP3    H1 5073   0.758   4.856   2.796
 1703TIP3    H2 5074   0.691   4.817   2.665
 1704TIP3   OH2 5075   5.338   0.049   0.124
 1704TIP3    H1 5076   5.391  -0.031   0.125
 1704TIP3    H2 5077   5.352   0.086   0.037
 1705TIP3   OH2 5078   4.503   2.092   2.487
 1705TIP3    H1 5079   4.444   2.017   2.497
 1705TIP3    H2 5080   4.579   2.070   2.539
 1706TIP3   OH2 5081   3.936   2.926   0.739
 1706TIP3    H1 5082   3.984   3.007   0.721
 1706TIP3    H2 5083   3.995   2.856   0.711
 1707TIP3   OH2 5084   3.509   5.979   0.202
 1707TIP3    H1 5085   3.442   5.933   0.152
 1707TIP3    H2 5086   3.461   6.044   0.253
 1708TIP3   OH2 5087   5.672   4.596   1.336
 1708TIP3    H1 5088   5.628   4.591   1.421
 1708TIP3    H2 5089   5.765   4.609   1.359
 1709TIP3   OH2 5090   3.590   0.773   5.450
 1709TIP3    H1 5091   3.517   0.753   5.392
 1709TIP3    H2 5092   3.596   0.868   5.449
 1710TIP3   OH2 5093   3.760   3.792   4.404
 1710TIP3    H1 5094   3.687   3.854   4.415
 1710TIP3    H2 5095   3.720   3.706   4.418
 1711TIP3   OH2 5096   0.548   2.502   2.711
 1711TIP3    H1 5097   0.582   2.428   2.662
 1711TIP3    H2 5098   0.513   2.463   2.792
 1712TIP3   OH2 5099   1.111   4.365   1.965
 1712TIP3    H1 5100   1.071   4.332   1.885
 1712TIP3    H2 5101   1.080   4.305   2.033
 1713TIP3   OH2 5102   5.570   3.353   3.354
 1713TIP3    H1 5103   5.618   3.285   3.400
 1713TIP3    H2 5104   5.489   3.311   3.326
 1714TIP3   OH2 5105   0.656   0.885   0.166
 1714TIP3    H1 5106   0.683   0.868   0.076
 1714TIP3    H2 5107   0.573   0.932   0.157
 1715TIP3   OH2 5108   7.081   0.501   1.206
 1715TIP3    H1 5109   7.031   0.520   1.126
 1715TIP3    H2 5110   7.017   0.511   1.277
 1716TIP3   OH2 5111   5.104   6.641   4.964
 1716TIP3    H1 5112   5.143   6.728   4.960
 1716TIP3    H2 5113   5.084   6.620   4.873
 1717TIP3   OH2 5114   4.683   2.679   5.630
 1717TIP3    H1 5115   4.738   2.755   5.610
 1717TIP3    H2 5116   4.736   2.604   5.602
 1718TIP3   OH2 5117   5.149   4.673   3.377
 1718TIP3    H1 5118   5.201   4.642   3.303
 1718TIP3    H2 5119   5.213   4.693   3.445
 1719TIP3   OH2 5120   2.141   1.959   2.601
 1719TIP3    H1 5121   2.122   1.893   2.535
 1719TIP3    H2 5122   2.156   2.039   2.551
 1720TIP3   OH2 5123   2.013   4.144   5.068
 1720TIP3    H1 5124   2.013   4.050   5.052
 1720TIP3    H2 5125   1.977   4.182   4.988
 1721TIP3   OH2 5126   1.572   5.356   3.392
 1721TIP3    H1 5127   1.548   5.374   3.482
 1721TIP3    H2 5128   1.517   5.281   3.367
 1722TIP3   OH2 5129   5.341   4.059   4.160
 1722TIP3    H1 5130   5.353   3.965   4.152
 1722TIP3    H2 5131   5.423   4.097   4.128
 1723TIP3   OH2 5132   1.403   3.092   2.614
 1723TIP3    H1 5133   1.350   3.049   2.547
 1723TIP3    H2 5134   1.395   3.185   2.595
 1724TIP3   OH2 5135   6.150   5.810   5.519
 1724TIP3    H1 5136   6.076   5.851   5.475
 1724TIP3    H2 5137   6.225   5.828   5.461
 1725TIP3   OH2 5138   4.763   1.503   5.357
 1725TIP3    H1 5139   4.779   1.541   5.271
 1725TIP3    H2 5140   4.679   1.457   5.347
 1726TIP3   OH2 5141   1.338   3.719   0.355
 1726TIP3    H1 5142   1.420   3.755   0.389
 1726TIP3    H2 5143   1.366   3.648   0.297
 1727TIP3   OH2 5144   4.711   3.113   3.568
 1727TIP3    H1 5145   4.753   3.096   3.653
 1727TIP3    H2 5146   4.774   3.079   3.504
 1728TIP3   OH2 5147   5.115   5.960   3.850
 1728TIP3    H1 5148   5.198   5.969   3.898
 1728TIP3    H2 5149   5.122   6.023   3.779
 1729TIP3   OH2 5150   2.784   1.261   1.388
 1729TIP3    H1 5151   2.719   1.321   1.424
 1729TIP3    H2 5152   2.734   1.185   1.361
 1730TIP3   OH2 5153   1.147   0.924   0.125
 1730TIP3    H1 5154   1.111   0.874   0.199
 1730TIP3    H2 5155   1.169   1.009   0.163
 1731TIP3   OH2 5156   2.023   2.251   4.416
 1731TIP3    H1 5157   2.110   2.283   4.393
 1731TIP3    H2 5158   1.987   2.319   4.473
 1732TIP3   OH2 5159   6.940   6.478   5.247
 1732TIP3    H1 5160   6.936   6.406   5.310
 1732TIP3    H2 5161   6.992   6.443   5.175
 1733TIP3   OH2 5162   7.005   0.273   3.571
 1733TIP3    H1 5163   6.969   0.360   3.586
 1733TIP3    H2 5164   6.928   0.217   3.558
 1734TIP3   OH2 5165   3.930   5.780   4.977
 1734TIP3    H1 5166   3.955   5.756   5.066
 1734TIP3    H2 5167   3.992   5.733   4.921
 1735TIP3   OH2 5168   3.469   0.955   2.259
 1735TIP3    H1 5169   3.387   0.918   2.227
 1735TIP3    H2 5170   3.505   0.888   2.317
 1736TIP3   OH2 5171   2.398   1.252   0.298
 1736TIP3    H1 5172   2.352   1.332   0.272
 1736TIP3    H2 5173   2.369   1.236   0.387
 1737TIP3   OH2 5174   1.897   1.993   4.393
 1737TIP3    H1 5175   1.898   2.088   4.380
 1737TIP3    H2 5176   1.987   1.965   4.378
 1738TIP3   OH2 5177   5.782   3.911   2.922
 1738TIP3    H1 5178   5.876   3.922   2.914
 1738TIP3    H2 5179   5.749   3.926   2.833
 1739TIP3   OH2 5180   6.592   5.285   3.720
 1739TIP3    H1 5181   6.643   5.302   3.641
 1739TIP3    H2 5182   6.501   5.300   3.695
 1740TIP3   OH2 5183   3.534   2.854   3.901
 1740TIP3    H1 5184   3.494   2.873   3.817
 1740TIP3    H2 5185   3.576   2.936   3.927
 1741TIP3   OH2 5186   2.351   0.842   5.550
 1741TIP3    H1 5187   2.406   0.919   5.564
 1741TIP3    H2 5188   2.388   0.776   5.609
 1742TIP3   OH2 5189   4.365   2.013   3.053
 1742TIP3    H1 5190   4.295   2.068   3.089
 1742TIP3    H2 5191   4.441   2.071   3.049
 1743TIP3   OH2 5192   5.823   3.304   2.545
 1743TIP3    H1 5193   5.913   3.280   2.567
 1743TIP3    H2 5194   5.832   3.390   2.502
 1744TIP3   OH2 5195   4.310   4.530   2.873
 1744TIP3    H1 5196   4.216   4.535   2.854
 1744TIP3    H2 5197   4.337   4.446   2.837
 1745TIP3   OH2 5198   2.660   5.070   3.951
 1745TIP3    H1 5199   2.666   4.974   3.957
 1745TIP3    H2 5200   2.727   5.095   3.888
 1746TIP3   OH2 5201   1.909   2.692   3.482
 1746TIP3    H1 5202   1.871   2.697   3.395
 1746TIP3    H2 5203   1.947   2.605   3.488
 1747TIP3   OH2 5204   5.227   0.305   2.628
 1747TIP3    H1 5205   5.308   0.255   2.621
 1747TIP3    H2 5206   5.255   0.396   2.631
 1748TIP3   OH2 5207   3.969   3.710   0.687
 1748TIP3    H1 5208   3.896   3.736   0.742
 1748TIP3    H2 5209   3.983   3.785   0.628
 1749TIP3   OH2 5210   0.829   1.240   5.352
 1749TIP3    H1 5211   0.858   1.255   5.442
 1749TIP3    H2 5212   0.733   1.237   5.358
 1750TIP3   OH2 5213   1.405   6.494   5.465
 1750TIP3    H1 5214   1.436   6.502   5.374
 1750TIP3    H2 5215   1.357   6.575   5.481
 1751TIP3   OH2 5216   1.128   6.495   2.965
 1751TIP3    H1 5217   1.096   6.426   3.023
 1751TIP3    H2 5218   1.099   6.468   2.878
 1752TIP3   OH2 5219   5.749   3.782   4.875
 1752TIP3    H1 5220   5.658   3.811   4.872
 1752TIP3    H2 5221   5.754   3.726   4.952
 1753TIP3   OH2 5222   3.652   4.736   1.520
 1753TIP3    H1 5223   3.564   4.700   1.515
 1753TIP3    H2 5224   3.704   4.668   1.564
 1754TIP3   OH2 5225   0.796   2.787   0.941
 1754TIP3    H1 5226   0.716   2.734   0.937
 1754TIP3    H2 5227   0.815   2.808   0.849
 1755TIP3   OH2 5228   2.950   6.070   1.337
 1755TIP3    H1 5229   2.914   6.098   1.421
 1755TIP3    H2 5230   2.873   6.060   1.281
 1756TIP3   OH2 5231   5.846   1.571   0.077
 1756TIP3    H1 5232   5.878   1.484   0.053
 1756TIP3    H2 5233   5.860   1.576   0.172
 1757TIP3   OH2 5234   3.040   3.041   2.476
 1757TIP3    H1 5235   3.042   3.063   2.382
 1757TIP3    H2 5236   2.976   3.102   2.513
 1758TIP3   OH2 5237   1.754   4.858   3.828
 1758TIP3    H1 5238   1.772   4.853   3.922
 1758TIP3    H2 5239   1.659   4.849   3.821
 1759TIP3   OH2 5240   3.114   1.456   3.683
 1759TIP3    H1 5241   3.093   1.509   3.606
 1759TIP3    H2 5242   3.046   1.388   3.683
 1760TIP3   OH2 5243   4.405   0.385   3.665
 1760TIP3    H1 5244   4.383   0.297   3.695
 1760TIP3    H2 5245   4.451   0.371   3.582
 1761TIP3   OH2 5246   3.592   4.020   4.474
 1761TIP3    H1 5247   3.620   4.096   4.525
 1761TIP3    H2 5248   3.557   3.959   4.538
 1762TIP3   OH2 5249   1.266   2.821   1.469
 1762TIP3    H1 5250   1.345   2.791   1.424
 1762TIP3    H2 5251   1.293   2.902   1.512
 1763TIP3   OH2 5252   1.591   1.379   4.069
 1763TIP3    H1 5253   1.621   1.312   4.008
 1763TIP3    H2 5254   1.639   1.458   4.044
 1764TIP3   OH2 5255   6.251   0.251   3.989
 1764TIP3    H1 5256   6.259   0.273   3.896
 1764TIP3    H2 5257   6.338   0.267   4.025
 1765TIP3   OH2 5258   2.410   2.059   3.361
 1765TIP3    H1 5259   2.350   2.125   3.327
 1765TIP3    H2 5260   2.495   2.083   3.325
 1766TIP3   OH2 5261   2.634   6.175   3.600
 1766TIP3    H1 5262   2.647   6.156   3.693
 1766TIP3    H2 5263   2.718   6.152   3.560
 1767TIP3   OH2 5264   6.745   0.625   1.618
 1767TIP3    H1 5265   6.725   0.583   1.702
 1767TIP3    H2 5266   6.674   0.688   1.605
 1768TIP3   OH2 5267   2.636   3.273   1.526
 1768TIP3    H1 5268   2.722   3.233   1.540
 1768TIP3    H2 5269   2.574   3.200   1.530
 1769TIP3   OH2 5270   1.685   2.215   5.333
 1769TIP3    H1 5271   1.774   2.247   5.318
 1769TIP3    H2 5272   1.630   2.293   5.334
 1770TIP3   OH2 5273   5.810   0.874   3.717
 1770TIP3    H1 5274   5.881   0.843   3.661
 1770TIP3    H2 5275   5.839   0.852   3.806
 1771TIP3   OH2 5276   5.473   3.654   1.261
 1771TIP3    H1 5277   5.420   3.663   1.182
 1771TIP3    H2 5278   5.410   3.668   1.333
 1772TIP3   OH2 5279   2.399   5.385   0.277
 1772TIP3    H1 5280   2.453   5.307   0.261
 1772TIP3    H2 5281   2.313   5.350   0.302
 1773TIP3   OH2 5282   7.075   1.202   5.126
 1773TIP3    H1 5283   7.117   1.266   5.069
 1773TIP3    H2 5284   6.982   1.215   5.112
 1774TIP3   OH2 5285   1.506   1.822   5.619
 1774TIP3    H1 5286   1.433   1.764   5.642
 1774TIP3    H2 5287   1.572   1.764   5.582
 1775TIP3   OH2 5288   0.032   2.810   1.948
 1775TIP3    H1 5289   0.028   2.895   1.991
 1775TIP3    H2 5290   0.109   2.767   1.986
 1776TIP3   OH2 5291   3.064   4.913   0.712
 1776TIP3    H1 5292   2.975   4.932   0.739
 1776TIP3    H2 5293   3.087   4.984   0.652
 1777TIP3   OH2 5294   6.305   6.515   2.041
 1777TIP3    H1 5295   6.240   6.510   1.971
 1777TIP3    H2 5296   6.284   6.596   2.088
 1778TIP3   OH2 5297   7.146   2.360   5.333
 1778TIP3    H1 5298   7.057   2.353   5.367
 1778TIP3    H2 5299   7.150   2.295   5.262
 1779TIP3   OH2 5300   3.333   4.675   1.516
 1779TIP3    H1 5301   3.252   4.725   1.526
 1779TIP3    H2 5302   3.357   4.686   1.424
 1780TIP3   OH2 5303   1.446   4.925   3.211
 1780TIP3    H1 5304   1.489   4.854   3.258
 1780TIP3    H2 5305   1.482   4.921   3.123
 1781TIP3   OH2 5306   4.572   5.523   4.140
 1781TIP3    H1 5307   4.516   5.445   4.144
 1781TIP3    H2 5308   4.515   5.593   4.110
 1782TIP3   OH2 5309   4.017   2.816   5.103
 1782TIP3    H1 5310   3.972   2.733   5.118
 1782TIP3    H2 5311   4.092   2.814   5.163
 1783TIP3   OH2 5312   1.882   3.395   2.884
 1783TIP3    H1 5313   1.820   3.367   2.951
 1783TIP3    H2 5314   1.938   3.318   2.870
 1784TIP3   OH2 5315   0.833   4.963   3.381
 1784TIP3    H1 5316   0.861   4.872   3.374
 1784TIP3    H2 5317   0.863   5.004   3.300
 1785TIP3   OH2 5318   5.232   0.281   1.782
 1785TIP3    H1 5319   5.164   0.328   1.734
 1785TIP3    H2 5320   5.188   0.251   1.862
 1786TIP3   OH2 5321   4.621   0.311   3.161
 1786TIP3    H1 5322   4.615   0.402   3.190
 1786TIP3    H2 5323   4.707   0.305   3.118
 1787TIP3   OH2 5324   0.326   1.147   1.474
 1787TIP3    H1 5325   0.284   1.061   1.473
 1787TIP3    H2 5326   0.355   1.161   1.384
 1788TIP3   OH2 5327   0.373   4.137   2.660
 1788TIP3    H1 5328   0.319   4.099   2.591
 1788TIP3    H2 5329   0.316   4.141   2.737
 1789TIP3   OH2 5330   4.178   0.022   4.091
 1789TIP3    H1 5331   4.118   0.094   4.069
 1789TIP3    H2 5332   4.121  -0.047   4.126
 1790TIP3   OH2 5333   6.866   4.655   1.604
 1790TIP3    H1 5334   6.895   4.745   1.615
 1790TIP3    H2 5335   6.820   4.633   1.685
 1791TIP3   OH2 5336   5.820   0.363   0.390
 1791TIP3    H1 5337   5.860   0.292   0.340
 1791TIP3    H2 5338   5.756   0.319   0.446
 1792TIP3   OH2 5339   7.159   5.961   3.728
 1792TIP3    H1 5340   7.232   5.901   3.737
 1792TIP3    H2 5341   7.121   5.967   3.816
 1793TIP3   OH2 5342   6.041   0.711   4.501
 1793TIP3    H1 5343   6.093   0.712   4.581
 1793TIP3    H2 5344   5.952   0.694   4.530
 1794TIP3   OH2 5345   6.110   6.718   4.165
 1794TIP3    H1 5346   6.132   6.641   4.113
 1794TIP3    H2 5347   6.042   6.688   4.225
 1795TIP3   OH2 5348   0.782   3.475   2.506
 1795TIP3    H1 5349   0.851   3.527   2.547
 1795TIP3    H2 5350   0.804   3.474   2.413
 1796TIP3   OH2 5351   5.667   4.903   2.781
 1796TIP3    H1 5352   5.626   4.818   2.763
 1796TIP3    H2 5353   5.753   4.896   2.739
 1797TIP3   OH2 5354   2.804   5.136   5.652
 1797TIP3    H1 5355   2.838   5.063   5.703
 1797TIP3    H2 5356   2.721   5.105   5.617
 1798TIP3   OH2 5357   3.512   6.326   2.229
 1798TIP3    H1 5358   3.483   6.356   2.315
 1798TIP3    H2 5359   3.432   6.293   2.187
 1799TIP3   OH2 5360   0.737   5.265   1.270
 1799TIP3    H1 5361   0.824   5.227   1.286
 1799TIP3    H2 5362   0.732   5.338   1.331
 1800TIP3   OH2 5363   0.020   1.360   4.970
 1800TIP3    H1 5364   0.046   1.450   4.985
 1800TIP3    H2 5365  -0.007   1.358   4.878
 1801TIP3   OH2 5366   6.554   0.876   0.059
 1801TIP3    H1 5367   6.607   0.835  -0.010
 1801TIP3    H2 5368   6.599   0.957   0.079
 1802TIP3   OH2 5369   6.028   4.680  -0.018
 1802TIP3    H1 5370   6.003   4.631   0.060
 1802TIP3    H2 5371   5.992   4.767  -0.005
 1803TIP3   OH2 5372   4.387   3.957   5.509
 1803TIP3    H1 5373   4.368   3.983   5.419
 1803TIP3    H2 5374   4.361   4.032   5.562
 1804TIP3   OH2 5375   6.439   4.894   4.120
 1804TIP3    H1 5376   6.410   4.832   4.187
 1804TIP3    H2 5377   6.417   4.980   4.155
 1805TIP3   OH2 5378   1.993   1.764   2.468
 1805TIP3    H1 5379   1.931   1.765   2.541
 1805TIP3    H2 5380   2.001   1.671   2.445
 1806TIP3   OH2 5381   6.544   1.608   0.375
 1806TIP3    H1 5382   6.488   1.534   0.351
 1806TIP3    H2 5383   6.484   1.673   0.412
 1807TIP3   OH2 5384   2.305   0.759   4.736
 1807TIP3    H1 5385   2.216   0.767   4.771
 1807TIP3    H2 5386   2.338   0.849   4.734
 1808TIP3   OH2 5387   0.381   5.630   3.787
 1808TIP3    H1 5388   0.357   5.664   3.873
 1808TIP3    H2 5389   0.299   5.594   3.752
 1809TIP3   OH2 5390   2.288   5.482   5.285
 1809TIP3    H1 5391   2.372   5.436   5.275
 1809TIP3    H2 5392   2.249   5.479   5.197
 1810TIP3   OH2 5393   4.781   5.852   1.372
 1810TIP3    H1 5394   4.868   5.885   1.349
 1810TIP3    H2 5395   4.778   5.856   1.468
 1811TIP3   OH2 5396   3.817   3.725   1.372
 1811TIP3    H1 5397   3.846   3.647   1.327
 1811TIP3    H2 5398   3.744   3.695   1.427
 1812TIP3   OH2 5399   0.460   2.428   3.560
 1812TIP3    H1 5400   0.545   2.453   3.523
 1812TIP3    H2 5401   0.416   2.511   3.577
 1813TIP3   OH2 5402   4.916   4.622   1.814
 1813TIP3    H1 5403   4.830   4.652   1.786
 1813TIP3    H2 5404   4.965   4.702   1.835
 1814TIP3   OH2 5405   3.364   1.000   5.124
 1814TIP3    H1 5406   3.423   1.003   5.049
 1814TIP3    H2 5407   3.384   0.918   5.168
 1815TIP3   OH2 5408   4.833   4.862   3.057
 1815TIP3    H1 5409   4.919   4.880   3.095
 1815TIP3    H2 5410   4.845   4.873   2.963
 1816TIP3   OH2 5411   6.455   1.683   4.005
 1816TIP3    H1 5412   6.387   1.664   3.940
 1816TIP3    H2 5413   6.535   1.645   3.969
 1817TIP3   OH2 5414   5.354   3.566   3.348
 1817TIP3    H1 5415   5.322   3.477   3.360
 1817TIP3    H2 5416   5.447   3.556   3.331
 1818TIP3   OH2 5417   1.361   4.304   5.521
 1818TIP3    H1 5418   1.359   4.369   5.450
 1818TIP3    H2 5419   1.336   4.222   5.479
 1819TIP3   OH2 5420   0.508   3.302   3.250
 1819TIP3    H1 5421   0.441   3.368   3.270
 1819TIP3    H2 5422   0.580   3.323   3.310
 1820TIP3   OH2 5423   0.753   3.923   1.674
 1820TIP3    H1 5424   0.677   3.931   1.616
 1820TIP3    H2 5425   0.762   3.829   1.688
 1821TIP3   OH2 5426   6.122   3.733   2.015
 1821TIP3    H1 5427   6.207   3.772   1.997
 1821TIP3    H2 5428   6.092   3.700   1.930
 1822TIP3   OH2 5429   4.226   5.626   2.504
 1822TIP3    H1 5430   4.202   5.709   2.545
 1822TIP3    H2 5431   4.146   5.597   2.460
 1823TIP3   OH2 5432   4.988   4.172   4.472
 1823TIP3    H1 5433   4.973   4.236   4.541
 1823TIP3    H2 5434   4.901   4.142   4.447
 1824TIP3   OH2 5435   5.258   5.974   0.954
 1824TIP3    H1 5436   5.270   5.943   0.864
 1824TIP3    H2 5437   5.163   5.979   0.965
 1825TIP3   OH2 5438   7.217   6.277   2.372
 1825TIP3    H1 5439   7.256   6.349   2.423
 1825TIP3    H2 5440   7.181   6.218   2.438
 1826TIP3   OH2 5441   1.799   1.758   2.278
 1826TIP3    H1 5442   1.839   1.744   2.192
 1826TIP3    H2 5443   1.872   1.787   2.334
 1827TIP3   OH2 5444   1.658  -0.044   1.339
 1827TIP3    H1 5445   1.631  -0.018   1.427
 1827TIP3    H2 5446   1.642   0.034   1.286
 1828TIP3   OH2 5447   1.449   6.027   1.623
 1828TIP3    H1 5448   1.507   6.027   1.547
 1828TIP3    H2 5449   1.438   5.935   1.646
 1829TIP3   OH2 5450   6.372   5.128   4.336
 1829TIP3    H1 5451   6.306   5.152   4.401
 1829TIP3    H2 5452   6.452   5.170   4.367
 1830TIP3   OH2 5453   2.753   4.565   0.597
 1830TIP3    H1 5454   2.763   4.555   0.502
 1830TIP3    H2 5455   2.824   4.624   0.622
 1831TIP3   OH2 5456   0.403   5.555   2.003
 1831TIP3    H1 5457   0.467   5.506   2.055
 1831TIP3    H2 5458   0.387   5.500   1.927
 1832TIP3   OH2 5459   3.775   4.686   3.776
 1832TIP3    H1 5460   3.700   4.722   3.730
 1832TIP3    H2 5461   3.760   4.592   3.778
 1833TIP3   OH2 5462   4.725   1.431   2.101
 1833TIP3    H1 5463   4.799   1.491   2.114
 1833TIP3    H2 5464   4.651   1.488   2.084
 1834TIP3   OH2 5465   2.246   4.526   5.415
 1834TIP3    H1 5466   2.283   4.608   5.384
 1834TIP3    H2 5467   2.323   4.474   5.441
 1835TIP3   OH2 5468   2.382   1.674   4.768
 1835TIP3    H1 5469   2.461   1.630   4.801
 1835TIP3    H2 5470   2.414   1.733   4.700
 1836TIP3   OH2 5471   4.284   1.928   1.015
 1836TIP3    H1 5472   4.361   1.871   1.017
 1836TIP3    H2 5473   4.211   1.869   0.995
 1837TIP3   OH2 5474   6.545   1.082   0.950
 1837TIP3    H1 5475   6.493   1.161   0.933
 1837TIP3    H2 5476   6.629   1.115   0.982
 1838TIP3   OH2 5477   0.659   2.557   3.437
 1838TIP3    H1 5478   0.749   2.567   3.468
 1838TIP3    H2 5479   0.668   2.533   3.345
 1839TIP3   OH2 5480   2.737   4.590   0.331
 1839TIP3    H1 5481   2.758   4.507   0.287
 1839TIP3    H2 5482   2.727   4.653   0.260
 1840TIP3   OH2 5483   3.672   5.251   4.358
 1840TIP3    H1 5484   3.633   5.271   4.273
 1840TIP3    H2 5485   3.600   5.218   4.411
 1841TIP3   OH2 5486   2.067   6.066   1.696
 1841TIP3    H1 5487   2.029   6.137   1.644
 1841TIP3    H2 5488   2.062   6.098   1.786
 1842TIP3   OH2 5489   6.003   1.338   0.020
 1842TIP3    H1 5490   6.060   1.312   0.093
 1842TIP3    H2 5491   6.053   1.318  -0.058
 1843TIP3   OH2 5492   2.622   3.766   2.676
 1843TIP3    H1 5493   2.571   3.831   2.724
 1843TIP3    H2 5494   2.711   3.773   2.711
 1844TIP3   OH2 5495   5.048   0.131   2.286
 1844TIP3    H1 5496   5.088   0.076   2.353
 1844TIP3    H2 5497   4.991   0.191   2.334
 1845TIP3   OH2 5498   3.153   6.488   3.313
 1845TIP3    H1 5499   3.080   6.526   3.265
 1845TIP3    H2 5500   3.202   6.439   3.248
 1846TIP3   OH2 5501   0.257   3.338   5.440
 1846TIP3    H1 5502   0.255   3.328   5.536
 1846TIP3    H2 5503   0.175   3.299   5.410
 1847TIP3   OH2 5504   7.214   4.005   1.325
 1847TIP3    H1 5505   7.197   3.944   1.254
 1847TIP3    H2 5506   7.130   4.014   1.370
 1848TIP3   OH2 5507   1.204   2.429   0.204
 1848TIP3    H1 5508   1.171   2.355   0.154
 1848TIP3    H2 5509   1.160   2.505   0.166
 1849TIP3   OH2 5510   0.270   3.212   0.658
 1849TIP3    H1 5511   0.326   3.240   0.731
 1849TIP3    H2 5512   0.218   3.290   0.636
 1850TIP3   OH2 5513   3.391   1.768   1.489
 1850TIP3    H1 5514   3.452   1.835   1.458
 1850TIP3    H2 5515   3.323   1.765   1.422
 1851TIP3   OH2 5516   0.858   0.824   3.974
 1851TIP3    H1 5517   0.832   0.786   4.058
 1851TIP3    H2 5518   0.776   0.839   3.928
 1852TIP3   OH2 5519   1.428   1.374   4.433
 1852TIP3    H1 5520   1.469   1.453   4.469
 1852TIP3    H2 5521   1.501   1.312   4.421
 1853TIP3   OH2 5522   6.517   0.104   5.690
 1853TIP3    H1 5523   6.479   0.017   5.683
 1853TIP3    H2 5524   6.543   0.126   5.600
 1854TIP3   OH2 5525   4.499   2.141   2.791
 1854TIP3    H1 5526   4.552   2.094   2.727
 1854TIP3    H2 5527   4.530   2.231   2.787
 1855TIP3   OH2 5528   3.400   1.315   4.736
 1855TIP3    H1 5529   3.312   1.352   4.745
 1855TIP3    H2 5530   3.397   1.233   4.785
 1856TIP3   OH2 5531   0.234   6.799   0.402
 1856TIP3    H1 5532   0.253   6.770   0.491
 1856TIP3    H2 5533   0.227   6.718   0.352
 1857TIP3   OH2 5534   2.445   6.566   4.634
 1857TIP3    H1 5535   2.532   6.557   4.595
 1857TIP3    H2 5536   2.460   6.560   4.728
 1858TIP3   OH2 5537   2.629   3.518   0.871
 1858TIP3    H1 5538   2.652   3.564   0.951
 1858TIP3    H2 5539   2.537   3.541   0.856
 1859TIP3   OH2 5540   6.225   1.242   5.431
 1859TIP3    H1 5541   6.233   1.258   5.525
 1859TIP3    H2 5542   6.163   1.169   5.424
 1860TIP3   OH2 5543   4.430   4.726   1.256
 1860TIP3    H1 5544   4.504   4.746   1.313
 1860TIP3    H2 5545   4.428   4.799   1.194
 1861TIP3   OH2 5546   2.674   2.962   1.436
 1861TIP3    H1 5547   2.588   2.996   1.463
 1861TIP3    H2 5548   2.663   2.867   1.433
 1862TIP3   OH2 5549   0.500   6.230   4.083
 1862TIP3    H1 5550   0.514   6.323   4.100
 1862TIP3    H2 5551   0.588   6.194   4.070
 1863TIP3   OH2 5552   2.664   0.283   1.610
 1863TIP3    H1 5553   2.625   0.362   1.574
 1863TIP3    H2 5554   2.681   0.305   1.702
 1864TIP3   OH2 5555   0.413   1.105   5.220
 1864TIP3    H1 5556   0.318   1.119   5.220
 1864TIP3    H2 5557   0.434   1.080   5.310
 1865TIP3   OH2 5558   2.119   1.195   4.216
 1865TIP3    H1 5559   2.161   1.244   4.287
 1865TIP3    H2 5560   2.059   1.257   4.176
 1866TIP3   OH2 5561   6.565   5.154   2.686
 1866TIP3    H1 5562   6.600   5.084   2.741
 1866TIP3    H2 5563   6.491   5.189   2.736
 1867TIP3   OH2 5564   6.663   5.397   5.317
 1867TIP3    H1 5565   6.725   5.360   5.379
 1867TIP3    H2 5566   6.577   5.379   5.355
 1868TIP3   OH2 5567   7.000   4.290   2.208
 1868TIP3    H1 5568   7.086   4.331   2.205
 1868TIP3    H2 5569   7.012   4.208   2.158
 1869TIP3   OH2 5570   5.277   2.326   5.650
 1869TIP3    H1 5571   5.280   2.408   5.698
 1869TIP3    H2 5572   5.292   2.258   5.716
 1870TIP3   OH2 5573   6.107   3.518   4.810
 1870TIP3    H1 5574   6.166   3.443   4.806
 1870TIP3    H2 5575   6.021   3.480   4.829
 1871TIP3   OH2 5576   2.806   4.946   1.477
 1871TIP3    H1 5577   2.731   4.890   1.456
 1871TIP3    H2 5578   2.834   4.916   1.564
 1872TIP3   OH2 5579   3.088   4.505   2.353
 1872TIP3    H1 5580   3.032   4.560   2.407
 1872TIP3    H2 5581   3.050   4.510   2.266
 1873TIP3   OH2 5582   3.916   6.047   4.783
 1873TIP3    H1 5583   3.925   5.952   4.775
 1873TIP3    H2 5584   3.863   6.060   4.861
 1874TIP3   OH2 5585   6.996   1.509   0.607
 1874TIP3    H1 5586   6.934   1.500   0.534
 1874TIP3    H2 5587   7.082   1.491   0.568
 1875TIP3   OH2 5588   6.216   5.617   3.128
 1875TIP3    H1 5589   6.153   5.650   3.063
 1875TIP3    H2 5590   6.247   5.696   3.173
 1876TIP3   OH2 5591   3.992   0.430   1.841
 1876TIP3    H1 5592   3.924   0.492   1.812
 1876TIP3    H2 5593   4.059   0.436   1.774
 1877TIP3   OH2 5594   2.466   5.369   1.372
 1877TIP3    H1 5595   2.423   5.329   1.297
 1877TIP3    H2 5596   2.422   5.454   1.382
 1878TIP3   OH2 5597   2.805   1.107   2.802
 1878TIP3    H1 5598   2.824   1.148   2.718
 1878TIP3    H2 5599   2.810   1.180   2.865
 1879TIP3   OH2 5600   2.183   2.240   4.877
 1879TIP3    H1 5601   2.258   2.288   4.841
 1879TIP3    H2 5602   2.148   2.191   4.803
 1880TIP3   OH2 5603   3.142   3.325   0.861
 1880TIP3    H1 5604   3.139   3.326   0.956
 1880TIP3    H2 5605   3.216   3.382   0.838
 1881TIP3   OH2 5606   1.562   6.303   5.183
 1881TIP3    H1 5607   1.553   6.283   5.090
 1881TIP3    H2 5608   1.549   6.397   5.190
 1882TIP3   OH2 5609   2.044   0.899   2.875
 1882TIP3    H1 5610   2.026   0.810   2.903
 1882TIP3    H2 5611   2.044   0.950   2.956
 1883TIP3   OH2 5612   5.633   5.299   3.737
 1883TIP3    H1 5613   5.554   5.265   3.780
 1883TIP3    H2 5614   5.617   5.393   3.729
 1884TIP3   OH2 5615   6.910   2.239   0.048
 1884TIP3    H1 5616   6.919   2.160  -0.005
 1884TIP3    H2 5617   6.960   2.305   0.001
 1885TIP3   OH2 5618   4.555   3.536   4.205
 1885TIP3    H1 5619   4.645   3.569   4.200
 1885TIP3    H2 5620   4.553   3.488   4.288
 1886TIP3   OH2 5621   0.189   6.646   5.886
 1886TIP3    H1 5622   0.195   6.723   5.830
 1886TIP3    H2 5623   0.251   6.663   5.957
 1887TIP3   OH2 5624   3.557   6.647   0.875
 1887TIP3    H1 5625   3.604   6.591   0.814
 1887TIP3    H2 5626   3.595   6.734   0.862
 1888TIP3   OH2 5627   5.347   0.046   5.718
 1888TIP3    H1 5628   5.315   0.094   5.793
 1888TIP3    H2 5629   5.272   0.038   5.660
 1889TIP3   OH2 5630   0.835   0.815   3.621
 1889TIP3    H1 5631   0.787   0.863   3.688
 1889TIP3    H2 5632   0.894   0.880   3.583
 1890TIP3   OH2 5633   1.366   2.649   0.868
 1890TIP3    H1 5634   1.325   2.735   0.863
 1890TIP3    H2 5635   1.458   2.665   0.848
 1891TIP3   OH2 5636   4.994   0.756   1.127
 1891TIP3    H1 5637   4.947   0.711   1.057
 1891TIP3    H2 5638   5.057   0.691   1.159
 1892TIP3   OH2 5639   3.643   1.933   2.035
 1892TIP3    H1 5640   3.712   1.977   2.085
 1892TIP3    H2 5641   3.679   1.847   2.015
 1893TIP3   OH2 5642   2.495   2.075   0.270
 1893TIP3    H1 5643   2.402   2.088   0.252
 1893TIP3    H2 5644   2.518   2.146   0.329
 1894TIP3   OH2 5645   0.481   4.475   1.412
 1894TIP3    H1 5646   0.546   4.490   1.343
 1894TIP3    H2 5647   0.505   4.535   1.481
 1895TIP3   OH2 5648   3.827   4.746   5.403
 1895TIP3    H1 5649   3.816   4.739   5.498
 1895TIP3    H2 5650   3.897   4.810   5.392
 1896TIP3   OH2 5651   0.684   4.806   0.139
 1896TIP3    H1 5652   0.682   4.845   0.226
 1896TIP3    H2 5653   0.721   4.719   0.152
 1897TIP3   OH2 5654   0.869   6.300   2.419
 1897TIP3    H1 5655   0.879   6.222   2.473
 1897TIP3    H2 5656   0.780   6.295   2.385
 1898TIP3   OH2 5657   4.361   2.832   2.249
 1898TIP3    H1 5658   4.292   2.818   2.313
 1898TIP3    H2 5659   4.323   2.805   2.166
 1899TIP3   OH2 5660   5.290   6.490   2.949
 1899TIP3    H1 5661   5.210   6.458   2.990
 1899TIP3    H2 5662   5.324   6.555   3.010
 1900TIP3   OH2 5663   1.230   1.945   5.230
 1900TIP3    H1 5664   1.193   1.868   5.273
 1900TIP3    H2 5665   1.156   1.983   5.182
 1901TIP3   OH2 5666   5.165   1.153   5.689
 1901TIP3    H1 5667   5.189   1.060   5.687
 1901TIP3    H2 5668   5.087   1.156   5.745
 1902TIP3   OH2 5669   6.305   6.647   4.947
 1902TIP3    H1 5670   6.261   6.562   4.945
 1902TIP3    H2 5671   6.296   6.681   4.858
 1903TIP3   OH2 5672   0.595   6.555   4.779
 1903TIP3    H1 5673   0.577   6.618   4.710
 1903TIP3    H2 5674   0.663   6.595   4.832
 1904TIP3   OH2 5675   4.230   5.962   5.177
 1904TIP3    H1 5676   4.295   5.993   5.240
 1904TIP3    H2 5677   4.279   5.956   5.095
 1905TIP3   OH2 5678   6.332   4.253   3.260
 1905TIP3    H1 5679   6.263   4.307   3.219
 1905TIP3    H2 5680   6.412   4.302   3.246
 1906TIP3   OH2 5681   6.768   1.294   1.494
 1906TIP3    H1 5682   6.702   1.362   1.479
 1906TIP3    H2 5683   6.809   1.280   1.408
 1907TIP3   OH2 5684   2.798   0.639   2.976
 1907TIP3    H1 5685   2.848   0.615   2.898
 1907TIP3    H2 5686   2.742   0.563   2.993
 1908TIP3   OH2 5687   4.261   2.792   2.000
 1908TIP3    H1 5688   4.303   2.823   1.919
 1908TIP3    H2 5689   4.242   2.700   1.983
 1909TIP3   OH2 5690   2.055   3.872   2.230
 1909TIP3    H1 5691   1.972   3.827   2.240
 1909TIP3    H2 5692   2.121   3.802   2.231
 1910TIP3   OH2 5693   4.560   4.748   2.174
 1910TIP3    H1 5694   4.517   4.667   2.203
 1910TIP3    H2 5695   4.538   4.812   2.241
 1911TIP3   OH2 5696   2.012   5.728   5.015
 1911TIP3    H1 5697   1.963   5.662   5.064
 1911TIP3    H2 5698   1.946   5.775   4.964
 1912TIP3   OH2 5699   2.100   3.941   5.800
 1912TIP3    H1 5700   2.057   3.856   5.792
 1912TIP3    H2 5701   2.170   3.939   5.734
 1913TIP3   OH2 5702   0.871   3.126   4.070
 1913TIP3    H1 5703   0.934   3.096   4.136
 1913TIP3    H2 5704   0.908   3.207   4.036
 1914TIP3   OH2 5705   0.880   5.975   4.746
 1914TIP3    H1 5706   0.875   5.880   4.734
 1914TIP3    H2 5707   0.973   5.992   4.763
 1915TIP3   OH2 5708   5.246   0.600   2.791
 1915TIP3    H1 5709   5.307   0.610   2.718
 1915TIP3    H2 5710   5.207   0.687   2.802
 1916TIP3   OH2 5711   2.965   0.549   0.571
 1916TIP3    H1 5712   2.926   0.635   0.586
 1916TIP3    H2 5713   3.005   0.556   0.484
 1917TIP3   OH2 5714   3.636   4.507   4.626
 1917TIP3    H1 5715   3.670   4.570   4.563
 1917TIP3    H2 5716   3.578   4.559   4.682
 1918TIP3   OH2 5717   3.357   2.680   1.151
 1918TIP3    H1 5718   3.420   2.669   1.080
 1918TIP3    H2 5719   3.281   2.721   1.109
 1919TIP3   OH2 5720   6.593   4.387   2.644
 1919TIP3    H1 5721   6.679   4.424   2.664
 1919TIP3    H2 5722   6.609   4.292   2.639
 1920TIP3   OH2 5723   1.281   1.655   0.293
 1920TIP3    H1 5724   1.231   1.730   0.326
 1920TIP3    H2 5725   1.285   1.668   0.199
 1921TIP3   OH2 5726   0.741   3.522   5.774
 1921TIP3    H1 5727   0.668   3.501   5.716
 1921TIP3    H2 5728   0.803   3.449   5.762
 1922TIP3   OH2 5729   3.015   2.028   2.454
 1922TIP3    H1 5730   2.942   2.082   2.486
 1922TIP3    H2 5731   3.088   2.089   2.443
 1923TIP3   OH2 5732   4.993   6.503   3.549
 1923TIP3    H1 5733   5.039   6.488   3.632
 1923TIP3    H2 5734   5.062   6.504   3.483
 1924TIP3   OH2 5735   0.510   4.965   5.530
 1924TIP3    H1 5736   0.501   4.932   5.441
 1924TIP3    H2 5737   0.457   4.904   5.583
 1925TIP3   OH2 5738   1.678   2.891   3.641
 1925TIP3    H1 5739   1.611   2.822   3.646
 1925TIP3    H2 5740   1.755   2.853   3.683
 1926TIP3   OH2 5741   3.103   4.912   2.367
 1926TIP3    H1 5742   3.187   4.868   2.381
 1926TIP3    H2 5743   3.040   4.859   2.415
 1927TIP3   OH2 5744   2.791   5.397   0.678
 1927TIP3    H1 5745   2.835   5.337   0.739
 1927TIP3    H2 5746   2.802   5.483   0.717
 1928TIP3   OH2 5747   0.881   2.839   4.052
 1928TIP3    H1 5748   0.952   2.816   4.111
 1928TIP3    H2 5749   0.922   2.889   3.982
 1929TIP3   OH2 5750   4.951   5.629   2.156
 1929TIP3    H1 5751   4.993   5.570   2.093
 1929TIP3    H2 5752   4.860   5.634   2.127
 1930TIP3   OH2 5753   2.799   2.900   2.088
 1930TIP3    H1 5754   2.759   2.826   2.042
 1930TIP3    H2 5755   2.826   2.959   2.018
 1931TIP3   OH2 5756   0.524   1.610   1.951
 1931TIP3    H1 5757   0.510   1.556   1.873
 1931TIP3    H2 5758   0.607   1.580   1.987
 1932TIP3   OH2 5759   3.915   3.544   5.771
 1932TIP3    H1 5760   3.826   3.558   5.803
 1932TIP3    H2 5761   3.933   3.452   5.787
 1933TIP3   OH2 5762   0.562   5.524   1.663
 1933TIP3    H1 5763   0.476   5.490   1.687
 1933TIP3    H2 5764   0.592   5.570   1.741
 1934TIP3   OH2 5765   3.946   0.587   2.419
 1934TIP3    H1 5766   4.032   0.548   2.408
 1934TIP3    H2 5767   3.961   0.661   2.478
 1935TIP3   OH2 5768   3.614   2.870   4.379
 1935TIP3    H1 5769   3.574   2.900   4.298
 1935TIP3    H2 5770   3.560   2.795   4.406
 1936TIP3   OH2 5771   7.154   3.782   4.701
 1936TIP3    H1 5772   7.211   3.843   4.748
 1936TIP3    H2 5773   7.065   3.810   4.723
 1937TIP3   OH2 5774   6.041   2.682   2.115
 1937TIP3    H1 5775   6.017   2.763   2.159
 1937TIP3    H2 5776   6.097   2.636   2.177
 1938TIP3   OH2 5777   3.098   3.048   2.216
 1938TIP3    H1 5778   3.066   2.975   2.164
 1938TIP3    H2 5779   3.193   3.046   2.204
 1939TIP3   OH2 5780   2.386   4.472   2.847
 1939TIP3    H1 5781   2.466   4.486   2.796
 1939TIP3    H2 5782   2.316   4.467   2.782
 1940TIP3   OH2 5783   4.260   4.110   5.287
 1940TIP3    H1 5784   4.242   4.100   5.193
 1940TIP3    H2 5785   4.253   4.205   5.302
 1941TIP3   OH2 5786   4.450   6.806   2.142
 1941TIP3    H1 5787   4.515   6.741   2.171
 1941TIP3    H2 5788   4.373   6.787   2.196
 1942TIP3   OH2 5789   0.440   2.812   5.048
 1942TIP3    H1 5790   0.455   2.864   4.969
 1942TIP3    H2 5791   0.517   2.829   5.102
 1943TIP3   OH2 5792   1.892   5.766   1.447
 1943TIP3    H1 5793   1.981   5.799   1.458
 1943TIP3    H2 5794   1.864   5.802   1.363
 1944TIP3   OH2 5795   6.509   3.733   4.047
 1944TIP3    H1 5796   6.503   3.768   3.958
 1944TIP3    H2 5797   6.603   3.719   4.061
 1945TIP3   OH2 5798   3.726   3.405   5.046
 1945TIP3    H1 5799   3.646   3.454   5.065
 1945TIP3    H2 5800   3.715   3.322   5.092
 1946TIP3   OH2 5801   2.135   3.809   3.800
 1946TIP3    H1 5802   2.194   3.875   3.838
 1946TIP3    H2 5803   2.047   3.839   3.823
 1947TIP3   OH2 5804   5.051   3.511   4.062
 1947TIP3    H1 5805   5.053   3.606   4.071
 1947TIP3    H2 5806   5.032   3.479   4.151
 1948TIP3   OH2 5807   6.159   0.221   5.030
 1948TIP3    H1 5808   6.102   0.151   5.062
 1948TIP3    H2 5809   6.124   0.301   5.069
 1949TIP3   OH2 5810   0.070   1.015   2.510
 1949TIP3    H1 5811  -0.023   1.021   2.535
 1949TIP3    H2 5812   0.116   1.058   2.583
 1950TIP3   OH2 5813   6.125   6.364   1.849
 1950TIP3    H1 5814   6.067   6.411   1.788
 1950TIP3    H2 5815   6.072   6.352   1.928
 1951TIP3   OH2 5816   0.116   0.244   5.158
 1951TIP3    H1 5817   0.070   0.213   5.079
 1951TIP3    H2 5818   0.075   0.328   5.178
 1952TIP3   OH2 5819   2.542   0.527   1.782
 1952TIP3    H1 5820   2.482   0.479   1.725
 1952TIP3    H2 5821   2.522   0.495   1.870
 1953TIP3   OH2 5822   0.632   2.100   5.061
 1953TIP3    H1 5823   0.550   2.142   5.085
 1953TIP3    H2 5824   0.606   2.022   5.013
 1954TIP3   OH2 5825   6.544   2.981   1.551
 1954TIP3    H1 5826   6.525   3.075   1.552
 1954TIP3    H2 5827   6.562   2.959   1.642
 1955TIP3   OH2 5828   2.362   4.225   0.259
 1955TIP3    H1 5829   2.415   4.186   0.190
 1955TIP3    H2 5830   2.388   4.317   0.260
 1956TIP3   OH2 5831   7.163   3.218   1.745
 1956TIP3    H1 5832   7.222   3.152   1.708
 1956TIP3    H2 5833   7.220   3.272   1.801
 1957TIP3   OH2 5834   2.787   4.090   5.365
 1957TIP3    H1 5835   2.860   4.036   5.335
 1957TIP3    H2 5836   2.756   4.134   5.285
 1958TIP3   OH2 5837   6.171   6.169   3.844
 1958TIP3    H1 5838   6.250   6.149   3.794
 1958TIP3    H2 5839   6.144   6.085   3.881
 1959TIP3   OH2 5840   3.860   1.531   4.181
 1959TIP3    H1 5841   3.858   1.455   4.122
 1959TIP3    H2 5842   3.778   1.524   4.231
 1960TIP3   OH2 5843   6.553   4.897   0.905
 1960TIP3    H1 5844   6.568   4.820   0.849
 1960TIP3    H2 5845   6.565   4.864   0.994
 1961TIP3   OH2 5846   3.002   1.422   2.233
 1961TIP3    H1 5847   3.081   1.430   2.288
 1961TIP3    H2 5848   3.029   1.456   2.148
 1962TIP3   OH2 5849   7.104   2.128   5.145
 1962TIP3    H1 5850   7.025   2.121   5.091
 1962TIP3    H2 5851   7.145   2.042   5.138
 1963TIP3   OH2 5852   5.489   2.287   2.321
 1963TIP3    H1 5853   5.483   2.261   2.229
 1963TIP3    H2 5854   5.480   2.383   2.319
 1964TIP3   OH2 5855   0.728   3.411   3.432
 1964TIP3    H1 5856   0.769   3.492   3.462
 1964TIP3    H2 5857   0.801   3.357   3.400
 1965TIP3   OH2 5858   2.985   6.613   3.673
 1965TIP3    H1 5859   3.007   6.521   3.680
 1965TIP3    H2 5860   2.908   6.615   3.615
 1966TIP3   OH2 5861   3.478   4.838   2.098
 1966TIP3    H1 5862   3.491   4.756   2.051
 1966TIP3    H2 5863   3.458   4.902   2.029
 1967TIP3   OH2 5864   4.765   1.671   5.875
 1967TIP3    H1 5865   4.737   1.621   5.797
 1967TIP3    H2 5866   4.725   1.757   5.864
 1968TIP3   OH2 5867   1.720   6.410   1.041
 1968TIP3    H1 5868   1.781   6.338   1.028
 1968TIP3    H2 5869   1.766   6.471   1.099
 1969TIP3   OH2 5870   3.517   2.115   3.928
 1969TIP3    H1 5871   3.571   2.048   3.971
 1969TIP3    H2 5872   3.580   2.182   3.900
 1970TIP3   OH2 5873   6.150   2.744   5.204
 1970TIP3    H1 5874   6.055   2.736   5.214
 1970TIP3    H2 5875   6.184   2.658   5.230
 1971TIP3   OH2 5876   3.169   3.321   0.140
 1971TIP3    H1 5877   3.252   3.279   0.161
 1971TIP3    H2 5878   3.185   3.364   0.056
 1972TIP3   OH2 5879   4.892   2.246   1.395
 1972TIP3    H1 5880   4.859   2.187   1.463
 1972TIP3    H2 5881   4.937   2.188   1.333
 1973TIP3   OH2 5882   1.671   5.899   2.477
 1973TIP3    H1 5883   1.761   5.914   2.449
 1973TIP3    H2 5884   1.619   5.958   2.423
 1974TIP3   OH2 5885   2.742   2.720   0.991
 1974TIP3    H1 5886   2.792   2.639   0.990
 1974TIP3    H2 5887   2.799   2.784   0.947
 1975TIP3   OH2 5888   3.210   4.652   2.919
 1975TIP3    H1 5889   3.167   4.663   3.004
 1975TIP3    H2 5890   3.293   4.698   2.928
 1976TIP3   OH2 5891   3.864   1.959   2.275
 1976TIP3    H1 5892   3.873   1.866   2.254
 1976TIP3    H2 5893   3.802   1.961   2.348
 1977TIP3   OH2 5894   2.238   1.078   5.212
 1977TIP3    H1 5895   2.168   1.073   5.147
 1977TIP3    H2 5896   2.304   1.134   5.172
 1978TIP3   OH2 5897   1.753   4.737   0.533
 1978TIP3    H1 5898   1.796   4.690   0.605
 1978TIP3    H2 5899   1.826   4.772   0.482
 1979TIP3   OH2 5900   4.476   4.916   3.221
 1979TIP3    H1 5901   4.543   4.849   3.234
 1979TIP3    H2 5902   4.421   4.881   3.151
 1980TIP3   OH2 5903   6.647   0.166   1.346
 1980TIP3    H1 5904   6.591   0.098   1.310
 1980TIP3    H2 5905   6.634   0.161   1.441
 1981TIP3   OH2 5906   6.691   5.946   2.841
 1981TIP3    H1 5907   6.621   6.001   2.877
 1981TIP3    H2 5908   6.662   5.925   2.752
 1982TIP3   OH2 5909   4.552   3.685   1.540
 1982TIP3    H1 5910   4.622   3.730   1.492
 1982TIP3    H2 5911   4.524   3.747   1.606
 1983TIP3   OH2 5912   3.932   2.387   2.826
 1983TIP3    H1 5913   3.988   2.402   2.750
 1983TIP3    H2 5914   3.843   2.394   2.792
 1984TIP3   OH2 5915   2.035   3.834   0.755
 1984TIP3    H1 5916   2.108   3.847   0.815
 1984TIP3    H2 5917   2.031   3.914   0.704
 1985TIP3   OH2 5918   3.986   0.279   5.404
 1985TIP3    H1 5919   4.061   0.302   5.350
 1985TIP3    H2 5920   3.910   0.306   5.353
 1986TIP3   OH2 5921   5.608   1.064   0.510
 1986TIP3    H1 5922   5.647   1.078   0.424
 1986TIP3    H2 5923   5.519   1.096   0.502
 1987TIP3   OH2 5924   0.001   2.897   5.357
 1987TIP3    H1 5925   0.091   2.910   5.327
 1987TIP3    H2 5926  -0.036   2.833   5.297
 1988TIP3   OH2 5927   6.884   6.214   4.331
 1988TIP3    H1 5928   6.825   6.222   4.406
 1988TIP3    H2 5929   6.972   6.214   4.369
 1989TIP3   OH2 5930   0.140   2.117   4.522
 1989TIP3    H1 5931   0.210   2.065   4.484
 1989TIP3    H2 5932   0.171   2.137   4.611
 1990TIP3   OH2 5933   2.272   5.633   3.938
 1990TIP3    H1 5934   2.339   5.593   3.883
 1990TIP3    H2 5935   2.201   5.656   3.877
 1991TIP3   OH2 5936   3.882   0.235   4.059
 1991TIP3    H1 5937   3.957   0.238   4.001
 1991TIP3    H2 5938   3.807   0.218   4.002
 1992TIP3   OH2 5939   6.733   5.638   3.733
 1992TIP3    H1 5940   6.745   5.725   3.773
 1992TIP3    H2 5941   6.687   5.587   3.800
 1993TIP3   OH2 5942   1.105   5.377   2.010
 1993TIP3    H1 5943   1.038   5.365   1.942
 1993TIP3    H2 5944   1.186   5.393   1.962
 1994TIP3   OH2 5945   5.184   5.816   2.873
 1994TIP3    H1 5946   5.176   5.820   2.968
 1994TIP3    H2 5947   5.173   5.906   2.844
 1995TIP3   OH2 5948   4.571   6.345   4.324
 1995TIP3    H1 5949   4.627   6.395   4.383
 1995TIP3    H2 5950   4.632   6.291   4.274
 1996TIP3   OH2 5951   2.554   6.033   1.424
 1996TIP3    H1 5952   2.583   5.941   1.426
 1996TIP3    H2 5953   2.496   6.038   1.348
 1997TIP3   OH2 5954   3.738   0.640   2.078
 1997TIP3    H1 5955   3.720   0.692   2.156
 1997TIP3    H2 5956   3.686   0.681   2.009
 1998TIP3   OH2 5957   0.999   4.784   3.738
 1998TIP3    H1 5958   1.068   4.851   3.743
 1998TIP3    H2 5959   1.014   4.740   3.654
 1999TIP3   OH2 5960   6.067   5.709   5.758
 1999TIP3    H1 5961   6.031   5.764   5.827
 1999TIP3    H2 5962   6.116   5.770   5.703
 2000TIP3   OH2 5963   3.292   3.799   4.773
 2000TIP3    H1 5964   3.311   3.706   4.758
 2000TIP3    H2 5965   3.247   3.801   4.857
 2001TIP3   OH2 5966   2.025   3.046   1.740
 2001TIP3    H1 5967   1.976   2.972   1.775
 2001TIP3    H2 5968   2.117   3.021   1.751
 2002TIP3   OH2 5969   5.013   0.476   2.256
 2002TIP3    H1 5970   4.995   0.507   2.167
 2002TIP3    H2 5971   5.006   0.554   2.311
 2003TIP3   OH2 5972   6.760   3.900   1.322
 2003TIP3    H1 5973   6.789   3.822   1.274
 2003TIP3    H2 5974   6.699   3.866   1.388
 2004TIP3   OH2 5975   5.443   2.308   3.725
 2004TIP3    H1 5976   5.417   2.299   3.817
 2004TIP3    H2 5977   5.525   2.259   3.718
 2005TIP3   OH2 5978   3.476   4.450   3.858
 2005TIP3    H1 5979   3.551   4.391   3.856
 2005TIP3    H2 5980   3.404   4.394   3.888
 2006TIP3   OH2 5981   3.332   0.599   3.879
 2006TIP3    H1 5982   3.420   0.609   3.914
 2006TIP3    H2 5983   3.278   0.657   3.933
 2007TIP3   OH2 5984   7.024   2.639   2.358
 2007TIP3    H1 5985   7.015   2.634   2.262
 2007TIP3    H2 5986   7.109   2.599   2.376
 2008TIP3   OH2 5987   2.804   3.954   4.745
 2008TIP3    H1 5988   2.770   4.037   4.713
 2008TIP3    H2 5989   2.829   3.905   4.666
 2009TIP3   OH2 5990   1.503   2.329   1.506
 2009TIP3    H1 5991   1.456   2.343   1.424
 2009TIP3    H2 5992   1.449   2.373   1.572
 2010TIP3   OH2 5993   6.656   4.639   1.791
 2010TIP3    H1 5994   6.618   4.722   1.818
 2010TIP3    H2 5995   6.658   4.586   1.871
 2011TIP3   OH2 5996   2.450   5.072   4.733
 2011TIP3    H1 5997   2.485   5.149   4.688
 2011TIP3    H2 5998   2.357   5.093   4.748
 2012TIP3   OH2 5999   2.145   1.472   4.631
 2012TIP3    H1 6000   2.148   1.464   4.726
 2012TIP3    H2 6001   2.147   1.566   4.614
 2013TIP3   OH2 6002   1.527   6.763   1.242
 2013TIP3    H1 6003   1.522   6.686   1.299
 2013TIP3    H2 6004   1.456   6.751   1.179
 2014TIP3   OH2 6005   2.489   1.608   3.449
 2014TIP3    H1 6006   2.401   1.570   3.457
 2014TIP3    H2 6007   2.476   1.702   3.460
 2015TIP3   OH2 6008   6.131   6.091   1.786
 2015TIP3    H1 6009   6.137   6.038   1.866
 2015TIP3    H2 6010   6.120   6.181   1.818
 2016TIP3   OH2 6011   0.142   5.713   5.222
 2016TIP3    H1 6012   0.061   5.764   5.217
 2016TIP3    H2 6013   0.154   5.678   5.134
 2017TIP3   OH2 6014   1.958   0.854   3.695
 2017TIP3    H1 6015   1.895   0.806   3.750
 2017TIP3    H2 6016   2.017   0.895   3.758
 2018TIP3   OH2 6017   7.133   4.087   3.639
 2018TIP3    H1 6018   7.189   4.161   3.663
 2018TIP3    H2 6019   7.163   4.060   3.553
 2019TIP3   OH2 6020   0.248   0.756   4.850
 2019TIP3    H1 6021   0.299   0.836   4.863
 2019TIP3    H2 6022   0.179   0.760   4.915
 2020TIP3   OH2 6023   2.811   2.658   3.678
 2020TIP3    H1 6024   2.852   2.585   3.632
 2020TIP3    H2 6025   2.770   2.711   3.610
 2021TIP3   OH2 6026   1.650   1.798   5.878
 2021TIP3    H1 6027   1.681   1.756   5.798
 2021TIP3    H2 6028   1.696   1.882   5.879
 2022TIP3   OH2 6029   4.264   4.169   0.081
 2022TIP3    H1 6030   4.321   4.246   0.088
 2022TIP3    H2 6031   4.191   4.199   0.025
 2023TIP3   OH2 6032   6.288   6.068   2.191
 2023TIP3    H1 6033   6.263   5.995   2.136
 2023TIP3    H2 6034   6.208   6.090   2.239
 2024TIP3   OH2 6035   3.862   6.722   3.735
 2024TIP3    H1 6036   3.930   6.769   3.784
 2024TIP3    H2 6037   3.887   6.733   3.644
 2025TIP3   OH2 6038   1.299   3.714   5.105
 2025TIP3    H1 6039   1.239   3.765   5.050
 2025TIP3    H2 6040   1.377   3.702   5.050
 2026TIP3   OH2 6041   3.694   6.519   1.431
 2026TIP3    H1 6042   3.663   6.539   1.519
 2026TIP3    H2 6043   3.620   6.478   1.388
 2027TIP3   OH2 6044   2.320   2.433   3.888
 2027TIP3    H1 6045   2.379   2.502   3.917
 2027TIP3    H2 6046   2.376   2.355   3.882
 2028TIP3   OH2 6047   4.987   2.855   3.175
 2028TIP3    H1 6048   4.989   2.760   3.186
 2028TIP3    H2 6049   4.914   2.870   3.114
 2029TIP3   OH2 6050   4.231   0.777   3.991
 2029TIP3    H1 6051   4.255   0.836   3.920
 2029TIP3    H2 6052   4.261   0.821   4.070
 2030TIP3   OH2 6053   5.853   0.577   2.167
 2030TIP3    H1 6054   5.833   0.552   2.077
 2030TIP3    H2 6055   5.793   0.649   2.186
 2031TIP3   OH2 6056   7.012   5.632   1.695
 2031TIP3    H1 6057   6.969   5.716   1.679
 2031TIP3    H2 6058   7.096   5.656   1.734
 2032TIP3   OH2 6059   4.307   4.549   3.441
 2032TIP3    H1 6060   4.278   4.517   3.355
 2032TIP3    H2 6061   4.391   4.592   3.423
 2033TIP3   OH2 6062   0.840   4.999   4.185
 2033TIP3    H1 6063   0.936   5.003   4.194
 2033TIP3    H2 6064   0.817   5.076   4.133
 2034TIP3   OH2 6065   5.036   2.843   1.380
 2034TIP3    H1 6066   4.957   2.791   1.394
 2034TIP3    H2 6067   5.013   2.905   1.312
 2035TIP3   OH2 6068   1.569   3.749   0.573
 2035TIP3    H1 6069   1.577   3.658   0.600
 2035TIP3    H2 6070   1.626   3.798   0.633
 2036TIP3   OH2 6071   0.411   1.402   4.213
 2036TIP3    H1 6072   0.424   1.372   4.123
 2036TIP3    H2 6073   0.317   1.395   4.228
 2037TIP3   OH2 6074   7.092   0.491   5.019
 2037TIP3    H1 6075   7.120   0.423   4.957
 2037TIP3    H2 6076   7.026   0.448   5.073
 2038TIP3   OH2 6077   3.363   5.795   5.589
 2038TIP3    H1 6078   3.365   5.719   5.647
 2038TIP3    H2 6079   3.423   5.858   5.630
 2039TIP3   OH2 6080   3.936   6.446   4.488
 2039TIP3    H1 6081   4.013   6.475   4.536
 2039TIP3    H2 6082   3.930   6.352   4.506
 2040TIP3   OH2 6083   0.919   2.778   2.534
 2040TIP3    H1 6084   0.875   2.834   2.597
 2040TIP3    H2 6085   0.921   2.829   2.453
 2041TIP3   OH2 6086   3.538   4.416   5.063
 2041TIP3    H1 6087   3.570   4.482   5.124
 2041TIP3    H2 6088   3.544   4.334   5.112
 2042TIP3   OH2 6089   4.942   3.943   3.317
 2042TIP3    H1 6090   5.001   3.910   3.250
 2042TIP3    H2 6091   4.907   4.024   3.280
 2043TIP3   OH2 6092   6.825   3.184   1.986
 2043TIP3    H1 6093   6.867   3.099   1.980
 2043TIP3    H2 6094   6.841   3.225   1.901
 2044TIP3   OH2 6095   1.832   3.497   1.806
 2044TIP3    H1 6096   1.862   3.406   1.807
 2044TIP3    H2 6097   1.893   3.543   1.748
 2045TIP3   OH2 6098   1.271   6.010   0.141
 2045TIP3    H1 6099   1.246   6.082   0.198
 2045TIP3    H2 6100   1.299   5.940   0.200
 2046TIP3   OH2 6101   6.956   0.821   2.071
 2046TIP3    H1 6102   6.971   0.727   2.075
 2046TIP3    H2 6103   6.894   0.833   1.999
 2047TIP3   OH2 6104   2.791   6.289   4.131
 2047TIP3    H1 6105   2.758   6.268   4.219
 2047TIP3    H2 6106   2.884   6.305   4.144
 2048TIP3   OH2 6107   2.531   4.938   0.894
 2048TIP3    H1 6108   2.466   4.984   0.841
 2048TIP3    H2 6109   2.488   4.856   0.919
 2049TIP3   OH2 6110   6.970   3.649   5.307
 2049TIP3    H1 6111   7.020   3.609   5.378
 2049TIP3    H2 6112   6.923   3.576   5.266
 2050TIP3   OH2 6113   6.070   1.485   1.428
 2050TIP3    H1 6114   6.024   1.405   1.401
 2050TIP3    H2 6115   6.156   1.454   1.456
 2051TIP3   OH2 6116   2.646   1.630   2.223
 2051TIP3    H1 6117   2.656   1.668   2.136
 2051TIP3    H2 6118   2.722   1.661   2.271
 2052TIP3   OH2 6119   5.227   6.724   4.544
 2052TIP3    H1 6120   5.191   6.637   4.559
 2052TIP3    H2 6121   5.306   6.726   4.598
 2053TIP3   OH2 6122   3.227   0.423   2.708
 2053TIP3    H1 6123   3.245   0.333   2.734
 2053TIP3    H2 6124   3.201   0.417   2.616
 2054TIP3   OH2 6125   2.856   2.665   1.500
 2054TIP3    H1 6126   2.892   2.583   1.535
 2054TIP3    H2 6127   2.915   2.688   1.428
 2055TIP3   OH2 6128   2.825   6.246   1.960
 2055TIP3    H1 6129   2.807   6.157   1.990
 2055TIP3    H2 6130   2.813   6.301   2.038
 2056TIP3   OH2 6131   2.433   4.739   5.426
 2056TIP3    H1 6132   2.496   4.806   5.399
 2056TIP3    H2 6133   2.487   4.661   5.441
 2057TIP3   OH2 6134   0.997   5.126   1.300
 2057TIP3    H1 6135   1.036   5.040   1.285
 2057TIP3    H2 6136   1.012   5.173   1.217
 2058TIP3   OH2 6137   3.654   2.643   1.876
 2058TIP3    H1 6138   3.682   2.603   1.793
 2058TIP3    H2 6139   3.646   2.570   1.936
 2059TIP3   OH2 6140   2.571   3.862   2.428
 2059TIP3    H1 6141   2.584   3.937   2.369
 2059TIP3    H2 6142   2.622   3.884   2.506
 2060TIP3   OH2 6143   2.260   6.692   4.953
 2060TIP3    H1 6144   2.329   6.644   5.000
 2060TIP3    H2 6145   2.306   6.735   4.881
 2061TIP3   OH2 6146   4.662   2.716   0.575
 2061TIP3    H1 6147   4.715   2.792   0.550
 2061TIP3    H2 6148   4.659   2.661   0.496
 2062TIP3   OH2 6149   2.312   0.878   4.008
 2062TIP3    H1 6150   2.225   0.899   4.042
 2062TIP3    H2 6151   2.348   0.963   3.981
 2063TIP3   OH2 6152   6.260   3.300   4.004
 2063TIP3    H1 6153   6.301   3.327   4.086
 2063TIP3    H2 6154   6.227   3.381   3.966
 2064TIP3   OH2 6155   7.121   2.115   2.196
 2064TIP3    H1 6156   7.168   2.172   2.136
 2064TIP3    H2 6157   7.043   2.165   2.221
 2065TIP3   OH2 6158   0.791   2.582   1.218
 2065TIP3    H1 6159   0.860   2.537   1.267
 2065TIP3    H2 6160   0.836   2.651   1.170
 2066TIP3   OH2 6161   5.122   4.439   1.376
 2066TIP3    H1 6162   5.057   4.460   1.443
 2066TIP3    H2 6163   5.200   4.414   1.426
 2067TIP3   OH2 6164   6.836   0.468   3.617
 2067TIP3    H1 6165   6.742   0.448   3.623
 2067TIP3    H2 6166   6.850   0.532   3.687
 2068TIP3   OH2 6167   6.729   5.862   2.216
 2068TIP3    H1 6168   6.738   5.781   2.266
 2068TIP3    H2 6169   6.728   5.834   2.124
 2069TIP3   OH2 6170   4.836   1.083   4.568
 2069TIP3    H1 6171   4.821   0.999   4.525
 2069TIP3    H2 6172   4.921   1.112   4.535
 2070TIP3   OH2 6173   1.924   0.085   5.714
 2070TIP3    H1 6174   1.958   0.017   5.656
 2070TIP3    H2 6175   1.864   0.136   5.660
 2071TIP3   OH2 6176   6.552   0.649   2.473
 2071TIP3    H1 6177   6.465   0.616   2.450
 2071TIP3    H2 6178   6.548   0.666   2.567
 2072TIP3   OH2 6179   2.579   1.002   5.591
 2072TIP3    H1 6180   2.657   0.947   5.580
 2072TIP3    H2 6181   2.595   1.050   5.673
 2073TIP3   OH2 6182   5.446   1.870   1.171
 2073TIP3    H1 6183   5.529   1.916   1.158
 2073TIP3    H2 6184   5.392   1.898   1.096
 2074TIP3   OH2 6185   1.665   1.728   3.032
 2074TIP3    H1 6186   1.627   1.643   3.056
 2074TIP3    H2 6187   1.627   1.748   2.947
 2075TIP3   OH2 6188   6.650   4.108   2.607
 2075TIP3    H1 6189   6.568   4.065   2.586
 2075TIP3    H2 6190   6.681   4.064   2.687
 2076TIP3   OH2 6191   0.282   1.946   4.210
 2076TIP3    H1 6192   0.300   2.035   4.181
 2076TIP3    H2 6193   0.264   1.898   4.129
 2077TIP3   OH2 6194   5.308   0.898   0.602
 2077TIP3    H1 6195   5.293   0.936   0.516
 2077TIP3    H2 6196   5.355   0.817   0.584
 2078TIP3   OH2 6197   2.541   4.249   5.241
 2078TIP3    H1 6198   2.472   4.283   5.299
 2078TIP3    H2 6199   2.556   4.320   5.178
 2079TIP3   OH2 6200   4.905   1.231   3.255
 2079TIP3    H1 6201   4.862   1.147   3.236
 2079TIP3    H2 6202   4.871   1.291   3.189
 2080TIP3   OH2 6203   4.417   5.639   4.892
 2080TIP3    H1 6204   4.480   5.612   4.959
 2080TIP3    H2 6205   4.471   5.668   4.819
 2081TIP3   OH2 6206   4.868   5.471   4.561
 2081TIP3    H1 6207   4.961   5.480   4.543
 2081TIP3    H2 6208   4.824   5.520   4.492
 2082TIP3   OH2 6209   5.159   0.979   0.114
 2082TIP3    H1 6210   5.103   0.943   0.183
 2082TIP3    H2 6211   5.209   0.905   0.081
 2083TIP3   OH2 6212   3.376   4.033   2.776
 2083TIP3    H1 6213   3.437   3.968   2.742
 2083TIP3    H2 6214   3.360   4.006   2.866
 2084TIP3   OH2 6215   5.311   4.366   3.910
 2084TIP3    H1 6216   5.241   4.318   3.866
 2084TIP3    H2 6217   5.384   4.303   3.913
 2085TIP3   OH2 6218   6.588   6.302   5.539
 2085TIP3    H1 6219   6.630   6.296   5.625
 2085TIP3    H2 6220   6.571   6.395   5.526
 2086TIP3   OH2 6221   3.323   6.607   5.622
 2086TIP3    H1 6222   3.338   6.512   5.619
 2086TIP3    H2 6223   3.410   6.645   5.622
 2087TIP3   OH2 6224   3.658   2.363   1.999
 2087TIP3    H1 6225   3.623   2.305   1.931
 2087TIP3    H2 6226   3.740   2.323   2.025
 2088TIP3   OH2 6227   3.223   6.180   0.568
 2088TIP3    H1 6228   3.279   6.229   0.627
 2088TIP3    H2 6229   3.218   6.093   0.606
 2089TIP3   OH2 6230   3.703   1.018   5.729
 2089TIP3    H1 6231   3.748   1.102   5.740
 2089TIP3    H2 6232   3.612   1.041   5.711
 2090TIP3   OH2 6233   6.619   4.375   1.683
 2090TIP3    H1 6234   6.629   4.468   1.704
 2090TIP3    H2 6235   6.570   4.339   1.757
 2091TIP3   OH2 6236   1.451   5.970   4.791
 2091TIP3    H1 6237   1.401   6.007   4.718
 2091TIP3    H2 6238   1.526   5.929   4.749
 2092TIP3   OH2 6239   4.476   0.036   2.835
 2092TIP3    H1 6240   4.568   0.040   2.864
 2092TIP3    H2 6241   4.440   0.121   2.859
 2093TIP3   OH2 6242   3.285   1.979   5.116
 2093TIP3    H1 6243   3.243   2.018   5.040
 2093TIP3    H2 6244   3.305   2.052   5.174
 2094TIP3   OH2 6245   6.283   0.316   1.426
 2094TIP3    H1 6246   6.334   0.359   1.357
 2094TIP3    H2 6247   6.235   0.247   1.381
 2095TIP3   OH2 6248   1.334   3.527   4.094
 2095TIP3    H1 6249   1.411   3.523   4.037
 2095TIP3    H2 6250   1.363   3.486   4.176
 2096TIP3   OH2 6251   0.244   0.959   5.408
 2096TIP3    H1 6252   0.232   0.915   5.493
 2096TIP3    H2 6253   0.274   0.890   5.350
 2097TIP3   OH2 6254   3.605   6.638   3.705
 2097TIP3    H1 6255   3.672   6.699   3.736
 2097TIP3    H2 6256   3.655   6.560   3.677
 2098TIP3   OH2 6257   6.891   1.826   5.407
 2098TIP3    H1 6258   6.913   1.917   5.428
 2098TIP3    H2 6259   6.964   1.775   5.441
 2099TIP3   OH2 6260   5.412   1.157   3.558
 2099TIP3    H1 6261   5.386   1.200   3.477
 2099TIP3    H2 6262   5.489   1.105   3.534
 2100TIP3   OH2 6263   1.056   1.977   1.056
 2100TIP3    H1 6264   1.147   2.001   1.072
 2100TIP3    H2 6265   1.009   2.008   1.134
 2101TIP3   OH2 6266   4.738   3.504   0.349
 2101TIP3    H1 6267   4.833   3.496   0.342
 2101TIP3    H2 6268   4.705   3.464   0.268
 2102TIP3   OH2 6269   2.813   2.224   0.758
 2102TIP3    H1 6270   2.717   2.226   0.766
 2102TIP3    H2 6271   2.830   2.165   0.685
 2103TIP3   OH2 6272   4.467   6.272   5.067
 2103TIP3    H1 6273   4.493   6.215   4.995
 2103TIP3    H2 6274   4.541   6.332   5.078
 2104TIP3   OH2 6275   0.268   1.539   3.347
 2104TIP3    H1 6276   0.322   1.609   3.311
 2104TIP3    H2 6277   0.330   1.482   3.393
 2105TIP3   OH2 6278   4.748   1.830   4.031
 2105TIP3    H1 6279   4.678   1.895   4.023
 2105TIP3    H2 6280   4.715   1.768   4.096
 2106TIP3   OH2 6281   2.848   6.106   4.963
 2106TIP3    H1 6282   2.783   6.044   4.930
 2106TIP3    H2 6283   2.900   6.056   5.026
 2107TIP3   OH2 6284   3.824   1.957   0.776
 2107TIP3    H1 6285   3.851   2.018   0.707
 2107TIP3    H2 6286   3.893   1.891   0.778
 2108TIP3   OH2 6287   0.774   3.229   1.766
 2108TIP3    H1 6288   0.765   3.154   1.707
 2108TIP3    H2 6289   0.849   3.277   1.730
 2109TIP3   OH2 6290   4.005   4.874   3.265
 2109TIP3    H1 6291   3.997   4.837   3.352
 2109TIP3    H2 6292   3.976   4.965   3.275
 2110TIP3   OH2 6293   1.729   5.589   3.267
 2110TIP3    H1 6294   1.704   5.635   3.186
 2110TIP3    H2 6295   1.703   5.499   3.253
 2111TIP3   OH2 6296   0.312   5.962   3.270
 2111TIP3    H1 6297   0.389   5.957   3.327
 2111TIP3    H2 6298   0.238   5.964   3.330
 2112TIP3   OH2 6299   5.435   6.497   2.522
 2112TIP3    H1 6300   5.366   6.534   2.467
 2112TIP3    H2 6301   5.389   6.443   2.586
 2113TIP3   OH2 6302   2.188   2.516   2.777
 2113TIP3    H1 6303   2.145   2.472   2.850
 2113TIP3    H2 6304   2.253   2.454   2.746
 2114TIP3   OH2 6305   6.672   3.076   0.259
 2114TIP3    H1 6306   6.705   3.101   0.173
 2114TIP3    H2 6307   6.640   3.158   0.297
 2115TIP3   OH2 6308   7.002   6.522   2.920
 2115TIP3    H1 6309   6.943   6.479   2.858
 2115TIP3    H2 6310   6.944   6.561   2.986
 2116TIP3   OH2 6311   3.119   3.898   2.674
 2116TIP3    H1 6312   3.096   3.939   2.590
 2116TIP3    H2 6313   3.184   3.957   2.712
 2117TIP3   OH2 6314   6.908   2.294   5.746
 2117TIP3    H1 6315   6.954   2.297   5.663
 2117TIP3    H2 6316   6.941   2.370   5.795
 2118TIP3   OH2 6317   6.937   4.461   1.040
 2118TIP3    H1 6318   6.868   4.491   1.100
 2118TIP3    H2 6319   6.984   4.394   1.089
 2119TIP3   OH2 6320   6.581   3.002   2.349
 2119TIP3    H1 6321   6.518   3.052   2.401
 2119TIP3    H2 6322   6.586   3.049   2.266
 2120TIP3   OH2 6323   2.807   4.373   4.859
 2120TIP3    H1 6324   2.888   4.324   4.843
 2120TIP3    H2 6325   2.737   4.309   4.847
 2121TIP3   OH2 6326   1.323   5.893   5.763
 2121TIP3    H1 6327   1.398   5.951   5.778
 2121TIP3    H2 6328   1.337   5.821   5.824
 2122TIP3   OH2 6329   4.122   3.126   2.893
 2122TIP3    H1 6330   4.129   3.215   2.860
 2122TIP3    H2 6331   4.028   3.107   2.891
 2123TIP3   OH2 6332   0.860   6.009   4.464
 2123TIP3    H1 6333   0.853   6.001   4.559
 2123TIP3    H2 6334   0.771   5.995   4.432
 2124TIP3   OH2 6335   6.410   0.074   0.730
 2124TIP3    H1 6336   6.434   0.135   0.660
 2124TIP3    H2 6337   6.358   0.126   0.791
 2125TIP3   OH2 6338   6.348   2.431   3.018
 2125TIP3    H1 6339   6.387   2.517   3.005
 2125TIP3    H2 6340   6.328   2.427   3.111
 2126TIP3   OH2 6341   5.872   5.304   3.551
 2126TIP3    H1 6342   5.833   5.219   3.532
 2126TIP3    H2 6343   5.798   5.357   3.583
 2127TIP3   OH2 6344   5.443   6.590   5.723
 2127TIP3    H1 6345   5.517   6.651   5.729
 2127TIP3    H2 6346   5.474   6.511   5.767
 2128TIP3   OH2 6347   5.338   1.758   2.572
 2128TIP3    H1 6348   5.317   1.799   2.656
 2128TIP3    H2 6349   5.291   1.810   2.507
 2129TIP3   OH2 6350   4.671   5.828   2.433
 2129TIP3    H1 6351   4.635   5.740   2.424
 2129TIP3    H2 6352   4.719   5.825   2.516
 2130TIP3   OH2 6353   1.045   4.786   3.228
 2130TIP3    H1 6354   0.993   4.719   3.183
 2130TIP3    H2 6355   1.096   4.828   3.158
 2131TIP3   OH2 6356   7.047   1.629   3.032
 2131TIP3    H1 6357   7.107   1.559   3.006
 2131TIP3    H2 6358   7.041   1.686   2.955
 2132TIP3   OH2 6359   2.127   1.101   0.733
 2132TIP3    H1 6360   2.080   1.183   0.722
 2132TIP3    H2 6361   2.191   1.120   0.802
 2133TIP3   OH2 6362   2.954   1.397   5.888
 2133TIP3    H1 6363   2.920   1.447   5.814
 2133TIP3    H2 6364   2.891   1.327   5.901
 2134TIP3   OH2 6365   6.711   0.492   4.861
 2134TIP3    H1 6366   6.744   0.581   4.849
 2134TIP3    H2 6367   6.630   0.489   4.811
 2135TIP3   OH2 6368   4.048   6.406   5.420
 2135TIP3    H1 6369   4.068   6.499   5.418
 2135TIP3    H2 6370   4.108   6.367   5.356
 2136TIP3   OH2 6371   2.088   6.122   1.961
 2136TIP3    H1 6372   2.133   6.198   1.999
 2136TIP3    H2 6373   1.995   6.141   1.974
 2137TIP3   OH2 6374   2.173   2.076   1.228
 2137TIP3    H1 6375   2.130   2.162   1.227
 2137TIP3    H2 6376   2.221   2.074   1.311
 2138TIP3   OH2 6377   4.500   1.806   2.120
 2138TIP3    H1 6378   4.556   1.818   2.043
 2138TIP3    H2 6379   4.548   1.849   2.191
 2139TIP3   OH2 6380   3.520   4.111   1.648
 2139TIP3    H1 6381   3.611   4.084   1.659
 2139TIP3    H2 6382   3.471   4.029   1.647
 2140TIP3   OH2 6383   5.353   4.722   2.419
 2140TIP3    H1 6384   5.377   4.653   2.356
 2140TIP3    H2 6385   5.377   4.685   2.504
 2141TIP3   OH2 6386   5.286   4.502   1.988
 2141TIP3    H1 6387   5.246   4.571   2.041
 2141TIP3    H2 6388   5.371   4.486   2.029
 2142TIP3   OH2 6389   1.505   5.908   2.920
 2142TIP3    H1 6390   1.510   5.929   3.013
 2142TIP3    H2 6391   1.434   5.963   2.887
 2143TIP3   OH2 6392   3.372   1.093   0.925
 2143TIP3    H1 6393   3.434   1.108   0.854
 2143TIP3    H2 6394   3.293   1.139   0.899
 2144TIP3   OH2 6395   6.374   3.941   3.499
 2144TIP3    H1 6396   6.306   3.956   3.433
 2144TIP3    H2 6397   6.354   4.003   3.569
 2145TIP3   OH2 6398   5.568   5.966   0.218
 2145TIP3    H1 6399   5.649   5.917   0.232
 2145TIP3    H2 6400   5.589   6.055   0.245
 2146TIP3   OH2 6401   3.837   2.199   1.540
 2146TIP3    H1 6402   3.841   2.198   1.636
 2146TIP3    H2 6403   3.829   2.292   1.517
 2147TIP3   OH2 6404   4.664   6.222   3.938
 2147TIP3    H1 6405   4.585   6.266   3.906
 2147TIP3    H2 6406   4.711   6.196   3.859
 2148TIP3   OH2 6407   2.280   1.146   3.118
 2148TIP3    H1 6408   2.242   1.059   3.133
 2148TIP3    H2 6409   2.246   1.173   3.033
 2149TIP3   OH2 6410   4.816   6.643   5.075
 2149TIP3    H1 6411   4.809   6.687   5.160
 2149TIP3    H2 6412   4.905   6.663   5.046
 2150TIP3   OH2 6413   3.053   3.848   0.151
 2150TIP3    H1 6414   3.146   3.828   0.139
 2150TIP3    H2 6415   3.040   3.845   0.246
 2151TIP3   OH2 6416   6.118   2.247   2.139
 2151TIP3    H1 6417   6.131   2.319   2.077
 2151TIP3    H2 6418   6.061   2.284   2.207
 2152TIP3   OH2 6419   5.791   1.271   1.679
 2152TIP3    H1 6420   5.868   1.256   1.734
 2152TIP3    H2 6421   5.801   1.209   1.606
 2153TIP3   OH2 6422   5.083   2.478   5.507
 2153TIP3    H1 6423   5.077   2.573   5.515
 2153TIP3    H2 6424   5.166   2.455   5.548
 2154TIP3   OH2 6425   5.345   3.435   4.532
 2154TIP3    H1 6426   5.394   3.501   4.484
 2154TIP3    H2 6427   5.316   3.373   4.465
 2155TIP3   OH2 6428   1.504   0.155   0.484
 2155TIP3    H1 6429   1.502   0.130   0.576
 2155TIP3    H2 6430   1.464   0.242   0.482
 2156TIP3   OH2 6431   3.867   0.729   5.662
 2156TIP3    H1 6432   3.794   0.723   5.723
 2156TIP3    H2 6433   3.834   0.782   5.590
 2157TIP3   OH2 6434   2.836   2.147   4.695
 2157TIP3    H1 6435   2.898   2.096   4.643
 2157TIP3    H2 6436   2.874   2.150   4.783
 2158TIP3   OH2 6437   3.834   1.576   1.918
 2158TIP3    H1 6438   3.872   1.665   1.919
 2158TIP3    H2 6439   3.804   1.564   1.828
 2159TIP3   OH2 6440   6.325   5.080   1.524
 2159TIP3    H1 6441   6.417   5.060   1.504
 2159TIP3    H2 6442   6.312   5.168   1.488
 2160TIP3   OH2 6443   6.101   3.770   4.382
 2160TIP3    H1 6444   6.048   3.711   4.436
 2160TIP3    H2 6445   6.103   3.852   4.432
 2161TIP3   OH2 6446   6.883   2.356   5.444
 2161TIP3    H1 6447   6.832   2.425   5.401
 2161TIP3    H2 6448   6.853   2.358   5.535
 2162TIP3   OH2 6449   2.682   1.707   5.337
 2162TIP3    H1 6450   2.662   1.614   5.327
 2162TIP3    H2 6451   2.675   1.742   5.248
 2163TIP3   OH2 6452   0.631   5.225   5.551
 2163TIP3    H1 6453   0.579   5.279   5.611
 2163TIP3    H2 6454   0.582   5.143   5.545
 2164TIP3   OH2 6455   0.834   5.088   2.267
 2164TIP3    H1 6456   0.839   5.094   2.171
 2164TIP3    H2 6457   0.747   5.123   2.288
 2165TIP3   OH2 6458   5.720   2.929   4.144
 2165TIP3    H1 6459   5.631   2.897   4.129
 2165TIP3    H2 6460   5.776   2.870   4.093
 2166TIP3   OH2 6461   3.110   5.498   3.525
 2166TIP3    H1 6462   3.068   5.505   3.439
 2166TIP3    H2 6463   3.075   5.571   3.576
 2167TIP3   OH2 6464   5.693   5.526   1.018
 2167TIP3    H1 6465   5.612   5.571   0.995
 2167TIP3    H2 6466   5.666   5.462   1.084
 2168TIP3   OH2 6467   4.872   0.741   2.296
 2168TIP3    H1 6468   4.865   0.826   2.253
 2168TIP3    H2 6469   4.852   0.759   2.388
 2169TIP3   OH2 6470   3.052   3.321   5.051
 2169TIP3    H1 6471   3.096   3.400   5.081
 2169TIP3    H2 6472   3.068   3.320   4.956
 2170TIP3   OH2 6473   5.958   5.802   3.188
 2170TIP3    H1 6474   6.018   5.868   3.154
 2170TIP3    H2 6475   5.920   5.761   3.110
 2171TIP3   OH2 6476   0.286   1.506   4.551
 2171TIP3    H1 6477   0.301   1.568   4.480
 2171TIP3    H2 6478   0.370   1.463   4.564
 2172TIP3   OH2 6479   0.778   1.486   3.419
 2172TIP3    H1 6480   0.849   1.431   3.452
 2172TIP3    H2 6481   0.798   1.574   3.454
 2173TIP3   OH2 6482   6.372   4.797   2.830
 2173TIP3    H1 6483   6.462   4.830   2.829
 2173TIP3    H2 6484   6.378   4.715   2.878
 2174TIP3   OH2 6485   7.013   0.665   0.173
 2174TIP3    H1 6486   6.987   0.635   0.086
 2174TIP3    H2 6487   7.086   0.608   0.196
 2175TIP3   OH2 6488   5.027   1.540   0.249
 2175TIP3    H1 6489   5.089   1.608   0.276
 2175TIP3    H2 6490   4.955   1.587   0.208
 2176TIP3   OH2 6491   7.170   0.213   3.789
 2176TIP3    H1 6492   7.116   0.232   3.712
 2176TIP3    H2 6493   7.191   0.299   3.825
 2177TIP3   OH2 6494   0.446   1.997   2.876
 2177TIP3    H1 6495   0.385   1.962   2.811
 2177TIP3    H2 6496   0.390   2.046   2.937
 2178TIP3   OH2 6497   2.920   0.686   1.913
 2178TIP3    H1 6498   2.833   0.725   1.924
 2178TIP3    H2 6499   2.942   0.652   2.000
 2179TIP3   OH2 6500   5.893   5.892   2.631
 2179TIP3    H1 6501   5.900   5.803   2.665
 2179TIP3    H2 6502   5.800   5.914   2.639
 2180TIP3   OH2 6503   1.300   6.687   3.035
 2180TIP3    H1 6504   1.224   6.632   3.019
 2180TIP3    H2 6505   1.287   6.722   3.123
 2181TIP3   OH2 6506   6.765   1.767   4.269
 2181TIP3    H1 6507   6.782   1.835   4.204
 2181TIP3    H2 6508   6.843   1.713   4.268
 2182TIP3   OH2 6509   4.124   2.310   4.505
 2182TIP3    H1 6510   4.060   2.355   4.451
 2182TIP3    H2 6511   4.199   2.369   4.508
 2183TIP3   OH2 6512   5.392   0.781   3.695
 2183TIP3    H1 6513   5.343   0.796   3.615
 2183TIP3    H2 6514   5.478   0.751   3.665
 2184TIP3   OH2 6515   2.216   6.359   5.413
 2184TIP3    H1 6516   2.226   6.278   5.463
 2184TIP3    H2 6517   2.189   6.424   5.478
 2185TIP3   OH2 6518   2.018   1.625   5.818
 2185TIP3    H1 6519   2.095   1.590   5.774
 2185TIP3    H2 6520   2.053   1.676   5.891
 2186TIP3   OH2 6521   4.859   6.195   2.547
 2186TIP3    H1 6522   4.877   6.288   2.555
 2186TIP3    H2 6523   4.803   6.175   2.622
 2187TIP3   OH2 6524   1.586   1.998   1.275
 2187TIP3    H1 6525   1.588   1.903   1.265
 2187TIP3    H2 6526   1.678   2.025   1.276
 2188TIP3   OH2 6527   2.386   1.064   4.271
 2188TIP3    H1 6528   2.382   1.075   4.177
 2188TIP3    H2 6529   2.367   0.971   4.285
 2189TIP3   OH2 6530   5.391   5.145   3.287
 2189TIP3    H1 6531   5.352   5.084   3.350
 2189TIP3    H2 6532   5.328   5.217   3.281
 2190TIP3   OH2 6533   6.017   5.974   4.335
 2190TIP3    H1 6534   5.944   6.015   4.289
 2190TIP3    H2 6535   5.986   5.962   4.425
 2191TIP3   OH2 6536   0.744   3.232   0.375
 2191TIP3    H1 6537   0.719   3.195   0.290
 2191TIP3    H2 6538   0.836   3.207   0.386
 2192TIP3   OH2 6539   0.891   2.787   1.437
 2192TIP3    H1 6540   0.814   2.838   1.412
 2192TIP3    H2 6541   0.965   2.841   1.408
 2193TIP3   OH2 6542   6.583   2.473   4.757
 2193TIP3    H1 6543   6.587   2.431   4.671
 2193TIP3    H2 6544   6.675   2.486   4.781
 2194TIP3   OH2 6545   1.872   3.822   4.778
 2194TIP3    H1 6546   1.842   3.818   4.687
 2194TIP3    H2 6547   1.867   3.732   4.809
 2195TIP3   OH2 6548   6.748   4.256   2.006
 2195TIP3    H1 6549   6.720   4.347   2.019
 2195TIP3    H2 6550   6.832   4.262   1.961
 2196TIP3   OH2 6551   4.257   3.714   4.970
 2196TIP3    H1 6552   4.344   3.753   4.958
 2196TIP3    H2 6553   4.274   3.628   5.007
 2197TIP3   OH2 6554   6.179   3.559   4.231
 2197TIP3    H1 6555   6.131   3.627   4.279
 2197TIP3    H2 6556   6.111   3.511   4.183
 2198TIP3   OH2 6557   4.580   5.718   1.753
 2198TIP3    H1 6558   4.486   5.700   1.751
 2198TIP3    H2 6559   4.589   5.805   1.714
 2199TIP3   OH2 6560   0.786   0.954   2.958
 2199TIP3    H1 6561   0.765   0.881   3.016
 2199TIP3    H2 6562   0.739   0.934   2.877
 2200TIP3   OH2 6563   5.452   0.637   4.285
 2200TIP3    H1 6564   5.451   0.732   4.277
 2200TIP3    H2 6565   5.429   0.619   4.376
 2201TIP3   OH2 6566   4.032   4.286   3.197
 2201TIP3    H1 6567   4.125   4.274   3.215
 2201TIP3    H2 6568   4.011   4.217   3.134
 2202TIP3   OH2 6569   6.674   1.868   4.856
 2202TIP3    H1 6570   6.757   1.881   4.809
 2202TIP3    H2 6571   6.697   1.813   4.930
 2203TIP3   OH2 6572   2.751   6.549   3.055
 2203TIP3    H1 6573   2.834   6.514   3.022
 2203TIP3    H2 6574   2.685   6.515   2.994
 2204TIP3   OH2 6575   2.252   1.479   3.482
 2204TIP3    H1 6576   2.160   1.473   3.508
 2204TIP3    H2 6577   2.271   1.395   3.439
 2205TIP3   OH2 6578   3.945   3.517   0.494
 2205TIP3    H1 6579   4.006   3.445   0.509
 2205TIP3    H2 6580   3.985   3.591   0.540
 2206TIP3   OH2 6581   4.905   3.945   5.048
 2206TIP3    H1 6582   4.874   3.904   5.129
 2206TIP3    H2 6583   4.885   4.038   5.059
 2207TIP3   OH2 6584   5.441   5.300   0.723
 2207TIP3    H1 6585   5.486   5.383   0.708
 2207TIP3    H2 6586   5.417   5.303   0.816
 2208TIP3   OH2 6587   6.533   4.107   3.919
 2208TIP3    H1 6588   6.494   4.040   3.862
 2208TIP3    H2 6589   6.619   4.124   3.881
 2209TIP3   OH2 6590   0.155   1.149   5.097
 2209TIP3    H1 6591   0.066   1.125   5.123
 2209TIP3    H2 6592   0.143   1.217   5.030
 2210TIP3   OH2 6593   3.772   2.097   1.160
 2210TIP3    H1 6594   3.730   2.116   1.244
 2210TIP3    H2 6595   3.720   2.025   1.123
 2211TIP3   OH2 6596   6.171   5.040   3.947
 2211TIP3    H1 6597   6.163   5.121   3.898
 2211TIP3    H2 6598   6.224   4.983   3.892
 2212TIP3   OH2 6599   5.626   0.733   0.259
 2212TIP3    H1 6600   5.662   0.675   0.326
 2212TIP3    H2 6601   5.689   0.730   0.188
 2213TIP3   OH2 6602   4.712   2.294   0.133
 2213TIP3    H1 6603   4.619   2.274   0.120
 2213TIP3    H2 6604   4.730   2.265   0.222
 2214TIP3   OH2 6605   2.727   2.127   1.803
 2214TIP3    H1 6606   2.667   2.052   1.804
 2214TIP3    H2 6607   2.677   2.197   1.761
 2215TIP3   OH2 6608   0.512   3.663   4.760
 2215TIP3    H1 6609   0.544   3.745   4.724
 2215TIP3    H2 6610   0.422   3.682   4.788
 2216TIP3   OH2 6611   5.088   0.547   5.595
 2216TIP3    H1 6612   5.180   0.563   5.616
 2216TIP3    H2 6613   5.079   0.452   5.595
 2217TIP3   OH2 6614   5.631   1.092   4.243
 2217TIP3    H1 6615   5.681   1.034   4.186
 2217TIP3    H2 6616   5.571   1.035   4.290
 2218TIP3   OH2 6617   3.935   0.223   2.118
 2218TIP3    H1 6618   3.992   0.298   2.138
 2218TIP3    H2 6619   3.882   0.212   2.197
 2219TIP3   OH2 6620   2.070   4.696   2.866
 2219TIP3    H1 6621   2.140   4.652   2.817
 2219TIP3    H2 6622   2.022   4.746   2.799
 2220TIP3   OH2 6623   5.935   3.352   4.371
 2220TIP3    H1 6624   5.859   3.404   4.344
 2220TIP3    H2 6625   5.902   3.263   4.378
 2221TIP3   OH2 6626   3.601   5.183   3.065
 2221TIP3    H1 6627   3.644   5.245   3.124
 2221TIP3    H2 6628   3.602   5.100   3.114
 2222TIP3   OH2 6629   1.332   0.948   5.810
 2222TIP3    H1 6630   1.339   0.886   5.883
 2222TIP3    H2 6631   1.270   1.014   5.840
 2223TIP3   OH2 6632   4.541   4.208   3.174
 2223TIP3    H1 6633   4.565   4.293   3.136
 2223TIP3    H2 6634   4.449   4.218   3.198
 2224TIP3   OH2 6635   3.872   5.358   2.228
 2224TIP3    H1 6636   3.913   5.324   2.148
 2224TIP3    H2 6637   3.797   5.408   2.197
 2225TIP3   OH2 6638   1.205   4.698   4.205
 2225TIP3    H1 6639   1.237   4.633   4.142
 2225TIP3    H2 6640   1.252   4.679   4.286
 2226TIP3   OH2 6641   3.383   6.359   0.701
 2226TIP3    H1 6642   3.422   6.337   0.786
 2226TIP3    H2 6643   3.389   6.454   0.696
 2227TIP3   OH2 6644   4.163   1.686   0.920
 2227TIP3    H1 6645   4.198   1.677   0.831
 2227TIP3    H2 6646   4.069   1.696   0.908
 2228TIP3   OH2 6647   6.115   4.652   3.186
 2228TIP3    H1 6648   6.117   4.709   3.263
 2228TIP3    H2 6649   6.112   4.712   3.112
 2229TIP3   OH2 6650   4.916   5.459   4.847
 2229TIP3    H1 6651   4.928   5.446   4.752
 2229TIP3    H2 6652   4.833   5.415   4.866
 2230TIP3   OH2 6653   2.496   5.862   3.397
 2230TIP3    H1 6654   2.458   5.862   3.310
 2230TIP3    H2 6655   2.482   5.773   3.430
 2231TIP3   OH2 6656   3.781   4.340   0.499
 2231TIP3    H1 6657   3.709   4.400   0.480
 2231TIP3    H2 6658   3.748   4.283   0.567
 2232TIP3   OH2 6659   3.525   5.649   3.528
 2232TIP3    H1 6660   3.506   5.560   3.560
 2232TIP3    H2 6661   3.443   5.678   3.489
 2233TIP3   OH2 6662   2.444   5.837   5.549
 2233TIP3    H1 6663   2.379   5.833   5.479
 2233TIP3    H2 6664   2.456   5.930   5.565
 2234TIP3   OH2 6665   6.957   4.319   3.637
 2234TIP3    H1 6666   6.993   4.236   3.606
 2234TIP3    H2 6667   7.033   4.377   3.643
 2235TIP3   OH2 6668   2.873   1.222   5.575
 2235TIP3    H1 6669   2.962   1.225   5.608
 2235TIP3    H2 6670   2.819   1.207   5.653
 2236TIP3   OH2 6671   2.577   6.484   5.419
 2236TIP3    H1 6672   2.517   6.491   5.493
 2236TIP3    H2 6673   2.650   6.541   5.441
 2237TIP3   OH2 6674   1.173   2.347   2.470
 2237TIP3    H1 6675   1.126   2.279   2.420
 2237TIP3    H2 6676   1.112   2.421   2.472
 2238TIP3   OH2 6677   7.079   5.447   0.368
 2238TIP3    H1 6678   6.985   5.464   0.365
 2238TIP3    H2 6679   7.092   5.371   0.312
 2239TIP3   OH2 6680   0.812   2.488   5.607
 2239TIP3    H1 6681   0.862   2.472   5.687
 2239TIP3    H2 6682   0.743   2.421   5.608
 2240TIP3   OH2 6683   6.421   5.753   2.034
 2240TIP3    H1 6684   6.363   5.698   1.980
 2240TIP3    H2 6685   6.443   5.698   2.109
 2241TIP3   OH2 6686   5.843   1.593   5.173
 2241TIP3    H1 6687   5.888   1.672   5.145
 2241TIP3    H2 6688   5.880   1.573   5.259
 2242TIP3   OH2 6689   0.346   2.395   2.887
 2242TIP3    H1 6690   0.304   2.439   2.960
 2242TIP3    H2 6691   0.353   2.303   2.914
 2243TIP3   OH2 6692   4.880   3.709   3.477
 2243TIP3    H1 6693   4.926   3.627   3.457
 2243TIP3    H2 6694   4.916   3.772   3.415
 2244TIP3   OH2 6695   4.001   1.988   3.050
 2244TIP3    H1 6696   4.024   1.910   3.100
 2244TIP3    H2 6697   4.036   2.061   3.102
 2245TIP3   OH2 6698   5.090   4.894   3.157
 2245TIP3    H1 6699   5.128   4.978   3.130
 2245TIP3    H2 6700   5.132   4.873   3.240
 2246TIP3   OH2 6701   3.049   4.961   2.754
 2246TIP3    H1 6702   3.053   4.877   2.708
 2246TIP3    H2 6703   2.993   4.944   2.830
 2247TIP3   OH2 6704   2.793   3.728   4.224
 2247TIP3    H1 6705   2.751   3.659   4.276
 2247TIP3    H2 6706   2.785   3.697   4.134
 2248TIP3   OH2 6707   5.311   3.287   4.764
 2248TIP3    H1 6708   5.305   3.348   4.690
 2248TIP3    H2 6709   5.344   3.341   4.836
 2249TIP3   OH2 6710   3.508   0.814   4.462
 2249TIP3    H1 6711   3.483   0.743   4.404
 2249TIP3    H2 6712   3.425   0.856   4.486
 2250TIP3   OH2 6713   2.729   6.645   2.009
 2250TIP3    H1 6714   2.814   6.647   2.053
 2250TIP3    H2 6715   2.701   6.736   2.006
 2251TIP3   OH2 6716   1.799   6.281   1.885
 2251TIP3    H1 6717   1.722   6.317   1.841
 2251TIP3    H2 6718   1.870   6.342   1.864
 2252TIP3   OH2 6719   3.036   1.476   3.088
 2252TIP3    H1 6720   2.946   1.465   3.119
 2252TIP3    H2 6721   3.033   1.445   2.997
 2253TIP3   OH2 6722   3.668   2.139   3.592
 2253TIP3    H1 6723   3.694   2.140   3.684
 2253TIP3    H2 6724   3.690   2.051   3.561
 2254TIP3   OH2 6725   2.373   1.825   3.208
 2254TIP3    H1 6726   2.436   1.807   3.137
 2254TIP3    H2 6727   2.401   1.908   3.245
 2255TIP3   OH2 6728   0.313   1.704   0.967
 2255TIP3    H1 6729   0.357   1.738   0.889
 2255TIP3    H2 6730   0.224   1.741   0.962
 2256TIP3   OH2 6731   6.046   0.096   2.670
 2256TIP3    H1 6732   6.132   0.121   2.637
 2256TIP3    H2 6733   5.984   0.130   2.605
 2257TIP3   OH2 6734   1.299   3.440   0.321
 2257TIP3    H1 6735   1.351   3.398   0.253
 2257TIP3    H2 6736   1.225   3.479   0.275
 2258TIP3   OH2 6737   3.659   6.152   4.440
 2258TIP3    H1 6738   3.680   6.228   4.386
 2258TIP3    H2 6739   3.570   6.167   4.470
 2259TIP3   OH2 6740   3.225   4.723   1.831
 2259TIP3    H1 6741   3.198   4.726   1.923
 2259TIP3    H2 6742   3.199   4.635   1.801
 2260TIP3   OH2 6743   5.214   2.239   3.563
 2260TIP3    H1 6744   5.197   2.150   3.593
 2260TIP3    H2 6745   5.308   2.252   3.579
 2261TIP3   OH2 6746   2.916   3.148   0.589
 2261TIP3    H1 6747   2.973   3.094   0.644
 2261TIP3    H2 6748   2.908   3.231   0.636
 2262TIP3   OH2 6749   5.658   4.571   4.310
 2262TIP3    H1 6750   5.695   4.497   4.261
 2262TIP3    H2 6751   5.568   4.546   4.327
 2263TIP3   OH2 6752   2.705   2.932   0.512
 2263TIP3    H1 6753   2.689   2.927   0.418
 2263TIP3    H2 6754   2.747   3.017   0.526
 2264TIP3   OH2 6755   1.420   2.281   0.284
 2264TIP3    H1 6756   1.493   2.329   0.244
 2264TIP3    H2 6757   1.342   2.324   0.251
 2265TIP3   OH2 6758   6.840   2.927   0.917
 2265TIP3    H1 6759   6.797   2.847   0.947
 2265TIP3    H2 6760   6.821   2.992   0.984
 2266TIP3   OH2 6761   4.365   4.400   1.868
 2266TIP3    H1 6762   4.306   4.468   1.902
 2266TIP3    H2 6763   4.332   4.319   1.907
 2267TIP3   OH2 6764   5.929   2.533   4.886
 2267TIP3    H1 6765   5.895   2.597   4.824
 2267TIP3    H2 6766   5.863   2.529   4.955
 2268TIP3   OH2 6767   4.967   0.309   1.200
 2268TIP3    H1 6768   4.940   0.248   1.132
 2268TIP3    H2 6769   5.016   0.256   1.262
 2269TIP3   OH2 6770   1.846   1.005   5.534
 2269TIP3    H1 6771   1.806   0.934   5.584
 2269TIP3    H2 6772   1.940   0.986   5.536
 2270TIP3   OH2 6773   2.508   4.790   2.760
 2270TIP3    H1 6774   2.546   4.705   2.738
 2270TIP3    H2 6775   2.414   4.775   2.763
 2271TIP3   OH2 6776   2.248   1.785   1.734
 2271TIP3    H1 6777   2.284   1.781   1.823
 2271TIP3    H2 6778   2.155   1.804   1.748
 2272TIP3   OH2 6779   0.128   4.763   5.152
 2272TIP3    H1 6780   0.085   4.678   5.161
 2272TIP3    H2 6781   0.057   4.824   5.133
 2273TIP3   OH2 6782   1.229   0.595   3.520
 2273TIP3    H1 6783   1.283   0.517   3.525
 2273TIP3    H2 6784   1.206   0.615   3.611
 2274TIP3   OH2 6785   0.726   0.019   2.682
 2274TIP3    H1 6786   0.687  -0.035   2.613
 2274TIP3    H2 6787   0.668   0.095   2.688
 2275TIP3   OH2 6788   1.716   1.847   0.096
 2275TIP3    H1 6789   1.707   1.887   0.009
 2275TIP3    H2 6790   1.637   1.794   0.106
 2276TIP3   OH2 6791   6.099   5.628   2.821
 2276TIP3    H1 6792   6.183   5.660   2.788
 2276TIP3    H2 6793   6.105   5.533   2.816
 2277TIP3   OH2 6794   1.316   2.109   3.135
 2277TIP3    H1 6795   1.344   2.082   3.048
 2277TIP3    H2 6796   1.297   2.028   3.181
 2278TIP3   OH2 6797   6.819   2.364   2.374
 2278TIP3    H1 6798   6.825   2.405   2.460
 2278TIP3    H2 6799   6.828   2.437   2.312
 2279TIP3   OH2 6800   1.128   5.893   2.634
 2279TIP3    H1 6801   1.039   5.860   2.618
 2279TIP3    H2 6802   1.149   5.864   2.722
 2280TIP3   OH2 6803   2.608   0.126   1.068
 2280TIP3    H1 6804   2.539   0.190   1.051
 2280TIP3    H2 6805   2.663   0.130   0.990
 2281TIP3   OH2 6806   6.884   0.972   1.189
 2281TIP3    H1 6807   6.835   1.018   1.121
 2281TIP3    H2 6808   6.938   0.909   1.142
 2282TIP3   OH2 6809   0.501   6.154   3.029
 2282TIP3    H1 6810   0.412   6.151   2.994
 2282TIP3    H2 6811   0.537   6.067   3.010
 2283TIP3   OH2 6812   5.266   2.045   1.639
 2283TIP3    H1 6813   5.324   2.053   1.563
 2283TIP3    H2 6814   5.186   2.005   1.604
 2284TIP3   OH2 6815   4.089   3.783   2.767
 2284TIP3    H1 6816   4.028   3.760   2.697
 2284TIP3    H2 6817   4.126   3.867   2.740
 2285TIP3   OH2 6818   0.399   4.735   5.624
 2285TIP3    H1 6819   0.478   4.731   5.570
 2285TIP3    H2 6820   0.420   4.680   5.700
 2286TIP3   OH2 6821   4.084   3.365   3.586
 2286TIP3    H1 6822   4.027   3.293   3.613
 2286TIP3    H2 6823   4.140   3.381   3.663
 2287TIP3   OH2 6824   7.053   2.041   3.801
 2287TIP3    H1 6825   7.059   2.080   3.714
 2287TIP3    H2 6826   7.122   2.084   3.852
 2288TIP3   OH2 6827   1.925   1.643   2.968
 2288TIP3    H1 6828   1.984   1.709   3.004
 2288TIP3    H2 6829   1.841   1.660   3.011
 2289TIP3   OH2 6830   4.486   1.645   4.258
 2289TIP3    H1 6831   4.477   1.704   4.183
 2289TIP3    H2 6832   4.581   1.639   4.272
 2290TIP3   OH2 6833   0.091   5.434   0.563
 2290TIP3    H1 6834   0.174   5.468   0.529
 2290TIP3    H2 6835   0.027   5.455   0.496
 2291TIP3   OH2 6836   4.019   4.094   1.024
 2291TIP3    H1 6837   4.012   4.123   1.115
 2291TIP3    H2 6838   3.996   4.001   1.026
 2292TIP3   OH2 6839   1.224   6.545   0.768
 2292TIP3    H1 6840   1.189   6.478   0.826
 2292TIP3    H2 6841   1.310   6.512   0.741
 2293TIP3   OH2 6842   1.297   5.152   1.136
 2293TIP3    H1 6843   1.306   5.084   1.069
 2293TIP3    H2 6844   1.208   5.184   1.126
 2294TIP3   OH2 6845   0.239   5.432   5.576
 2294TIP3    H1 6846   0.202   5.427   5.488
 2294TIP3    H2 6847   0.334   5.429   5.562
 2295TIP3   OH2 6848   0.968   4.925   4.494
 2295TIP3    H1 6849   0.966   4.838   4.453
 2295TIP3    H2 6850   1.012   4.981   4.430
 2296TIP3   OH2 6851   5.702   2.974   1.954
 2296TIP3    H1 6852   5.776   2.950   1.898
 2296TIP3    H2 6853   5.646   3.028   1.898
 2297TIP3   OH2 6854   3.462   2.426   1.275
 2297TIP3    H1 6855   3.528   2.467   1.331
 2297TIP3    H2 6856   3.446   2.490   1.205
 2298TIP3   OH2 6857   1.856   6.130   2.196
 2298TIP3    H1 6858   1.869   6.112   2.289
 2298TIP3    H2 6859   1.904   6.212   2.181
 2299TIP3   OH2 6860   0.170   3.721   3.209
 2299TIP3    H1 6861   0.180   3.702   3.116
 2299TIP3    H2 6862   0.138   3.811   3.211
 2300TIP3   OH2 6863   5.345   5.188   0.177
 2300TIP3    H1 6864   5.344   5.105   0.224
 2300TIP3    H2 6865   5.326   5.164   0.086
 2301TIP3   OH2 6866   0.446   1.499   0.173
 2301TIP3    H1 6867   0.403   1.578   0.205
 2301TIP3    H2 6868   0.465   1.448   0.253
 2302TIP3   OH2 6869   0.548   5.399   0.416
 2302TIP3    H1 6870   0.634   5.372   0.447
 2302TIP3    H2 6871   0.492   5.395   0.494
 2303TIP3   OH2 6872   2.990   1.031   0.085
 2303TIP3    H1 6873   3.025   1.073   0.164
 2303TIP3    H2 6874   3.063   0.979   0.051
 2304TIP3   OH2 6875   1.712   5.017   0.807
 2304TIP3    H1 6876   1.704   5.098   0.856
 2304TIP3    H2 6877   1.798   5.023   0.765
 2305TIP3   OH2 6878   2.791   4.657   5.550
 2305TIP3    H1 6879   2.701   4.675   5.576
 2305TIP3    H2 6880   2.829   4.609   5.624
 2306TIP3   OH2 6881   3.587   5.672   5.855
 2306TIP3    H1 6882   3.603   5.660   5.762
 2306TIP3    H2 6883   3.504   5.627   5.871
 2307TIP3   OH2 6884   2.177   0.096   4.250
 2307TIP3    H1 6885   2.231   0.175   4.243
 2307TIP3    H2 6886   2.241   0.024   4.252
 2308TIP3   OH2 6887   4.680   0.751   5.548
 2308TIP3    H1 6888   4.587   0.772   5.550
 2308TIP3    H2 6889   4.708   0.771   5.459
 2309TIP3   OH2 6890   5.658   0.586   3.050
 2309TIP3    H1 6891   5.576   0.590   3.100
 2309TIP3    H2 6892   5.641   0.520   2.983
 2310TIP3   OH2 6893   0.812   6.029   5.070
 2310TIP3    H1 6894   0.736   5.984   5.034
 2310TIP3    H2 6895   0.807   6.015   5.164
 2311TIP3   OH2 6896   5.828   5.777   1.073
 2311TIP3    H1 6897   5.785   5.702   1.030
 2311TIP3    H2 6898   5.830   5.845   1.005
 2312TIP3   OH2 6899   7.194   4.079   0.723
 2312TIP3    H1 6900   7.103   4.050   0.711
 2312TIP3    H2 6901   7.204   4.086   0.818
 2313TIP3   OH2 6902   2.379   2.810   3.284
 2313TIP3    H1 6903   2.470   2.811   3.254
 2313TIP3    H2 6904   2.372   2.884   3.345
 2314TIP3   OH2 6905   5.415   6.602   5.063
 2314TIP3    H1 6906   5.414   6.540   4.990
 2314TIP3    H2 6907   5.375   6.682   5.027
 2315TIP3   OH2 6908   0.952   1.845   0.815
 2315TIP3    H1 6909   0.997   1.880   0.892
 2315TIP3    H2 6910   1.022   1.824   0.754
 2316TIP3   OH2 6911   1.342   3.056   0.164
 2316TIP3    H1 6912   1.384   3.141   0.177
 2316TIP3    H2 6913   1.251   3.077   0.143
 2317TIP3   OH2 6914   5.272   3.998   4.976
 2317TIP3    H1 6915   5.240   3.926   5.031
 2317TIP3    H2 6916   5.277   4.073   5.036
 2318TIP3   OH2 6917   5.442   3.783   4.160
 2318TIP3    H1 6918   5.511   3.792   4.095
 2318TIP3    H2 6919   5.451   3.693   4.192
 2319TIP3   OH2 6920   5.631   3.292   4.637
 2319TIP3    H1 6921   5.601   3.275   4.548
 2319TIP3    H2 6922   5.551   3.297   4.689
 2320TIP3   OH2 6923   1.569   6.656   4.087
 2320TIP3    H1 6924   1.569   6.690   3.998
 2320TIP3    H2 6925   1.526   6.570   4.079
 2321TIP3   OH2 6926   3.557   4.435   0.365
 2321TIP3    H1 6927   3.509   4.360   0.399
 2321TIP3    H2 6928   3.512   4.511   0.402
 2322TIP3   OH2 6929   0.496   5.265   1.935
 2322TIP3    H1 6930   0.450   5.312   1.866
 2322TIP3    H2 6931   0.431   5.205   1.971
 2323TIP3   OH2 6932   1.981   4.690   4.002
 2323TIP3    H1 6933   1.918   4.760   4.022
 2323TIP3    H2 6934   1.945   4.645   3.926
 2324TIP3   OH2 6935   2.193   0.633   5.410
 2324TIP3    H1 6936   2.133   0.624   5.484
 2324TIP3    H2 6937   2.268   0.682   5.445
 2325TIP3   OH2 6938   2.733   2.418   2.644
 2325TIP3    H1 6939   2.740   2.482   2.574
 2325TIP3    H2 6940   2.669   2.455   2.705
 2326TIP3   OH2 6941   1.750   3.699   5.501
 2326TIP3    H1 6942   1.744   3.694   5.405
 2326TIP3    H2 6943   1.710   3.783   5.523
 2327TIP3   OH2 6944   5.840   1.017   1.491
 2327TIP3    H1 6945   5.803   0.970   1.416
 2327TIP3    H2 6946   5.880   0.949   1.545
 2328TIP3   OH2 6947   3.814   4.948   1.711
 2328TIP3    H1 6948   3.898   4.961   1.665
 2328TIP3    H2 6949   3.826   4.865   1.758
 2329TIP3   OH2 6950   1.274   2.515   5.082
 2329TIP3    H1 6951   1.239   2.584   5.139
 2329TIP3    H2 6952   1.291   2.442   5.141
 2330TIP3   OH2 6953   5.456   3.692   2.826
 2330TIP3    H1 6954   5.475   3.598   2.832
 2330TIP3    H2 6955   5.369   3.701   2.863
 2331TIP3   OH2 6956   0.182   1.044   4.433
 2331TIP3    H1 6957   0.198   0.952   4.454
 2331TIP3    H2 6958   0.115   1.041   4.364
 2332TIP3   OH2 6959   2.355   2.125   4.076
 2332TIP3    H1 6960   2.268   2.126   4.116
 2332TIP3    H2 6961   2.377   2.032   4.069
 2333TIP3   OH2 6962   4.038   5.518   1.218
 2333TIP3    H1 6963   4.013   5.575   1.146
 2333TIP3    H2 6964   4.131   5.501   1.204
 2334TIP3   OH2 6965   4.421   5.663   1.149
 2334TIP3    H1 6966   4.483   5.736   1.158
 2334TIP3    H2 6967   4.338   5.705   1.126
 2335TIP3   OH2 6968   4.746   0.480   5.767
 2335TIP3    H1 6969   4.745   0.557   5.710
 2335TIP3    H2 6970   4.659   0.442   5.757
 2336TIP3   OH2 6971   6.477   0.386   5.718
 2336TIP3    H1 6972   6.421   0.315   5.747
 2336TIP3    H2 6973   6.563   0.365   5.755
 2337TIP3   OH2 6974   1.562   5.213   1.590
 2337TIP3    H1 6975   1.583   5.275   1.660
 2337TIP3    H2 6976   1.619   5.138   1.607
 2338TIP3   OH2 6977   5.020   0.515   1.421
 2338TIP3    H1 6978   4.985   0.449   1.362
 2338TIP3    H2 6979   4.948   0.577   1.433
 2339TIP3   OH2 6980   0.157   1.458   0.251
 2339TIP3    H1 6981   0.141   1.498   0.165
 2339TIP3    H2 6982   0.250   1.436   0.250
 2340TIP3   OH2 6983   3.342   4.778   2.354
 2340TIP3    H1 6984   3.399   4.790   2.278
 2340TIP3    H2 6985   3.327   4.683   2.358
 2341TIP3   OH2 6986   6.566   6.410   4.379
 2341TIP3    H1 6987   6.546   6.321   4.405
 2341TIP3    H2 6988   6.659   6.407   4.354
 2342TIP3   OH2 6989   4.374   4.551   0.804
 2342TIP3    H1 6990   4.346   4.529   0.893
 2342TIP3    H2 6991   4.355   4.644   0.795
 2343TIP3   OH2 6992   0.137   2.120   1.897
 2343TIP3    H1 6993   0.067   2.185   1.905
 2343TIP3    H2 6994   0.105   2.058   1.831
 2344TIP3   OH2 6995   6.169   0.966   1.562
 2344TIP3    H1 6996   6.085   0.921   1.559
 2344TIP3    H2 6997   6.181   1.000   1.474
 2345TIP3   OH2 6998   1.516   0.550   4.933
 2345TIP3    H1 6999   1.560   0.493   4.870
 2345TIP3    H2 7000   1.572   0.627   4.939
 2346TIP3   OH2 7001   3.730   1.622   3.433
 2346TIP3    H1 7002   3.695   1.665   3.511
 2346TIP3    H2 7003   3.732   1.691   3.366
 2347TIP3   OH2 7004   2.088   2.058   4.188
 2347TIP3    H1 7005   2.086   2.109   4.269
 2347TIP3    H2 7006   1.996   2.048   4.164
 2348TIP3   OH2 7007   3.798   2.526   3.608
 2348TIP3    H1 7008   3.854   2.451   3.593
 2348TIP3    H2 7009   3.728   2.518   3.543
 2349TIP3   OH2 7010   3.798   5.935   5.390
 2349TIP3    H1 7011   3.771   5.937   5.482
 2349TIP3    H2 7012   3.853   6.012   5.379
 2350TIP3   OH2 7013   3.501   1.834   4.977
 2350TIP3    H1 7014   3.548   1.800   5.054
 2350TIP3    H2 7015   3.424   1.878   5.014
 2351TIP3   OH2 7016   2.626   0.793   3.609
 2351TIP3    H1 7017   2.650   0.847   3.533
 2351TIP3    H2 7018   2.705   0.793   3.663
 2352TIP3   OH2 7019   4.269   2.457   3.702
 2352TIP3    H1 7020   4.364   2.448   3.702
 2352TIP3    H2 7021   4.254   2.552   3.700
 2353TIP3   OH2 7022   6.933   2.946   1.926
 2353TIP3    H1 7023   6.933   2.850   1.926
 2353TIP3    H2 7024   7.016   2.969   1.968
 2354TIP3   OH2 7025   0.243   5.843   5.525
 2354TIP3    H1 7026   0.237   5.910   5.457
 2354TIP3    H2 7027   0.153   5.811   5.534
 2355TIP3   OH2 7028   1.899   2.746   3.754
 2355TIP3    H1 7029   1.901   2.694   3.674
 2355TIP3    H2 7030   1.951   2.696   3.817
 2356TIP3   OH2 7031   2.552   6.534   2.239
 2356TIP3    H1 7032   2.543   6.608   2.179
 2356TIP3    H2 7033   2.529   6.569   2.325
 2357TIP3   OH2 7034   5.218   3.298   1.662
 2357TIP3    H1 7035   5.149   3.332   1.606
 2357TIP3    H2 7036   5.282   3.259   1.603
 2358TIP3   OH2 7037   3.375   3.515   0.967
 2358TIP3    H1 7038   3.394   3.432   1.011
 2358TIP3    H2 7039   3.433   3.579   1.009
 2359TIP3   OH2 7040   6.386   6.229   1.135
 2359TIP3    H1 7041   6.420   6.198   1.219
 2359TIP3    H2 7042   6.456   6.210   1.073
 2360TIP3   OH2 7043   6.837   3.649   0.484
 2360TIP3    H1 7044   6.757   3.686   0.446
 2360TIP3    H2 7045   6.839   3.559   0.451
 2361TIP3   OH2 7046   0.239   1.133   4.141
 2361TIP3    H1 7047   0.280   1.054   4.105
 2361TIP3    H2 7048   0.153   1.104   4.170
 2362TIP3   OH2 7049   1.192   0.739   5.198
 2362TIP3    H1 7050   1.282   0.765   5.176
 2362TIP3    H2 7051   1.202   0.671   5.265
 2363TIP3   OH2 7052   5.694   2.761   2.189
 2363TIP3    H1 7053   5.682   2.822   2.262
 2363TIP3    H2 7054   5.679   2.814   2.110
 2364TIP3   OH2 7055   6.889   4.882   4.281
 2364TIP3    H1 7056   6.895   4.921   4.194
 2364TIP3    H2 7057   6.818   4.930   4.324
 2365TIP3   OH2 7058   0.339   0.516   3.515
 2365TIP3    H1 7059   0.252   0.500   3.477
 2365TIP3    H2 7060   0.323   0.528   3.609
 2366TIP3   OH2 7061   0.569   2.707   5.408
 2366TIP3    H1 7062   0.616   2.775   5.360
 2366TIP3    H2 7063   0.524   2.754   5.479
 2367TIP3   OH2 7064   3.234   4.089   0.488
 2367TIP3    H1 7065   3.157   4.078   0.544
 2367TIP3    H2 7066   3.262   4.000   0.467
 2368TIP3   OH2 7067   7.065   5.543   0.982
 2368TIP3    H1 7068   6.983   5.501   0.955
 2368TIP3    H2 7069   7.123   5.470   1.003
 2369TIP3   OH2 7070   5.564   5.201   4.427
 2369TIP3    H1 7071   5.656   5.174   4.420
 2369TIP3    H2 7072   5.523   5.163   4.349
 2370TIP3   OH2 7073   0.259   5.994   2.964
 2370TIP3    H1 7074   0.233   5.942   3.040
 2370TIP3    H2 7075   0.189   5.981   2.901
 2371TIP3   OH2 7076   2.988   4.352   0.545
 2371TIP3    H1 7077   2.933   4.336   0.622
 2371TIP3    H2 7078   2.979   4.272   0.493
 2372TIP3   OH2 7079   2.214   5.711   3.366
 2372TIP3    H1 7080   2.190   5.804   3.368
 2372TIP3    H2 7081   2.289   5.707   3.307
 2373TIP3   OH2 7082   2.393   0.492   3.172
 2373TIP3    H1 7083   2.375   0.562   3.109
 2373TIP3    H2 7084   2.425   0.537   3.250
 2374TIP3   OH2 7085   5.007   1.725   5.391
 2374TIP3    H1 7086   4.969   1.637   5.386
 2374TIP3    H2 7087   5.089   1.718   5.342
 2375TIP3   OH2 7088   0.795   6.649   1.856
 2375TIP3    H1 7089   0.840   6.566   1.842
 2375TIP3    H2 7090   0.729   6.652   1.787
 2376TIP3   OH2 7091   4.868   3.193   5.599
 2376TIP3    H1 7092   4.873   3.222   5.508
 2376TIP3    H2 7093   4.776   3.203   5.622
 2377TIP3   OH2 7094   3.592   6.572   2.095
 2377TIP3    H1 7095   3.499   6.557   2.113
 2377TIP3    H2 7096   3.637   6.540   2.173
 2378TIP3   OH2 7097   2.952   4.508   5.364
 2378TIP3    H1 7098   2.895   4.573   5.404
 2378TIP3    H2 7099   2.892   4.440   5.332
 2379TIP3   OH2 7100   1.878   5.860   1.706
 2379TIP3    H1 7101   1.925   5.942   1.689
 2379TIP3    H2 7102   1.850   5.830   1.620
 2380TIP3   OH2 7103   5.059   2.079   1.254
 2380TIP3    H1 7104   5.091   2.038   1.334
 2380TIP3    H2 7105   5.136   2.121   1.215
 2381TIP3   OH2 7106   1.933   4.448   2.400
 2381TIP3    H1 7107   2.020   4.433   2.361
 2381TIP3    H2 7108   1.881   4.484   2.328
 2382TIP3   OH2 7109   2.000   5.107   5.602
 2382TIP3    H1 7110   2.072   5.147   5.554
 2382TIP3    H2 7111   2.042   5.061   5.675
 2383TIP3   OH2 7112   6.380   0.814   3.014
 2383TIP3    H1 7113   6.302   0.787   2.966
 2383TIP3    H2 7114   6.374   0.909   3.018
 2384TIP3   OH2 7115   0.823   0.303   2.857
 2384TIP3    H1 7116   0.805   0.250   2.935
 2384TIP3    H2 7117   0.914   0.285   2.835
 2385TIP3   OH2 7118   3.702   1.482   1.672
 2385TIP3    H1 7119   3.763   1.421   1.630
 2385TIP3    H2 7120   3.724   1.567   1.634
 2386TIP3   OH2 7121   1.339   5.545   3.378
 2386TIP3    H1 7122   1.427   5.538   3.415
 2386TIP3    H2 7123   1.292   5.471   3.415
 2387TIP3   OH2 7124   1.375   5.970   3.208
 2387TIP3    H1 7125   1.410   5.973   3.297
 2387TIP3    H2 7126   1.351   6.061   3.188
 2388TIP3   OH2 7127   6.670   3.586   4.515
 2388TIP3    H1 7128   6.732   3.531   4.563
 2388TIP3    H2 7129   6.590   3.535   4.512
 2389TIP3   OH2 7130   2.155   3.275   4.167
 2389TIP3    H1 7131   2.073   3.241   4.203
 2389TIP3    H2 7132   2.210   3.197   4.155
 2390TIP3   OH2 7133   6.645   4.366   1.042
 2390TIP3    H1 7134   6.666   4.407   1.126
 2390TIP3    H2 7135   6.690   4.281   1.045
 2391TIP3   OH2 7136   4.745   2.467   2.461
 2391TIP3    H1 7137   4.766   2.546   2.412
 2391TIP3    H2 7138   4.816   2.458   2.525
 2392TIP3   OH2 7139   5.927   4.771   4.391
 2392TIP3    H1 7140   5.838   4.784   4.424
 2392TIP3    H2 7141   5.947   4.852   4.345
 2393TIP3   OH2 7142   4.316   3.384   3.753
 2393TIP3    H1 7143   4.324   3.345   3.841
 2393TIP3    H2 7144   4.394   3.439   3.744
 2394TIP3   OH2 7145   0.835   3.947   5.474
 2394TIP3    H1 7146   0.776   3.935   5.549
 2394TIP3    H2 7147   0.885   3.866   5.469
 2395TIP3   OH2 7148   6.214   3.887   0.094
 2395TIP3    H1 7149   6.250   3.976   0.098
 2395TIP3    H2 7150   6.200   3.871   0.000
 2396TIP3   OH2 7151   2.805   2.160   2.563
 2396TIP3    H1 7152   2.747   2.087   2.583
 2396TIP3    H2 7153   2.758   2.237   2.593
 2397TIP3   OH2 7154   0.591   2.780   3.751
 2397TIP3    H1 7155   0.669   2.775   3.695
 2397TIP3    H2 7156   0.518   2.774   3.689
 2398TIP3   OH2 7157   5.083   1.466   3.658
 2398TIP3    H1 7158   5.146   1.534   3.633
 2398TIP3    H2 7159   5.078   1.410   3.580
 2399TIP3   OH2 7160   4.917   5.424   2.814
 2399TIP3    H1 7161   4.996   5.392   2.770
 2399TIP3    H2 7162   4.928   5.519   2.818
 2400TIP3   OH2 7163   0.746   4.256   1.873
 2400TIP3    H1 7164   0.783   4.171   1.894
 2400TIP3    H2 7165   0.811   4.298   1.817
 2401TIP3   OH2 7166   1.063   5.484   3.178
 2401TIP3    H1 7167   1.118   5.407   3.167
 2401TIP3    H2 7168   1.119   5.548   3.222
 2402TIP3   OH2 7169   1.531   1.135   5.406
 2402TIP3    H1 7170   1.452   1.081   5.415
 2402TIP3    H2 7171   1.603   1.074   5.418
 2403TIP3   OH2 7172   1.431   4.766   5.183
 2403TIP3    H1 7173   1.495   4.807   5.126
 2403TIP3    H2 7174   1.418   4.679   5.145
 2404TIP3   OH2 7175   6.178   5.482   5.549
 2404TIP3    H1 7176   6.148   5.566   5.515
 2404TIP3    H2 7177   6.250   5.457   5.490
 2405TIP3   OH2 7178   4.423   2.458   0.498
 2405TIP3    H1 7179   4.420   2.515   0.421
 2405TIP3    H2 7180   4.331   2.443   0.520
 2406TIP3   OH2 7181   1.127   5.811   1.176
 2406TIP3    H1 7182   1.208   5.821   1.226
 2406TIP3    H2 7183   1.059   5.847   1.233
 2407TIP3   OH2 7184   3.561   0.433   2.675
 2407TIP3    H1 7185   3.590   0.356   2.725
 2407TIP3    H2 7186   3.596   0.419   2.587
 2408TIP3   OH2 7187   2.967   6.666   2.135
 2408TIP3    H1 7188   2.991   6.633   2.222
 2408TIP3    H2 7189   3.010   6.606   2.074
 2409TIP3   OH2 7190   1.209   4.719   0.280
 2409TIP3    H1 7191   1.132   4.769   0.306
 2409TIP3    H2 7192   1.177   4.629   0.269
 2410TIP3   OH2 7193   5.591   4.596   5.291
 2410TIP3    H1 7194   5.669   4.646   5.268
 2410TIP3    H2 7195   5.622   4.529   5.352
 2411TIP3   OH2 7196   1.836   5.241   5.131
 2411TIP3    H1 7197   1.860   5.280   5.215
 2411TIP3    H2 7198   1.824   5.148   5.150
 2412TIP3   OH2 7199   1.410   5.149   3.354
 2412TIP3    H1 7200   1.329   5.158   3.403
 2412TIP3    H2 7201   1.406   5.060   3.318
 2413TIP3   OH2 7202   5.507   5.018   4.237
 2413TIP3    H1 7203   5.423   4.996   4.196
 2413TIP3    H2 7204   5.565   4.946   4.212
 2414TIP3   OH2 7205   0.346   1.406   5.009
 2414TIP3    H1 7206   0.294   1.433   4.933
 2414TIP3    H2 7207   0.350   1.484   5.064
 2415TIP3   OH2 7208   6.637   2.545   0.507
 2415TIP3    H1 7209   6.627   2.566   0.600
 2415TIP3    H2 7210   6.658   2.629   0.467
 2416TIP3   OH2 7211   1.411   2.090   2.886
 2416TIP3    H1 7212   1.494   2.133   2.901
 2416TIP3    H2 7213   1.355   2.158   2.848
 2417TIP3   OH2 7214   5.497   5.503   1.737
 2417TIP3    H1 7215   5.548   5.453   1.673
 2417TIP3    H2 7216   5.408   5.502   1.703
 2418TIP3   OH2 7217   2.379   4.083   1.336
 2418TIP3    H1 7218   2.322   4.086   1.259
 2418TIP3    H2 7219   2.449   4.023   1.311
 2419TIP3   OH2 7220   1.994   1.162   3.611
 2419TIP3    H1 7221   1.908   1.128   3.587
 2419TIP3    H2 7222   2.050   1.140   3.536
 2420TIP3   OH2 7223   6.459   4.780   2.117
 2420TIP3    H1 7224   6.461   4.689   2.147
 2420TIP3    H2 7225   6.551   4.807   2.115
 2421TIP3   OH2 7226   2.733   3.020   4.711
 2421TIP3    H1 7227   2.702   2.962   4.641
 2421TIP3    H2 7228   2.728   3.108   4.674
 2422TIP3   OH2 7229   0.444   3.292   0.113
 2422TIP3    H1 7230   0.455   3.372   0.062
 2422TIP3    H2 7231   0.533   3.257   0.121
 2423TIP3   OH2 7232   3.114   0.109   1.949
 2423TIP3    H1 7233   3.136   0.021   1.919
 2423TIP3    H2 7234   3.029   0.100   1.991
 2424TIP3   OH2 7235   0.611   2.962   5.275
 2424TIP3    H1 7236   0.658   3.024   5.220
 2424TIP3    H2 7237   0.546   3.015   5.321
 2425TIP3   OH2 7238   2.268   2.724   4.538
 2425TIP3    H1 7239   2.323   2.646   4.548
 2425TIP3    H2 7240   2.202   2.716   4.607
 2426TIP3   OH2 7241   3.184   4.314   5.540
 2426TIP3    H1 7242   3.193   4.219   5.547
 2426TIP3    H2 7243   3.185   4.331   5.446
 2427TIP3   OH2 7244   4.734   5.027   4.965
 2427TIP3    H1 7245   4.683   5.013   4.885
 2427TIP3    H2 7246   4.744   5.122   4.972
 2428TIP3   OH2 7247   6.088   2.486   0.198
 2428TIP3    H1 7248   5.997   2.456   0.198
 2428TIP3    H2 7249   6.090   2.555   0.131
 2429TIP3   OH2 7250   0.981   2.005   1.312
 2429TIP3    H1 7251   0.943   2.007   1.400
 2429TIP3    H2 7252   1.068   2.044   1.323
 2430TIP3   OH2 7253   0.832   0.666   1.906
 2430TIP3    H1 7254   0.921   0.700   1.910
 2430TIP3    H2 7255   0.776   0.741   1.926
 2431TIP3   OH2 7256   3.452   6.342   2.496
 2431TIP3    H1 7257   3.451   6.250   2.521
 2431TIP3    H2 7258   3.500   6.386   2.567
 2432TIP3   OH2 7259   0.531   4.219   4.950
 2432TIP3    H1 7260   0.467   4.152   4.924
 2432TIP3    H2 7261   0.613   4.171   4.957
 2433TIP3   OH2 7262   6.871   1.833   3.765
 2433TIP3    H1 7263   6.784   1.866   3.743
 2433TIP3    H2 7264   6.925   1.912   3.775
 2434TIP3   OH2 7265   4.148   3.019   3.767
 2434TIP3    H1 7266   4.139   2.988   3.676
 2434TIP3    H2 7267   4.075   2.979   3.813
 2435TIP3   OH2 7268   2.655   2.448   3.247
 2435TIP3    H1 7269   2.693   2.394   3.177
 2435TIP3    H2 7270   2.719   2.518   3.260
 2436TIP3   OH2 7271   1.852   2.903   4.436
 2436TIP3    H1 7272   1.762   2.883   4.413
 2436TIP3    H2 7273   1.895   2.818   4.442
 2437TIP3   OH2 7274   3.376   5.614   4.613
 2437TIP3    H1 7275   3.375   5.545   4.547
 2437TIP3    H2 7276   3.383   5.695   4.562
 2438TIP3   OH2 7277   6.060   0.055   2.015
 2438TIP3    H1 7278   6.154   0.043   2.004
 2438TIP3    H2 7279   6.029  -0.028   2.052
 2439TIP3   OH2 7280   5.674   4.278   0.914
 2439TIP3    H1 7281   5.679   4.262   0.820
 2439TIP3    H2 7282   5.680   4.374   0.923
 2440TIP3   OH2 7283   2.992   5.067   2.185
 2440TIP3    H1 7284   2.934   5.108   2.249
 2440TIP3    H2 7285   3.053   5.015   2.236
 2441TIP3   OH2 7286   3.335   4.411   4.392
 2441TIP3    H1 7287   3.289   4.336   4.354
 2441TIP3    H2 7288   3.339   4.392   4.486
 2442TIP3   OH2 7289   7.121   3.227   3.760
 2442TIP3    H1 7290   7.198   3.259   3.806
 2442TIP3    H2 7291   7.094   3.150   3.810
 2443TIP3   OH2 7292   5.709   4.588   5.781
 2443TIP3    H1 7293   5.792   4.633   5.798
 2443TIP3    H2 7294   5.700   4.589   5.686
 2444TIP3   OH2 7295   4.753   6.689   0.736
 2444TIP3    H1 7296   4.748   6.738   0.818
 2444TIP3    H2 7297   4.742   6.597   0.762
 2445TIP3   OH2 7298   2.565   2.030   2.688
 2445TIP3    H1 7299   2.577   1.977   2.767
 2445TIP3    H2 7300   2.549   1.967   2.618
 2446TIP3   OH2 7301   4.007   4.661   1.442
 2446TIP3    H1 7302   4.087   4.608   1.435
 2446TIP3    H2 7303   3.959   4.622   1.515
 2447TIP3   OH2 7304   5.001   6.776   2.662
 2447TIP3    H1 7305   4.974   6.844   2.725
 2447TIP3    H2 7306   4.974   6.811   2.577
 2448TIP3   OH2 7307   3.740   3.980   2.998
 2448TIP3    H1 7308   3.721   3.903   2.946
 2448TIP3    H2 7309   3.668   4.040   2.980
 2449TIP3   OH2 7310   2.710   1.843   4.428
 2449TIP3    H1 7311   2.778   1.809   4.486
 2449TIP3    H2 7312   2.750   1.919   4.386
 2450TIP3   OH2 7313   4.445   0.628   0.222
 2450TIP3    H1 7314   4.527   0.663   0.257
 2450TIP3    H2 7315   4.465   0.539   0.195
 2451TIP3   OH2 7316   0.657   3.417   5.440
 2451TIP3    H1 7317   0.589   3.432   5.374
 2451TIP3    H2 7318   0.619   3.450   5.521
 2452TIP3   OH2 7319   2.718   0.281   1.318
 2452TIP3    H1 7320   2.747   0.244   1.402
 2452TIP3    H2 7321   2.634   0.239   1.301
 2453TIP3   OH2 7322   3.417   6.312   3.092
 2453TIP3    H1 7323   3.495   6.283   3.044
 2453TIP3    H2 7324   3.427   6.407   3.099
 2454TIP3   OH2 7325   6.221   1.366   0.536
 2454TIP3    H1 7326   6.193   1.456   0.515
 2454TIP3    H2 7327   6.218   1.362   0.632
 2455TIP3   OH2 7328   4.552   2.086   0.269
 2455TIP3    H1 7329   4.497   2.149   0.222
 2455TIP3    H2 7330   4.520   2.089   0.359
 2456TIP3   OH2 7331   4.389   3.300   0.360
 2456TIP3    H1 7332   4.482   3.325   0.360
 2456TIP3    H2 7333   4.360   3.314   0.270
 2457TIP3   OH2 7334   1.198   6.508   0.347
 2457TIP3    H1 7335   1.191   6.590   0.395
 2457TIP3    H2 7336   1.256   6.528   0.273
 2458TIP3   OH2 7337   2.219   6.574   1.663
 2458TIP3    H1 7338   2.201   6.639   1.596
 2458TIP3    H2 7339   2.306   6.597   1.696
 2459TIP3   OH2 7340   3.148   1.307   5.397
 2459TIP3    H1 7341   3.238   1.280   5.414
 2459TIP3    H2 7342   3.098   1.225   5.396
 2460TIP3   OH2 7343   4.630   4.712   1.820
 2460TIP3    H1 7344   4.607   4.723   1.913
 2460TIP3    H2 7345   4.590   4.629   1.796
 2461TIP3   OH2 7346   2.418   2.547   2.613
 2461TIP3    H1 7347   2.379   2.615   2.558
 2461TIP3    H2 7348   2.462   2.596   2.683
 2462TIP3   OH2 7349   6.012   6.334   5.085
 2462TIP3    H1 7350   6.068   6.365   5.156
 2462TIP3    H2 7351   6.066   6.343   5.006
 2463TIP3   OH2 7352   6.385   0.436   3.371
 2463TIP3    H1 7353   6.475   0.467   3.378
 2463TIP3    H2 7354   6.332   0.515   3.362
 2464TIP3   OH2 7355   4.168   0.537   1.064
 2464TIP3    H1 7356   4.083   0.582   1.065
 2464TIP3    H2 7357   4.227   0.596   1.112
 2465TIP3   OH2 7358   6.401   4.349   1.336
 2465TIP3    H1 7359   6.364   4.321   1.420
 2465TIP3    H2 7360   6.422   4.267   1.291
 2466TIP3   OH2 7361   6.518   1.903   5.762
 2466TIP3    H1 7362   6.562   1.869   5.684
 2466TIP3    H2 7363   6.437   1.942   5.728
 2467TIP3   OH2 7364   6.097   1.817   3.249
 2467TIP3    H1 7365   6.074   1.726   3.235
 2467TIP3    H2 7366   6.175   1.831   3.194
 2468TIP3   OH2 7367   3.673   5.759   4.004
 2468TIP3    H1 7368   3.678   5.732   3.913
 2468TIP3    H2 7369   3.708   5.849   4.005
 2469TIP3   OH2 7370   6.001   5.091   3.119
 2469TIP3    H1 7371   6.083   5.094   3.169
 2469TIP3    H2 7372   5.994   5.179   3.080
 2470TIP3   OH2 7373   3.171   5.694   2.961
 2470TIP3    H1 7374   3.129   5.609   2.948
 2470TIP3    H2 7375   3.263   5.680   2.940
 2471TIP3   OH2 7376   3.634   2.042   1.413
 2471TIP3    H1 7377   3.549   2.085   1.425
 2471TIP3    H2 7378   3.695   2.095   1.465
 2472TIP3   OH2 7379   3.247   1.165   2.341
 2472TIP3    H1 7380   3.340   1.161   2.318
 2472TIP3    H2 7381   3.227   1.259   2.340
 2473TIP3   OH2 7382   1.262   2.569   5.561
 2473TIP3    H1 7383   1.201   2.617   5.618
 2473TIP3    H2 7384   1.206   2.507   5.514
 2474TIP3   OH2 7385   3.777   6.051   2.164
 2474TIP3    H1 7386   3.777   6.002   2.082
 2474TIP3    H2 7387   3.733   5.994   2.227
 2475TIP3   OH2 7388   7.060   0.214   1.878
 2475TIP3    H1 7389   7.057   0.131   1.831
 2475TIP3    H2 7390   7.151   0.221   1.907
 2476TIP3   OH2 7391   3.749   6.490   5.306
 2476TIP3    H1 7392   3.760   6.477   5.212
 2476TIP3    H2 7393   3.725   6.404   5.340
 2477TIP3   OH2 7394   5.665   4.214   0.657
 2477TIP3    H1 7395   5.581   4.255   0.637
 2477TIP3    H2 7396   5.730   4.272   0.617
 2478TIP3   OH2 7397   2.703   6.336   1.186
 2478TIP3    H1 7398   2.795   6.355   1.166
 2478TIP3    H2 7399   2.698   6.344   1.281
 2479TIP3   OH2 7400   1.043   5.562   1.136
 2479TIP3    H1 7401   1.026   5.558   1.042
 2479TIP3    H2 7402   1.069   5.652   1.153
 2480TIP3   OH2 7403   5.499   5.077   4.755
 2480TIP3    H1 7404   5.487   5.042   4.667
 2480TIP3    H2 7405   5.462   5.010   4.813
 2481TIP3   OH2 7406   6.891   0.900   0.174
 2481TIP3    H1 7407   6.928   0.816   0.201
 2481TIP3    H2 7408   6.880   0.892   0.079
 2482TIP3   OH2 7409   3.328   3.897   5.282
 2482TIP3    H1 7410   3.389   3.855   5.342
 2482TIP3    H2 7411   3.379   3.909   5.201
 2483TIP3   OH2 7412   5.430   1.401   2.676
 2483TIP3    H1 7413   5.434   1.306   2.685
 2483TIP3    H2 7414   5.521   1.429   2.670
 2484TIP3   OH2 7415   4.614   1.267   1.893
 2484TIP3    H1 7416   4.655   1.353   1.880
 2484TIP3    H2 7417   4.657   1.210   1.830
 2485TIP3   OH2 7418   4.585   2.465   4.026
 2485TIP3    H1 7419   4.611   2.487   4.115
 2485TIP3    H2 7420   4.515   2.400   4.037
 2486TIP3   OH2 7421   5.277   0.620   3.956
 2486TIP3    H1 7422   5.337   0.623   4.030
 2486TIP3    H2 7423   5.318   0.559   3.895
 2487TIP3   OH2 7424   0.112   4.264   2.485
 2487TIP3    H1 7425   0.126   4.355   2.513
 2487TIP3    H2 7426   0.073   4.221   2.561
 2488TIP3   OH2 7427   3.669   6.243   5.470
 2488TIP3    H1 7428   3.753   6.211   5.439
 2488TIP3    H2 7429   3.688   6.284   5.554
 2489TIP3   OH2 7430   3.863   0.161   2.414
 2489TIP3    H1 7431   3.848   0.241   2.463
 2489TIP3    H2 7432   3.776   0.126   2.396
 2490TIP3   OH2 7433   5.328   0.285   0.423
 2490TIP3    H1 7434   5.368   0.198   0.422
 2490TIP3    H2 7435   5.253   0.277   0.363
 2491TIP3   OH2 7436   3.810   5.198   3.591
 2491TIP3    H1 7437   3.727   5.188   3.544
 2491TIP3    H2 7438   3.821   5.293   3.601
 2492TIP3   OH2 7439   3.089   2.846   2.035
 2492TIP3    H1 7440   3.163   2.799   1.995
 2492TIP3    H2 7441   3.091   2.933   1.994
 2493TIP3   OH2 7442   4.031   3.930   4.519
 2493TIP3    H1 7443   4.079   3.889   4.590
 2493TIP3    H2 7444   4.089   3.923   4.443
 2494TIP3   OH2 7445   1.797   0.593   2.076
 2494TIP3    H1 7446   1.853   0.584   2.154
 2494TIP3    H2 7447   1.794   0.506   2.038
 2495TIP3   OH2 7448   5.006   1.605   2.960
 2495TIP3    H1 7449   5.069   1.613   2.888
 2495TIP3    H2 7450   4.967   1.692   2.967
 2496TIP3   OH2 7451   3.011   5.269   4.186
 2496TIP3    H1 7452   2.990   5.188   4.232
 2496TIP3    H2 7453   2.966   5.337   4.237
 2497TIP3   OH2 7454   5.130   1.222   4.898
 2497TIP3    H1 7455   5.207   1.224   4.956
 2497TIP3    H2 7456   5.144   1.294   4.837
 2498TIP3   OH2 7457   5.943   5.091   2.350
 2498TIP3    H1 7458   5.958   5.133   2.265
 2498TIP3    H2 7459   5.878   5.147   2.393
 2499TIP3   OH2 7460   5.618   5.160   5.153
 2499TIP3    H1 7461   5.713   5.150   5.143
 2499TIP3    H2 7462   5.607   5.196   5.241
 2500TIP3   OH2 7463   2.179   4.333   0.626
 2500TIP3    H1 7464   2.125   4.379   0.690
 2500TIP3    H2 7465   2.124   4.262   0.594
 2501TIP3   OH2 7466   2.212   0.059   3.020
 2501TIP3    H1 7467   2.252   0.041   2.935
 2501TIP3    H2 7468   2.283   0.096   3.073
 2502TIP3   OH2 7469   3.933   5.279   1.978
 2502TIP3    H1 7470   3.998   5.209   1.972
 2502TIP3    H2 7471   3.916   5.303   1.886
 2503TIP3   OH2 7472   5.853   0.610   1.211
 2503TIP3    H1 7473   5.799   0.661   1.151
 2503TIP3    H2 7474   5.855   0.662   1.292
 2504TIP3   OH2 7475   5.655   0.369   5.669
 2504TIP3    H1 7476   5.595   0.423   5.618
 2504TIP3    H2 7477   5.620   0.371   5.758
 2505TIP3   OH2 7478   6.093   5.543   2.471
 2505TIP3    H1 7479   6.014   5.565   2.422
 2505TIP3    H2 7480   6.137   5.626   2.485
 2506TIP3   OH2 7481   0.551   3.180   2.958
 2506TIP3    H1 7482   0.496   3.103   2.969
 2506TIP3    H2 7483   0.577   3.204   3.047
 2507TIP3   OH2 7484   7.179   2.264   5.873
 2507TIP3    H1 7485   7.201   2.177   5.839
 2507TIP3    H2 7486   7.191   2.323   5.798
 2508TIP3   OH2 7487   5.986   1.782   5.064
 2508TIP3    H1 7488   5.965   1.872   5.040
 2508TIP3    H2 7489   5.990   1.735   4.981
 2509TIP3   OH2 7490   5.557   1.860   3.303
 2509TIP3    H1 7491   5.599   1.944   3.283
 2509TIP3    H2 7492   5.624   1.810   3.350
 2510TIP3   OH2 7493   6.706   5.727   1.335
 2510TIP3    H1 7494   6.628   5.732   1.390
 2510TIP3    H2 7495   6.675   5.749   1.247
 2511TIP3   OH2 7496   0.918   5.795   2.030
 2511TIP3    H1 7497   0.906   5.855   2.104
 2511TIP3    H2 7498   0.987   5.834   1.977
 2512TIP3   OH2 7499   5.984   6.480   4.316
 2512TIP3    H1 7500   5.996   6.543   4.387
 2512TIP3    H2 7501   6.032   6.403   4.344
 2513TIP3   OH2 7502   1.241   3.461   1.415
 2513TIP3    H1 7503   1.196   3.487   1.496
 2513TIP3    H2 7504   1.304   3.395   1.443
 2514TIP3   OH2 7505   6.630   4.398   4.817
 2514TIP3    H1 7506   6.564   4.459   4.850
 2514TIP3    H2 7507   6.687   4.451   4.762
 2515TIP3   OH2 7508   4.541   1.323   0.010
 2515TIP3    H1 7509   4.464   1.374  -0.016
 2515TIP3    H2 7510   4.546   1.335   0.105
 2516TIP3   OH2 7511   5.509   2.738   5.353
 2516TIP3    H1 7512   5.582   2.704   5.404
 2516TIP3    H2 7513   5.444   2.763   5.419
 2517TIP3   OH2 7514   3.275   5.003   1.844
 2517TIP3    H1 7515   3.255   4.909   1.842
 2517TIP3    H2 7516   3.204   5.044   1.795
 2518TIP3   OH2 7517   3.519   4.912   4.315
 2518TIP3    H1 7518   3.490   4.822   4.330
 2518TIP3    H2 7519   3.444   4.966   4.338
 2519TIP3   OH2 7520   3.666   1.459   4.351
 2519TIP3    H1 7521   3.612   1.526   4.393
 2519TIP3    H2 7522   3.633   1.377   4.386
 2520TIP3   OH2 7523   3.220   1.492   3.297
 2520TIP3    H1 7524   3.226   1.397   3.302
 2520TIP3    H2 7525   3.161   1.509   3.224
 2521TIP3   OH2 7526   1.620   5.681   0.441
 2521TIP3    H1 7527   1.585   5.593   0.451
 2521TIP3    H2 7528   1.623   5.716   0.530
 2522TIP3   OH2 7529   0.169   6.226   4.529
 2522TIP3    H1 7530   0.212   6.304   4.495
 2522TIP3    H2 7531   0.109   6.259   4.596
 2523TIP3   OH2 7532   1.496   5.584   2.974
 2523TIP3    H1 7533   1.572   5.642   2.975
 2523TIP3    H2 7534   1.433   5.626   3.033
 2524TIP3   OH2 7535   4.347   3.379   0.963
 2524TIP3    H1 7536   4.302   3.377   1.048
 2524TIP3    H2 7537   4.287   3.426   0.905
 2525TIP3   OH2 7538   6.495   3.685   3.594
 2525TIP3    H1 7539   6.475   3.600   3.632
 2525TIP3    H2 7540   6.590   3.694   3.604
 2526TIP3   OH2 7541   3.940   5.184   2.568
 2526TIP3    H1 7542   3.917   5.119   2.502
 2526TIP3    H2 7543   4.029   5.161   2.594
 2527TIP3   OH2 7544   0.717   3.135   3.554
 2527TIP3    H1 7545   0.767   3.134   3.636
 2527TIP3    H2 7546   0.774   3.181   3.492
 2528TIP3   OH2 7547   5.768   5.340   0.448
 2528TIP3    H1 7548   5.691   5.390   0.421
 2528TIP3    H2 7549   5.842   5.399   0.433
 2529TIP3   OH2 7550   1.479   5.305   4.968
 2529TIP3    H1 7551   1.493   5.295   4.874
 2529TIP3    H2 7552   1.384   5.304   4.979
 2530TIP3   OH2 7553   3.586   3.412   3.616
 2530TIP3    H1 7554   3.639   3.335   3.596
 2530TIP3    H2 7555   3.649   3.483   3.623
 2531TIP3   OH2 7556   2.729   0.256   2.639
 2531TIP3    H1 7557   2.730   0.196   2.714
 2531TIP3    H2 7558   2.760   0.203   2.565
 2532TIP3   OH2 7559   5.365   1.713   2.218
 2532TIP3    H1 7560   5.325   1.791   2.256
 2532TIP3    H2 7561   5.338   1.642   2.276
 2533TIP3   OH2 7562   3.691   6.668   4.001
 2533TIP3    H1 7563   3.781   6.697   3.988
 2533TIP3    H2 7564   3.679   6.667   4.096
 2534TIP3   OH2 7565   6.234   1.077   2.225
 2534TIP3    H1 7566   6.179   1.020   2.279
 2534TIP3    H2 7567   6.173   1.123   2.168
 2535TIP3   OH2 7568   4.890   2.583   0.779
 2535TIP3    H1 7569   4.814   2.537   0.743
 2535TIP3    H2 7570   4.915   2.532   0.856
 2536TIP3   OH2 7571   4.198   2.251   2.422
 2536TIP3    H1 7572   4.190   2.160   2.450
 2536TIP3    H2 7573   4.288   2.275   2.441
 2537TIP3   OH2 7574   6.924   5.917   3.940
 2537TIP3    H1 7575   6.960   5.855   4.003
 2537TIP3    H2 7576   6.876   5.980   3.993
 2538TIP3   OH2 7577   4.711   4.256   2.594
 2538TIP3    H1 7578   4.683   4.231   2.506
 2538TIP3    H2 7579   4.767   4.332   2.581
 2539TIP3   OH2 7580   6.231   0.544   0.415
 2539TIP3    H1 7581   6.178   0.505   0.346
 2539TIP3    H2 7582   6.318   0.509   0.402
 2540TIP3   OH2 7583   5.084   5.082   4.725
 2540TIP3    H1 7584   5.155   5.038   4.678
 2540TIP3    H2 7585   5.128   5.139   4.788
 2541TIP3   OH2 7586   3.006   0.684   3.508
 2541TIP3    H1 7587   3.067   0.719   3.572
 2541TIP3    H2 7588   3.060   0.663   3.432
 2542TIP3   OH2 7589   7.048   1.626   3.750
 2542TIP3    H1 7590   6.985   1.695   3.728
 2542TIP3    H2 7591   7.131   1.659   3.718
 2543TIP3   OH2 7592   7.051   3.101   4.881
 2543TIP3    H1 7593   7.058   3.156   4.959
 2543TIP3    H2 7594   7.025   3.162   4.811
 2544TIP3   OH2 7595   3.863   1.401   0.087
 2544TIP3    H1 7596   3.781   1.374   0.130
 2544TIP3    H2 7597   3.908   1.454   0.152
 2545TIP3   OH2 7598   2.963   3.917   1.967
 2545TIP3    H1 7599   3.042   3.968   1.948
 2545TIP3    H2 7600   2.992   3.849   2.027
 2546TIP3   OH2 7601   1.086   2.645   3.002
 2546TIP3    H1 7602   1.109   2.603   3.085
 2546TIP3    H2 7603   1.147   2.719   2.995
 2547TIP3   OH2 7604   0.712   6.459   4.420
 2547TIP3    H1 7605   0.746   6.537   4.464
 2547TIP3    H2 7606   0.785   6.397   4.423
 2548TIP3   OH2 7607   4.504   6.503   4.110
 2548TIP3    H1 7608   4.523   6.447   4.186
 2548TIP3    H2 7609   4.449   6.448   4.054
 2549TIP3   OH2 7610   2.965   1.229   0.805
 2549TIP3    H1 7611   2.946   1.181   0.886
 2549TIP3    H2 7612   2.933   1.172   0.736
 2550TIP3   OH2 7613   4.582   0.382   4.068
 2550TIP3    H1 7614   4.564   0.355   4.158
 2550TIP3    H2 7615   4.603   0.475   4.074
 2551TIP3   OH2 7616   0.745   4.707   5.760
 2551TIP3    H1 7617   0.745   4.696   5.665
 2551TIP3    H2 7618   0.679   4.646   5.791
 2552TIP3   OH2 7619   5.116   1.873   0.882
 2552TIP3    H1 7620   5.108   1.826   0.799
 2552TIP3    H2 7621   5.107   1.805   0.949
 2553TIP3   OH2 7622   5.995   4.808   1.739
 2553TIP3    H1 7623   6.021   4.899   1.748
 2553TIP3    H2 7624   6.072   4.764   1.702
 2554TIP3   OH2 7625   7.209   6.165   2.862
 2554TIP3    H1 7626   7.193   6.220   2.939
 2554TIP3    H2 7627   7.141   6.097   2.866
 2555TIP3   OH2 7628   6.745   2.792   2.913
 2555TIP3    H1 7629   6.740   2.853   2.986
 2555TIP3    H2 7630   6.815   2.827   2.857
 2556TIP3   OH2 7631   3.431   1.531   1.678
 2556TIP3    H1 7632   3.409   1.610   1.628
 2556TIP3    H2 7633   3.527   1.529   1.679
 2557TIP3   OH2 7634   3.123   0.832   1.393
 2557TIP3    H1 7635   3.201   0.887   1.405
 2557TIP3    H2 7636   3.143   0.750   1.437
 2558TIP3   OH2 7637   1.607   3.774   2.824
 2558TIP3    H1 7638   1.678   3.822   2.867
 2558TIP3    H2 7639   1.627   3.781   2.730
 2559TIP3   OH2 7640   1.840   3.187   3.593
 2559TIP3    H1 7641   1.822   3.273   3.631
 2559TIP3    H2 7642   1.800   3.126   3.654
 2560TIP3   OH2 7643   3.420   6.069   4.821
 2560TIP3    H1 7644   3.464   6.065   4.736
 2560TIP3    H2 7645   3.329   6.049   4.802
 2561TIP3   OH2 7646   4.733   2.878   4.878
 2561TIP3    H1 7647   4.780   2.845   4.954
 2561TIP3    H2 7648   4.751   2.972   4.878
 2562TIP3   OH2 7649   6.555   5.730   3.501
 2562TIP3    H1 7650   6.475   5.742   3.552
 2562TIP3    H2 7651   6.622   5.712   3.566
 2563TIP3   OH2 7652   3.071   4.222   2.431
 2563TIP3    H1 7653   3.086   4.312   2.400
 2563TIP3    H2 7654   2.997   4.191   2.380
 2564TIP3   OH2 7655   1.446   4.076   3.890
 2564TIP3    H1 7656   1.433   3.993   3.843
 2564TIP3    H2 7657   1.367   4.085   3.944
 2565TIP3   OH2 7658   1.785   1.734   4.322
 2565TIP3    H1 7659   1.821   1.809   4.369
 2565TIP3    H2 7660   1.750   1.770   4.241
 2566TIP3   OH2 7661   1.775   4.819   4.106
 2566TIP3    H1 7662   1.818   4.854   4.184
 2566TIP3    H2 7663   1.682   4.814   4.130
 2567TIP3   OH2 7664   0.720   5.773   1.487
 2567TIP3    H1 7665   0.765   5.728   1.559
 2567TIP3    H2 7666   0.723   5.866   1.512
 2568TIP3   OH2 7667   3.237   0.067   5.698
 2568TIP3    H1 7668   3.287   0.063   5.616
 2568TIP3    H2 7669   3.190  -0.017   5.702
 2569TIP3   OH2 7670   7.213   4.894   0.779
 2569TIP3    H1 7671   7.191   4.986   0.794
 2569TIP3    H2 7672   7.248   4.891   0.690
 2570TIP3   OH2 7673   4.301   1.317   3.903
 2570TIP3    H1 7674   4.348   1.395   3.873
 2570TIP3    H2 7675   4.234   1.303   3.836
 2571TIP3   OH2 7676   3.419   0.900   1.548
 2571TIP3    H1 7677   3.490   0.836   1.559
 2571TIP3    H2 7678   3.464   0.982   1.528
 2572TIP3   OH2 7679   5.689   5.830   3.511
 2572TIP3    H1 7680   5.637   5.893   3.561
 2572TIP3    H2 7681   5.760   5.881   3.473
 2573TIP3   OH2 7682   2.875   3.874   3.014
 2573TIP3    H1 7683   2.811   3.840   3.077
 2573TIP3    H2 7684   2.954   3.822   3.029
 2574TIP3   OH2 7685   2.690   3.349   2.046
 2574TIP3    H1 7686   2.762   3.328   2.106
 2574TIP3    H2 7687   2.732   3.355   1.960
 2575TIP3   OH2 7688   3.450   5.051   5.255
 2575TIP3    H1 7689   3.366   5.050   5.300
 2575TIP3    H2 7690   3.437   5.110   5.181
 2576TIP3   OH2 7691   6.902   0.637   3.138
 2576TIP3    H1 7692   6.982   0.627   3.191
 2576TIP3    H2 7693   6.846   0.695   3.190
 2577TIP3   OH2 7694   0.412   3.546   0.368
 2577TIP3    H1 7695   0.506   3.528   0.363
 2577TIP3    H2 7696   0.374   3.468   0.408
 2578TIP3   OH2 7697   5.518   4.403   3.283
 2578TIP3    H1 7698   5.590   4.418   3.221
 2578TIP3    H2 7699   5.507   4.308   3.285
 2579TIP3   OH2 7700   0.091   5.156   3.148
 2579TIP3    H1 7701   0.055   5.242   3.169
 2579TIP3    H2 7702   0.024   5.094   3.176
 2580TIP3   OH2 7703   0.786   3.991   4.324
 2580TIP3    H1 7704   0.870   3.993   4.370
 2580TIP3    H2 7705   0.739   4.068   4.357
 2581TIP3   OH2 7706   3.114   5.201   0.594
 2581TIP3    H1 7707   3.038   5.210   0.651
 2581TIP3    H2 7708   3.140   5.290   0.573
 2582TIP3   OH2 7709   3.564   4.976   0.825
 2582TIP3    H1 7710   3.578   4.905   0.889
 2582TIP3    H2 7711   3.475   5.007   0.843
 2583TIP3   OH2 7712   0.897   6.188   0.729
 2583TIP3    H1 7713   0.894   6.228   0.642
 2583TIP3    H2 7714   0.809   6.202   0.765
 2584TIP3   OH2 7715   3.005   3.092   5.693
 2584TIP3    H1 7716   3.079   3.043   5.728
 2584TIP3    H2 7717   3.042   3.177   5.669
 2585TIP3   OH2 7718   3.228   5.205   4.665
 2585TIP3    H1 7719   3.204   5.113   4.676
 2585TIP3    H2 7720   3.160   5.253   4.713
 2586TIP3   OH2 7721   3.408   4.738   1.234
 2586TIP3    H1 7722   3.483   4.789   1.265
 2586TIP3    H2 7723   3.354   4.802   1.187
 2587TIP3   OH2 7724   0.882   2.049   5.294
 2587TIP3    H1 7725   0.898   2.003   5.211
 2587TIP3    H2 7726   0.862   2.139   5.268
 2588TIP3   OH2 7727   0.454   3.191   5.349
 2588TIP3    H1 7728   0.535   3.208   5.398
 2588TIP3    H2 7729   0.388   3.246   5.392
 2589TIP3   OH2 7730   1.244   1.845   4.926
 2589TIP3    H1 7731   1.210   1.933   4.912
 2589TIP3    H2 7732   1.303   1.830   4.852
 2590TIP3   OH2 7733   0.635   3.838   1.124
 2590TIP3    H1 7734   0.681   3.868   1.202
 2590TIP3    H2 7735   0.547   3.816   1.155
 2591TIP3   OH2 7736   1.112   3.602   0.931
 2591TIP3    H1 7737   1.107   3.565   1.019
 2591TIP3    H2 7738   1.188   3.560   0.891
 2592TIP3   OH2 7739   4.027   6.730   2.487
 2592TIP3    H1 7740   3.965   6.657   2.494
 2592TIP3    H2 7741   3.986   6.801   2.537
 2593TIP3   OH2 7742   3.285   4.166   4.256
 2593TIP3    H1 7743   3.230   4.087   4.255
 2593TIP3    H2 7744   3.373   4.134   4.236
 2594TIP3   OH2 7745   4.424   0.604   4.895
 2594TIP3    H1 7746   4.349   0.565   4.940
 2594TIP3    H2 7747   4.393   0.615   4.805
 2595TIP3   OH2 7748   4.850   3.117   4.907
 2595TIP3    H1 7749   4.851   3.137   5.000
 2595TIP3    H2 7750   4.897   3.189   4.866
 2596TIP3   OH2 7751   5.783   1.760   3.897
 2596TIP3    H1 7752   5.825   1.755   3.810
 2596TIP3    H2 7753   5.856   1.766   3.958
 2597TIP3   OH2 7754   2.864   6.355   3.726
 2597TIP3    H1 7755   2.852   6.266   3.760
 2597TIP3    H2 7756   2.795   6.407   3.768
 2598TIP3   OH2 7757   2.505   3.277   2.843
 2598TIP3    H1 7758   2.492   3.370   2.824
 2598TIP3    H2 7759   2.455   3.261   2.923
 2599TIP3   OH2 7760   6.167   2.764   0.133
 2599TIP3    H1 7761   6.094   2.776   0.194
 2599TIP3    H2 7762   6.172   2.846   0.085
 2600TIP3   OH2 7763   6.880   0.279   2.087
 2600TIP3    H1 7764   6.854   0.200   2.133
 2600TIP3    H2 7765   6.943   0.249   2.021
 2601TIP3   OH2 7766   3.661   5.007   0.199
 2601TIP3    H1 7767   3.723   4.933   0.201
 2601TIP3    H2 7768   3.695   5.065   0.131
 2602TIP3   OH2 7769   5.054   2.137   2.342
 2602TIP3    H1 7770   5.077   2.181   2.261
 2602TIP3    H2 7771   4.961   2.116   2.332
 2603TIP3   OH2 7772   6.640   4.715   3.985
 2603TIP3    H1 7773   6.567   4.754   4.034
 2603TIP3    H2 7774   6.696   4.677   4.053
 2604TIP3   OH2 7775   7.074   1.797   1.230
 2604TIP3    H1 7776   7.065   1.702   1.234
 2604TIP3    H2 7777   7.054   1.819   1.139
 2605TIP3   OH2 7778   0.714   1.055   5.593
 2605TIP3    H1 7779   0.676   1.105   5.665
 2605TIP3    H2 7780   0.807   1.049   5.613
 2606TIP3   OH2 7781   6.241   1.265   5.708
 2606TIP3    H1 7782   6.245   1.345   5.760
 2606TIP3    H2 7783   6.294   1.202   5.757
 2607TIP3   OH2 7784   4.076   1.905   5.125
 2607TIP3    H1 7785   4.121   1.989   5.115
 2607TIP3    H2 7786   4.037   1.909   5.213
 2608TIP3   OH2 7787   7.012   6.810   3.599
 2608TIP3    H1 7788   6.961   6.828   3.678
 2608TIP3    H2 7789   7.045   6.721   3.612
 2609TIP3   OH2 7790   2.710   4.029   0.623
 2609TIP3    H1 7791   2.640   3.975   0.587
 2609TIP3    H2 7792   2.715   4.004   0.715
 2610TIP3   OH2 7793   2.897   1.869   0.131
 2610TIP3    H1 7794   2.915   1.948   0.082
 2610TIP3    H2 7795   2.962   1.869   0.202
 2611TIP3   OH2 7796   4.015   2.420   5.435
 2611TIP3    H1 7797   3.962   2.472   5.495
 2611TIP3    H2 7798   4.055   2.353   5.490
 2612TIP3   OH2 7799   3.434   6.591   3.925
 2612TIP3    H1 7800   3.516   6.609   3.971
 2612TIP3    H2 7801   3.450   6.619   3.835
 2613TIP3   OH2 7802   4.038   4.322   1.301
 2613TIP3    H1 7803   4.090   4.241   1.298
 2613TIP3    H2 7804   4.099   4.390   1.273
 2614TIP3   OH2 7805   0.671   5.959   1.987
 2614TIP3    H1 7806   0.588   5.912   1.983
 2614TIP3    H2 7807   0.728   5.901   2.038
 2615TIP3   OH2 7808   6.452   5.976   1.871
 2615TIP3    H1 7809   6.455   6.055   1.925
 2615TIP3    H2 7810   6.446   5.904   1.933
 2616TIP3   OH2 7811   0.506   3.247   5.075
 2616TIP3    H1 7812   0.429   3.286   5.035
 2616TIP3    H2 7813   0.487   3.247   5.169
 2617TIP3   OH2 7814   1.488   2.767   1.995
 2617TIP3    H1 7815   1.446   2.847   2.025
 2617TIP3    H2 7816   1.424   2.728   1.934
 2618TIP3   OH2 7817   5.437   2.460   0.739
 2618TIP3    H1 7818   5.400   2.374   0.720
 2618TIP3    H2 7819   5.377   2.521   0.696
 2619TIP3   OH2 7820   4.493   2.147   3.784
 2619TIP3    H1 7821   4.399   2.166   3.778
 2619TIP3    H2 7822   4.508   2.124   3.875
 2620TIP3   OH2 7823   0.669   0.309   5.069
 2620TIP3    H1 7824   0.590   0.311   5.124
 2620TIP3    H2 7825   0.695   0.217   5.069
 2621TIP3   OH2 7826   5.424   4.338   0.043
 2621TIP3    H1 7827   5.347   4.393   0.058
 2621TIP3    H2 7828   5.449   4.354  -0.048
 2622TIP3   OH2 7829   3.362   5.540   1.768
 2622TIP3    H1 7830   3.315   5.530   1.685
 2622TIP3    H2 7831   3.431   5.474   1.766
 2623TIP3   OH2 7832   6.065   3.783   3.988
 2623TIP3    H1 7833   6.013   3.806   4.065
 2623TIP3    H2 7834   6.153   3.816   4.007
 2624TIP3   OH2 7835   6.246   5.237   2.128
 2624TIP3    H1 7836   6.239   5.285   2.211
 2624TIP3    H2 7837   6.291   5.156   2.150
 2625TIP3   OH2 7838   5.614   5.613   2.502
 2625TIP3    H1 7839   5.709   5.602   2.510
 2625TIP3    H2 7840   5.596   5.698   2.540
 2626TIP3   OH2 7841   4.430   2.048   1.745
 2626TIP3    H1 7842   4.347   2.015   1.780
 2626TIP3    H2 7843   4.491   1.976   1.758
 2627TIP3   OH2 7844   2.237   0.869   2.158
 2627TIP3    H1 7845   2.200   0.957   2.147
 2627TIP3    H2 7846   2.196   0.835   2.237
 2628TIP3   OH2 7847   4.562   5.278   4.630
 2628TIP3    H1 7848   4.524   5.249   4.547
 2628TIP3    H2 7849   4.629   5.212   4.650
 2629TIP3   OH2 7850   6.384   3.162   5.347
 2629TIP3    H1 7851   6.333   3.222   5.293
 2629TIP3    H2 7852   6.338   3.079   5.341
 2630TIP3   OH2 7853   1.473   6.347   1.339
 2630TIP3    H1 7854   1.512   6.260   1.325
 2630TIP3    H2 7855   1.547   6.407   1.332
 2631TIP3   OH2 7856   5.615   3.374   2.037
 2631TIP3    H1 7857   5.611   3.395   1.943
 2631TIP3    H2 7858   5.580   3.452   2.080
 2632TIP3   OH2 7859   6.313   4.234   2.932
 2632TIP3    H1 7860   6.265   4.282   3.000
 2632TIP3    H2 7861   6.378   4.182   2.980
 2633TIP3   OH2 7862   1.429   6.188   4.581
 2633TIP3    H1 7863   1.506   6.243   4.595
 2633TIP3    H2 7864   1.355   6.247   4.601
 2634TIP3   OH2 7865   2.089   6.697   3.549
 2634TIP3    H1 7866   2.014   6.661   3.503
 2634TIP3    H2 7867   2.153   6.717   3.480
 2635TIP3   OH2 7868   4.638   0.666   1.130
 2635TIP3    H1 7869   4.695   0.596   1.098
 2635TIP3    H2 7870   4.678   0.747   1.096
 2636TIP3   OH2 7871   6.194   3.579   5.152
 2636TIP3    H1 7872   6.203   3.566   5.247
 2636TIP3    H2 7873   6.150   3.500   5.121
 2637TIP3   OH2 7874   2.816   5.294   0.406
 2637TIP3    H1 7875   2.874   5.359   0.367
 2637TIP3    H2 7876   2.788   5.334   0.488
 2638TIP3   OH2 7877   0.697   3.203   1.402
 2638TIP3    H1 7878   0.612   3.239   1.376
 2638TIP3    H2 7879   0.761   3.265   1.367
 2639TIP3   OH2 7880   5.600   0.702   1.806
 2639TIP3    H1 7881   5.668   0.703   1.873
 2639TIP3    H2 7882   5.554   0.785   1.817
 2640TIP3   OH2 7883   0.444   5.819   1.486
 2640TIP3    H1 7884   0.522   5.783   1.443
 2640TIP3    H2 7885   0.479   5.876   1.554
 2641TIP3   OH2 7886   5.494   1.985   1.447
 2641TIP3    H1 7887   5.446   1.947   1.373
 2641TIP3    H2 7888   5.535   2.064   1.411
 2642TIP3   OH2 7889   1.576   2.939   3.948
 2642TIP3    H1 7890   1.496   2.895   3.979
 2642TIP3    H2 7891   1.644   2.911   4.010
 2643TIP3   OH2 7892   0.526   1.949   0.469
 2643TIP3    H1 7893   0.490   2.003   0.399
 2643TIP3    H2 7894   0.522   2.005   0.547
 2644TIP3   OH2 7895   3.729   3.244   4.738
 2644TIP3    H1 7896   3.677   3.250   4.818
 2644TIP3    H2 7897   3.683   3.179   4.685
 2645TIP3   OH2 7898   5.268   2.201   1.124
 2645TIP3    H1 7899   5.352   2.178   1.084
 2645TIP3    H2 7900   5.238   2.278   1.075
 2646TIP3   OH2 7901   6.383   1.170   0.639
 2646TIP3    H1 7902   6.420   1.168   0.727
 2646TIP3    H2 7903   6.292   1.141   0.651
 2647TIP3   OH2 7904   0.537   0.647   5.248
 2647TIP3    H1 7905   0.543   0.675   5.339
 2647TIP3    H2 7906   0.549   0.728   5.198
 2648TIP3   OH2 7907   4.074   0.022   5.834
 2648TIP3    H1 7908   4.077   0.053   5.925
 2648TIP3    H2 7909   4.099   0.098   5.782
 2649TIP3   OH2 7910   3.762   3.368   2.965
 2649TIP3    H1 7911   3.722   3.360   3.052
 2649TIP3    H2 7912   3.714   3.306   2.911
 2650TIP3   OH2 7913   7.128   4.898   5.754
 2650TIP3    H1 7914   7.217   4.863   5.746
 2650TIP3    H2 7915   7.078   4.826   5.795
 2651TIP3   OH2 7916   2.784   4.003   3.495
 2651TIP3    H1 7917   2.767   4.073   3.558
 2651TIP3    H2 7918   2.852   3.950   3.537
 2652TIP3   OH2 7919   5.108   4.729   2.550
 2652TIP3    H1 7920   5.165   4.751   2.623
 2652TIP3    H2 7921   5.165   4.727   2.473
 2653TIP3   OH2 7922   3.722   1.938   2.818
 2653TIP3    H1 7923   3.754   2.028   2.825
 2653TIP3    H2 7924   3.773   1.889   2.882
 2654TIP3   OH2 7925   5.802   1.312   2.161
 2654TIP3    H1 7926   5.716   1.319   2.203
 2654TIP3    H2 7927   5.828   1.403   2.146
 2655TIP3   OH2 7928   3.633   3.952   0.926
 2655TIP3    H1 7929   3.678   3.939   1.010
 2655TIP3    H2 7930   3.650   4.044   0.904
 2656TIP3   OH2 7931   3.777   3.314   5.430
 2656TIP3    H1 7932   3.702   3.331   5.373
 2656TIP3    H2 7933   3.808   3.228   5.404
 2657TIP3   OH2 7934   3.964   0.982   2.038
 2657TIP3    H1 7935   3.972   0.970   2.133
 2657TIP3    H2 7936   3.877   1.020   2.027
 2658TIP3   OH2 7937   7.070   6.298   3.926
 2658TIP3    H1 7938   7.152   6.311   3.975
 2658TIP3    H2 7939   7.098   6.262   3.842
 2659TIP3   OH2 7940   1.617   5.613   4.470
 2659TIP3    H1 7941   1.561   5.626   4.546
 2659TIP3    H2 7942   1.593   5.683   4.410
 2660TIP3   OH2 7943   2.602   4.931   5.307
 2660TIP3    H1 7944   2.605   4.856   5.248
 2660TIP3    H2 7945   2.675   4.986   5.280
 2661TIP3   OH2 7946   6.144   5.619   0.726
 2661TIP3    H1 7947   6.232   5.615   0.688
 2661TIP3    H2 7948   6.086   5.627   0.650
 2662TIP3   OH2 7949   4.025   2.554   3.046
 2662TIP3    H1 7950   3.972   2.552   3.125
 2662TIP3    H2 7951   3.966   2.526   2.976
 2663TIP3   OH2 7952   2.306   3.030   3.445
 2663TIP3    H1 7953   2.309   3.125   3.451
 2663TIP3    H2 7954   2.221   3.006   3.482
 2664TIP3   OH2 7955   0.947   1.517   1.745
 2664TIP3    H1 7956   1.037   1.484   1.736
 2664TIP3    H2 7957   0.896   1.440   1.769
 2665TIP3   OH2 7958   2.254   1.655   3.713
 2665TIP3    H1 7959   2.268   1.740   3.673
 2665TIP3    H2 7960   2.340   1.612   3.711
 2666TIP3   OH2 7961   6.910   5.228   0.608
 2666TIP3    H1 7962   6.872   5.157   0.660
 2666TIP3    H2 7963   6.835   5.281   0.581
 2667TIP3   OH2 7964   3.110   4.751   2.090
 2667TIP3    H1 7965   3.055   4.737   2.167
 2667TIP3    H2 7966   3.055   4.802   2.030
 2668TIP3   OH2 7967   1.821   2.223   3.193
 2668TIP3    H1 7968   1.845   2.130   3.202
 2668TIP3    H2 7969   1.777   2.244   3.275
 2669TIP3   OH2 7970   6.602   3.268   1.597
 2669TIP3    H1 7971   6.683   3.283   1.549
 2669TIP3    H2 7972   6.601   3.335   1.664
 2670TIP3   OH2 7973   3.466   2.373   1.715
 2670TIP3    H1 7974   3.493   2.450   1.664
 2670TIP3    H2 7975   3.519   2.301   1.681
 2671TIP3   OH2 7976   6.829   2.714   1.640
 2671TIP3    H1 7977   6.869   2.706   1.727
 2671TIP3    H2 7978   6.858   2.636   1.593
 2672TIP3   OH2 7979   5.797   5.182   2.756
 2672TIP3    H1 7980   5.793   5.221   2.669
 2672TIP3    H2 7981   5.881   5.212   2.791
 2673TIP3   OH2 7982   5.248   4.718   1.698
 2673TIP3    H1 7983   5.183   4.742   1.632
 2673TIP3    H2 7984   5.204   4.735   1.782
 2674TIP3   OH2 7985   3.363   1.699   1.976
 2674TIP3    H1 7986   3.346   1.736   1.889
 2674TIP3    H2 7987   3.301   1.627   1.984
 2675TIP3   OH2 7988   3.963   4.824   2.429
 2675TIP3    H1 7989   4.029   4.893   2.429
 2675TIP3    H2 7990   3.964   4.790   2.519
 2676TIP3   OH2 7991   3.980   3.775   3.266
 2676TIP3    H1 7992   4.035   3.697   3.273
 2676TIP3    H2 7993   3.919   3.755   3.195
 2677TIP3   OH2 7994   0.272   0.963   5.879
 2677TIP3    H1 7995   0.213   1.035   5.900
 2677TIP3    H2 7996   0.249   0.939   5.789
 2678TIP3   OH2 7997   3.146   2.665   0.606
 2678TIP3    H1 7998   3.222   2.720   0.590
 2678TIP3    H2 7999   3.181   2.586   0.648
 2679TIP3   OH2 8000   2.637   4.754   1.405
 2679TIP3    H1 8001   2.699   4.686   1.374
 2679TIP3    H2 8002   2.560   4.741   1.350
 2680TIP3   OH2 8003   6.948   4.911   1.630
 2680TIP3    H1 8004   6.942   5.000   1.595
 2680TIP3    H2 8005   7.039   4.903   1.657
 2681TIP3   OH2 8006   4.820   2.750   2.984
 2681TIP3    H1 8007   4.866   2.676   3.023
 2681TIP3    H2 8008   4.729   2.738   3.010
 2682TIP3   OH2 8009   5.631   6.493   2.836
 2682TIP3    H1 8010   5.633   6.571   2.893
 2682TIP3    H2 8011   5.595   6.524   2.754
 2683TIP3   OH2 8012   6.600   5.055   2.422
 2683TIP3    H1 8013   6.557   5.112   2.486
 2683TIP3    H2 8014   6.601   4.969   2.464
 2684TIP3   OH2 8015   0.421   4.689   0.345
 2684TIP3    H1 8016   0.428   4.778   0.312
 2684TIP3    H2 8017   0.359   4.647   0.286
 2685TIP3   OH2 8018   4.151   6.000   0.250
 2685TIP3    H1 8019   4.109   6.031   0.169
 2685TIP3    H2 8020   4.245   6.006   0.233
 2686TIP3   OH2 8021   6.263   4.119   3.708
 2686TIP3    H1 8022   6.266   4.212   3.731
 2686TIP3    H2 8023   6.172   4.103   3.683
 2687TIP3   OH2 8024   5.800   0.410   5.232
 2687TIP3    H1 8025   5.792   0.339   5.296
 2687TIP3    H2 8026   5.831   0.484   5.283
 2688TIP3   OH2 8027   1.192   0.184   0.577
 2688TIP3    H1 8028   1.238   0.100   0.569
 2688TIP3    H2 8029   1.252   0.247   0.537
 2689TIP3   OH2 8030   0.580   5.858   5.025
 2689TIP3    H1 8031   0.526   5.824   5.096
 2689TIP3    H2 8032   0.623   5.781   4.988
 2690TIP3   OH2 8033   5.139   0.235   3.369
 2690TIP3    H1 8034   5.193   0.195   3.438
 2690TIP3    H2 8035   5.129   0.165   3.304
 2691TIP3   OH2 8036   6.570   6.669   5.016
 2691TIP3    H1 8037   6.488   6.620   5.014
 2691TIP3    H2 8038   6.544   6.760   5.007
 2692TIP3   OH2 8039   2.679   5.067   2.003
 2692TIP3    H1 8040   2.615   5.138   2.001
 2692TIP3    H2 8041   2.715   5.071   2.092
 2693TIP3   OH2 8042   4.094   0.586   3.783
 2693TIP3    H1 8043   4.113   0.501   3.743
 2693TIP3    H2 8044   4.000   0.585   3.801
 2694TIP3   OH2 8045   3.283   3.179   4.672
 2694TIP3    H1 8046   3.249   3.094   4.645
 2694TIP3    H2 8047   3.299   3.170   4.766
 2695TIP3   OH2 8048   4.059   1.821   0.249
 2695TIP3    H1 8049   4.039   1.891   0.188
 2695TIP3    H2 8050   4.155   1.814   0.248
 2696TIP3   OH2 8051   4.683   0.931   0.542
 2696TIP3    H1 8052   4.680   0.858   0.479
 2696TIP3    H2 8053   4.597   0.930   0.584
 2697TIP3   OH2 8054   6.303   1.593   4.220
 2697TIP3    H1 8055   6.226   1.648   4.229
 2697TIP3    H2 8056   6.355   1.634   4.151
 2698TIP3   OH2 8057   4.666   3.943   0.725
 2698TIP3    H1 8058   4.726   3.880   0.765
 2698TIP3    H2 8059   4.699   4.029   0.751
 2699TIP3   OH2 8060   1.368   3.569   1.829
 2699TIP3    H1 8061   1.331   3.579   1.917
 2699TIP3    H2 8062   1.462   3.577   1.841
 2700TIP3   OH2 8063   3.259   2.055   4.012
 2700TIP3    H1 8064   3.284   1.981   4.068
 2700TIP3    H2 8065   3.342   2.100   3.993
 2701TIP3   OH2 8066   2.890   4.500   2.115
 2701TIP3    H1 8067   2.851   4.414   2.128
 2701TIP3    H2 8068   2.838   4.558   2.170
 2702TIP3   OH2 8069   5.231   1.433   0.062
 2702TIP3    H1 8070   5.296   1.381   0.108
 2702TIP3    H2 8071   5.167   1.456   0.129
 2703TIP3   OH2 8072   6.407   0.792   3.886
 2703TIP3    H1 8073   6.315   0.803   3.863
 2703TIP3    H2 8074   6.445   0.880   3.877
 2704TIP3   OH2 8075   2.978   3.813   0.437
 2704TIP3    H1 8076   2.884   3.811   0.423
 2704TIP3    H2 8077   2.992   3.762   0.516
 2705TIP3   OH2 8078   2.350   6.088   1.231
 2705TIP3    H1 8079   2.353   6.166   1.175
 2705TIP3    H2 8080   2.374   6.016   1.174
 2706TIP3   OH2 8081   5.601   2.813   0.076
 2706TIP3    H1 8082   5.599   2.895   0.027
 2706TIP3    H2 8083   5.560   2.834   0.160
 2707TIP3   OH2 8084   3.944   5.691   5.466
 2707TIP3    H1 8085   3.884   5.662   5.535
 2707TIP3    H2 8086   3.949   5.786   5.477
 2708TIP3   OH2 8087   3.013   5.741   4.697
 2708TIP3    H1 8088   2.985   5.692   4.775
 2708TIP3    H2 8089   3.060   5.816   4.733
 2709TIP3   OH2 8090   0.447   0.718   3.289
 2709TIP3    H1 8091   0.528   0.769   3.285
 2709TIP3    H2 8092   0.439   0.692   3.380
 2710TIP3   OH2 8093   5.020   1.182   3.574
 2710TIP3    H1 8094   5.040   1.107   3.629
 2710TIP3    H2 8095   5.065   1.164   3.491
 2711TIP3   OH2 8096   7.058   3.085   5.520
 2711TIP3    H1 8097   6.999   3.011   5.529
 2711TIP3    H2 8098   7.127   3.055   5.460
 2712TIP3   OH2 8099   1.657   6.202   3.550
 2712TIP3    H1 8100   1.750   6.218   3.560
 2712TIP3    H2 8101   1.625   6.274   3.495
 2713TIP3   OH2 8102   6.262   2.858   0.486
 2713TIP3    H1 8103   6.317   2.825   0.415
 2713TIP3    H2 8104   6.235   2.945   0.457
 2714TIP3   OH2 8105   0.307   0.939   3.144
 2714TIP3    H1 8106   0.338   0.893   3.222
 2714TIP3    H2 8107   0.295   1.030   3.174
 2715TIP3   OH2 8108   6.030   1.204   4.230
 2715TIP3    H1 8109   6.060   1.291   4.256
 2715TIP3    H2 8110   6.045   1.150   4.308
 2716TIP3   OH2 8111   2.230   6.387   0.441
 2716TIP3    H1 8112   2.183   6.353   0.365
 2716TIP3    H2 8113   2.232   6.314   0.503
 2717TIP3   OH2 8114   1.081   4.665   5.046
 2717TIP3    H1 8115   1.157   4.643   4.991
 2717TIP3    H2 8116   1.107   4.639   5.134
 2718TIP3   OH2 8117   0.735   5.591   1.878
 2718TIP3    H1 8118   0.786   5.657   1.830
 2718TIP3    H2 8119   0.780   5.582   1.962
 2719TIP3   OH2 8120   4.161   5.718   0.543
 2719TIP3    H1 8121   4.083   5.762   0.509
 2719TIP3    H2 8122   4.233   5.754   0.491
 2720TIP3   OH2 8123   4.661   2.476   3.131
 2720TIP3    H1 8124   4.615   2.549   3.172
 2720TIP3    H2 8125   4.753   2.501   3.131
 2721TIP3   OH2 8126   0.024   0.475   3.651
 2721TIP3    H1 8127   0.115   0.464   3.679
 2721TIP3    H2 8128   0.023   0.447   3.560
 2722TIP3   OH2 8129   2.852   4.765   5.086
 2722TIP3    H1 8130   2.761   4.792   5.097
 2722TIP3    H2 8131   2.850   4.670   5.087
 2723TIP3   OH2 8132   5.251   3.648   0.097
 2723TIP3    H1 8133   5.294   3.636   0.181
 2723TIP3    H2 8134   5.275   3.737   0.070
 2724TIP3   OH2 8135   2.913   2.415   1.641
 2724TIP3    H1 8136   2.959   2.414   1.725
 2724TIP3    H2 8137   2.836   2.361   1.655
 2725TIP3   OH2 8138   2.608   2.345   0.069
 2725TIP3    H1 8139   2.668   2.274   0.092
 2725TIP3    H2 8140   2.521   2.305   0.073
 2726TIP3   OH2 8141   1.639   0.812   5.337
 2726TIP3    H1 8142   1.656   0.726   5.298
 2726TIP3    H2 8143   1.575   0.795   5.406
 2727TIP3   OH2 8144   7.181   5.741   2.397
 2727TIP3    H1 8145   7.137   5.795   2.331
 2727TIP3    H2 8146   7.261   5.790   2.419
 2728TIP3   OH2 8147   6.311   5.389   0.265
 2728TIP3    H1 8148   6.269   5.304   0.278
 2728TIP3    H2 8149   6.254   5.451   0.309
 2729TIP3   OH2 8150   1.005   5.998   3.902
 2729TIP3    H1 8151   0.932   5.967   3.848
 2729TIP3    H2 8152   1.008   5.937   3.976
 2730TIP3   OH2 8153   3.790   0.847   1.814
 2730TIP3    H1 8154   3.859   0.914   1.817
 2730TIP3    H2 8155   3.708   0.897   1.816
 2731TIP3   OH2 8156   5.769   6.621   1.583
 2731TIP3    H1 8157   5.853   6.600   1.624
 2731TIP3    H2 8158   5.740   6.539   1.544
 2732TIP3   OH2 8159   5.852   4.039   3.652
 2732TIP3    H1 8160   5.902   4.094   3.592
 2732TIP3    H2 8161   5.865   4.079   3.738
 2733TIP3   OH2 8162   5.353   2.244   3.976
 2733TIP3    H1 8163   5.372   2.316   4.036
 2733TIP3    H2 8164   5.304   2.181   4.029
 2734TIP3   OH2 8165   4.859   0.843   3.465
 2734TIP3    H1 8166   4.946   0.808   3.448
 2734TIP3    H2 8167   4.823   0.786   3.533
 2735TIP3   OH2 8168   0.440   6.737   3.150
 2735TIP3    H1 8169   0.442   6.727   3.055
 2735TIP3    H2 8170   0.400   6.656   3.182
 2736TIP3   OH2 8171   2.903   3.742   0.697
 2736TIP3    H1 8172   2.957   3.702   0.765
 2736TIP3    H2 8173   2.830   3.782   0.744
 2737TIP3   OH2 8174   5.701   5.811   1.341
 2737TIP3    H1 8175   5.756   5.803   1.263
 2737TIP3    H2 8176   5.663   5.899   1.334
 2738TIP3   OH2 8177   2.314   4.000   3.882
 2738TIP3    H1 8178   2.259   4.058   3.934
 2738TIP3    H2 8179   2.370   4.059   3.831
 2739TIP3   OH2 8180   5.259   2.359   1.393
 2739TIP3    H1 8181   5.316   2.436   1.387
 2739TIP3    H2 8182   5.226   2.346   1.304
 2740TIP3   OH2 8183   2.209   5.164   3.444
 2740TIP3    H1 8184   2.178   5.189   3.356
 2740TIP3    H2 8185   2.156   5.088   3.467
 2741TIP3   OH2 8186   4.024   2.970   1.990
 2741TIP3    H1 8187   3.967   2.977   2.067
 2741TIP3    H2 8188   4.103   2.927   2.023
 2742TIP3   OH2 8189   3.359   3.974   3.039
 2742TIP3    H1 8190   3.436   3.934   3.079
 2742TIP3    H2 8191   3.336   4.047   3.096
 2743TIP3   OH2 8192   6.193   3.651   0.253
 2743TIP3    H1 8193   6.221   3.712   0.185
 2743TIP3    H2 8194   6.109   3.616   0.222
 2744TIP3   OH2 8195   2.483   2.249   4.800
 2744TIP3    H1 8196   2.479   2.178   4.865
 2744TIP3    H2 8197   2.510   2.206   4.719
 2745TIP3   OH2 8198   6.899   6.381   0.619
 2745TIP3    H1 8199   6.924   6.431   0.697
 2745TIP3    H2 8200   6.974   6.391   0.560
 2746TIP3   OH2 8201   0.739   5.546   0.291
 2746TIP3    H1 8202   0.743   5.629   0.339
 2746TIP3    H2 8203   0.685   5.489   0.345
 2747TIP3   OH2 8204   2.189   5.133   4.798
 2747TIP3    H1 8205   2.152   5.187   4.868
 2747TIP3    H2 8206   2.174   5.043   4.826
 2748TIP3   OH2 8207   3.331   6.106   5.583
 2748TIP3    H1 8208   3.326   6.032   5.643
 2748TIP3    H2 8209   3.387   6.170   5.627
 2749TIP3   OH2 8210   4.365   2.446   4.461
 2749TIP3    H1 8211   4.398   2.415   4.545
 2749TIP3    H2 8212   4.438   2.495   4.423
 2750TIP3   OH2 8213   0.473   5.752   3.557
 2750TIP3    H1 8214   0.397   5.727   3.503
 2750TIP3    H2 8215   0.470   5.692   3.631
 2751TIP3   OH2 8216   1.340   6.262   1.098
 2751TIP3    H1 8217   1.288   6.186   1.072
 2751TIP3    H2 8218   1.344   6.257   1.194
 2752TIP3   OH2 8219   6.690   5.754   1.945
 2752TIP3    H1 8220   6.700   5.707   1.863
 2752TIP3    H2 8221   6.596   5.756   1.961
 2753TIP3   OH2 8222   4.476   4.542   1.642
 2753TIP3    H1 8223   4.417   4.510   1.710
 2753TIP3    H2 8224   4.489   4.467   1.584
 2754TIP3   OH2 8225   0.934   5.305   4.123
 2754TIP3    H1 8226   0.866   5.329   4.060
 2754TIP3    H2 8227   1.015   5.306   4.073
 2755TIP3   OH2 8228   3.672   6.770   0.612
 2755TIP3    H1 8229   3.662   6.675   0.622
 2755TIP3    H2 8230   3.720   6.780   0.530
 2756TIP3   OH2 8231   5.552   6.582   0.626
 2756TIP3    H1 8232   5.605   6.661   0.634
 2756TIP3    H2 8233   5.589   6.536   0.551
 2757TIP3   OH2 8234   4.516   5.598   2.413
 2757TIP3    H1 8235   4.423   5.583   2.428
 2757TIP3    H2 8236   4.556   5.511   2.423
 2758TIP3   OH2 8237   6.848   3.313   4.037
 2758TIP3    H1 8238   6.753   3.321   4.033
 2758TIP3    H2 8239   6.879   3.357   3.958
 2759TIP3   OH2 8240   2.551   0.792   3.157
 2759TIP3    H1 8241   2.626   0.742   3.191
 2759TIP3    H2 8242   2.585   0.834   3.078
 2760TIP3   OH2 8243   3.301   2.691   1.992
 2760TIP3    H1 8244   3.395   2.709   1.984
 2760TIP3    H2 8245   3.277   2.648   1.909
 2761TIP3   OH2 8246   0.933   0.854   5.326
 2761TIP3    H1 8247   1.014   0.836   5.277
 2761TIP3    H2 8248   0.941   0.801   5.405
 2762TIP3   OH2 8249   5.191   5.061   1.028
 2762TIP3    H1 8250   5.258   5.003   1.062
 2762TIP3    H2 8251   5.116   5.048   1.085
 2763TIP3   OH2 8252   0.295   3.514   2.361
 2763TIP3    H1 8253   0.322   3.603   2.338
 2763TIP3    H2 8254   0.378   3.468   2.376
 2764TIP3   OH2 8255   5.032   5.181   5.479
 2764TIP3    H1 8256   5.118   5.140   5.494
 2764TIP3    H2 8257   5.002   5.141   5.397
 2765TIP3   OH2 8258   2.190   0.345   0.858
 2765TIP3    H1 8259   2.148   0.269   0.818
 2765TIP3    H2 8260   2.227   0.394   0.785
 2766TIP3   OH2 8261   2.549   6.544   4.328
 2766TIP3    H1 8262   2.626   6.593   4.301
 2766TIP3    H2 8263   2.534   6.482   4.257
 2767TIP3   OH2 8264   2.826   5.669   0.748
 2767TIP3    H1 8265   2.833   5.667   0.653
 2767TIP3    H2 8266   2.903   5.717   0.777
 2768TIP3   OH2 8267   3.221   4.148   1.702
 2768TIP3    H1 8268   3.282   4.204   1.653
 2768TIP3    H2 8269   3.169   4.209   1.754
 2769TIP3   OH2 8270   7.035   0.638   5.440
 2769TIP3    H1 8271   6.950   0.673   5.413
 2769TIP3    H2 8272   7.014   0.574   5.508
 2770TIP3   OH2 8273   0.395   5.631   0.116
 2770TIP3    H1 8274   0.430   5.717   0.140
 2770TIP3    H2 8275   0.472   5.581   0.087
 2771TIP3   OH2 8276   0.553   6.482   2.479
 2771TIP3    H1 8277   0.570   6.394   2.446
 2771TIP3    H2 8278   0.478   6.513   2.428
 2772TIP3   OH2 8279   6.285   3.802   1.659
 2772TIP3    H1 8280   6.211   3.776   1.714
 2772TIP3    H2 8281   6.248   3.812   1.572
 2773TIP3   OH2 8282   3.838   4.539   1.133
 2773TIP3    H1 8283   3.809   4.475   1.068
 2773TIP3    H2 8284   3.858   4.488   1.211
 2774TIP3   OH2 8285   4.674   3.201   3.835
 2774TIP3    H1 8286   4.634   3.287   3.846
 2774TIP3    H2 8287   4.619   3.142   3.886
 2775TIP3   OH2 8288   3.209   4.804   0.061
 2775TIP3    H1 8289   3.226   4.783  -0.031
 2775TIP3    H2 8290   3.256   4.886   0.076
 2776TIP3   OH2 8291   6.472   2.685   5.636
 2776TIP3    H1 8292   6.550   2.645   5.673
 2776TIP3    H2 8293   6.400   2.650   5.689
 2777TIP3   OH2 8294   3.590   5.381   1.712
 2777TIP3    H1 8295   3.550   5.340   1.636
 2777TIP3    H2 8296   3.572   5.321   1.784
 2778TIP3   OH2 8297   1.855   6.150   0.281
 2778TIP3    H1 8298   1.766   6.163   0.248
 2778TIP3    H2 8299   1.842   6.119   0.371
 2779TIP3   OH2 8300   3.557   0.947   4.919
 2779TIP3    H1 8301   3.639   0.984   4.886
 2779TIP3    H2 8302   3.495   0.956   4.847
 2780TIP3   OH2 8303   6.595   5.922   3.289
 2780TIP3    H1 8304   6.591   5.877   3.373
 2780TIP3    H2 8305   6.688   5.924   3.267
 2781TIP3   OH2 8306   3.268   4.327   0.380
 2781TIP3    H1 8307   3.268   4.256   0.443
 2781TIP3    H2 8308   3.220   4.398   0.424
 2782TIP3   OH2 8309   1.037   2.298   3.207
 2782TIP3    H1 8310   1.121   2.252   3.212
 2782TIP3    H2 8311   1.054   2.383   3.247
 2783TIP3   OH2 8312   6.387   2.532   1.476
 2783TIP3    H1 8313   6.457   2.564   1.533
 2783TIP3    H2 8314   6.426   2.531   1.388
 2784TIP3   OH2 8315   6.449   6.187   3.261
 2784TIP3    H1 8316   6.534   6.231   3.272
 2784TIP3    H2 8317   6.463   6.100   3.298
 2785TIP3   OH2 8318   3.815   5.096   5.588
 2785TIP3    H1 8319   3.854   5.182   5.600
 2785TIP3    H2 8320   3.889   5.035   5.589
 2786TIP3   OH2 8321   1.571   2.459   5.368
 2786TIP3    H1 8322   1.557   2.498   5.454
 2786TIP3    H2 8323   1.494   2.484   5.317
 2787TIP3   OH2 8324   6.227   5.939   4.567
 2787TIP3    H1 8325   6.241   5.845   4.571
 2787TIP3    H2 8326   6.134   5.948   4.546
 2788TIP3   OH2 8327   1.902   6.299   0.731
 2788TIP3    H1 8328   1.816   6.337   0.711
 2788TIP3    H2 8329   1.948   6.299   0.647
 2789TIP3   OH2 8330   1.053   2.795   4.940
 2789TIP3    H1 8331   1.046   2.700   4.937
 2789TIP3    H2 8332   0.998   2.826   4.867
 2790TIP3   OH2 8333   6.650   0.611   3.347
 2790TIP3    H1 8334   6.676   0.644   3.433
 2790TIP3    H2 8335   6.649   0.688   3.291
 2791TIP3   OH2 8336   2.390   1.201   1.320
 2791TIP3    H1 8337   2.411   1.270   1.383
 2791TIP3    H2 8338   2.417   1.120   1.363
 2792TIP3   OH2 8339   0.845   4.062   4.655
 2792TIP3    H1 8340   0.775   4.025   4.708
 2792TIP3    H2 8341   0.921   4.062   4.713
 2793TIP3   OH2 8342   6.655   1.036   3.484
 2793TIP3    H1 8343   6.587   1.099   3.461
 2793TIP3    H2 8344   6.660   1.039   3.579
 2794TIP3   OH2 8345   3.065   3.460   2.036
 2794TIP3    H1 8346   3.080   3.553   2.050
 2794TIP3    H2 8347   3.033   3.427   2.120
 2795TIP3   OH2 8348   0.335   6.686   4.553
 2795TIP3    H1 8349   0.424   6.720   4.554
 2795TIP3    H2 8350   0.280   6.761   4.576
 2796TIP3   OH2 8351   4.103   4.161   2.222
 2796TIP3    H1 8352   4.139   4.218   2.290
 2796TIP3    H2 8353   4.009   4.180   2.224
 2797TIP3   OH2 8354   5.048   4.374   4.691
 2797TIP3    H1 8355   4.989   4.339   4.757
 2797TIP3    H2 8356   5.008   4.456   4.663
 2798TIP3   OH2 8357   5.305   1.104   0.361
 2798TIP3    H1 8358   5.285   1.046   0.287
 2798TIP3    H2 8359   5.363   1.170   0.323
 2799TIP3   OH2 8360   2.650   1.240   4.922
 2799TIP3    H1 8361   2.648   1.201   4.834
 2799TIP3    H2 8362   2.725   1.300   4.921
 2800TIP3   OH2 8363   5.289   1.843   3.329
 2800TIP3    H1 8364   5.380   1.841   3.301
 2800TIP3    H2 8365   5.245   1.778   3.275
 2801TIP3   OH2 8366   3.673   3.892   5.831
 2801TIP3    H1 8367   3.579   3.906   5.844
 2801TIP3    H2 8368   3.708   3.879   5.919
 2802TIP3   OH2 8369   6.935   2.293   1.210
 2802TIP3    H1 8370   6.921   2.388   1.218
 2802TIP3    H2 8371   6.917   2.259   1.297
 2803TIP3   OH2 8372   3.132   1.583   1.676
 2803TIP3    H1 8373   3.153   1.674   1.697
 2803TIP3    H2 8374   3.216   1.544   1.652
 2804TIP3   OH2 8375   4.496   6.372   4.762
 2804TIP3    H1 8376   4.427   6.346   4.822
 2804TIP3    H2 8377   4.451   6.423   4.695
 2805TIP3   OH2 8378   3.506   3.246   3.855
 2805TIP3    H1 8379   3.479   3.324   3.807
 2805TIP3    H2 8380   3.444   3.178   3.828
 2806TIP3   OH2 8381   4.232   6.096   3.188
 2806TIP3    H1 8382   4.174   6.050   3.249
 2806TIP3    H2 8383   4.268   6.027   3.132
 2807TIP3   OH2 8384   3.032   2.220   5.424
 2807TIP3    H1 8385   3.051   2.298   5.475
 2807TIP3    H2 8386   2.948   2.237   5.382
 2808TIP3   OH2 8387   4.781   5.531   5.410
 2808TIP3    H1 8388   4.854   5.497   5.357
 2808TIP3    H2 8389   4.754   5.456   5.464
 2809TIP3   OH2 8390   6.679   6.679   2.395
 2809TIP3    H1 8391   6.720   6.672   2.482
 2809TIP3    H2 8392   6.732   6.623   2.339
 2810TIP3   OH2 8393   0.535   6.692   0.358
 2810TIP3    H1 8394   0.482   6.685   0.437
 2810TIP3    H2 8395   0.615   6.642   0.378
 2811TIP3   OH2 8396   2.519   3.755   4.575
 2811TIP3    H1 8397   2.608   3.778   4.549
 2811TIP3    H2 8398   2.466   3.774   4.498
 2812TIP3   OH2 8399   5.201   3.081   4.629
 2812TIP3    H1 8400   5.241   3.150   4.681
 2812TIP3    H2 8401   5.183   3.011   4.692
 2813TIP3   OH2 8402   2.446   1.213   2.358
 2813TIP3    H1 8403   2.494   1.136   2.331
 2813TIP3    H2 8404   2.447   1.271   2.282
 2814TIP3   OH2 8405   1.543   1.475   3.498
 2814TIP3    H1 8406   1.549   1.417   3.422
 2814TIP3    H2 8407   1.587   1.555   3.470
 2815TIP3   OH2 8408   1.777   3.848   2.241
 2815TIP3    H1 8409   1.726   3.897   2.176
 2815TIP3    H2 8410   1.727   3.767   2.255
 2816TIP3   OH2 8411   2.827   6.555   2.695
 2816TIP3    H1 8412   2.876   6.475   2.713
 2816TIP3    H2 8413   2.735   6.528   2.696
 2817TIP3   OH2 8414   2.842   0.787   0.672
 2817TIP3    H1 8415   2.843   0.880   0.648
 2817TIP3    H2 8416   2.757   0.756   0.642
 2818TIP3   OH2 8417   0.974   5.679   2.402
 2818TIP3    H1 8418   1.068   5.697   2.412
 2818TIP3    H2 8419   0.938   5.690   2.490
 2819TIP3   OH2 8420   6.219   3.774   4.780
 2819TIP3    H1 8421   6.247   3.739   4.695
 2819TIP3    H2 8422   6.177   3.699   4.823
 2820TIP3   OH2 8423   1.313   2.138   0.590
 2820TIP3    H1 8424   1.335   2.226   0.620
 2820TIP3    H2 8425   1.396   2.101   0.560
 2821TIP3   OH2 8426   3.598   4.205   1.382
 2821TIP3    H1 8427   3.505   4.191   1.364
 2821TIP3    H2 8428   3.612   4.167   1.469
 2822TIP3   OH2 8429   7.084   6.344   0.439
 2822TIP3    H1 8430   7.071   6.310   0.350
 2822TIP3    H2 8431   7.125   6.271   0.486
 2823TIP3   OH2 8432   4.637   3.623   5.375
 2823TIP3    H1 8433   4.587   3.658   5.449
 2823TIP3    H2 8434   4.571   3.581   5.319
 2824TIP3   OH2 8435   7.126   4.475   5.401
 2824TIP3    H1 8436   7.184   4.551   5.406
 2824TIP3    H2 8437   7.141   4.428   5.484
 2825TIP3   OH2 8438   0.565   0.330   3.211
 2825TIP3    H1 8439   0.614   0.398   3.165
 2825TIP3    H2 8440   0.586   0.249   3.165
 2826TIP3   OH2 8441   4.327   1.533   5.270
 2826TIP3    H1 8442   4.304   1.539   5.177
 2826TIP3    H2 8443   4.274   1.461   5.303
 2827TIP3   OH2 8444   3.981   2.156   0.592
 2827TIP3    H1 8445   3.914   2.141   0.527
 2827TIP3    H2 8446   4.028   2.073   0.598
 2828TIP3   OH2 8447   2.502   2.765   1.943
 2828TIP3    H1 8448   2.460   2.723   1.868
 2828TIP3    H2 8449   2.595   2.745   1.934
 2829TIP3   OH2 8450   5.701   2.070   1.856
 2829TIP3    H1 8451   5.723   2.136   1.790
 2829TIP3    H2 8452   5.711   1.986   1.810
 2830TIP3   OH2 8453   3.612   1.064   5.448
 2830TIP3    H1 8454   3.583   1.115   5.524
 2830TIP3    H2 8455   3.557   1.096   5.376
 2831TIP3   OH2 8456   3.745   1.073   4.082
 2831TIP3    H1 8457   3.839   1.054   4.073
 2831TIP3    H2 8458   3.724   1.047   4.172
 2832TIP3   OH2 8459   7.102   3.670   4.455
 2832TIP3    H1 8460   7.125   3.705   4.541
 2832TIP3    H2 8461   7.060   3.586   4.474
 2833TIP3   OH2 8462   5.021   5.933   1.314
 2833TIP3    H1 8463   5.087   5.994   1.347
 2833TIP3    H2 8464   5.036   5.932   1.219
 2834TIP3   OH2 8465   0.184   2.744   2.395
 2834TIP3    H1 8466   0.138   2.663   2.418
 2834TIP3    H2 8467   0.268   2.737   2.441
 2835TIP3   OH2 8468   1.792   1.260   1.777
 2835TIP3    H1 8469   1.757   1.267   1.688
 2835TIP3    H2 8470   1.880   1.296   1.772
 2836TIP3   OH2 8471   6.221   0.278   0.527
 2836TIP3    H1 8472   6.229   0.368   0.496
 2836TIP3    H2 8473   6.195   0.287   0.619
 2837TIP3   OH2 8474   5.324   4.088   2.994
 2837TIP3    H1 8475   5.344   4.039   3.073
 2837TIP3    H2 8476   5.347   4.178   3.015
 2838TIP3   OH2 8477   1.961   4.280   4.829
 2838TIP3    H1 8478   1.875   4.291   4.787
 2838TIP3    H2 8479   2.003   4.210   4.780
 2839TIP3   OH2 8480   1.286   0.183   1.827
 2839TIP3    H1 8481   1.240   0.102   1.849
 2839TIP3    H2 8482   1.234   0.222   1.757
 2840TIP3   OH2 8483   2.739   1.023   1.677
 2840TIP3    H1 8484   2.644   1.028   1.679
 2840TIP3    H2 8485   2.759   0.930   1.686
 2841TIP3   OH2 8486   3.809   1.640   2.687
 2841TIP3    H1 8487   3.887   1.614   2.736
 2841TIP3    H2 8488   3.838   1.712   2.632
 2842TIP3   OH2 8489   4.427   3.079   3.575
 2842TIP3    H1 8490   4.374   3.103   3.651
 2842TIP3    H2 8491   4.516   3.105   3.599
 2843TIP3   OH2 8492   3.385   6.145   4.549
 2843TIP3    H1 8493   3.334   6.190   4.616
 2843TIP3    H2 8494   3.330   6.148   4.471
 2844TIP3   OH2 8495   1.708   5.871   4.690
 2844TIP3    H1 8496   1.795   5.891   4.654
 2844TIP3    H2 8497   1.725   5.801   4.753
 2845TIP3   OH2 8498   5.132   0.675   2.499
 2845TIP3    H1 8499   5.207   0.623   2.525
 2845TIP3    H2 8500   5.169   0.750   2.452
 2846TIP3   OH2 8501   5.631   4.320   5.557
 2846TIP3    H1 8502   5.690   4.390   5.531
 2846TIP3    H2 8503   5.668   4.241   5.518
 2847TIP3   OH2 8504   0.691   0.043   1.352
 2847TIP3    H1 8505   0.625  -0.026   1.340
 2847TIP3    H2 8506   0.640   0.123   1.359
 2848TIP3   OH2 8507   4.627   0.826   5.840
 2848TIP3    H1 8508   4.590   0.776   5.912
 2848TIP3    H2 8509   4.597   0.780   5.761
 2849TIP3   OH2 8510   0.127   3.450   2.718
 2849TIP3    H1 8511   0.202   3.455   2.659
 2849TIP3    H2 8512   0.156   3.391   2.788
 2850TIP3   OH2 8513   0.840   3.990   3.799
 2850TIP3    H1 8514   0.845   3.954   3.888
 2850TIP3    H2 8515   0.793   4.072   3.809
 2851TIP3   OH2 8516   1.734   4.755   1.301
 2851TIP3    H1 8517   1.704   4.826   1.244
 2851TIP3    H2 8518   1.816   4.726   1.260
 2852TIP3   OH2 8519   2.970   4.115   0.352
 2852TIP3    H1 8520   2.922   4.035   0.371
 2852TIP3    H2 8521   3.060   4.096   0.379
 2853TIP3   OH2 8522   1.059   0.311   0.796
 2853TIP3    H1 8523   1.102   0.284   0.714
 2853TIP3    H2 8524   1.102   0.257   0.863
 2854TIP3   OH2 8525   5.799   1.459   5.421
 2854TIP3    H1 8526   5.764   1.404   5.490
 2854TIP3    H2 8527   5.888   1.481   5.449
 2855TIP3   OH2 8528   4.119   4.448   4.288
 2855TIP3    H1 8529   4.155   4.537   4.296
 2855TIP3    H2 8530   4.032   4.454   4.328
 2856TIP3   OH2 8531   5.057   4.404   1.896
 2856TIP3    H1 8532   5.015   4.482   1.860
 2856TIP3    H2 8533   5.139   4.437   1.934
 2857TIP3   OH2 8534   3.209   0.854   2.132
 2857TIP3    H1 8535   3.248   0.896   2.055
 2857TIP3    H2 8536   3.125   0.899   2.143
 2858TIP3   OH2 8537   1.600   3.376   3.869
 2858TIP3    H1 8538   1.557   3.371   3.954
 2858TIP3    H2 8539   1.676   3.433   3.884
 2859TIP3   OH2 8540   3.493   1.610   5.377
 2859TIP3    H1 8541   3.415   1.598   5.322
 2859TIP3    H2 8542   3.545   1.676   5.330
 2860TIP3   OH2 8543   2.411   6.544   0.659
 2860TIP3    H1 8544   2.411   6.456   0.697
 2860TIP3    H2 8545   2.454   6.598   0.725
 2861TIP3   OH2 8546   2.875   5.986   3.084
 2861TIP3    H1 8547   2.839   6.032   3.160
 2861TIP3    H2 8548   2.926   5.914   3.122
 2862TIP3   OH2 8549   2.457   1.849   4.552
 2862TIP3    H1 8550   2.532   1.850   4.493
 2862TIP3    H2 8551   2.382   1.832   4.495
 2863TIP3   OH2 8552   2.778   0.678   3.295
 2863TIP3    H1 8553   2.823   0.618   3.235
 2863TIP3    H2 8554   2.840   0.691   3.367
 2864TIP3   OH2 8555   6.998   2.729   4.904
 2864TIP3    H1 8556   7.022   2.821   4.911
 2864TIP3    H2 8557   7.080   2.682   4.916
 2865TIP3   OH2 8558   5.625   6.746   3.598
 2865TIP3    H1 8559   5.717   6.745   3.621
 2865TIP3    H2 8560   5.623   6.721   3.505
 2866TIP3   OH2 8561   5.035   3.288   4.812
 2866TIP3    H1 8562   5.129   3.290   4.796
 2866TIP3    H2 8563   5.014   3.376   4.844
 2867TIP3   OH2 8564   1.340   4.681   2.636
 2867TIP3    H1 8565   1.257   4.721   2.612
 2867TIP3    H2 8566   1.394   4.687   2.556
 2868TIP3   OH2 8567   1.694   1.126   3.214
 2868TIP3    H1 8568   1.654   1.054   3.264
 2868TIP3    H2 8569   1.719   1.085   3.131
 2869TIP3   OH2 8570   2.770   6.191   2.470
 2869TIP3    H1 8571   2.842   6.132   2.447
 2869TIP3    H2 8572   2.796   6.229   2.554
 2870TIP3   OH2 8573   4.278   6.018   4.644
 2870TIP3    H1 8574   4.271   6.068   4.725
 2870TIP3    H2 8575   4.368   5.985   4.644
 2871TIP3   OH2 8576   7.206   4.907   2.977
 2871TIP3    H1 8577   7.193   4.990   2.931
 2871TIP3    H2 8578   7.180   4.925   3.067
 2872TIP3   OH2 8579   2.478   2.113   0.683
 2872TIP3    H1 8580   2.469   2.018   0.675
 2872TIP3    H2 8581   2.408   2.148   0.627
 2873TIP3   OH2 8582   6.679   0.212   4.368
 2873TIP3    H1 8583   6.721   0.126   4.364
 2873TIP3    H2 8584   6.745   0.269   4.406
 2874TIP3   OH2 8585   2.052   4.136   2.304
 2874TIP3    H1 8586   1.979   4.178   2.259
 2874TIP3    H2 8587   2.047   4.044   2.277
 2875TIP3   OH2 8588   6.799   0.066   1.012
 2875TIP3    H1 8589   6.727   0.014   1.048
 2875TIP3    H2 8590   6.792   0.150   1.056
 2876TIP3   OH2 8591   0.692   2.196   2.830
 2876TIP3    H1 8592   0.680   2.123   2.891
 2876TIP3    H2 8593   0.714   2.271   2.885
 2877TIP3   OH2 8594   5.098   6.307   1.144
 2877TIP3    H1 8595   5.037   6.326   1.072
 2877TIP3    H2 8596   5.183   6.296   1.102
 2878TIP3   OH2 8597   2.000   3.623   1.641
 2878TIP3    H1 8598   2.026   3.602   1.551
 2878TIP3    H2 8599   1.977   3.715   1.639
 2879TIP3   OH2 8600   4.043   2.646   0.331
 2879TIP3    H1 8601   4.068   2.554   0.344
 2879TIP3    H2 8602   4.116   2.684   0.281
 2880TIP3   OH2 8603   0.414   0.613   0.539
 2880TIP3    H1 8604   0.384   0.527   0.510
 2880TIP3    H2 8605   0.399   0.613   0.633
 2881TIP3   OH2 8606   2.002   5.340   5.320
 2881TIP3    H1 8607   2.005   5.416   5.378
 2881TIP3    H2 8608   2.084   5.294   5.339
 2882TIP3   OH2 8609   6.944   5.000   4.033
 2882TIP3    H1 8610   6.882   5.053   3.983
 2882TIP3    H2 8611   7.004   4.965   3.967
 2883TIP3   OH2 8612   1.190   5.323   4.967
 2883TIP3    H1 8613   1.159   5.383   4.900
 2883TIP3    H2 8614   1.112   5.304   5.020
 2884TIP3   OH2 8615   3.039   4.474   1.512
 2884TIP3    H1 8616   2.991   4.391   1.510
 2884TIP3    H2 8617   3.038   4.505   1.421
 2885TIP3   OH2 8618   0.543   3.089   1.068
 2885TIP3    H1 8619   0.481   3.017   1.059
 2885TIP3    H2 8620   0.616   3.051   1.117
 2886TIP3   OH2 8621   7.195   0.389   2.574
 2886TIP3    H1 8622   7.106   0.423   2.583
 2886TIP3    H2 8623   7.251   0.466   2.586
 2887TIP3   OH2 8624   5.229   5.271   4.094
 2887TIP3    H1 8625   5.143   5.304   4.066
 2887TIP3    H2 8626   5.218   5.176   4.098
 2888TIP3   OH2 8627   0.829   6.512   5.369
 2888TIP3    H1 8628   0.817   6.577   5.439
 2888TIP3    H2 8629   0.843   6.430   5.416
 2889TIP3   OH2 8630   1.918   0.647   3.510
 2889TIP3    H1 8631   1.923   0.729   3.559
 2889TIP3    H2 8632   1.894   0.581   3.575
 2890TIP3   OH2 8633   6.749   4.121   1.117
 2890TIP3    H1 8634   6.733   4.085   1.204
 2890TIP3    H2 8635   6.726   4.050   1.057
 2891TIP3   OH2 8636   5.803   4.730   5.229
 2891TIP3    H1 8637   5.822   4.655   5.174
 2891TIP3    H2 8638   5.807   4.805   5.169
 2892TIP3   OH2 8639   2.834   0.902   2.243
 2892TIP3    H1 8640   2.906   0.964   2.230
 2892TIP3    H2 8641   2.757   0.945   2.205
 2893TIP3   OH2 8642   2.937   1.183   1.925
 2893TIP3    H1 8643   3.019   1.183   1.876
 2893TIP3    H2 8644   2.869   1.176   1.858
 2894TIP3   OH2 8645   7.180   4.844   0.390
 2894TIP3    H1 8646   7.136   4.765   0.423
 2894TIP3    H2 8647   7.148   4.915   0.446
 2895TIP3   OH2 8648   6.086   2.389   2.765
 2895TIP3    H1 8649   6.084   2.336   2.845
 2895TIP3    H2 8650   6.017   2.455   2.780
 2896TIP3   OH2 8651   4.348   1.025   0.132
 2896TIP3    H1 8652   4.369   1.027   0.038
 2896TIP3    H2 8653   4.298   1.105   0.146
 2897TIP3   OH2 8654   5.254   3.886   2.083
 2897TIP3    H1 8655   5.200   3.964   2.092
 2897TIP3    H2 8656   5.344   3.918   2.095
 2898TIP3   OH2 8657   5.552   1.747   2.041
 2898TIP3    H1 8658   5.483   1.737   2.107
 2898TIP3    H2 8659   5.528   1.827   1.993
 2899TIP3   OH2 8660   2.203   2.191   5.429
 2899TIP3    H1 8661   2.190   2.180   5.335
 2899TIP3    H2 8662   2.291   2.158   5.446
 2900TIP3   OH2 8663   3.294   5.541   3.981
 2900TIP3    H1 8664   3.360   5.546   4.050
 2900TIP3    H2 8665   3.327   5.475   3.920
 2901TIP3   OH2 8666   2.816   6.194   5.284
 2901TIP3    H1 8667   2.897   6.246   5.277
 2901TIP3    H2 8668   2.840   6.118   5.336
 2902TIP3   OH2 8669   0.903   2.680   3.502
 2902TIP3    H1 8670   0.883   2.762   3.456
 2902TIP3    H2 8671   0.895   2.703   3.595
 2903TIP3   OH2 8672   6.665   5.610   2.333
 2903TIP3    H1 8673   6.580   5.617   2.289
 2903TIP3    H2 8674   6.702   5.528   2.301
 2904TIP3   OH2 8675   2.271   2.519   3.330
 2904TIP3    H1 8676   2.250   2.609   3.355
 2904TIP3    H2 8677   2.349   2.528   3.275
 2905TIP3   OH2 8678   6.585   0.852   5.611
 2905TIP3    H1 8679   6.513   0.879   5.668
 2905TIP3    H2 8680   6.564   0.762   5.586
 2906TIP3   OH2 8681   4.592   0.151   0.571
 2906TIP3    H1 8682   4.539   0.227   0.548
 2906TIP3    H2 8683   4.667   0.189   0.618
 2907TIP3   OH2 8684   3.541   3.877   2.545
 2907TIP3    H1 8685   3.468   3.834   2.500
 2907TIP3    H2 8686   3.582   3.931   2.477
 2908TIP3   OH2 8687   4.374   5.608   2.782
 2908TIP3    H1 8688   4.297   5.569   2.823
 2908TIP3    H2 8689   4.345   5.632   2.694
 2909TIP3   OH2 8690   0.411   3.139   4.275
 2909TIP3    H1 8691   0.385   3.048   4.289
 2909TIP3    H2 8692   0.497   3.133   4.232
 2910TIP3   OH2 8693   5.281   5.103   5.583
 2910TIP3    H1 8694   5.314   5.019   5.550
 2910TIP3    H2 8695   5.351   5.138   5.637
 2911TIP3   OH2 8696   1.110   2.664   0.107
 2911TIP3    H1 8697   1.042   2.729   0.120
 2911TIP3    H2 8698   1.192   2.715   0.106
 2912TIP3   OH2 8699   2.115   5.933   5.187
 2912TIP3    H1 8700   2.104   5.895   5.100
 2912TIP3    H2 8701   2.184   5.880   5.228
 2913TIP3   OH2 8702   4.146   4.572   4.909
 2913TIP3    H1 8703   4.114   4.637   4.971
 2913TIP3    H2 8704   4.150   4.618   4.825
 2914TIP3   OH2 8705   3.765   2.800   1.582
 2914TIP3    H1 8706   3.852   2.818   1.618
 2914TIP3    H2 8707   3.781   2.771   1.493
 2915TIP3   OH2 8708   5.536   6.238   5.454
 2915TIP3    H1 8709   5.492   6.309   5.406
 2915TIP3    H2 8710   5.491   6.235   5.538
 2916TIP3   OH2 8711   1.517   2.645   3.176
 2916TIP3    H1 8712   1.438   2.637   3.230
 2916TIP3    H2 8713   1.531   2.740   3.170
 2917TIP3   OH2 8714   2.856   2.297   0.385
 2917TIP3    H1 8715   2.900   2.233   0.441
 2917TIP3    H2 8716   2.785   2.331   0.440
 2918TIP3   OH2 8717   5.941   1.479   0.607
 2918TIP3    H1 8718   6.010   1.530   0.565
 2918TIP3    H2 8719   5.946   1.393   0.565
 2919TIP3   OH2 8720   1.916   4.980   1.593
 2919TIP3    H1 8721   1.959   4.905   1.635
 2919TIP3    H2 8722   1.948   4.980   1.503
 2920TIP3   OH2 8723   1.588   4.107   1.716
 2920TIP3    H1 8724   1.581   4.042   1.785
 2920TIP3    H2 8725   1.577   4.058   1.635
 2921TIP3   OH2 8726   4.609   6.027   0.414
 2921TIP3    H1 8727   4.665   6.038   0.337
 2921TIP3    H2 8728   4.594   5.933   0.420
 2922TIP3   OH2 8729   4.703   0.538   2.893
 2922TIP3    H1 8730   4.649   0.462   2.869
 2922TIP3    H2 8731   4.782   0.529   2.839
 2923TIP3   OH2 8732   3.238   4.423   0.126
 2923TIP3    H1 8733   3.224   4.387   0.214
 2923TIP3    H2 8734   3.166   4.485   0.114
 2924TIP3   OH2 8735   2.504   3.906   0.524
 2924TIP3    H1 8736   2.444   3.858   0.467
 2924TIP3    H2 8737   2.462   3.992   0.536
 2925TIP3   OH2 8738   4.968   2.995   2.489
 2925TIP3    H1 8739   4.905   2.931   2.456
 2925TIP3    H2 8740   4.988   3.050   2.413
 2926TIP3   OH2 8741   6.050   3.585   3.668
 2926TIP3    H1 8742   5.979   3.638   3.707
 2926TIP3    H2 8743   6.027   3.495   3.690
 2927TIP3   OH2 8744   3.783   5.090   0.742
 2927TIP3    H1 8745   3.709   5.040   0.777
 2927TIP3    H2 8746   3.744   5.152   0.680
 2928TIP3   OH2 8747   5.890   1.822   2.996
 2928TIP3    H1 8748   5.814   1.879   2.983
 2928TIP3    H2 8749   5.945   1.868   3.059
 2929TIP3   OH2 8750   2.653   2.751   3.475
 2929TIP3    H1 8751   2.653   2.736   3.380
 2929TIP3    H2 8752   2.584   2.694   3.509
 2930TIP3   OH2 8753   4.817   4.346   5.372
 2930TIP3    H1 8754   4.760   4.291   5.426
 2930TIP3    H2 8755   4.765   4.425   5.356
 2931TIP3   OH2 8756   1.662   0.258   2.991
 2931TIP3    H1 8757   1.678   0.170   2.959
 2931TIP3    H2 8758   1.634   0.245   3.082
 2932TIP3   OH2 8759   5.794   2.714   1.760
 2932TIP3    H1 8760   5.836   2.643   1.807
 2932TIP3    H2 8761   5.706   2.680   1.739
 2933TIP3   OH2 8762   6.374   2.224   2.275
 2933TIP3    H1 8763   6.290   2.234   2.231
 2933TIP3    H2 8764   6.415   2.311   2.268
 2934TIP3   OH2 8765   5.510   6.435   1.378
 2934TIP3    H1 8766   5.576   6.432   1.310
 2934TIP3    H2 8767   5.448   6.366   1.354
 2935TIP3   OH2 8768   1.998   1.712   0.676
 2935TIP3    H1 8769   1.932   1.736   0.610
 2935TIP3    H2 8770   1.968   1.754   0.756
 2936TIP3   OH2 8771   0.437   2.588   1.844
 2936TIP3    H1 8772   0.420   2.520   1.779
 2936TIP3    H2 8773   0.533   2.594   1.849
 2937TIP3   OH2 8774   6.124   2.793   2.614
 2937TIP3    H1 8775   6.201   2.746   2.583
 2937TIP3    H2 8776   6.158   2.875   2.649
 2938TIP3   OH2 8777   1.639   1.662   1.002
 2938TIP3    H1 8778   1.571   1.596   1.016
 2938TIP3    H2 8779   1.593   1.746   1.011
 2939TIP3   OH2 8780   4.866   4.507   5.002
 2939TIP3    H1 8781   4.871   4.436   4.938
 2939TIP3    H2 8782   4.953   4.508   5.042
 2940TIP3   OH2 8783   3.301   4.775   5.885
 2940TIP3    H1 8784   3.229   4.784   5.822
 2940TIP3    H2 8785   3.364   4.842   5.858
 2941TIP3   OH2 8786   1.428   2.068   5.087
 2941TIP3    H1 8787   1.450   2.009   5.016
 2941TIP3    H2 8788   1.376   2.016   5.148
 2942TIP3   OH2 8789   6.860   5.729   0.351
 2942TIP3    H1 8790   6.955   5.735   0.364
 2942TIP3    H2 8791   6.841   5.791   0.281
 2943TIP3   OH2 8792   1.329   3.172   5.786
 2943TIP3    H1 8793   1.274   3.250   5.796
 2943TIP3    H2 8794   1.380   3.189   5.707
 2944TIP3   OH2 8795   3.136   1.924   0.603
 2944TIP3    H1 8796   3.173   1.918   0.691
 2944TIP3    H2 8797   3.187   1.993   0.560
 2945TIP3   OH2 8798   4.060   3.795   0.119
 2945TIP3    H1 8799   4.017   3.738   0.055
 2945TIP3    H2 8800   4.128   3.839   0.069
 2946TIP3   OH2 8801   0.852   3.340   1.222
 2946TIP3    H1 8802   0.933   3.327   1.174
 2946TIP3    H2 8803   0.796   3.389   1.162
 2947TIP3   OH2 8804   4.048  -0.016   5.397
 2947TIP3    H1 8805   4.143  -0.025   5.410
 2947TIP3    H2 8806   4.034   0.079   5.388
 2948TIP3   OH2 8807   1.954   3.590   2.103
 2948TIP3    H1 8808   1.987   3.523   2.043
 2948TIP3    H2 8809   2.003   3.576   2.184
 2949TIP3   OH2 8810   5.055   1.717   3.878
 2949TIP3    H1 8811   5.063   1.622   3.888
 2949TIP3    H2 8812   4.964   1.731   3.852
 2950TIP3   OH2 8813   1.308   5.161   5.252
 2950TIP3    H1 8814   1.362   5.233   5.221
 2950TIP3    H2 8815   1.262   5.196   5.328
 2951TIP3   OH2 8816   4.276   0.431   1.751
 2951TIP3    H1 8817   4.367   0.447   1.728
 2951TIP3    H2 8818   4.277   0.426   1.847
 2952TIP3   OH2 8819   6.077   0.974   4.405
 2952TIP3    H1 8820   6.046   0.891   4.442
 2952TIP3    H2 8821   6.154   0.996   4.458
 2953TIP3   OH2 8822   2.289   1.876   5.560
 2953TIP3    H1 8823   2.346   1.818   5.510
 2953TIP3    H2 8824   2.202   1.863   5.522
 2954TIP3   OH2 8825   4.775   5.136   3.153
 2954TIP3    H1 8826   4.730   5.150   3.237
 2954TIP3    H2 8827   4.787   5.041   3.148
 2955TIP3   OH2 8828   1.831   0.134   2.243
 2955TIP3    H1 8829   1.840   0.067   2.311
 2955TIP3    H2 8830   1.772   0.095   2.179
 2956TIP3   OH2 8831   4.508   1.358   3.601
 2956TIP3    H1 8832   4.603   1.366   3.612
 2956TIP3    H2 8833   4.473   1.439   3.637
 2957TIP3   OH2 8834   0.650   2.531   3.142
 2957TIP3    H1 8835   0.585   2.472   3.180
 2957TIP3    H2 8836   0.598   2.605   3.110
 2958TIP3   OH2 8837   4.134   0.794   3.248
 2958TIP3    H1 8838   4.208   0.770   3.192
 2958TIP3    H2 8839   4.174   0.821   3.330
 2959TIP3   OH2 8840   0.204   4.432   0.634
 2959TIP3    H1 8841   0.259   4.509   0.645
 2959TIP3    H2 8842   0.139   4.439   0.704
 2960TIP3   OH2 8843   2.020   1.455   1.696
 2960TIP3    H1 8844   2.095   1.437   1.639
 2960TIP3    H2 8845   1.963   1.511   1.645
 2961TIP3   OH2 8846   1.615   4.383   1.098
 2961TIP3    H1 8847   1.693   4.349   1.142
 2961TIP3    H2 8848   1.650   4.446   1.034
 2962TIP3   OH2 8849   2.051   5.957   4.003
 2962TIP3    H1 8850   2.041   5.939   3.909
 2962TIP3    H2 8851   2.143   5.981   4.013
 2963TIP3   OH2 8852   5.027   2.265   3.305
 2963TIP3    H1 8853   4.985   2.344   3.269
 2963TIP3    H2 8854   5.037   2.283   3.398
 2964TIP3   OH2 8855   5.076   3.940   1.412
 2964TIP3    H1 8856   4.991   3.921   1.453
 2964TIP3    H2 8857   5.083   4.036   1.415
 2965TIP3   OH2 8858   2.371   0.410   1.585
 2965TIP3    H1 8859   2.354   0.318   1.568
 2965TIP3    H2 8860   2.321   0.457   1.518
 2966TIP3   OH2 8861   6.491   6.248   3.834
 2966TIP3    H1 8862   6.474   6.222   3.925
 2966TIP3    H2 8863   6.586   6.262   3.831
 2967TIP3   OH2 8864   1.629   5.458   1.733
 2967TIP3    H1 8865   1.553   5.515   1.719
 2967TIP3    H2 8866   1.649   5.467   1.826
 2968TIP3   OH2 8867   6.318   0.067   4.407
 2968TIP3    H1 8868   6.329   0.157   4.437
 2968TIP3    H2 8869   6.345   0.070   4.315
 2969TIP3   OH2 8870   0.615   3.090   5.572
 2969TIP3    H1 8871   0.689   3.149   5.582
 2969TIP3    H2 8872   0.595   3.061   5.661
 2970TIP3   OH2 8873   5.539   2.192   1.042
 2970TIP3    H1 8874   5.578   2.116   0.998
 2970TIP3    H2 8875   5.573   2.267   0.994
 2971TIP3   OH2 8876   6.630   3.618   1.121
 2971TIP3    H1 8877   6.677   3.546   1.164
 2971TIP3    H2 8878   6.550   3.629   1.172
 2972TIP3   OH2 8879   1.185   6.238   5.302
 2972TIP3    H1 8880   1.222   6.271   5.384
 2972TIP3    H2 8881   1.227   6.153   5.289
 2973TIP3   OH2 8882   4.177   5.788   1.054
 2973TIP3    H1 8883   4.178   5.759   0.963
 2973TIP3    H2 8884   4.106   5.852   1.058
 2974TIP3   OH2 8885   2.757   1.156   0.017
 2974TIP3    H1 8886   2.692   1.140   0.085
 2974TIP3    H2 8887   2.832   1.102   0.043
 2975TIP3   OH2 8888   1.738   0.730   0.614
 2975TIP3    H1 8889   1.826   0.725   0.652
 2975TIP3    H2 8890   1.680   0.740   0.689
 2976TIP3   OH2 8891   4.052   1.109   4.361
 2976TIP3    H1 8892   4.116   1.151   4.418
 2976TIP3    H2 8893   4.042   1.169   4.287
 2977TIP3   OH2 8894   0.978   3.352   5.739
 2977TIP3    H1 8895   0.938   3.288   5.680
 2977TIP3    H2 8896   1.069   3.358   5.709
 2978TIP3   OH2 8897   2.677   3.501   4.322
 2978TIP3    H1 8898   2.724   3.419   4.331
 2978TIP3    H2 8899   2.600   3.490   4.378
 2979TIP3   OH2 8900   4.882   6.613   2.933
 2979TIP3    H1 8901   4.874   6.696   2.980
 2979TIP3    H2 8902   4.810   6.560   2.966
 2980TIP3   OH2 8903   6.304   2.154   4.177
 2980TIP3    H1 8904   6.331   2.101   4.252
 2980TIP3    H2 8905   6.337   2.106   4.101
 2981TIP3   OH2 8906   3.227   3.969   2.191
 2981TIP3    H1 8907   3.228   3.985   2.097
 2981TIP3    H2 8908   3.134   3.958   2.212
 2982TIP3   OH2 8909   1.023   5.960   3.255
 2982TIP3    H1 8910   0.967   5.897   3.301
 2982TIP3    H2 8911   0.962   6.014   3.204
 2983TIP3   OH2 8912   5.552   0.537   4.775
 2983TIP3    H1 8913   5.626   0.590   4.805
 2983TIP3    H2 8914   5.582   0.446   4.786
 2984TIP3   OH2 8915   4.281   4.180   2.006
 2984TIP3    H1 8916   4.250   4.116   1.942
 2984TIP3    H2 8917   4.235   4.156   2.087
 2985TIP3   OH2 8918   0.275   6.582   1.801
 2985TIP3    H1 8919   0.276   6.541   1.715
 2985TIP3    H2 8920   0.225   6.521   1.856
 2986TIP3   OH2 8921   6.616   2.508   5.111
 2986TIP3    H1 8922   6.563   2.441   5.070
 2986TIP3    H2 8923   6.613   2.582   5.050
 2987TIP3   OH2 8924   3.416   6.082   1.280
 2987TIP3    H1 8925   3.496   6.052   1.322
 2987TIP3    H2 8926   3.346   6.047   1.334
 2988TIP3   OH2 8927   1.352   5.064   4.854
 2988TIP3    H1 8928   1.346   4.972   4.826
 2988TIP3    H2 8929   1.298   5.069   4.932
 2989TIP3   OH2 8930   3.790   0.275   0.388
 2989TIP3    H1 8931   3.870   0.319   0.360
 2989TIP3    H2 8932   3.817   0.214   0.456
 2990TIP3   OH2 8933   5.911   4.197   1.125
 2990TIP3    H1 8934   5.836   4.237   1.081
 2990TIP3    H2 8935   5.930   4.119   1.073
 2991TIP3   OH2 8936   4.963   0.325   0.149
 2991TIP3    H1 8937   4.942   0.264   0.079
 2991TIP3    H2 8938   4.880   0.343   0.192
 2992TIP3   OH2 8939   3.348   4.558   2.095
 2992TIP3    H1 8940   3.261   4.597   2.103
 2992TIP3    H2 8941   3.357   4.502   2.172
 2993TIP3   OH2 8942   3.436   4.175   3.951
 2993TIP3    H1 8943   3.356   4.127   3.972
 2993TIP3    H2 8944   3.507   4.121   3.987
 2994TIP3   OH2 8945   0.335   0.691   1.267
 2994TIP3    H1 8946   0.325   0.686   1.172
 2994TIP3    H2 8947   0.416   0.741   1.279
 2995TIP3   OH2 8948   6.324   2.551   5.844
 2995TIP3    H1 8949   6.280   2.466   5.841
 2995TIP3    H2 8950   6.268   2.604   5.902
 2996TIP3   OH2 8951   0.798   1.618   1.181
 2996TIP3    H1 8952   0.740   1.692   1.162
 2996TIP3    H2 8953   0.817   1.626   1.275
 2997TIP3   OH2 8954   1.128   0.517   0.262
 2997TIP3    H1 8955   1.094   0.607   0.264
 2997TIP3    H2 8956   1.072   0.472   0.199
 2998TIP3   OH2 8957   1.976   5.658   3.515
 2998TIP3    H1 8958   1.948   5.567   3.526
 2998TIP3    H2 8959   2.057   5.653   3.465
 2999TIP3   OH2 8960   3.728   6.385   3.867
 2999TIP3    H1 8961   3.754   6.324   3.936
 2999TIP3    H2 8962   3.745   6.472   3.904
 3000TIP3   OH2 8963   6.717   2.605   5.405
 3000TIP3    H1 8964   6.794   2.639   5.358
 3000TIP3    H2 8965   6.643   2.647   5.362
 3001TIP3   OH2 8966   2.084   3.194   2.835
 3001TIP3    H1 8967   2.072   3.211   2.742
 3001TIP3    H2 8968   2.097   3.099   2.841
 3002TIP3   OH2 8969   0.481   1.440   2.341
 3002TIP3    H1 8970   0.506   1.357   2.300
 3002TIP3    H2 8971   0.398   1.464   2.300
 3003TIP3   OH2 8972   6.257   6.166   2.896
 3003TIP3    H1 8973   6.200   6.172   2.819
 3003TIP3    H2 8974   6.328   6.108   2.868
 3004TIP3   OH2 8975   6.117   1.799   2.275
 3004TIP3    H1 8976   6.101   1.711   2.239
 3004TIP3    H2 8977   6.168   1.782   2.355
 3005TIP3   OH2 8978   1.425   1.588   3.710
 3005TIP3    H1 8979   1.455   1.533   3.638
 3005TIP3    H2 8980   1.496   1.651   3.723
 3006TIP3   OH2 8981   6.035   1.048   0.206
 3006TIP3    H1 8982   6.070   0.966   0.242
 3006TIP3    H2 8983   5.959   1.020   0.154
 3007TIP3   OH2 8984   5.940   6.609   4.750
 3007TIP3    H1 8985   5.849   6.583   4.764
 3007TIP3    H2 8986   5.940   6.704   4.761
 3008TIP3   OH2 8987   5.178   5.801   4.585
 3008TIP3    H1 8988   5.267   5.769   4.600
 3008TIP3    H2 8989   5.186   5.857   4.508
 3009TIP3   OH2 8990   5.528   6.007   3.658
 3009TIP3    H1 8991   5.547   6.059   3.736
 3009TIP3    H2 8992   5.471   5.937   3.689
 3010TIP3   OH2 8993   5.070   0.152   2.017
 3010TIP3    H1 8994   5.050   0.153   2.111
 3010TIP3    H2 8995   4.997   0.199   1.977
 3011TIP3   OH2 8996   1.590   1.625   5.430
 3011TIP3    H1 8997   1.684   1.615   5.447
 3011TIP3    H2 8998   1.552   1.541   5.457
 3012TIP3   OH2 8999   5.530   6.497   0.353
 3012TIP3    H1 9000   5.456   6.442   0.327
 3012TIP3    H2 9001   5.541   6.558   0.279
 3013TIP3   OH2 9002   2.971   1.020   3.713
 3013TIP3    H1 9003   2.920   0.998   3.636
 3013TIP3    H2 9004   3.044   1.072   3.680
 3014TIP3   OH2 9005   1.702   3.283   3.339
 3014TIP3    H1 9006   1.792   3.315   3.347
 3014TIP3    H2 9007   1.686   3.234   3.419
 3015TIP3   OH2 9008   1.156   5.568   1.459
 3015TIP3    H1 9009   1.076   5.529   1.426
 3015TIP3    H2 9010   1.206   5.494   1.495
 3016TIP3   OH2 9011   6.036   2.853   2.344
 3016TIP3    H1 9012   6.058   2.945   2.359
 3016TIP3    H2 9013   6.097   2.805   2.400
 3017TIP3   OH2 9014   6.580   5.615   4.307
 3017TIP3    H1 9015   6.664   5.569   4.312
 3017TIP3    H2 9016   6.539   5.600   4.391
 3018TIP3   OH2 9017   3.501   4.491   0.026
 3018TIP3    H1 9018   3.516   4.569   0.078
 3018TIP3    H2 9019   3.419   4.455   0.059
 3019TIP3   OH2 9020   0.158   2.438   3.955
 3019TIP3    H1 9021   0.173   2.514   3.899
 3019TIP3    H2 9022   0.157   2.473   4.044
 3020TIP3   OH2 9023   1.995   3.604   1.249
 3020TIP3    H1 9024   1.917   3.551   1.263
 3020TIP3    H2 9025   1.996   3.665   1.322
 3021TIP3   OH2 9026   5.895   6.024   4.859
 3021TIP3    H1 9027   5.814   6.045   4.906
 3021TIP3    H2 9028   5.891   5.929   4.845
 3022TIP3   OH2 9029   1.684   0.631   0.283
 3022TIP3    H1 9030   1.596   0.608   0.255
 3022TIP3    H2 9031   1.732   0.548   0.285
 3023TIP3   OH2 9032   4.056   3.755   3.962
 3023TIP3    H1 9033   4.103   3.724   3.885
 3023TIP3    H2 9034   4.089   3.844   3.976
 3024TIP3   OH2 9035   0.068   5.706   0.135
 3024TIP3    H1 9036  -0.010   5.735   0.089
 3024TIP3    H2 9037   0.126   5.673   0.066
 3025TIP3   OH2 9038   4.847   0.927   3.883
 3025TIP3    H1 9039   4.816   1.006   3.838
 3025TIP3    H2 9040   4.918   0.895   3.828
 3026TIP3   OH2 9041   5.760   4.492   0.579
 3026TIP3    H1 9042   5.806   4.538   0.649
 3026TIP3    H2 9043   5.667   4.511   0.593
 3027TIP3   OH2 9044   3.271   6.594   0.616
 3027TIP3    H1 9045   3.180   6.563   0.618
 3027TIP3    H2 9046   3.266   6.679   0.573
 3028TIP3   OH2 9047   0.148   4.168   5.723
 3028TIP3    H1 9048   0.147   4.103   5.652
 3028TIP3    H2 9049   0.175   4.118   5.800
 3029TIP3   OH2 9050   1.498   0.178   4.346
 3029TIP3    H1 9051   1.521   0.173   4.253
 3029TIP3    H2 9052   1.404   0.195   4.347
 3030TIP3   OH2 9053   3.751   6.254   0.203
 3030TIP3    H1 9054   3.844   6.244   0.182
 3030TIP3    H2 9055   3.710   6.176   0.167
 3031TIP3   OH2 9056   2.016   2.167   5.663
 3031TIP3    H1 9057   2.011   2.261   5.645
 3031TIP3    H2 9058   2.107   2.144   5.643
 3032TIP3   OH2 9059   6.179   6.271   3.495
 3032TIP3    H1 9060   6.148   6.323   3.569
 3032TIP3    H2 9061   6.256   6.225   3.529
 3033TIP3   OH2 9062   6.398   4.463   0.988
 3033TIP3    H1 9063   6.480   4.414   1.000
 3033TIP3    H2 9064   6.398   4.525   1.061
 3034TIP3   OH2 9065   6.615   1.311   1.742
 3034TIP3    H1 9066   6.651   1.251   1.676
 3034TIP3    H2 9067   6.623   1.398   1.703
 3035TIP3   OH2 9068   1.865   6.171   3.296
 3035TIP3    H1 9069   1.874   6.197   3.205
 3035TIP3    H2 9070   1.787   6.218   3.326
 3036TIP3   OH2 9071   1.076   2.425   4.413
 3036TIP3    H1 9072   0.994   2.412   4.365
 3036TIP3    H2 9073   1.066   2.372   4.492
 3037TIP3   OH2 9074   3.362   1.859   4.176
 3037TIP3    H1 9075   3.452   1.865   4.145
 3037TIP3    H2 9076   3.344   1.765   4.179
 3038TIP3   OH2 9077   0.879   5.509   2.129
 3038TIP3    H1 9078   0.953   5.453   2.108
 3038TIP3    H2 9079   0.918   5.591   2.157
 3039TIP3   OH2 9080   4.914   1.857   2.507
 3039TIP3    H1 9081   4.909   1.763   2.523
 3039TIP3    H2 9082   5.003   1.881   2.532
 3040TIP3   OH2 9083   0.276   5.219   3.592
 3040TIP3    H1 9084   0.339   5.290   3.603
 3040TIP3    H2 9085   0.305   5.174   3.512
 3041TIP3   OH2 9086   4.756   6.512   1.987
 3041TIP3    H1 9087   4.744   6.600   2.023
 3041TIP3    H2 9088   4.686   6.460   2.028
 3042TIP3   OH2 9089   6.304   1.149   3.422
 3042TIP3    H1 9090   6.313   1.120   3.332
 3042TIP3    H2 9091   6.230   1.209   3.422
 3043TIP3   OH2 9092   5.281   3.785   5.488
 3043TIP3    H1 9093   5.351   3.822   5.542
 3043TIP3    H2 9094   5.230   3.731   5.548
 3044TIP3   OH2 9095   3.265   3.829   4.260
 3044TIP3    H1 9096   3.291   3.854   4.348
 3044TIP3    H2 9097   3.303   3.742   4.248
 3045TIP3   OH2 9098   2.707   3.799   0.360
 3045TIP3    H1 9099   2.635   3.827   0.417
 3045TIP3    H2 9100   2.663   3.757   0.285
 3046TIP3   OH2 9101   1.888   2.392   1.035
 3046TIP3    H1 9102   1.844   2.331   0.976
 3046TIP3    H2 9103   1.880   2.351   1.121
 3047TIP3   OH2 9104   3.728   2.925   0.159
 3047TIP3    H1 9105   3.808   2.941   0.110
 3047TIP3    H2 9106   3.711   2.832   0.149
 3048TIP3   OH2 9107   6.898   6.636   1.062
 3048TIP3    H1 9108   6.809   6.671   1.061
 3048TIP3    H2 9109   6.914   6.614   1.154
 3049TIP3   OH2 9110   4.404   2.739   2.916
 3049TIP3    H1 9111   4.437   2.728   2.827
 3049TIP3    H2 9112   4.367   2.654   2.940
 3050TIP3   OH2 9113   4.582   6.599   5.391
 3050TIP3    H1 9114   4.544   6.512   5.374
 3050TIP3    H2 9115   4.555   6.619   5.481
 3051TIP3   OH2 9116   3.525   5.146   2.172
 3051TIP3    H1 9117   3.434   5.170   2.155
 3051TIP3    H2 9118   3.551   5.095   2.095
 3052TIP3   OH2 9119   1.064   4.919   1.148
 3052TIP3    H1 9120   1.077   4.827   1.172
 3052TIP3    H2 9121   1.063   4.918   1.052
 3053TIP3   OH2 9122   2.867   5.809   5.321
 3053TIP3    H1 9123   2.867   5.878   5.388
 3053TIP3    H2 9124   2.911   5.735   5.362
 3054TIP3   OH2 9125   2.764   2.134   0.190
 3054TIP3    H1 9126   2.789   2.187   0.266
 3054TIP3    H2 9127   2.683   2.091   0.217
 3055TIP3   OH2 9128   5.237   1.525   5.087
 3055TIP3    H1 9129   5.214   1.564   5.003
 3055TIP3    H2 9130   5.265   1.436   5.066
 3056TIP3   OH2 9131   6.370   2.563   4.408
 3056TIP3    H1 9132   6.358   2.484   4.461
 3056TIP3    H2 9133   6.441   2.540   4.348
 3057TIP3   OH2 9134   5.396   5.557   2.309
 3057TIP3    H1 9135   5.464   5.496   2.279
 3057TIP3    H2 9136   5.445   5.633   2.341
 3058TIP3   OH2 9137   1.874   0.311   2.788
 3058TIP3    H1 9138   1.800   0.273   2.835
 3058TIP3    H2 9139   1.835   0.372   2.726
 3059TIP3   OH2 9140   4.246   4.189   4.196
 3059TIP3    H1 9141   4.246   4.218   4.287
 3059TIP3    H2 9142   4.336   4.202   4.167
 3060TIP3   OH2 9143   6.883   4.040   0.689
 3060TIP3    H1 9144   6.901   3.978   0.760
 3060TIP3    H2 9145   6.896   4.126   0.730
 3061TIP3   OH2 9146   2.753   3.028   1.059
 3061TIP3    H1 9147   2.667   3.037   1.019
 3061TIP3    H2 9148   2.751   2.941   1.100
 3062TIP3   OH2 9149   6.473   1.499   4.972
 3062TIP3    H1 9150   6.486   1.408   4.948
 3062TIP3    H2 9151   6.557   1.526   5.009
 3063TIP3   OH2 9152   3.381   1.848   2.230
 3063TIP3    H1 9153   3.413   1.795   2.157
 3063TIP3    H2 9154   3.427   1.932   2.221
 3064TIP3   OH2 9155   5.333   0.301   1.220
 3064TIP3    H1 9156   5.283   0.286   1.140
 3064TIP3    H2 9157   5.395   0.370   1.197
 3065TIP3   OH2 9158   5.302   1.687   3.626
 3065TIP3    H1 9159   5.324   1.760   3.568
 3065TIP3    H2 9160   5.380   1.676   3.681
 3066TIP3   OH2 9161   5.048   3.500   3.399
 3066TIP3    H1 9162   5.007   3.447   3.331
 3066TIP3    H2 9163   5.089   3.437   3.458
 3067TIP3   OH2 9164   2.270   3.278   0.833
 3067TIP3    H1 9165   2.332   3.207   0.825
 3067TIP3    H2 9166   2.184   3.235   0.839
 3068TIP3   OH2 9167   2.142   3.373   3.158
 3068TIP3    H1 9168   2.167   3.461   3.129
 3068TIP3    H2 9169   2.069   3.388   3.218
 3069TIP3   OH2 9170   6.563   5.188   1.200
 3069TIP3    H1 9171   6.474   5.180   1.165
 3069TIP3    H2 9172   6.563   5.273   1.245
 3070TIP3   OH2 9173   6.937   1.925   3.207
 3070TIP3    H1 9174   6.852   1.968   3.215
 3070TIP3    H2 9175   6.920   1.833   3.227
 3071TIP3   OH2 9176   2.727   3.150   5.427
 3071TIP3    H1 9177   2.753   3.213   5.360
 3071TIP3    H2 9178   2.805   3.141   5.482
 3072TIP3   OH2 9179   2.411   5.768   3.701
 3072TIP3    H1 9180   2.356   5.708   3.651
 3072TIP3    H2 9181   2.500   5.738   3.684
 3073TIP3   OH2 9182   4.585   3.017   1.522
 3073TIP3    H1 9183   4.511   3.029   1.583
 3073TIP3    H2 9184   4.660   3.053   1.569
 3074TIP3   OH2 9185   2.020   4.231   3.585
 3074TIP3    H1 9186   1.952   4.270   3.531
 3074TIP3    H2 9187   1.994   4.139   3.595
 3075TIP3   OH2 9188   5.383   2.232   2.587
 3075TIP3    H1 9189   5.409   2.313   2.631
 3075TIP3    H2 9190   5.389   2.252   2.494
 3076TIP3   OH2 9191   5.521   2.538   2.191
 3076TIP3    H1 9192   5.587   2.605   2.172
 3076TIP3    H2 9193   5.481   2.520   2.106
 3077TIP3   OH2 9194   2.811   5.049   4.953
 3077TIP3    H1 9195   2.817   4.975   4.892
 3077TIP3    H2 9196   2.884   5.037   5.013
 3078TIP3   OH2 9197   2.767   5.873   3.553
 3078TIP3    H1 9198   2.816   5.931   3.495
 3078TIP3    H2 9199   2.677   5.879   3.522
 3079TIP3   OH2 9200   4.904   3.700   1.689
 3079TIP3    H1 9201   4.993   3.703   1.725
 3079TIP3    H2 9202   4.847   3.723   1.762
 3080TIP3   OH2 9203   3.478   0.809   2.687
 3080TIP3    H1 9204   3.440   0.885   2.644
 3080TIP3    H2 9205   3.573   0.821   2.679
 3081TIP3   OH2 9206   0.162   4.696   5.441
 3081TIP3    H1 9207   0.257   4.700   5.449
 3081TIP3    H2 9208   0.131   4.775   5.485
 3082TIP3   OH2 9209   4.637   1.223   4.723
 3082TIP3    H1 9210   4.609   1.297   4.670
 3082TIP3    H2 9211   4.722   1.197   4.685
 3083TIP3   OH2 9212   0.311   3.624   5.536
 3083TIP3    H1 9213   0.285   3.563   5.466
 3083TIP3    H2 9214   0.230   3.669   5.560
 3084TIP3   OH2 9215   5.565   6.101   1.623
 3084TIP3    H1 9216   5.496   6.041   1.648
 3084TIP3    H2 9217   5.548   6.181   1.673
 3085TIP3   OH2 9218   1.782   3.864   2.579
 3085TIP3    H1 9219   1.836   3.942   2.573
 3085TIP3    H2 9220   1.734   3.862   2.496
 3086TIP3   OH2 9221   4.752   4.699   1.089
 3086TIP3    H1 9222   4.835   4.728   1.052
 3086TIP3    H2 9223   4.685   4.740   1.034
 3087TIP3   OH2 9224   3.964   0.036   5.117
 3087TIP3    H1 9225   3.915   0.043   5.036
 3087TIP3    H2 9226   4.047   0.082   5.100
 3088TIP3   OH2 9227   0.975   4.648   3.477
 3088TIP3    H1 9228   0.974   4.657   3.382
 3088TIP3    H2 9229   0.973   4.553   3.492
 3089TIP3   OH2 9230   1.983   4.614   5.396
 3089TIP3    H1 9231   1.992   4.709   5.386
 3089TIP3    H2 9232   2.072   4.582   5.410
 3090TIP3   OH2 9233   5.625   0.722   3.438
 3090TIP3    H1 9234   5.626   0.628   3.417
 3090TIP3    H2 9235   5.626   0.766   3.353
 3091TIP3   OH2 9236   6.512   0.338   2.590
 3091TIP3    H1 9237   6.569   0.282   2.538
 3091TIP3    H2 9238   6.465   0.392   2.526
 3092TIP3   OH2 9239   5.366   6.191   4.777
 3092TIP3    H1 9240   5.416   6.110   4.771
 3092TIP3    H2 9241   5.275   6.163   4.768
 3093TIP3   OH2 9242   6.994   4.627   2.377
 3093TIP3    H1 9243   6.980   4.564   2.448
 3093TIP3    H2 9244   7.056   4.582   2.318
 3094TIP3   OH2 9245   3.267   5.819   5.059
 3094TIP3    H1 9246   3.281   5.837   5.152
 3094TIP3    H2 9247   3.327   5.747   5.039
 3095TIP3   OH2 9248   1.015   1.951   1.594
 3095TIP3    H1 9249   0.934   1.936   1.644
 3095TIP3    H2 9250   1.028   2.046   1.597
 3096TIP3   OH2 9251   6.712   1.444   5.306
 3096TIP3    H1 9252   6.639   1.382   5.304
 3096TIP3    H2 9253   6.784   1.395   5.345
 3097TIP3   OH2 9254   3.261   0.897   4.549
 3097TIP3    H1 9255   3.239   0.978   4.502
 3097TIP3    H2 9256   3.179   0.848   4.553
 3098TIP3   OH2 9257   4.223   3.023   4.303
 3098TIP3    H1 9258   4.157   3.041   4.370
 3098TIP3    H2 9259   4.178   2.966   4.240
 3099TIP3   OH2 9260   4.672   2.217   0.992
 3099TIP3    H1 9261   4.752   2.267   1.009
 3099TIP3    H2 9262   4.700   2.149   0.930
 3100TIP3   OH2 9263   0.209   3.331   2.948
 3100TIP3    H1 9264   0.151   3.293   3.014
 3100TIP3    H2 9265   0.293   3.342   2.993
 3101TIP3   OH2 9266   2.938   4.701   1.617
 3101TIP3    H1 9267   2.981   4.765   1.560
 3101TIP3    H2 9268   2.988   4.620   1.604
 3102TIP3   OH2 9269   6.468   6.586   5.749
 3102TIP3    H1 9270   6.472   6.657   5.814
 3102TIP3    H2 9271   6.550   6.539   5.761
 3103TIP3   OH2 9272   5.692   3.653   0.222
 3103TIP3    H1 9273   5.719   3.696   0.304
 3103TIP3    H2 9274   5.745   3.694   0.155
 3104TIP3   OH2 9275   1.119   3.304   4.599
 3104TIP3    H1 9276   1.042   3.270   4.645
 3104TIP3    H2 9277   1.145   3.381   4.648
 3105TIP3   OH2 9278   3.027   2.017   3.850
 3105TIP3    H1 9279   3.081   1.950   3.892
 3105TIP3    H2 9280   2.938   1.999   3.882
 3106TIP3   OH2 9281   6.625   1.600   3.235
 3106TIP3    H1 9282   6.603   1.582   3.144
 3106TIP3    H2 9283   6.719   1.621   3.233
 3107TIP3   OH2 9284   5.084   1.753   1.866
 3107TIP3    H1 9285   5.132   1.775   1.945
 3107TIP3    H2 9286   5.151   1.725   1.804
 3108TIP3   OH2 9287   4.296   2.743   3.658
 3108TIP3    H1 9288   4.329   2.773   3.573
 3108TIP3    H2 9289   4.204   2.724   3.642
 3109TIP3   OH2 9290   2.998   2.585   0.146
 3109TIP3    H1 9291   2.949   2.583   0.229
 3109TIP3    H2 9292   3.086   2.558   0.169
 3110TIP3   OH2 9293   2.281   0.173   1.899
 3110TIP3    H1 9294   2.236   0.098   1.938
 3110TIP3    H2 9295   2.370   0.141   1.882
 3111TIP3   OH2 9296   3.706   3.583   3.184
 3111TIP3    H1 9297   3.782   3.567   3.129
 3111TIP3    H2 9298   3.669   3.665   3.150
 3112TIP3   OH2 9299   3.984   4.051   3.072
 3112TIP3    H1 9300   4.035   3.972   3.052
 3112TIP3    H2 9301   3.895   4.029   3.045
 3113TIP3   OH2 9302   4.038   6.309   1.791
 3113TIP3    H1 9303   3.979   6.344   1.724
 3113TIP3    H2 9304   3.983   6.257   1.848
 3114TIP3   OH2 9305   2.889   2.054   0.529
 3114TIP3    H1 9306   2.837   1.996   0.473
 3114TIP3    H2 9307   2.968   2.004   0.548
 3115TIP3   OH2 9308   4.209   0.168   5.042
 3115TIP3    H1 9309   4.295   0.156   5.003
 3115TIP3    H2 9310   4.223   0.229   5.115
 3116TIP3   OH2 9311   1.448   6.491   0.566
 3116TIP3    H1 9312   1.382   6.558   0.546
 3116TIP3    H2 9313   1.514   6.502   0.497
 3117TIP3   OH2 9314   0.111   4.409   2.136
 3117TIP3    H1 9315   0.118   4.362   2.052
 3117TIP3    H2 9316   0.187   4.380   2.186
 3118TIP3   OH2 9317   3.599   3.779   0.620
 3118TIP3    H1 9318   3.655   3.857   0.629
 3118TIP3    H2 9319   3.604   3.757   0.527
 3119TIP3   OH2 9320   4.065   2.013   4.122
 3119TIP3    H1 9321   4.006   1.940   4.141
 3119TIP3    H2 9322   4.018   2.090   4.152
 3120TIP3   OH2 9323   4.077   5.706   5.230
 3120TIP3    H1 9324   4.115   5.794   5.223
 3120TIP3    H2 9325   4.047   5.700   5.321
 3121TIP3   OH2 9326   0.356   0.326   5.254
 3121TIP3    H1 9327   0.280   0.268   5.247
 3121TIP3    H2 9328   0.340   0.395   5.189
 3122TIP3   OH2 9329   4.317   2.355   3.963
 3122TIP3    H1 9330   4.292   2.395   3.880
 3122TIP3    H2 9331   4.278   2.412   4.030
 3123TIP3   OH2 9332   6.041   3.652   1.185
 3123TIP3    H1 9333   6.054   3.560   1.161
 3123TIP3    H2 9334   5.961   3.677   1.138
 3124TIP3   OH2 9335   3.844   0.492   3.905
 3124TIP3    H1 9336   3.757   0.509   3.869
 3124TIP3    H2 9337   3.860   0.400   3.886
 3125TIP3   OH2 9338   0.541   5.319   0.865
 3125TIP3    H1 9339   0.611   5.255   0.876
 3125TIP3    H2 9340   0.586   5.399   0.836
 3126TIP3   OH2 9341   4.592   4.962   4.701
 3126TIP3    H1 9342   4.557   4.915   4.776
 3126TIP3    H2 9343   4.519   4.968   4.640
 3127TIP3   OH2 9344   0.263   5.552   1.274
 3127TIP3    H1 9345   0.323   5.583   1.342
 3127TIP3    H2 9346   0.316   5.549   1.195
 3128TIP3   OH2 9347   2.210   2.961   1.094
 3128TIP3    H1 9348   2.201   2.868   1.073
 3128TIP3    H2 9349   2.260   2.962   1.176
 3129TIP3   OH2 9350   1.082   0.562   2.852
 3129TIP3    H1 9351   1.101   0.648   2.889
 3129TIP3    H2 9352   1.140   0.502   2.899
 3130TIP3   OH2 9353   4.149   2.710   4.356
 3130TIP3    H1 9354   4.168   2.652   4.429
 3130TIP3    H2 9355   4.070   2.758   4.383
 3131TIP3   OH2 9356   0.885   5.296   5.501
 3131TIP3    H1 9357   0.809   5.257   5.543
 3131TIP3    H2 9358   0.886   5.259   5.413
 3132TIP3   OH2 9359   6.606   2.026   1.716
 3132TIP3    H1 9360   6.585   2.023   1.810
 3132TIP3    H2 9361   6.619   2.119   1.698
 3133TIP3   OH2 9362   0.778   1.912   1.710
 3133TIP3    H1 9363   0.705   1.974   1.707
 3133TIP3    H2 9364   0.736   1.829   1.734
 3134TIP3   OH2 9365   4.132   6.728   4.187
 3134TIP3    H1 9366   4.133   6.634   4.207
 3134TIP3    H2 9367   4.221   6.747   4.157
 3135TIP3   OH2 9368   6.825   2.930   4.062
 3135TIP3    H1 9369   6.747   2.890   4.100
 3135TIP3    H2 9370   6.854   2.993   4.127
 3136TIP3   OH2 9371   1.021   6.618   5.674
 3136TIP3    H1 9372   0.998   6.668   5.595
 3136TIP3    H2 9373   1.041   6.530   5.641
 3137TIP3   OH2 9374   1.264   1.893   3.867
 3137TIP3    H1 9375   1.266   1.820   3.805
 3137TIP3    H2 9376   1.261   1.971   3.813
 3138TIP3   OH2 9377   5.815   2.962   5.114
 3138TIP3    H1 9378   5.865   2.888   5.147
 3138TIP3    H2 9379   5.811   3.024   5.187
 3139TIP3   OH2 9380   5.234   5.238   4.902
 3139TIP3    H1 9381   5.325   5.245   4.929
 3139TIP3    H2 9382   5.184   5.271   4.977
 3140TIP3   OH2 9383   1.551   0.215   3.252
 3140TIP3    H1 9384   1.501   0.272   3.311
 3140TIP3    H2 9385   1.543   0.128   3.291
 3141TIP3   OH2 9386   3.478   6.394   0.956
 3141TIP3    H1 9387   3.546   6.381   1.022
 3141TIP3    H2 9388   3.479   6.488   0.938
 3142TIP3   OH2 9389   3.708   5.020   1.964
 3142TIP3    H1 9390   3.756   5.002   2.045
 3142TIP3    H2 9391   3.766   4.990   1.895
 3143TIP3   OH2 9392   6.499   4.796   5.824
 3143TIP3    H1 9393   6.424   4.796   5.884
 3143TIP3    H2 9394   6.504   4.705   5.793
 3144TIP3   OH2 9395   4.024   3.468   0.926
 3144TIP3    H1 9396   3.944   3.447   0.878
 3144TIP3    H2 9397   4.025   3.564   0.932
 3145TIP3   OH2 9398   2.964   0.811   0.928
 3145TIP3    H1 9399   2.924   0.735   0.970
 3145TIP3    H2 9400   2.936   0.806   0.837
 3146TIP3   OH2 9401   3.424   2.801   0.595
 3146TIP3    H1 9402   3.452   2.807   0.504
 3146TIP3    H2 9403   3.475   2.867   0.641
 3147TIP3   OH2 9404   6.351   6.031   0.508
 3147TIP3    H1 9405   6.382   6.061   0.593
 3147TIP3    H2 9406   6.270   5.983   0.528
 3148TIP3   OH2 9407   3.442   1.401   3.639
 3148TIP3    H1 9408   3.380   1.468   3.668
 3148TIP3    H2 9409   3.418   1.323   3.689
 3149TIP3   OH2 9410   5.620   3.577   2.526
 3149TIP3    H1 9411   5.709   3.562   2.492
 3149TIP3    H2 9412   5.586   3.648   2.472
 3150TIP3   OH2 9413   6.254   3.439   0.859
 3150TIP3    H1 9414   6.294   3.417   0.775
 3150TIP3    H2 9415   6.242   3.534   0.856
 3151TIP3   OH2 9416   5.939   2.546   3.594
 3151TIP3    H1 9417   5.908   2.513   3.509
 3151TIP3    H2 9418   5.902   2.634   3.599
 3152TIP3   OH2 9419   6.887   5.196   0.129
 3152TIP3    H1 9420   6.965   5.178   0.182
 3152TIP3    H2 9421   6.871   5.114   0.082
 3153TIP3   OH2 9422   5.233   6.734   2.500
 3153TIP3    H1 9423   5.216   6.679   2.423
 3153TIP3    H2 9424   5.162   6.713   2.560
 3154TIP3   OH2 9425   4.019   0.260   5.697
 3154TIP3    H1 9426   4.005   0.242   5.604
 3154TIP3    H2 9427   3.954   0.327   5.718
 3155TIP3   OH2 9428   0.729   6.657   3.112
 3155TIP3    H1 9429   0.808   6.699   3.146
 3155TIP3    H2 9430   0.673   6.646   3.189
 3156TIP3   OH2 9431   4.882   3.431   2.400
 3156TIP3    H1 9432   4.913   3.341   2.389
 3156TIP3    H2 9433   4.876   3.466   2.311
 3157TIP3   OH2 9434   4.614   0.576   2.521
 3157TIP3    H1 9435   4.704   0.566   2.552
 3157TIP3    H2 9436   4.571   0.494   2.543
 3158TIP3   OH2 9437   6.338   3.070   3.627
 3158TIP3    H1 9438   6.380   3.075   3.541
 3158TIP3    H2 9439   6.326   2.976   3.643
 3159TIP3   OH2 9440   5.555   3.432   0.090
 3159TIP3    H1 9441   5.593   3.454   0.005
 3159TIP3    H2 9442   5.578   3.506   0.147
 3160TIP3   OH2 9443   1.951   0.112   4.418
 3160TIP3    H1 9444   1.987   0.057   4.488
 3160TIP3    H2 9445   2.014   0.103   4.346
 3161TIP3   OH2 9446   3.924   3.362   4.403
 3161TIP3    H1 9447   3.939   3.455   4.420
 3161TIP3    H2 9448   3.920   3.323   4.490
 3162TIP3   OH2 9449   1.646   1.531   2.348
 3162TIP3    H1 9450   1.684   1.613   2.318
 3162TIP3    H2 9451   1.551   1.546   2.345
 3163TIP3   OH2 9452   2.188   1.485   5.635
 3163TIP3    H1 9453   2.210   1.528   5.552
 3163TIP3    H2 9454   2.140   1.406   5.610
 3164TIP3   OH2 9455   4.220   3.411   1.231
 3164TIP3    H1 9456   4.277   3.451   1.297
 3164TIP3    H2 9457   4.192   3.328   1.270
 3165TIP3   OH2 9458   5.137   3.764   2.478
 3165TIP3    H1 9459   5.080   3.812   2.538
 3165TIP3    H2 9460   5.162   3.686   2.527
 3166TIP3   OH2 9461   1.242   5.040   0.130
 3166TIP3    H1 9462   1.206   5.056   0.044
 3166TIP3    H2 9463   1.169   5.004   0.181
 3167TIP3   OH2 9464   5.672   2.171   3.558
 3167TIP3    H1 9465   5.621   2.242   3.519
 3167TIP3    H2 9466   5.758   2.209   3.575
 3168TIP3   OH2 9467   4.758   0.857   4.756
 3168TIP3    H1 9468   4.788   0.814   4.836
 3168TIP3    H2 9469   4.806   0.940   4.754
 3169TIP3   OH2 9470   0.964   4.044   1.545
 3169TIP3    H1 9471   0.902   4.035   1.617
 3169TIP3    H2 9472   0.985   3.954   1.519
 3170TIP3   OH2 9473   2.363   5.212   1.118
 3170TIP3    H1 9474   2.401   5.167   1.193
 3170TIP3    H2 9475   2.272   5.185   1.117
 3171TIP3   OH2 9476   4.378   4.762   5.755
 3171TIP3    H1 9477   4.352   4.829   5.818
 3171TIP3    H2 9478   4.297   4.716   5.733
 3172TIP3   OH2 9479   3.086   5.592   5.588
 3172TIP3    H1 9480   3.179   5.568   5.594
 3172TIP3    H2 9481   3.041   5.511   5.565
 3173TIP3   OH2 9482   1.612   4.632   2.795
 3173TIP3    H1 9483   1.654   4.548   2.776
 3173TIP3    H2 9484   1.661   4.667   2.870
 3174TIP3   OH2 9485   6.397   0.118   5.278
 3174TIP3    H1 9486   6.308   0.144   5.303
 3174TIP3    H2 9487   6.391   0.098   5.185
 3175TIP3   OH2 9488   5.566   1.989   3.742
 3175TIP3    H1 9489   5.632   2.037   3.794
 3175TIP3    H2 9490   5.585   2.013   3.652
 3176TIP3   OH2 9491   1.054   5.266   1.054
 3176TIP3    H1 9492   1.070   5.361   1.047
 3176TIP3    H2 9493   1.053   5.236   0.963
 3177TIP3   OH2 9494   6.112   4.565   4.637
 3177TIP3    H1 9495   6.179   4.497   4.645
 3177TIP3    H2 9496   6.161   4.646   4.620
 3178TIP3   OH2 9497   7.095   2.787   3.260
 3178TIP3    H1 9498   7.189   2.777   3.249
 3178TIP3    H2 9499   7.061   2.793   3.171
 3179TIP3   OH2 9500   0.045   3.229   4.744
 3179TIP3    H1 9501  -0.018   3.229   4.673
 3179TIP3    H2 9502   0.014   3.161   4.804
 3180TIP3   OH2 9503   6.527   5.256  -0.004
 3180TIP3    H1 9504   6.533   5.224   0.086
 3180TIP3    H2 9505   6.436   5.286  -0.013
 3181TIP3   OH2 9506   5.317   4.769   5.824
 3181TIP3    H1 9507   5.255   4.705   5.859
 3181TIP3    H2 9508   5.262   4.844   5.801
 3182TIP3   OH2 9509   6.783   4.679   2.224
 3182TIP3    H1 9510   6.856   4.652   2.279
 3182TIP3    H2 9511   6.822   4.737   2.159
 3183TIP3   OH2 9512   2.656   3.790   1.864
 3183TIP3    H1 9513   2.640   3.884   1.873
 3183TIP3    H2 9514   2.696   3.764   1.947
 3184TIP3   OH2 9515   2.707   3.767   3.200
 3184TIP3    H1 9516   2.698   3.702   3.270
 3184TIP3    H2 9517   2.633   3.827   3.214
 3185TIP3   OH2 9518   5.921   3.518   3.368
 3185TIP3    H1 9519   5.842   3.530   3.420
 3185TIP3    H2 9520   5.992   3.518   3.432
 3186TIP3   OH2 9521   3.756   6.190   5.064
 3186TIP3    H1 9522   3.728   6.105   5.030
 3186TIP3    H2 9523   3.848   6.178   5.086
 3187TIP3   OH2 9524   4.363   6.333   3.934
 3187TIP3    H1 9525   4.343   6.307   3.844
 3187TIP3    H2 9526   4.364   6.250   3.983
 3188TIP3   OH2 9527   0.279   0.443   0.105
 3188TIP3    H1 9528   0.276   0.430   0.200
 3188TIP3    H2 9529   0.337   0.374   0.073
 3189TIP3   OH2 9530   0.553   2.792   0.577
 3189TIP3    H1 9531   0.639   2.823   0.605
 3189TIP3    H2 9532   0.501   2.871   0.566
 3190TIP3   OH2 9533   2.009   2.373   0.521
 3190TIP3    H1 9534   1.941   2.314   0.488
 3190TIP3    H2 9535   2.084   2.358   0.464
 3191TIP3   OH2 9536   0.848   2.810   5.223
 3191TIP3    H1 9537   0.879   2.857   5.146
 3191TIP3    H2 9538   0.777   2.864   5.257
 3192TIP3   OH2 9539   0.966   1.172   5.114
 3192TIP3    H1 9540   1.021   1.095   5.100
 3192TIP3    H2 9541   0.917   1.152   5.193
 3193TIP3   OH2 9542   0.682   1.994   0.796
 3193TIP3    H1 9543   0.689   2.078   0.750
 3193TIP3    H2 9544   0.769   1.955   0.789
 3194TIP3   OH2 9545   3.231   3.999   3.907
 3194TIP3    H1 9546   3.263   3.927   3.853
 3194TIP3    H2 9547   3.215   3.960   3.992
 3195TIP3   OH2 9548   2.503   2.487   4.565
 3195TIP3    H1 9549   2.536   2.551   4.502
 3195TIP3    H2 9550   2.576   2.426   4.577
 3196TIP3   OH2 9551   2.709   6.080   3.281
 3196TIP3    H1 9552   2.630   6.058   3.329
 3196TIP3    H2 9553   2.702   6.175   3.265
 3197TIP3   OH2 9554   5.852   2.432   3.339
 3197TIP3    H1 9555   5.858   2.475   3.254
 3197TIP3    H2 9556   5.759   2.426   3.357
 3198TIP3   OH2 9557   5.612   5.236   3.178
 3198TIP3    H1 9558   5.540   5.202   3.231
 3198TIP3    H2 9559   5.614   5.179   3.101
 3199TIP3   OH2 9560   2.167   1.411   0.295
 3199TIP3    H1 9561   2.160   1.504   0.277
 3199TIP3    H2 9562   2.087   1.389   0.344
 3200TIP3   OH2 9563   5.113   4.425   2.644
 3200TIP3    H1 9564   5.113   4.366   2.719
 3200TIP3    H2 9565   5.032   4.476   2.654
 3201TIP3   OH2 9566   6.339   0.457   2.415
 3201TIP3    H1 9567   6.347   0.420   2.327
 3201TIP3    H2 9568   6.267   0.520   2.407
 3202TIP3   OH2 9569   2.525   4.762   0.508
 3202TIP3    H1 9570   2.620   4.762   0.519
 3202TIP3    H2 9571   2.498   4.672   0.529
 3203TIP3   OH2 9572   6.998   0.128   4.002
 3203TIP3    H1 9573   7.047   0.135   3.920
 3203TIP3    H2 9574   7.063   0.107   4.068
 3204TIP3   OH2 9575   5.213   4.990   4.100
 3204TIP3    H1 9576   5.216   4.898   4.074
 3204TIP3    H2 9577   5.124   5.004   4.132
 3205TIP3   OH2 9578   1.012   3.122   0.393
 3205TIP3    H1 9579   1.019   3.047   0.452
 3205TIP3    H2 9580   1.089   3.176   0.412
 3206TIP3   OH2 9581   0.540   6.501   2.777
 3206TIP3    H1 9582   0.568   6.503   2.685
 3206TIP3    H2 9583   0.505   6.413   2.790
 3207TIP3   OH2 9584   3.121   5.695   0.677
 3207TIP3    H1 9585   3.073   5.768   0.637
 3207TIP3    H2 9586   3.105   5.704   0.771
 3208TIP3   OH2 9587   3.768   4.336   2.784
 3208TIP3    H1 9588   3.819   4.263   2.749
 3208TIP3    H2 9589   3.680   4.323   2.748
 3209TIP3   OH2 9590   5.934   4.313   2.151
 3209TIP3    H1 9591   5.875   4.331   2.078
 3209TIP3    H2 9592   5.947   4.218   2.148
 3210TIP3   OH2 9593   4.651   3.221   5.846
 3210TIP3    H1 9594   4.603   3.234   5.928
 3210TIP3    H2 9595   4.619   3.290   5.788
 3211TIP3   OH2 9596   5.918   4.176   3.905
 3211TIP3    H1 9597   5.942   4.208   3.992
 3211TIP3    H2 9598   5.949   4.244   3.845
 3212TIP3   OH2 9599   2.326   0.815   1.893
 3212TIP3    H1 9600   2.241   0.798   1.853
 3212TIP3    H2 9601   2.311   0.800   1.987
 3213TIP3   OH2 9602   5.352   3.881   3.476
 3213TIP3    H1 9603   5.439   3.901   3.510
 3213TIP3    H2 9604   5.368   3.815   3.408
 3214TIP3   OH2 9605   3.449   4.343   0.691
 3214TIP3    H1 9606   3.374   4.301   0.733
 3214TIP3    H2 9607   3.467   4.290   0.614
 3215TIP3   OH2 9608   2.666   2.209   5.747
 3215TIP3    H1 9609   2.648   2.134   5.691
 3215TIP3    H2 9610   2.675   2.172   5.835
 3216TIP3   OH2 9611   2.398   1.249   0.577
 3216TIP3    H1 9612   2.489   1.276   0.578
 3216TIP3    H2 9613   2.400   1.155   0.598
 3217TIP3   OH2 9614   0.083   3.727   1.892
 3217TIP3    H1 9615   0.125   3.686   1.968
 3217TIP3    H2 9616   0.067   3.655   1.831
 3218TIP3   OH2 9617   5.296   5.860   0.720
 3218TIP3    H1 9618   5.313   5.867   0.626
 3218TIP3    H2 9619   5.328   5.773   0.744
 3219TIP3   OH2 9620   2.342   3.296   2.596
 3219TIP3    H1 9621   2.367   3.354   2.668
 3219TIP3    H2 9622   2.401   3.321   2.524
 3220TIP3   OH2 9623   3.146   0.168   4.607
 3220TIP3    H1 9624   3.117   0.217   4.684
 3220TIP3    H2 9625   3.168   0.235   4.543
 3221TIP3   OH2 9626   1.211   2.148   4.520
 3221TIP3    H1 9627   1.273   2.148   4.593
 3221TIP3    H2 9628   1.139   2.205   4.550
 3222TIP3   OH2 9629   4.185   6.730   2.253
 3222TIP3    H1 9630   4.118   6.727   2.321
 3222TIP3    H2 9631   4.156   6.666   2.188
 3223TIP3   OH2 9632   2.658   0.668   5.630
 3223TIP3    H1 9633   2.669   0.593   5.688
 3223TIP3    H2 9634   2.729   0.728   5.653
 3224TIP3   OH2 9635  -0.046   3.708   3.825
 3224TIP3    H1 9636   0.047   3.688   3.831
 3224TIP3    H2 9637  -0.068   3.699   3.732
 3225TIP3   OH2 9638   4.936   2.472   5.742
 3225TIP3    H1 9639   4.938   2.382   5.774
 3225TIP3    H2 9640   4.979   2.468   5.656
 3226TIP3   OH2 9641   2.635   1.617   4.870
 3226TIP3    H1 9642   2.684   1.589   4.947
 3226TIP3    H2 9643   2.683   1.580   4.796
 3227TIP3   OH2 9644   6.855   2.685   1.918
 3227TIP3    H1 9645   6.811   2.600   1.914
 3227TIP3    H2 9646   6.920   2.676   1.987
 3228TIP3   OH2 9647   0.225   2.329   2.589
 3228TIP3    H1 9648   0.252   2.261   2.526
 3228TIP3    H2 9649   0.297   2.334   2.651
 3229TIP3   OH2 9650   6.165   1.305   0.814
 3229TIP3    H1 9651   6.096   1.245   0.844
 3229TIP3    H2 9652   6.140   1.390   0.849
 3230TIP3   OH2 9653   5.097   3.083   5.389
 3230TIP3    H1 9654   5.154   3.053   5.460
 3230TIP3    H2 9655   5.140   3.162   5.356
 3231TIP3   OH2 9656   6.407   1.675   4.714
 3231TIP3    H1 9657   6.445   1.632   4.637
 3231TIP3    H2 9658   6.431   1.767   4.706
 3232TIP3   OH2 9659   4.855   0.652   0.912
 3232TIP3    H1 9660   4.895   0.591   0.850
 3232TIP3    H2 9661   4.832   0.729   0.859
 3233TIP3   OH2 9662   7.165   1.188   3.710
 3233TIP3    H1 9663   7.098   1.147   3.655
 3233TIP3    H2 9664   7.229   1.220   3.647
 3234TIP3   OH2 9665   5.732   1.564   4.364
 3234TIP3    H1 9666   5.718   1.508   4.288
 3234TIP3    H2 9667   5.685   1.644   4.345
 3235TIP3   OH2 9668   1.590   1.544   1.866
 3235TIP3    H1 9669   1.681   1.566   1.884
 3235TIP3    H2 9670   1.561   1.497   1.945
 3236TIP3   OH2 9671   4.558   1.825   1.808
 3236TIP3    H1 9672   4.508   1.747   1.782
 3236TIP3    H2 9673   4.648   1.794   1.818
 3237TIP3   OH2 9674   3.648   4.246   4.607
 3237TIP3    H1 9675   3.646   4.341   4.599
 3237TIP3    H2 9676   3.739   4.225   4.628
 3238TIP3   OH2 9677   5.012   3.743   2.096
 3238TIP3    H1 9678   4.972   3.823   2.062
 3238TIP3    H2 9679   5.096   3.771   2.131
 3239TIP3   OH2 9680   0.670   4.057   3.283
 3239TIP3    H1 9681   0.628   4.120   3.341
 3239TIP3    H2 9682   0.750   4.101   3.254
 3240TIP3   OH2 9683   1.858   2.518   5.330
 3240TIP3    H1 9684   1.763   2.509   5.335
 3240TIP3    H2 9685   1.889   2.430   5.308
 3241TIP3   OH2 9686   6.372   0.654   4.414
 3241TIP3    H1 9687   6.313   0.585   4.443
 3241TIP3    H2 9688   6.451   0.608   4.385
 3242TIP3   OH2 9689   3.546   4.755   1.789
 3242TIP3    H1 9690   3.454   4.759   1.764
 3242TIP3    H2 9691   3.592   4.804   1.720
 3243TIP3   OH2 9692   6.729   5.265   5.837
 3243TIP3    H1 9693   6.791   5.231   5.773
 3243TIP3    H2 9694   6.708   5.353   5.805
 3244TIP3   OH2 9695   0.333   5.635   2.788
 3244TIP3    H1 9696   0.281   5.560   2.820
 3244TIP3    H2 9697   0.331   5.698   2.860
 3245TIP3   OH2 9698   0.791   3.763   0.921
 3245TIP3    H1 9699   0.733   3.814   0.977
 3245TIP3    H2 9700   0.839   3.706   0.981
 3246TIP3   OH2 9701   4.994   6.127   3.003
 3246TIP3    H1 9702   4.909   6.086   2.985
 3246TIP3    H2 9703   4.996   6.140   3.097
 3247TIP3   OH2 9704   4.529   0.975   2.072
 3247TIP3    H1 9705   4.480   0.907   2.118
 3247TIP3    H2 9706   4.468   1.009   2.006
 3248TIP3   OH2 9707   5.590   2.865   4.451
 3248TIP3    H1 9708   5.528   2.932   4.422
 3248TIP3    H2 9709   5.675   2.897   4.420
 3249TIP3   OH2 9710   3.734   0.964   4.347
 3249TIP3    H1 9711   3.661   0.935   4.402
 3249TIP3    H2 9712   3.805   0.903   4.366
 3250TIP3   OH2 9713   6.753   4.747   0.673
 3250TIP3    H1 9714   6.672   4.705   0.702
 3250TIP3    H2 9715   6.807   4.752   0.753
 3251TIP3   OH2 9716   5.741   2.372   3.028
 3251TIP3    H1 9717   5.718   2.465   3.024
 3251TIP3    H2 9718   5.671   2.328   2.979
 3252TIP3   OH2 9719   6.139   0.408   5.883
 3252TIP3    H1 9720   6.123   0.447   5.798
 3252TIP3    H2 9721   6.061   0.431   5.935
 3253TIP3   OH2 9722   1.623   0.662   3.446
 3253TIP3    H1 9723   1.579   0.660   3.532
 3253TIP3    H2 9724   1.715   0.645   3.466
 3254TIP3   OH2 9725   6.827   4.183   3.298
 3254TIP3    H1 9726   6.753   4.132   3.329
 3254TIP3    H2 9727   6.812   4.271   3.332
 3255TIP3   OH2 9728   6.720   2.041   2.766
 3255TIP3    H1 9729   6.813   2.036   2.745
 3255TIP3    H2 9730   6.676   2.030   2.682
 3256TIP3   OH2 9731   4.687   1.073   1.267
 3256TIP3    H1 9732   4.652   1.160   1.247
 3256TIP3    H2 9733   4.609   1.017   1.273
 3257TIP3   OH2 9734   6.914   3.424   0.344
 3257TIP3    H1 9735   6.826   3.408   0.311
 3257TIP3    H2 9736   6.932   3.349   0.401
 3258TIP3   OH2 9737   6.500   6.514   0.470
 3258TIP3    H1 9738   6.525   6.461   0.546
 3258TIP3    H2 9739   6.404   6.517   0.473
 3259TIP3   OH2 9740   1.506   4.326   3.038
 3259TIP3    H1 9741   1.507   4.236   3.007
 3259TIP3    H2 9742   1.505   4.379   2.958
 3260TIP3   OH2 9743   5.652   0.201   0.560
 3260TIP3    H1 9744   5.626   0.132   0.498
 3260TIP3    H2 9745   5.704   0.155   0.626
 3261TIP3   OH2 9746   4.320   3.719   4.541
 3261TIP3    H1 9747   4.367   3.783   4.595
 3261TIP3    H2 9748   4.233   3.713   4.581
 3262TIP3   OH2 9749   3.001   5.011   1.706
 3262TIP3    H1 9750   2.933   5.078   1.698
 3262TIP3    H2 9751   2.979   4.965   1.787
 3263TIP3   OH2 9752   2.117   0.498   3.942
 3263TIP3    H1 9753   2.093   0.564   4.006
 3263TIP3    H2 9754   2.159   0.547   3.872
 3264TIP3   OH2 9755   4.784   3.285   0.966
 3264TIP3    H1 9756   4.800   3.365   0.917
 3264TIP3    H2 9757   4.709   3.305   1.022
 3265TIP3   OH2 9758   0.967   4.781   2.287
 3265TIP3    H1 9759   0.884   4.821   2.313
 3265TIP3    H2 9760   0.942   4.709   2.229
 3266TIP3   OH2 9761   6.146   3.060   2.762
 3266TIP3    H1 9762   6.220   3.118   2.781
 3266TIP3    H2 9763   6.074   3.095   2.815
 3267TIP3   OH2 9764   4.414   1.834   0.614
 3267TIP3    H1 9765   4.374   1.747   0.618
 3267TIP3    H2 9766   4.343   1.892   0.586
 3268TIP3   OH2 9767   0.938   2.215   1.585
 3268TIP3    H1 9768   0.860   2.250   1.543
 3268TIP3    H2 9769   1.001   2.287   1.583
 3269TIP3   OH2 9770   2.520   0.480   0.354
 3269TIP3    H1 9771   2.501   0.393   0.318
 3269TIP3    H2 9772   2.473   0.540   0.296
 3270TIP3   OH2 9773   2.938   4.238   5.137
 3270TIP3    H1 9774   3.013   4.202   5.183
 3270TIP3    H2 9775   2.967   4.246   5.046
 3271TIP3   OH2 9776   0.518   1.210   2.706
 3271TIP3    H1 9777   0.580   1.246   2.643
 3271TIP3    H2 9778   0.527   1.266   2.783
 3272TIP3   OH2 9779   4.214   5.002   5.579
 3272TIP3    H1 9780   4.300   4.966   5.600
 3272TIP3    H2 9781   4.152   4.935   5.611
 3273TIP3   OH2 9782   4.380   6.073   1.842
 3273TIP3    H1 9783   4.398   6.069   1.936
 3273TIP3    H2 9784   4.339   6.159   1.829
 3274TIP3   OH2 9785   4.977   5.415   4.268
 3274TIP3    H1 9786   4.891   5.453   4.287
 3274TIP3    H2 9787   4.967   5.378   4.180
 3275TIP3   OH2 9788   2.761   0.989   3.447
 3275TIP3    H1 9789   2.799   0.945   3.371
 3275TIP3    H2 9790   2.723   1.069   3.413
 3276TIP3   OH2 9791   0.273   4.434   5.177
 3276TIP3    H1 9792   0.210   4.395   5.238
 3276TIP3    H2 9793   0.358   4.403   5.207
 3277TIP3   OH2 9794   1.365   6.318   0.206
 3277TIP3    H1 9795   1.304   6.315   0.132
 3277TIP3    H2 9796   1.312   6.295   0.282
 3278TIP3   OH2 9797   3.245   3.153   0.435
 3278TIP3    H1 9798   3.322   3.144   0.491
 3278TIP3    H2 9799   3.173   3.118   0.489
 3279TIP3   OH2 9800   4.441   0.352   0.751
 3279TIP3    H1 9801   4.486   0.435   0.765
 3279TIP3    H2 9802   4.445   0.337   0.657
 3280TIP3   OH2 9803   3.326   1.919   1.170
 3280TIP3    H1 9804   3.270   1.861   1.222
 3280TIP3    H2 9805   3.267   1.989   1.141
 3281TIP3   OH2 9806   5.113   2.061   4.708
 3281TIP3    H1 9807   5.041   2.026   4.760
 3281TIP3    H2 9808   5.126   2.150   4.741
 3282TIP3   OH2 9809   1.953   6.215   0.972
 3282TIP3    H1 9810   1.943   6.210   0.877
 3282TIP3    H2 9811   2.003   6.137   0.995
 3283TIP3   OH2 9812   5.065   4.954   4.432
 3283TIP3    H1 9813   5.024   4.982   4.351
 3283TIP3    H2 9814   4.991   4.943   4.493
 3284TIP3   OH2 9815   3.834   5.384   2.955
 3284TIP3    H1 9816   3.797   5.353   2.873
 3284TIP3    H2 9817   3.776   5.350   3.023
 3285TIP3   OH2 9818   4.362   0.160   5.789
 3285TIP3    H1 9819   4.403   0.185   5.871
 3285TIP3    H2 9820   4.354   0.242   5.740
 3286TIP3   OH2 9821   2.504   0.211   0.278
 3286TIP3    H1 9822   2.543   0.140   0.329
 3286TIP3    H2 9823   2.470   0.169   0.199
 3287TIP3   OH2 9824   6.103   0.314   1.895
 3287TIP3    H1 9825   6.096   0.227   1.935
 3287TIP3    H2 9826   6.146   0.298   1.811
 3288TIP3   OH2 9827   1.926   3.680   4.379
 3288TIP3    H1 9828   1.939   3.642   4.292
 3288TIP3    H2 9829   1.909   3.772   4.363
 3289TIP3   OH2 9830   4.883   1.090   4.976
 3289TIP3    H1 9831   4.901   1.060   5.065
 3289TIP3    H2 9832   4.944   1.162   4.962
 3290TIP3   OH2 9833   4.548   6.403   2.084
 3290TIP3    H1 9834   4.548   6.307   2.086
 3290TIP3    H2 9835   4.464   6.426   2.044
 3291TIP3   OH2 9836   1.440   4.462   3.872
 3291TIP3    H1 9837   1.405   4.417   3.795
 3291TIP3    H2 9838   1.372   4.452   3.938
 3292TIP3   OH2 9839   2.060   3.195   1.491
 3292TIP3    H1 9840   2.007   3.138   1.435
 3292TIP3    H2 9841   2.076   3.144   1.570
 3293TIP3   OH2 9842   6.886   4.495   3.409
 3293TIP3    H1 9843   6.950   4.425   3.420
 3293TIP3    H2 9844   6.845   4.504   3.495
 3294TIP3   OH2 9845   6.853   1.174   2.597
 3294TIP3    H1 9846   6.897   1.255   2.572
 3294TIP3    H2 9847   6.920   1.124   2.644
 3295TIP3   OH2 9848   5.715   1.219   3.124
 3295TIP3    H1 9849   5.750   1.307   3.143
 3295TIP3    H2 9850   5.733   1.169   3.203
 3296TIP3   OH2 9851   3.477   2.765   1.372
 3296TIP3    H1 9852   3.439   2.727   1.292
 3296TIP3    H2 9853   3.539   2.831   1.340
 3297TIP3   OH2 9854   5.025   3.234   0.684
 3297TIP3    H1 9855   5.063   3.167   0.740
 3297TIP3    H2 9856   5.061   3.316   0.717
 3298TIP3   OH2 9857   6.873   3.665   1.032
 3298TIP3    H1 9858   6.782   3.675   1.060
 3298TIP3    H2 9859   6.877   3.709   0.947
 3299TIP3   OH2 9860   0.074   3.914   0.955
 3299TIP3    H1 9861   0.167   3.931   0.938
 3299TIP3    H2 9862   0.069   3.819   0.963
 3300TIP3   OH2 9863   4.453   1.143   3.043
 3300TIP3    H1 9864   4.416   1.220   3.000
 3300TIP3    H2 9865   4.486   1.177   3.127
 3301TIP3   OH2 9866   2.318   2.913   3.909
 3301TIP3    H1 9867   2.379   2.974   3.949
 3301TIP3    H2 9868   2.373   2.856   3.855
 3302TIP3   OH2 9869   4.790   5.630   1.583
 3302TIP3    H1 9870   4.750   5.548   1.554
 3302TIP3    H2 9871   4.735   5.659   1.656
 3303TIP3   OH2 9872   6.642   1.038   1.722
 3303TIP3    H1 9873   6.574   0.986   1.678
 3303TIP3    H2 9874   6.723   1.016   1.676
 3304TIP3   OH2 9875   1.531   2.065   4.010
 3304TIP3    H1 9876   1.601   2.126   4.032
 3304TIP3    H2 9877   1.457   2.121   3.985
 3305TIP3   OH2 9878   0.386   4.952   0.728
 3305TIP3    H1 9879   0.328   4.946   0.652
 3305TIP3    H2 9880   0.376   5.042   0.759
 3306TIP3   OH2 9881   4.582   1.510   0.806
 3306TIP3    H1 9882   4.535   1.496   0.888
 3306TIP3    H2 9883   4.617   1.425   0.783
 3307TIP3   OH2 9884   4.645   2.094   5.362
 3307TIP3    H1 9885   4.712   2.060   5.303
 3307TIP3    H2 9886   4.626   2.021   5.422
 3308TIP3   OH2 9887   3.440   4.661   0.517
 3308TIP3    H1 9888   3.452   4.741   0.467
 3308TIP3    H2 9889   3.345   4.648   0.519
 3309TIP3   OH2 9890   1.950   2.261   5.264
 3309TIP3    H1 9891   2.003   2.199   5.315
 3309TIP3    H2 9892   2.012   2.301   5.203
 3310TIP3   OH2 9893   6.970   6.662   5.703
 3310TIP3    H1 9894   6.959   6.668   5.608
 3310TIP3    H2 9895   7.060   6.632   5.715
 3311TIP3   OH2 9896   6.031   3.661   1.758
 3311TIP3    H1 9897   5.984   3.611   1.691
 3311TIP3    H2 9898   5.962   3.700   1.811
 3312TIP3   OH2 9899   1.942   2.967   5.225
 3312TIP3    H1 9900   1.890   3.046   5.238
 3312TIP3    H2 9901   1.945   2.956   5.130
 3313TIP3   OH2 9902   7.145   3.209   5.774
 3313TIP3    H1 9903   7.149   3.153   5.697
 3313TIP3    H2 9904   7.235   3.209   5.808
 3314TIP3   OH2 9905   0.048   3.691   0.109
 3314TIP3    H1 9906   0.040   3.736   0.024
 3314TIP3    H2 9907   0.101   3.614   0.090
 3315TIP3   OH2 9908   6.038   5.379   3.114
 3315TIP3    H1 9909   6.026   5.374   3.209
 3315TIP3    H2 9910   6.115   5.435   3.103
 3316TIP3   OH2 9911   2.021   3.983   4.142
 3316TIP3    H1 9912   1.937   3.978   4.188
 3316TIP3    H2 9913   2.073   3.912   4.180
 3317TIP3   OH2 9914   1.890   6.104   4.857
 3317TIP3    H1 9915   1.817   6.057   4.897
 3317TIP3    H2 9916   1.910   6.055   4.777
 3318TIP3   OH2 9917   5.518   6.069   3.132
 3318TIP3    H1 9918   5.424   6.071   3.116
 3318TIP3    H2 9919   5.551   6.150   3.094
 3319TIP3   OH2 9920   4.174   5.812   2.701
 3319TIP3    H1 9921   4.097   5.792   2.754
 3319TIP3    H2 9922   4.144   5.880   2.640
 3320TIP3   OH2 9923   6.285   3.874   4.145
 3320TIP3    H1 9924   6.244   3.829   4.219
 3320TIP3    H2 9925   6.369   3.830   4.133
 3321TIP3   OH2 9926   6.881   0.916   5.355
 3321TIP3    H1 9927   6.849   0.965   5.431
 3321TIP3    H2 9928   6.817   0.846   5.344
 3322TIP3   OH2 9929   3.192   2.618   2.245
 3322TIP3    H1 9930   3.120   2.671   2.279
 3322TIP3    H2 9931   3.223   2.665   2.168
 3323TIP3   OH2 9932   1.636   5.923   5.796
 3323TIP3    H1 9933   1.694   5.931   5.872
 3323TIP3    H2 9934   1.684   5.966   5.726
 3324TIP3   OH2 9935   2.122   4.577   3.128
 3324TIP3    H1 9936   2.202   4.627   3.145
 3324TIP3    H2 9937   2.107   4.587   3.034
 3325TIP3   OH2 9938   5.610   4.221   1.495
 3325TIP3    H1 9939   5.546   4.161   1.456
 3325TIP3    H2 9940   5.695   4.181   1.476
 3326TIP3   OH2 9941   6.564   6.666   4.233
 3326TIP3    H1 9942   6.498   6.718   4.279
 3326TIP3    H2 9943   6.574   6.588   4.286
 3327TIP3   OH2 9944   1.974   3.317   3.382
 3327TIP3    H1 9945   1.934   3.256   3.444
 3327TIP3    H2 9946   2.047   3.356   3.431
 3328TIP3   OH2 9947   5.980   0.500   0.220
 3328TIP3    H1 9948   5.925   0.552   0.161
 3328TIP3    H2 9949   5.920   0.435   0.257
 3329TIP3   OH2 9950   3.056   6.359   5.176
 3329TIP3    H1 9951   3.104   6.277   5.192
 3329TIP3    H2 9952   3.064   6.373   5.082
 3330TIP3   OH2 9953   5.695   2.188   0.624
 3330TIP3    H1 9954   5.668   2.235   0.545
 3330TIP3    H2 9955   5.762   2.127   0.594
 3331TIP3   OH2 9956   4.673   2.254   5.816
 3331TIP3    H1 9957   4.720   2.300   5.746
 3331TIP3    H2 9958   4.597   2.217   5.772
 3332TIP3   OH2 9959   1.356   2.692   3.409
 3332TIP3    H1 9960   1.288   2.636   3.372
 3332TIP3    H2 9961   1.380   2.650   3.492
 3333TIP3   OH2 9962   6.267   0.457   2.745
 3333TIP3    H1 9963   6.208   0.459   2.820
 3333TIP3    H2 9964   6.343   0.407   2.776
 3334TIP3   OH2 9965   2.724   1.483   2.517
 3334TIP3    H1 9966   2.737   1.403   2.466
 3334TIP3    H2 9967   2.785   1.475   2.591
 3335TIP3   OH2 9968   6.896   5.814   5.608
 3335TIP3    H1 9969   6.806   5.824   5.577
 3335TIP3    H2 9970   6.919   5.901   5.640
 3336TIP3   OH2 9971   4.044   4.517   2.825
 3336TIP3    H1 9972   3.990   4.440   2.812
 3336TIP3    H2 9973   4.016   4.578   2.757
 3337TIP3   OH2 9974   0.548   4.613   2.944
 3337TIP3    H1 9975   0.508   4.539   2.988
 3337TIP3    H2 9976   0.524   4.689   2.997
 3338TIP3   OH2 9977   2.780   5.787   2.637
 3338TIP3    H1 9978   2.767   5.716   2.700
 3338TIP3    H2 9979   2.864   5.827   2.663
 3339TIP3   OH2 9980   6.639   5.479   2.600
 3339TIP3    H1 9981   6.553   5.448   2.629
 3339TIP3    H2 9982   6.621   5.530   2.522
 3340TIP3   OH2 9983   0.140   4.460   3.498
 3340TIP3    H1 9984   0.054   4.486   3.530
 3340TIP3    H2 9985   0.147   4.499   3.411
 3341TIP3   OH2 9986   5.349   0.172   2.176
 3341TIP3    H1 9987   5.259   0.157   2.149
 3341TIP3    H2 9988   5.394   0.089   2.163
 3342TIP3   OH2 9989   2.349   5.090   3.752
 3342TIP3    H1 9990   2.364   4.999   3.727
 3342TIP3    H2 9991   2.275   5.086   3.813
 3343TIP3   OH2 9992   7.110   5.001   3.807
 3343TIP3    H1 9993   7.157   4.952   3.740
 3343TIP3    H2 9994   7.156   5.084   3.813
 3344TIP3   OH2 9995   1.598   5.630   4.189
 3344TIP3    H1 9996   1.578   5.574   4.264
 3344TIP3    H2 9997   1.576   5.719   4.219
 3345TIP3   OH2 9998   1.496   1.109   2.462
 3345TIP3    H1 9999   1.576   1.146   2.425
 3345TIP3    H210000   1.525   1.031   2.509
 3346TIP3   OH210001   1.671   4.102   5.241
 3346TIP3    H110002   1.629   4.188   5.230
 3346TIP3    H210003   1.681   4.069   5.152
 3347TIP3   OH210004   0.791   6.081   3.511
 3347TIP3    H110005   0.886   6.091   3.513
 3347TIP3    H210006   0.773   6.037   3.427
 3348TIP3   OH210007   1.704   5.274   1.195
 3348TIP3    H110008   1.669   5.325   1.267
 3348TIP3    H210009   1.793   5.305   1.184
 3349TIP3   OH210010   4.123   1.221   2.495
 3349TIP3    H110011   4.197   1.162   2.511
 3349TIP3    H210012   4.154   1.283   2.429
 3350TIP3   OH210013   1.197   2.402   1.467
 3350TIP3    H110014   1.140   2.476   1.448
 3350TIP3    H210015   1.250   2.432   1.542
 3351TIP3   OH210016   0.069   0.501   5.602
 3351TIP3    H110017   0.164   0.495   5.592
 3351TIP3    H210018   0.042   0.561   5.533
 3352TIP3   OH210019   6.999   2.684   0.065
 3352TIP3    H110020   6.934   2.704   0.132
 3352TIP3    H210021   7.044   2.606   0.097
 3353TIP3   OH210022   2.133   5.146   1.435
 3353TIP3    H110023   2.054   5.093   1.424
 3353TIP3    H210024   2.205   5.082   1.432
 3354TIP3   OH210025   6.084   2.352   5.068
 3354TIP3    H110026   6.020   2.416   5.038
 3354TIP3    H210027   6.132   2.396   5.138
 3355TIP3   OH210028   5.885   2.692   1.151
 3355TIP3    H110029   5.822   2.634   1.194
 3355TIP3    H210030   5.957   2.635   1.125
 3356TIP3   OH210031   7.047   0.729   3.575
 3356TIP3    H110032   7.114   0.663   3.590
 3356TIP3    H210033   6.997   0.697   3.500
 3357TIP3   OH210034   3.350   0.308   1.140
 3357TIP3    H110035   3.329   0.295   1.047
 3357TIP3    H210036   3.426   0.251   1.155
 3358TIP3   OH210037   3.488   2.515   0.111
 3358TIP3    H110038   3.417   2.531   0.173
 3358TIP3    H210039   3.444   2.484   0.032
 3359TIP3   OH210040   6.738   4.958   5.432
 3359TIP3    H110041   6.794   4.993   5.363
 3359TIP3    H210042   6.758   4.864   5.434
 3360TIP3   OH210043   4.437   4.162   2.878
 3360TIP3    H110044   4.505   4.133   2.939
 3360TIP3    H210045   4.355   4.128   2.915
 3361TIP3   OH210046   5.149   1.491   2.132
 3361TIP3    H110047   5.106   1.453   2.055
 3361TIP3    H210048   5.193   1.569   2.098
 3362TIP3   OH210049   0.124   0.678   0.135
 3362TIP3    H110050   0.147   0.710   0.222
 3362TIP3    H210051   0.162   0.590   0.131
 3363TIP3   OH210052   6.597   2.298   1.673
 3363TIP3    H110053   6.501   2.292   1.676
 3363TIP3    H210054   6.615   2.351   1.595
 3364TIP3   OH210055   7.108   4.179   1.109
 3364TIP3    H110056   7.193   4.224   1.113
 3364TIP3    H210057   7.111   4.116   1.181
 3365TIP3   OH210058   6.419   1.981   2.022
 3365TIP3    H110059   6.446   2.002   2.112
 3365TIP3    H210060   6.406   1.887   2.023
 3366TIP3   OH210061   3.779   3.875   5.226
 3366TIP3    H110062   3.747   3.949   5.174
 3366TIP3    H210063   3.852   3.912   5.277
 3367TIP3   OH210064   6.020   4.276   5.235
 3367TIP3    H110065   6.082   4.250   5.303
 3367TIP3    H210066   6.050   4.230   5.157
 3368TIP3   OH210067   4.202   1.902   1.835
 3368TIP3    H110068   4.131   1.839   1.847
 3368TIP3    H210069   4.190   1.965   1.906
 3369TIP3   OH210070   4.850   1.393   3.044
 3369TIP3    H110071   4.772   1.448   3.027
 3369TIP3    H210072   4.923   1.454   3.040
 3370TIP3   OH210073   0.812   5.094   5.304
 3370TIP3    H110074   0.785   5.080   5.395
 3370TIP3    H210075   0.735   5.130   5.261
 3371TIP3   OH210076   5.646   1.210   1.960
 3371TIP3    H110077   5.728   1.245   1.996
 3371TIP3    H210078   5.617   1.275   1.897
 3372TIP3   OH210079   3.453   2.406   3.265
 3372TIP3    H110080   3.423   2.495   3.282
 3372TIP3    H210081   3.390   2.350   3.311
 3373TIP3   OH210082   6.034   3.125   5.013
 3373TIP3    H110083   5.940   3.109   5.024
 3373TIP3    H210084   6.069   3.043   4.980
 3374TIP3   OH210085   5.375   5.622   4.655
 3374TIP3    H110086   5.389   5.602   4.748
 3374TIP3    H210087   5.396   5.541   4.610
 3375TIP3   OH210088   3.263   6.778   4.490
 3375TIP3    H110089   3.304   6.840   4.430
 3375TIP3    H210090   3.310   6.790   4.573
 3376TIP3   OH210091   4.576   5.328   1.844
 3376TIP3    H110092   4.606   5.244   1.877
 3376TIP3    H210093   4.564   5.315   1.750
 3377TIP3   OH210094   2.928   6.183   1.593
 3377TIP3    H110095   3.021   6.191   1.570
 3377TIP3    H210096   2.926   6.115   1.660
 3378TIP3   OH210097   0.059   2.404   1.014
 3378TIP3    H110098   0.085   2.473   1.076
 3378TIP3    H210099  -0.014   2.359   1.058
 3379TIP3   OH210100   0.232   0.006   5.218
 3379TIP3    H110101   0.212  -0.053   5.290
 3379TIP3    H210102   0.159   0.067   5.217
 3380TIP3   OH210103   6.096   4.724   3.883
 3380TIP3    H110104   6.059   4.715   3.796
 3380TIP3    H210105   6.168   4.786   3.872
 3381TIP3   OH210106   0.957   2.181   0.888
 3381TIP3    H110107   1.028   2.122   0.911
 3381TIP3    H210108   0.946   2.171   0.794
 3382TIP3   OH210109   5.839   3.749   1.931
 3382TIP3    H110110   5.760   3.794   1.903
 3382TIP3    H210111   5.825   3.731   2.024
 3383TIP3   OH210112   4.560   6.509   0.382
 3383TIP3    H110113   4.570   6.477   0.471
 3383TIP3    H210114   4.558   6.430   0.328
 3384TIP3   OH210115   1.538   5.690   5.865
 3384TIP3    H110116   1.566   5.780   5.849
 3384TIP3    H210117   1.548   5.645   5.781
 3385TIP3   OH210118   4.245   6.086   1.208
 3385TIP3    H110119   4.229   6.012   1.149
 3385TIP3    H210120   4.158   6.120   1.227
 3386TIP3   OH210121   0.952   1.715   2.961
 3386TIP3    H110122   0.963   1.620   2.965
 3386TIP3    H210123   0.858   1.728   2.958
 3387TIP3   OH210124   1.299   2.812   3.969
 3387TIP3    H110125   1.246   2.866   3.911
 3387TIP3    H210126   1.296   2.724   3.929
 3388TIP3   OH210127   1.275   4.898   3.727
 3388TIP3    H110128   1.360   4.861   3.751
 3388TIP3    H210129   1.273   4.895   3.632
 3389TIP3   OH210130   1.460   0.731   3.948
 3389TIP3    H110131   1.376   0.724   3.993
 3389TIP3    H210132   1.492   0.819   3.971
 3390TIP3   OH210133   5.271   5.709   3.176
 3390TIP3    H110134   5.295   5.781   3.234
 3390TIP3    H210135   5.307   5.631   3.220
 3391TIP3   OH210136   4.509   3.043   4.015
 3391TIP3    H110137   4.583   3.015   4.069
 3391TIP3    H210138   4.470   2.961   3.985
 3392TIP3   OH210139   4.208   0.516   2.425
 3392TIP3    H110140   4.266   0.564   2.365
 3392TIP3    H210141   4.231   0.424   2.411
 3393TIP3   OH210142   1.601   4.783   4.504
 3393TIP3    H110143   1.609   4.871   4.540
 3393TIP3    H210144   1.513   4.755   4.529
 3394TIP3   OH210145   5.593   5.880   2.890
 3394TIP3    H110146   5.540   5.837   2.958
 3394TIP3    H210147   5.571   5.973   2.898
 3395TIP3   OH210148   0.386   6.371   0.729
 3395TIP3    H110149   0.331   6.443   0.758
 3395TIP3    H210150   0.330   6.294   0.737
 3396TIP3   OH210151   0.483   3.265   0.857
 3396TIP3    H110152   0.562   3.237   0.811
 3396TIP3    H210153   0.479   3.210   0.935
 3397TIP3   OH210154   6.079   4.276   1.330
 3397TIP3    H110155   6.049   4.259   1.241
 3397TIP3    H210156   6.122   4.361   1.325
 3398TIP3   OH210157   3.546   3.717   1.105
 3398TIP3    H110158   3.542   3.680   1.193
 3398TIP3    H210159   3.594   3.799   1.117
 3399TIP3   OH210160   5.060   5.760   2.376
 3399TIP3    H110161   5.041   5.709   2.298
 3399TIP3    H210162   5.106   5.699   2.434
 3400TIP3   OH210163   1.356   5.211   0.324
 3400TIP3    H110164   1.410   5.137   0.295
 3400TIP3    H210165   1.281   5.210   0.264
 3401TIP3   OH210166   4.949   2.551   0.504
 3401TIP3    H110167   5.012   2.609   0.461
 3401TIP3    H210168   4.927   2.597   0.586
 3402TIP3   OH210169   6.260   6.149   5.640
 3402TIP3    H110170   6.169   6.166   5.618
 3402TIP3    H210171   6.308   6.225   5.607
 3403TIP3   OH210172   2.444   6.319   4.972
 3403TIP3    H110173   2.358   6.316   5.014
 3403TIP3    H210174   2.505   6.296   5.042
 3404TIP3   OH210175   1.128   3.802   2.833
 3404TIP3    H110176   1.209   3.852   2.836
 3404TIP3    H210177   1.082   3.825   2.913
 3405TIP3   OH210178   3.188   5.081   5.495
 3405TIP3    H110179   3.148   5.006   5.451
 3405TIP3    H210180   3.152   5.080   5.583
 3406TIP3   OH210181   4.177   2.177   2.825
 3406TIP3    H110182   4.118   2.148   2.895
 3406TIP3    H210183   4.190   2.270   2.841
 3407TIP3   OH210184   5.970   3.049   3.409
 3407TIP3    H110185   5.897   2.989   3.426
 3407TIP3    H210186   5.943   3.098   3.332
 3408TIP3   OH210187   6.235   6.261   4.131
 3408TIP3    H110188   6.240   6.341   4.079
 3408TIP3    H210189   6.323   6.223   4.125
 3409TIP3   OH210190   3.915   0.453   2.983
 3409TIP3    H110191   3.888   0.501   3.060
 3409TIP3    H210192   4.006   0.480   2.969
 3410TIP3   OH210193   1.552   3.352   1.638
 3410TIP3    H110194   1.620   3.287   1.655
 3410TIP3    H210195   1.506   3.318   1.561
 3411TIP3   OH210196   5.352   5.498   3.485
 3411TIP3    H110197   5.285   5.567   3.485
 3411TIP3    H210198   5.366   5.480   3.392
 3412TIP3   OH210199   6.051   1.447   2.467
 3412TIP3    H110200   6.130   1.392   2.469
 3412TIP3    H210201   6.052   1.493   2.551
 3413TIP3   OH210202   5.060   6.017   2.472
 3413TIP3    H110203   5.032   5.930   2.443
 3413TIP3    H210204   4.979   6.066   2.483
 3414TIP3   OH210205   3.807   1.381   0.884
 3414TIP3    H110206   3.875   1.324   0.850
 3414TIP3    H210207   3.827   1.390   0.978
 3415TIP3   OH210208   0.888   5.831   2.964
 3415TIP3    H110209   0.878   5.750   2.914
 3415TIP3    H210210   0.804   5.877   2.954
 3416TIP3   OH210211   2.150   4.992   1.128
 3416TIP3    H110212   2.164   4.940   1.049
 3416TIP3    H210213   2.164   4.932   1.201
 3417TIP3   OH210214   0.483   6.159   1.246
 3417TIP3    H110215   0.492   6.069   1.217
 3417TIP3    H210216   0.572   6.185   1.272
 3418TIP3   OH210217   5.367   5.551   4.936
 3418TIP3    H110218   5.376   5.584   5.025
 3418TIP3    H210219   5.410   5.466   4.938
 3419TIP3   OH210220   2.045   0.666   0.730
 3419TIP3    H110221   2.125   0.615   0.731
 3419TIP3    H210222   2.027   0.681   0.637
 3420TIP3   OH210223   1.020   4.380   5.268
 3420TIP3    H110224   1.022   4.292   5.306
 3420TIP3    H210225   0.927   4.404   5.269
 3421TIP3   OH210226   5.513   4.362   1.291
 3421TIP3    H110227   5.547   4.325   1.372
 3421TIP3    H210228   5.551   4.450   1.286
 3422TIP3   OH210229   1.691   4.841   2.259
 3422TIP3    H110230   1.620   4.787   2.226
 3422TIP3    H210231   1.708   4.807   2.347
 3423TIP3   OH210232   3.548   6.141   1.910
 3423TIP3    H110233   3.534   6.222   1.862
 3423TIP3    H210234   3.552   6.166   2.002
 3424TIP3   OH210235   1.335   6.632   3.896
 3424TIP3    H110236   1.393   6.702   3.865
 3424TIP3    H210237   1.393   6.560   3.917
 3425TIP3   OH210238   3.202   1.244   2.708
 3425TIP3    H110239   3.222   1.275   2.797
 3425TIP3    H210240   3.219   1.320   2.652
 3426TIP3   OH210241   1.441   0.933   2.047
 3426TIP3    H110242   1.431   0.983   1.965
 3426TIP3    H210243   1.352   0.924   2.081
 3427TIP3   OH210244   2.650   1.697   1.955
 3427TIP3    H110245   2.652   1.625   1.892
 3427TIP3    H210246   2.642   1.775   1.900
 3428TIP3   OH210247   1.528   3.161   4.897
 3428TIP3    H110248   1.458   3.098   4.882
 3428TIP3    H210249   1.606   3.108   4.910
 3429TIP3   OH210250   0.413   1.760   3.300
 3429TIP3    H110251   0.499   1.754   3.341
 3429TIP3    H210252   0.394   1.853   3.297
 3430TIP3   OH210253   5.022   2.134   3.856
 3430TIP3    H110254   4.967   2.093   3.790
 3430TIP3    H210255   4.987   2.103   3.940
 3431TIP3   OH210256   3.871   5.481   5.288
 3431TIP3    H110257   3.920   5.531   5.352
 3431TIP3    H210258   3.783   5.519   5.289
 3432TIP3   OH210259   6.266   3.458   1.541
 3432TIP3    H110260   6.211   3.438   1.617
 3432TIP3    H210261   6.229   3.539   1.505
 3433TIP3   OH210262   0.441   3.900   3.774
 3433TIP3    H110263   0.407   3.949   3.849
 3433TIP3    H210264   0.481   3.967   3.719
 3434TIP3   OH210265   4.097   4.742   3.817
 3434TIP3    H110266   4.073   4.692   3.739
 3434TIP3    H210267   4.041   4.820   3.813
 3435TIP3   OH210268   5.266   3.589   3.626
 3435TIP3    H110269   5.301   3.620   3.542
 3435TIP3    H210270   5.190   3.535   3.602
 3436TIP3   OH210271   4.977   3.326   2.815
 3436TIP3    H110272   4.995   3.373   2.734
 3436TIP3    H210273   4.984   3.233   2.791
 3437TIP3   OH210274   0.044   4.518   2.551
 3437TIP3    H110275  -0.051   4.523   2.549
 3437TIP3    H210276   0.073   4.575   2.480
 3438TIP3   OH210277   3.789   2.408   0.443
 3438TIP3    H110278   3.706   2.403   0.489
 3438TIP3    H210279   3.796   2.499   0.414
 3439TIP3   OH210280   0.178   0.602   2.593
 3439TIP3    H110281   0.184   0.641   2.505
 3439TIP3    H210282   0.251   0.640   2.641
 3440TIP3   OH210283   6.218   6.396   3.033
 3440TIP3    H110284   6.251   6.326   2.977
 3440TIP3    H210285   6.157   6.352   3.093
 3441TIP3   OH210286   4.587   2.744   3.373
 3441TIP3    H110287   4.667   2.703   3.405
 3441TIP3    H210288   4.609   2.772   3.284
 3442TIP3   OH210289   5.885   1.270   5.186
 3442TIP3    H110290   5.804   1.219   5.186
 3442TIP3    H210291   5.863   1.350   5.234
 3443TIP3   OH210292   1.481   5.670   1.147
 3443TIP3    H110293   1.438   5.593   1.111
 3443TIP3    H210294   1.453   5.673   1.239
 3444TIP3   OH210295   0.826   4.596   0.287
 3444TIP3    H110296   0.889   4.525   0.292
 3444TIP3    H210297   0.838   4.644   0.369
 3445TIP3   OH210298   0.463   1.381   3.951
 3445TIP3    H110299   0.410   1.334   3.886
 3445TIP3    H210300   0.486   1.463   3.909
 3446TIP3   OH210301   3.362   2.287   1.081
 3446TIP3    H110302   3.438   2.260   1.028
 3446TIP3    H210303   3.399   2.312   1.165
 3447TIP3   OH210304   0.441   5.762   3.059
 3447TIP3    H110305   0.479   5.683   3.096
 3447TIP3    H210306   0.391   5.800   3.132
 3448TIP3   OH210307   0.607   2.457   2.189
 3448TIP3    H110308   0.678   2.395   2.173
 3448TIP3    H210309   0.528   2.404   2.188
 3449TIP3   OH210310   3.936   4.779   1.198
 3449TIP3    H110311   3.952   4.741   1.285
 3449TIP3    H210312   3.924   4.704   1.140
 3450TIP3   OH210313   6.712   2.233   5.215
 3450TIP3    H110314   6.752   2.184   5.143
 3450TIP3    H210315   6.727   2.325   5.193
 3451TIP3   OH210316   0.334   2.847   1.777
 3451TIP3    H110317   0.417   2.801   1.770
 3451TIP3    H210318   0.269   2.786   1.742
 3452TIP3   OH210319   0.319   1.654   5.659
 3452TIP3    H110320   0.334   1.562   5.636
 3452TIP3    H210321   0.349   1.702   5.582
 3453TIP3   OH210322   6.858   5.539   4.356
 3453TIP3    H110323   6.889   5.625   4.326
 3453TIP3    H210324   6.926   5.509   4.416
 3454TIP3   OH210325   4.539   1.841   1.061
 3454TIP3    H110326   4.597   1.819   0.989
 3454TIP3    H210327   4.594   1.890   1.122
 3455TIP3   OH210328   5.141   0.162   0.283
 3455TIP3    H110329   5.089   0.225   0.233
 3455TIP3    H210330   5.198   0.121   0.218
 3456TIP3   OH210331   6.028   6.795   3.313
 3456TIP3    H110332   6.112   6.762   3.279
 3456TIP3    H210333   5.978   6.716   3.334
 3457TIP3   OH210334   5.639   2.851   1.066
 3457TIP3    H110335   5.558   2.814   1.102
 3457TIP3    H210336   5.655   2.801   0.986
 3458TIP3   OH210337   0.221   2.618   4.166
 3458TIP3    H110338   0.313   2.625   4.192
 3458TIP3    H210339   0.184   2.705   4.185
 3459TIP3   OH210340   2.846   5.143   3.797
 3459TIP3    H110341   2.917   5.205   3.814
 3459TIP3    H210342   2.809   5.172   3.714
 3460TIP3   OH210343   4.193   5.132   2.647
 3460TIP3    H110344   4.197   5.081   2.727
 3460TIP3    H210345   4.244   5.211   2.666
 3461TIP3   OH210346   4.406   2.757   4.233
 3461TIP3    H110347   4.329   2.789   4.280
 3461TIP3    H210348   4.480   2.800   4.276
 3462TIP3   OH210349   1.070   3.649   2.270
 3462TIP3    H110350   1.074   3.629   2.364
 3462TIP3    H210351   0.998   3.594   2.237
 3463TIP3   OH210352   5.241   0.909   2.366
 3463TIP3    H110353   5.269   0.890   2.276
 3463TIP3    H210354   5.189   0.989   2.360
 3464TIP3   OH210355   3.416   3.800   3.799
 3464TIP3    H110356   3.450   3.817   3.712
 3464TIP3    H210357   3.342   3.741   3.785
 3465TIP3   OH210358   7.221   0.317   1.362
 3465TIP3    H110359   7.162   0.322   1.437
 3465TIP3    H210360   7.175   0.365   1.293
 3466TIP3   OH210361   5.716   0.998   4.820
 3466TIP3    H110362   5.643   1.010   4.881
 3466TIP3    H210363   5.678   1.015   4.734
 3467TIP3   OH210364   4.823   3.633   5.800
 3467TIP3    H110365   4.875   3.582   5.862
 3467TIP3    H210366   4.786   3.568   5.740
 3468TIP3   OH210367   4.487   3.492   4.724
 3468TIP3    H110368   4.454   3.414   4.767
 3468TIP3    H210369   4.409   3.539   4.694
 3469TIP3   OH210370   0.254   3.709   3.890
 3469TIP3    H110371   0.324   3.661   3.934
 3469TIP3    H210372   0.299   3.762   3.823
 3470TIP3   OH210373   1.100   3.011   1.935
 3470TIP3    H110374   1.096   3.095   1.980
 3470TIP3    H210375   1.059   2.949   1.995
 3471TIP3   OH210376   4.077   2.877   1.251
 3471TIP3    H110377   4.151   2.840   1.203
 3471TIP3    H210378   4.009   2.890   1.185
 3472TIP3   OH210379   4.702   4.232   5.798
 3472TIP3    H110380   4.623   4.282   5.776
 3472TIP3    H210381   4.678   4.141   5.782
 3473TIP3   OH210382   3.939   6.502   1.551
 3473TIP3    H110383   3.866   6.546   1.506
 3473TIP3    H210384   3.907   6.413   1.567
 3474TIP3   OH210385   3.774   5.400   5.864
 3474TIP3    H110386   3.858   5.371   5.829
 3474TIP3    H210387   3.745   5.468   5.803
 3475TIP3   OH210388   3.512   5.953   5.715
 3475TIP3    H110389   3.604   5.953   5.688
 3475TIP3    H210390   3.514   5.978   5.807
 3476TIP3   OH210391   3.861   5.422   3.411
 3476TIP3    H110392   3.916   5.449   3.484
 3476TIP3    H210393   3.909   5.448   3.333
 3477TIP3   OH210394   6.452   0.350   4.455
 3477TIP3    H110395   6.385   0.374   4.391
 3477TIP3    H210396   6.515   0.298   4.405
 3478TIP3   OH210397   3.892   1.118   3.338
 3478TIP3    H110398   3.982   1.136   3.366
 3478TIP3    H210399   3.840   1.188   3.378
 3479TIP3   OH210400   3.942   5.590   1.978
 3479TIP3    H110401   3.941   5.496   1.960
 3479TIP3    H210402   3.998   5.626   1.909
 3480TIP3   OH210403   7.097   2.171   4.599
 3480TIP3    H110404   7.098   2.267   4.602
 3480TIP3    H210405   7.185   2.147   4.571
 3481TIP3   OH210406   6.345   3.358   1.296
 3481TIP3    H110407   6.382   3.270   1.294
 3481TIP3    H210408   6.326   3.374   1.389
 3482TIP3   OH210409   4.042   4.616   3.565
 3482TIP3    H110410   4.136   4.628   3.555
 3482TIP3    H210411   4.025   4.530   3.527
 3483TIP3   OH210412   0.601   4.582   1.633
 3483TIP3    H110413   0.580   4.508   1.691
 3483TIP3    H210414   0.646   4.644   1.690
 3484TIP3   OH210415   3.467   4.772   2.959
 3484TIP3    H110416   3.527   4.698   2.950
 3484TIP3    H210417   3.498   4.818   3.037
 3485TIP3   OH210418   1.151   6.499   1.618
 3485TIP3    H110419   1.086   6.505   1.548
 3485TIP3    H210420   1.214   6.569   1.599
 3486TIP3   OH210421   4.195   4.056   1.782
 3486TIP3    H110422   4.256   4.091   1.717
 3486TIP3    H210423   4.111   4.097   1.762
 3487TIP3   OH210424   6.894   2.483   1.498
 3487TIP3    H110425   6.892   2.388   1.510
 3487TIP3    H210426   6.845   2.498   1.417
 3488TIP3   OH210427   3.858   0.276   3.258
 3488TIP3    H110428   3.940   0.293   3.212
 3488TIP3    H210429   3.869   0.188   3.295
 3489TIP3   OH210430   6.280   2.344   4.542
 3489TIP3    H110431   6.203   2.311   4.496
 3489TIP3    H210432   6.253   2.350   4.634
 3490TIP3   OH210433   0.715   4.586   1.255
 3490TIP3    H110434   0.779   4.590   1.184
 3490TIP3    H210435   0.662   4.665   1.244
 3491TIP3   OH210436   1.038   4.579   3.944
 3491TIP3    H110437   0.986   4.646   3.988
 3491TIP3    H210438   1.034   4.601   3.851
 3492TIP3   OH210439   0.676   5.811   5.546
 3492TIP3    H110440   0.702   5.859   5.624
 3492TIP3    H210441   0.747   5.749   5.530
 3493TIP3   OH210442   5.164   2.654   1.750
 3493TIP3    H110443   5.084   2.674   1.798
 3493TIP3    H210444   5.190   2.738   1.712
 3494TIP3   OH210445   1.120   3.017   5.327
 3494TIP3    H110446   1.093   3.080   5.260
 3494TIP3    H210447   1.152   2.942   5.278
 3495TIP3   OH210448   1.144   1.384   4.469
 3495TIP3    H110449   1.143   1.385   4.374
 3495TIP3    H210450   1.235   1.398   4.493
 3496TIP3   OH210451   2.192   3.797   1.136
 3496TIP3    H110452   2.138   3.726   1.171
 3496TIP3    H210453   2.129   3.859   1.099
 3497TIP3   OH210454   6.274   1.946   0.909
 3497TIP3    H110455   6.365   1.970   0.892
 3497TIP3    H210456   6.262   1.963   1.003
 3498TIP3   OH210457   1.032   5.999   4.242
 3498TIP3    H110458   0.981   5.998   4.323
 3498TIP3    H210459   0.994   5.930   4.188
 3499TIP3   OH210460   7.131   4.312   3.408
 3499TIP3    H110461   7.164   4.323   3.319
 3499TIP3    H210462   7.207   4.326   3.464
 3500TIP3   OH210463   1.353   3.835   5.350
 3500TIP3    H110464   1.347   3.801   5.261
 3500TIP3    H210465   1.323   3.763   5.405
 3501TIP3   OH210466   0.907   0.485   3.419
 3501TIP3    H110467   0.926   0.403   3.465
 3501TIP3    H210468   0.991   0.532   3.418
 3502TIP3   OH210469   4.738   1.462   1.774
 3502TIP3    H110470   4.753   1.547   1.814
 3502TIP3    H210471   4.773   1.472   1.685
 3503TIP3   OH210472  -0.002   4.351   5.619
 3503TIP3    H110473   0.069   4.316   5.672
 3503TIP3    H210474  -0.023   4.435   5.660
 3504TIP3   OH210475   6.857   6.503   4.566
 3504TIP3    H110476   6.905   6.511   4.483
 3504TIP3    H210477   6.843   6.409   4.576
 3505TIP3   OH210478   3.872   5.144   3.285
 3505TIP3    H110479   3.805   5.076   3.275
 3505TIP3    H210480   3.837   5.201   3.355
 3506TIP3   OH210481   7.149   5.146   2.217
 3506TIP3    H110482   7.129   5.068   2.268
 3506TIP3    H210483   7.099   5.135   2.136
 3507TIP3   OH210484   5.275   3.361   0.089
 3507TIP3    H110485   5.294   3.454   0.098
 3507TIP3    H210486   5.344   3.328   0.031
 3508TIP3   OH210487   3.583   5.602   2.327
 3508TIP3    H110488   3.530   5.648   2.262
 3508TIP3    H210489   3.524   5.539   2.366
 3509TIP3   OH210490   6.302   1.978   3.450
 3509TIP3    H110491   6.361   1.964   3.375
 3509TIP3    H210492   6.235   2.037   3.417
 3510TIP3   OH210493   0.986   3.871   3.074
 3510TIP3    H110494   1.001   3.786   3.115
 3510TIP3    H210495   0.900   3.898   3.105
 3511TIP3   OH210496   7.041   6.243   4.615
 3511TIP3    H110497   7.092   6.271   4.691
 3511TIP3    H210498   6.963   6.202   4.653
 3512TIP3   OH210499   6.845   2.866   5.764
 3512TIP3    H110500   6.938   2.851   5.745
 3512TIP3    H210501   6.808   2.779   5.776
 3513TIP3   OH210502   2.178   6.029   5.493
 3513TIP3    H110503   2.112   6.044   5.426
 3513TIP3    H210504   2.261   6.053   5.452
 3514TIP3   OH210505   0.366   1.884   5.056
 3514TIP3    H110506   0.378   1.972   5.020
 3514TIP3    H210507   0.274   1.863   5.039
 3515TIP3   OH210508   2.792   1.528   5.737
 3515TIP3    H110509   2.735   1.548   5.811
 3515TIP3    H210510   2.743   1.462   5.687
 3516TIP3   OH210511   6.084   5.440   3.727
 3516TIP3    H110512   6.099   5.454   3.820
 3516TIP3    H210513   6.009   5.381   3.722
 3517TIP3   OH210514   0.677   6.632   5.711
 3517TIP3    H110515   0.614   6.575   5.668
 3517TIP3    H210516   0.731   6.573   5.764
 3518TIP3   OH210517   5.046   5.919   5.759
 3518TIP3    H110518   5.045   5.860   5.835
 3518TIP3    H210519   5.018   5.864   5.686
 3519TIP3   OH210520   1.331   3.858   1.769
 3519TIP3    H110521   1.373   3.789   1.819
 3519TIP3    H210522   1.381   3.863   1.687
 3520TIP3   OH210523   0.848   0.950   2.221
 3520TIP3    H110524   0.920   0.918   2.167
 3520TIP3    H210525   0.878   1.036   2.251
 3521TIP3   OH210526   5.982   0.562   3.486
 3521TIP3    H110527   5.952   0.484   3.438
 3521TIP3    H210528   6.065   0.535   3.525
 3522TIP3   OH210529   0.522   6.185   2.073
 3522TIP3    H110530   0.497   6.230   1.991
 3522TIP3    H210531   0.581   6.116   2.045
 3523TIP3   OH210532   1.706   3.913   1.888
 3523TIP3    H110533   1.777   3.905   1.824
 3523TIP3    H210534   1.708   3.830   1.936
 3524TIP3   OH210535   3.923   0.906   3.136
 3524TIP3    H110536   4.006   0.869   3.166
 3524TIP3    H210537   3.889   0.951   3.213
 3525TIP3   OH210538   1.534   1.432   4.719
 3525TIP3    H110539   1.600   1.384   4.768
 3525TIP3    H210540   1.575   1.516   4.699
 3526TIP3   OH210541   5.667   4.790   4.159
 3526TIP3    H110542   5.660   4.724   4.228
 3526TIP3    H210543   5.757   4.781   4.126
 3527TIP3   OH210544   5.629   3.042   3.363
 3527TIP3    H110545   5.638   3.080   3.275
 3527TIP3    H210546   5.539   3.009   3.365
 3528TIP3   OH210547   2.642   0.007   1.531
 3528TIP3    H110548   2.628   0.101   1.538
 3528TIP3    H210549   2.703  -0.013   1.603
 3529TIP3   OH210550   5.264   6.381   1.847
 3529TIP3    H110551   5.296   6.380   1.937
 3529TIP3    H210552   5.182   6.331   1.850
 3530TIP3   OH210553   3.149   6.662   2.488
 3530TIP3    H110554   3.056   6.673   2.507
 3530TIP3    H210555   3.193   6.684   2.570
 3531TIP3   OH210556   0.647   3.644   3.983
 3531TIP3    H110557   0.649   3.740   3.989
 3531TIP3    H210558   0.730   3.621   3.942
 3532TIP3   OH210559   2.723   3.928   2.209
 3532TIP3    H110560   2.817   3.923   2.229
 3532TIP3    H210561   2.701   3.840   2.179
 3533TIP3   OH210562   4.991   5.461   1.697
 3533TIP3    H110563   4.975   5.398   1.627
 3533TIP3    H210564   4.958   5.544   1.662
 3534TIP3   OH210565   6.836   6.234   5.434
 3534TIP3    H110566   6.742   6.248   5.429
 3534TIP3    H210567   6.856   6.238   5.528
 3535TIP3   OH210568   3.058   4.872   5.331
 3535TIP3    H110569   3.118   4.815   5.378
 3535TIP3    H210570   3.038   4.825   5.251
 3536TIP3   OH210571   4.005   4.254   5.048
 3536TIP3    H110572   4.002   4.213   4.962
 3536TIP3    H210573   3.963   4.339   5.037
 3537TIP3   OH210574   4.851   3.947   0.144
 3537TIP3    H110575   4.890   3.860   0.152
 3537TIP3    H210576   4.862   3.987   0.231
 3538TIP3   OH210577   2.241   5.983   2.870
 3538TIP3    H110578   2.151   5.990   2.902
 3538TIP3    H210579   2.274   6.073   2.871
 3539TIP3   OH210580   1.552   5.692   1.927
 3539TIP3    H110581   1.592   5.762   1.979
 3539TIP3    H210582   1.505   5.639   1.991
 3540TIP3   OH210583   0.146   1.118   1.832
 3540TIP3    H110584   0.073   1.121   1.771
 3540TIP3    H210585   0.181   1.029   1.823
 3541TIP3   OH210586   4.204   0.296   4.229
 3541TIP3    H110587   4.125   0.318   4.279
 3541TIP3    H210588   4.218   0.372   4.172
 3542TIP3   OH210589   0.717   0.139   0.318
 3542TIP3    H110590   0.772   0.147   0.396
 3542TIP3    H210591   0.744   0.211   0.262
 3543TIP3   OH210592   0.820   6.414   3.706
 3543TIP3    H110593   0.806   6.459   3.789
 3543TIP3    H210594   0.903   6.447   3.674
 3544TIP3   OH210595   4.436   4.953   1.096
 3544TIP3    H110596   4.519   4.997   1.080
 3544TIP3    H210597   4.387   5.013   1.152
 3545TIP3   OH210598   4.681   0.914   0.984
 3545TIP3    H110599   4.731   0.944   0.909
 3545TIP3    H210600   4.696   0.981   1.051
 3546TIP3   OH210601   6.749   0.342   3.260
 3546TIP3    H110602   6.671   0.295   3.231
 3546TIP3    H210603   6.716   0.418   3.308
 3547TIP3   OH210604   5.362   4.061   3.784
 3547TIP3    H110605   5.332   4.012   3.707
 3547TIP3    H210606   5.292   4.125   3.800
 3548TIP3   OH210607   4.459   3.653   5.834
 3548TIP3    H110608   4.483   3.695   5.916
 3548TIP3    H210609   4.377   3.608   5.853
 3549TIP3   OH210610   4.343   3.837   2.481
 3549TIP3    H110611   4.402   3.910   2.500
 3549TIP3    H210612   4.401   3.764   2.458
 3550TIP3   OH210613   0.070   4.603   3.288
 3550TIP3    H110614   0.073   4.577   3.196
 3550TIP3    H210615  -0.017   4.641   3.299
 3551TIP3   OH210616   3.697   3.362   1.655
 3551TIP3    H110617   3.783   3.364   1.697
 3551TIP3    H210618   3.650   3.437   1.691
 3552TIP3   OH210619   0.087   5.197   0.726
 3552TIP3    H110620   0.090   5.279   0.677
 3552TIP3    H210621   0.166   5.197   0.779
 3553TIP3   OH210622   6.497   2.122   2.492
 3553TIP3    H110623   6.477   2.157   2.406
 3553TIP3    H210624   6.535   2.195   2.540
 3554TIP3   OH210625   2.158  -0.053   5.025
 3554TIP3    H110626   2.105  -0.008   4.959
 3554TIP3    H210627   2.178   0.015   5.090
 3555TIP3   OH210628   7.245   0.326   0.420
 3555TIP3    H110629   7.220   0.328   0.328
 3555TIP3    H210630   7.221   0.239   0.450
 3556TIP3   OH210631   4.651   5.294   4.913
 3556TIP3    H110632   4.607   5.316   4.995
 3556TIP3    H210633   4.581   5.268   4.854
 3557TIP3   OH210634   5.272   3.680   2.253
 3557TIP3    H110635   5.288   3.762   2.207
 3557TIP3    H210636   5.218   3.705   2.329
 3558TIP3   OH210637   6.856   6.208   2.927
 3558TIP3    H110638   6.770   6.181   2.894
 3558TIP3    H210639   6.889   6.269   2.861
 3559TIP3   OH210640   6.365   1.806   0.433
 3559TIP3    H110641   6.436   1.862   0.463
 3559TIP3    H210642   6.323   1.856   0.363
 3560TIP3   OH210643   3.821   6.469   2.890
 3560TIP3    H110644   3.855   6.437   2.973
 3560TIP3    H210645   3.857   6.558   2.883
 3561TIP3   OH210646   1.456   3.196   0.608
 3561TIP3    H110647   1.477   3.106   0.633
 3561TIP3    H210648   1.507   3.211   0.528
 3562TIP3   OH210649   0.230   5.042   5.805
 3562TIP3    H110650   0.322   5.064   5.820
 3562TIP3    H210651   0.194   5.025   5.892
 3563TIP3   OH210652   3.304   1.872   0.796
 3563TIP3    H110653   3.282   1.827   0.877
 3563TIP3    H210654   3.390   1.911   0.812
 3564TIP3   OH210655   2.324   2.468   4.237
 3564TIP3    H110656   2.414   2.498   4.250
 3564TIP3    H210657   2.303   2.492   4.147
 3565TIP3   OH210658   4.346   3.909   0.085
 3565TIP3    H110659   4.296   3.895   0.005
 3565TIP3    H210660   4.359   4.004   0.089
 3566TIP3   OH210661   6.065   0.115   1.234
 3566TIP3    H110662   6.057   0.210   1.225
 3566TIP3    H210663   6.040   0.098   1.325
 3567TIP3   OH210664   1.561   1.910   0.938
 3567TIP3    H110665   1.513   1.889   0.858
 3567TIP3    H210666   1.526   1.995   0.966
 3568TIP3   OH210667   4.166   5.767   3.552
 3568TIP3    H110668   4.109   5.801   3.483
 3568TIP3    H210669   4.219   5.700   3.508
 3569TIP3   OH210670   6.472   3.919   5.853
 3569TIP3    H110671   6.530   3.843   5.846
 3569TIP3    H210672   6.524   3.992   5.819
 3570TIP3   OH210673   4.277   2.215   1.629
 3570TIP3    H110674   4.340   2.163   1.679
 3570TIP3    H210675   4.331   2.271   1.573
 3571TIP3   OH210676   5.223   6.440   4.615
 3571TIP3    H110677   5.155   6.378   4.638
 3571TIP3    H210678   5.284   6.389   4.561
 3572TIP3   OH210679   4.100   5.330   1.503
 3572TIP3    H110680   4.176   5.378   1.471
 3572TIP3    H210681   4.131   5.240   1.514
 3573TIP3   OH210682   2.468   4.451   3.328
 3573TIP3    H110683   2.430   4.409   3.251
 3573TIP3    H210684   2.408   4.430   3.400
 3574TIP3   OH210685   4.699   3.834   4.601
 3574TIP3    H110686   4.682   3.845   4.695
 3574TIP3    H210687   4.615   3.808   4.565
 3575TIP3   OH210688   3.686   4.588   2.432
 3575TIP3    H110689   3.710   4.660   2.373
 3575TIP3    H210690   3.600   4.559   2.402
 3576TIP3   OH210691   3.836   2.017   4.713
 3576TIP3    H110692   3.782   1.960   4.767
 3576TIP3    H210693   3.926   1.985   4.726
 3577TIP3   OH210694   2.371   4.992   4.018
 3577TIP3    H110695   2.414   5.065   3.973
 3577TIP3    H210696   2.352   5.025   4.106
 3578TIP3   OH210697   0.842   4.592   4.905
 3578TIP3    H110698   0.790   4.543   4.969
 3578TIP3    H210699   0.920   4.619   4.954
 3579TIP3   OH210700   1.983   3.792   5.330
 3579TIP3    H110701   2.042   3.790   5.255
 3579TIP3    H210702   2.002   3.711   5.378
 3580TIP3   OH210703   2.900   4.379   3.275
 3580TIP3    H110704   2.862   4.420   3.352
 3580TIP3    H210705   2.825   4.337   3.231
 3581TIP3   OH210706   4.199   6.684   4.501
 3581TIP3    H110707   4.282   6.729   4.483
 3581TIP3    H210708   4.144   6.707   4.426
 3582TIP3   OH210709   6.419   1.324   0.366
 3582TIP3    H110710   6.348   1.350   0.425
 3582TIP3    H210711   6.378   1.269   0.300
 3583TIP3   OH210712   4.466   4.039   4.386
 3583TIP3    H110713   4.529   4.032   4.315
 3583TIP3    H210714   4.412   3.960   4.378
 3584TIP3   OH210715   3.037   5.304   3.904
 3584TIP3    H110716   3.011   5.300   3.996
 3584TIP3    H210717   3.121   5.258   3.901
 3585TIP3   OH210718   1.582   3.433   4.925
 3585TIP3    H110719   1.663   3.442   4.875
 3585TIP3    H210720   1.560   3.341   4.919
 3586TIP3   OH210721   5.312   2.635   4.110
 3586TIP3    H110722   5.236   2.626   4.167
 3586TIP3    H210723   5.387   2.621   4.167
 3587TIP3   OH210724   6.854   0.574   2.392
 3587TIP3    H110725   6.897   0.545   2.472
 3587TIP3    H210726   6.764   0.595   2.419
 3588TIP3   OH210727   0.949   6.691   0.351
 3588TIP3    H110728   0.941   6.783   0.376
 3588TIP3    H210729   1.026   6.660   0.398
 3589TIP3   OH210730   0.735   1.078   1.057
 3589TIP3    H110731   0.754   1.159   1.104
 3589TIP3    H210732   0.666   1.101   0.995
 3590TIP3   OH210733   0.226   1.507   1.416
 3590TIP3    H110734   0.200   1.599   1.407
 3590TIP3    H210735   0.225   1.473   1.327
 3591TIP3   OH210736   6.181   2.744   4.341
 3591TIP3    H110737   6.111   2.704   4.393
 3591TIP3    H210738   6.261   2.698   4.369
 3592TIP3   OH210739   0.265   3.842   5.221
 3592TIP3    H110740   0.233   3.783   5.153
 3592TIP3    H210741   0.345   3.801   5.253
 3593TIP3   OH210742   4.379   3.583   3.508
 3593TIP3    H110743   4.294   3.591   3.464
 3593TIP3    H210744   4.418   3.505   3.469
 3594TIP3   OH210745   6.151   6.451   4.850
 3594TIP3    H110746   6.194   6.416   4.772
 3594TIP3    H210747   6.070   6.490   4.817
 3595TIP3   OH210748   6.051   4.514   1.965
 3595TIP3    H110749   5.963   4.548   1.984
 3595TIP3    H210750   6.109   4.588   1.984
 3596TIP3   OH210751   1.068   3.044   0.114
 3596TIP3    H110752   1.000   3.019   0.052
 3596TIP3    H210753   1.021   3.064   0.195
 3597TIP3   OH210754   3.643   1.899   4.059
 3597TIP3    H110755   3.684   1.872   3.977
 3597TIP3    H210756   3.711   1.886   4.125
 3598TIP3   OH210757   5.586   4.640   0.374
 3598TIP3    H110758   5.559   4.626   0.464
 3598TIP3    H210759   5.555   4.729   0.353
 3599TIP3   OH210760   0.046   2.156   4.006
 3599TIP3    H110761   0.141   2.163   4.001
 3599TIP3    H210762   0.029   2.125   4.095
 3600TIP3   OH210763   2.798   0.673   5.246
 3600TIP3    H110764   2.835   0.649   5.331
 3600TIP3    H210765   2.835   0.610   5.184
 3601TIP3   OH210766   1.633   4.753   2.545
 3601TIP3    H110767   1.619   4.706   2.628
 3601TIP3    H210768   1.662   4.840   2.572
 3602TIP3   OH210769   1.503   0.060   0.754
 3602TIP3    H110770   1.493  -0.035   0.756
 3602TIP3    H210771   1.488   0.087   0.845
 3603TIP3   OH210772   5.114   6.372   4.983
 3603TIP3    H110773   5.086   6.364   4.892
 3603TIP3    H210774   5.143   6.462   4.992
 3604TIP3   OH210775   3.735   2.831   2.379
 3604TIP3    H110776   3.651   2.820   2.336
 3604TIP3    H210777   3.733   2.772   2.454
 3605TIP3   OH210778   2.554   1.460   3.202
 3605TIP3    H110779   2.560   1.488   3.294
 3605TIP3    H210780   2.490   1.519   3.163
 3606TIP3   OH210781   1.068   2.295   4.985
 3606TIP3    H110782   0.984   2.335   4.965
 3606TIP3    H210783   1.118   2.363   5.029
 3607TIP3   OH210784   3.416   5.831   4.392
 3607TIP3    H110785   3.494   5.858   4.442
 3607TIP3    H210786   3.391   5.908   4.342
 3608TIP3   OH210787   6.143   5.145   0.340
 3608TIP3    H110788   6.079   5.116   0.405
 3608TIP3    H210789   6.168   5.065   0.294
 3609TIP3   OH210790   4.792   1.919   1.159
 3609TIP3    H110791   4.811   1.835   1.117
 3609TIP3    H210792   4.877   1.947   1.194
 3610TIP3   OH210793   7.058   2.795   2.970
 3610TIP3    H110794   7.047   2.739   2.894
 3610TIP3    H210795   7.102   2.873   2.936
 3611TIP3   OH210796   0.298   4.020   3.111
 3611TIP3    H110797   0.220   3.972   3.084
 3611TIP3    H210798   0.293   4.102   3.061
 3612TIP3   OH210799   5.500   2.284   3.194
 3612TIP3    H110800   5.424   2.242   3.234
 3612TIP3    H210801   5.568   2.217   3.194
 3613TIP3   OH210802   5.691   5.225   4.075
 3613TIP3    H110803   5.689   5.178   3.991
 3613TIP3    H210804   5.642   5.169   4.135
 3614TIP3   OH210805   1.971   2.488   4.546
 3614TIP3    H110806   2.010   2.572   4.521
 3614TIP3    H210807   1.932   2.504   4.632
 3615TIP3   OH210808   0.150   4.671   1.039
 3615TIP3    H110809   0.147   4.746   1.098
 3615TIP3    H210810   0.131   4.596   1.095
 3616TIP3   OH210811   0.751   3.160   2.501
 3616TIP3    H110812   0.732   3.232   2.561
 3616TIP3    H210813   0.686   3.093   2.522
 3617TIP3   OH210814   5.111   3.272   3.520
 3617TIP3    H110815   5.143   3.285   3.609
 3617TIP3    H210816   5.033   3.218   3.530
 3618TIP3   OH210817   3.148   3.089   1.906
 3618TIP3    H110818   3.175   3.180   1.903
 3618TIP3    H210819   3.053   3.092   1.912
 3619TIP3   OH210820   7.134   6.160   1.379
 3619TIP3    H110821   7.228   6.178   1.377
 3619TIP3    H210822   7.119   6.104   1.303
 3620TIP3   OH210823   1.770   5.540   2.732
 3620TIP3    H110824   1.789   5.633   2.748
 3620TIP3    H210825   1.681   5.540   2.695
 3621TIP3   OH210826   4.457   0.892   1.724
 3621TIP3    H110827   4.519   0.911   1.654
 3621TIP3    H210828   4.510   0.847   1.791
 3622TIP3   OH210829   0.690   0.711   3.432
 3622TIP3    H110830   0.730   0.625   3.422
 3622TIP3    H210831   0.738   0.751   3.504
 3623TIP3   OH210832   3.546   3.532   2.666
 3623TIP3    H110833   3.554   3.554   2.573
 3623TIP3    H210834   3.475   3.469   2.670
 3624TIP3   OH210835   2.209   6.449   1.338
 3624TIP3    H110836   2.268   6.418   1.407
 3624TIP3    H210837   2.184   6.537   1.366
 3625TIP3   OH210838   6.092   0.445   5.143
 3625TIP3    H110839   6.130   0.528   5.115
 3625TIP3    H210840   6.020   0.470   5.201
 3626TIP3   OH210841   2.096   0.628   5.662
 3626TIP3    H110842   2.180   0.591   5.690
 3626TIP3    H210843   2.083   0.704   5.718
 3627TIP3   OH210844   3.437   2.068   5.379
 3627TIP3    H110845   3.377   2.143   5.373
 3627TIP3    H210846   3.445   2.052   5.473
 3628TIP3   OH210847   2.010   0.399   1.083
 3628TIP3    H110848   2.041   0.388   0.994
 3628TIP3    H210849   2.059   0.474   1.117
 3629TIP3   OH210850   3.545   0.419   3.677
 3629TIP3    H110851   3.586   0.416   3.591
 3629TIP3    H210852   3.600   0.363   3.732
 3630TIP3   OH210853   2.512   0.809   2.836
 3630TIP3    H110854   2.470   0.883   2.793
 3630TIP3    H210855   2.440   0.757   2.871
 3631TIP3   OH210856   6.314   2.932   3.980
 3631TIP3    H110857   6.253   2.974   4.040
 3631TIP3    H210858   6.367   3.003   3.944
 3632TIP3   OH210859   5.471   5.718   4.233
 3632TIP3    H110860   5.563   5.695   4.225
 3632TIP3    H210861   5.427   5.634   4.250
 3633TIP3   OH210862   4.295   4.161   5.714
 3633TIP3    H110863   4.216   4.113   5.694
 3633TIP3    H210864   4.283   4.190   5.805
 3634TIP3   OH210865   2.022   5.482   2.664
 3634TIP3    H110866   2.036   5.574   2.639
 3634TIP3    H210867   1.927   5.474   2.671
 3635TIP3   OH210868   2.643   1.223   5.403
 3635TIP3    H110869   2.708   1.203   5.470
 3635TIP3    H210870   2.576   1.156   5.414
 3636TIP3   OH210871   4.421   2.859   1.727
 3636TIP3    H110872   4.498   2.820   1.768
 3636TIP3    H210873   4.386   2.791   1.669
 3637TIP3   OH210874   6.660   4.988   4.885
 3637TIP3    H110875   6.592   4.920   4.884
 3637TIP3    H210876   6.733   4.948   4.932
 3638TIP3   OH210877   4.463   2.173   5.678
 3638TIP3    H110878   4.410   2.130   5.745
 3638TIP3    H210879   4.450   2.121   5.599
 3639TIP3   OH210880   2.918   4.342   5.637
 3639TIP3    H110881   2.841   4.329   5.583
 3639TIP3    H210882   2.984   4.378   5.578
 3640TIP3   OH210883   1.062   2.456   2.132
 3640TIP3    H110884   1.060   2.542   2.174
 3640TIP3    H210885   1.037   2.472   2.041
 3641TIP3   OH210886   0.322   4.175   1.659
 3641TIP3    H110887   0.394   4.159   1.598
 3641TIP3    H210888   0.279   4.090   1.669
 3642TIP3   OH210889   0.011   2.107   0.833
 3642TIP3    H110890  -0.050   2.139   0.899
 3642TIP3    H210891   0.063   2.184   0.809
 3643TIP3   OH210892   2.967   2.786   2.315
 3643TIP3    H110893   2.992   2.874   2.345
 3643TIP3    H210894   2.945   2.797   2.223
 3644TIP3   OH210895   1.693   4.318   4.448
 3644TIP3    H110896   1.711   4.410   4.428
 3644TIP3    H210897   1.774   4.273   4.427
 3645TIP3   OH210898   5.156   0.702   5.254
 3645TIP3    H110899   5.084   0.735   5.200
 3645TIP3    H210900   5.151   0.754   5.335
 3646TIP3   OH210901   6.518   3.548   3.038
 3646TIP3    H110902   6.457   3.537   3.111
 3646TIP3    H210903   6.593   3.493   3.061
 3647TIP3   OH210904   5.418   0.973   1.137
 3647TIP3    H110905   5.431   1.066   1.152
 3647TIP3    H210906   5.364   0.968   1.058
 3648TIP3   OH210907   1.282   4.223   1.686
 3648TIP3    H110908   1.194   4.238   1.653
 3648TIP3    H210909   1.340   4.257   1.618
 3649TIP3   OH210910   6.432   0.226   3.557
 3649TIP3    H110911   6.389   0.277   3.626
 3649TIP3    H210912   6.402   0.267   3.475
 3650TIP3   OH210913   4.757   1.632   4.249
 3650TIP3    H110914   4.822   1.575   4.207
 3650TIP3    H210915   4.797   1.656   4.333
 3651TIP3   OH210916   2.072   1.966   0.292
 3651TIP3    H110917   2.051   1.909   0.217
 3651TIP3    H210918   2.047   1.915   0.369
 3652TIP3   OH210919   5.399   6.767   3.169
 3652TIP3    H110920   5.483   6.755   3.125
 3652TIP3    H210921   5.336   6.776   3.097
 3653TIP3   OH210922   2.223   3.211   5.615
 3653TIP3    H110923   2.168   3.170   5.548
 3653TIP3    H210924   2.295   3.150   5.627
 3654TIP3   OH210925   1.965   4.663   1.186
 3654TIP3    H110926   1.948   4.571   1.204
 3654TIP3    H210927   1.963   4.670   1.090
 3655TIP3   OH210928   3.212   5.935   1.710
 3655TIP3    H110929   3.167   5.851   1.718
 3655TIP3    H210930   3.183   5.985   1.786
 3656TIP3   OH210931   3.300   1.422   5.123
 3656TIP3    H110932   3.348   1.428   5.041
 3656TIP3    H210933   3.308   1.509   5.162
 3657TIP3   OH210934   1.053   4.449   0.262
 3657TIP3    H110935   1.081   4.403   0.183
 3657TIP3    H210936   1.082   4.393   0.334
 3658TIP3   OH210937   5.845   0.426   0.714
 3658TIP3    H110938   5.864   0.349   0.661
 3658TIP3    H210939   5.789   0.394   0.784
 3659TIP3   OH210940   4.390   5.126   1.302
 3659TIP3    H110941   4.388   5.104   1.395
 3659TIP3    H210942   4.299   5.142   1.279
 3660TIP3   OH210943   0.950   2.279   0.156
 3660TIP3    H110944   0.978   2.295   0.246
 3660TIP3    H210945   0.864   2.321   0.150
 3661TIP3   OH210946   1.050   5.405   4.375
 3661TIP3    H110947   1.012   5.382   4.460
 3661TIP3    H210948   0.988   5.370   4.311
 3662TIP3   OH210949   2.121   4.923   0.841
 3662TIP3    H110950   2.206   4.925   0.797
 3662TIP3    H210951   2.063   4.974   0.783
 3663TIP3   OH210952   6.348   2.450   0.348
 3663TIP3    H110953   6.365   2.379   0.286
 3663TIP3    H210954   6.254   2.468   0.338
 3664TIP3   OH210955   4.189   3.197   3.981
 3664TIP3    H110956   4.103   3.229   4.008
 3664TIP3    H210957   4.174   3.151   3.899
 3665TIP3   OH210958   0.767   3.729   4.411
 3665TIP3    H110959   0.709   3.654   4.419
 3665TIP3    H210960   0.713   3.798   4.373
 3666TIP3   OH210961   0.640   4.114   0.292
 3666TIP3    H110962   0.689   4.172   0.351
 3666TIP3    H210963   0.551   4.149   0.293
 3667TIP3   OH210964   0.246   0.517   4.640
 3667TIP3    H110965   0.217   0.498   4.551
 3667TIP3    H210966   0.319   0.578   4.629
 3668TIP3   OH210967   1.239   2.901   5.793
 3668TIP3    H110968   1.319   2.863   5.830
 3668TIP3    H210969   1.269   2.982   5.750
 3669TIP3   OH210970   1.761   5.139   4.048
 3669TIP3    H110971   1.738   5.149   4.141
 3669TIP3    H210972   1.850   5.105   4.048
 3670TIP3   OH210973   7.193   2.317   4.960
 3670TIP3    H110974   7.211   2.265   5.039
 3670TIP3    H210975   7.178   2.252   4.892
 3671TIP3   OH210976   1.891   5.784   0.635
 3671TIP3    H110977   1.800   5.770   0.660
 3671TIP3    H210978   1.942   5.751   0.709
 3672TIP3   OH210979   6.713   2.158   4.739
 3672TIP3    H110980   6.677   2.176   4.652
 3672TIP3    H210981   6.789   2.102   4.722
 3673TIP3   OH210982   0.256   4.847   3.587
 3673TIP3    H110983   0.315   4.901   3.535
 3673TIP3    H210984   0.302   4.763   3.598
 3674TIP3   OH210985   7.174   0.967   3.518
 3674TIP3    H110986   7.096   1.023   3.525
 3674TIP3    H210987   7.140   0.878   3.530
 3675TIP3   OH210988   3.715   6.276   1.178
 3675TIP3    H110989   3.756   6.238   1.256
 3675TIP3    H210990   3.769   6.245   1.105
 3676TIP3   OH210991   2.086   4.698   1.902
 3676TIP3    H110992   2.172   4.733   1.928
 3676TIP3    H210993   2.023   4.753   1.947
 3677TIP3   OH210994   2.926   6.058   2.817
 3677TIP3    H110995   2.929   6.029   2.908
 3677TIP3    H210996   2.967   5.986   2.768
 3678TIP3   OH210997   6.090   0.088   3.400
 3678TIP3    H110998   6.142   0.024   3.448
 3678TIP3    H210999   6.005   0.088   3.444
 3679TIP3   OH211000   6.561   2.133   1.243
 3679TIP3    H111001   6.481   2.091   1.213
 3679TIP3    H211002   6.624   2.062   1.253
 3680TIP3   OH211003   1.993   2.304   1.754
 3680TIP3    H111004   2.018   2.241   1.686
 3680TIP3    H211005   1.899   2.291   1.765
 3681TIP3   OH211006   4.376   2.986   1.025
 3681TIP3    H111007   4.358   3.038   0.947
 3681TIP3    H211008   4.329   2.904   1.010
 3682TIP3   OH211009   4.655   5.914   5.030
 3682TIP3    H111010   4.672   5.963   4.950
 3682TIP3    H211011   4.707   5.958   5.097
 3683TIP3   OH211012   7.048   1.839   2.116
 3683TIP3    H111013   7.098   1.901   2.170
 3683TIP3    H211014   7.082   1.753   2.141
 3684TIP3   OH211015   7.123   5.192   0.264
 3684TIP3    H111016   7.139   5.174   0.356
 3684TIP3    H211017   7.178   5.128   0.217
 3685TIP3   OH211018   0.653   3.032   1.619
 3685TIP3    H111019   0.661   3.077   1.535
 3685TIP3    H211020   0.606   2.952   1.599
 3686TIP3   OH211021   7.207   3.601   2.959
 3686TIP3    H111022   7.255   3.539   2.904
 3686TIP3    H211023   7.124   3.614   2.914
 3687TIP3   OH211024   6.854   0.553   2.887
 3687TIP3    H111025   6.771   0.579   2.926
 3687TIP3    H211026   6.912   0.538   2.961
 3688TIP3   OH211027   3.090   3.400   0.529
 3688TIP3    H111028   3.043   3.341   0.588
 3688TIP3    H211029   3.120   3.344   0.457
 3689TIP3   OH211030   1.313   0.981   1.460
 3689TIP3    H111031   1.257   1.019   1.528
 3689TIP3    H211032   1.363   0.913   1.506
 3690TIP3   OH211033   0.215   3.155   1.394
 3690TIP3    H111034   0.170   3.126   1.316
 3690TIP3    H211035   0.304   3.178   1.364
 3691TIP3   OH211036   5.456   2.195   4.711
 3691TIP3    H111037   5.407   2.172   4.789
 3691TIP3    H211038   5.516   2.264   4.739
 3692TIP3   OH211039   2.625   3.312   4.888
 3692TIP3    H111040   2.656   3.337   4.801
 3692TIP3    H211041   2.535   3.282   4.873
 3693TIP3   OH211042   7.185   4.151   4.731
 3693TIP3    H111043   7.208   4.078   4.788
 3693TIP3    H211044   7.142   4.214   4.789
 3694TIP3   OH211045   4.635   2.417   0.698
 3694TIP3    H111046   4.575   2.476   0.652
 3694TIP3    H211047   4.592   2.397   0.781
 3695TIP3   OH211048   4.044   0.585   4.715
 3695TIP3    H111049   4.133   0.615   4.732
 3695TIP3    H211050   3.992   0.665   4.715
 3696TIP3   OH211051   4.329   1.001   3.887
 3696TIP3    H111052   4.326   1.070   3.953
 3696TIP3    H211053   4.317   1.047   3.803
 3697TIP3   OH211054   2.385   6.270   2.469
 3697TIP3    H111055   2.342   6.290   2.386
 3697TIP3    H211056   2.320   6.294   2.535
 3698TIP3   OH211057   0.463   4.688   4.755
 3698TIP3    H111058   0.450   4.757   4.819
 3698TIP3    H211059   0.451   4.607   4.804
 3699TIP3   OH211060   5.952   5.404   4.711
 3699TIP3    H111061   6.021   5.431   4.649
 3699TIP3    H211062   5.874   5.396   4.657
 3700TIP3   OH211063   6.869   3.108   1.119
 3700TIP3    H111064   6.943   3.168   1.132
 3700TIP3    H211065   6.853   3.072   1.206
 3701TIP3   OH211066   0.439   5.818   2.026
 3701TIP3    H111067   0.446   5.723   2.041
 3701TIP3    H211068   0.383   5.826   1.949
 3702TIP3   OH211069   6.698   5.275   2.059
 3702TIP3    H111070   6.713   5.354   2.007
 3702TIP3    H211071   6.640   5.221   2.005
 3703TIP3   OH211072   6.598   2.248   0.637
 3703TIP3    H111073   6.641   2.310   0.579
 3703TIP3    H211074   6.510   2.284   0.651
 3704TIP3   OH211075   2.608   2.238   4.134
 3704TIP3    H111076   2.520   2.202   4.127
 3704TIP3    H211077   2.626   2.278   4.049
 3705TIP3   OH211078   3.613   5.403   3.271
 3705TIP3    H111079   3.685   5.409   3.333
 3705TIP3    H211080   3.538   5.439   3.317
 3706TIP3   OH211081   2.264   2.486   0.672
 3706TIP3    H111082   2.282   2.575   0.640
 3706TIP3    H211083   2.227   2.440   0.597
 3707TIP3   OH211084   3.908   2.235   0.257
 3707TIP3    H111085   3.862   2.279   0.329
 3707TIP3    H211086   3.843   2.176   0.220
 3708TIP3   OH211087   1.964   5.335   1.173
 3708TIP3    H111088   2.010   5.390   1.110
 3708TIP3    H211089   1.954   5.390   1.250
 3709TIP3   OH211090  -0.014   4.428   4.495
 3709TIP3    H111091  -0.057   4.362   4.440
 3709TIP3    H211092   0.070   4.444   4.451
 3710TIP3   OH211093   2.024   1.341   0.741
 3710TIP3    H111094   2.073   1.417   0.713
 3710TIP3    H211095   1.995   1.362   0.830
 3711TIP3   OH211096   5.923   5.929   4.572
 3711TIP3    H111097   5.953   5.891   4.655
 3711TIP3    H211098   5.832   5.954   4.588
 3712TIP3   OH211099   4.482   4.989   5.509
 3712TIP3    H111100   4.461   5.062   5.451
 3712TIP3    H211101   4.571   5.006   5.538
 3713TIP3   OH211102   5.619   4.012   3.125
 3713TIP3    H111103   5.685   3.986   3.060
 3713TIP3    H211104   5.666   4.011   3.208
 3714TIP3   OH211105   5.280   2.866   2.355
 3714TIP3    H111106   5.336   2.920   2.410
 3714TIP3    H211107   5.253   2.924   2.284
 3715TIP3   OH211108   4.807   2.791   2.444
 3715TIP3    H111109   4.720   2.773   2.407
 3715TIP3    H211110   4.792   2.797   2.538
 3716TIP3   OH211111   3.513   3.656   2.213
 3716TIP3    H111112   3.508   3.565   2.184
 3716TIP3    H211113   3.605   3.678   2.208
 3717TIP3   OH211114   1.079   3.357   4.025
 3717TIP3    H111115   1.171   3.366   3.998
 3717TIP3    H211116   1.084   3.322   4.114
 3718TIP3   OH211117   0.852   4.140   2.965
 3718TIP3    H111118   0.895   4.115   3.047
 3718TIP3    H211119   0.771   4.184   2.992
 3719TIP3   OH211120   4.400   4.340   2.669
 3719TIP3    H111121   4.484   4.385   2.671
 3719TIP3    H211122   4.413   4.261   2.721
 3720TIP3   OH211123   1.992   2.994   4.954
 3720TIP3    H111124   2.078   2.958   4.935
 3720TIP3    H211125   1.945   2.993   4.871
 3721TIP3   OH211126   0.271   1.177   3.864
 3721TIP3    H111127   0.232   1.141   3.943
 3721TIP3    H211128   0.197   1.210   3.813
 3722TIP3   OH211129   6.539   0.219   1.577
 3722TIP3    H111130   6.493   0.302   1.592
 3722TIP3    H211131   6.625   0.231   1.616
 3723TIP3   OH211132   0.919   1.646   1.462
 3723TIP3    H111133   0.929   1.733   1.501
 3723TIP3    H211134   0.871   1.595   1.527
 3724TIP3   OH211135   0.487   0.650   4.558
 3724TIP3    H111136   0.555   0.585   4.576
 3724TIP3    H211137   0.520   0.730   4.599
 3725TIP3   OH211138   4.877   0.553   4.698
 3725TIP3    H111139   4.961   0.570   4.741
 3725TIP3    H211140   4.869   0.622   4.633
 3726TIP3   OH211141   0.785   2.850   1.780
 3726TIP3    H111142   0.858   2.870   1.722
 3726TIP3    H211143   0.707   2.874   1.730
 3727TIP3   OH211144   1.624   2.956   0.273
 3727TIP3    H111145   1.668   2.880   0.238
 3727TIP3    H211146   1.557   2.978   0.208
 3728TIP3   OH211147   4.329   5.012   5.202
 3728TIP3    H111148   4.308   5.009   5.295
 3728TIP3    H211149   4.256   4.967   5.159
 3729TIP3   OH211150   4.474   3.350   4.011
 3729TIP3    H111151   4.496   3.411   3.940
 3729TIP3    H211152   4.487   3.401   4.091
 3730TIP3   OH211153   5.877   3.550   2.420
 3730TIP3    H111154   5.905   3.512   2.337
 3730TIP3    H211155   5.932   3.628   2.431
 3731TIP3   OH211156   5.375   5.285   0.991
 3731TIP3    H111157   5.291   5.278   1.037
 3731TIP3    H211158   5.439   5.298   1.061
 3732TIP3   OH211159   3.159   6.205   4.707
 3732TIP3    H111160   3.142   6.120   4.749
 3732TIP3    H211161   3.164   6.267   4.780
 3733TIP3   OH211162   5.702   3.658   5.096
 3733TIP3    H111163   5.609   3.671   5.115
 3733TIP3    H211164   5.746   3.679   5.179
 3734TIP3   OH211165   4.797   4.830   4.533
 3734TIP3    H111166   4.825   4.755   4.586
 3734TIP3    H211167   4.728   4.872   4.585
 3735TIP3   OH211168   3.352   1.551   0.847
 3735TIP3    H111169   3.297   1.481   0.813
 3735TIP3    H211170   3.440   1.515   0.847
 3736TIP3   OH211171   0.766   5.226   4.863
 3736TIP3    H111172   0.681   5.203   4.902
 3736TIP3    H211173   0.799   5.144   4.827
 3737TIP3   OH211174   5.363   0.871   3.388
 3737TIP3    H111175   5.353   0.806   3.318
 3737TIP3    H211176   5.367   0.955   3.342
 3738TIP3   OH211177   2.835   2.703   4.126
 3738TIP3    H111178   2.812   2.771   4.062
 3738TIP3    H211179   2.930   2.700   4.124
 3739TIP3   OH211180   5.869   5.165   5.243
 3739TIP3    H111181   5.953   5.140   5.204
 3739TIP3    H211182   5.880   5.258   5.265
 3740TIP3   OH211183   5.285   3.610   1.078
 3740TIP3    H111184   5.284   3.604   0.983
 3740TIP3    H211185   5.199   3.580   1.106
 3741TIP3   OH211186   1.285   3.586   0.596
 3741TIP3    H111187   1.321   3.634   0.523
 3741TIP3    H211188   1.275   3.496   0.564
 3742TIP3   OH211189   5.424   6.560   3.310
 3742TIP3    H111190   5.372   6.622   3.258
 3742TIP3    H211191   5.513   6.569   3.276
 3743TIP3   OH211192   3.750   2.963   3.156
 3743TIP3    H111193   3.796   2.938   3.236
 3743TIP3    H211194   3.661   2.984   3.185
 3744TIP3   OH211195   4.161   6.455   2.581
 3744TIP3    H111196   4.109   6.418   2.652
 3744TIP3    H211197   4.107   6.445   2.503
 3745TIP3   OH211198   3.314   3.775   2.365
 3745TIP3    H111199   3.361   3.721   2.301
 3745TIP3    H211200   3.283   3.851   2.314
 3746TIP3   OH211201   1.344   6.013   3.924
 3746TIP3    H111202   1.373   6.084   3.866
 3746TIP3    H211203   1.250   6.006   3.909
 3747TIP3   OH211204   3.044   3.013   5.323
 3747TIP3    H111205   3.001   3.099   5.322
 3747TIP3    H211206   3.129   3.030   5.364
 3748TIP3   OH211207   6.267   5.421   5.010
 3748TIP3    H111208   6.321   5.363   5.064
 3748TIP3    H211209   6.302   5.410   4.921
 3749TIP3   OH211210   5.770   5.436   4.483
 3749TIP3    H111211   5.698   5.385   4.447
 3749TIP3    H211212   5.742   5.527   4.476
 3750TIP3   OH211213   5.747   3.041   1.489
 3750TIP3    H111214   5.724   3.081   1.405
 3750TIP3    H211215   5.670   2.989   1.513
 3751TIP3   OH211216   4.346   1.564   0.630
 3751TIP3    H111217   4.351   1.483   0.578
 3751TIP3    H211218   4.412   1.552   0.698
 3752TIP3   OH211219   7.139   0.389   3.122
 3752TIP3    H111220   7.159   0.305   3.164
 3752TIP3    H211221   7.055   0.374   3.079
 3753TIP3   OH211222   6.553   6.228   2.277
 3753TIP3    H111223   6.508   6.189   2.203
 3753TIP3    H211224   6.570   6.319   2.251
 3754TIP3   OH211225   3.115   2.792   1.030
 3754TIP3    H111226   3.182   2.857   1.009
 3754TIP3    H211227   3.058   2.790   0.953
 3755TIP3   OH211228   7.146   6.804   0.574
 3755TIP3    H111229   7.196   6.749   0.514
 3755TIP3    H211230   7.188   6.791   0.659
 3756TIP3   OH211231   2.891   0.369   5.610
 3756TIP3    H111232   2.802   0.379   5.644
 3756TIP3    H211233   2.946   0.417   5.671
 3757TIP3   OH211234   6.426   5.380   4.753
 3757TIP3    H111235   6.483   5.304   4.763
 3757TIP3    H211236   6.452   5.420   4.670
 3758TIP3   OH211237   2.105   5.198   5.057
 3758TIP3    H111238   2.018   5.234   5.072
 3758TIP3    H211239   2.165   5.271   5.074
 3759TIP3   OH211240   6.300   4.335   1.648
 3759TIP3    H111241   6.232   4.317   1.713
 3759TIP3    H211242   6.372   4.373   1.698
 3760TIP3   OH211243   1.756   2.272   3.980
 3760TIP3    H111244   1.784   2.297   3.891
 3760TIP3    H211245   1.677   2.323   3.996
 3761TIP3   OH211246   0.176   3.655   1.282
 3761TIP3    H111247   0.156   3.684   1.371
 3761TIP3    H211248   0.095   3.614   1.251
 3762TIP3   OH211249   0.992   3.494   2.924
 3762TIP3    H111250   1.063   3.555   2.942
 3762TIP3    H211251   1.035   3.410   2.909
 3763TIP3   OH211252   4.113   3.234   3.311
 3763TIP3    H111253   4.042   3.277   3.359
 3763TIP3    H211254   4.079   3.222   3.223
 3764TIP3   OH211255   5.503   1.047   5.780
 3764TIP3    H111256   5.454   0.990   5.839
 3764TIP3    H211257   5.453   1.129   5.778
 3765TIP3   OH211258   0.402   2.787   5.771
 3765TIP3    H111259   0.431   2.832   5.691
 3765TIP3    H211260   0.482   2.768   5.818
 3766TIP3   OH211261   3.805   2.490   1.709
 3766TIP3    H111262   3.877   2.525   1.658
 3766TIP3    H211263   3.834   2.499   1.800
 3767TIP3   OH211264   5.105   0.518   3.450
 3767TIP3    H111265   5.093   0.492   3.542
 3767TIP3    H211266   5.128   0.436   3.405
 3768TIP3   OH211267   2.308   4.868   0.075
 3768TIP3    H111268   2.282   4.960   0.065
 3768TIP3    H211269   2.344   4.863   0.163
 3769TIP3   OH211270   1.443   1.196   4.202
 3769TIP3    H111271   1.500   1.261   4.162
 3769TIP3    H211272   1.361   1.243   4.220
 3770TIP3   OH211273   1.698   4.596   5.369
 3770TIP3    H111274   1.774   4.570   5.421
 3770TIP3    H211275   1.685   4.523   5.309
 3771TIP3   OH211276   2.257   1.487   0.680
 3771TIP3    H111277   2.340   1.522   0.713
 3771TIP3    H211278   2.281   1.406   0.636
 3772TIP3   OH211279   4.135   3.154   1.319
 3772TIP3    H111280   4.197   3.089   1.352
 3772TIP3    H211281   4.110   3.122   1.232
 3773TIP3   OH211282   4.368   6.064   5.833
 3773TIP3    H111283   4.415   6.035   5.911
 3773TIP3    H211284   4.340   5.983   5.789
 3774TIP3   OH211285   4.969   5.006   2.114
 3774TIP3    H111286   5.043   5.024   2.172
 3774TIP3    H211287   4.918   4.940   2.161
 3775TIP3   OH211288   0.428   5.451   4.092
 3775TIP3    H111289   0.440   5.530   4.144
 3775TIP3    H211290   0.413   5.382   4.157
 3776TIP3   OH211291   4.193   0.485   4.975
 3776TIP3    H111292   4.219   0.423   5.042
 3776TIP3    H211293   4.142   0.433   4.913
 3777TIP3   OH211294   3.850   3.610   1.665
 3777TIP3    H111295   3.897   3.692   1.677
 3777TIP3    H211296   3.910   3.543   1.697
 3778TIP3   OH211297   6.224   4.716   5.116
 3778TIP3    H111298   6.211   4.811   5.119
 3778TIP3    H211299   6.168   4.682   5.185
 3779TIP3   OH211300   5.363   3.830   0.781
 3779TIP3    H111301   5.315   3.829   0.864
 3779TIP3    H211302   5.383   3.923   0.766
 3780TIP3   OH211303   4.771   0.729   4.497
 3780TIP3    H111304   4.709   0.770   4.438
 3780TIP3    H211305   4.780   0.791   4.569
 3781TIP3   OH211306   0.898   1.943   2.278
 3781TIP3    H111307   0.928   2.023   2.322
 3781TIP3    H211308   0.941   1.872   2.325
 3782TIP3   OH211309   0.185   6.224   5.024
 3782TIP3    H111310   0.275   6.239   4.995
 3782TIP3    H211311   0.158   6.307   5.063
 3783TIP3   OH211312   3.427   6.113   5.316
 3783TIP3    H111313   3.501   6.053   5.305
 3783TIP3    H211314   3.429   6.137   5.409
 3784TIP3   OH211315   3.535   5.119   2.708
 3784TIP3    H111316   3.472   5.083   2.770
 3784TIP3    H211317   3.518   5.073   2.626
 3785TIP3   OH211318   0.334   6.461   3.185
 3785TIP3    H111319   0.255   6.408   3.178
 3785TIP3    H211320   0.405   6.397   3.194
 3786TIP3   OH211321   4.107   5.575   0.773
 3786TIP3    H111322   4.133   5.617   0.691
 3786TIP3    H211323   4.014   5.555   0.761
 3787TIP3   OH211324   2.650   0.489   4.616
 3787TIP3    H111325   2.691   0.570   4.583
 3787TIP3    H211326   2.564   0.488   4.576
 3788TIP3   OH211327   2.574   2.239   0.463
 3788TIP3    H111328   2.589   2.178   0.535
 3788TIP3    H211329   2.589   2.325   0.501
 3789TIP3   OH211330   3.351   5.883   0.645
 3789TIP3    H111331   3.272   5.832   0.628
 3789TIP3    H211332   3.404   5.872   0.566
 3790TIP3   OH211333   6.917   2.823   0.282
 3790TIP3    H111334   6.821   2.827   0.291
 3790TIP3    H211335   6.948   2.907   0.314
 3791TIP3   OH211336   2.559   5.902   3.008
 3791TIP3    H111337   2.614   5.979   2.995
 3791TIP3    H211338   2.477   5.936   3.045
 3792TIP3   OH211339   4.856   0.510   4.323
 3792TIP3    H111340   4.851   0.578   4.255
 3792TIP3    H211341   4.799   0.542   4.392
 3793TIP3   OH211342   3.799   5.202   5.117
 3793TIP3    H111343   3.764   5.132   5.172
 3793TIP3    H211344   3.855   5.253   5.176
 3794TIP3   OH211345   5.262   0.629   0.905
 3794TIP3    H111346   5.262   0.656   0.997
 3794TIP3    H211347   5.186   0.673   0.867
 3795TIP3   OH211348   1.876   6.300   5.589
 3795TIP3    H111349   1.935   6.363   5.547
 3795TIP3    H211350   1.819   6.354   5.644
 3796TIP3   OH211351   5.523   0.539   2.124
 3796TIP3    H111352   5.449   0.512   2.178
 3796TIP3    H211353   5.499   0.514   2.035
 3797TIP3   OH211354   3.654   6.497   0.667
 3797TIP3    H111355   3.742   6.480   0.632
 3797TIP3    H211356   3.602   6.423   0.638
 3798TIP3   OH211357   6.661   1.765   5.571
 3798TIP3    H111358   6.717   1.840   5.592
 3798TIP3    H211359   6.714   1.711   5.512
 3799TIP3   OH211360   2.341   2.798   2.493
 3799TIP3    H111361   2.436   2.787   2.489
 3799TIP3    H211362   2.329   2.876   2.547
 3800TIP3   OH211363   2.443   0.592   2.494
 3800TIP3    H111364   2.435   0.688   2.490
 3800TIP3    H211365   2.354   0.560   2.479
 3801TIP3   OH211366   5.434   6.146   2.625
 3801TIP3    H111367   5.524   6.175   2.640
 3801TIP3    H211368   5.380   6.222   2.647
 3802TIP3   OH211369   6.356   5.681   2.780
 3802TIP3    H111370   6.365   5.681   2.685
 3802TIP3    H211371   6.431   5.632   2.812
 3803TIP3   OH211372   1.989   4.641   0.912
 3803TIP3    H111373   2.041   4.719   0.891
 3803TIP3    H211374   2.050   4.568   0.901
 3804TIP3   OH211375   4.872   2.687   4.400
 3804TIP3    H111376   4.908   2.609   4.442
 3804TIP3    H211377   4.841   2.742   4.472
 3805TIP3   OH211378   4.471   6.755   2.480
 3805TIP3    H111379   4.518   6.717   2.406
 3805TIP3    H211380   4.492   6.698   2.553
 3806TIP3   OH211381   7.067   3.280   1.152
 3806TIP3    H111382   7.091   3.358   1.102
 3806TIP3    H211383   7.113   3.289   1.235
 3807TIP3   OH211384   4.213   6.610   5.073
 3807TIP3    H111385   4.141   6.628   5.013
 3807TIP3    H211386   4.290   6.604   5.016
 3808TIP3   OH211387   5.249   0.630   1.891
 3808TIP3    H111388   5.295   0.695   1.944
 3808TIP3    H211389   5.318   0.579   1.851
 3809TIP3   OH211390   5.188   6.592   0.084
 3809TIP3    H111391   5.213   6.570  -0.005
 3809TIP3    H211392   5.271   6.601   0.131
 3810TIP3   OH211393   3.048   5.715   3.690
 3810TIP3    H111394   3.107   5.757   3.752
 3810TIP3    H211395   2.987   5.665   3.744
 3811TIP3   OH211396   3.653   5.650   2.659
 3811TIP3    H111397   3.576   5.660   2.603
 3811TIP3    H211398   3.696   5.571   2.627
 3812TIP3   OH211399   2.919   1.435   2.813
 3812TIP3    H111400   2.861   1.383   2.869
 3812TIP3    H211401   2.940   1.378   2.739
 3813TIP3   OH211402   0.687   2.369   2.497
 3813TIP3    H111403   0.763   2.411   2.538
 3813TIP3    H211404   0.655   2.435   2.435
 3814TIP3   OH211405   5.438   1.281   0.162
 3814TIP3    H111406   5.468   1.191   0.146
 3814TIP3    H211407   5.498   1.315   0.227
 3815TIP3   OH211408   5.708   0.245   3.171
 3815TIP3    H111409   5.621   0.206   3.164
 3815TIP3    H211410   5.755   0.214   3.094
 3816TIP3   OH211411   7.085   2.968   0.073
 3816TIP3    H111412   7.043   2.886   0.101
 3816TIP3    H211413   7.014   3.023   0.042
 3817TIP3   OH211414   6.915   4.867   3.654
 3817TIP3    H111415   6.936   4.892   3.745
 3817TIP3    H211416   6.971   4.792   3.636
 3818TIP3   OH211417   3.085   6.617   0.127
 3818TIP3    H111418   3.038   6.551   0.076
 3818TIP3    H211419   3.174   6.581   0.137
 3819TIP3   OH211420   2.741   5.563   0.968
 3819TIP3    H111421   2.784   5.598   0.890
 3819TIP3    H211422   2.806   5.503   1.006
 3820TIP3   OH211423   1.063   6.325   0.909
 3820TIP3    H111424   1.097   6.266   0.976
 3820TIP3    H211425   1.019   6.267   0.847
 3821TIP3   OH211426   0.645   6.010   1.587
 3821TIP3    H111427   0.700   6.008   1.665
 3821TIP3    H211428   0.639   6.103   1.564
 3822TIP3   OH211429   3.885   4.910   2.980
 3822TIP3    H111430   3.838   4.983   2.940
 3822TIP3    H211431   3.950   4.951   3.037
 3823TIP3   OH211432   2.299   3.811   2.565
 3823TIP3    H111433   2.391   3.812   2.539
 3823TIP3    H211434   2.256   3.757   2.498
 3824TIP3   OH211435   2.279   6.109   3.946
 3824TIP3    H111436   2.271   6.164   3.869
 3824TIP3    H211437   2.361   6.060   3.933
 3825TIP3   OH211438   5.095   2.274   2.569
 3825TIP3    H111439   5.189   2.262   2.583
 3825TIP3    H211440   5.077   2.225   2.488
 3826TIP3   OH211441   3.794   2.092   5.405
 3826TIP3    H111442   3.753   2.096   5.491
 3826TIP3    H211443   3.859   2.021   5.412
 3827TIP3   OH211444   6.575   6.716   1.111
 3827TIP3    H111445   6.573   6.811   1.100
 3827TIP3    H211446   6.538   6.701   1.198
 3828TIP3   OH211447   6.300   2.036   1.161
 3828TIP3    H111448   6.306   1.957   1.215
 3828TIP3    H211449   6.209   2.064   1.169
 3829TIP3   OH211450   0.419   2.369   0.658
 3829TIP3    H111451   0.476   2.404   0.727
 3829TIP3    H211452   0.471   2.375   0.578
 3830TIP3   OH211453   1.768   6.451   0.129
 3830TIP3    H111454   1.746   6.370   0.083
 3830TIP3    H211455   1.756   6.430   0.221
 3831TIP3   OH211456   4.595   5.028   5.855
 3831TIP3    H111457   4.597   4.953   5.796
 3831TIP3    H211458   4.686   5.054   5.864
 3832TIP3   OH211459   1.084   4.289   4.558
 3832TIP3    H111460   1.054   4.353   4.622
 3832TIP3    H211461   1.043   4.316   4.476
 3833TIP3   OH211462   6.090   5.969   5.249
 3833TIP3    H111463   6.052   6.037   5.194
 3833TIP3    H211464   6.180   5.961   5.220
 3834TIP3   OH211465   6.465   4.955   0.194
 3834TIP3    H111466   6.527   5.023   0.220
 3834TIP3    H211467   6.477   4.885   0.258
 3835TIP3   OH211468   7.144   1.109   1.656
 3835TIP3    H111469   7.144   1.191   1.606
 3835TIP3    H211470   7.146   1.041   1.589
 3836TIP3   OH211471   5.363   5.342   5.390
 3836TIP3    H111472   5.315   5.279   5.336
 3836TIP3    H211473   5.295   5.403   5.420
 3837TIP3   OH211474   6.917   5.094   5.684
 3837TIP3    H111475   7.006   5.062   5.695
 3837TIP3    H211476   6.862   5.025   5.720
 3838TIP3   OH211477   4.741   3.738   2.771
 3838TIP3    H111478   4.807   3.674   2.744
 3838TIP3    H211479   4.741   3.735   2.866
 3839TIP3   OH211480   6.729   3.969   4.109
 3839TIP3    H111481   6.680   4.042   4.147
 3839TIP3    H211482   6.754   3.915   4.185
 3840TIP3   OH211483   7.059   0.261   0.846
 3840TIP3    H111484   7.097   0.347   0.863
 3840TIP3    H211485   7.098   0.204   0.912
 3841TIP3   OH211486   4.929   4.194   0.084
 3841TIP3    H111487   4.867   4.248   0.034
 3841TIP3    H211488   4.886   4.109   0.092
 3842TIP3   OH211489   6.677   3.745   5.855
 3842TIP3    H111490   6.758   3.783   5.889
 3842TIP3    H211491   6.707   3.679   5.792
 3843TIP3   OH211492   3.832   3.047   2.913
 3843TIP3    H111493   3.807   3.024   3.002
 3843TIP3    H211494   3.756   3.096   2.879
 3844TIP3   OH211495   7.093   5.288   4.103
 3844TIP3    H111496   7.102   5.300   4.008
 3844TIP3    H211497   7.009   5.243   4.113
 3845TIP3   OH211498   5.201   2.456   5.201
 3845TIP3    H111499   5.260   2.528   5.178
 3845TIP3    H211500   5.253   2.400   5.259
 3846TIP3   OH211501   0.561   1.640   4.631
 3846TIP3    H111502   0.612   1.669   4.555
 3846TIP3    H211503   0.553   1.545   4.619
 3847TIP3   OH211504   2.520   6.594   4.900
 3847TIP3    H111505   2.505   6.504   4.930
 3847TIP3    H211506   2.605   6.617   4.936
 3848TIP3   OH211507   5.012   3.381   3.144
 3848TIP3    H111508   5.032   3.292   3.114
 3848TIP3    H211509   4.973   3.423   3.067
 3849TIP3   OH211510   5.406   6.526   3.704
 3849TIP3    H111511   5.402   6.589   3.632
 3849TIP3    H211512   5.485   6.548   3.752
 3850TIP3   OH211513   3.704   5.161   2.374
 3850TIP3    H111514   3.761   5.225   2.331
 3850TIP3    H211515   3.626   5.157   2.319
 3851TIP3   OH211516   5.962   6.340   4.032
 3851TIP3    H111517   6.007   6.257   4.019
 3851TIP3    H211518   5.965   6.355   4.126
 3852TIP3   OH211519   3.305   1.839   1.724
 3852TIP3    H111520   3.337   1.815   1.638
 3852TIP3    H211521   3.299   1.935   1.723
 3853TIP3   OH211522   1.045   4.356   0.540
 3853TIP3    H111523   1.049   4.265   0.511
 3853TIP3    H211524   1.001   4.352   0.625
 3854TIP3   OH211525   6.774   2.527   0.970
 3854TIP3    H111526   6.725   2.592   0.920
 3854TIP3    H211527   6.859   2.521   0.926
 3855TIP3   OH211528   2.140   0.021   0.396
 3855TIP3    H111529   2.199  -0.009   0.465
 3855TIP3    H211530   2.052   0.009   0.432
 3856TIP3   OH211531   6.662   3.902   5.514
 3856TIP3    H111532   6.708   3.857   5.585
 3856TIP3    H211533   6.572   3.867   5.518
 3857TIP3   OH211534   6.441   6.506   3.714
 3857TIP3    H111535   6.518   6.508   3.657
 3857TIP3    H211536   6.440   6.416   3.748
 3858TIP3   OH211537   1.329   2.023   2.445
 3858TIP3    H111538   1.411   2.038   2.492
 3858TIP3    H211539   1.263   2.011   2.514
 3859TIP3   OH211540   5.610   3.728   5.800
 3859TIP3    H111541   5.571   3.676   5.870
 3859TIP3    H211542   5.537   3.778   5.764
 3860TIP3   OH211543   3.807   4.029   3.962
 3860TIP3    H111544   3.833   3.972   3.889
 3860TIP3    H211545   3.823   3.976   4.040
 3861TIP3   OH211546   0.627   2.080   4.537
 3861TIP3    H111547   0.561   2.133   4.581
 3861TIP3    H211548   0.577   2.007   4.500
 3862TIP3   OH211549   7.059   4.267   4.264
 3862TIP3    H111550   7.096   4.304   4.184
 3862TIP3    H211551   6.986   4.325   4.287
 3863TIP3   OH211552   0.929   0.490   5.784
 3863TIP3    H111553   0.855   0.540   5.819
 3863TIP3    H211554   0.999   0.502   5.848
 3864TIP3   OH211555   5.994   4.021   4.496
 3864TIP3    H111556   6.049   4.089   4.533
 3864TIP3    H211557   5.945   3.986   4.570
 3865TIP3   OH211558   0.092   3.532   3.415
 3865TIP3    H111559   0.174   3.572   3.388
 3865TIP3    H211560   0.118   3.459   3.470
 3866TIP3   OH211561   6.122   2.841   3.293
 3866TIP3    H111562   6.072   2.913   3.331
 3866TIP3    H211563   6.200   2.883   3.257
 3867TIP3   OH211564   4.651   3.470   5.672
 3867TIP3    H111565   4.589   3.521   5.724
 3867TIP3    H211566   4.596   3.419   5.613
 3868TIP3   OH211567   4.898   4.236   4.891
 3868TIP3    H111568   4.950   4.160   4.865
 3868TIP3    H211569   4.862   4.213   4.977
 3869TIP3   OH211570   2.716   6.263   0.276
 3869TIP3    H111571   2.811   6.270   0.278
 3869TIP3    H211572   2.685   6.336   0.330
 3870TIP3   OH211573   1.681   2.602   1.868
 3870TIP3    H111574   1.625   2.672   1.900
 3870TIP3    H211575   1.674   2.533   1.934
 3871TIP3   OH211576   4.867   1.587   0.546
 3871TIP3    H111577   4.831   1.590   0.634
 3871TIP3    H211578   4.950   1.541   0.555
 3872TIP3   OH211579   5.655   0.853   1.325
 3872TIP3    H111580   5.657   0.785   1.392
 3872TIP3    H211581   5.568   0.892   1.333
 3873TIP3   OH211582   5.578   1.565   5.275
 3873TIP3    H111583   5.558   1.483   5.230
 3873TIP3    H211584   5.672   1.561   5.292
 3874TIP3   OH211585   0.163   2.405   3.218
 3874TIP3    H111586   0.172   2.500   3.216
 3874TIP3    H211587   0.193   2.380   3.306
 3875TIP3   OH211588   1.839   5.382   3.489
 3875TIP3    H111589   1.770   5.396   3.424
 3875TIP3    H211590   1.796   5.336   3.561
 3876TIP3   OH211591   1.321   5.711   3.145
 3876TIP3    H111592   1.329   5.658   3.224
 3876TIP3    H211593   1.298   5.798   3.176
 3877TIP3   OH211594   2.347   6.755   2.006
 3877TIP3    H111595   2.274   6.704   2.040
 3877TIP3    H211596   2.356   6.828   2.068
 3878TIP3   OH211597   3.308   0.578   2.474
 3878TIP3    H111598   3.225   0.622   2.452
 3878TIP3    H211599   3.347   0.558   2.389
 3879TIP3   OH211600   1.240   4.086   5.328
 3879TIP3    H111601   1.256   4.105   5.235
 3879TIP3    H211602   1.264   3.994   5.338
 3880TIP3   OH211603   3.145   1.266   5.688
 3880TIP3    H111604   3.114   1.334   5.747
 3880TIP3    H211605   3.227   1.300   5.653
 3881TIP3   OH211606   1.372   1.090   4.720
 3881TIP3    H111607   1.350   1.124   4.806
 3881TIP3    H211608   1.293   1.105   4.668
 3882TIP3   OH211609   6.579   5.709   0.468
 3882TIP3    H111610   6.667   5.688   0.435
 3882TIP3    H211611   6.589   5.794   0.510
 3883TIP3   OH211612   2.426   0.021   0.847
 3883TIP3    H111613   2.335   0.039   0.871
 3883TIP3    H211614   2.477   0.071   0.911
 3884TIP3   OH211615   4.623   2.185   3.107
 3884TIP3    H111616   4.598   2.156   3.195
 3884TIP3    H211617   4.591   2.275   3.101
 3885TIP3   OH211618   2.758   5.898   4.460
 3885TIP3    H111619   2.728   5.913   4.371
 3885TIP3    H211620   2.809   5.817   4.455
 3886TIP3   OH211621   5.376   0.799   0.171
 3886TIP3    H111622   5.462   0.761   0.190
 3886TIP3    H211623   5.315   0.748   0.224
 3887TIP3   OH211624   3.571   4.208   5.244
 3887TIP3    H111625   3.597   4.191   5.334
 3887TIP3    H211626   3.622   4.145   5.192
 3888TIP3   OH211627   2.302   4.770   3.172
 3888TIP3    H111628   2.356   4.746   3.097
 3888TIP3    H211629   2.264   4.855   3.148
 3889TIP3   OH211630   2.169   1.694   3.360
 3889TIP3    H111631   2.190   1.603   3.382
 3889TIP3    H211632   2.252   1.730   3.329
 3890TIP3   OH211633   0.880   0.876   4.820
 3890TIP3    H111634   0.798   0.889   4.867
 3890TIP3    H211635   0.880   0.945   4.753
 3891TIP3   OH211636   3.920   6.041   3.625
 3891TIP3    H111637   3.856   5.987   3.579
 3891TIP3    H211638   3.868   6.104   3.675
 3892TIP3   OH211639   1.759   0.524   1.030
 3892TIP3    H111640   1.846   0.510   1.066
 3892TIP3    H211641   1.763   0.611   0.991
 3893TIP3   OH211642   7.114   6.258   1.817
 3893TIP3    H111643   7.137   6.195   1.749
 3893TIP3    H211644   7.030   6.294   1.790
 3894TIP3   OH211645   3.139   4.199   2.709
 3894TIP3    H111646   3.130   4.218   2.616
 3894TIP3    H211647   3.211   4.136   2.714
 3895TIP3   OH211648   5.398   0.919   4.241
 3895TIP3    H111649   5.341   0.994   4.227
 3895TIP3    H211650   5.447   0.911   4.159
 3896TIP3   OH211651   3.871   0.931   5.502
 3896TIP3    H111652   3.783   0.968   5.497
 3896TIP3    H211653   3.915   0.984   5.570
 3897TIP3   OH211654   6.723   5.307   4.691
 3897TIP3    H111655   6.723   5.396   4.725
 3897TIP3    H211656   6.771   5.256   4.756
 3898TIP3   OH211657   4.953   5.001   4.168
 3898TIP3    H111658   4.877   4.945   4.178
 3898TIP3    H211659   4.917   5.090   4.160
 3899TIP3   OH211660   6.242   0.272   0.839
 3899TIP3    H111661   6.302   0.288   0.912
 3899TIP3    H211662   6.178   0.342   0.844
 3900TIP3   OH211663   5.795   1.997   5.468
 3900TIP3    H111664   5.702   2.013   5.487
 3900TIP3    H211665   5.842   2.051   5.532
 3901TIP3   OH211666   0.653   3.141   2.015
 3901TIP3    H111667   0.695   3.149   1.930
 3901TIP3    H211668   0.638   3.047   2.026
 3902TIP3   OH211669   3.812   5.500   4.783
 3902TIP3    H111670   3.895   5.471   4.822
 3902TIP3    H211671   3.802   5.447   4.705
 3903TIP3   OH211672   1.521   4.087   2.920
 3903TIP3    H111673   1.585   4.019   2.945
 3903TIP3    H211674   1.465   4.044   2.856
 3904TIP3   OH211675   6.985   2.424   5.083
 3904TIP3    H111676   7.030   2.342   5.062
 3904TIP3    H211677   7.039   2.492   5.043
 3905TIP3   OH211678   2.245   1.861   4.922
 3905TIP3    H111679   2.312   1.921   4.953
 3905TIP3    H211680   2.291   1.777   4.912
 3906TIP3   OH211681   4.923   4.873   4.811
 3906TIP3    H111682   4.967   4.949   4.771
 3906TIP3    H211683   4.875   4.910   4.885
 3907TIP3   OH211684   0.206   0.654   3.185
 3907TIP3    H111685   0.142   0.716   3.220
 3907TIP3    H211686   0.289   0.683   3.221
 3908TIP3   OH211687   3.274   4.411   4.074
 3908TIP3    H111688   3.254   4.480   4.138
 3908TIP3    H211689   3.288   4.333   4.126
 3909TIP3   OH211690   2.482   4.554   1.671
 3909TIP3    H111691   2.575   4.533   1.664
 3909TIP3    H211692   2.440   4.473   1.699
 3910TIP3   OH211693   2.895   2.295   1.925
 3910TIP3    H111694   2.839   2.222   1.898
 3910TIP3    H211695   2.835   2.359   1.963
 3911TIP3   OH211696   6.810   3.981   3.855
 3911TIP3    H111697   6.891   4.031   3.845
 3911TIP3    H211698   6.788   3.989   3.948
 3912TIP3   OH211699   2.461   0.321   2.808
 3912TIP3    H111700   2.539   0.314   2.863
 3912TIP3    H211701   2.422   0.234   2.811
 3913TIP3   OH211702   1.668   6.228   0.523
 3913TIP3    H111703   1.639   6.187   0.442
 3913TIP3    H211704   1.690   6.318   0.497
 3914TIP3   OH211705   5.889   3.667   5.734
 3914TIP3    H111706   5.960   3.731   5.740
 3914TIP3    H211707   5.809   3.718   5.741
 3915TIP3   OH211708   1.350   2.524   1.660
 3915TIP3    H111709   1.304   2.607   1.673
 3915TIP3    H211710   1.366   2.491   1.749
 3916TIP3   OH211711   3.491   2.213   0.771
 3916TIP3    H111712   3.488   2.118   0.782
 3916TIP3    H211713   3.532   2.246   0.851
 3917TIP3   OH211714   2.249   0.705   3.804
 3917TIP3    H111715   2.248   0.750   3.720
 3917TIP3    H211716   2.260   0.775   3.868
 3918TIP3   OH211717   1.569   0.099   5.537
 3918TIP3    H111718   1.601   0.093   5.447
 3918TIP3    H211719   1.476   0.076   5.530
 3919TIP3   OH211720   4.187   1.482   3.469
 3919TIP3    H111721   4.262   1.539   3.485
 3919TIP3    H211722   4.158   1.455   3.556
 3920TIP3   OH211723   0.330   0.128   4.956
 3920TIP3    H111724   0.273   0.167   5.022
 3920TIP3    H211725   0.294   0.157   4.873
 3921TIP3   OH211726   3.125   3.542   1.614
 3921TIP3    H111727   3.095   3.623   1.655
 3921TIP3    H211728   3.081   3.540   1.529
 3922TIP3   OH211729   1.564   1.713   0.351
 3922TIP3    H111730   1.494   1.764   0.310
 3922TIP3    H211731   1.573   1.752   0.438
 3923TIP3   OH211732   2.750   0.486   0.797
 3923TIP3    H111733   2.841   0.515   0.788
 3923TIP3    H211734   2.742   0.414   0.736
 3924TIP3   OH211735   7.126   6.051   0.536
 3924TIP3    H111736   7.126   5.985   0.467
 3924TIP3    H211737   7.218   6.065   0.556
 3925TIP3   OH211738   6.702   6.571   1.587
 3925TIP3    H111739   6.630   6.558   1.648
 3925TIP3    H211740   6.663   6.562   1.500
 3926TIP3   OH211741   2.812   3.756   5.550
 3926TIP3    H111742   2.809   3.804   5.633
 3926TIP3    H211743   2.738   3.790   5.500
 3927TIP3   OH211744   4.073   3.210   0.240
 3927TIP3    H111745   4.145   3.167   0.194
 3927TIP3    H211746   4.032   3.265   0.173
 3928TIP3   OH211747   4.857   4.416   2.086
 3928TIP3    H111748   4.774   4.395   2.042
 3928TIP3    H211749   4.924   4.399   2.020
 3929TIP3   OH211750   3.152   4.352   3.005
 3929TIP3    H111751   3.149   4.440   3.043
 3929TIP3    H211752   3.114   4.296   3.072
 3930TIP3   OH211753   4.513   1.227   2.212
 3930TIP3    H111754   4.527   1.134   2.198
 3930TIP3    H211755   4.591   1.269   2.173
 3931TIP3   OH211756   1.441   4.961   0.400
 3931TIP3    H111757   1.438   5.036   0.460
 3931TIP3    H211758   1.529   4.966   0.362
 3932TIP3   OH211759   5.726   2.112   5.119
 3932TIP3    H111760   5.821   2.108   5.107
 3932TIP3    H211761   5.706   2.039   5.178
 3933TIP3   OH211762   6.071   6.124   2.363
 3933TIP3    H111763   6.126   6.203   2.367
 3933TIP3    H211764   5.982   6.158   2.362
 3934TIP3   OH211765   3.554   4.445   5.536
 3934TIP3    H111766   3.492   4.461   5.607
 3934TIP3    H211767   3.618   4.384   5.573
 3935TIP3   OH211768   5.853   0.757   2.899
 3935TIP3    H111769   5.787   0.712   2.952
 3935TIP3    H211770   5.830   0.849   2.905
 3936TIP3   OH211771   5.616   3.980   5.244
 3936TIP3    H111772   5.707   3.966   5.271
 3936TIP3    H211773   5.621   4.052   5.181
 3937TIP3   OH211774   6.122   3.138   1.172
 3937TIP3    H111775   6.175   3.075   1.124
 3937TIP3    H211776   6.040   3.092   1.190
 3938TIP3   OH211777   2.153   1.771   4.597
 3938TIP3    H111778   2.205   1.757   4.676
 3938TIP3    H211779   2.161   1.864   4.578
 3939TIP3   OH211780   0.920   6.603   2.253
 3939TIP3    H111781   0.837   6.612   2.300
 3939TIP3    H211782   0.985   6.590   2.322
 3940TIP3   OH211783   0.173   1.085   0.220
 3940TIP3    H111784   0.109   1.085   0.291
 3940TIP3    H211785   0.127   1.045   0.147
 3941TIP3   OH211786   3.045   0.644   0.080
 3941TIP3    H111787   3.020   0.712   0.016
 3941TIP3    H211788   3.138   0.628   0.062
 3942TIP3   OH211789   7.216   2.103   2.819
 3942TIP3    H111790   7.233   2.158   2.896
 3942TIP3    H211791   7.213   2.165   2.746
 3943TIP3   OH211792   4.443   2.775   4.796
 3943TIP3    H111793   4.539   2.767   4.800
 3943TIP3    H211794   4.410   2.695   4.836
 3944TIP3   OH211795   4.514   5.684   5.875
 3944TIP3    H111796   4.570   5.647   5.806
 3944TIP3    H211797   4.462   5.751   5.831
 3945TIP3   OH211798   4.098   0.834   5.406
 3945TIP3    H111799   4.155   0.909   5.389
 3945TIP3    H211800   4.028   0.870   5.462
 3946TIP3   OH211801   6.087   0.367   5.549
 3946TIP3    H111802   6.180   0.379   5.533
 3946TIP3    H211803   6.049   0.453   5.531
 3947TIP3   OH211804   5.026   2.739   5.518
 3947TIP3    H111805   4.968   2.785   5.456
 3947TIP3    H211806   5.005   2.777   5.603
 3948TIP3   OH211807   1.427   3.620   3.609
 3948TIP3    H111808   1.362   3.550   3.616
 3948TIP3    H211809   1.507   3.576   3.579
 3949TIP3   OH211810   3.132   0.156   1.284
 3949TIP3    H111811   3.206   0.182   1.229
 3949TIP3    H211812   3.171   0.096   1.348
 3950TIP3   OH211813   2.778   0.203   3.237
 3950TIP3    H111814   2.807   0.122   3.194
 3950TIP3    H211815   2.826   0.205   3.319
 3951TIP3   OH211816   5.230   1.493   1.076
 3951TIP3    H111817   5.179   1.573   1.084
 3951TIP3    H211818   5.172   1.424   1.110
 3952TIP3   OH211819   3.390   5.314   3.757
 3952TIP3    H111820   3.465   5.256   3.742
 3952TIP3    H211821   3.331   5.262   3.812
 3953TIP3   OH211822   3.181   6.713   1.843
 3953TIP3    H111823   3.183   6.624   1.880
 3953TIP3    H211824   3.210   6.701   1.753
 3954TIP3   OH211825   6.553   5.742   2.962
 3954TIP3    H111826   6.623   5.782   2.910
 3954TIP3    H211827   6.483   5.808   2.961
 3955TIP3   OH211828   1.612   5.963   3.993
 3955TIP3    H111829   1.647   5.915   3.918
 3955TIP3    H211830   1.517   5.959   3.982
 3956TIP3   OH211831   1.719   3.140   1.408
 3956TIP3    H111832   1.790   3.098   1.358
 3956TIP3    H211833   1.762   3.170   1.488
 3957TIP3   OH211834   5.702   2.111   3.242
 3957TIP3    H111835   5.761   2.077   3.174
 3957TIP3    H211836   5.760   2.137   3.313
 3958TIP3   OH211837   1.287   1.096   1.780
 3958TIP3    H111838   1.361   1.036   1.792
 3958TIP3    H211839   1.328   1.180   1.759
 3959TIP3   OH211840   0.012   0.853   3.268
 3959TIP3    H111841   0.053   0.904   3.197
 3959TIP3    H211842  -0.020   0.919   3.329
 3960TIP3   OH211843   3.298   1.130   4.346
 3960TIP3    H111844   3.375   1.173   4.384
 3960TIP3    H211845   3.335   1.062   4.289
 3961TIP3   OH211846   0.618   3.995   2.585
 3961TIP3    H111847   0.530   4.028   2.601
 3961TIP3    H211848   0.675   4.055   2.633
 3962TIP3   OH211849   4.873   5.211   0.104
 3962TIP3    H111850   4.885   5.157   0.181
 3962TIP3    H211851   4.778   5.228   0.101
 3963TIP3   OH211852   2.566   3.930   5.471
 3963TIP3    H111853   2.567   3.936   5.566
 3963TIP3    H211854   2.636   3.988   5.442
 3964TIP3   OH211855   2.795   1.256   3.868
 3964TIP3    H111856   2.758   1.168   3.875
 3964TIP3    H211857   2.860   1.249   3.798
 3965TIP3   OH211858   5.900   1.480   3.772
 3965TIP3    H111859   5.927   1.468   3.681
 3965TIP3    H211860   5.841   1.407   3.790
 3966TIP3   OH211861   6.547   3.521   5.506
 3966TIP3    H111862   6.634   3.550   5.533
 3966TIP3    H211863   6.503   3.498   5.587
 3967TIP3   OH211864   4.854   0.967   0.769
 3967TIP3    H111865   4.815   0.984   0.683
 3967TIP3    H211866   4.948   0.983   0.757
 3968TIP3   OH211867   2.989   0.226   0.873
 3968TIP3    H111868   2.968   0.237   0.966
 3968TIP3    H211869   3.001   0.315   0.841
 3969TIP3   OH211870   2.157   0.543   1.419
 3969TIP3    H111871   2.101   0.535   1.497
 3969TIP3    H211872   2.097   0.532   1.346
 3970TIP3   OH211873   2.079   1.847   3.881
 3970TIP3    H111874   2.144   1.783   3.851
 3970TIP3    H211875   2.074   1.833   3.976
 3971TIP3   OH211876   4.309   5.373   2.597
 3971TIP3    H111877   4.250   5.443   2.570
 3971TIP3    H211878   4.358   5.351   2.518
 3972TIP3   OH211879   5.936   6.592   2.804
 3972TIP3    H111880   5.908   6.666   2.750
 3972TIP3    H211881   5.869   6.525   2.790
 3973TIP3   OH211882   0.664   1.237   2.278
 3973TIP3    H111883   0.617   1.183   2.214
 3973TIP3    H211884   0.722   1.291   2.225
 3974TIP3   OH211885   3.820   6.566   2.567
 3974TIP3    H111886   3.765   6.613   2.506
 3974TIP3    H211887   3.762   6.500   2.607
 3975TIP3   OH211888   5.530   5.353   2.544
 3975TIP3    H111889   5.531   5.359   2.640
 3975TIP3    H211890   5.537   5.444   2.515
 3976TIP3   OH211891   3.851   3.205   1.339
 3976TIP3    H111892   3.945   3.193   1.323
 3976TIP3    H211893   3.818   3.245   1.259
 3977TIP3   OH211894   1.347   0.763   0.290
 3977TIP3    H111895   1.370   0.685   0.241
 3977TIP3    H211896   1.375   0.744   0.380
 3978TIP3   OH211897   6.927   1.442   3.561
 3978TIP3    H111898   6.854   1.433   3.623
 3978TIP3    H211899   6.978   1.515   3.595
 3979TIP3   OH211900   5.252   2.505   3.395
 3979TIP3    H111901   5.159   2.516   3.377
 3979TIP3    H211902   5.259   2.514   3.490
 3980TIP3   OH211903   2.209   1.429   2.024
 3980TIP3    H111904   2.187   1.521   2.041
 3980TIP3    H211905   2.218   1.424   1.929
 3981TIP3   OH211906   1.335   1.366   0.088
 3981TIP3    H111907   1.311   1.421   0.014
 3981TIP3    H211908   1.383   1.424   0.146
 3982TIP3   OH211909   0.934   4.395   4.746
 3982TIP3    H111910   0.896   4.476   4.779
 3982TIP3    H211911   0.867   4.329   4.765
 3983TIP3   OH211912   2.892   5.077   1.150
 3983TIP3    H111913   2.801   5.050   1.142
 3983TIP3    H211914   2.937   4.999   1.183
 3984TIP3   OH211915   0.756   1.728   2.733
 3984TIP3    H111916   0.768   1.635   2.752
 3984TIP3    H211917   0.706   1.729   2.651
 3985TIP3   OH211918   5.015   0.833   1.962
 3985TIP3    H111919   5.087   0.836   2.025
 3985TIP3    H211920   5.022   0.745   1.924
 3986TIP3   OH211921   7.022   3.348   3.335
 3986TIP3    H111922   7.065   3.264   3.352
 3986TIP3    H211923   7.081   3.394   3.275
 3987TIP3   OH211924   4.099   2.438   5.861
 3987TIP3    H111925   4.194   2.435   5.853
 3987TIP3    H211926   4.084   2.467   5.951
 3988TIP3   OH211927   4.940   0.734   5.725
 3988TIP3    H111928   4.862   0.753   5.673
 3988TIP3    H211929   4.991   0.673   5.670
 3989TIP3   OH211930   0.127   4.720   5.729
 3989TIP3    H111931   0.214   4.744   5.695
 3989TIP3    H211932   0.106   4.638   5.684
 3990TIP3   OH211933   5.258   2.794   3.163
 3990TIP3    H111934   5.281   2.702   3.155
 3990TIP3    H211935   5.165   2.798   3.144
 3991TIP3   OH211936   1.727   5.733   3.039
 3991TIP3    H111937   1.820   5.730   3.015
 3991TIP3    H211938   1.695   5.815   3.002
 3992TIP3   OH211939   1.565   6.577   5.226
 3992TIP3    H111940   1.598   6.642   5.288
 3992TIP3    H211941   1.537   6.629   5.150
 3993TIP3   OH211942   6.803   3.949   2.419
 3993TIP3    H111943   6.878   3.972   2.474
 3993TIP3    H211944   6.729   3.996   2.458
 3994TIP3   OH211945   6.232   2.874   4.606
 3994TIP3    H111946   6.154   2.823   4.627
 3994TIP3    H211947   6.236   2.872   4.510
 3995TIP3   OH211948   2.988   6.400   3.009
 3995TIP3    H111949   2.954   6.374   2.923
 3995TIP3    H211950   3.040   6.326   3.038
 3996TIP3   OH211951   7.149   5.093   0.519
 3996TIP3    H111952   7.054   5.108   0.523
 3996TIP3    H211953   7.184   5.143   0.592
 3997TIP3   OH211954   0.257   0.289   1.471
 3997TIP3    H111955   0.282   0.366   1.522
 3997TIP3    H211956   0.182   0.319   1.419
 3998TIP3   OH211957   5.547   2.086   5.546
 3998TIP3    H111958   5.464   2.063   5.505
 3998TIP3    H211959   5.523   2.136   5.623
 3999TIP3   OH211960   3.180   2.759   3.612
 3999TIP3    H111961   3.227   2.679   3.640
 3999TIP3    H211962   3.213   2.827   3.671
 4000TIP3   OH211963   6.717   6.137   5.740
 4000TIP3    H111964   6.687   6.083   5.667
 4000TIP3    H211965   6.809   6.115   5.750
 4001TIP3   OH211966   0.933   2.944   5.852
 4001TIP3    H111967   1.021   2.974   5.828
 4001TIP3    H211968   0.919   2.866   5.798
 4002TIP3   OH211969   2.849   0.452   0.085
 4002TIP3    H111970   2.771   0.500   0.056
 4002TIP3    H211971   2.918   0.519   0.088
 4003TIP3   OH211972   3.289   4.399   4.718
 4003TIP3    H111973   3.370   4.442   4.746
 4003TIP3    H211974   3.226   4.421   4.786
 4004TIP3   OH211975   1.645   6.224   2.768
 4004TIP3    H111976   1.557   6.198   2.743
 4004TIP3    H211977   1.635   6.269   2.852
 4005TIP3   OH211978   4.363   1.218   1.970
 4005TIP3    H111979   4.370   1.188   2.060
 4005TIP3    H211980   4.452   1.244   1.946
 4006TIP3   OH211981   3.600   3.720   5.358
 4006TIP3    H111982   3.611   3.778   5.282
 4006TIP3    H211983   3.684   3.726   5.404
 4007TIP3   OH211984   4.887   2.730   5.068
 4007TIP3    H111985   4.922   2.642   5.058
 4007TIP3    H211986   4.933   2.766   5.145
 4008TIP3   OH211987   5.152   6.846   4.276
 4008TIP3    H111988   5.097   6.777   4.241
 4008TIP3    H211989   5.203   6.803   4.346
 4009TIP3   OH211990   5.363   6.219   5.679
 4009TIP3    H111991   5.363   6.268   5.761
 4009TIP3    H211992   5.287   6.253   5.630
 4010TIP3   OH211993   6.728   3.615   3.916
 4010TIP3    H111994   6.802   3.555   3.905
 4010TIP3    H211995   6.735   3.675   3.842
 4011TIP3   OH211996   1.269   2.873   1.021
 4011TIP3    H111997   1.176   2.847   1.020
 4011TIP3    H211998   1.278   2.931   1.096
 4012TIP3   OH211999   5.736   0.531   3.654
 4012TIP3    H112000   5.824   0.540   3.617
 4012TIP3    H212001   5.697   0.618   3.644
 4013TIP3   OH212002   5.472   4.719   3.937
 4013TIP3    H112003   5.388   4.737   3.978
 4013TIP3    H212004   5.537   4.757   3.996
 4014TIP3   OH212005   5.837   1.285   2.494
 4014TIP3    H112006   5.920   1.330   2.478
 4014TIP3    H212007   5.841   1.260   2.587
 4015TIP3   OH212008   6.238   0.562   4.707
 4015TIP3    H112009   6.293   0.589   4.780
 4015TIP3    H212010   6.211   0.472   4.729
 4016TIP3   OH212011   0.953   4.980   0.622
 4016TIP3    H112012   0.970   5.037   0.547
 4016TIP3    H212013   0.858   4.973   0.626
 4017TIP3   OH212014   4.408   0.810   5.577
 4017TIP3    H112015   4.358   0.849   5.505
 4017TIP3    H212016   4.359   0.832   5.656
 4018TIP3   OH212017   6.714   6.280   3.232
 4018TIP3    H112018   6.794   6.229   3.246
 4018TIP3    H212019   6.745   6.363   3.194
 4019TIP3   OH212020   5.297   4.584   5.499
 4019TIP3    H112021   5.339   4.590   5.413
 4019TIP3    H212022   5.249   4.501   5.497
 4020TIP3   OH212023   1.247   1.819   2.240
 4020TIP3    H112024   1.276   1.907   2.268
 4020TIP3    H212025   1.292   1.760   2.300
 4021TIP3   OH212026   5.388   1.933   0.880
 4021TIP3    H112027   5.294   1.917   0.884
 4021TIP3    H212028   5.403   1.966   0.791
 4022TIP3   OH212029   6.522   6.514   0.962
 4022TIP3    H112030   6.538   6.604   0.991
 4022TIP3    H212031   6.470   6.475   1.033
 4023TIP3   OH212032   4.733   1.141   3.768
 4023TIP3    H112033   4.769   1.217   3.722
 4023TIP3    H212034   4.679   1.179   3.838
 4024TIP3   OH212035   3.834   1.775   0.084
 4024TIP3    H112036   3.908   1.775   0.145
 4024TIP3    H212037   3.782   1.699   0.110
 4025TIP3   OH212038   6.339   3.456   0.546
 4025TIP3    H112039   6.383   3.447   0.461
 4025TIP3    H212040   6.269   3.391   0.544
 4026TIP3   OH212041   3.813   6.700   4.602
 4026TIP3    H112042   3.823   6.622   4.548
 4026TIP3    H212043   3.847   6.771   4.548
 4027TIP3   OH212044   1.579   2.822   1.674
 4027TIP3    H112045   1.595   2.741   1.723
 4027TIP3    H212046   1.629   2.811   1.593
 4028TIP3   OH212047   2.224   2.779   1.642
 4028TIP3    H112048   2.251   2.688   1.640
 4028TIP3    H212049   2.150   2.783   1.581
 4029TIP3   OH212050   2.160   6.158   0.574
 4029TIP3    H112051   2.088   6.117   0.526
 4029TIP3    H212052   2.209   6.085   0.612
 4030TIP3   OH212053   1.953   1.034   4.471
 4030TIP3    H112054   1.939   1.129   4.473
 4030TIP3    H212055   2.045   1.022   4.495
 4031TIP3   OH212056   5.992   1.661   4.826
 4031TIP3    H112057   5.965   1.569   4.827
 4031TIP3    H212058   6.028   1.674   4.739
 4032TIP3   OH212059   2.844   2.683   5.671
 4032TIP3    H112060   2.879   2.702   5.583
 4032TIP3    H212061   2.853   2.588   5.679
 4033TIP3   OH212062   2.046   0.672   1.100
 4033TIP3    H112063   2.052   0.734   1.028
 4033TIP3    H212064   1.973   0.703   1.153
 4034TIP3   OH212065   2.771   0.095   5.069
 4034TIP3    H112066   2.756   0.128   4.980
 4034TIP3    H212067   2.686   0.102   5.112
 4035TIP3   OH212068   5.876   4.033   1.368
 4035TIP3    H112069   5.921   4.100   1.316
 4035TIP3    H212070   5.784   4.039   1.340
 4036TIP3   OH212071   4.747   4.198   0.796
 4036TIP3    H112072   4.774   4.276   0.844
 4036TIP3    H212073   4.732   4.227   0.707
 4037TIP3   OH212074   2.153   5.868   1.939
 4037TIP3    H112075   2.127   5.959   1.924
 4037TIP3    H212076   2.070   5.822   1.952
 4038TIP3   OH212077   3.897   1.300   2.159
 4038TIP3    H112078   3.828   1.239   2.136
 4038TIP3    H212079   3.953   1.303   2.082
 4039TIP3   OH212080   0.509   1.518   1.688
 4039TIP3    H112081   0.502   1.564   1.604
 4039TIP3    H212082   0.430   1.464   1.692
 4040TIP3   OH212083   4.485   0.408   2.129
 4040TIP3    H112084   4.401   0.363   2.119
 4040TIP3    H212085   4.463   0.501   2.120
 4041TIP3   OH212086   0.737   2.199   3.292
 4041TIP3    H112087   0.782   2.179   3.210
 4041TIP3    H212088   0.656   2.242   3.264
 4042TIP3   OH212089   1.208   0.944   4.207
 4042TIP3    H112090   1.172   1.030   4.185
 4042TIP3    H212091   1.297   0.945   4.172
 4043TIP3   OH212092   4.798   4.631   0.804
 4043TIP3    H112093   4.745   4.710   0.796
 4043TIP3    H212094   4.887   4.663   0.821
 4044TIP3   OH212095   4.474   3.345   2.334
 4044TIP3    H112096   4.435   3.334   2.247
 4044TIP3    H212097   4.565   3.316   2.323
 4045TIP3   OH212098   6.855   4.752   2.713
 4045TIP3    H112099   6.794   4.785   2.647
 4045TIP3    H212100   6.878   4.665   2.682
 4046TIP3   OH212101   2.463   4.013   1.680
 4046TIP3    H112102   2.543   4.026   1.730
 4046TIP3    H212103   2.423   3.935   1.718
 4047TIP3   OH212104   6.669   0.769   2.244
 4047TIP3    H112105   6.640   0.710   2.314
 4047TIP3    H212106   6.624   0.852   2.263
 4048TIP3   OH212107   3.243   2.411   5.599
 4048TIP3    H112108   3.308   2.474   5.569
 4048TIP3    H212109   3.295   2.339   5.636
 4049TIP3   OH212110   2.442   1.618   4.170
 4049TIP3    H112111   2.386   1.576   4.235
 4049TIP3    H212112   2.465   1.702   4.208
 4050TIP3   OH212113   0.178   0.756   4.328
 4050TIP3    H112114   0.097   0.784   4.285
 4050TIP3    H212115   0.157   0.671   4.365
 4051TIP3   OH212116   1.189   0.100   1.359
 4051TIP3    H112117   1.225   0.045   1.290
 4051TIP3    H212118   1.110   0.055   1.388
 4052TIP3   OH212119   5.893   4.505   3.272
 4052TIP3    H112120   5.822   4.498   3.207
 4052TIP3    H212121   5.965   4.545   3.224
 4053TIP3   OH212122   7.019   3.152   4.605
 4053TIP3    H112123   6.947   3.094   4.629
 4053TIP3    H212124   6.976   3.230   4.570
 4054TIP3   OH212125   0.403   0.055   5.827
 4054TIP3    H112126   0.456   0.104   5.889
 4054TIP3    H212127   0.467   0.009   5.773
 4055TIP3   OH212128   3.186   1.794   3.696
 4055TIP3    H112129   3.179   1.718   3.639
 4055TIP3    H212130   3.271   1.784   3.739
 4056TIP3   OH212131   4.306   4.882   1.947
 4056TIP3    H112132   4.281   4.792   1.927
 4056TIP3    H212133   4.336   4.918   1.863
 4057TIP3   OH212134   0.282   1.657   4.295
 4057TIP3    H112135   0.327   1.702   4.224
 4057TIP3    H212136   0.294   1.564   4.277
 4058TIP3   OH212137   1.353   5.656   2.636
 4058TIP3    H112138   1.264   5.623   2.646
 4058TIP3    H212139   1.361   5.725   2.702
 4059TIP3   OH212140   3.895   3.626   2.954
 4059TIP3    H112141   3.875   3.537   2.923
 4059TIP3    H212142   3.977   3.648   2.911
 4060TIP3   OH212143   6.974   4.235   2.483
 4060TIP3    H112144   7.046   4.173   2.467
 4060TIP3    H212145   6.962   4.279   2.400
 4061TIP3   OH212146   0.257   6.486   3.786
 4061TIP3    H112147   0.349   6.511   3.780
 4061TIP3    H212148   0.226   6.485   3.695
 4062TIP3   OH212149   2.328   1.060   0.909
 4062TIP3    H112150   2.370   1.014   0.836
 4062TIP3    H212151   2.393   1.058   0.979
 4063TIP3   OH212152   2.003   4.368   2.652
 4063TIP3    H112153   1.979   4.380   2.560
 4063TIP3    H212154   2.066   4.438   2.669
 4064TIP3   OH212155   7.013   6.567   0.825
 4064TIP3    H112156   6.973   6.565   0.912
 4064TIP3    H212157   7.068   6.645   0.826
 4065TIP3   OH212158   2.427   1.513   1.093
 4065TIP3    H112159   2.479   1.462   1.031
 4065TIP3    H212160   2.343   1.467   1.097
 4066TIP3   OH212161   1.418   0.989   3.661
 4066TIP3    H112162   1.503   0.976   3.703
 4066TIP3    H212163   1.414   1.083   3.645
 4067TIP3   OH212164   5.930   1.266   1.380
 4067TIP3    H112165   5.942   1.253   1.286
 4067TIP3    H212166   5.911   1.178   1.414
 4068TIP3   OH212167   1.073   3.684   5.800
 4068TIP3    H112168   1.009   3.677   5.871
 4068TIP3    H212169   1.101   3.594   5.784
 4069TIP3   OH212170   1.021   2.720   1.034
 4069TIP3    H112171   1.009   2.640   0.984
 4069TIP3    H212172   0.951   2.778   1.004
 4070TIP3   OH212173   6.994   6.415   3.633
 4070TIP3    H112174   7.060   6.372   3.579
 4070TIP3    H212175   7.043   6.477   3.687
 4071TIP3   OH212176   0.862   4.783   1.756
 4071TIP3    H112177   0.855   4.784   1.852
 4071TIP3    H212178   0.950   4.751   1.739
 4072TIP3   OH212179   3.117   2.064   1.081
 4072TIP3    H112180   3.034   2.089   1.121
 4072TIP3    H212181   3.158   2.146   1.056
 4073TIP3   OH212182   2.381   3.332   1.711
 4073TIP3    H112183   2.332   3.352   1.631
 4073TIP3    H212184   2.441   3.406   1.721
 4074TIP3   OH212185   4.499   3.674   1.016
 4074TIP3    H112186   4.575   3.650   0.963
 4074TIP3    H212187   4.427   3.680   0.954
 4075TIP3   OH212188   4.344   0.721   3.070
 4075TIP3    H112189   4.428   0.676   3.077
 4075TIP3    H212190   4.360   0.793   3.010
 4076TIP3   OH212191   0.995   2.997   3.825
 4076TIP3    H112192   0.952   3.081   3.814
 4076TIP3    H212193   1.086   3.013   3.798
 4077TIP3   OH212194   2.383   4.951   5.801
 4077TIP3    H112195   2.342   4.984   5.722
 4077TIP3    H212196   2.457   5.011   5.816
 4078TIP3   OH212197   4.675   3.452   2.026
 4078TIP3    H112198   4.729   3.462   1.948
 4078TIP3    H212199   4.598   3.506   2.010
 4079TIP3   OH212200   6.894   5.809   3.397
 4079TIP3    H112201   6.875   5.715   3.394
 4079TIP3    H212202   6.883   5.833   3.489
 4080TIP3   OH212203   2.205   3.117   3.749
 4080TIP3    H112204   2.164   3.072   3.675
 4080TIP3    H212205   2.209   3.051   3.818
 4081TIP3   OH212206   1.426   5.650   4.715
 4081TIP3    H112207   1.366   5.682   4.783
 4081TIP3    H212208   1.368   5.620   4.645
 4082TIP3   OH212209   3.649   0.150   5.682
 4082TIP3    H112210   3.624   0.217   5.618
 4082TIP3    H212211   3.738   0.127   5.659
 4083TIP3   OH212212   1.911   3.692   2.942
 4083TIP3    H112213   1.974   3.706   2.871
 4083TIP3    H212214   1.868   3.609   2.920
 4084TIP3   OH212215   5.034   5.008   1.246
 4084TIP3    H112216   4.989   4.926   1.266
 4084TIP3    H212217   5.106   5.011   1.308
 4085TIP3   OH212218   4.511   3.530   1.779
 4085TIP3    H112219   4.566   3.608   1.787
 4085TIP3    H212220   4.459   3.529   1.859
 4086TIP3   OH212221   5.640   0.617   1.523
 4086TIP3    H112222   5.688   0.534   1.534
 4086TIP3    H212223   5.623   0.647   1.612
 4087TIP3   OH212224   4.007   5.601   1.508
 4087TIP3    H112225   4.049   5.515   1.502
 4087TIP3    H212226   4.047   5.641   1.585
 4088TIP3   OH212227   1.209   2.135   2.222
 4088TIP3    H112228   1.247   2.089   2.297
 4088TIP3    H212229   1.121   2.159   2.252
 4089TIP3   OH212230   7.040   5.453   2.659
 4089TIP3    H112231   7.093   5.437   2.581
 4089TIP3    H212232   6.964   5.396   2.648
 4090TIP3   OH212233   5.272   4.741   0.486
 4090TIP3    H112234   5.339   4.729   0.554
 4090TIP3    H212235   5.220   4.660   0.490
 4091TIP3   OH212236   5.470   1.346   0.551
 4091TIP3    H112237   5.493   1.359   0.643
 4091TIP3    H212238   5.374   1.354   0.549
 4092TIP3   OH212239   4.687   1.856   2.358
 4092TIP3    H112240   4.775   1.875   2.389
 4092TIP3    H212241   4.645   1.811   2.432
 4093TIP3   OH212242   3.217   3.691   1.928
 4093TIP3    H112243   3.157   3.745   1.876
 4093TIP3    H212244   3.191   3.708   2.019
 4094TIP3   OH212245   3.211   3.981   3.456
 4094TIP3    H112246   3.145   3.936   3.509
 4094TIP3    H212247   3.160   4.022   3.386
 4095TIP3   OH212248   1.894   2.642   5.035
 4095TIP3    H112249   1.923   2.728   5.065
 4095TIP3    H212250   1.889   2.589   5.114
 4096TIP3   OH212251   3.792   4.967   3.913
 4096TIP3    H112252   3.780   4.976   4.007
 4096TIP3    H212253   3.767   4.876   3.894
 4097TIP3   OH212254   3.241   0.361   3.225
 4097TIP3    H112255   3.215   0.392   3.312
 4097TIP3    H212256   3.245   0.441   3.172
 4098TIP3   OH212257   3.617   5.451   0.680
 4098TIP3    H112258   3.651   5.419   0.596
 4098TIP3    H212259   3.549   5.388   0.704
 4099TIP3   OH212260   2.745   3.386   5.632
 4099TIP3    H112261   2.703   3.427   5.557
 4099TIP3    H212262   2.678   3.330   5.670
 4100TIP3   OH212263   4.085   1.600   1.474
 4100TIP3    H112264   4.109   1.621   1.384
 4100TIP3    H212265   4.130   1.666   1.527
 4101TIP3   OH212266   5.363   3.013   2.904
 4101TIP3    H112267   5.427   3.016   2.833
 4101TIP3    H212268   5.398   2.949   2.966
 4102TIP3   OH212269   5.349   5.018   4.528
 4102TIP3    H112270   5.265   5.024   4.483
 4102TIP3    H212271   5.411   5.063   4.471
 4103TIP3   OH212272   5.783   3.750   0.478
 4103TIP3    H112273   5.810   3.839   0.501
 4103TIP3    H212274   5.726   3.723   0.550
 4104TIP3   OH212275   2.553   0.290   4.099
 4104TIP3    H112276   2.590   0.204   4.079
 4104TIP3    H212277   2.464   0.286   4.063
 4105TIP3   OH212278   1.951   4.979   3.689
 4105TIP3    H112279   1.881   4.949   3.748
 4105TIP3    H212280   2.012   5.025   3.746
 4106TIP3   OH212281   1.879   4.176   2.994
 4106TIP3    H112282   1.934   4.169   2.916
 4106TIP3    H212283   1.823   4.099   2.992
 4107TIP3   OH212284   1.951   5.193   2.485
 4107TIP3    H112285   1.870   5.243   2.492
 4107TIP3    H212286   1.998   5.212   2.566
 4108TIP3   OH212287   1.029   4.019   4.861
 4108TIP3    H112288   0.971   4.029   4.936
 4108TIP3    H212289   1.106   3.973   4.896
 4109TIP3   OH212290   4.980   5.353   4.000
 4109TIP3    H112291   4.884   5.361   4.001
 4109TIP3    H212292   5.003   5.359   3.907
 4110TIP3   OH212293  -0.004   1.137   0.890
 4110TIP3    H112294   0.070   1.101   0.842
 4110TIP3    H212295  -0.028   1.069   0.953
 4111TIP3   OH212296   6.640   0.691   3.006
 4111TIP3    H112297   6.555   0.735   3.008
 4111TIP3    H212298   6.686   0.726   3.082
 4112TIP3   OH212299   1.201   2.773   0.390
 4112TIP3    H112300   1.123   2.727   0.359
 4112TIP3    H212301   1.188   2.782   0.484
 4113TIP3   OH212302   6.903   3.219   1.487
 4113TIP3    H112303   6.911   3.305   1.447
 4113TIP3    H212304   6.909   3.236   1.581
 4114TIP3   OH212305   1.915   6.689  -0.008
 4114TIP3    H112306   1.856   6.620   0.023
 4114TIP3    H212307   1.947   6.730   0.072
 4115TIP3   OH212308   6.133   6.688   2.171
 4115TIP3    H112309   6.048   6.690   2.215
 4115TIP3    H212310   6.195   6.713   2.240
 4116TIP3   OH212311   1.296   6.746   1.590
 4116TIP3    H112312   1.381   6.734   1.632
 4116TIP3    H212313   1.309   6.820   1.530
 4117TIP3   OH212314   6.070   5.026   4.232
 4117TIP3    H112315   6.089   5.012   4.139
 4117TIP3    H212316   6.143   4.984   4.278
 4118TIP3   OH212317   5.662   6.659   2.477
 4118TIP3    H112318   5.713   6.720   2.529
 4118TIP3    H212319   5.607   6.613   2.541
 4119TIP3   OH212320   6.969   3.892   2.999
 4119TIP3    H112321   6.922   3.969   3.031
 4119TIP3    H212322   6.915   3.818   3.027
 4120TIP3   OH212323   2.098   6.779   4.075
 4120TIP3    H112324   2.150   6.789   3.995
 4120TIP3    H212325   2.114   6.688   4.102
 4121TIP3   OH212326   6.540   0.523   3.704
 4121TIP3    H112327   6.584   0.530   3.788
 4121TIP3    H212328   6.553   0.609   3.663
 4122TIP3   OH212329   5.825   2.477   0.193
 4122TIP3    H112330   5.837   2.569   0.168
 4122TIP3    H212331   5.730   2.465   0.194
 4123TIP3   OH212332   5.505   5.305   4.971
 4123TIP3    H112333   5.531   5.248   5.044
 4123TIP3    H212334   5.565   5.283   4.901
 4124TIP3   OH212335   6.152   5.433   4.015
 4124TIP3    H112336   6.227   5.396   3.969
 4124TIP3    H212337   6.173   5.424   4.108
 4125TIP3   OH212338   5.193   5.570   2.513
 4125TIP3    H112339   5.173   5.477   2.516
 4125TIP3    H212340   5.279   5.575   2.471
 4126TIP3   OH212341   6.812   4.117   4.814
 4126TIP3    H112342   6.769   4.114   4.729
 4126TIP3    H212343   6.740   4.128   4.877
 4127TIP3   OH212344   3.571   2.579   0.999
 4127TIP3    H112345   3.544   2.603   0.910
 4127TIP3    H212346   3.663   2.603   1.003
 4128TIP3   OH212347   2.999   0.824   3.036
 4128TIP3    H112348   2.935   0.753   3.042
 4128TIP3    H212349   3.009   0.855   3.126
 4129TIP3   OH212350   5.477   2.646   5.089
 4129TIP3    H112351   5.484   2.640   5.184
 4129TIP3    H212352   5.499   2.737   5.069
 4130TIP3   OH212353   2.788   3.233   4.316
 4130TIP3    H112354   2.829   3.257   4.233
 4130TIP3    H212355   2.835   3.155   4.344
 4131TIP3   OH212356   5.555   2.425   3.428
 4131TIP3    H112357   5.512   2.386   3.352
 4131TIP3    H212358   5.501   2.500   3.451
 4132TIP3   OH212359   5.927   3.470   5.409
 4132TIP3    H112360   6.022   3.481   5.403
 4132TIP3    H212361   5.916   3.381   5.444
 4133TIP3   OH212362   2.634   6.795   5.318
 4133TIP3    H112363   2.691   6.726   5.284
 4133TIP3    H212364   2.690   6.872   5.326
 4134TIP3   OH212365   5.498   1.509   0.957
 4134TIP3    H112366   5.409   1.536   0.979
 4134TIP3    H212367   5.499   1.505   0.861
 4135TIP3   OH212368   4.228   1.385   1.791
 4135TIP3    H112369   4.278   1.319   1.839
 4135TIP3    H212370   4.136   1.364   1.811
 4136TIP3   OH212371   0.995   2.481   4.082
 4136TIP3    H112372   0.914   2.512   4.041
 4136TIP3    H212373   0.966   2.432   4.158
 4137TIP3   OH212374   1.017   0.016   2.644
 4137TIP3    H112375   1.068   0.065   2.579
 4137TIP3    H212376   0.960   0.082   2.684
 4138TIP3   OH212377   5.310   4.176   1.545
 4138TIP3    H112378   5.217   4.151   1.549
 4138TIP3    H212379   5.318   4.248   1.608
 4139TIP3   OH212380   1.553   3.382   5.350
 4139TIP3    H112381   1.630   3.438   5.338
 4139TIP3    H212382   1.500   3.398   5.272
 4140TIP3   OH212383   1.413   4.510   5.359
 4140TIP3    H112384   1.382   4.601   5.352
 4140TIP3    H212385   1.502   4.518   5.391
 4141TIP3   OH212386   4.687   6.747   4.815
 4141TIP3    H112387   4.633   6.745   4.735
 4141TIP3    H212388   4.740   6.668   4.810
 4142TIP3   OH212389   0.191   0.937   3.687
 4142TIP3    H112390   0.220   1.027   3.671
 4142TIP3    H212391   0.114   0.926   3.630
 4143TIP3   OH212392   4.170   0.191   0.169
 4143TIP3    H112393   4.234   0.225   0.107
 4143TIP3    H212394   4.215   0.117   0.211
 4144TIP3   OH212395   0.665   0.639   5.758
 4144TIP3    H112396   0.614   0.718   5.774
 4144TIP3    H212397   0.602   0.568   5.768
 4145TIP3   OH212398   5.624   1.107   5.177
 4145TIP3    H112399   5.573   1.063   5.110
 4145TIP3    H212400   5.668   1.036   5.224
 4146TIP3   OH212401   0.144   3.950   1.732
 4146TIP3    H112402   0.155   3.885   1.663
 4146TIP3    H212403   0.145   3.900   1.813
 4147TIP3   OH212404   4.025   5.727   3.313
 4147TIP3    H112405   4.011   5.761   3.224
 4147TIP3    H212406   4.040   5.633   3.300
 4148TIP3   OH212407   7.074   5.580   4.618
 4148TIP3    H112408   7.038   5.498   4.651
 4148TIP3    H212409   7.168   5.567   4.619
 4149TIP3   OH212410   6.166   4.128   0.832
 4149TIP3    H112411   6.164   4.219   0.860
 4149TIP3    H212412   6.111   4.082   0.896
 4150TIP3   OH212413   0.320   6.543   0.164
 4150TIP3    H112414   0.316   6.583   0.077
 4150TIP3    H212415   0.408   6.507   0.170
 4151TIP3   OH212416   0.586   4.498   0.206
 4151TIP3    H112417   0.672   4.535   0.221
 4151TIP3    H212418   0.528   4.545   0.265
 4152TIP3   OH212419   2.273   0.440   0.037
 4152TIP3    H112420   2.323   0.363   0.011
 4152TIP3    H212421   2.221   0.410   0.112
 4153TIP3   OH212422   2.836   3.683   3.969
 4153TIP3    H112423   2.865   3.607   3.917
 4153TIP3    H212424   2.792   3.740   3.906
 4154TIP3   OH212425   6.695   3.117   3.329
 4154TIP3    H112426   6.726   3.196   3.284
 4154TIP3    H212427   6.773   3.062   3.337
 4155TIP3   OH212428   3.623   0.803   3.047
 4155TIP3    H112429   3.652   0.739   2.983
 4155TIP3    H212430   3.700   0.819   3.102
 4156TIP3   OH212431   6.168   0.956   2.654
 4156TIP3    H112432   6.196   1.029   2.709
 4156TIP3    H212433   6.248   0.925   2.611
 4157TIP3   OH212434   1.957   4.960   0.144
 4157TIP3    H112435   2.021   4.999   0.085
 4157TIP3    H212436   1.877   4.953   0.093
 4158TIP3   OH212437   1.293   0.125   5.472
 4158TIP3    H112438   1.243   0.205   5.493
 4158TIP3    H212439   1.227   0.065   5.436
 4159TIP3   OH212440   3.035   1.942   4.299
 4159TIP3    H112441   3.046   1.848   4.280
 4159TIP3    H212442   3.024   1.982   4.214
 4160TIP3   OH212443   2.494   2.536   5.530
 4160TIP3    H112444   2.427   2.604   5.530
 4160TIP3    H212445   2.553   2.561   5.602
 4161TIP3   OH212446   0.368   1.738   0.306
 4161TIP3    H112447   0.415   1.818   0.326
 4161TIP3    H212448   0.333   1.709   0.390
 4162TIP3   OH212449   6.370   2.385   0.622
 4162TIP3    H112450   6.369   2.402   0.528
 4162TIP3    H212451   6.295   2.327   0.637
 4163TIP3   OH212452   6.171   5.169   5.432
 4163TIP3    H112453   6.226   5.112   5.485
 4163TIP3    H212454   6.154   5.120   5.352
 4164TIP3   OH212455   0.414   3.538   1.551
 4164TIP3    H112456   0.450   3.460   1.593
 4164TIP3    H212457   0.325   3.545   1.585
 4165TIP3   OH212458   3.562   0.120   3.296
 4165TIP3    H112459   3.640   0.159   3.257
 4165TIP3    H212460   3.584   0.110   3.389
 4166TIP3   OH212461   0.866   5.354   2.586
 4166TIP3    H112462   0.918   5.299   2.527
 4166TIP3    H212463   0.808   5.293   2.631
 4167TIP3   OH212464   1.936   6.234   3.580
 4167TIP3    H112465   2.011   6.286   3.611
 4167TIP3    H212466   1.950   6.226   3.486
 4168TIP3   OH212467   5.775   4.823   3.398
 4168TIP3    H112468   5.737   4.742   3.433
 4168TIP3    H212469   5.776   4.810   3.303
 4169TIP3   OH212470   6.764   2.477   3.629
 4169TIP3    H112471   6.852   2.463   3.594
 4169TIP3    H212472   6.775   2.469   3.724
 4170TIP3   OH212473   2.651   1.557   3.938
 4170TIP3    H112474   2.703   1.629   3.974
 4170TIP3    H212475   2.600   1.597   3.867
 4171TIP3   OH212476   5.345   4.320   0.338
 4171TIP3    H112477   5.427   4.360   0.367
 4171TIP3    H212478   5.371   4.236   0.300
 4172TIP3   OH212479   4.376   1.077   3.378
 4172TIP3    H112480   4.469   1.099   3.365
 4172TIP3    H212481   4.377   0.987   3.410
 4173TIP3   OH212482   7.142   2.978   1.001
 4173TIP3    H112483   7.099   2.962   0.916
 4173TIP3    H212484   7.069   2.984   1.063
 4174TIP3   OH212485   5.056   0.580   0.038
 4174TIP3    H112486   5.040   0.557   0.130
 4174TIP3    H212487   5.145   0.547   0.021
 4175TIP3   OH212488   4.517   6.456   3.468
 4175TIP3    H112489   4.425   6.475   3.487
 4175TIP3    H212490   4.514   6.389   3.400
 4176TIP3   OH212491   0.966   5.103   2.486
 4176TIP3    H112492   0.912   5.111   2.407
 4176TIP3    H212493   1.022   5.027   2.469
 4177TIP3   OH212494   5.772   2.451   4.123
 4177TIP3    H112495   5.705   2.390   4.154
 4177TIP3    H212496   5.806   2.493   4.202
 4178TIP3   OH212497   6.139   6.141   1.231
 4178TIP3    H112498   6.132   6.049   1.207
 4178TIP3    H212499   6.207   6.176   1.174
 4179TIP3   OH212500   6.225   3.488   5.417
 4179TIP3    H112501   6.262   3.546   5.484
 4179TIP3    H212502   6.198   3.410   5.466
 4180TIP3   OH212503   1.523   1.658   4.997
 4180TIP3    H112504   1.454   1.592   4.993
 4180TIP3    H212505   1.498   1.716   5.068
 4181TIP3   OH212506   2.030   4.730   1.631
 4181TIP3    H112507   2.067   4.706   1.716
 4181TIP3    H212508   2.094   4.701   1.567
 4182TIP3   OH212509   5.012   4.164   0.503
 4182TIP3    H112510   4.985   4.122   0.421
 4182TIP3    H212511   4.935   4.214   0.530
 4183TIP3   OH212512   4.846   0.786   2.569
 4183TIP3    H112513   4.919   0.833   2.609
 4183TIP3    H212514   4.872   0.693   2.573
 4184TIP3   OH212515   5.676   2.223   3.906
 4184TIP3    H112516   5.635   2.242   3.990
 4184TIP3    H212517   5.699   2.309   3.870
 4185TIP3   OH212518   5.740   1.691   1.314
 4185TIP3    H112519   5.774   1.779   1.333
 4185TIP3    H212520   5.766   1.638   1.389
 4186TIP3   OH212521   2.964   0.248   1.547
 4186TIP3    H112522   3.020   0.279   1.476
 4186TIP3    H212523   2.928   0.329   1.585
 4187TIP3   OH212524   0.020   0.271   5.790
 4187TIP3    H112525   0.100   0.220   5.777
 4187TIP3    H212526   0.033   0.349   5.737
 4188TIP3   OH212527   3.299   0.487   5.390
 4188TIP3    H112528   3.279   0.409   5.338
 4188TIP3    H212529   3.309   0.454   5.479
 4189TIP3   OH212530   4.811   1.683   3.463
 4189TIP3    H112531   4.897   1.709   3.430
 4189TIP3    H212532   4.753   1.688   3.387
 4190TIP3   OH212533   3.922   0.052   0.126
 4190TIP3    H112534   3.973   0.046   0.046
 4190TIP3    H212535   3.917   0.146   0.144
 4191TIP3   OH212536   1.634   3.612   1.613
 4191TIP3    H112537   1.711   3.600   1.669
 4191TIP3    H212538   1.588   3.528   1.617
 4192TIP3   OH212539   0.726   2.226   0.642
 4192TIP3    H112540   0.715   2.245   0.549
 4192TIP3    H212541   0.792   2.288   0.672
 4193TIP3   OH212542   2.496   4.162   3.762
 4193TIP3    H112543   2.466   4.243   3.720
 4193TIP3    H212544   2.589   4.157   3.739
 4194TIP3   OH212545   5.207   1.957   2.042
 4194TIP3    H112546   5.220   2.050   2.060
 4194TIP3    H212547   5.271   1.936   1.974
 4195TIP3   OH212548   3.067   4.515   2.747
 4195TIP3    H112549   3.127   4.568   2.800
 4195TIP3    H212550   3.053   4.567   2.668
 4196TIP3   OH212551   3.430   0.973   0.642
 4196TIP3    H112552   3.385   0.925   0.573
 4196TIP3    H212553   3.461   0.905   0.702
 4197TIP3   OH212554   6.609   1.048   2.314
 4197TIP3    H112555   6.530   1.099   2.330
 4197TIP3    H212556   6.681   1.110   2.327
 4198TIP3   OH212557   4.976   3.683   0.138
 4198TIP3    H112558   5.068   3.661   0.122
 4198TIP3    H212559   4.927   3.626   0.078
 4199TIP3   OH212560   5.780   6.626   1.043
 4199TIP3    H112561   5.774   6.537   1.008
 4199TIP3    H212562   5.832   6.674   0.978
 4200TIP3   OH212563   5.738   6.213   2.012
 4200TIP3    H112564   5.678   6.250   1.947
 4200TIP3    H212565   5.824   6.247   1.987
 4201TIP3   OH212566   3.849   6.486   3.499
 4201TIP3    H112567   3.883   6.572   3.473
 4201TIP3    H212568   3.915   6.424   3.468
 4202TIP3   OH212569   6.912   4.495   4.375
 4202TIP3    H112570   6.939   4.500   4.467
 4202TIP3    H212571   6.834   4.439   4.377
 4203TIP3   OH212572   6.434   1.700   2.073
 4203TIP3    H112573   6.427   1.667   2.163
 4203TIP3    H212574   6.352   1.673   2.032
 4204TIP3   OH212575   0.827   1.355   4.475
 4204TIP3    H112576   0.916   1.388   4.482
 4204TIP3    H212577   0.777   1.406   4.539
 4205TIP3   OH212578   4.011   6.654   4.881
 4205TIP3    H112579   3.993   6.571   4.836
 4205TIP3    H212580   3.927   6.678   4.922
 4206TIP3   OH212581   3.608   2.369   5.520
 4206TIP3    H112582   3.689   2.317   5.530
 4206TIP3    H212583   3.544   2.323   5.573
 4207TIP3   OH212584   7.091   4.373   5.153
 4207TIP3    H112585   7.080   4.280   5.174
 4207TIP3    H212586   7.093   4.416   5.238
 4208TIP3   OH212587   4.683   4.304   1.665
 4208TIP3    H112588   4.646   4.278   1.581
 4208TIP3    H212589   4.747   4.373   1.643
 4209TIP3   OH212590   0.531   0.257   1.089
 4209TIP3    H112591   0.502   0.245   1.179
 4209TIP3    H212592   0.451   0.248   1.037
 4210TIP3   OH212593   6.640   4.201   5.757
 4210TIP3    H112594   6.724   4.184   5.800
 4210TIP3    H212595   6.660   4.197   5.664
 4211TIP3   OH212596   1.540   2.096   2.602
 4211TIP3    H112597   1.535   2.168   2.664
 4211TIP3    H212598   1.627   2.106   2.562
 4212TIP3   OH212599   0.611   6.249   2.335
 4212TIP3    H112600   0.624   6.254   2.240
 4212TIP3    H212601   0.606   6.156   2.353
 4213TIP3   OH212602   2.556   3.096   1.746
 4213TIP3    H112603   2.546   3.086   1.840
 4213TIP3    H212604   2.556   3.190   1.731
 4214TIP3   OH212605   2.117   4.684   0.609
 4214TIP3    H112606   2.063   4.760   0.628
 4214TIP3    H212607   2.055   4.614   0.587
 4215TIP3   OH212608   1.599   0.940   3.390
 4215TIP3    H112609   1.504   0.947   3.379
 4215TIP3    H212610   1.614   0.849   3.412
 4216TIP3   OH212611   5.324   6.816   3.640
 4216TIP3    H112612   5.260   6.814   3.569
 4216TIP3    H212613   5.275   6.785   3.717
 4217TIP3   OH212614   1.555   3.328   3.595
 4217TIP3    H112615   1.510   3.244   3.588
 4217TIP3    H212616   1.575   3.336   3.688
 4218TIP3   OH212617   0.200   5.102   2.273
 4218TIP3    H112618   0.240   5.170   2.327
 4218TIP3    H212619   0.107   5.123   2.272
 4219TIP3   OH212620   6.104   6.417   3.758
 4219TIP3    H112621   6.015   6.447   3.743
 4219TIP3    H212622   6.094   6.329   3.795
 4220TIP3   OH212623   5.323   3.890   0.072
 4220TIP3    H112624   5.290   3.979   0.087
 4220TIP3    H212625   5.418   3.901   0.070
 4221TIP3   OH212626   6.994   2.658   0.480
 4221TIP3    H112627   6.966   2.708   0.403
 4221TIP3    H212628   6.967   2.712   0.554
 4222TIP3   OH212629   5.676   6.276   3.315
 4222TIP3    H112630   5.737   6.228   3.259
 4222TIP3    H212631   5.609   6.309   3.254
 4223TIP3   OH212632   7.028   3.973   2.165
 4223TIP3    H112633   6.966   3.925   2.221
 4223TIP3    H212634   7.103   3.991   2.221
 4224TIP3   OH212635   5.290   4.460   1.678
 4224TIP3    H112636   5.298   4.419   1.765
 4224TIP3    H212637   5.303   4.553   1.695
 4225TIP3   OH212638   1.796   3.941   4.279
 4225TIP3    H112639   1.774   3.945   4.372
 4225TIP3    H212640   1.716   3.971   4.234
 4226TIP3   OH212641   1.233   4.439   4.079
 4226TIP3    H112642   1.253   4.347   4.062
 4226TIP3    H212643   1.156   4.458   4.026
 4227TIP3   OH212644   6.559   4.561   5.657
 4227TIP3    H112645   6.526   4.616   5.586
 4227TIP3    H212646   6.501   4.485   5.659
 4228TIP3   OH212647   4.316   3.211   4.796
 4228TIP3    H112648   4.260   3.285   4.776
 4228TIP3    H212649   4.315   3.158   4.716
 4229TIP3   OH212650   2.444   3.467   2.059
 4229TIP3    H112651   2.390   3.390   2.044
 4229TIP3    H212652   2.532   3.433   2.070
 4230TIP3   OH212653   3.740   4.536   5.841
 4230TIP3    H112654   3.760   4.604   5.906
 4230TIP3    H212655   3.800   4.465   5.862
 4231TIP3   OH212656   4.693   2.732   0.945
 4231TIP3    H112657   4.670   2.667   1.012
 4231TIP3    H212658   4.782   2.710   0.919
 4232TIP3   OH212659   3.660   2.824   0.741
 4232TIP3    H112660   3.749   2.857   0.726
 4232TIP3    H212661   3.671   2.729   0.751
 4233TIP3   OH212662   0.814   5.521   1.319
 4233TIP3    H112663   0.865   5.517   1.239
 4233TIP3    H212664   0.783   5.611   1.324
 4234TIP3   OH212665   3.941   0.724   0.358
 4234TIP3    H112666   3.898   0.645   0.391
 4234TIP3    H212667   4.032   0.715   0.386
 4235TIP3   OH212668   6.721   4.297   3.818
 4235TIP3    H112669   6.765   4.321   3.900
 4235TIP3    H212670   6.789   4.305   3.751
 4236TIP3   OH212671   4.113   6.340   5.717
 4236TIP3    H112672   4.097   6.252   5.751
 4236TIP3    H212673   4.098   6.332   5.623
 4237TIP3   OH212674   4.775   1.595   1.029
 4237TIP3    H112675   4.719   1.585   0.952
 4237TIP3    H212676   4.740   1.533   1.093
 4238TIP3   OH212677   0.444   0.699   4.298
 4238TIP3    H112678   0.467   0.684   4.390
 4238TIP3    H212679   0.352   0.727   4.301
 4239TIP3   OH212680   1.317   4.807   4.531
 4239TIP3    H112681   1.277   4.830   4.615
 4239TIP3    H212682   1.271   4.729   4.502
 4240TIP3   OH212683   5.342   2.476   2.696
 4240TIP3    H112684   5.339   2.551   2.635
 4240TIP3    H212685   5.279   2.499   2.764
 4241TIP3   OH212686   2.291   1.980   2.842
 4241TIP3    H112687   2.316   1.890   2.859
 4241TIP3    H212688   2.249   1.978   2.756
 4242TIP3   OH212689   5.689   4.097   2.434
 4242TIP3    H112690   5.719   4.036   2.367
 4242TIP3    H212691   5.695   4.048   2.515
 4243TIP3   OH212692   2.919   1.127   4.584
 4243TIP3    H112693   2.958   1.170   4.508
 4243TIP3    H212694   2.985   1.137   4.653
 4244TIP3   OH212695   2.527   3.692   0.158
 4244TIP3    H112696   2.467   3.685   0.083
 4244TIP3    H212697   2.475   3.660   0.232
 4245TIP3   OH212698   0.758   4.843   5.017
 4245TIP3    H112699   0.737   4.749   5.010
 4245TIP3    H212700   0.821   4.848   5.089
 4246TIP3   OH212701   1.118   3.758   3.430
 4246TIP3    H112702   1.050   3.825   3.424
 4246TIP3    H212703   1.085   3.686   3.377
 4247TIP3   OH212704   4.635   2.963   5.728
 4247TIP3    H112705   4.630   3.033   5.793
 4247TIP3    H212706   4.576   2.991   5.657
 4248TIP3   OH212707   2.561   6.149   2.662
 4248TIP3    H112708   2.515   6.208   2.603
 4248TIP3    H212709   2.578   6.071   2.610
 4249TIP3   OH212710   5.555   1.570   0.018
 4249TIP3    H112711   5.650   1.564   0.013
 4249TIP3    H212712   5.524   1.492  -0.028
 4250TIP3   OH212713   2.200   1.176   5.783
 4250TIP3    H112714   2.290   1.208   5.785
 4250TIP3    H212715   2.163   1.214   5.703
 4251TIP3   OH212716   0.834   1.185   4.862
 4251TIP3    H112717   0.771   1.247   4.901
 4251TIP3    H212718   0.894   1.164   4.934
 4252TIP3   OH212719   1.292   3.586   2.081
 4252TIP3    H112720   1.237   3.611   2.155
 4252TIP3    H212721   1.282   3.491   2.075
 4253TIP3   OH212722   6.510   1.388   2.832
 4253TIP3    H112723   6.546   1.314   2.880
 4253TIP3    H212724   6.498   1.457   2.898
 4254TIP3   OH212725   4.305   3.225   2.565
 4254TIP3    H112726   4.358   3.301   2.539
 4254TIP3    H212727   4.228   3.229   2.507
 4255TIP3   OH212728   4.281   6.304   4.392
 4255TIP3    H112729   4.240   6.233   4.441
 4255TIP3    H212730   4.346   6.261   4.337
 4256TIP3   OH212731   4.642   5.048   2.254
 4256TIP3    H112732   4.596   5.057   2.338
 4256TIP3    H212733   4.731   5.078   2.273
 4257TIP3   OH212734   1.609   5.776   0.737
 4257TIP3    H112735   1.524   5.819   0.723
 4257TIP3    H212736   1.656   5.836   0.795
 4258TIP3   OH212737   6.902   0.556   5.799
 4258TIP3    H112738   6.889   0.517   5.713
 4258TIP3    H212739   6.995   0.579   5.802
 4259TIP3   OH212740   2.060   2.550   0.892
 4259TIP3    H112741   1.990   2.498   0.933
 4259TIP3    H212742   2.137   2.494   0.896
 4260TIP3   OH212743   2.170   4.585   0.123
 4260TIP3    H112744   2.167   4.569   0.028
 4260TIP3    H212745   2.205   4.673   0.131
 4261TIP3   OH212746   5.362   6.013   1.791
 4261TIP3    H112747   5.287   6.016   1.851
 4261TIP3    H212748   5.400   5.926   1.804
 4262TIP3   OH212749   2.989   5.918   0.587
 4262TIP3    H112750   2.965   6.007   0.615
 4262TIP3    H212751   2.905   5.874   0.572
 4263TIP3   OH212752   1.401  -0.011   1.547
 4263TIP3    H112753   1.365   0.004   1.460
 4263TIP3    H212754   1.473   0.052   1.554
 4264TIP3   OH212755   2.995   2.525   5.237
 4264TIP3    H112756   2.901   2.530   5.251
 4264TIP3    H212757   3.007   2.546   5.144
 4265TIP3   OH212758   6.325   2.773   3.651
 4265TIP3    H112759   6.420   2.763   3.653
 4265TIP3    H212760   6.297   2.724   3.573
 4266TIP3   OH212761   4.812   5.551   0.608
 4266TIP3    H112762   4.723   5.568   0.639
 4266TIP3    H212763   4.856   5.508   0.682
 4267TIP3   OH212764   0.246   1.903   1.554
 4267TIP3    H112765   0.242   1.851   1.474
 4267TIP3    H212766   0.337   1.896   1.583
 4268TIP3   OH212767   1.382   2.340   0.746
 4268TIP3    H112768   1.328   2.407   0.787
 4268TIP3    H212769   1.471   2.363   0.770
 4269TIP3   OH212770   0.240   2.165   1.486
 4269TIP3    H112771   0.243   2.071   1.504
 4269TIP3    H212772   0.148   2.188   1.491
 4270TIP3   OH212773   5.895   1.191   3.668
 4270TIP3    H112774   5.944   1.190   3.750
 4270TIP3    H212775   5.803   1.191   3.695
 4271TIP3   OH212776   3.292   2.533   0.305
 4271TIP3    H112777   3.328   2.447   0.281
 4271TIP3    H212778   3.226   2.513   0.372
 4272TIP3   OH212779   1.005   3.957   2.248
 4272TIP3    H112780   0.948   3.926   2.318
 4272TIP3    H212781   1.044   3.878   2.211
 4273TIP3   OH212782   0.421   1.849   0.777
 4273TIP3    H112783   0.368   1.927   0.762
 4273TIP3    H212784   0.510   1.876   0.757
 4274TIP3   OH212785   1.437   3.806   4.347
 4274TIP3    H112786   1.479   3.722   4.336
 4274TIP3    H212787   1.490   3.867   4.296
 4275TIP3   OH212788   3.827   5.370   1.232
 4275TIP3    H112789   3.774   5.443   1.264
 4275TIP3    H212790   3.917   5.401   1.237
 4276TIP3   OH212791   5.413   3.912   4.578
 4276TIP3    H112792   5.388   3.996   4.541
 4276TIP3    H212793   5.404   3.923   4.673
 4277TIP3   OH212794   6.809   4.486   5.633
 4277TIP3    H112795   6.726   4.527   5.658
 4277TIP3    H212796   6.784   4.402   5.594
 4278TIP3   OH212797   3.982   2.327   4.795
 4278TIP3    H112798   3.897   2.297   4.827
 4278TIP3    H212799   3.965   2.352   4.704
 4279TIP3   OH212800   0.831   2.765   3.092
 4279TIP3    H112801   0.780   2.708   3.149
 4279TIP3    H212802   0.904   2.711   3.062
 4280TIP3   OH212803   2.024   3.643   3.194
 4280TIP3    H112804   1.971   3.680   3.264
 4280TIP3    H212805   1.962   3.624   3.123
 4281TIP3   OH212806   2.383   0.280   5.440
 4281TIP3    H112807   2.408   0.371   5.423
 4281TIP3    H212808   2.287   0.282   5.446
 4282TIP3   OH212809   3.982   1.929   3.672
 4282TIP3    H112810   4.006   1.838   3.688
 4282TIP3    H212811   3.943   1.928   3.584
 4283TIP3   OH212812   3.258   6.712   2.782
 4283TIP3    H112813   3.281   6.765   2.858
 4283TIP3    H212814   3.340   6.668   2.759
 4284TIP3   OH212815   1.470   4.861   4.094
 4284TIP3    H112816   1.447   4.949   4.125
 4284TIP3    H212817   1.461   4.805   4.170
 4285TIP3   OH212818   2.705   2.325   3.885
 4285TIP3    H112819   2.782   2.349   3.834
 4285TIP3    H212820   2.642   2.295   3.820
 4286TIP3   OH212821   4.475   3.813   1.263
 4286TIP3    H112822   4.559   3.806   1.310
 4286TIP3    H212823   4.493   3.776   1.177
 4287TIP3   OH212824   3.720   4.093   2.062
 4287TIP3    H112825   3.664   4.016   2.078
 4287TIP3    H212826   3.680   4.135   1.986
 4288TIP3   OH212827   0.867   2.768   0.008
 4288TIP3    H112828   0.795   2.710   0.031
 4288TIP3    H212829   0.826   2.842  -0.036
 4289TIP3   OH212830   5.446   4.890   3.140
 4289TIP3    H112831   5.538   4.874   3.118
 4289TIP3    H212832   5.446   4.978   3.177
 4290TIP3   OH212833   2.027   3.075   5.480
 4290TIP3    H112834   1.956   3.011   5.493
 4290TIP3    H212835   2.034   3.084   5.385
 4291TIP3   OH212836   6.118   5.716   3.709
 4291TIP3    H112837   6.127   5.621   3.701
 4291TIP3    H212838   6.105   5.746   3.619
 4292TIP3   OH212839   3.896   2.100   5.667
 4292TIP3    H112840   3.986   2.115   5.636
 4292TIP3    H212841   3.897   2.009   5.698
 4293TIP3   OH212842   1.176   3.818   2.479
 4293TIP3    H112843   1.102   3.873   2.506
 4293TIP3    H212844   1.184   3.833   2.385
 4294TIP3   OH212845   3.723   3.242   2.201
 4294TIP3    H112846   3.731   3.325   2.248
 4294TIP3    H212847   3.628   3.228   2.195
 4295TIP3   OH212848   5.169   6.052   4.453
 4295TIP3    H112849   5.218   6.128   4.485
 4295TIP3    H212850   5.093   6.090   4.409
 4296TIP3   OH212851   4.203   5.515   5.092
 4296TIP3    H112852   4.157   5.531   5.010
 4296TIP3    H212853   4.162   5.573   5.156
 4297TIP3   OH212854   4.755   2.156   4.885
 4297TIP3    H112855   4.694   2.098   4.839
 4297TIP3    H212856   4.830   2.101   4.907
 4298TIP3   OH212857   1.531   0.737   5.736
 4298TIP3    H112858   1.517   0.653   5.780
 4298TIP3    H212859   1.495   0.802   5.797
 4299TIP3   OH212860   0.300   5.399   4.830
 4299TIP3    H112861   0.287   5.311   4.866
 4299TIP3    H212862   0.394   5.414   4.836
 4300TIP3   OH212863   0.569   2.328   5.629
 4300TIP3    H112864   0.501   2.387   5.662
 4300TIP3    H212865   0.560   2.249   5.681
 4301TIP3   OH212866   1.590   1.810   2.481
 4301TIP3    H112867   1.542   1.859   2.548
 4301TIP3    H212868   1.658   1.764   2.530
 4302TIP3   OH212869   0.323   6.572   2.381
 4302TIP3    H112870   0.290   6.635   2.318
 4302TIP3    H212871   0.246   6.546   2.433
 4303TIP3   OH212872   2.547   2.721   1.231
 4303TIP3    H112873   2.556   2.630   1.261
 4303TIP3    H212874   2.605   2.727   1.155
 4304TIP3   OH212875   3.034   5.604   4.155
 4304TIP3    H112876   2.996   5.602   4.067
 4304TIP3    H212877   3.129   5.606   4.140
 4305TIP3   OH212878   0.277   5.864   1.815
 4305TIP3    H112879   0.277   5.953   1.780
 4305TIP3    H212880   0.227   5.813   1.752
 4306TIP3   OH212881   1.874   5.946   1.240
 4306TIP3    H112882   1.827   5.975   1.162
 4306TIP3    H212883   1.902   6.027   1.283
 4307TIP3   OH212884   2.902   6.541   1.547
 4307TIP3    H112885   2.975   6.487   1.577
 4307TIP3    H212886   2.847   6.552   1.624
 4308TIP3   OH212887   3.648   5.889   4.510
 4308TIP3    H112888   3.671   5.982   4.513
 4308TIP3    H212889   3.719   5.845   4.558
 4309TIP3   OH212890   6.146   0.146   5.379
 4309TIP3    H112891   6.060   0.105   5.364
 4309TIP3    H212892   6.128   0.216   5.442
 4310TIP3   OH212893   6.237   3.979   3.223
 4310TIP3    H112894   6.275   4.066   3.234
 4310TIP3    H212895   6.291   3.939   3.154
 4311TIP3   OH212896   6.899   1.519   2.214
 4311TIP3    H112897   6.842   1.535   2.138
 4311TIP3    H212898   6.986   1.508   2.176
 4312TIP3   OH212899   4.213   4.595   1.043
 4312TIP3    H112900   4.225   4.690   1.043
 4312TIP3    H212901   4.235   4.568   1.132
 4313TIP3   OH212902   2.678   5.452   0.144
 4313TIP3    H112903   2.676   5.371   0.194
 4313TIP3    H212904   2.587   5.483   0.144
 4314TIP3   OH212905   6.161   0.144   0.137
 4314TIP3    H112906   6.232   0.110   0.083
 4314TIP3    H212907   6.181   0.238   0.147
 4315TIP3   OH212908   6.347   2.978   3.152
 4315TIP3    H112909   6.323   3.061   3.112
 4315TIP3    H212910   6.423   2.948   3.101
 4316TIP3   OH212911   1.511   5.843   4.329
 4316TIP3    H112912   1.416   5.856   4.323
 4316TIP3    H212913   1.542   5.919   4.379
 4317TIP3   OH212914   3.988   0.833   4.316
 4317TIP3    H112915   4.071   0.785   4.314
 4317TIP3    H212916   4.010   0.919   4.351
 4318TIP3   OH212917   5.950   4.028   3.187
 4318TIP3    H112918   5.987   4.013   3.100
 4318TIP3    H212919   5.961   3.945   3.233
 4319TIP3   OH212920   2.230   6.787   5.484
 4319TIP3    H112921   2.299   6.797   5.419
 4319TIP3    H212922   2.150   6.775   5.433
 4320TIP3   OH212923   4.970   4.571   3.003
 4320TIP3    H112924   4.954   4.562   3.097
 4320TIP3    H212925   4.962   4.665   2.987
 4321TIP3   OH212926   2.321   3.656   1.536
 4321TIP3    H112927   2.309   3.567   1.503
 4321TIP3    H212928   2.401   3.686   1.492
 4322TIP3   OH212929   2.295   4.012   0.783
 4322TIP3    H112930   2.341   4.094   0.766
 4322TIP3    H212931   2.283   3.973   0.697
 4323TIP3   OH212932   0.980   0.768   0.283
 4323TIP3    H112933   0.926   0.762   0.204
 4323TIP3    H212934   0.929   0.824   0.342
 4324TIP3   OH212935   0.185   1.296   0.627
 4324TIP3    H112936   0.272   1.331   0.648
 4324TIP3    H212937   0.197   1.201   0.625
 4325TIP3   OH212938   5.734   3.456   4.212
 4325TIP3    H112939   5.736   3.535   4.265
 4325TIP3    H212940   5.689   3.481   4.131
 4326TIP3   OH212941   0.646   1.611   2.447
 4326TIP3    H112942   0.571   1.552   2.446
 4326TIP3    H212943   0.607   1.698   2.444
 4327TIP3   OH212944   2.611   1.388   0.666
 4327TIP3    H112945   2.685   1.428   0.620
 4327TIP3    H212946   2.553   1.462   0.687
 4328TIP3   OH212947   4.658   4.366   3.785
 4328TIP3    H112948   4.706   4.288   3.757
 4328TIP3    H212949   4.658   4.423   3.709
 4329TIP3   OH212950   4.620   5.236   1.601
 4329TIP3    H112951   4.652   5.184   1.526
 4329TIP3    H212952   4.603   5.323   1.564
 4330TIP3   OH212953   0.725   6.110   4.022
 4330TIP3    H112954   0.820   6.126   4.016
 4330TIP3    H212955   0.706   6.051   3.949
 4331TIP3   OH212956   3.665   6.226   4.092
 4331TIP3    H112957   3.691   6.291   4.158
 4331TIP3    H212958   3.570   6.235   4.085
 4332TIP3   OH212959   5.612   1.959   4.705
 4332TIP3    H112960   5.613   2.040   4.756
 4332TIP3    H212961   5.521   1.947   4.680
 4333TIP3   OH212962   5.392   5.368   4.562
 4333TIP3    H112963   5.466   5.313   4.537
 4333TIP3    H212964   5.317   5.309   4.566
 4334TIP3   OH212965   1.151   5.356   3.412
 4334TIP3    H112966   1.070   5.389   3.371
 4334TIP3    H212967   1.170   5.275   3.364
 4335TIP3   OH212968   1.823   6.759   2.671
 4335TIP3    H112969   1.899   6.801   2.711
 4335TIP3    H212970   1.793   6.821   2.605
 4336TIP3   OH212971   6.440   5.566   0.663
 4336TIP3    H112972   6.497   5.492   0.682
 4336TIP3    H212973   6.475   5.604   0.583
 4337TIP3   OH212974   3.143   4.038   5.540
 4337TIP3    H112975   3.193   3.957   5.539
 4337TIP3    H212976   3.070   4.021   5.480
 4338TIP3   OH212977   1.405   5.919   0.989
 4338TIP3    H112978   1.421   5.840   1.041
 4338TIP3    H212979   1.400   5.887   0.898
 4339TIP3   OH212980   5.722   3.566   3.593
 4339TIP3    H112981   5.725   3.632   3.661
 4339TIP3    H212982   5.692   3.487   3.638
 4340TIP3   OH212983   7.081   5.520   5.158
 4340TIP3    H112984   7.004   5.560   5.118
 4340TIP3    H212985   7.078   5.547   5.249
 4341TIP3   OH212986   0.710   1.699   3.201
 4341TIP3    H112987   0.681   1.717   3.111
 4341TIP3    H212988   0.746   1.610   3.198
 4342TIP3   OH212989   6.105   3.372   1.772
 4342TIP3    H112990   6.071   3.414   1.850
 4342TIP3    H212991   6.068   3.283   1.774
 4343TIP3   OH212992   1.227   1.147   0.252
 4343TIP3    H112993   1.168   1.214   0.288
 4343TIP3    H212994   1.287   1.195   0.196
 4344TIP3   OH212995   1.135   6.059   1.027
 4344TIP3    H112996   1.047   6.022   1.036
 4344TIP3    H212997   1.193   5.993   1.065
 4345TIP3   OH212998   6.483   2.674   3.056
 4345TIP3    H112999   6.499   2.696   3.147
 4345TIP3    H213000   6.560   2.708   3.009
 4346TIP3   OH213001   2.776   1.717   3.606
 4346TIP3    H113002   2.827   1.728   3.526
 4346TIP3    H213003   2.755   1.806   3.634
 4347TIP3   OH213004   7.119   2.630   1.445
 4347TIP3    H113005   7.065   2.704   1.417
 4347TIP3    H213006   7.059   2.555   1.442
 4348TIP3   OH213007   3.124   1.325   1.422
 4348TIP3    H113008   3.167   1.287   1.499
 4348TIP3    H213009   3.187   1.312   1.351
 4349TIP3   OH213010   6.246   0.224   1.688
 4349TIP3    H113011   6.234   0.246   1.595
 4349TIP3    H213012   6.339   0.201   1.695
 4350TIP3   OH213013   2.002   0.498   1.637
 4350TIP3    H113014   2.049   0.453   1.708
 4350TIP3    H213015   1.915   0.460   1.638
 4351TIP3   OH213016   2.989   1.892   0.925
 4351TIP3    H113017   3.057   1.949   0.961
 4351TIP3    H213018   2.914   1.905   0.983
 4352TIP3   OH213019   1.671   1.255   4.396
 4352TIP3    H113020   1.691   1.344   4.366
 4352TIP3    H213021   1.703   1.198   4.326
 4353TIP3   OH213022   3.727   5.724   3.734
 4353TIP3    H113023   3.770   5.809   3.725
 4353TIP3    H213024   3.664   5.721   3.662
 4354TIP3   OH213025   3.351   5.968   1.953
 4354TIP3    H113026   3.426   6.023   1.928
 4354TIP3    H213027   3.350   5.898   1.887
 4355TIP3   OH213028   2.123   6.508   5.627
 4355TIP3    H113029   2.129   6.477   5.717
 4355TIP3    H213030   2.067   6.585   5.632
 4356TIP3   OH213031   0.459   3.712   4.468
 4356TIP3    H113032   0.524   3.642   4.460
 4356TIP3    H213033   0.378   3.666   4.492
 4357TIP3   OH213034   3.453   1.569   4.936
 4357TIP3    H113035   3.449   1.623   4.857
 4357TIP3    H213036   3.537   1.591   4.976
 4358TIP3   OH213037   6.749   3.782   3.695
 4358TIP3    H113038   6.706   3.855   3.741
 4358TIP3    H213039   6.811   3.824   3.636
 4359TIP3   OH213040   0.898   3.242   3.292
 4359TIP3    H113041   0.873   3.294   3.216
 4359TIP3    H213042   0.910   3.153   3.258
 4360TIP3   OH213043   1.185   5.768   0.310
 4360TIP3    H113044   1.158   5.712   0.382
 4360TIP3    H213045   1.106   5.817   0.286
 4361TIP3   OH213046   3.181   1.698   1.284
 4361TIP3    H113047   3.115   1.701   1.353
 4361TIP3    H213048   3.157   1.623   1.231
 4362TIP3   OH213049   4.329   6.380   1.809
 4362TIP3    H113050   4.237   6.358   1.796
 4362TIP3    H213051   4.339   6.465   1.766
 4363TIP3   OH213052   1.894   0.533   0.096
 4363TIP3    H113053   1.980   0.574   0.101
 4363TIP3    H213054   1.832   0.606   0.090
 4364TIP3   OH213055   1.601   1.020   0.518
 4364TIP3    H113056   1.680   1.037   0.568
 4364TIP3    H213057   1.625   1.036   0.427
 4365TIP3   OH213058   0.676   5.662   4.362
 4365TIP3    H113059   0.657   5.751   4.392
 4365TIP3    H213060   0.681   5.669   4.267
 4366TIP3   OH213061   2.187   2.641   5.799
 4366TIP3    H113062   2.224   2.675   5.718
 4366TIP3    H213063   2.262   2.607   5.848
 4367TIP3   OH213064   0.358   2.512   1.339
 4367TIP3    H113065   0.424   2.444   1.323
 4367TIP3    H213066   0.397   2.592   1.305
 4368TIP3   OH213067   6.431   3.163   5.623
 4368TIP3    H113068   6.420   3.145   5.530
 4368TIP3    H213069   6.490   3.094   5.654
 4369TIP3   OH213070   2.204   4.257   1.190
 4369TIP3    H113071   2.122   4.214   1.215
 4369TIP3    H213072   2.206   4.251   1.094
 4370TIP3   OH213073   4.131   6.477   4.251
 4370TIP3    H113074   4.189   6.404   4.269
 4370TIP3    H213075   4.078   6.486   4.329
 4371TIP3   OH213076   3.833   1.419   3.575
 4371TIP3    H113077   3.795   1.491   3.524
 4371TIP3    H213078   3.769   1.403   3.644
 4372TIP3   OH213079   5.860   0.722   3.954
 4372TIP3    H113080   5.858   0.775   4.034
 4372TIP3    H213081   5.801   0.649   3.971
 4373TIP3   OH213082   6.447   2.370   3.968
 4373TIP3    H113083   6.361   2.329   3.976
 4373TIP3    H213084   6.508   2.307   4.005
 4374TIP3   OH213085   6.418   1.311   2.031
 4374TIP3    H113086   6.458   1.318   2.117
 4374TIP3    H213087   6.331   1.351   2.041
 4375TIP3   OH213088   0.917   4.855   5.227
 4375TIP3    H113089   0.872   4.933   5.261
 4375TIP3    H213090   1.007   4.863   5.258
 4376TIP3   OH213091   5.062   0.823   3.767
 4376TIP3    H113092   5.091   0.855   3.681
 4376TIP3    H213093   5.037   0.732   3.750
 4377TIP3   OH213094   0.611   5.900   4.431
 4377TIP3    H113095   0.572   5.929   4.349
 4377TIP3    H213096   0.552   5.932   4.499
 4378TIP3   OH213097   3.273   1.507   3.910
 4378TIP3    H113098   3.190   1.516   3.863
 4378TIP3    H213099   3.336   1.554   3.856
 4379TIP3   OH213100   1.158   5.836   1.624
 4379TIP3    H113101   1.068   5.868   1.616
 4379TIP3    H213102   1.164   5.764   1.560
 4380TIP3   OH213103   6.476   1.729   2.771
 4380TIP3    H113104   6.426   1.810   2.764
 4380TIP3    H213105   6.454   1.680   2.692
 4381TIP3   OH213106   4.436   2.733   5.718
 4381TIP3    H113107   4.530   2.719   5.708
 4381TIP3    H213108   4.425   2.759   5.809
 4382TIP3   OH213109   3.025   0.527   3.859
 4382TIP3    H113110   3.082   0.452   3.845
 4382TIP3    H213111   2.954   0.494   3.914
 4383TIP3   OH213112   4.904   4.898   2.538
 4383TIP3    H113113   4.975   4.838   2.563
 4383TIP3    H213114   4.844   4.843   2.488
 4384TIP3   OH213115   4.613   2.257   4.512
 4384TIP3    H113116   4.607   2.316   4.587
 4384TIP3    H213117   4.684   2.197   4.534
 4385TIP3   OH213118   3.257   2.953   5.767
 4385TIP3    H113119   3.292   2.869   5.799
 4385TIP3    H213120   3.286   2.957   5.676
 4386TIP3   OH213121   5.754   5.603   0.294
 4386TIP3    H113122   5.674   5.598   0.242
 4386TIP3    H213123   5.810   5.533   0.260
 4387TIP3   OH213124   6.950   2.996   3.375
 4387TIP3    H113125   7.009   3.050   3.427
 4387TIP3    H213126   7.008   2.939   3.324
 4388TIP3   OH213127   4.886   6.248   3.448
 4388TIP3    H113128   4.881   6.343   3.463
 4388TIP3    H213129   4.799   6.216   3.474
 4389TIP3   OH213130   1.746   6.050   5.564
 4389TIP3    H113131   1.807   5.986   5.527
 4389TIP3    H213132   1.792   6.134   5.559
 4390TIP3   OH213133   3.507   3.166   0.555
 4390TIP3    H113134   3.587   3.218   0.562
 4390TIP3    H213135   3.535   3.084   0.515
 4391TIP3   OH213136   5.442   5.849   5.151
 4391TIP3    H113137   5.500   5.918   5.184
 4391TIP3    H213138   5.479   5.768   5.185
 4392TIP3   OH213139   4.785   3.243   5.175
 4392TIP3    H113140   4.797   3.296   5.255
 4392TIP3    H213141   4.735   3.300   5.116
 4393TIP3   OH213142   4.613   6.164   1.141
 4393TIP3    H113143   4.552   6.238   1.148
 4393TIP3    H213144   4.696   6.198   1.174
 4394TIP3   OH213145   4.184   3.432   4.742
 4394TIP3    H113146   4.121   3.402   4.676
 4394TIP3    H213147   4.173   3.527   4.745
 4395TIP3   OH213148   5.710   6.172   2.638
 4395TIP3    H113149   5.782   6.197   2.695
 4395TIP3    H213150   5.745   6.177   2.550
 4396TIP3   OH213151   0.150   6.357   1.920
 4396TIP3    H113152   0.174   6.316   2.004
 4396TIP3    H213153   0.064   6.321   1.900
 4397TIP3   OH213154   1.898   5.305   1.790
 4397TIP3    H113155   1.831   5.308   1.722
 4397TIP3    H213156   1.869   5.368   1.856
 4398TIP3   OH213157   2.578   5.181   4.951
 4398TIP3    H113158   2.559   5.137   4.868
 4398TIP3    H213159   2.670   5.160   4.967
 4399TIP3   OH213160   6.779   1.314   3.381
 4399TIP3    H113161   6.844   1.347   3.444
 4399TIP3    H213162   6.727   1.391   3.357
 4400TIP3   OH213163   1.081   2.582   3.309
 4400TIP3    H113164   1.035   2.583   3.393
 4400TIP3    H213165   1.097   2.674   3.289
 4401TIP3   OH213166   5.991   4.191   3.468
 4401TIP3    H113167   5.970   4.146   3.387
 4401TIP3    H213168   6.059   4.254   3.444
 4402TIP3   OH213169   1.158   6.428   2.665
 4402TIP3    H113170   1.200   6.503   2.708
 4402TIP3    H213171   1.073   6.462   2.637
 4403TIP3   OH213172   2.757   5.545   5.074
 4403TIP3    H113173   2.841   5.588   5.058
 4403TIP3    H213174   2.780   5.465   5.121
 4404TIP3   OH213175   4.914   0.293   5.150
 4404TIP3    H113176   4.866   0.357   5.202
 4404TIP3    H213177   4.974   0.252   5.212
 4405TIP3   OH213178   3.727   2.642   0.138
 4405TIP3    H113179   3.791   2.571   0.124
 4405TIP3    H213180   3.643   2.602   0.116
 4406TIP3   OH213181   1.301   0.593   0.643
 4406TIP3    H113182   1.213   0.607   0.607
 4406TIP3    H213183   1.335   0.681   0.659
 4407TIP3   OH213184   1.744   1.013   2.982
 4407TIP3    H113185   1.663   1.001   2.932
 4407TIP3    H213186   1.803   1.056   2.920
 4408TIP3   OH213187   4.891   5.526   5.725
 4408TIP3    H113188   4.869   5.433   5.721
 4408TIP3    H213189   4.807   5.570   5.734
 4409TIP3   OH213190   0.016   5.222   4.854
 4409TIP3    H113191   0.047   5.137   4.885
 4409TIP3    H213192  -0.079   5.220   4.868
 4410TIP3   OH213193  -0.027   1.503   4.532
 4410TIP3    H113194   0.067   1.520   4.540
 4410TIP3    H213195  -0.045   1.433   4.595
 4411TIP3   OH213196   3.016   1.075   2.157
 4411TIP3    H113197   2.996   1.114   2.072
 4411TIP3    H213198   3.079   1.136   2.197
 4412TIP3   OH213199   1.318   4.176   4.633
 4412TIP3    H113200   1.297   4.092   4.593
 4412TIP3    H213201   1.239   4.229   4.622
 4413TIP3   OH213202   3.111   4.441   3.862
 4413TIP3    H113203   3.166   4.454   3.940
 4413TIP3    H213204   3.092   4.530   3.831
 4414TIP3   OH213205   6.759   5.178   1.714
 4414TIP3    H113206   6.810   5.254   1.742
 4414TIP3    H213207   6.769   5.115   1.785
 4415TIP3   OH213208   0.945   5.580   0.098
 4415TIP3    H113209   0.876   5.596   0.162
 4415TIP3    H213210   1.022   5.556   0.150
 4416TIP3   OH213211   4.310   5.495   1.389
 4416TIP3    H113212   4.340   5.500   1.299
 4416TIP3    H213213   4.315   5.585   1.421
 4417TIP3   OH213214   6.672   3.342   3.783
 4417TIP3    H113215   6.698   3.250   3.789
 4417TIP3    H213216   6.751   3.388   3.756
 4418TIP3   OH213217   1.795   6.672   1.816
 4418TIP3    H113218   1.731   6.686   1.887
 4418TIP3    H213219   1.827   6.760   1.796
 4419TIP3   OH213220   1.172   5.592   4.199
 4419TIP3    H113221   1.151   5.534   4.273
 4419TIP3    H213222   1.152   5.539   4.122
 4420TIP3   OH213223   4.720   5.731   2.680
 4420TIP3    H113224   4.810   5.709   2.705
 4420TIP3    H213225   4.679   5.646   2.664
 4421TIP3   OH213226   0.308   2.164   3.046
 4421TIP3    H113227   0.215   2.184   3.037
 4421TIP3    H213228   0.311   2.089   3.106
 4422TIP3   OH213229   2.131   2.382   1.192
 4422TIP3    H113230   2.070   2.389   1.118
 4422TIP3    H213231   2.217   2.397   1.152
 4423TIP3   OH213232   0.037   6.311   3.553
 4423TIP3    H113233   0.035   6.248   3.481
 4423TIP3    H213234   0.098   6.273   3.616
 4424TIP3   OH213235   6.145   0.614   1.929
 4424TIP3    H113236   6.129   0.520   1.938
 4424TIP3    H213237   6.240   0.621   1.922
 4425TIP3   OH213238   2.911   1.248   2.600
 4425TIP3    H113239   2.888   1.179   2.538
 4425TIP3    H213240   2.998   1.277   2.573
 4426TIP3   OH213241   6.476   2.635   3.913
 4426TIP3    H113242   6.501   2.629   3.821
 4426TIP3    H213243   6.461   2.544   3.940
 4427TIP3   OH213244   2.259   2.640   2.281
 4427TIP3    H113245   2.212   2.594   2.350
 4427TIP3    H213246   2.310   2.707   2.326
 4428TIP3   OH213247   3.624   5.929   1.394
 4428TIP3    H113248   3.671   5.847   1.381
 4428TIP3    H213249   3.647   5.957   1.483
 4429TIP3   OH213250   2.662   1.424   3.527
 4429TIP3    H113251   2.609   1.395   3.601
 4429TIP3    H213252   2.620   1.504   3.497
 4430TIP3   OH213253   0.754   0.514   5.518
 4430TIP3    H113254   0.744   0.563   5.600
 4430TIP3    H213255   0.842   0.538   5.487
 4431TIP3   OH213256   6.583   0.863   4.651
 4431TIP3    H113257   6.616   0.782   4.690
 4431TIP3    H213258   6.640   0.880   4.577
 4432TIP3   OH213259   0.546   1.845   2.523
 4432TIP3    H113260   0.467   1.816   2.568
 4432TIP3    H213261   0.557   1.937   2.549
 4433TIP3   OH213262   0.102   0.009   1.361
 4433TIP3    H113263   0.140   0.097   1.373
 4433TIP3    H213264   0.146  -0.025   1.283
 4434TIP3   OH213265   1.033   2.018   5.040
 4434TIP3    H113266   0.954   1.999   4.989
 4434TIP3    H213267   1.037   2.113   5.045
 4435TIP3   OH213268   0.335   5.332   2.829
 4435TIP3    H113269   0.313   5.341   2.737
 4435TIP3    H213270   0.305   5.244   2.853
 4436TIP3   OH213271   4.038   1.218   1.212
 4436TIP3    H113272   4.042   1.136   1.163
 4436TIP3    H213273   4.120   1.221   1.261
 4437TIP3   OH213274   5.613   6.221   0.313
 4437TIP3    H113275   5.607   6.316   0.296
 4437TIP3    H213276   5.623   6.215   0.408
 4438TIP3   OH213277   5.918   0.260   2.881
 4438TIP3    H113278   5.969   0.334   2.912
 4438TIP3    H213279   5.981   0.203   2.837
 4439TIP3   OH213280   6.553   3.747   0.662
 4439TIP3    H113281   6.479   3.796   0.697
 4439TIP3    H213282   6.520   3.709   0.580
 4440TIP3   OH213283   4.670   4.768   5.756
 4440TIP3    H113284   4.638   4.714   5.829
 4440TIP3    H213285   4.600   4.765   5.691
 4441TIP3   OH213286   5.246   5.054   1.485
 4441TIP3    H113287   5.226   4.965   1.514
 4441TIP3    H213288   5.271   5.101   1.565
 4442TIP3   OH213289   6.623   1.206   4.712
 4442TIP3    H113290   6.557   1.164   4.656
 4442TIP3    H213291   6.576   1.230   4.791
 4443TIP3   OH213292   0.490   1.139   1.693
 4443TIP3    H113293   0.445   1.138   1.608
 4443TIP3    H213294   0.556   1.070   1.685
 4444TIP3   OH213295   6.479   3.852   3.046
 4444TIP3    H113296   6.530   3.857   2.965
 4444TIP3    H213297   6.521   3.782   3.096
 4445TIP3   OH213298   0.526   6.544   1.708
 4445TIP3    H113299   0.448   6.575   1.753
 4445TIP3    H213300   0.532   6.600   1.630
 4446TIP3   OH213301   6.689   5.631   1.681
 4446TIP3    H113302   6.704   5.660   1.591
 4446TIP3    H213303   6.606   5.584   1.678
 4447TIP3   OH213304   0.267   2.038   2.661
 4447TIP3    H113305   0.194   2.091   2.626
 4447TIP3    H213306   0.343   2.067   2.611
 4448TIP3   OH213307   2.105   3.479   3.560
 4448TIP3    H113308   2.140   3.471   3.648
 4448TIP3    H213309   2.137   3.565   3.530
 4449TIP3   OH213310   5.764   2.212   4.828
 4449TIP3    H113311   5.771   2.190   4.921
 4449TIP3    H213312   5.842   2.173   4.788
 4450TIP3   OH213313   4.656   0.188   2.214
 4450TIP3    H113314   4.588   0.255   2.203
 4450TIP3    H213315   4.609   0.112   2.249
 4451TIP3   OH213316   4.888   2.117   4.089
 4451TIP3    H113317   4.915   2.190   4.145
 4451TIP3    H213318   4.931   2.040   4.127
 4452TIP3   OH213319   0.035   2.101   0.284
 4452TIP3    H113320   0.033   2.056   0.369
 4452TIP3    H213321  -0.041   2.159   0.287
 4453TIP3   OH213322   4.623   4.273   2.325
 4453TIP3    H113323   4.708   4.317   2.318
 4453TIP3    H213324   4.567   4.318   2.262
 4454TIP3   OH213325   5.468   1.344   4.204
 4454TIP3    H113326   5.416   1.266   4.185
 4454TIP3    H213327   5.557   1.311   4.218
 4455TIP3   OH213328   6.922   5.878   1.614
 4455TIP3    H113329   6.857   5.939   1.648
 4455TIP3    H213330   6.909   5.880   1.519
 4456TIP3   OH213331   5.355   2.193   2.034
 4456TIP3    H113332   5.390   2.275   1.999
 4456TIP3    H213333   5.431   2.138   2.047
 4457TIP3   OH213334   5.103   6.513   2.356
 4457TIP3    H113335   5.135   6.492   2.268
 4457TIP3    H213336   5.007   6.517   2.346
 4458TIP3   OH213337   6.791   1.543   2.674
 4458TIP3    H113338   6.795   1.458   2.631
 4458TIP3    H213339   6.789   1.606   2.602
 4459TIP3   OH213340   3.660   6.217   0.577
 4459TIP3    H113341   3.746   6.217   0.534
 4459TIP3    H213342   3.678   6.196   0.668
 4460TIP3   OH213343   0.436   5.997   5.684
 4460TIP3    H113344   0.355   6.047   5.702
 4460TIP3    H213345   0.418   5.910   5.718
 4461TIP3   OH213346   2.222   0.857   1.519
 4461TIP3    H113347   2.156   0.816   1.575
 4461TIP3    H213348   2.253   0.786   1.464
 4462TIP3   OH213349   1.259   0.929   2.651
 4462TIP3    H113350   1.351   0.906   2.662
 4462TIP3    H213351   1.211   0.848   2.666
 4463TIP3   OH213352   4.358   2.419   3.313
 4463TIP3    H113353   4.297   2.376   3.373
 4463TIP3    H213354   4.437   2.432   3.365
 4464TIP3   OH213355   3.946   1.471   3.270
 4464TIP3    H113356   3.910   1.502   3.353
 4464TIP3    H213357   4.035   1.443   3.292
 4465TIP3   OH213358   0.785   4.741   3.050
 4465TIP3    H113359   0.765   4.653   3.020
 4465TIP3    H213360   0.701   4.778   3.076
 4466TIP3   OH213361   1.451   6.523   4.362
 4466TIP3    H113362   1.441   6.434   4.395
 4466TIP3    H213363   1.543   6.530   4.337
 4467TIP3   OH213364   1.099   1.680   2.693
 4467TIP3    H113365   1.021   1.699   2.746
 4467TIP3    H213366   1.094   1.586   2.675
 4468TIP3   OH213367   1.211   5.780   4.803
 4468TIP3    H113368   1.162   5.812   4.878
 4468TIP3    H213369   1.200   5.848   4.736
 4469TIP3   OH213370   2.844   0.767   3.775
 4469TIP3    H113371   2.910   0.698   3.779
 4469TIP3    H213372   2.880   0.837   3.830
 4470TIP3   OH213373   4.965   6.442   1.811
 4470TIP3    H113374   4.927   6.354   1.804
 4470TIP3    H213375   4.900   6.493   1.860
 4471TIP3   OH213376   1.312   1.194   3.190
 4471TIP3    H113377   1.237   1.235   3.233
 4471TIP3    H213378   1.385   1.254   3.205
 4472TIP3   OH213379   6.941   1.090   1.915
 4472TIP3    H113380   6.949   1.023   1.847
 4472TIP3    H213381   7.027   1.092   1.957
 4473TIP3   OH213382   3.828   0.879   0.594
 4473TIP3    H113383   3.896   0.826   0.635
 4473TIP3    H213384   3.819   0.841   0.506
 4474TIP3   OH213385   1.214   4.804   2.076
 4474TIP3    H113386   1.144   4.809   2.142
 4474TIP3    H213387   1.252   4.717   2.087
 4475TIP3   OH213388   1.360   5.022   2.165
 4475TIP3    H113389   1.311   4.948   2.129
 4475TIP3    H213390   1.411   5.055   2.092
 4476TIP3   OH213391   5.502   0.351   1.591
 4476TIP3    H113392   5.493   0.257   1.576
 4476TIP3    H213393   5.419   0.388   1.562
 4477TIP3   OH213394   3.875   5.056   4.436
 4477TIP3    H113395   3.805   4.998   4.467
 4477TIP3    H213396   3.829   5.135   4.408
 4478TIP3   OH213397   6.375   6.145   3.619
 4478TIP3    H113398   6.434   6.168   3.691
 4478TIP3    H213399   6.404   6.059   3.591
 4479TIP3   OH213400   4.166   3.755   5.250
 4479TIP3    H113401   4.256   3.721   5.245
 4479TIP3    H213402   4.129   3.739   5.163
 4480TIP3   OH213403   4.297   0.999   5.367
 4480TIP3    H113404   4.380   1.046   5.362
 4480TIP3    H213405   4.239   1.047   5.307
 4481TIP3   OH213406   1.454   5.839   0.273
 4481TIP3    H113407   1.511   5.806   0.343
 4481TIP3    H213408   1.370   5.795   0.287
 4482TIP3   OH213409   5.705   2.342   0.891
 4482TIP3    H113410   5.717   2.430   0.857
 4482TIP3    H213411   5.685   2.289   0.814
 4483TIP3   OH213412   6.626   1.538   4.208
 4483TIP3    H113413   6.697   1.549   4.146
 4483TIP3    H213414   6.611   1.626   4.243
 4484TIP3   OH213415   5.015   3.599   1.086
 4484TIP3    H113416   4.953   3.555   1.027
 4484TIP3    H213417   4.972   3.597   1.171
 4485TIP3   OH213418   4.017   3.483   5.418
 4485TIP3    H113419   4.042   3.509   5.330
 4485TIP3    H213420   3.932   3.441   5.408
 4486TIP3   OH213421   1.993   6.468   1.786
 4486TIP3    H113422   2.056   6.483   1.715
 4486TIP3    H213423   1.923   6.531   1.770
 4487TIP3   OH213424   1.194   5.957   2.371
 4487TIP3    H113425   1.199   6.051   2.388
 4487TIP3    H213426   1.163   5.919   2.453
 4488TIP3   OH213427   0.247   0.790   0.392
 4488TIP3    H113428   0.314   0.859   0.391
 4488TIP3    H213429   0.281   0.725   0.454
 4489TIP3   OH213430   2.894   2.482   0.840
 4489TIP3    H113431   2.845   2.403   0.815
 4489TIP3    H213432   2.965   2.449   0.894
 4490TIP3   OH213433   6.344   0.270   2.193
 4490TIP3    H113434   6.344   0.183   2.154
 4490TIP3    H213435   6.427   0.309   2.168
 4491TIP3   OH213436   3.695   6.203   3.004
 4491TIP3    H113437   3.749   6.128   3.030
 4491TIP3    H213438   3.740   6.279   3.039
 4492TIP3   OH213439   2.171   6.350   3.349
 4492TIP3    H113440   2.201   6.369   3.438
 4492TIP3    H213441   2.249   6.321   3.303
 4493TIP3   OH213442   2.441   2.057   2.263
 4493TIP3    H113443   2.526   2.033   2.225
 4493TIP3    H213444   2.463   2.121   2.331
 4494TIP3   OH213445   3.472   2.596   5.601
 4494TIP3    H113446   3.511   2.538   5.535
 4494TIP3    H213447   3.511   2.681   5.583
 4495TIP3   OH213448   1.488   0.939   4.124
 4495TIP3    H113449   1.527   0.875   4.184
 4495TIP3    H213450   1.487   1.021   4.172
 4496TIP3   OH213451   5.653   0.188   3.951
 4496TIP3    H113452   5.689   0.256   4.008
 4496TIP3    H213453   5.573   0.226   3.915
 4497TIP3   OH213454   1.903   1.905   0.480
 4497TIP3    H113455   1.833   1.945   0.428
 4497TIP3    H213456   1.909   1.960   0.558
 4498TIP3   OH213457   3.458   4.975   3.975
 4498TIP3    H113458   3.523   5.025   3.925
 4498TIP3    H213459   3.510   4.929   4.041
 4499TIP3   OH213460   3.530   1.367   1.316
 4499TIP3    H113461   3.497   1.456   1.305
 4499TIP3    H213462   3.543   1.335   1.227
 4500TIP3   OH213463   2.065   4.719   3.485
 4500TIP3    H113464   2.041   4.670   3.406
 4500TIP3    H213465   2.015   4.676   3.555
 4501TIP3   OH213466   6.846   3.433   4.650
 4501TIP3    H113467   6.931   3.464   4.681
 4501TIP3    H213468   6.836   3.346   4.691
 4502TIP3   OH213469   0.964   4.601   2.064
 4502TIP3    H113470   1.016   4.524   2.045
 4502TIP3    H213471   0.875   4.577   2.039
 4503TIP3   OH213472   0.122   1.375   0.888
 4503TIP3    H113473   0.066   1.298   0.888
 4503TIP3    H213474   0.171   1.370   0.806
 4504TIP3   OH213475   6.607   5.118   1.477
 4504TIP3    H113476   6.656   5.172   1.538
 4504TIP3    H213477   6.638   5.146   1.390
 4505TIP3   OH213478   2.604   2.503   4.248
 4505TIP3    H113479   2.655   2.425   4.271
 4505TIP3    H213480   2.619   2.563   4.321
 4506TIP3   OH213481   4.792   3.124   1.660
 4506TIP3    H113482   4.874   3.074   1.661
 4506TIP3    H213483   4.813   3.205   1.706
 4507TIP3   OH213484   5.767   1.059   2.911
 4507TIP3    H113485   5.789   1.128   2.848
 4507TIP3    H213486   5.754   1.106   2.994
 4508TIP3   OH213487   6.779   2.694   3.404
 4508TIP3    H113488   6.802   2.697   3.311
 4508TIP3    H213489   6.860   2.668   3.448
 4509TIP3   OH213490   5.856   3.386   4.826
 4509TIP3    H113491   5.823   3.400   4.915
 4509TIP3    H213492   5.781   3.351   4.777
 4510TIP3   OH213493   1.802   1.495   2.576
 4510TIP3    H113494   1.759   1.515   2.492
 4510TIP3    H213495   1.839   1.579   2.603
 4511TIP3   OH213496   4.726   3.113   3.097
 4511TIP3    H113497   4.731   3.115   3.001
 4511TIP3    H213498   4.673   3.189   3.120
 4512TIP3   OH213499   2.140   2.601   2.044
 4512TIP3    H113500   2.216   2.603   2.103
 4512TIP3    H213501   2.089   2.678   2.067
 4513TIP3   OH213502   4.796   4.832   1.646
 4513TIP3    H113503   4.820   4.924   1.659
 4513TIP3    H213504   4.724   4.817   1.707
 4514TIP3   OH213505   0.190   5.785   0.501
 4514TIP3    H113506   0.275   5.742   0.510
 4514TIP3    H213507   0.210   5.867   0.454
 4515TIP3   OH213508   3.408   5.911   3.690
 4515TIP3    H113509   3.461   5.969   3.636
 4515TIP3    H213510   3.370   5.848   3.628
 4516TIP3   OH213511   0.080   2.660   0.805
 4516TIP3    H113512   0.103   2.691   0.892
 4516TIP3    H213513   0.089   2.738   0.749
 4517TIP3   OH213514   2.095   5.979   3.311
 4517TIP3    H113515   2.119   5.985   3.404
 4517TIP3    H213516   2.007   6.018   3.306
 4518TIP3   OH213517   1.634   2.221   1.743
 4518TIP3    H113518   1.547   2.199   1.708
 4518TIP3    H213519   1.685   2.245   1.666
 4519TIP3   OH213520   4.280   4.603   4.587
 4519TIP3    H113521   4.279   4.665   4.515
 4519TIP3    H213522   4.188   4.589   4.609
 4520TIP3   OH213523   2.013   2.860   5.883
 4520TIP3    H113524   2.050   2.792   5.826
 4520TIP3    H213525   1.927   2.880   5.846
 4521TIP3   OH213526   1.645   2.690   0.841
 4521TIP3    H113527   1.697   2.770   0.830
 4521TIP3    H213528   1.661   2.640   0.761
 4522TIP3   OH213529   4.945   1.049   5.249
 4522TIP3    H113530   4.940   1.131   5.298
 4522TIP3    H213531   5.006   0.995   5.299
 4523TIP3   OH213532   0.906   3.554   3.896
 4523TIP3    H113533   0.942   3.605   3.823
 4523TIP3    H213534   0.980   3.506   3.931
 4524TIP3   OH213535   6.477   3.532   5.225
 4524TIP3    H113536   6.382   3.531   5.227
 4524TIP3    H213537   6.503   3.532   5.317
 4525TIP3   OH213538   4.364   0.663   3.725
 4525TIP3    H113539   4.387   0.572   3.706
 4525TIP3    H213540   4.276   0.658   3.763
 4526TIP3   OH213541   2.121   2.834   0.343
 4526TIP3    H113542   2.097   2.781   0.419
 4526TIP3    H213543   2.155   2.915   0.380
 4527TIP3   OH213544   3.386   0.567   3.398
 4527TIP3    H113545   3.460   0.547   3.340
 4527TIP3    H213546   3.368   0.485   3.444
 4528TIP3   OH213547   2.452   6.621   2.515
 4528TIP3    H113548   2.368   6.582   2.493
 4528TIP3    H213549   2.482   6.573   2.592
 4529TIP3   OH213550   3.336   4.997   2.837
 4529TIP3    H113551   3.244   4.974   2.824
 4529TIP3    H213552   3.375   4.919   2.877
 4530TIP3   OH213553   2.035   0.267   3.804
 4530TIP3    H113554   2.105   0.204   3.823
 4530TIP3    H213555   2.058   0.344   3.857
 4531TIP3   OH213556   0.588   2.101   5.778
 4531TIP3    H113557   0.641   2.062   5.708
 4531TIP3    H213558   0.611   2.050   5.856
 4532TIP3   OH213559   3.624   1.718   0.664
 4532TIP3    H113560   3.604   1.797   0.715
 4532TIP3    H213561   3.608   1.646   0.725
 4533TIP3   OH213562   6.318   6.053   1.528
 4533TIP3    H113563   6.227   6.036   1.503
 4533TIP3    H213564   6.311   6.106   1.608
 4534TIP3   OH213565   2.232   3.787   3.127
 4534TIP3    H113566   2.288   3.720   3.089
 4534TIP3    H213567   2.160   3.739   3.168
 4535TIP3   OH213568   6.063   3.906   2.949
 4535TIP3    H113569   6.095   3.840   3.012
 4535TIP3    H213570   6.131   3.910   2.882
 4536TIP3   OH213571   1.182   1.022   1.000
 4536TIP3    H113572   1.205   1.115   1.009
 4536TIP3    H213573   1.095   1.023   0.961
 4537TIP3   OH213574   1.138   5.174   0.789
 4537TIP3    H113575   1.216   5.228   0.801
 4537TIP3    H213576   1.151   5.129   0.706
 4538TIP3   OH213577   5.905   2.178   4.261
 4538TIP3    H113578   5.823   2.156   4.306
 4538TIP3    H213579   5.881   2.249   4.201
 4539TIP3   OH213580   1.140   0.478   5.053
 4539TIP3    H113581   1.082   0.444   5.121
 4539TIP3    H213582   1.082   0.497   4.979
 4540TIP3   OH213583   3.648   1.240   3.664
 4540TIP3    H113584   3.576   1.239   3.726
 4540TIP3    H213585   3.616   1.291   3.590
 4541TIP3   OH213586   2.031   0.971   0.170
 4541TIP3    H113587   2.026   1.007   0.082
 4541TIP3    H213588   2.125   0.961   0.187
 4542TIP3   OH213589   5.763   5.141   0.929
 4542TIP3    H113590   5.850   5.125   0.892
 4542TIP3    H213591   5.708   5.159   0.853
 4543TIP3   OH213592   0.500   1.303   0.379
 4543TIP3    H113593   0.583   1.258   0.392
 4543TIP3    H213594   0.494   1.365   0.452
 4544TIP3   OH213595   3.682   0.974   2.596
 4544TIP3    H113596   3.724   1.046   2.551
 4544TIP3    H213597   3.636   1.014   2.670
 4545TIP3   OH213598   3.395   3.903   5.769
 4545TIP3    H113599   3.417   3.818   5.732
 4545TIP3    H213600   3.401   3.963   5.694
 4546TIP3   OH213601   4.557   5.978   1.643
 4546TIP3    H113602   4.585   6.016   1.559
 4546TIP3    H213603   4.531   6.054   1.696
 4547TIP3   OH213604   6.516   4.184   5.427
 4547TIP3    H113605   6.603   4.211   5.457
 4547TIP3    H213606   6.464   4.264   5.427
 4548TIP3   OH213607   3.280   2.507   2.594
 4548TIP3    H113608   3.291   2.441   2.525
 4548TIP3    H213609   3.207   2.476   2.647
 4549TIP3   OH213610   2.634   5.160   0.650
 4549TIP3    H113611   2.548   5.182   0.684
 4549TIP3    H213612   2.689   5.235   0.673
 4550TIP3   OH213613   5.982   6.343   2.081
 4550TIP3    H113614   5.945   6.430   2.095
 4550TIP3    H213615   6.037   6.328   2.159
 4551TIP3   OH213616   5.283   5.559   2.964
 4551TIP3    H113617   5.269   5.600   2.878
 4551TIP3    H213618   5.281   5.632   3.026
 4552TIP3   OH213619   6.632   1.179   2.982
 4552TIP3    H113620   6.654   1.103   2.929
 4552TIP3    H213621   6.716   1.221   3.001
 4553TIP3   OH213622   6.471   1.669   1.135
 4553TIP3    H113623   6.487   1.752   1.180
 4553TIP3    H213624   6.382   1.645   1.161
 4554TIP3   OH213625   1.329   3.300   5.485
 4554TIP3    H113626   1.419   3.320   5.459
 4554TIP3    H213627   1.318   3.207   5.465
 4555TIP3   OH213628   5.666   1.314   1.097
 4555TIP3    H113629   5.710   1.272   1.024
 4555TIP3    H213630   5.621   1.390   1.059
 4556TIP3   OH213631   1.139   1.949   4.331
 4556TIP3    H113632   1.165   2.026   4.382
 4556TIP3    H213633   1.221   1.909   4.303
 4557TIP3   OH213634   5.166   0.105   4.972
 4557TIP3    H113635   5.168   0.011   4.990
 4557TIP3    H213636   5.093   0.117   4.912
 4558TIP3   OH213637   0.407   4.271   1.235
 4558TIP3    H113638   0.442   4.334   1.298
 4558TIP3    H213639   0.484   4.236   1.190
 4559TIP3   OH213640   0.717   2.564   1.828
 4559TIP3    H113641   0.768   2.509   1.887
 4559TIP3    H213642   0.739   2.654   1.852
 4560TIP3   OH213643   2.828   0.837   2.706
 4560TIP3    H113644   2.798   0.927   2.718
 4560TIP3    H213645   2.841   0.804   2.795
 4561TIP3   OH213646   4.818   4.803   2.233
 4561TIP3    H113647   4.725   4.795   2.214
 4561TIP3    H213648   4.840   4.722   2.278
 4562TIP3   OH213649   3.583   1.563   2.076
 4562TIP3    H113650   3.527   1.623   2.026
 4562TIP3    H213651   3.575   1.480   2.030
 4563TIP3   OH213652   4.141   1.382   5.455
 4563TIP3    H113653   4.091   1.304   5.432
 4563TIP3    H213654   4.195   1.356   5.529
 4564TIP3   OH213655   3.066  -0.004   0.730
 4564TIP3    H113656   3.159  -0.024   0.746
 4564TIP3    H213657   3.041   0.055   0.801
 4565TIP3   OH213658   2.736   5.575   4.534
 4565TIP3    H113659   2.808   5.621   4.577
 4565TIP3    H213660   2.778   5.522   4.466
 4566TIP3   OH213661   3.665   6.372   5.724
 4566TIP3    H113662   3.590   6.430   5.715
 4566TIP3    H213663   3.736   6.428   5.756
 4567TIP3   OH213664   3.899   6.176   4.554
 4567TIP3    H113665   3.805   6.166   4.540
 4567TIP3    H213666   3.919   6.120   4.628
 4568TIP3   OH213667   5.416   0.077   1.383
 4568TIP3    H113668   5.370   0.158   1.360
 4568TIP3    H213669   5.447   0.043   1.300
 4569TIP3   OH213670   1.867   3.039   4.688
 4569TIP3    H113671   1.871   3.000   4.600
 4569TIP3    H213672   1.785   3.089   4.688
 4570TIP3   OH213673   2.700   2.878   5.378
 4570TIP3    H113674   2.724   2.970   5.389
 4570TIP3    H213675   2.783   2.831   5.382
 4571TIP3   OH213676   7.174   0.149   2.730
 4571TIP3    H113677   7.233   0.182   2.798
 4571TIP3    H213678   7.159   0.224   2.673
 4572TIP3   OH213679   1.939   6.734   5.608
 4572TIP3    H113680   1.918   6.811   5.662
 4572TIP3    H213681   1.974   6.770   5.527
 4573TIP3   OH213682   6.096   0.633   4.215
 4573TIP3    H113683   6.174   0.595   4.175
 4573TIP3    H213684   6.124   0.657   4.304
 4574TIP3   OH213685   3.276   3.337   4.390
 4574TIP3    H113686   3.228   3.283   4.453
 4574TIP3    H213687   3.277   3.285   4.310
 4575TIP3   OH213688   3.466   3.906   5.043
 4575TIP3    H113689   3.510   3.839   4.991
 4575TIP3    H213690   3.492   3.989   5.003
 4576TIP3   OH213691   0.554   1.619   1.433
 4576TIP3    H113692   0.532   1.655   1.347
 4576TIP3    H213693   0.585   1.694   1.484
 4577TIP3   OH213694   5.051   3.202   5.784
 4577TIP3    H113695   4.977   3.203   5.724
 4577TIP3    H213696   5.128   3.202   5.727
 4578TIP3   OH213697   3.968   5.934   0.673
 4578TIP3    H113698   3.896   5.931   0.737
 4578TIP3    H213699   4.040   5.889   0.717
 4579TIP3   OH213700   0.404   2.444   0.951
 4579TIP3    H113701   0.455   2.409   1.024
 4579TIP3    H213702   0.319   2.399   0.958
 4580TIP3   OH213703   5.549   2.673   0.863
 4580TIP3    H113704   5.550   2.581   0.837
 4580TIP3    H213705   5.582   2.720   0.786
 4581TIP3   OH213706   2.184   0.064   0.943
 4581TIP3    H113707   2.131   0.014   1.005
 4581TIP3    H213708   2.125   0.080   0.869
 4582TIP3   OH213709   5.613   6.286   0.594
 4582TIP3    H113710   5.549   6.346   0.632
 4582TIP3    H213711   5.686   6.342   0.568
 4583TIP3   OH213712   3.776   3.301   1.102
 4583TIP3    H113713   3.838   3.251   1.049
 4583TIP3    H213714   3.795   3.393   1.082
 4584TIP3   OH213715   3.968   4.866   0.506
 4584TIP3    H113716   3.875   4.855   0.528
 4584TIP3    H213717   4.014   4.822   0.577
 4585TIP3   OH213718   2.193   4.472   5.848
 4585TIP3    H113719   2.125   4.507   5.906
 4585TIP3    H213720   2.145   4.424   5.780
 4586TIP3   OH213721   0.676   1.487   4.218
 4586TIP3    H113722   0.594   1.438   4.218
 4586TIP3    H213723   0.744   1.420   4.212
 4587TIP3   OH213724   3.006   0.555   5.424
 4587TIP3    H113725   2.938   0.487   5.429
 4587TIP3    H213726   3.085   0.508   5.397
 4588TIP3   OH213727   0.613   0.304   1.631
 4588TIP3    H113728   0.589   0.394   1.651
 4588TIP3    H213729   0.538   0.252   1.659
 4589TIP3   OH213730   2.262   1.558   2.578
 4589TIP3    H113731   2.236   1.485   2.520
 4589TIP3    H213732   2.270   1.518   2.664
 4590TIP3   OH213733   2.550   1.444   5.601
 4590TIP3    H113734   2.586   1.396   5.526
 4590TIP3    H213735   2.520   1.526   5.564
 4591TIP3   OH213736   4.707   1.196   1.605
 4591TIP3    H113737   4.714   1.108   1.569
 4591TIP3    H213738   4.788   1.207   1.655
 4592TIP3   OH213739   1.604   6.420   5.637
 4592TIP3    H113740   1.538   6.448   5.574
 4592TIP3    H213741   1.631   6.500   5.682
 4593TIP3   OH213742   0.215   3.115   5.073
 4593TIP3    H113743   0.164   3.147   5.148
 4593TIP3    H213744   0.246   3.194   5.030
 4594TIP3   OH213745   3.305   1.689   5.167
 4594TIP3    H113746   3.315   1.783   5.183
 4594TIP3    H213747   3.247   1.684   5.091
 4595TIP3   OH213748   1.800   1.128   3.953
 4595TIP3    H113749   1.727   1.169   3.907
 4595TIP3    H213750   1.771   1.122   4.044
 4596TIP3   OH213751   0.177   6.607   3.494
 4596TIP3    H113752   0.241   6.538   3.479
 4596TIP3    H213753   0.097   6.562   3.519
 4597TIP3   OH213754   3.621   4.585   5.273
 4597TIP3    H113755   3.587   4.547   5.353
 4597TIP3    H213756   3.703   4.627   5.298
 4598TIP3   OH213757   5.311   1.923   0.399
 4598TIP3    H113758   5.298   1.835   0.365
 4598TIP3    H213759   5.302   1.980   0.322
 4599TIP3   OH213760   4.113   4.191   0.775
 4599TIP3    H113761   4.080   4.120   0.720
 4599TIP3    H213762   4.096   4.162   0.864
 4600TIP3   OH213763   5.690   6.533   0.090
 4600TIP3    H113764   5.669   6.476   0.015
 4600TIP3    H213765   5.621   6.599   0.090
 4601TIP3   OH213766   3.063   5.039   5.075
 4601TIP3    H113767   3.099   4.958   5.040
 4601TIP3    H213768   3.078   5.033   5.170
 4602TIP3   OH213769   1.685   1.296   1.544
 4602TIP3    H113770   1.671   1.206   1.517
 4602TIP3    H213771   1.703   1.343   1.462
 4603TIP3   OH213772   6.439   3.615   1.308
 4603TIP3    H113773   6.386   3.536   1.315
 4603TIP3    H213774   6.467   3.633   1.398
 4604TIP3   OH213775   6.413   4.927   5.301
 4604TIP3    H113776   6.342   4.971   5.254
 4604TIP3    H213777   6.450   4.996   5.357
 4605TIP3   OH213778   4.408   6.080   0.212
 4605TIP3    H113779   4.457   6.059   0.291
 4605TIP3    H213780   4.440   6.166   0.186
 4606TIP3   OH213781   6.329   3.089   1.349
 4606TIP3    H113782   6.306   3.030   1.421
 4606TIP3    H213783   6.245   3.124   1.318
 4607TIP3   OH213784   0.607   1.310   3.207
 4607TIP3    H113785   0.674   1.369   3.240
 4607TIP3    H213786   0.652   1.227   3.191
 4608TIP3   OH213787   6.874   3.758   4.261
 4608TIP3    H113788   6.950   3.796   4.218
 4608TIP3    H213789   6.890   3.769   4.354
 4609TIP3   OH213790   0.605   2.476   4.316
 4609TIP3    H113791   0.603   2.571   4.324
 4609TIP3    H213792   0.557   2.457   4.236
 4610TIP3   OH213793   2.663   3.945   4.420
 4610TIP3    H113794   2.632   4.034   4.435
 4610TIP3    H213795   2.686   3.942   4.327
 4611TIP3   OH213796   4.309   2.502   3.032
 4611TIP3    H113797   4.224   2.536   3.058
 4611TIP3    H213798   4.346   2.467   3.114
 4612TIP3   OH213799   7.124   2.330   3.791
 4612TIP3    H113800   7.176   2.317   3.870
 4612TIP3    H213801   7.044   2.373   3.822
 4613TIP3   OH213802   2.267   4.308   2.018
 4613TIP3    H113803   2.334   4.314   1.950
 4613TIP3    H213804   2.294   4.234   2.073
 4614TIP3   OH213805   6.513   5.622   5.549
 4614TIP3    H113806   6.480   5.651   5.464
 4614TIP3    H213807   6.566   5.545   5.529
 4615TIP3   OH213808   5.487   0.935   5.030
 4615TIP3    H113809   5.480   0.841   5.046
 4615TIP3    H213810   5.396   0.965   5.028
 4616TIP3   OH213811   2.568   4.236   2.930
 4616TIP3    H113812   2.495   4.248   2.990
 4616TIP3    H213813   2.556   4.148   2.894
 4617TIP3   OH213814   2.059   5.744   4.447
 4617TIP3    H113815   2.148   5.708   4.451
 4617TIP3    H213816   2.005   5.675   4.487
 4618TIP3   OH213817   4.443   5.365   5.139
 4618TIP3    H113818   4.448   5.287   5.085
 4618TIP3    H213819   4.357   5.403   5.118
 4619TIP3   OH213820   4.538   4.012   2.300
 4619TIP3    H113821   4.529   4.105   2.322
 4619TIP3    H213822   4.625   3.989   2.333
 4620TIP3   OH213823   0.581   3.424   3.664
 4620TIP3    H113824   0.584   3.515   3.695
 4620TIP3    H213825   0.617   3.428   3.576
 4621TIP3   OH213826   0.818   6.301   0.482
 4621TIP3    H113827   0.790   6.367   0.418
 4621TIP3    H213828   0.737   6.261   0.513
 4622TIP3   OH213829   6.014   0.104   4.393
 4622TIP3    H113830   5.997   0.140   4.305
 4622TIP3    H213831   6.096   0.145   4.419
 4623TIP3   OH213832   0.486   5.108   3.996
 4623TIP3    H113833   0.487   5.053   4.074
 4623TIP3    H213834   0.555   5.071   3.940
 4624TIP3   OH213835   0.255   3.511   0.102
 4624TIP3    H113836   0.250   3.447   0.173
 4624TIP3    H213837   0.321   3.574   0.131
 4625TIP3   OH213838   6.508   4.603   0.029
 4625TIP3    H113839   6.438   4.597  -0.036
 4625TIP3    H213840   6.464   4.632   0.109
 4626TIP3   OH213841   7.097   6.069   2.504
 4626TIP3    H113842   7.083   6.052   2.597
 4626TIP3    H213843   7.018   6.036   2.462
 4627TIP3   OH213844   6.986   4.469   4.649
 4627TIP3    H113845   6.997   4.394   4.708
 4627TIP3    H213846   7.073   4.482   4.610
 4628TIP3   OH213847   2.831   5.672   1.283
 4628TIP3    H113848   2.861   5.581   1.273
 4628TIP3    H213849   2.891   5.723   1.228
 4629TIP3   OH213850   1.453   0.646   2.876
 4629TIP3    H113851   1.416   0.562   2.905
 4629TIP3    H213852   1.475   0.631   2.784
 4630TIP3   OH213853   6.461   4.101   1.229
 4630TIP3    H113854   6.383   4.054   1.201
 4630TIP3    H213855   6.530   4.072   1.169
 4631TIP3   OH213856   2.561   6.224   1.899
 4631TIP3    H113857   2.549   6.141   1.853
 4631TIP3    H213858   2.655   6.236   1.904
 4632TIP3   OH213859   4.294   2.058   3.974
 4632TIP3    H113860   4.305   2.153   3.968
 4632TIP3    H213861   4.222   2.047   4.036
 4633TIP3   OH213862   1.033   3.314   3.675
 4633TIP3    H113863   1.050   3.377   3.605
 4633TIP3    H213864   1.055   3.229   3.637
 4634TIP3   OH213865   2.803   2.616   2.453
 4634TIP3    H113866   2.871   2.665   2.406
 4634TIP3    H213867   2.724   2.668   2.441
 4635TIP3   OH213868   6.060   1.474   4.324
 4635TIP3    H113869   6.043   1.549   4.382
 4635TIP3    H213870   6.126   1.507   4.263
 4636TIP3   OH213871   5.052   5.234   0.857
 4636TIP3    H113872   5.136   5.268   0.824
 4636TIP3    H213873   5.076   5.156   0.907
 4637TIP3   OH213874   0.072   3.414   4.144
 4637TIP3    H113875   0.143   3.451   4.198
 4637TIP3    H213876   0.001   3.478   4.151
 4638TIP3   OH213877   1.136   3.014   4.578
 4638TIP3    H113878   1.166   2.967   4.500
 4638TIP3    H213879   1.169   3.103   4.566
 4639TIP3   OH213880   4.842   6.827   0.521
 4639TIP3    H113881   4.924   6.784   0.497
 4639TIP3    H213882   4.799   6.766   0.580
 4640TIP3   OH213883   0.018   5.797   1.447
 4640TIP3    H113884   0.033   5.703   1.460
 4640TIP3    H213885  -0.070   5.812   1.481
 4641TIP3   OH213886   1.305   0.861   3.428
 4641TIP3    H113887   1.316   0.895   3.517
 4641TIP3    H213888   1.268   0.773   3.440
 4642TIP3   OH213889   4.359   1.809   3.250
 4642TIP3    H113890   4.427   1.838   3.311
 4642TIP3    H213891   4.358   1.876   3.182
 4643TIP3   OH213892   1.457   6.411   3.992
 4643TIP3    H113893   1.481   6.349   3.923
 4643TIP3    H213894   1.427   6.355   4.065
 4644TIP3   OH213895   7.123   2.488   0.266
 4644TIP3    H113896   7.074   2.413   0.301
 4644TIP3    H213897   7.137   2.545   0.341
 4645TIP3   OH213898   3.687   0.662   5.134
 4645TIP3    H113899   3.631   0.602   5.084
 4645TIP3    H213900   3.771   0.660   5.088
 4646TIP3   OH213901   3.992   4.506   4.673
 4646TIP3    H113902   4.002   4.443   4.745
 4646TIP3    H213903   3.932   4.572   4.706
 4647TIP3   OH213904   1.992   1.137   1.540
 4647TIP3    H113905   2.050   1.192   1.591
 4647TIP3    H213906   2.039   1.120   1.458
 4648TIP3   OH213907   1.633   3.430   2.720
 4648TIP3    H113908   1.669   3.512   2.684
 4648TIP3    H213909   1.708   3.386   2.759
 4649TIP3   OH213910   7.204   1.790   3.970
 4649TIP3    H113911   7.159   1.706   3.962
 4649TIP3    H213912   7.188   1.833   3.886
 4650TIP3   OH213913   1.921   0.021   4.072
 4650TIP3    H113914   1.895   0.096   4.125
 4650TIP3    H213915   1.869  -0.052   4.107
 4651TIP3   OH213916   4.627   4.413   1.912
 4651TIP3    H113917   4.639   4.382   1.823
 4651TIP3    H213918   4.532   4.423   1.922
 4652TIP3   OH213919   2.835   1.925   1.324
 4652TIP3    H113920   2.834   2.016   1.353
 4652TIP3    H213921   2.884   1.878   1.391
 4653TIP3   OH213922   2.509   5.956   3.892
 4653TIP3    H113923   2.593   5.926   3.857
 4653TIP3    H213924   2.444   5.902   3.848
 4654TIP3   OH213925   3.632   0.757   5.821
 4654TIP3    H113926   3.654   0.844   5.787
 4654TIP3    H213927   3.646   0.765   5.916
 4655TIP3   OH213928   1.392   3.809   2.999
 4655TIP3    H113929   1.462   3.809   2.933
 4655TIP3    H213930   1.403   3.892   3.045
 4656TIP3   OH213931   5.875   0.918   5.521
 4656TIP3    H113932   5.940   0.962   5.466
 4656TIP3    H213933   5.840   0.987   5.576
 4657TIP3   OH213934   2.655   5.426   3.219
 4657TIP3    H113935   2.699   5.342   3.208
 4657TIP3    H213936   2.726   5.489   3.227
 4658TIP3   OH213937   5.464   1.961   0.611
 4658TIP3    H113938   5.388   1.946   0.555
 4658TIP3    H213939   5.494   2.050   0.588
 4659TIP3   OH213940   4.011   1.135   5.304
 4659TIP3    H113941   3.919   1.158   5.295
 4659TIP3    H213942   4.016   1.043   5.277
 4660TIP3   OH213943   0.147   2.488   5.233
 4660TIP3    H113944   0.215   2.460   5.294
 4660TIP3    H213945   0.066   2.457   5.272
 4661TIP3   OH213946   0.264   0.166   4.670
 4661TIP3    H113947   0.343   0.137   4.624
 4661TIP3    H213948   0.194   0.114   4.631
 4662TIP3   OH213949   6.379   0.945   3.616
 4662TIP3    H113950   6.366   1.032   3.576
 4662TIP3    H213951   6.299   0.929   3.665
 4663TIP3   OH213952   1.646   3.702   3.882
 4663TIP3    H113953   1.564   3.747   3.863
 4663TIP3    H213954   1.698   3.712   3.803
 4664TIP3   OH213955   1.463   4.553   4.999
 4664TIP3    H113956   1.410   4.493   4.947
 4664TIP3    H213957   1.551   4.544   4.963
 4665TIP3   OH213958   4.934   4.883   2.813
 4665TIP3    H113959   4.912   4.918   2.727
 4665TIP3    H213960   5.015   4.834   2.800
 4666TIP3   OH213961   1.637   6.646   1.579
 4666TIP3    H113962   1.580   6.700   1.634
 4666TIP3    H213963   1.721   6.646   1.624
 4667TIP3   OH213964   2.752   6.035   1.151
 4667TIP3    H113965   2.732   6.021   1.059
 4667TIP3    H213966   2.723   6.124   1.169
 4668TIP3   OH213967   3.661   6.271   4.786
 4668TIP3    H113968   3.579   6.315   4.765
 4668TIP3    H213969   3.645   6.230   4.871
 4669TIP3   OH213970   1.849   5.915   5.270
 4669TIP3    H113971   1.829   5.829   5.306
 4669TIP3    H213972   1.943   5.911   5.249
 4670TIP3   OH213973   4.601   2.078   4.047
 4670TIP3    H113974   4.554   2.139   4.105
 4670TIP3    H213975   4.690   2.112   4.043
 4671TIP3   OH213976   3.349   6.292   4.056
 4671TIP3    H113977   3.382   6.236   3.986
 4671TIP3    H213978   3.337   6.378   4.015
 4672TIP3   OH213979   0.287   4.858   2.378
 4672TIP3    H113980   0.259   4.940   2.337
 4672TIP3    H213981   0.210   4.829   2.427
 4673TIP3   OH213982   1.273   3.583   5.405
 4673TIP3    H113983   1.276   3.490   5.381
 4673TIP3    H213984   1.356   3.598   5.452
 4674TIP3   OH213985   4.204   1.274   4.161
 4674TIP3    H113986   4.138   1.344   4.163
 4674TIP3    H213987   4.232   1.270   4.069
 4675TIP3   OH213988   3.024   5.370   1.565
 4675TIP3    H113989   2.951   5.314   1.539
 4675TIP3    H213990   3.033   5.355   1.659
 4676TIP3   OH213991   1.644   2.386   3.330
 4676TIP3    H113992   1.552   2.381   3.303
 4676TIP3    H213993   1.689   2.429   3.257
 4677TIP3   OH213994   3.417   0.980   3.657
 4677TIP3    H113995   3.355   0.908   3.649
 4677TIP3    H213996   3.478   0.951   3.725
 4678TIP3   OH213997   5.478   0.417   1.871
 4678TIP3    H113998   5.404   0.357   1.875
 4678TIP3    H213999   5.500   0.423   1.778
 4679TIP3   OH214000   6.356   4.388   5.402
 4679TIP3    H114001   6.401   4.412   5.320
 4679TIP3    H214002   6.292   4.458   5.415
 4680TIP3   OH214003   5.992   2.396   3.974
 4680TIP3    H114004   5.919   2.444   4.014
 4680TIP3    H214005   6.027   2.456   3.908
 4681TIP3   OH214006   6.300   1.488   0.114
 4681TIP3    H114007   6.385   1.478   0.071
 4681TIP3    H214008   6.285   1.404   0.157
 4682TIP3   OH214009   0.236   2.908   3.888
 4682TIP3    H114010   0.196   2.893   3.973
 4682TIP3    H214011   0.255   3.002   3.886
 4683TIP3   OH214012   1.622   4.385   5.187
 4683TIP3    H114013   1.661   4.383   5.099
 4683TIP3    H214014   1.528   4.378   5.172
 4684TIP3   OH214015   6.822   0.722   4.757
 4684TIP3    H114016   6.837   0.793   4.819
 4684TIP3    H214017   6.898   0.726   4.698
 4685TIP3   OH214018   2.353   2.973   2.067
 4685TIP3    H114019   2.305   2.931   2.138
 4685TIP3    H214020   2.413   2.906   2.035
 4686TIP3   OH214021   5.003   5.572   3.578
 4686TIP3    H114022   5.063   5.645   3.567
 4686TIP3    H214023   5.002   5.528   3.492
 4687TIP3   OH214024   5.473   4.552   3.733
 4687TIP3    H114025   5.510   4.606   3.802
 4687TIP3    H214026   5.416   4.490   3.778
 4688TIP3   OH214027   6.426   0.647   1.083
 4688TIP3    H114028   6.442   0.563   1.040
 4688TIP3    H214029   6.487   0.708   1.041
 4689TIP3   OH214030   0.385   3.555   0.900
 4689TIP3    H114031   0.423   3.476   0.860
 4689TIP3    H214032   0.426   3.627   0.853
 4690TIP3   OH214033   1.137   2.667   5.272
 4690TIP3    H114034   1.059   2.715   5.247
 4690TIP3    H214035   1.108   2.606   5.339
 4691TIP3   OH214036   5.387   4.967   0.764
 4691TIP3    H114037   5.323   4.983   0.695
 4691TIP3    H214038   5.421   5.054   0.786
 4692TIP3   OH214039   5.837   2.194   0.337
 4692TIP3    H114040   5.855   2.233   0.251
 4692TIP3    H214041   5.802   2.107   0.317
 4693TIP3   OH214042   1.605   2.097   5.568
 4693TIP3    H114043   1.568   2.009   5.557
 4693TIP3    H214044   1.621   2.127   5.478
 4694TIP3   OH214045   5.002   2.508   2.643
 4694TIP3    H114046   5.057   2.560   2.584
 4694TIP3    H214047   5.026   2.418   2.624
 4695TIP3   OH214048   2.002   6.366   2.235
 4695TIP3    H114049   2.036   6.414   2.159
 4695TIP3    H214050   2.067   6.297   2.250
 4696TIP3   OH214051   2.885   4.889   4.735
 4696TIP3    H114052   2.979   4.905   4.722
 4696TIP3    H214053   2.858   4.839   4.658
 4697TIP3   OH214054   0.770   5.658   4.949
 4697TIP3    H114055   0.848   5.676   4.897
 4697TIP3    H214056   0.799   5.665   5.040
 4698TIP3   OH214057   6.089   4.577   5.302
 4698TIP3    H114058   6.075   4.586   5.396
 4698TIP3    H214059   6.021   4.516   5.273
 4699TIP3   OH214060   1.530   1.930   4.840
 4699TIP3    H114061   1.552   1.913   4.749
 4699TIP3    H214062   1.560   1.852   4.887
 4700TIP3   OH214063   5.010   5.813   5.159
 4700TIP3    H114064   5.086   5.762   5.189
 4700TIP3    H214065   5.009   5.802   5.064
 4701TIP3   OH214066   6.664   3.006   3.803
 4701TIP3    H114067   6.595   3.068   3.826
 4701TIP3    H214068   6.676   2.954   3.882
 4702TIP3   OH214069   3.675   4.663   0.733
 4702TIP3    H114070   3.667   4.719   0.810
 4702TIP3    H214071   3.747   4.700   0.683
 4703TIP3   OH214072   2.430   2.351   1.861
 4703TIP3    H114073   2.430   2.326   1.953
 4703TIP3    H214074   2.355   2.410   1.851
 4704TIP3   OH214075   1.222   2.254   5.743
 4704TIP3    H114076   1.137   2.276   5.781
 4704TIP3    H214077   1.205   2.243   5.649
 4705TIP3   OH214078   0.105   4.983   4.942
 4705TIP3    H114079   0.190   4.942   4.960
 4705TIP3    H214080   0.067   4.928   4.873
 4706TIP3   OH214081   6.835   0.402   4.517
 4706TIP3    H114082   6.880   0.321   4.540
 4706TIP3    H214083   6.819   0.445   4.602
 4707TIP3   OH214084   4.680   1.885   0.132
 4707TIP3    H114085   4.622   1.943   0.182
 4707TIP3    H214086   4.713   1.940   0.061
 4708TIP3   OH214087   1.727   1.806   4.060
 4708TIP3    H114088   1.633   1.792   4.050
 4708TIP3    H214089   1.767   1.724   4.034
 4709TIP3   OH214090   6.735   0.506   3.929
 4709TIP3    H114091   6.819   0.552   3.928
 4709TIP3    H214092   6.689   0.543   4.004
 4710TIP3   OH214093   2.755   3.679   1.076
 4710TIP3    H114094   2.846   3.650   1.074
 4710TIP3    H214095   2.736   3.691   1.169
 4711TIP3   OH214096   7.161   2.219   1.570
 4711TIP3    H114097   7.177   2.132   1.607
 4711TIP3    H214098   7.222   2.277   1.617
 4712TIP3   OH214099   3.483   1.173   3.220
 4712TIP3    H114100   3.485   1.179   3.125
 4712TIP3    H214101   3.505   1.261   3.251
 4713TIP3   OH214102   2.119   3.608   0.249
 4713TIP3    H114103   2.143   3.619   0.157
 4713TIP3    H214104   2.073   3.525   0.252
 4714TIP3   OH214105   1.196   2.120   4.802
 4714TIP3    H114106   1.168   2.194   4.857
 4714TIP3    H214107   1.120   2.063   4.797
 4715TIP3   OH214108   6.345   0.038   2.015
 4715TIP3    H114109   6.417   0.097   1.993
 4715TIP3    H214110   6.383  -0.050   2.008
 4716TIP3   OH214111   6.516   0.120   3.805
 4716TIP3    H114112   6.496   0.174   3.729
 4716TIP3    H214113   6.584   0.168   3.852
 4717TIP3   OH214114   4.537   4.307   3.508
 4717TIP3    H114115   4.602   4.238   3.524
 4717TIP3    H214116   4.475   4.269   3.446
 4718TIP3   OH214117   2.768   6.347   3.267
 4718TIP3    H114118   2.717   6.426   3.249
 4718TIP3    H214119   2.806   6.323   3.182
 4719TIP3   OH214120   0.794   3.478   2.224
 4719TIP3    H114121   0.782   3.504   2.133
 4719TIP3    H214122   0.757   3.390   2.229
 4720TIP3   OH214123   2.416   2.347   2.379
 4720TIP3    H114124   2.448   2.393   2.457
 4720TIP3    H214125   2.328   2.319   2.402
 4721TIP3   OH214126   3.227   6.455   3.827
 4721TIP3    H114127   3.277   6.398   3.768
 4721TIP3    H214128   3.281   6.533   3.837
 4722TIP3   OH214129   5.219   1.147   1.837
 4722TIP3    H114130   5.223   1.106   1.750
 4722TIP3    H214131   5.237   1.075   1.898
 4723TIP3   OH214132   0.082   2.523   0.536
 4723TIP3    H114133   0.050   2.576   0.609
 4723TIP3    H214134   0.119   2.445   0.577
 4724TIP3   OH214135   3.396   4.622   3.638
 4724TIP3    H114136   3.357   4.670   3.712
 4724TIP3    H214137   3.459   4.563   3.679
 4725TIP3   OH214138   4.982   5.282   3.095
 4725TIP3    H114139   4.917   5.232   3.144
 4725TIP3    H214140   4.934   5.319   3.021
 4726TIP3   OH214141   5.072   0.045   1.089
 4726TIP3    H114142   5.114   0.119   1.044
 4726TIP3    H214143   5.141  -0.021   1.096
 4727TIP3   OH214144   4.653   1.050   3.493
 4727TIP3    H114145   4.719   1.007   3.439
 4727TIP3    H214146   4.680   1.032   3.583
 4728TIP3   OH214147   4.874   5.811   4.242
 4728TIP3    H114148   4.891   5.864   4.165
 4728TIP3    H214149   4.940   5.741   4.237
 4729TIP3   OH214150   1.430   4.654   1.469
 4729TIP3    H114151   1.400   4.737   1.506
 4729TIP3    H214152   1.395   4.654   1.379
 4730TIP3   OH214153   5.279   6.349   2.709
 4730TIP3    H114154   5.185   6.364   2.700
 4730TIP3    H214155   5.302   6.389   2.793
 4731TIP3   OH214156   2.149   5.496   5.054
 4731TIP3    H114157   2.113   5.583   5.034
 4731TIP3    H214158   2.205   5.476   4.980
 4732TIP3   OH214159   4.478   0.880   4.759
 4732TIP3    H114160   4.460   0.810   4.822
 4732TIP3    H214161   4.573   0.882   4.753
 4733TIP3   OH214162   6.208   4.940   4.815
 4733TIP3    H114163   6.201   5.003   4.743
 4733TIP3    H214164   6.193   4.993   4.893
 4734TIP3   OH214165   5.085   5.013   0.109
 4734TIP3    H114166   5.020   5.082   0.093
 4734TIP3    H214167   5.041   4.953   0.170
 4735TIP3   OH214168   5.954   2.045   0.656
 4735TIP3    H114169   6.005   2.109   0.606
 4735TIP3    H214170   5.996   1.961   0.639
 4736TIP3   OH214171   0.064   6.505   1.073
 4736TIP3    H114172  -0.027   6.478   1.081
 4736TIP3    H214173   0.083   6.548   1.156
 4737TIP3   OH214174   2.625   2.706   5.907
 4737TIP3    H114175   2.645   2.642   5.839
 4737TIP3    H214176   2.708   2.752   5.921
 4738TIP3   OH214177   1.770   4.440   5.629
 4738TIP3    H114178   1.862   4.420   5.647
 4738TIP3    H214179   1.733   4.357   5.599
 4739TIP3   OH214180   5.349   4.736   3.586
 4739TIP3    H114181   5.394   4.677   3.646
 4739TIP3    H214182   5.378   4.824   3.612
 4740TIP3   OH214183   1.136   4.815   2.532
 4740TIP3    H114184   1.199   4.877   2.496
 4740TIP3    H214185   1.087   4.783   2.457
 4741TIP3   OH214186   6.273   1.633   0.860
 4741TIP3    H114187   6.287   1.728   0.862
 4741TIP3    H214188   6.204   1.618   0.925
 4742TIP3   OH214189   3.289   1.196   0.526
 4742TIP3    H114190   3.217   1.166   0.470
 4742TIP3    H214191   3.345   1.119   0.536
 4743TIP3   OH214192   0.602   2.962   4.430
 4743TIP3    H114193   0.570   3.023   4.497
 4743TIP3    H214194   0.690   2.939   4.459
 4744TIP3   OH214195   6.950   1.453   4.896
 4744TIP3    H114196   6.882   1.501   4.849
 4744TIP3    H214197   7.031   1.499   4.876
 4745TIP3   OH214198   6.528  -0.016   3.018
 4745TIP3    H114199   6.465   0.042   2.976
 4745TIP3    H214200   6.584  -0.047   2.947
 4746TIP3   OH214201   6.685   1.878   1.210
 4746TIP3    H114202   6.690   1.803   1.150
 4746TIP3    H214203   6.754   1.862   1.274
 4747TIP3   OH214204   6.969   1.766   5.047
 4747TIP3    H114205   7.026   1.707   5.097
 4747TIP3    H214206   6.882   1.753   5.086
 4748TIP3   OH214207   1.286   5.317   1.560
 4748TIP3    H114208   1.363   5.262   1.546
 4748TIP3    H214209   1.240   5.275   1.633
 4749TIP3   OH214210   4.122   3.969   0.569
 4749TIP3    H114211   4.216   3.962   0.584
 4749TIP3    H214212   4.114   4.003   0.480
 4750TIP3   OH214213   5.038   1.973   0.195
 4750TIP3    H114214   5.005   1.965   0.284
 4750TIP3    H214215   5.102   2.045   0.199
 4751TIP3   OH214216   3.724   2.121   5.155
 4751TIP3    H114217   3.662   2.194   5.159
 4751TIP3    H214218   3.749   2.107   5.247
 4752TIP3   OH214219   2.796   3.771   1.320
 4752TIP3    H114220   2.727   3.806   1.376
 4752TIP3    H214221   2.798   3.677   1.341
 4753TIP3   OH214222   5.925   5.432   5.340
 4753TIP3    H114223   5.954   5.405   5.427
 4753TIP3    H214224   5.990   5.496   5.312
 4754TIP3   OH214225   1.888   2.258   2.862
 4754TIP3    H114226   1.869   2.164   2.865
 4754TIP3    H214227   1.804   2.298   2.837
 4755TIP3   OH214228   0.721   1.455   5.673
 4755TIP3    H114229   0.637   1.437   5.716
 4755TIP3    H214230   0.742   1.545   5.698
 4756TIP3   OH214231   4.305   0.723   1.270
 4756TIP3    H114232   4.330   0.633   1.290
 4756TIP3    H214233   4.257   0.752   1.348
 4757TIP3   OH214234   5.178   0.883   5.719
 4757TIP3    H114235   5.101   0.828   5.733
 4757TIP3    H214236   5.225   0.880   5.802
 4758TIP3   OH214237   2.401   3.897   1.995
 4758TIP3    H114238   2.439   3.844   2.065
 4758TIP3    H214239   2.383   3.834   1.925
 4759TIP3   OH214240   2.822   3.385   1.817
 4759TIP3    H114241   2.800   3.376   1.724
 4759TIP3    H214242   2.824   3.480   1.831
 4760TIP3   OH214243   3.437   5.070   0.049
 4760TIP3    H114244   3.509   5.070   0.111
 4760TIP3    H214245   3.451   5.148  -0.005
 4761TIP3   OH214246   0.250   4.162   0.583
 4761TIP3    H114247   0.174   4.111   0.611
 4761TIP3    H214248   0.224   4.253   0.593
 4762TIP3   OH214249   6.445   3.226   1.893
 4762TIP3    H114250   6.362   3.252   1.855
 4762TIP3    H214251   6.497   3.194   1.819
 4763TIP3   OH214252   7.035   6.554   3.986
 4763TIP3    H114253   7.038   6.458   3.988
 4763TIP3    H214254   7.055   6.579   4.076
 4764TIP3   OH214255   0.416   0.049   2.963
 4764TIP3    H114256   0.342   0.003   2.922
 4764TIP3    H214257   0.463   0.089   2.890
 4765TIP3   OH214258   4.306   6.286   3.654
 4765TIP3    H114259   4.365   6.320   3.587
 4765TIP3    H214260   4.248   6.360   3.674
 4766TIP3   OH214261   4.361   5.023   2.188
 4766TIP3    H114262   4.453   5.039   2.212
 4766TIP3    H214263   4.366   4.957   2.119
 4767TIP3   OH214264   2.263   3.070   0.371
 4767TIP3    H114265   2.266   3.149   0.317
 4767TIP3    H214266   2.337   3.077   0.430
 4768TIP3   OH214267   6.969   0.938   2.344
 4768TIP3    H114268   7.014   0.857   2.322
 4768TIP3    H214269   6.911   0.955   2.270
 4769TIP3   OH214270   1.226   0.171   4.765
 4769TIP3    H114271   1.218   0.258   4.726
 4769TIP3    H214272   1.306   0.176   4.818
 4770TIP3   OH214273   4.923   1.135   1.032
 4770TIP3    H114274   4.985   1.155   1.102
 4770TIP3    H214275   4.930   1.040   1.021
 4771TIP3   OH214276   6.178   3.262   4.312
 4771TIP3    H114277   6.213   3.265   4.401
 4771TIP3    H214278   6.095   3.310   4.317
 4772TIP3   OH214279   3.151   4.049   4.702
 4772TIP3    H114280   3.073   4.078   4.654
 4772TIP3    H214281   3.136   3.956   4.719
 4773TIP3   OH214282   6.174   4.646   5.728
 4773TIP3    H114283   6.223   4.691   5.796
 4773TIP3    H214284   6.190   4.697   5.648
 4774TIP3   OH214285   2.942   2.949   0.032
 4774TIP3    H114286   2.958   2.873   0.087
 4774TIP3    H214287   2.940   3.023   0.092
 4775TIP3   OH214288   2.603   5.753   5.218
 4775TIP3    H114289   2.676   5.801   5.257
 4775TIP3    H214290   2.644   5.691   5.158
 4776TIP3   OH214291   5.505   2.613   1.712
 4776TIP3    H114292   5.498   2.520   1.689
 4776TIP3    H214293   5.433   2.628   1.774
 4777TIP3   OH214294   1.701   3.312   3.065
 4777TIP3    H114295   1.682   3.300   3.158
 4777TIP3    H214296   1.720   3.224   3.032
 4778TIP3   OH214297   1.094   4.824   4.728
 4778TIP3    H114298   1.066   4.878   4.802
 4778TIP3    H214299   1.034   4.847   4.657
 4779TIP3   OH214300   1.501   0.344   1.802
 4779TIP3    H114301   1.449   0.265   1.820
 4779TIP3    H214302   1.443   0.400   1.751
 4780TIP3   OH214303   2.468   0.967   3.762
 4780TIP3    H114304   2.375   0.961   3.740
 4780TIP3    H214305   2.513   0.931   3.686
 4781TIP3   OH214306   6.392   0.774   0.563
 4781TIP3    H114307   6.355   0.688   0.541
 4781TIP3    H214308   6.412   0.768   0.656
 4782TIP3   OH214309   5.258   6.040   5.231
 4782TIP3    H114310   5.289   5.958   5.191
 4782TIP3    H214311   5.183   6.065   5.178
 4783TIP3   OH214312   6.817   3.390   0.779
 4783TIP3    H114313   6.746   3.393   0.843
 4783TIP3    H214314   6.842   3.482   0.767
 4784TIP3   OH214315   4.004   1.331   4.721
 4784TIP3    H114316   3.926   1.382   4.700
 4784TIP3    H214317   4.073   1.368   4.665
 4785TIP3   OH214318   4.354   5.504   0.847
 4785TIP3    H114319   4.266   5.513   0.809
 4785TIP3    H214320   4.348   5.546   0.933
 4786TIP3   OH214321   1.814   5.851   0.921
 4786TIP3    H114322   1.814   5.770   0.971
 4786TIP3    H214323   1.897   5.893   0.945
 4787TIP3   OH214324   4.018   5.855   4.306
 4787TIP3    H114325   3.935   5.869   4.260
 4787TIP3    H214326   4.038   5.940   4.346
 4788TIP3   OH214327   6.749   4.426   0.772
 4788TIP3    H114328   6.831   4.470   0.792
 4788TIP3    H214329   6.704   4.419   0.857
 4789TIP3   OH214330   2.257   4.644   3.810
 4789TIP3    H114331   2.237   4.675   3.899
 4789TIP3    H214332   2.204   4.565   3.799
 4790TIP3   OH214333   6.026   5.411   0.301
 4790TIP3    H114334   6.068   5.325   0.310
 4790TIP3    H214335   5.965   5.400   0.228
 4791TIP3   OH214336   6.835   5.365   0.953
 4791TIP3    H114337   6.818   5.271   0.946
 4791TIP3    H214338   6.813   5.400   0.867
 4792TIP3   OH214339   6.460   1.972   5.104
 4792TIP3    H114340   6.454   2.041   5.038
 4792TIP3    H214341   6.554   1.965   5.123
 4793TIP3   OH214342   6.147   0.763   2.855
 4793TIP3    H114343   6.054   0.759   2.877
 4793TIP3    H214344   6.152   0.826   2.783
 4794TIP3   OH214345   1.437   6.830   2.854
 4794TIP3    H114346   1.381   6.782   2.916
 4794TIP3    H214347   1.476   6.761   2.800
 4795TIP3   OH214348   5.084   3.466   5.284
 4795TIP3    H114349   5.110   3.392   5.230
 4795TIP3    H214350   5.034   3.522   5.225
 4796TIP3   OH214351   3.598   6.411   2.720
 4796TIP3    H114352   3.654   6.405   2.798
 4796TIP3    H214353   3.560   6.499   2.724
 4797TIP3   OH214354   3.792   1.905   2.546
 4797TIP3    H114355   3.873   1.955   2.554
 4797TIP3    H214356   3.753   1.910   2.633
 4798TIP3   OH214357   1.447   0.846   0.701
 4798TIP3    H114358   1.494   0.916   0.656
 4798TIP3    H214359   1.434   0.878   0.790
 4799TIP3   OH214360   6.773   2.395   4.139
 4799TIP3    H114361   6.700   2.446   4.176
 4799TIP3    H214362   6.851   2.435   4.177
 4800TIP3   OH214363   2.586   6.158   0.483
 4800TIP3    H114364   2.634   6.187   0.406
 4800TIP3    H214365   2.526   6.091   0.450
 4801TIP3   OH214366   5.278   5.970   3.324
 4801TIP3    H114367   5.202   6.011   3.285
 4801TIP3    H214368   5.321   6.040   3.373
 4802TIP3   OH214369   4.186   0.375   2.025
 4802TIP3    H114370   4.124   0.398   1.956
 4802TIP3    H214371   4.161   0.431   2.099
 4803TIP3   OH214372   6.008   3.327   1.398
 4803TIP3    H114373   6.085   3.383   1.408
 4803TIP3    H214374   6.040   3.239   1.419
 4804TIP3   OH214375   6.123   5.998   3.078
 4804TIP3    H114376   6.135   6.052   3.156
 4804TIP3    H214377   6.148   6.056   3.005
 4805TIP3   OH214378   4.430   1.112   5.630
 4805TIP3    H114379   4.514   1.116   5.675
 4805TIP3    H214380   4.385   1.038   5.670
 4806TIP3   OH214381   6.464   6.547   1.741
 4806TIP3    H114382   6.518   6.613   1.784
 4806TIP3    H214383   6.378   6.589   1.730
 4807TIP3   OH214384   4.377   3.213   2.114
 4807TIP3    H114385   4.350   3.139   2.169
 4807TIP3    H214386   4.427   3.173   2.043
 4808TIP3   OH214387   7.059   2.581   3.484
 4808TIP3    H114388   7.067   2.670   3.449
 4808TIP3    H214389   7.149   2.551   3.495
 4809TIP3   OH214390   4.667   3.764   1.859
 4809TIP3    H114391   4.613   3.813   1.921
 4809TIP3    H214392   4.663   3.814   1.778
 4810TIP3   OH214393   3.166   6.412   4.911
 4810TIP3    H114394   3.072   6.400   4.897
 4810TIP3    H214395   3.181   6.506   4.898
 4811TIP3   OH214396   4.549   1.589   1.266
 4811TIP3    H114397   4.496   1.646   1.322
 4811TIP3    H214398   4.562   1.510   1.318
 4812TIP3   OH214399   4.954   2.469   4.568
 4812TIP3    H114400   4.984   2.448   4.656
 4812TIP3    H214401   4.994   2.401   4.512
 4813TIP3   OH214402   4.546   4.219   0.186
 4813TIP3    H114403   4.505   4.292   0.233
 4813TIP3    H214404   4.594   4.171   0.254
 4814TIP3   OH214405   4.984   2.184   5.801
 4814TIP3    H114406   5.071   2.144   5.810
 4814TIP3    H214407   4.929   2.114   5.766
 4815TIP3   OH214408   3.313   3.094   1.174
 4815TIP3    H114409   3.404   3.124   1.179
 4815TIP3    H214410   3.267   3.163   1.127
 4816TIP3   OH214411   1.533   6.614   4.640
 4816TIP3    H114412   1.500   6.588   4.555
 4816TIP3    H214413   1.595   6.685   4.621
 4817TIP3   OH214414   4.416   6.515   4.533
 4817TIP3    H114415   4.329   6.554   4.539
 4817TIP3    H214416   4.407   6.447   4.467
 4818TIP3   OH214417   1.611   4.783   0.908
 4818TIP3    H114418   1.653   4.859   0.868
 4818TIP3    H214419   1.574   4.816   0.990
 4819TIP3   OH214420   1.804   0.475   4.933
 4819TIP3    H114421   1.764   0.490   4.848
 4819TIP3    H214422   1.848   0.557   4.954
 4820TIP3   OH214423   3.926   3.298   4.040
 4820TIP3    H114424   3.905   3.391   4.044
 4820TIP3    H214425   3.921   3.276   3.947
 4821TIP3   OH214426   2.488   1.624   0.699
 4821TIP3    H114427   2.499   1.661   0.786
 4821TIP3    H214428   2.501   1.698   0.639
 4822TIP3   OH214429   1.974   6.471   3.218
 4822TIP3    H114430   2.056   6.432   3.249
 4822TIP3    H214431   2.002   6.541   3.159
 4823TIP3   OH214432   0.388   4.220   0.354
 4823TIP3    H114433   0.333   4.191   0.428
 4823TIP3    H214434   0.329   4.273   0.301
 4824TIP3   OH214435   5.158   5.521   0.277
 4824TIP3    H114436   5.238   5.572   0.261
 4824TIP3    H214437   5.152   5.461   0.203
 4825TIP3   OH214438   4.298   0.459   1.375
 4825TIP3    H114439   4.323   0.397   1.307
 4825TIP3    H214440   4.219   0.421   1.414
 4826TIP3   OH214441   2.446   3.082   0.773
 4826TIP3    H114442   2.455   3.086   0.678
 4826TIP3    H214443   2.470   2.993   0.796
 4827TIP3   OH214444   5.927   1.459   1.863
 4827TIP3    H114445   5.998   1.410   1.821
 4827TIP3    H214446   5.956   1.550   1.862
 4828TIP3   OH214447   5.324   6.364   0.257
 4828TIP3    H114448   5.234   6.382   0.227
 4828TIP3    H214449   5.357   6.300   0.194
 4829TIP3   OH214450   3.957   1.990   4.402
 4829TIP3    H114451   4.022   2.020   4.467
 4829TIP3    H214452   3.956   2.060   4.337
 4830TIP3   OH214453   0.949   3.458   5.149
 4830TIP3    H114454   0.882   3.447   5.082
 4830TIP3    H214455   0.957   3.553   5.160
 4831TIP3   OH214456   6.728   4.822   3.199
 4831TIP3    H114457   6.807   4.875   3.187
 4831TIP3    H214458   6.666   4.857   3.135
 4832TIP3   OH214459   3.180   3.029   1.584
 4832TIP3    H114460   3.198   3.119   1.560
 4832TIP3    H214461   3.171   2.983   1.501
 4833TIP3   OH214462   2.453   0.999   4.792
 4833TIP3    H114463   2.406   1.083   4.785
 4833TIP3    H214464   2.537   1.014   4.749
 4834TIP3   OH214465   5.679   1.534   5.857
 4834TIP3    H114466   5.642   1.596   5.795
 4834TIP3    H214467   5.603   1.497   5.901
 4835TIP3   OH214468   3.146   4.927   3.132
 4835TIP3    H114469   3.212   4.996   3.127
 4835TIP3    H214470   3.071   4.960   3.083
 4836TIP3   OH214471   0.917   3.243   4.768
 4836TIP3    H114472   0.887   3.304   4.835
 4836TIP3    H214473   0.894   3.157   4.801
 4837TIP3   OH214474   0.768   4.757   4.674
 4837TIP3    H114475   0.807   4.686   4.724
 4837TIP3    H214476   0.768   4.832   4.734
 4838TIP3   OH214477   6.836   4.782   0.922
 4838TIP3    H114478   6.780   4.773   0.999
 4838TIP3    H214479   6.925   4.785   0.957
 4839TIP3   OH214480   6.766   4.866   5.726
 4839TIP3    H114481   6.757   4.847   5.633
 4839TIP3    H214482   6.680   4.849   5.763
 4840TIP3   OH214483   2.818   5.601   1.584
 4840TIP3    H114484   2.825   5.598   1.488
 4840TIP3    H214485   2.784   5.515   1.608
 4841TIP3   OH214486   1.377   3.419   5.129
 4841TIP3    H114487   1.440   3.418   5.057
 4841TIP3    H214488   1.329   3.501   5.118
 4842TIP3   OH214489   6.202   5.856   4.155
 4842TIP3    H114490   6.169   5.921   4.217
 4842TIP3    H214491   6.155   5.874   4.074
 4843TIP3   OH214492   4.364   5.301   2.844
 4843TIP3    H114493   4.364   5.309   2.748
 4843TIP3    H214494   4.272   5.311   2.868
 4844TIP3   OH214495   1.659   2.927   4.935
 4844TIP3    H114496   1.687   2.885   4.854
 4844TIP3    H214497   1.595   2.866   4.973
 4845TIP3   OH214498   5.090   0.731   4.704
 4845TIP3    H114499   5.130   0.769   4.625
 4845TIP3    H214500   5.164   0.692   4.751
 4846TIP3   OH214501   2.816   3.312   1.097
 4846TIP3    H114502   2.776   3.235   1.056
 4846TIP3    H214503   2.742   3.361   1.132
 4847TIP3   OH214504   6.058   0.488   0.904
 4847TIP3    H114505   6.045   0.578   0.935
 4847TIP3    H214506   5.988   0.474   0.840
 4848TIP3   OH214507   2.518   5.160   2.212
 4848TIP3    H114508   2.544   5.224   2.278
 4848TIP3    H214509   2.424   5.175   2.200
 4849TIP3   OH214510   2.544   2.218   3.690
 4849TIP3    H114511   2.463   2.166   3.698
 4849TIP3    H214512   2.562   2.219   3.597
 4850TIP3   OH214513   6.844   6.400   2.750
 4850TIP3    H114514   6.851   6.483   2.702
 4850TIP3    H214515   6.795   6.342   2.692
 4851TIP3   OH214516   1.022   0.373   2.657
 4851TIP3    H114517   1.026   0.462   2.692
 4851TIP3    H214518   1.105   0.332   2.685
 4852TIP3   OH214519   3.092   4.712   1.043
 4852TIP3    H114520   3.088   4.800   1.080
 4852TIP3    H214521   3.046   4.657   1.107
 4853TIP3   OH214522   3.222   3.572   5.034
 4853TIP3    H114523   3.290   3.601   5.094
 4853TIP3    H214524   3.175   3.652   5.011
 4854TIP3   OH214525   5.555   3.137   3.107
 4854TIP3    H114526   5.463   3.157   3.095
 4854TIP3    H214527   5.597   3.167   3.027
 4855TIP3   OH214528   4.230   0.276   0.980
 4855TIP3    H114529   4.185   0.352   1.018
 4855TIP3    H214530   4.254   0.305   0.892
 4856TIP3   OH214531   6.338   5.413   3.340
 4856TIP3    H114532   6.407   5.477   3.322
 4856TIP3    H214533   6.256   5.463   3.332
 4857TIP3   OH214534   0.386   2.896   5.532
 4857TIP3    H114535   0.307   2.916   5.481
 4857TIP3    H214536   0.446   2.968   5.514
 4858TIP3   OH214537   0.860   1.475   0.252
 4858TIP3    H114538   0.853   1.425   0.170
 4858TIP3    H214539   0.948   1.456   0.284
 4859TIP3   OH214540   7.003   5.119   1.056
 4859TIP3    H114541   6.907   5.112   1.056
 4859TIP3    H214542   7.033   5.028   1.061
 4860TIP3   OH214543   2.195   6.176   2.254
 4860TIP3    H114544   2.258   6.204   2.188
 4860TIP3    H214545   2.218   6.086   2.274
 4861TIP3   OH214546   6.040   3.904   1.550
 4861TIP3    H114547   6.008   3.937   1.634
 4861TIP3    H214548   6.001   3.962   1.484
 4862TIP3   OH214549   6.099   0.453   2.950
 4862TIP3    H114550   6.095   0.547   2.967
 4862TIP3    H214551   6.162   0.420   3.014
 4863TIP3   OH214552   4.609   5.762   3.598
 4863TIP3    H114553   4.638   5.692   3.540
 4863TIP3    H214554   4.534   5.800   3.553
 4864TIP3   OH214555   5.694   4.484   4.933
 4864TIP3    H114556   5.735   4.401   4.910
 4864TIP3    H214557   5.721   4.544   4.863
 4865TIP3   OH214558   6.910   5.178   4.514
 4865TIP3    H114559   6.902   5.232   4.593
 4865TIP3    H214560   6.895   5.089   4.546
 4866TIP3   OH214561   4.899   4.873   3.687
 4866TIP3    H114562   4.845   4.948   3.661
 4866TIP3    H214563   4.978   4.912   3.724
 4867TIP3   OH214564   5.445   0.097   3.083
 4867TIP3    H114565   5.431   0.062   2.995
 4867TIP3    H214566   5.398   0.036   3.141
 4868TIP3   OH214567   1.840   1.822   0.883
 4868TIP3    H114568   1.915   1.859   0.929
 4868TIP3    H214569   1.769   1.823   0.946
 4869TIP3   OH214570   3.285   5.400   0.153
 4869TIP3    H114571   3.345   5.465   0.188
 4869TIP3    H214572   3.265   5.431   0.065
 4870TIP3   OH214573   2.292   6.117   0.231
 4870TIP3    H114574   2.224   6.184   0.220
 4870TIP3    H214575   2.370   6.155   0.191
 4871TIP3   OH214576   3.035   0.072   2.888
 4871TIP3    H114577   3.069   0.030   2.967
 4871TIP3    H214578   3.113   0.102   2.842
 4872TIP3   OH214579   1.343   2.353   3.262
 4872TIP3    H114580   1.373   2.263   3.252
 4872TIP3    H214581   1.330   2.384   3.172
 4873TIP3   OH214582   3.023   2.669   1.253
 4873TIP3    H114583   3.050   2.719   1.176
 4873TIP3    H214584   3.105   2.640   1.292
 4874TIP3   OH214585   0.984   4.369   5.675
 4874TIP3    H114586   0.998   4.312   5.600
 4874TIP3    H214587   1.037   4.447   5.655
 4875TIP3   OH214588   3.750   3.029   5.644
 4875TIP3    H114589   3.766   3.105   5.589
 4875TIP3    H214590   3.836   2.990   5.656
 4876TIP3   OH214591   4.634   2.654   1.794
 4876TIP3    H114592   4.646   2.641   1.889
 4876TIP3    H214593   4.719   2.687   1.764
 4877TIP3   OH214594   3.403   6.669   3.290
 4877TIP3    H114595   3.416   6.698   3.380
 4877TIP3    H214596   3.311   6.640   3.288
 4878TIP3   OH214597   5.208   3.586   5.674
 4878TIP3    H114598   5.136   3.641   5.703
 4878TIP3    H214599   5.216   3.519   5.742
 4879TIP3   OH214600   7.209   5.399   2.894
 4879TIP3    H114601   7.186   5.415   2.986
 4879TIP3    H214602   7.138   5.441   2.845
 4880TIP3   OH214603   5.939   5.717   4.839
 4880TIP3    H114604   5.877   5.645   4.829
 4880TIP3    H214605   5.935   5.739   4.932
 4881TIP3   OH214606   5.722   0.742   5.715
 4881TIP3    H114607   5.732   0.828   5.673
 4881TIP3    H214608   5.677   0.761   5.797
 4882TIP3   OH214609   3.007   3.623   4.666
 4882TIP3    H114610   3.080   3.631   4.605
 4882TIP3    H214611   2.937   3.675   4.626
 4883TIP3   OH214612   1.217   0.703   1.780
 4883TIP3    H114613   1.275   0.749   1.720
 4883TIP3    H214614   1.165   0.772   1.822
 4884TIP3   OH214615   4.878   5.631   0.277
 4884TIP3    H114616   4.948   5.582   0.233
 4884TIP3    H214617   4.809   5.638   0.211
 4885TIP3   OH214618   4.400   4.178   0.776
 4885TIP3    H114619   4.434   4.203   0.690
 4885TIP3    H214620   4.305   4.174   0.764
 4886TIP3   OH214621   1.355   2.187   4.298
 4886TIP3    H114622   1.436   2.149   4.331
 4886TIP3    H214623   1.292   2.173   4.369
 4887TIP3   OH214624   2.062   2.974   3.540
 4887TIP3    H114625   2.029   2.884   3.541
 4887TIP3    H214626   1.983   3.029   3.535
 4888TIP3   OH214627   6.078   2.696   0.623
 4888TIP3    H114628   6.160   2.734   0.590
 4888TIP3    H214629   6.011   2.758   0.595
 4889TIP3   OH214630   2.087   2.053   4.709
 4889TIP3    H114631   2.099   1.991   4.781
 4889TIP3    H214632   1.992   2.056   4.696
 4890TIP3   OH214633   4.843   0.217   3.387
 4890TIP3    H114634   4.817   0.210   3.479
 4890TIP3    H214635   4.932   0.183   3.385
 4891TIP3   OH214636   0.545   6.425   0.020
 4891TIP3    H114637   0.600   6.398   0.093
 4891TIP3    H214638   0.488   6.350   0.004
 4892TIP3   OH214639   0.339   2.086   0.309
 4892TIP3    H114640   0.244   2.086   0.308
 4892TIP3    H214641   0.364   2.169   0.269
 4893TIP3   OH214642   0.205   2.520   0.148
 4893TIP3    H114643   0.110   2.520   0.163
 4893TIP3    H214644   0.239   2.582   0.213
 4894TIP3   OH214645   6.369   1.610   5.613
 4894TIP3    H114646   6.366   1.661   5.532
 4894TIP3    H214647   6.294   1.640   5.663
 4895TIP3   OH214648   4.077   6.626   1.746
 4895TIP3    H114649   4.154   6.624   1.688
 4895TIP3    H214650   4.005   6.600   1.689
 4896TIP3   OH214651   1.635   2.817   4.290
 4896TIP3    H114652   1.573   2.882   4.322
 4896TIP3    H214653   1.699   2.868   4.240
 4897TIP3   OH214654   5.692   1.898   1.594
 4897TIP3    H114655   5.626   1.957   1.557
 4897TIP3    H214656   5.644   1.817   1.611
 4898TIP3   OH214657   4.907   6.407   0.946
 4898TIP3    H114658   4.981   6.455   0.910
 4898TIP3    H214659   4.861   6.471   1.001
 4899TIP3   OH214660   5.322   5.948   1.245
 4899TIP3    H114661   5.283   5.975   1.162
 4899TIP3    H214662   5.398   6.006   1.256
 4900TIP3   OH214663   1.965   4.866   0.388
 4900TIP3    H114664   2.051   4.824   0.388
 4900TIP3    H214665   1.955   4.903   0.300
 4901TIP3   OH214666   4.381   0.206   3.112
 4901TIP3    H114667   4.334   0.264   3.052
 4901TIP3    H214668   4.463   0.252   3.131
 4902TIP3   OH214669   6.174   5.943   4.847
 4902TIP3    H114670   6.089   5.986   4.852
 4902TIP3    H214671   6.217   5.982   4.771
 4903TIP3   OH214672   1.795   0.241   0.697
 4903TIP3    H114673   1.820   0.323   0.656
 4903TIP3    H214674   1.720   0.263   0.752
 4904TIP3   OH214675   6.421   3.083   3.382
 4904TIP3    H114676   6.381   3.045   3.304
 4904TIP3    H214677   6.515   3.085   3.362
 4905TIP3   OH214678   4.846   0.973   3.220
 4905TIP3    H114679   4.801   0.913   3.160
 4905TIP3    H214680   4.853   0.924   3.302
 4906TIP3   OH214681   6.632   3.243   2.917
 4906TIP3    H114682   6.679   3.297   2.852
 4906TIP3    H214683   6.695   3.231   2.988
 4907TIP3   OH214684   5.527   3.777   2.369
 4907TIP3    H114685   5.487   3.836   2.432
 4907TIP3    H214686   5.453   3.726   2.334
 4908TIP3   OH214687   4.381   4.763   4.278
 4908TIP3    H114688   4.407   4.690   4.223
 4908TIP3    H214689   4.341   4.826   4.217
 4909TIP3   OH214690   3.190   5.191   1.402
 4909TIP3    H114691   3.196   5.211   1.495
 4909TIP3    H214692   3.190   5.277   1.360
 4910TIP3   OH214693   0.202   1.426   1.155
 4910TIP3    H114694   0.153   1.425   1.073
 4910TIP3    H214695   0.291   1.453   1.130
 4911TIP3   OH214696   6.309   5.242   2.854
 4911TIP3    H114697   6.308   5.307   2.783
 4911TIP3    H214698   6.339   5.291   2.930
 4912TIP3   OH214699   0.557   4.404   3.732
 4912TIP3    H114700   0.481   4.462   3.725
 4912TIP3    H214701   0.629   4.461   3.758
 4913TIP3   OH214702   7.021   5.042   3.481
 4913TIP3    H114703   6.978   4.980   3.540
 4913TIP3    H214704   7.066   5.102   3.540
 4914TIP3   OH214705   1.570   5.631   2.447
 4914TIP3    H114706   1.509   5.625   2.520
 4914TIP3    H214707   1.615   5.715   2.460
 4915TIP3   OH214708   4.924   1.814   4.774
 4915TIP3    H114709   4.882   1.742   4.820
 4915TIP3    H214710   4.921   1.888   4.835
 4916TIP3   OH214711   0.976   0.140   3.025
 4916TIP3    H114712   1.069   0.120   3.034
 4916TIP3    H214713   0.961   0.215   3.083
 4917TIP3   OH214714   2.294   5.536   2.441
 4917TIP3    H114715   2.237   5.613   2.427
 4917TIP3    H214716   2.246   5.464   2.401
 4918TIP3   OH214717   4.698   2.405   4.947
 4918TIP3    H114718   4.706   2.318   4.908
 4918TIP3    H214719   4.754   2.461   4.893
 4919TIP3   OH214720   0.719   1.268   0.678
 4919TIP3    H114721   0.656   1.215   0.629
 4919TIP3    H214722   0.780   1.300   0.611
 4920TIP3   OH214723   7.163   4.356   1.525
 4920TIP3    H114724   7.140   4.291   1.592
 4920TIP3    H214725   7.252   4.383   1.548
 4921TIP3   OH214726   3.983   0.926   5.830
 4921TIP3    H114727   3.915   0.990   5.810
 4921TIP3    H214728   3.979   0.864   5.757
 4922TIP3   OH214729   1.925   5.951   2.881
 4922TIP3    H114730   1.897   6.042   2.883
 4922TIP3    H214731   1.857   5.906   2.830
 4923TIP3   OH214732   3.479   1.589   2.329
 4923TIP3    H114733   3.506   1.668   2.376
 4923TIP3    H214734   3.511   1.602   2.240
 4924TIP3   OH214735   3.898   4.160   4.647
 4924TIP3    H114736   3.968   4.207   4.691
 4924TIP3    H214737   3.942   4.098   4.589
 4925TIP3   OH214738   3.294   0.930   1.803
 4925TIP3    H114739   3.316   0.915   1.711
 4925TIP3    H214740   3.231   1.002   1.800
 4926TIP3   OH214741   1.000   3.064   5.031
 4926TIP3    H114742   1.077   3.121   5.038
 4926TIP3    H214743   1.036   2.978   5.009
 4927TIP3   OH214744   5.922   3.768   2.211
 4927TIP3    H114745   5.946   3.761   2.303
 4927TIP3    H214746   6.004   3.752   2.164
 4928TIP3   OH214747   0.866   1.970   4.791
 4928TIP3    H114748   0.800   1.920   4.839
 4928TIP3    H214749   0.854   1.942   4.700
 4929TIP3   OH214750   3.643   6.413   1.894
 4929TIP3    H114751   3.630   6.479   1.962
 4929TIP3    H214752   3.714   6.357   1.927
 4930TIP3   OH214753   0.075   6.589   2.811
 4930TIP3    H114754   0.000   6.549   2.856
 4930TIP3    H214755   0.151   6.562   2.863
 4931TIP3   OH214756   7.012   5.189   1.973
 4931TIP3    H114757   6.917   5.180   1.967
 4931TIP3    H214758   7.032   5.268   1.922
 4932TIP3   OH214759   3.658   0.323   3.053
 4932TIP3    H114760   3.752   0.335   3.069
 4932TIP3    H214761   3.653   0.291   2.963
 4933TIP3   OH214762   3.971   5.114   0.987
 4933TIP3    H114763   3.936   5.201   0.968
 4933TIP3    H214764   3.917   5.054   0.935
 4934TIP3   OH214765   6.910   6.306   1.338
 4934TIP3    H114766   6.864   6.229   1.304
 4934TIP3    H214767   6.993   6.271   1.371
 4935TIP3   OH214768   4.055   2.476   1.317
 4935TIP3    H114769   4.101   2.490   1.234
 4935TIP3    H214770   4.077   2.387   1.342
 4936TIP3   OH214771   0.337   0.989   4.955
 4936TIP3    H114772   0.269   1.052   4.980
 4936TIP3    H214773   0.404   0.999   5.023
 4937TIP3   OH214774   3.457   1.717   3.759
 4937TIP3    H114775   3.446   1.753   3.671
 4937TIP3    H214776   3.552   1.718   3.773
 4938TIP3   OH214777   5.264   1.074   3.801
 4938TIP3    H114778   5.205   1.144   3.828
 4938TIP3    H214779   5.288   1.097   3.711
 4939TIP3   OH214780   6.398   4.368   5.802
 4939TIP3    H114781   6.475   4.312   5.790
 4939TIP3    H214782   6.411   4.410   5.887
 4940TIP3   OH214783   1.024   0.375   4.468
 4940TIP3    H114784   0.945   0.379   4.522
 4940TIP3    H214785   1.005   0.432   4.393
 4941TIP3   OH214786   0.836   0.401   0.627
 4941TIP3    H114787   0.874   0.383   0.713
 4941TIP3    H214788   0.906   0.379   0.565
 4942TIP3   OH214789   0.070   5.330   5.118
 4942TIP3    H114790  -0.011   5.381   5.126
 4942TIP3    H214791   0.069   5.298   5.028
 4943TIP3   OH214792   2.921   5.393   4.433
 4943TIP3    H114793   2.904   5.346   4.515
 4943TIP3    H214794   2.991   5.454   4.453
 4944TIP3   OH214795   4.671   1.937   5.867
 4944TIP3    H114796   4.651   2.031   5.867
 4944TIP3    H214797   4.644   1.908   5.954
 4945TIP3   OH214798   2.489   3.939   3.240
 4945TIP3    H114799   2.424   3.960   3.307
 4945TIP3    H214800   2.445   3.959   3.157
 4946TIP3   OH214801   3.539   4.716   2.655
 4946TIP3    H114802   3.496   4.774   2.593
 4946TIP3    H214803   3.579   4.648   2.602
 4947TIP3   OH214804   6.160   4.638   2.519
 4947TIP3    H114805   6.110   4.570   2.564
 4947TIP3    H214806   6.104   4.666   2.447
 4948TIP3   OH214807   3.619   2.616   5.066
 4948TIP3    H114808   3.533   2.605   5.026
 4948TIP3    H214809   3.617   2.560   5.144
 4949TIP3   OH214810   5.313   0.414   3.253
 4949TIP3    H114811   5.324   0.388   3.161
 4949TIP3    H214812   5.263   0.342   3.291
 4950TIP3   OH214813   5.563   3.624   0.668
 4950TIP3    H114814   5.501   3.688   0.703
 4950TIP3    H214815   5.513   3.542   0.664
 4951TIP3   OH214816   5.663   0.163   1.944
 4951TIP3    H114817   5.602   0.229   1.914
 4951TIP3    H214818   5.618   0.080   1.929
 4952TIP3   OH214819   2.920   0.032   4.678
 4952TIP3    H114820   2.903   0.080   4.759
 4952TIP3    H214821   2.993   0.078   4.638
 4953TIP3   OH214822   4.736   4.115   4.427
 4953TIP3    H114823   4.731   4.103   4.332
 4953TIP3    H214824   4.674   4.051   4.462
 4954TIP3   OH214825   2.152   5.443   5.754
 4954TIP3    H114826   2.207   5.402   5.821
 4954TIP3    H214827   2.192   5.417   5.671
 4955TIP3   OH214828   3.238   5.954   1.436
 4955TIP3    H114829   3.252   5.940   1.530
 4955TIP3    H214830   3.159   6.006   1.431
 4956TIP3   OH214831   1.432   2.053   1.493
 4956TIP3    H114832   1.460   2.138   1.528
 4956TIP3    H214833   1.503   2.026   1.436
 4957TIP3   OH214834   5.779   5.788   1.787
 4957TIP3    H114835   5.790   5.831   1.872
 4957TIP3    H214836   5.685   5.787   1.772
 4958TIP3   OH214837   5.265   0.467   5.333
 4958TIP3    H114838   5.265   0.419   5.250
 4958TIP3    H214839   5.213   0.545   5.315
 4959TIP3   OH214840   4.193   6.453   1.402
 4959TIP3    H114841   4.270   6.450   1.458
 4959TIP3    H214842   4.121   6.478   1.461
 4960TIP3   OH214843   5.478   4.012   5.491
 4960TIP3    H114844   5.526   3.999   5.409
 4960TIP3    H214845   5.428   4.093   5.476
 4961TIP3   OH214846   7.177   2.714   5.182
 4961TIP3    H114847   7.193   2.732   5.089
 4961TIP3    H214848   7.256   2.668   5.211
 4962TIP3   OH214849   4.714   4.384   4.745
 4962TIP3    H114850   4.705   4.328   4.822
 4962TIP3    H214851   4.644   4.448   4.753
 4963TIP3   OH214852   6.393   4.096   5.016
 4963TIP3    H114853   6.348   4.012   5.030
 4963TIP3    H214854   6.436   4.114   5.099
 4964TIP3   OH214855   6.090   3.034   0.775
 4964TIP3    H114856   6.054   3.120   0.755
 4964TIP3    H214857   6.036   3.001   0.847
 4965TIP3   OH214858   6.476   0.357   1.229
 4965TIP3    H114859   6.468   0.313   1.145
 4965TIP3    H214860   6.545   0.309   1.275
 4966TIP3   OH214861   5.565   6.825   5.141
 4966TIP3    H114862   5.490   6.829   5.200
 4966TIP3    H214863   5.552   6.745   5.090
 4967TIP3   OH214864   6.481   1.312   4.139
 4967TIP3    H114865   6.517   1.400   4.141
 4967TIP3    H214866   6.444   1.298   4.226
 4968TIP3   OH214867   0.259   5.180   0.277
 4968TIP3    H114868   0.282   5.214   0.190
 4968TIP3    H214869   0.228   5.257   0.324
 4969TIP3   OH214870   2.398   0.611   5.036
 4969TIP3    H114871   2.429   0.688   5.084
 4969TIP3    H214872   2.429   0.624   4.947
 4970TIP3   OH214873   1.146   4.247   3.391
 4970TIP3    H114874   1.206   4.316   3.365
 4970TIP3    H214875   1.197   4.167   3.384
 4971TIP3   OH214876   6.752   5.417   2.851
 4971TIP3    H114877   6.782   5.329   2.828
 4971TIP3    H214878   6.744   5.462   2.767
 4972TIP3   OH214879   3.690   4.129   5.473
 4972TIP3    H114880   3.780   4.154   5.455
 4972TIP3    H214881   3.679   4.141   5.567
 4973TIP3   OH214882   2.859   1.926   5.174
 4973TIP3    H114883   2.901   1.913   5.259
 4973TIP3    H214884   2.919   1.884   5.111
 4974TIP3   OH214885   0.106   0.449   3.388
 4974TIP3    H114886   0.126   0.522   3.329
 4974TIP3    H214887   0.036   0.401   3.343
 4975TIP3   OH214888   4.419   4.873   1.698
 4975TIP3    H114889   4.440   4.859   1.606
 4975TIP3    H214890   4.464   4.802   1.744
 4976TIP3   OH214891   6.394   3.693   4.524
 4976TIP3    H114892   6.339   3.696   4.445
 4976TIP3    H214893   6.397   3.601   4.548
 4977TIP3   OH214894   5.751   2.296   1.701
 4977TIP3    H114895   5.699   2.371   1.730
 4977TIP3    H214896   5.760   2.309   1.606
 4978TIP3   OH214897   5.028   3.742   4.850
 4978TIP3    H114898   5.052   3.743   4.757
 4978TIP3    H214899   5.023   3.835   4.874
 4979TIP3   OH214900   1.879   2.784   3.210
 4979TIP3    H114901   1.971   2.809   3.200
 4979TIP3    H214902   1.851   2.762   3.121
 4980TIP3   OH214903   6.517   6.560   5.436
 4980TIP3    H114904   6.445   6.583   5.379
 4980TIP3    H214905   6.558   6.643   5.460
 4981TIP3   OH214906   3.977   0.604   3.510
 4981TIP3    H114907   4.054   0.585   3.564
 4981TIP3    H214908   3.956   0.696   3.528
 4982TIP3   OH214909   1.563   6.202   4.178
 4982TIP3    H114910   1.566   6.109   4.199
 4982TIP3    H214911   1.581   6.246   4.262
 4983TIP3   OH214912   5.809   6.389   1.441
 4983TIP3    H114913   5.809   6.295   1.425
 4983TIP3    H214914   5.866   6.425   1.374
 4984TIP3   OH214915   5.889   4.457   3.543
 4984TIP3    H114916   5.797   4.481   3.551
 4984TIP3    H214917   5.906   4.459   3.448
 4985TIP3   OH214918   0.849   0.843   4.483
 4985TIP3    H114919   0.850   0.936   4.503
 4985TIP3    H214920   0.797   0.804   4.554
 4986TIP3   OH214921   6.635   3.459   5.005
 4986TIP3    H114922   6.572   3.478   5.075
 4986TIP3    H214923   6.583   3.416   4.937
 4987TIP3   OH214924   0.660   4.132   0.655
 4987TIP3    H114925   0.726   4.162   0.592
 4987TIP3    H214926   0.711   4.095   0.727
 4988TIP3   OH214927   2.509   2.338   5.355
 4988TIP3    H114928   2.490   2.389   5.276
 4988TIP3    H214929   2.488   2.397   5.428
 4989TIP3   OH214930   0.321   6.000   0.326
 4989TIP3    H114931   0.280   6.053   0.394
 4989TIP3    H214932   0.257   5.998   0.255
 4990TIP3   OH214933   4.196   5.920   4.083
 4990TIP3    H114934   4.169   5.897   3.994
 4990TIP3    H214935   4.120   5.902   4.137
 4991TIP3   OH214936   5.119   3.242   5.134
 4991TIP3    H114937   5.193   3.193   5.099
 4991TIP3    H214938   5.045   3.216   5.079
 4992TIP3   OH214939   6.819   5.618   5.233
 4992TIP3    H114940   6.879   5.646   5.302
 4992TIP3    H214941   6.785   5.534   5.263
 4993TIP3   OH214942   1.844   2.500   0.287
 4993TIP3    H114943   1.921   2.538   0.245
 4993TIP3    H214944   1.843   2.409   0.255
 4994TIP3   OH214945   4.325   0.034   5.329
 4994TIP3    H114946   4.284  -0.027   5.268
 4994TIP3    H214947   4.355   0.107   5.275
 4995TIP3   OH214948   1.328   3.963   0.628
 4995TIP3    H114949   1.374   3.987   0.548
 4995TIP3    H214950   1.373   3.884   0.659
 4996TIP3   OH214951   6.970   0.187   5.820
 4996TIP3    H114952   7.059   0.215   5.800
 4996TIP3    H214953   6.918   0.212   5.743
 4997TIP3   OH214954   4.725   5.368   0.359
 4997TIP3    H114955   4.775   5.370   0.441
 4997TIP3    H214956   4.754   5.445   0.311
 4998TIP3   OH214957   6.741   1.374   3.754
 4998TIP3    H114958   6.767   1.307   3.817
 4998TIP3    H214959   6.657   1.343   3.720
 4999TIP3   OH214960   3.486   2.945   1.568
 4999TIP3    H114961   3.464   2.883   1.497
 4999TIP3    H214962   3.579   2.962   1.556
 5000TIP3   OH214963   0.526   3.848   3.211
 5000TIP3    H114964   0.595   3.911   3.231
 5000TIP3    H214965   0.445   3.890   3.242
 5001TIP3   OH214966   6.599   5.454   0.303
 5001TIP3    H114967   6.504   5.451   0.293
 5001TIP3    H214968   6.626   5.532   0.255
 5002TIP3   OH214969   6.792   4.032   5.301
 5002TIP3    H114970   6.794   3.968   5.230
 5002TIP3    H214971   6.736   3.992   5.368
 5003TIP3   OH214972   5.682   3.701   3.990
 5003TIP3    H114973   5.730   3.632   3.945
 5003TIP3    H214974   5.730   3.781   3.968
 5004TIP3   OH214975   1.119   6.568   3.744
 5004TIP3    H114976   1.176   6.587   3.819
 5004TIP3    H214977   1.133   6.476   3.725
 5005TIP3   OH214978   0.173   4.337   0.141
 5005TIP3    H114979   0.181   4.400   0.069
 5005TIP3    H214980   0.100   4.371   0.194
 5006TIP3   OH214981   6.255   0.373   4.261
 5006TIP3    H114982   6.166   0.341   4.248
 5006TIP3    H214983   6.290   0.384   4.172
 5007TIP3   OH214984   5.276   4.028   0.349
 5007TIP3    H114985   5.242   4.062   0.267
 5007TIP3    H214986   5.250   3.936   0.350
 5008TIP3   OH214987   4.243   4.334   1.505
 5008TIP3    H114988   4.293   4.255   1.528
 5008TIP3    H214989   4.174   4.339   1.571
 5009TIP3   OH214990   6.702   1.595   3.913
 5009TIP3    H114991   6.744   1.657   3.853
 5009TIP3    H214992   6.721   1.509   3.876
 5010TIP3   OH214993   2.407   0.620   4.160
 5010TIP3    H114994   2.452   0.615   4.075
 5010TIP3    H214995   2.364   0.706   4.159
 5011TIP3   OH214996   1.829   5.173   2.067
 5011TIP3    H114997   1.797   5.160   1.977
 5011TIP3    H214998   1.925   5.164   2.059
 5012TIP3   OH214999   3.055   4.301   1.865
 5012TIP3    H115000   2.967   4.268   1.884
 5012TIP3    H215001   3.046   4.396   1.863
 5013TIP3   OH215002   1.770   4.404   2.833
 5013TIP3    H115003   1.790   4.359   2.915
 5013TIP3    H215004   1.853   4.403   2.785
 5014TIP3   OH215005   6.531   0.835   1.550
 5014TIP3    H115006   6.446   0.791   1.559
 5014TIP3    H215007   6.528   0.874   1.462
 5015TIP3   OH215008   1.940   2.749   2.153
 5015TIP3    H115009   1.984   2.826   2.190
 5015TIP3    H215010   1.848   2.773   2.151
 5016TIP3   OH215011   4.007   0.327   4.835
 5016TIP3    H115012   3.989   0.382   4.759
 5016TIP3    H215013   4.007   0.238   4.801
 5017TIP3   OH215014   6.903   2.209   1.461
 5017TIP3    H115015   6.824   2.190   1.511
 5017TIP3    H215016   6.974   2.173   1.514
 5018TIP3   OH215017   1.964   0.689   3.232
 5018TIP3    H115018   1.927   0.665   3.317
 5018TIP3    H215019   1.932   0.622   3.172
 5019TIP3   OH215020   2.248   2.148   0.209
 5019TIP3    H115021   2.201   2.068   0.234
 5019TIP3    H215022   2.199   2.181   0.134
 5020TIP3   OH215023   6.821   2.527   4.864
 5020TIP3    H115024   6.858   2.454   4.913
 5020TIP3    H215025   6.875   2.602   4.888
 5021TIP3   OH215026   2.705   3.882   4.991
 5021TIP3    H115027   2.743   3.917   4.911
 5021TIP3    H215028   2.649   3.952   5.023
 5022TIP3   OH215029   5.895   4.576   0.196
 5022TIP3    H115030   5.821   4.533   0.152
 5022TIP3    H215031   5.902   4.531   0.280
 5023TIP3   OH215032   0.684   6.317   1.595
 5023TIP3    H115033   0.763   6.306   1.647
 5023TIP3    H215034   0.624   6.364   1.653
 5024TIP3   OH215035   4.991   1.901   3.445
 5024TIP3    H115036   5.081   1.880   3.472
 5024TIP3    H215037   5.000   1.933   3.355
 5025TIP3   OH215038   0.408   5.599   4.364
 5025TIP3    H115039   0.500   5.623   4.375
 5025TIP3    H215040   0.362   5.650   4.431
 5026TIP3   OH215041   0.435   0.789   1.817
 5026TIP3    H115042   0.348   0.826   1.829
 5026TIP3    H215043   0.480   0.852   1.761
 5027TIP3   OH215044   1.448   2.418   5.764
 5027TIP3    H115045   1.412   2.478   5.699
 5027TIP3    H215046   1.395   2.339   5.756
 5028TIP3   OH215047   5.589   0.614   3.900
 5028TIP3    H115048   5.556   0.529   3.930
 5028TIP3    H215049   5.633   0.595   3.818
 5029TIP3   OH215050   3.996   1.490   2.331
 5029TIP3    H115051   3.942   1.476   2.409
 5029TIP3    H215052   3.968   1.422   2.270
 5030TIP3   OH215053   2.634   6.432   1.722
 5030TIP3    H115054   2.571   6.391   1.781
 5030TIP3    H215055   2.713   6.379   1.731
 5031TIP3   OH215056   0.887   1.107   0.172
 5031TIP3    H115057   0.974   1.088   0.138
 5031TIP3    H215058   0.827   1.065   0.111
 5032TIP3   OH215059   3.009   4.679   3.122
 5032TIP3    H115060   3.062   4.757   3.134
 5032TIP3    H215061   2.940   4.686   3.187
 5033TIP3   OH215062   3.220   4.408   5.003
 5033TIP3    H115063   3.315   4.413   5.015
 5033TIP3    H215064   3.186   4.484   5.052
 5034TIP3   OH215065   3.562   0.361   0.931
 5034TIP3    H115066   3.610   0.286   0.897
 5034TIP3    H215067   3.470   0.339   0.919
 5035TIP3   OH215068   6.609   0.598   1.340
 5035TIP3    H115069   6.542   0.540   1.303
 5035TIP3    H215070   6.584   0.608   1.432
 5036TIP3   OH215071   1.520   2.953   4.632
 5036TIP3    H115072   1.495   2.989   4.717
 5036TIP3    H215073   1.459   2.880   4.618
 5037TIP3   OH215074   0.122   4.148   4.234
 5037TIP3    H115075   0.041   4.183   4.270
 5037TIP3    H215076   0.159   4.096   4.306
 5038TIP3   OH215077   6.637   4.072   0.130
 5038TIP3    H115078   6.621   4.006   0.197
 5038TIP3    H215079   6.624   4.156   0.174
 5039TIP3   OH215080   5.757   4.448   1.931
 5039TIP3    H115081   5.739   4.414   1.843
 5039TIP3    H215082   5.766   4.543   1.918
 5040TIP3   OH215083   3.845   4.830   0.261
 5040TIP3    H115084   3.849   4.803   0.352
 5040TIP3    H215085   3.915   4.894   0.251
 5041TIP3   OH215086   4.300   2.991   0.718
 5041TIP3    H115087   4.371   2.928   0.732
 5041TIP3    H215088   4.305   3.013   0.625
 5042TIP3   OH215089   2.035   2.367   3.931
 5042TIP3    H115090   1.998   2.449   3.964
 5042TIP3    H215091   2.128   2.386   3.917
 5043TIP3   OH215092   6.373   5.923   3.086
 5043TIP3    H115093   6.278   5.920   3.096
 5043TIP3    H215094   6.408   5.924   3.175
 5044TIP3   OH215095   6.224   5.695   4.368
 5044TIP3    H115096   6.229   5.745   4.286
 5044TIP3    H215097   6.146   5.641   4.359
 5045TIP3   OH215098   1.364   1.126   2.916
 5045TIP3    H115099   1.336   1.192   2.980
 5045TIP3    H215100   1.351   1.169   2.831
 5046TIP3   OH215101   1.806   0.690   3.878
 5046TIP3    H115102   1.777   0.620   3.820
 5046TIP3    H215103   1.769   0.666   3.964
 5047TIP3   OH215104   3.668   1.600   0.197
 5047TIP3    H115105   3.616   1.613   0.276
 5047TIP3    H215106   3.659   1.506   0.177
 5048TIP3   OH215107   3.891   0.641   4.970
 5048TIP3    H115108   3.896   0.726   4.927
 5048TIP3    H215109   3.936   0.581   4.910
 5049TIP3   OH215110   1.090   4.016   1.850
 5049TIP3    H115111   1.124   4.095   1.808
 5049TIP3    H215112   1.158   3.950   1.835
 5050TIP3   OH215113   3.424   2.109   3.244
 5050TIP3    H115114   3.506   2.100   3.197
 5050TIP3    H215115   3.357   2.103   3.176
 5051TIP3   OH215116   4.467   0.938   1.380
 5051TIP3    H115117   4.393   0.994   1.404
 5051TIP3    H215118   4.430   0.873   1.321
 5052TIP3   OH215119   2.251   2.991   2.971
 5052TIP3    H115120   2.166   2.972   3.010
 5052TIP3    H215121   2.279   2.908   2.932
 5053TIP3   OH215122   3.548   0.161   0.083
 5053TIP3    H115123   3.505   0.196   0.006
 5053TIP3    H215124   3.583   0.237   0.129
 5054TIP3   OH215125   1.993   4.443   1.969
 5054TIP3    H115126   2.076   4.396   1.972
 5054TIP3    H215127   2.015   4.529   1.934
 5055TIP3   OH215128   1.452   5.441   0.473
 5055TIP3    H115129   1.530   5.411   0.521
 5055TIP3    H215130   1.426   5.365   0.420
 5056TIP3   OH215131   6.416   5.980   2.778
 5056TIP3    H115132   6.378   5.897   2.750
 5056TIP3    H215133   6.439   6.024   2.696
 5057TIP3   OH215134   3.609   3.170   2.821
 5057TIP3    H115135   3.578   3.166   2.731
 5057TIP3    H215136   3.530   3.181   2.874
 5058TIP3   OH215137   1.721   6.078   1.057
 5058TIP3    H115138   1.699   6.014   0.989
 5058TIP3    H215139   1.704   6.163   1.017
 5059TIP3   OH215140   3.104   2.658   3.383
 5059TIP3    H115141   3.193   2.661   3.347
 5059TIP3    H215142   3.108   2.713   3.461
 5060TIP3   OH215143   1.495   0.252   3.540
 5060TIP3    H115144   1.495   0.280   3.631
 5060TIP3    H215145   1.588   0.248   3.516
 5061TIP3   OH215146   5.785   6.487   0.505
 5061TIP3    H115147   5.861   6.499   0.561
 5061TIP3    H215148   5.793   6.556   0.439
 5062TIP3   OH215149   6.344   3.135   0.671
 5062TIP3    H115150   6.262   3.093   0.645
 5062TIP3    H215151   6.327   3.166   0.760
 5063TIP3   OH215152   1.828   3.167   1.045
 5063TIP3    H115153   1.773   3.242   1.022
 5063TIP3    H215154   1.914   3.189   1.010
 5064TIP3   OH215155   0.905   6.727   3.709
 5064TIP3    H115156   0.945   6.796   3.762
 5064TIP3    H215157   0.978   6.668   3.689
 5065TIP3   OH215158   3.978   4.008   4.902
 5065TIP3    H115159   3.931   4.060   4.836
 5065TIP3    H215160   3.946   3.919   4.889
 5066TIP3   OH215161   3.498   5.751   2.122
 5066TIP3    H115162   3.509   5.744   2.027
 5066TIP3    H215163   3.445   5.829   2.135
 5067TIP3   OH215164   5.887   2.466   4.609
 5067TIP3    H115165   5.806   2.473   4.658
 5067TIP3    H215166   5.931   2.389   4.646
 5068TIP3   OH215167   3.130   2.223   2.123
 5068TIP3    H115168   3.209   2.254   2.169
 5068TIP3    H215169   3.129   2.272   2.041
 5069TIP3   OH215170   6.372   1.611   3.746
 5069TIP3    H115171   6.280   1.635   3.734
 5069TIP3    H215172   6.412   1.622   3.660
 5070TIP3   OH215173   0.875   1.263   2.888
 5070TIP3    H115174   0.813   1.202   2.927
 5070TIP3    H215175   0.947   1.208   2.856
 5071TIP3   OH215176   6.494   2.430   5.351
 5071TIP3    H115177   6.530   2.457   5.266
 5071TIP3    H215178   6.563   2.451   5.414
 5072TIP3   OH215179   5.639   1.265   3.424
 5072TIP3    H115180   5.696   1.218   3.485
 5072TIP3    H215181   5.636   1.355   3.458
 5073TIP3   OH215182   1.960   3.204   5.744
 5073TIP3    H115183   2.049   3.211   5.712
 5073TIP3    H215184   1.968   3.193   5.839
 5074TIP3   OH215185   2.640   4.299   2.241
 5074TIP3    H115186   2.599   4.331   2.321
 5074TIP3    H215187   2.575   4.240   2.203
 5075TIP3   OH215188   5.660   6.273   2.979
 5075TIP3    H115189   5.620   6.330   2.914
 5075TIP3    H215190   5.734   6.234   2.934
 5076TIP3   OH215191   1.963   0.913   2.137
 5076TIP3    H115192   1.979   0.937   2.046
 5076TIP3    H215193   1.878   0.953   2.157
 5077TIP3   OH215194   4.029   6.347   2.782
 5077TIP3    H115195   3.943   6.371   2.817
 5077TIP3    H215196   4.066   6.289   2.849
 5078TIP3   OH215197   2.904   2.685   2.914
 5078TIP3    H115198   2.928   2.623   2.846
 5078TIP3    H215199   2.809   2.680   2.920
 5079TIP3   OH215200   4.737   5.589   4.362
 5079TIP3    H115201   4.696   5.538   4.292
 5079TIP3    H215202   4.719   5.681   4.339
 5080TIP3   OH215203   5.377   5.756   2.106
 5080TIP3    H115204   5.292   5.760   2.063
 5080TIP3    H215205   5.392   5.663   2.123
 5081TIP3   OH215206   6.529   0.422   0.947
 5081TIP3    H115207   6.521   0.327   0.937
 5081TIP3    H215208   6.532   0.455   0.857
 5082TIP3   OH215209   4.212   1.276   4.517
 5082TIP3    H115210   4.269   1.341   4.476
 5082TIP3    H215211   4.273   1.216   4.562
 5083TIP3   OH215212   4.626   3.354   0.168
 5083TIP3    H115213   4.557   3.377   0.106
 5083TIP3    H215214   4.657   3.268   0.139
 5084TIP3   OH215215   0.365   0.084   1.632
 5084TIP3    H115216   0.317   0.159   1.596
 5084TIP3    H215217   0.344   0.011   1.573
 5085TIP3   OH215218   5.094   4.713   5.285
 5085TIP3    H115219   5.112   4.649   5.217
 5085TIP3    H215220   5.167   4.706   5.346
 5086TIP3   OH215221   5.238   4.682   4.109
 5086TIP3    H115222   5.154   4.659   4.070
 5086TIP3    H215223   5.218   4.695   4.202
 5087TIP3   OH215224   1.462   5.100   1.900
 5087TIP3    H115225   1.422   5.052   1.827
 5087TIP3    H215226   1.556   5.093   1.885
 5088TIP3   OH215227   4.110   0.591   5.629
 5088TIP3    H115228   4.125   0.614   5.537
 5088TIP3    H215229   4.045   0.654   5.659
 5089TIP3   OH215230   1.822   6.208   4.565
 5089TIP3    H115231   1.888   6.273   4.540
 5089TIP3    H215232   1.873   6.133   4.596
 5090TIP3   OH215233   0.234   4.390   4.383
 5090TIP3    H115234   0.264   4.326   4.318
 5090TIP3    H215235   0.242   4.344   4.467
 5091TIP3   OH215236   6.035   5.652   0.463
 5091TIP3    H115237   6.101   5.702   0.416
 5091TIP3    H215238   6.013   5.579   0.405
 5092TIP3   OH215239   1.754   3.783   0.350
 5092TIP3    H115240   1.689   3.767   0.419
 5092TIP3    H215241   1.704   3.819   0.277
 5093TIP3   OH215242   6.131   1.672   2.976
 5093TIP3    H115243   6.203   1.733   2.994
 5093TIP3    H215244   6.053   1.726   2.973
 5094TIP3   OH215245   2.576   0.091   5.520
 5094TIP3    H115246   2.645   0.069   5.458
 5094TIP3    H215247   2.533   0.168   5.482
 5095TIP3   OH215248   4.865   6.639   0.306
 5095TIP3    H115249   4.783   6.688   0.313
 5095TIP3    H215250   4.838   6.547   0.302
 5096TIP3   OH215251   2.541   3.268   5.163
 5096TIP3    H115252   2.579   3.302   5.082
 5096TIP3    H215253   2.570   3.177   5.166
 5097TIP3   OH215254   3.399   5.237   5.051
 5097TIP3    H115255   3.470   5.223   4.989
 5097TIP3    H215256   3.343   5.302   5.008
 5098TIP3   OH215257   0.865   2.407   2.983
 5098TIP3    H115258   0.902   2.367   3.061
 5098TIP3    H215259   0.777   2.433   3.008
 5099TIP3   OH215260   3.811   6.235   1.633
 5099TIP3    H115261   3.733   6.197   1.672
 5099TIP3    H215262   3.846   6.166   1.576
 5100TIP3   OH215263   3.978   4.542   4.019
 5100TIP3    H115264   3.905   4.580   4.067
 5100TIP3    H215265   4.009   4.613   3.963
 5101TIP3   OH215266   3.105   6.303   4.454
 5101TIP3    H115267   3.111   6.260   4.539
 5101TIP3    H215268   3.106   6.397   4.475
 5102TIP3   OH215269   4.554   1.987   4.799
 5102TIP3    H115270   4.573   1.984   4.706
 5102TIP3    H215271   4.465   1.955   4.807
 5103TIP3   OH215272   2.202   0.428   1.814
 5103TIP3    H115273   2.247   0.421   1.729
 5103TIP3    H215274   2.226   0.347   1.860
 5104TIP3   OH215275   3.984   3.422   0.036
 5104TIP3    H115276   3.901   3.376   0.035
 5104TIP3    H215277   3.961   3.512   0.062
 5105TIP3   OH215278   0.925   6.588   0.970
 5105TIP3    H115279   0.844   6.564   1.016
 5105TIP3    H215280   0.974   6.506   0.964
 5106TIP3   OH215281   3.305   4.475   1.179
 5106TIP3    H115282   3.240   4.484   1.110
 5106TIP3    H215283   3.340   4.563   1.191
 5107TIP3   OH215284   2.948   2.163   4.963
 5107TIP3    H115285   3.036   2.198   4.946
 5107TIP3    H215286   2.952   2.072   4.934
 5108TIP3   OH215287   4.546   5.597   0.679
 5108TIP3    H115288   4.480   5.571   0.742
 5108TIP3    H215289   4.525   5.546   0.600
 5109TIP3   OH215290   5.018   5.674   2.697
 5109TIP3    H115291   5.085   5.645   2.635
 5109TIP3    H215292   5.066   5.728   2.760
 5110TIP3   OH215293   3.165   0.718   3.292
 5110TIP3    H115294   3.242   0.684   3.337
 5110TIP3    H215295   3.200   0.754   3.210
 5111TIP3   OH215296   2.007   3.521   5.406
 5111TIP3    H115297   1.959   3.518   5.323
 5111TIP3    H215298   1.988   3.436   5.447
 5112TIP3   OH215299   5.389   2.682   1.073
 5112TIP3    H115300   5.311   2.732   1.050
 5112TIP3    H215301   5.432   2.666   0.989
 5113TIP3   OH215302   3.342   2.853   5.086
 5113TIP3    H115303   3.357   2.761   5.062
 5113TIP3    H215304   3.247   2.863   5.082
 5114TIP3   OH215305   0.808   1.763   3.586
 5114TIP3    H115306   0.889   1.813   3.591
 5114TIP3    H215307   0.749   1.816   3.534
 5115TIP3   OH215308   7.002   5.290   1.275
 5115TIP3    H115309   6.995   5.246   1.190
 5115TIP3    H215310   6.985   5.382   1.256
 5116TIP3   OH215311   1.954   5.018   0.624
 5116TIP3    H115312   1.928   4.971   0.545
 5116TIP3    H215313   1.980   5.105   0.592
 5117TIP3   OH215314   6.301   0.888   4.248
 5117TIP3    H115315   6.303   0.881   4.343
 5117TIP3    H215316   6.242   0.818   4.220
 5118TIP3   OH215317   0.558   0.858   0.780
 5118TIP3    H115318   0.503   0.782   0.799
 5118TIP3    H215319   0.646   0.822   0.773
 5119TIP3   OH215320   6.315   3.460   2.037
 5119TIP3    H115321   6.313   3.369   2.006
 5119TIP3    H215322   6.343   3.510   1.961
 5120TIP3   OH215323   6.512   6.162   4.104
 5120TIP3    H115324   6.531   6.127   4.191
 5120TIP3    H215325   6.591   6.211   4.081
 5121TIP3   OH215326   5.443   6.471   5.306
 5121TIP3    H115327   5.420   6.511   5.222
 5121TIP3    H215328   5.412   6.533   5.372
 5122TIP3   OH215329   0.014   4.112   2.698
 5122TIP3    H115330   0.029   4.090   2.790
 5122TIP3    H215331  -0.056   4.052   2.670
 5123TIP3   OH215332   3.465   4.869   0.367
 5123TIP3    H115333   3.380   4.911   0.378
 5123TIP3    H215334   3.518   4.933   0.319
 5124TIP3   OH215335   0.696   4.511   4.498
 5124TIP3    H115336   0.774   4.537   4.450
 5124TIP3    H215337   0.674   4.424   4.464
 5125TIP3   OH215338   1.890   0.233   3.289
 5125TIP3    H115339   1.928   0.269   3.369
 5125TIP3    H215340   1.893   0.305   3.226
 5126TIP3   OH215341   0.235   1.680   0.015
 5126TIP3    H115342   0.264   1.615  -0.048
 5126TIP3    H215343   0.311   1.696   0.071
 5127TIP3   OH215344   0.069   3.772   4.296
 5127TIP3    H115345   0.003   3.827   4.253
 5127TIP3    H215346   0.019   3.720   4.360
 5128TIP3   OH215347   1.802   6.584   5.779
 5128TIP3    H115348   1.843   6.621   5.700
 5128TIP3    H215349   1.753   6.657   5.816
 5129TIP3   OH215350   2.338   1.788   1.403
 5129TIP3    H115351   2.335   1.716   1.466
 5129TIP3    H215352   2.416   1.771   1.350
 5130TIP3   OH215353   4.977   3.805   0.616
 5130TIP3    H115354   4.969   3.857   0.696
 5130TIP3    H215355   4.945   3.718   0.642
 5131TIP3   OH215356   3.835   5.509   0.849
 5131TIP3    H115357   3.759   5.511   0.790
 5131TIP3    H215358   3.826   5.427   0.897
 5132TIP3   OH215359   5.294   5.859   4.912
 5132TIP3    H115360   5.342   5.838   4.992
 5132TIP3    H215361   5.224   5.794   4.909
 5133TIP3   OH215362   0.087   6.673   1.298
 5133TIP3    H115363   0.100   6.756   1.252
 5133TIP3    H215364   0.115   6.690   1.388
 5134TIP3   OH215365   5.643   2.523   2.428
 5134TIP3    H115366   5.714   2.586   2.419
 5134TIP3    H215367   5.633   2.485   2.341
 5135TIP3   OH215368   3.356   6.809   3.008
 5135TIP3    H115369   3.451   6.812   3.003
 5135TIP3    H215370   3.337   6.778   3.097
 5136TIP3   OH215371   6.589   3.919   1.015
 5136TIP3    H115372   6.515   3.928   0.955
 5136TIP3    H215373   6.597   3.825   1.029
 5137TIP3   OH215374   3.900   3.112   4.268
 5137TIP3    H115375   3.891   3.171   4.342
 5137TIP3    H215376   3.918   3.170   4.193
 5138TIP3   OH215377   1.168   1.186   0.654
 5138TIP3    H115378   1.094   1.127   0.666
 5138TIP3    H215379   1.233   1.133   0.608
 5139TIP3   OH215380   3.091   1.571   5.567
 5139TIP3    H115381   3.116   1.625   5.491
 5139TIP3    H215382   3.027   1.510   5.533
 5140TIP3   OH215383   5.124   2.682   2.457
 5140TIP3    H115384   5.181   2.746   2.415
 5140TIP3    H215385   5.055   2.736   2.498
 5141TIP3   OH215386   6.892   6.755   4.583
 5141TIP3    H115387   6.878   6.662   4.570
 5141TIP3    H215388   6.986   6.768   4.570
 5142TIP3   OH215389   0.417   4.462   2.164
 5142TIP3    H115390   0.393   4.372   2.186
 5142TIP3    H215391   0.400   4.511   2.245
 5143TIP3   OH215392   4.241   1.641   3.934
 5143TIP3    H115393   4.293   1.696   3.993
 5143TIP3    H215394   4.183   1.593   3.993
 5144TIP3   OH215395   1.409   4.020   0.345
 5144TIP3    H115396   1.380   4.101   0.304
 5144TIP3    H215397   1.462   3.977   0.277
 5145TIP3   OH215398   4.469   6.244   3.254
 5145TIP3    H115399   4.515   6.161   3.245
 5145TIP3    H215400   4.377   6.222   3.237
 5146TIP3   OH215401   3.157   1.339   4.097
 5146TIP3    H115402   3.213   1.405   4.055
 5146TIP3    H215403   3.162   1.263   4.040
 5147TIP3   OH215404   3.448   3.702   5.595
 5147TIP3    H115405   3.466   3.613   5.625
 5147TIP3    H215406   3.523   3.723   5.539
 5148TIP3   OH215407   1.399   4.621   1.736
 5148TIP3    H115408   1.410   4.624   1.641
 5148TIP3    H215409   1.428   4.533   1.761
 5149TIP3   OH215410   3.070   6.503   5.589
 5149TIP3    H115411   3.086   6.425   5.536
 5149TIP3    H215412   3.155   6.548   5.591
 5150TIP3   OH215413   6.802   4.209   1.572
 5150TIP3    H115414   6.829   4.238   1.485
 5150TIP3    H215415   6.746   4.279   1.605
 5151TIP3   OH215416   1.510   3.352   0.181
 5151TIP3    H115417   1.485   3.325   0.093
 5151TIP3    H215418   1.576   3.420   0.168
 5152TIP3   OH215419   3.847   3.999   0.081
 5152TIP3    H115420   3.768   4.003   0.134
 5152TIP3    H215421   3.898   3.927   0.118
 5153TIP3   OH215422   1.436   0.665   4.288
 5153TIP3    H115423   1.347   0.641   4.259
 5153TIP3    H215424   1.440   0.635   4.379
 5154TIP3   OH215425   4.328   6.476   3.184
 5154TIP3    H115426   4.318   6.446   3.093
 5154TIP3    H215427   4.388   6.412   3.223
 5155TIP3   OH215428   5.424   4.726   0.878
 5155TIP3    H115429   5.466   4.739   0.963
 5155TIP3    H215430   5.395   4.813   0.852
 5156TIP3   OH215431   0.325   5.019   1.109
 5156TIP3    H115432   0.387   5.057   1.172
 5156TIP3    H215433   0.241   5.021   1.155
 5157TIP3   OH215434   0.338   3.932   4.575
 5157TIP3    H115435   0.339   3.844   4.536
 5157TIP3    H215436   0.248   3.961   4.564
 5158TIP3   OH215437   6.586   0.502   5.159
 5158TIP3    H115438   6.557   0.495   5.068
 5158TIP3    H215439   6.591   0.411   5.189
 5159TIP3   OH215440   2.807   3.430   3.122
 5159TIP3    H115441   2.888   3.453   3.167
 5159TIP3    H215442   2.800   3.494   3.051
 5160TIP3   OH215443   4.458   5.338   3.345
 5160TIP3    H115444   4.487   5.362   3.257
 5160TIP3    H215445   4.536   5.346   3.399
 5161TIP3   OH215446   6.950   1.318   1.722
 5161TIP3    H115447   6.965   1.229   1.755
 5161TIP3    H215448   6.888   1.306   1.650
 5162TIP3   OH215449   4.327   5.561   3.140
 5162TIP3    H115450   4.377   5.490   3.098
 5162TIP3    H215451   4.301   5.618   3.067
 5163TIP3   OH215452   5.567   3.995   3.596
 5163TIP3    H115453   5.654   3.977   3.633
 5163TIP3    H215454   5.521   4.041   3.666
 5164TIP3   OH215455   2.342   1.766   1.986
 5164TIP3    H115456   2.333   1.861   1.995
 5164TIP3    H215457   2.411   1.742   2.048
 5165TIP3   OH215458   4.537   5.140   0.394
 5165TIP3    H115459   4.444   5.160   0.402
 5165TIP3    H215460   4.575   5.221   0.359
 5166TIP3   OH215461   0.370   2.997   0.529
 5166TIP3    H115462   0.328   3.064   0.583
 5166TIP3    H215463   0.378   3.038   0.443
 5167TIP3   OH215464   5.562   2.631   3.971
 5167TIP3    H115465   5.600   2.612   4.057
 5167TIP3    H215466   5.468   2.624   3.985
 5168TIP3   OH215467   6.438   5.760   4.091
 5168TIP3    H115468   6.452   5.704   4.168
 5168TIP3    H215469   6.355   5.804   4.108
 5169TIP3   OH215470   4.319   6.276   0.810
 5169TIP3    H115471   4.388   6.225   0.853
 5169TIP3    H215472   4.330   6.257   0.717
 5170TIP3   OH215473   4.924   3.595   5.129
 5170TIP3    H115474   4.881   3.593   5.043
 5170TIP3    H215475   4.890   3.675   5.170
 5171TIP3   OH215476   3.420   1.236   5.307
 5171TIP3    H115477   3.446   1.328   5.301
 5171TIP3    H215478   3.393   1.213   5.218
 5172TIP3   OH215479   2.491   0.569   5.408
 5172TIP3    H115480   2.531   0.600   5.327
 5172TIP3    H215481   2.548   0.603   5.477
 5173TIP3   OH215482   5.576   3.093   0.844
 5173TIP3    H115483   5.632   3.030   0.798
 5173TIP3    H215484   5.637   3.149   0.892
 5174TIP3   OH215485   6.286   4.851   0.537
 5174TIP3    H115486   6.365   4.904   0.552
 5174TIP3    H215487   6.249   4.837   0.624
 5175TIP3   OH215488   5.433   3.818   3.203
 5175TIP3    H115489   5.495   3.752   3.235
 5175TIP3    H215490   5.484   3.899   3.199
 5176TIP3   OH215491   3.236   5.634   2.575
 5176TIP3    H115492   3.279   5.562   2.622
 5176TIP3    H215493   3.182   5.590   2.509
 5177TIP3   OH215494   3.041   1.632   0.849
 5177TIP3    H115495   3.116   1.669   0.803
 5177TIP3    H215496   2.979   1.705   0.857
 5178TIP3   OH215497   0.131   2.364   0.745
 5178TIP3    H115498   0.220   2.392   0.726
 5178TIP3    H215499   0.102   2.421   0.817
 5179TIP3   OH215500   0.574   3.689   3.688
 5179TIP3    H115501   0.641   3.745   3.648
 5179TIP3    H215502   0.504   3.749   3.713
 5180TIP3   OH215503   6.205   6.694   1.801
 5180TIP3    H115504   6.201   6.726   1.711
 5180TIP3    H215505   6.115   6.675   1.825
 5181TIP3   OH215506   5.657   4.061   4.732
 5181TIP3    H115507   5.741   4.022   4.758
 5181TIP3    H215508   5.592   4.003   4.772
 5182TIP3   OH215509   2.883   0.278   2.109
 5182TIP3    H115510   2.889   0.200   2.164
 5182TIP3    H215511   2.937   0.343   2.154
 5183TIP3   OH215512   6.863   3.245   4.405
 5183TIP3    H115513   6.856   3.179   4.336
 5183TIP3    H215514   6.872   3.328   4.358
 5184TIP3   OH215515   5.158   2.830   1.000
 5184TIP3    H115516   5.150   2.896   1.068
 5184TIP3    H215517   5.077   2.779   1.007
 5185TIP3   OH215518   1.399   2.415   1.903
 5185TIP3    H115519   1.437   2.465   1.975
 5185TIP3    H215520   1.394   2.325   1.937
 5186TIP3   OH215521   2.881   2.993   3.198
 5186TIP3    H115522   2.971   3.024   3.204
 5186TIP3    H215523   2.827   3.066   3.229
 5187TIP3   OH215524   0.702   4.499   5.101
 5187TIP3    H115525   0.691   4.512   5.196
 5187TIP3    H215526   0.616   4.517   5.064
 5188TIP3   OH215527   5.527   0.114   5.205
 5188TIP3    H115528   5.546   0.038   5.260
 5188TIP3    H215529   5.543   0.190   5.261
 5189TIP3   OH215530   2.897   4.554   5.797
 5189TIP3    H115531   2.847   4.541   5.878
 5189TIP3    H215532   2.910   4.465   5.763
 5190TIP3   OH215533   2.049   5.549   1.014
 5190TIP3    H115534   2.112   5.589   1.073
 5190TIP3    H215535   2.016   5.622   0.961
 5191TIP3   OH215536   6.536   6.144   1.343
 5191TIP3    H115537   6.475   6.095   1.397
 5191TIP3    H215538   6.587   6.196   1.405
 5192TIP3   OH215539   6.780   0.084   4.674
 5192TIP3    H115540   6.816   0.162   4.717
 5192TIP3    H215541   6.836   0.072   4.597
 5193TIP3   OH215542   2.276   5.501   3.014
 5193TIP3    H115543   2.234   5.460   2.938
 5193TIP3    H215544   2.208   5.504   3.080
 5194TIP3   OH215545   0.924   4.305   1.675
 5194TIP3    H115546   0.893   4.380   1.625
 5194TIP3    H215547   0.934   4.235   1.611
 5195TIP3   OH215548   1.733   5.376   0.582
 5195TIP3    H115549   1.745   5.425   0.663
 5195TIP3    H215550   1.808   5.400   0.528
 5196TIP3   OH215551   3.696   2.491   5.276
 5196TIP3    H115552   3.636   2.434   5.325
 5196TIP3    H215553   3.738   2.545   5.342
 5197TIP3   OH215554   2.860   5.385   5.557
 5197TIP3    H115555   2.827   5.443   5.626
 5197TIP3    H215556   2.858   5.298   5.596
 5198TIP3   OH215557   6.126   1.563   3.946
 5198TIP3    H115558   6.032   1.546   3.938
 5198TIP3    H215559   6.134   1.657   3.935
 5199TIP3   OH215560   0.044   2.216   3.052
 5199TIP3    H115561  -0.001   2.158   3.113
 5199TIP3    H215562   0.066   2.293   3.104
 5200TIP3   OH215563   6.114   2.209   5.564
 5200TIP3    H115564   6.086   2.181   5.476
 5200TIP3    H215565   6.033   2.207   5.616
 5201TIP3   OH215566   7.027   5.748   3.164
 5201TIP3    H115567   6.968   5.823   3.161
 5201TIP3    H215568   7.060   5.746   3.253
 5202TIP3   OH215569   1.635   1.934   4.589
 5202TIP3    H115570   1.696   1.990   4.637
 5202TIP3    H215571   1.593   1.993   4.526
 5203TIP3   OH215572   5.454   2.113   4.970
 5203TIP3    H115573   5.425   2.022   4.974
 5203TIP3    H215574   5.547   2.109   4.989
 5204TIP3   OH215575   3.857   2.921   3.425
 5204TIP3    H115576   3.822   2.918   3.514
 5204TIP3    H215577   3.951   2.929   3.437
 5205TIP3   OH215578   0.721   1.780   0.345
 5205TIP3    H115579   0.760   1.728   0.415
 5205TIP3    H215580   0.645   1.822   0.386
 5206TIP3   OH215581   4.431   0.627   5.853
 5206TIP3    H115582   4.407   0.563   5.786
 5206TIP3    H215583   4.353   0.635   5.908
 5207TIP3   OH215584   1.351   0.302   5.011
 5207TIP3    H115585   1.406   0.348   4.948
 5207TIP3    H215586   1.270   0.352   5.013
 5208TIP3   OH215587   2.871   2.286   2.252
 5208TIP3    H115588   2.877   2.299   2.347
 5208TIP3    H215589   2.962   2.285   2.223
 5209TIP3   OH215590   4.630   0.241   1.786
 5209TIP3    H115591   4.690   0.307   1.820
 5209TIP3    H215592   4.622   0.177   1.857
 5210TIP3   OH215593   5.614   5.469   5.591
 5210TIP3    H115594   5.683   5.532   5.612
 5210TIP3    H215595   5.538   5.522   5.569
 5211TIP3   OH215596   6.749   6.453   5.740
 5211TIP3    H115597   6.783   6.542   5.727
 5211TIP3    H215598   6.827   6.398   5.741
 5212TIP3   OH215599   4.307   0.145   1.500
 5212TIP3    H115600   4.324   0.136   1.407
 5212TIP3    H215601   4.217   0.178   1.505
 5213TIP3   OH215602   0.661   1.422   0.889
 5213TIP3    H115603   0.744   1.465   0.908
 5213TIP3    H215604   0.684   1.348   0.832
 5214TIP3   OH215605   0.300   1.699   3.577
 5214TIP3    H115606   0.308   1.668   3.487
 5214TIP3    H215607   0.382   1.747   3.593
 5215TIP3   OH215608   6.819   5.560   3.477
 5215TIP3    H115609   6.801   5.587   3.567
 5215TIP3    H215610   6.733   5.533   3.443
 5216TIP3   OH215611   5.128   5.508   4.587
 5216TIP3    H115612   5.191   5.571   4.621
 5216TIP3    H215613   5.171   5.423   4.596
 5217TIP3   OH215614   0.693   3.183   0.688
 5217TIP3    H115615   0.697   3.180   0.592
 5217TIP3    H215616   0.735   3.102   0.716
 5218TIP3   OH215617   3.392   0.617   4.983
 5218TIP3    H115618   3.415   0.567   4.904
 5218TIP3    H215619   3.434   0.702   4.971
 5219TIP3   OH215620   6.059   0.564   2.587
 5219TIP3    H115621   6.141   0.556   2.636
 5219TIP3    H215622   6.086   0.577   2.496
 5220TIP3   OH215623   2.346   5.165   0.480
 5220TIP3    H115624   2.432   5.167   0.522
 5220TIP3    H215625   2.290   5.219   0.536
 5221TIP3   OH215626   2.106   4.947   5.346
 5221TIP3    H115627   2.147   5.029   5.320
 5221TIP3    H215628   2.099   4.952   5.442
 5222TIP3   OH215629   6.291   1.231   2.467
 5222TIP3    H115630   6.301   1.173   2.392
 5222TIP3    H215631   6.376   1.275   2.474
 5223TIP3   OH215632   1.656   3.449   0.565
 5223TIP3    H115633   1.698   3.472   0.482
 5223TIP3    H215634   1.626   3.359   0.552
 5224TIP3   OH215635   6.757   2.091   3.519
 5224TIP3    H115636   6.837   2.138   3.542
 5224TIP3    H215637   6.783   1.999   3.517
 5225TIP3   OH215638   4.706   3.078   2.805
 5225TIP3    H115639   4.791   3.033   2.803
 5225TIP3    H215640   4.717   3.154   2.748
 5226TIP3   OH215641   7.099   5.714   2.736
 5226TIP3    H115642   7.057   5.637   2.697
 5226TIP3    H215643   7.171   5.735   2.677
 5227TIP3   OH215644   6.282   6.409   5.522
 5227TIP3    H115645   6.362   6.459   5.507
 5227TIP3    H215646   6.212   6.463   5.483
 5228TIP3   OH215647   3.569   2.847   5.532
 5228TIP3    H115648   3.631   2.903   5.579
 5228TIP3    H215649   3.550   2.895   5.451
 5229TIP3   OH215650   4.454   3.485   0.595
 5229TIP3    H115651   4.366   3.523   0.597
 5229TIP3    H215652   4.459   3.430   0.673
 5230TIP3   OH215653   4.119   2.999   3.499
 5230TIP3    H115654   4.177   2.937   3.455
 5230TIP3    H215655   4.154   3.085   3.476
 5231TIP3   OH215656   4.622   1.109   5.844
 5231TIP3    H115657   4.647   1.018   5.825
 5231TIP3    H215658   4.547   1.101   5.903
 5232TIP3   OH215659   3.635   4.879   4.866
 5232TIP3    H115660   3.640   4.975   4.861
 5232TIP3    H215661   3.549   4.862   4.903
 5233TIP3   OH215662   6.437   4.518   2.160
 5233TIP3    H115663   6.411   4.527   2.252
 5233TIP3    H215664   6.387   4.444   2.128
 5234TIP3   OH215665   2.712   1.452   1.727
 5234TIP3    H115666   2.794   1.402   1.728
 5234TIP3    H215667   2.716   1.502   1.645
 5235TIP3   OH215668   1.613   2.590   2.922
 5235TIP3    H115669   1.532   2.607   2.874
 5235TIP3    H215670   1.592   2.612   3.013
 5236TIP3   OH215671   5.147   2.669   3.869
 5236TIP3    H115672   5.163   2.584   3.827
 5236TIP3    H215673   5.184   2.660   3.956
 5237TIP3   OH215674   6.842   3.151   0.031
 5237TIP3    H115675   6.885   3.236   0.026
 5237TIP3    H215676   6.756   3.165  -0.010
 5238TIP3   OH215677   1.774   0.132   3.801
 5238TIP3    H115678   1.864   0.161   3.821
 5238TIP3    H215679   1.783   0.075   3.725
 5239TIP3   OH215680   4.568   0.215   1.475
 5239TIP3    H115681   4.568   0.283   1.542
 5239TIP3    H215682   4.477   0.184   1.473
 5240TIP3   OH215683   5.799   0.744   4.779
 5240TIP3    H115684   5.818   0.702   4.863
 5240TIP3    H215685   5.776   0.834   4.801
 5241TIP3   OH215686   5.921   2.863   4.345
 5241TIP3    H115687   6.013   2.882   4.326
 5241TIP3    H215688   5.872   2.924   4.290
 5242TIP3   OH215689   6.574   2.818   4.086
 5242TIP3    H115690   6.493   2.867   4.099
 5242TIP3    H215691   6.551   2.749   4.023
 5243TIP3   OH215692   6.126   2.566   1.095
 5243TIP3    H115693   6.108   2.561   1.001
 5243TIP3    H215694   6.209   2.519   1.106
 5244TIP3   OH215695   2.330   3.511   1.007
 5244TIP3    H115696   2.275   3.565   0.951
 5244TIP3    H215697   2.340   3.428   0.960
 5245TIP3   OH215698   6.051   0.932   2.398
 5245TIP3    H115699   6.072   0.969   2.484
 5245TIP3    H215700   5.966   0.970   2.376
 5246TIP3   OH215701   2.504   5.250   1.929
 5246TIP3    H115702   2.446   5.306   1.877
 5246TIP3    H215703   2.473   5.260   2.019
 5247TIP3   OH215704   5.354   0.531   4.525
 5247TIP3    H115705   5.271   0.497   4.557
 5247TIP3    H215706   5.420   0.472   4.560
 5248TIP3   OH215707   0.086   1.696   3.176
 5248TIP3    H115708   0.155   1.655   3.228
 5248TIP3    H215709   0.067   1.632   3.107
 5249TIP3   OH215710   6.647   5.164   4.392
 5249TIP3    H115711   6.642   5.070   4.410
 5249TIP3    H215712   6.703   5.199   4.461
 5250TIP3   OH215713   0.749   1.481   2.817
 5250TIP3    H115714   0.791   1.395   2.818
 5250TIP3    H215715   0.675   1.471   2.877
 5251TIP3   OH215716   0.525   2.700   4.654
 5251TIP3    H115717   0.456   2.731   4.713
 5251TIP3    H215718   0.498   2.733   4.568
 5252TIP3   OH215719   1.137   4.611   5.317
 5252TIP3    H115720   1.152   4.627   5.410
 5252TIP3    H215721   1.113   4.519   5.312
 5253TIP3   OH215722   1.662   4.148   3.744
 5253TIP3    H115723   1.721   4.187   3.808
 5253TIP3    H215724   1.588   4.117   3.795
 5254TIP3   OH215725   1.904   6.499   5.393
 5254TIP3    H115726   1.903   6.557   5.316
 5254TIP3    H215727   1.843   6.429   5.370
 5255TIP3   OH215728   3.527   1.661   4.480
 5255TIP3    H115729   3.580   1.704   4.547
 5255TIP3    H215730   3.466   1.729   4.451
 5256TIP3   OH215731   6.022   4.423   2.614
 5256TIP3    H115732   6.049   4.356   2.551
 5256TIP3    H215733   5.948   4.385   2.660
 5257TIP3   OH215734   2.322   6.136   4.745
 5257TIP3    H115735   2.269   6.157   4.822
 5257TIP3    H215736   2.299   6.203   4.681
 5258TIP3   OH215737   4.096   1.892   0.581
 5258TIP3    H115738   4.146   1.915   0.503
 5258TIP3    H215739   4.029   1.830   0.551
 5259TIP3   OH215740   3.786   2.686   0.397
 5259TIP3    H115741   3.742   2.685   0.312
 5259TIP3    H215742   3.878   2.704   0.377
 5260TIP3   OH215743   4.907   1.005   4.265
 5260TIP3    H115744   4.844   1.075   4.250
 5260TIP3    H215745   4.870   0.929   4.221
 5261TIP3   OH215746   6.613   3.214   4.484
 5261TIP3    H115747   6.709   3.212   4.477
 5261TIP3    H215748   6.585   3.128   4.452
 5262TIP3   OH215749   4.856   6.301   0.034
 5262TIP3    H115750   4.914   6.225   0.033
 5262TIP3    H215751   4.866   6.341  -0.052
 5263TIP3   OH215752   5.693   4.968   3.896
 5263TIP3    H115753   5.743   5.017   3.831
 5263TIP3    H215754   5.742   4.888   3.909
 5264TIP3   OH215755   1.355   4.226   1.968
 5264TIP3    H115756   1.359   4.236   1.873
 5264TIP3    H215757   1.277   4.276   1.994
 5265TIP3   OH215758   4.724   0.847   5.234
 5265TIP3    H115759   4.800   0.876   5.183
 5265TIP3    H215760   4.668   0.924   5.240
 5266TIP3   OH215761   4.889   5.183   0.615
 5266TIP3    H115762   4.934   5.165   0.698
 5266TIP3    H215763   4.939   5.256   0.577
 5267TIP3   OH215764   6.272   3.817   5.046
 5267TIP3    H115765   6.262   3.819   4.951
 5267TIP3    H215766   6.249   3.728   5.071
 5268TIP3   OH215767   4.812   2.591   3.436
 5268TIP3    H115768   4.897   2.570   3.475
 5268TIP3    H215769   4.827   2.588   3.342
 5269TIP3   OH215770   2.043   6.315   4.423
 5269TIP3    H115771   2.082   6.400   4.400
 5269TIP3    H215772   2.096   6.283   4.496
 5270TIP3   OH215773   3.531   5.263   1.476
 5270TIP3    H115774   3.579   5.180   1.466
 5270TIP3    H215775   3.526   5.298   1.387
 5271TIP3   OH215776   3.898   2.558   5.100
 5271TIP3    H115777   3.949   2.478   5.090
 5271TIP3    H215778   3.826   2.534   5.158
 5272TIP3   OH215779   4.755   2.305   5.512
 5272TIP3    H115780   4.664   2.332   5.524
 5272TIP3    H215781   4.752   2.243   5.439
 5273TIP3   OH215782   1.324   6.239   2.129
 5273TIP3    H115783   1.260   6.282   2.186
 5273TIP3    H215784   1.299   6.265   2.041
 5274TIP3   OH215785   7.030   2.537   0.869
 5274TIP3    H115786   7.109   2.585   0.893
 5274TIP3    H215787   7.000   2.578   0.788
 5275TIP3   OH215788   3.546   0.629   1.025
 5275TIP3    H115789   3.582   0.651   1.111
 5275TIP3    H215790   3.554   0.534   1.019
 5276TIP3   OH215791   0.321   2.204   4.166
 5276TIP3    H115792   0.260   2.245   4.229
 5276TIP3    H215793   0.393   2.267   4.158
 5277TIP3   OH215794   3.592   5.848   5.226
 5277TIP3    H115795   3.649   5.870   5.300
 5277TIP3    H215796   3.636   5.884   5.149
 5278TIP3   OH215797   2.205   6.595   2.653
 5278TIP3    H115798   2.236   6.671   2.703
 5278TIP3    H215799   2.113   6.614   2.635
 5279TIP3   OH215800   3.880   1.170   1.416
 5279TIP3    H115801   3.926   1.206   1.340
 5279TIP3    H215802   3.819   1.106   1.378
 5280TIP3   OH215803   2.976   5.993   4.007
 5280TIP3    H115804   3.023   6.060   3.957
 5280TIP3    H215805   3.016   5.911   3.981
 5281TIP3   OH215806   6.233   4.489   4.983
 5281TIP3    H115807   6.198   4.550   5.047
 5281TIP3    H215808   6.185   4.407   4.999
 5282TIP3   OH215809   5.783   3.920   2.629
 5282TIP3    H115810   5.786   3.825   2.625
 5282TIP3    H215811   5.860   3.949   2.582
 5283TIP3   OH215812   2.729   4.735   1.834
 5283TIP3    H115813   2.689   4.814   1.798
 5283TIP3    H215814   2.764   4.688   1.759
 5284TIP3   OH215815   5.524   4.775   5.000
 5284TIP3    H115816   5.477   4.767   4.917
 5284TIP3    H215817   5.616   4.776   4.975
 5285TIP3   OH215818   4.444   0.783   0.931
 5285TIP3    H115819   4.492   0.746   1.005
 5285TIP3    H215820   4.498   0.857   0.902
 5286TIP3   OH215821   2.038   0.680   4.152
 5286TIP3    H115822   2.034   0.766   4.111
 5286TIP3    H215823   1.983   0.688   4.230
 5287TIP3   OH215824   0.914   5.795   4.101
 5287TIP3    H115825   0.837   5.738   4.102
 5287TIP3    H215826   0.986   5.737   4.079
 5288TIP3   OH215827   6.408   5.144   4.974
 5288TIP3    H115828   6.340   5.104   5.029
 5288TIP3    H215829   6.435   5.074   4.915
 5289TIP3   OH215830   2.474   3.371   2.373
 5289TIP3    H115831   2.537   3.442   2.382
 5289TIP3    H215832   2.521   3.303   2.324
 5290TIP3   OH215833   3.319   1.349   2.931
 5290TIP3    H115834   3.396   1.349   2.987
 5290TIP3    H215835   3.298   1.442   2.919
 5291TIP3   OH215836   3.744   0.510   4.747
 5291TIP3    H115837   3.649   0.516   4.753
 5291TIP3    H215838   3.768   0.580   4.685
 5292TIP3   OH215839   3.383   3.525   4.760
 5292TIP3    H115840   3.313   3.508   4.823
 5292TIP3    H215841   3.385   3.446   4.705
 5293TIP3   OH215842   2.506   3.569   1.816
 5293TIP3    H115843   2.480   3.552   1.907
 5293TIP3    H215844   2.551   3.654   1.820
 5294TIP3   OH215845   1.735   2.735   1.464
 5294TIP3    H115846   1.742   2.649   1.505
 5294TIP3    H215847   1.794   2.731   1.389
 5295TIP3   OH215848   4.783   5.854   0.605
 5295TIP3    H115849   4.754   5.872   0.695
 5295TIP3    H215850   4.724   5.906   0.550
 5296TIP3   OH215851   4.767   1.079   2.488
 5296TIP3    H115852   4.808   1.166   2.481
 5296TIP3    H215853   4.823   1.031   2.549
 5297TIP3   OH215854   1.522   0.143   4.085
 5297TIP3    H115855   1.550   0.060   4.048
 5297TIP3    H215856   1.528   0.206   4.013
 5298TIP3   OH215857   1.040   1.678   0.602
 5298TIP3    H115858   1.085   1.596   0.621
 5298TIP3    H215859   1.095   1.721   0.536
 5299TIP3   OH215860   6.375   2.015   4.395
 5299TIP3    H115861   6.462   2.012   4.354
 5299TIP3    H215862   6.393   2.042   4.485
 5300TIP3   OH215863   3.899   2.826   4.347
 5300TIP3    H115864   3.811   2.809   4.379
 5300TIP3    H215865   3.902   2.922   4.337
 5301TIP3   OH215866   7.051   4.897   5.203
 5301TIP3    H115867   7.068   4.880   5.296
 5301TIP3    H215868   6.980   4.961   5.204
 5302TIP3   OH215869   1.502   2.387   3.988
 5302TIP3    H115870   1.529   2.471   4.026
 5302TIP3    H215871   1.411   2.375   4.016
 5303TIP3   OH215872   5.073   0.959   1.611
 5303TIP3    H115873   5.144   0.895   1.616
 5303TIP3    H215874   5.030   0.941   1.527
 5304TIP3   OH215875   0.023   5.300   3.857
 5304TIP3    H115876   0.021   5.281   3.764
 5304TIP3    H215877   0.104   5.259   3.889
 5305TIP3   OH215878   2.415   5.393   4.058
 5305TIP3    H115879   2.424   5.486   4.078
 5305TIP3    H215880   2.423   5.388   3.963
 5306TIP3   OH215881   0.815   0.186   4.050
 5306TIP3    H115882   0.832   0.242   4.126
 5306TIP3    H215883   0.744   0.129   4.079
 5307TIP3   OH215884   5.465   3.192   5.547
 5307TIP3    H115885   5.402   3.258   5.517
 5307TIP3    H215886   5.550   3.231   5.531
 5308TIP3   OH215887   6.251   0.910   5.414
 5308TIP3    H115888   6.218   0.852   5.482
 5308TIP3    H215889   6.172   0.945   5.372
 5309TIP3   OH215890   1.122   4.702   1.790
 5309TIP3    H115891   1.184   4.763   1.749
 5309TIP3    H215892   1.133   4.717   1.884
 5310TIP3   OH215893   3.250   6.783   3.765
 5310TIP3    H115894   3.268   6.841   3.838
 5310TIP3    H215895   3.189   6.718   3.800
 5311TIP3   OH215896   0.909   4.292   3.571
 5311TIP3    H115897   0.990   4.267   3.528
 5311TIP3    H215898   0.923   4.271   3.664
 5312TIP3   OH215899   0.283   4.059   1.393
 5312TIP3    H115900   0.192   4.061   1.361
 5312TIP3    H215901   0.328   4.126   1.342
 5313TIP3   OH215902   6.794   1.194   1.045
 5313TIP3    H115903   6.834   1.214   0.961
 5313TIP3    H215904   6.836   1.254   1.107
 5314TIP3   OH215905   0.459   0.168   2.728
 5314TIP3    H115906   0.442   0.174   2.634
 5314TIP3    H215907   0.461   0.259   2.757
 5315TIP3   OH215908   6.741   5.040   0.710
 5315TIP3    H115909   6.700   5.076   0.788
 5315TIP3    H215910   6.763   4.950   0.734
 5316TIP3   OH215911   5.380   4.102   0.890
 5316TIP3    H115912   5.363   4.132   0.979
 5316TIP3    H215913   5.296   4.108   0.846
 5317TIP3   OH215914   0.104   2.571   1.233
 5317TIP3    H115915   0.185   2.534   1.267
 5317TIP3    H215916   0.056   2.598   1.312
 5318TIP3   OH215917   3.510   2.994   5.254
 5318TIP3    H115918   3.594   2.954   5.233
 5318TIP3    H215919   3.450   2.958   5.188
 5319TIP3   OH215920   1.508   3.999   4.744
 5319TIP3    H115921   1.486   3.910   4.771
 5319TIP3    H215922   1.427   4.032   4.705
 5320TIP3   OH215923   6.290   6.644   5.311
 5320TIP3    H115924   6.203   6.605   5.301
 5320TIP3    H215925   6.281   6.732   5.275
 5321TIP3   OH215926   6.031   5.333   2.856
 5321TIP3    H115927   6.008   5.361   2.945
 5321TIP3    H215928   6.091   5.260   2.869
 5322TIP3   OH215929   2.049   2.813   2.493
 5322TIP3    H115930   2.045   2.861   2.410
 5322TIP3    H215931   2.072   2.879   2.558
 5323TIP3   OH215932   0.785   6.165   3.178
 5323TIP3    H115933   0.785   6.213   3.261
 5323TIP3    H215934   0.694   6.166   3.149
 5324TIP3   OH215935   6.409   3.507   0.220
 5324TIP3    H115936   6.345   3.578   0.224
 5324TIP3    H215937   6.357   3.428   0.207
 5325TIP3   OH215938   4.822   4.540   4.268
 5325TIP3    H115939   4.815   4.494   4.185
 5325TIP3    H215940   4.759   4.497   4.325
 5326TIP3   OH215941   1.115   2.588   1.240
 5326TIP3    H115942   1.150   2.608   1.153
 5326TIP3    H215943   1.141   2.663   1.294
 5327TIP3   OH215944   2.365   6.043   4.261
 5327TIP3    H115945   2.386   5.986   4.187
 5327TIP3    H215946   2.386   5.990   4.338
 5328TIP3   OH215947   7.098   3.600   4.081
 5328TIP3    H115948   7.114   3.611   3.987
 5328TIP3    H215949   7.066   3.685   4.110
 5329TIP3   OH215950   2.963   3.802   3.600
 5329TIP3    H115951   3.029   3.754   3.650
 5329TIP3    H215952   2.879   3.767   3.631
 5330TIP3   OH215953   6.020   6.692   4.485
 5330TIP3    H115954   6.012   6.786   4.464
 5330TIP3    H215955   5.978   6.683   4.571
 5331TIP3   OH215956   2.822   2.416   5.640
 5331TIP3    H115957   2.764   2.353   5.681
 5331TIP3    H215958   2.826   2.389   5.548
 5332TIP3   OH215959   1.573   1.728   2.787
 5332TIP3    H115960   1.483   1.761   2.777
 5332TIP3    H215961   1.567   1.636   2.762
 5333TIP3   OH215962   5.447   0.375   3.936
 5333TIP3    H115963   5.453   0.362   4.030
 5333TIP3    H215964   5.386   0.308   3.905
 5334TIP3   OH215965   2.192   2.496   1.791
 5334TIP3    H115966   2.178   2.547   1.870
 5334TIP3    H215967   2.113   2.442   1.783
 5335TIP3   OH215968   2.558   1.687   1.262
 5335TIP3    H115969   2.639   1.662   1.217
 5335TIP3    H215970   2.491   1.629   1.227
 5336TIP3   OH215971   5.558   1.694   3.756
 5336TIP3    H115972   5.609   1.712   3.835
 5336TIP3    H215973   5.511   1.776   3.739
 5337TIP3   OH215974   6.812   6.114   2.256
 5337TIP3    H115975   6.737   6.150   2.304
 5337TIP3    H215976   6.789   6.023   2.241
 5338TIP3   OH215977   0.174   0.935   0.732
 5338TIP3    H115978   0.256   0.949   0.684
 5338TIP3    H215979   0.200   0.887   0.811
 5339TIP3   OH215980   7.203   5.236   3.605
 5339TIP3    H115981   7.285   5.223   3.557
 5339TIP3    H215982   7.165   5.315   3.566
 5340TIP3   OH215983   2.505   5.593   5.874
 5340TIP3    H115984   2.487   5.588   5.968
 5340TIP3    H215985   2.444   5.659   5.841
 5341TIP3   OH215986   5.646   3.678   3.323
 5341TIP3    H115987   5.657   3.633   3.407
 5341TIP3    H215988   5.735   3.694   3.292
 5342TIP3   OH215989   5.466   6.542   4.197
 5342TIP3    H115990   5.392   6.502   4.242
 5342TIP3    H215991   5.541   6.523   4.253
 5343TIP3   OH215992   2.432   0.173   3.141
 5343TIP3    H115993   2.497   0.192   3.074
 5343TIP3    H215994   2.478   0.186   3.224
 5344TIP3   OH215995   2.647   1.953   4.743
 5344TIP3    H115996   2.700   2.020   4.699
 5344TIP3    H215997   2.607   1.903   4.672
 5345TIP3   OH215998   2.373   0.132   3.962
 5345TIP3    H115999   2.296   0.085   3.993
 5345TIP3    H216000   2.423   0.067   3.913
 5346TIP3   OH216001   2.748   5.701   2.951
 5346TIP3    H116002   2.684   5.630   2.953
 5346TIP3    H216003   2.708   5.771   3.002
 5347TIP3   OH216004   0.951   0.411   2.397
 5347TIP3    H116005   0.888   0.481   2.410
 5347TIP3    H216006   0.988   0.395   2.484
 5348TIP3   OH216007   2.704   4.365   5.440
 5348TIP3    H116008   2.652   4.404   5.370
 5348TIP3    H216009   2.712   4.273   5.416
 5349TIP3   OH216010   0.877   5.766   2.646
 5349TIP3    H116011   0.788   5.798   2.633
 5349TIP3    H216012   0.868   5.698   2.713
 5350TIP3   OH216013   6.738   1.161   4.205
 5350TIP3    H116014   6.670   1.109   4.248
 5350TIP3    H216015   6.754   1.233   4.265
 5351TIP3   OH216016   3.862   2.448   2.380
 5351TIP3    H116017   3.907   2.464   2.463
 5351TIP3    H216018   3.818   2.364   2.393
 5352TIP3   OH216019   1.830   1.753   2.673
 5352TIP3    H116020   1.896   1.805   2.720
 5352TIP3    H216021   1.753   1.757   2.729
 5353TIP3   OH216022   2.912   0.452   3.197
 5353TIP3    H116023   2.988   0.455   3.139
 5353TIP3    H216024   2.888   0.359   3.200
 5354TIP3   OH216025   5.429   0.858   5.356
 5354TIP3    H116026   5.511   0.869   5.308
 5354TIP3    H216027   5.429   0.766   5.382
 5355TIP3   OH216028   6.517   2.050   0.879
 5355TIP3    H116029   6.581   2.017   0.817
 5355TIP3    H216030   6.557   2.130   0.914
 5356TIP3   OH216031   6.335   3.772   2.463
 5356TIP3    H116032   6.344   3.737   2.374
 5356TIP3    H216033   6.411   3.739   2.510
 5357TIP3   OH216034   5.778   0.556   4.976
 5357TIP3    H116035   5.787   0.469   5.013
 5357TIP3    H216036   5.721   0.602   5.037
 5358TIP3   OH216037   6.263   1.071   4.746
 5358TIP3    H116038   6.169   1.083   4.755
 5358TIP3    H216039   6.275   1.038   4.656
 5359TIP3   OH216040   5.440   3.343   1.036
 5359TIP3    H116041   5.444   3.406   1.108
 5359TIP3    H216042   5.349   3.315   1.035
 5360TIP3   OH216043   6.614   2.666   0.776
 5360TIP3    H116044   6.569   2.750   0.783
 5360TIP3    H216045   6.544   2.601   0.779
 5361TIP3   OH216046   4.638   5.634   4.681
 5361TIP3    H116047   4.662   5.562   4.623
 5361TIP3    H216048   4.720   5.678   4.701
 5362TIP3   OH216049   2.784   4.708   3.289
 5362TIP3    H116050   2.808   4.697   3.381
 5362TIP3    H216051   2.689   4.719   3.290
 5363TIP3   OH216052   2.941   1.802   4.608
 5363TIP3    H116053   2.991   1.882   4.594
 5363TIP3    H216054   2.998   1.732   4.576
 5364TIP3   OH216055   4.053   5.524   3.616
 5364TIP3    H116056   4.072   5.615   3.592
 5364TIP3    H216057   4.103   5.509   3.696
 5365TIP3   OH216058   5.680   5.180   0.665
 5365TIP3    H116059   5.589   5.209   0.653
 5365TIP3    H216060   5.723   5.199   0.581
 5366TIP3   OH216061   3.986   1.502   0.542
 5366TIP3    H116062   3.937   1.432   0.499
 5366TIP3    H216063   4.019   1.463   0.622
 5367TIP3   OH216064   0.827   5.566   5.469
 5367TIP3    H116065   0.871   5.483   5.488
 5367TIP3    H216066   0.807   5.562   5.376
 5368TIP3   OH216067   5.980   5.613   4.287
 5368TIP3    H116068   5.944   5.702   4.283
 5368TIP3    H216069   5.960   5.576   4.202
 5369TIP3   OH216070   5.873   1.770   5.791
 5369TIP3    H116071   5.826   1.730   5.717
 5369TIP3    H216072   5.805   1.786   5.857
 5370TIP3   OH216073   1.136   0.823   0.590
 5370TIP3    H116074   1.044   0.838   0.569
 5370TIP3    H216075   1.182   0.897   0.550
 5371TIP3   OH216076   2.014   1.111   1.059
 5371TIP3    H116077   2.072   1.092   1.133
 5371TIP3    H216078   2.022   1.034   1.003
 5372TIP3   OH216079   4.707   3.838   3.952
 5372TIP3    H116080   4.623   3.793   3.966
 5372TIP3    H216081   4.742   3.796   3.874
 5373TIP3   OH216082   5.188   1.902   2.799
 5373TIP3    H116083   5.214   1.994   2.802
 5373TIP3    H216084   5.114   1.897   2.860
 5374TIP3   OH216085   4.290   4.815   0.349
 5374TIP3    H116086   4.378   4.830   0.381
 5374TIP3    H216087   4.302   4.783   0.259
 5375TIP3   OH216088   1.258   5.163   3.817
 5375TIP3    H116089   1.348   5.179   3.845
 5375TIP3    H216090   1.260   5.079   3.772
 5376TIP3   OH216091   6.840   5.914   0.164
 5376TIP3    H116092   6.802   5.893   0.079
 5376TIP3    H216093   6.785   5.985   0.198
 5377TIP3   OH216094   3.675   6.665   4.831
 5377TIP3    H116095   3.714   6.691   4.747
 5377TIP3    H216096   3.648   6.574   4.818
 5378TIP3   OH216097   0.302   4.719   3.209
 5378TIP3    H116098   0.210   4.737   3.227
 5378TIP3    H216099   0.307   4.624   3.202
 5379TIP3   OH216100   4.808   0.201   0.768
 5379TIP3    H116101   4.827   0.109   0.751
 5379TIP3    H216102   4.777   0.203   0.859
 5380TIP3   OH216103   0.183   1.029   2.924
 5380TIP3    H116104   0.091   1.054   2.923
 5380TIP3    H216105   0.200   1.004   3.015
 5381TIP3   OH216106   1.599   5.002   5.079
 5381TIP3    H116107   1.561   5.061   5.015
 5381TIP3    H216108   1.592   5.049   5.162
 5382TIP3   OH216109   6.939   5.587   2.076
 5382TIP3    H116110   7.026   5.559   2.047
 5382TIP3    H216111   6.935   5.563   2.168
 5383TIP3   OH216112   6.939   1.309   0.810
 5383TIP3    H116113   6.962   1.398   0.785
 5383TIP3    H216114   7.016   1.257   0.789
 5384TIP3   OH216115   6.500   1.886   0.114
 5384TIP3    H116116   6.414   1.927   0.102
 5384TIP3    H216117   6.559   1.959   0.134
 5385TIP3   OH216118   1.279   1.819   1.620
 5385TIP3    H116119   1.191   1.831   1.584
 5385TIP3    H216120   1.329   1.893   1.586
 5386TIP3   OH216121   4.984   3.046   2.750
 5386TIP3    H116122   4.993   3.021   2.658
 5386TIP3    H216123   5.044   2.988   2.797
 5387TIP3   OH216124   6.460   1.752   4.438
 5387TIP3    H116125   6.406   1.682   4.401
 5387TIP3    H216126   6.416   1.833   4.413
 5388TIP3   OH216127   0.753   3.886   3.579
 5388TIP3    H116128   0.680   3.948   3.574
 5388TIP3    H216129   0.798   3.911   3.660
 5389TIP3   OH216130   3.440   0.150   3.851
 5389TIP3    H116131   3.464   0.102   3.930
 5389TIP3    H216132   3.523   0.182   3.816
 5390TIP3   OH216133   2.537   1.494   5.257
 5390TIP3    H116134   2.578   1.408   5.270
 5390TIP3    H216135   2.469   1.477   5.191
 5391TIP3   OH216136   7.139   6.047   1.631
 5391TIP3    H116137   7.132   6.093   1.548
 5391TIP3    H216138   7.071   5.979   1.626
 5392TIP3   OH216139   4.720   2.238   3.678
 5392TIP3    H116140   4.779   2.163   3.669
 5392TIP3    H216141   4.633   2.198   3.687
 5393TIP3   OH216142   3.302   6.076   4.266
 5393TIP3    H116143   3.297   6.152   4.208
 5393TIP3    H216144   3.211   6.044   4.272
 5394TIP3   OH216145   6.405   3.833   5.552
 5394TIP3    H116146   6.363   3.898   5.609
 5394TIP3    H216147   6.390   3.749   5.596
 5395TIP3   OH216148   4.038   5.130   0.589
 5395TIP3    H116149   4.003   5.192   0.525
 5395TIP3    H216150   3.967   5.119   0.653
 5396TIP3   OH216151   2.423   5.344   3.803
 5396TIP3    H116152   2.396   5.407   3.736
 5396TIP3    H216153   2.395   5.259   3.769
 5397TIP3   OH216154   4.155   1.555   4.187
 5397TIP3    H116155   4.065   1.574   4.215
 5397TIP3    H216156   4.210   1.588   4.258
 5398TIP3   OH216157   6.551   6.132   2.997
 5398TIP3    H116158   6.480   6.068   2.998
 5398TIP3    H216159   6.564   6.154   3.089
 5399TIP3   OH216160   5.201   3.002   0.229
 5399TIP3    H116161   5.121   2.966   0.268
 5399TIP3    H216162   5.209   2.959   0.144
 5400TIP3   OH216163   0.316   6.028   2.231
 5400TIP3    H116164   0.381   6.083   2.187
 5400TIP3    H216165   0.287   5.966   2.164
 5401TIP3   OH216166   1.215   3.266   0.520
 5401TIP3    H116167   1.285   3.253   0.583
 5401TIP3    H216168   1.253   3.324   0.454
 5402TIP3   OH216169   5.071   1.128   4.430
 5402TIP3    H116170   5.031   1.092   4.351
 5402TIP3    H216171   5.141   1.067   4.452
 5403TIP3   OH216172   2.874   3.311   5.265
 5403TIP3    H116173   2.897   3.381   5.327
 5403TIP3    H216174   2.915   3.337   5.183
 5404TIP3   OH216175   7.246   5.154   2.840
 5404TIP3    H116176   7.155   5.151   2.809
 5404TIP3    H216177   7.258   5.245   2.870
 5405TIP3   OH216178   6.073   0.846   1.124
 5405TIP3    H116179   6.152   0.882   1.084
 5405TIP3    H216180   6.016   0.825   1.051
 5406TIP3   OH216181   3.115   2.111   2.775
 5406TIP3    H116182   3.179   2.174   2.742
 5406TIP3    H216183   3.092   2.057   2.699
 5407TIP3   OH216184   0.370   6.253   1.813
 5407TIP3    H116185   0.351   6.246   1.720
 5407TIP3    H216186   0.290   6.289   1.851
 5408TIP3   OH216187   6.059   5.903   3.908
 5408TIP3    H116188   5.968   5.926   3.891
 5408TIP3    H216189   6.085   5.849   3.833
 5409TIP3   OH216190   2.204   5.994   3.603
 5409TIP3    H116191   2.186   6.080   3.640
 5409TIP3    H216192   2.298   5.996   3.581
 5410TIP3   OH216193   2.260   6.142   1.489
 5410TIP3    H116194   2.330   6.191   1.533
 5410TIP3    H216195   2.287   6.140   1.397
 5411TIP3   OH216196   5.890   2.398   2.285
 5411TIP3    H116197   5.927   2.429   2.368
 5411TIP3    H216198   5.830   2.329   2.311
 5412TIP3   OH216199   2.192   0.108   3.326
 5412TIP3    H116200   2.191   0.020   3.289
 5412TIP3    H216201   2.177   0.095   3.420
 5413TIP3   OH216202   3.361   0.419   0.531
 5413TIP3    H116203   3.315   0.455   0.455
 5413TIP3    H216204   3.350   0.324   0.522
 5414TIP3   OH216205   5.374   0.968   2.850
 5414TIP3    H116206   5.400   0.914   2.775
 5414TIP3    H216207   5.290   0.932   2.878
 5415TIP3   OH216208   1.728   4.528   0.890
 5415TIP3    H116209   1.824   4.535   0.886
 5415TIP3    H216210   1.698   4.618   0.902
 5416TIP3   OH216211   5.577   5.872   0.833
 5416TIP3    H116212   5.548   5.903   0.748
 5416TIP3    H216213   5.671   5.859   0.823
 5417TIP3   OH216214   3.778   4.379   0.910
 5417TIP3    H116215   3.852   4.319   0.899
 5417TIP3    H216216   3.799   4.453   0.853
 5418TIP3   OH216217   6.936   2.704   3.948
 5418TIP3    H116218   6.914   2.779   4.003
 5418TIP3    H216219   6.976   2.742   3.870
 5419TIP3   OH216220   6.398   4.215   2.358
 5419TIP3    H116221   6.494   4.219   2.356
 5419TIP3    H216222   6.371   4.240   2.269
 5420TIP3   OH216223   4.745   5.230   4.337
 5420TIP3    H116224   4.663   5.278   4.350
 5420TIP3    H216225   4.762   5.190   4.423
 5421TIP3   OH216226   1.040   3.792   4.584
 5421TIP3    H116227   0.954   3.767   4.549
 5421TIP3    H216228   1.031   3.783   4.679
 5422TIP3   OH216229   6.644   5.355   3.414
 5422TIP3    H116230   6.643   5.377   3.321
 5422TIP3    H216231   6.726   5.306   3.427
 5423TIP3   OH216232   6.798   6.126   1.202
 5423TIP3    H116233   6.803   6.132   1.107
 5423TIP3    H216234   6.710   6.157   1.223
 5424TIP3   OH216235   4.849   1.300   2.352
 5424TIP3    H116236   4.827   1.349   2.272
 5424TIP3    H216237   4.891   1.365   2.408
 5425TIP3   OH216238   3.903   3.610   5.115
 5425TIP3    H116239   3.839   3.658   5.168
 5425TIP3    H216240   3.853   3.538   5.077
 5426TIP3   OH216241   5.565   2.377   5.533
 5426TIP3    H116242   5.638   2.316   5.519
 5426TIP3    H216243   5.605   2.463   5.526
 5427TIP3   OH216244   4.198   0.023   0.911
 5427TIP3    H116245   4.199   0.115   0.938
 5427TIP3    H216246   4.239   0.023   0.825
 5428TIP3   OH216247   3.485   5.311   1.200
 5428TIP3    H116248   3.466   5.405   1.197
 5428TIP3    H216249   3.399   5.269   1.206
 5429TIP3   OH216250   1.702   2.006   0.321
 5429TIP3    H116251   1.608   1.999   0.308
 5429TIP3    H216252   1.740   1.951   0.252
 5430TIP3   OH216253   5.305   3.256   3.289
 5430TIP3    H116254   5.254   3.226   3.214
 5430TIP3    H216255   5.267   3.210   3.364
 5431TIP3   OH216256   5.084   3.830   4.584
 5431TIP3    H116257   5.065   3.912   4.628
 5431TIP3    H216258   5.100   3.854   4.493
 5432TIP3   OH216259   6.679   4.311   0.282
 5432TIP3    H116260   6.770   4.287   0.299
 5432TIP3    H216261   6.637   4.313   0.368
 5433TIP3   OH216262   5.656   1.339   1.369
 5433TIP3    H116263   5.665   1.345   1.274
 5433TIP3    H216264   5.746   1.343   1.401
 5434TIP3   OH216265   3.388   5.984   2.254
 5434TIP3    H116266   3.337   6.063   2.236
 5434TIP3    H216267   3.326   5.925   2.297
 5435TIP3   OH216268   5.071   5.854   0.386
 5435TIP3    H116269   5.158   5.841   0.349
 5435TIP3    H216270   5.047   5.943   0.359
 5436TIP3   OH216271   4.593   4.643   2.835
 5436TIP3    H116272   4.589   4.734   2.806
 5436TIP3    H216273   4.501   4.618   2.849
 5437TIP3   OH216274   4.848   6.120   0.840
 5437TIP3    H116275   4.873   6.207   0.872
 5437TIP3    H216276   4.932   6.075   0.825
 5438TIP3   OH216277   6.655   0.241   5.286
 5438TIP3    H116278   6.570   0.200   5.271
 5438TIP3    H216279   6.698   0.183   5.349
 5439TIP3   OH216280   6.652   0.261   2.813
 5439TIP3    H116281   6.575   0.264   2.756
 5439TIP3    H216282   6.726   0.248   2.754
 5440TIP3   OH216283   5.165   5.704   1.899
 5440TIP3    H116284   5.130   5.689   1.811
 5440TIP3    H216285   5.215   5.625   1.919
 5441TIP3   OH216286   2.401   0.054   2.778
 5441TIP3    H116287   2.444  -0.024   2.814
 5441TIP3    H216288   2.387   0.033   2.685
 5442TIP3   OH216289   3.528   1.751   0.400
 5442TIP3    H116290   3.583   1.777   0.474
 5442TIP3    H216291   3.458   1.698   0.439
 5443TIP3   OH216292   1.247   1.875   3.255
 5443TIP3    H116293   1.314   1.849   3.319
 5443TIP3    H216294   1.166   1.838   3.289
 5444TIP3   OH216295   4.626   6.105   3.453
 5444TIP3    H116296   4.687   6.042   3.491
 5444TIP3    H216297   4.626   6.085   3.360
 5445TIP3   OH216298   3.900   5.278   3.880
 5445TIP3    H116299   3.869   5.344   3.817
 5445TIP3    H216300   3.911   5.199   3.828
 5446TIP3   OH216301   6.144   6.495   0.011
 5446TIP3    H116302   6.130   6.482  -0.082
 5446TIP3    H216303   6.218   6.438   0.033
 5447TIP3   OH216304   1.180   0.821   4.620
 5447TIP3    H116305   1.143   0.909   4.627
 5447TIP3    H216306   1.248   0.817   4.687
 5448TIP3   OH216307   5.925   4.487   4.294
 5448TIP3    H116308   5.897   4.562   4.346
 5448TIP3    H216309   5.895   4.507   4.205
 5449TIP3   OH216310   0.747   5.088   1.991
 5449TIP3    H116311   0.791   5.134   1.919
 5449TIP3    H216312   0.658   5.124   1.991
 5450TIP3   OH216313   4.476   2.787   0.765
 5450TIP3    H116314   4.532   2.777   0.688
 5450TIP3    H216315   4.536   2.780   0.839
 5451TIP3   OH216316   0.537   2.091   1.730
 5451TIP3    H116317   0.487   2.154   1.782
 5451TIP3    H216318   0.486   2.010   1.734
 5452TIP3   OH216319   0.880   2.944   4.701
 5452TIP3    H116320   0.960   2.972   4.656
 5452TIP3    H216321   0.836   2.887   4.638
 5453TIP3   OH216322   2.439   0.761   1.363
 5453TIP3    H116323   2.514   0.707   1.335
 5453TIP3    H216324   2.414   0.810   1.285
 5454TIP3   OH216325   6.009   2.226   1.721
 5454TIP3    H116326   6.054   2.250   1.640
 5454TIP3    H216327   5.925   2.271   1.716
 5455TIP3   OH216328   1.070   0.978   3.609
 5455TIP3    H116329   1.081   1.050   3.672
 5455TIP3    H216330   1.119   0.905   3.648
 5456TIP3   OH216331   1.231   0.191   4.134
 5456TIP3    H116332   1.171   0.158   4.067
 5456TIP3    H216333   1.302   0.128   4.136
 5457TIP3   OH216334   6.734   5.715   0.790
 5457TIP3    H116335   6.767   5.660   0.719
 5457TIP3    H216336   6.683   5.783   0.746
 5458TIP3   OH216337   1.158   3.272   2.896
 5458TIP3    H116338   1.238   3.280   2.947
 5458TIP3    H216339   1.170   3.190   2.847
 5459TIP3   OH216340   0.256   2.842   4.680
 5459TIP3    H116341   0.304   2.906   4.733
 5459TIP3    H216342   0.166   2.846   4.713
 5460TIP3   OH216343   1.574   3.477   5.836
 5460TIP3    H116344   1.632   3.404   5.859
 5460TIP3    H216345   1.624   3.556   5.859
 5461TIP3   OH216346   6.691   3.551   3.289
 5461TIP3    H116347   6.674   3.643   3.311
 5461TIP3    H216348   6.643   3.502   3.356
 5462TIP3   OH216349   5.170   3.119   3.055
 5462TIP3    H116350   5.128   3.042   3.094
 5462TIP3    H216351   5.211   3.087   2.975
 5463TIP3   OH216352   6.952   2.979   1.645
 5463TIP3    H116353   6.924   3.001   1.733
 5463TIP3    H216354   6.885   2.918   1.613
 5464TIP3   OH216355   6.825   4.939   1.287
 5464TIP3    H116356   6.879   4.867   1.320
 5464TIP3    H216357   6.868   5.018   1.319
 5465TIP3   OH216358   0.470   6.024   4.229
 5465TIP3    H116359   0.494   6.108   4.191
 5465TIP3    H216360   0.382   6.037   4.265
 5466TIP3   OH216361   5.800   5.947   3.928
 5466TIP3    H116362   5.722   5.901   3.898
 5466TIP3    H216363   5.774   5.988   4.010
 5467TIP3   OH216364   0.517   0.024   5.265
 5467TIP3    H116365   0.514   0.013   5.360
 5467TIP3    H216366   0.426   0.028   5.238
 5468TIP3   OH216367   4.618   6.306   0.183
 5468TIP3    H116368   4.703   6.312   0.140
 5468TIP3    H216369   4.555   6.297   0.111
 5469TIP3   OH216370   4.893   3.622   4.489
 5469TIP3    H116371   4.968   3.671   4.522
 5469TIP3    H216372   4.817   3.674   4.515
 5470TIP3   OH216373   3.610   0.384   2.138
 5470TIP3    H116374   3.659   0.445   2.083
 5470TIP3    H216375   3.587   0.312   2.079
 5471TIP3   OH216376   4.219   6.515   0.949
 5471TIP3    H116377   4.216   6.564   0.867
 5471TIP3    H216378   4.274   6.439   0.930
 5472TIP3   OH216379   6.492   4.772   4.624
 5472TIP3    H116380   6.545   4.756   4.702
 5472TIP3    H216381   6.488   4.687   4.580
 5473TIP3   OH216382   2.320   5.998   3.143
 5473TIP3    H116383   2.243   5.986   3.200
 5473TIP3    H216384   2.283   6.022   3.058
 5474TIP3   OH216385   2.572   4.700   5.782
 5474TIP3    H116386   2.562   4.617   5.828
 5474TIP3    H216387   2.485   4.740   5.787
 5475TIP3   OH216388   6.811   6.045   4.138
 5475TIP3    H116389   6.831   6.108   4.207
 5475TIP3    H216390   6.741   5.991   4.174
 5476TIP3   OH216391   4.257   1.650   3.053
 5476TIP3    H116392   4.309   1.702   3.114
 5476TIP3    H216393   4.224   1.577   3.105
 5477TIP3   OH216394   7.100   3.727   3.310
 5477TIP3    H116395   7.094   3.742   3.404
 5477TIP3    H216396   7.189   3.696   3.296
 5478TIP3   OH216397   0.264   5.052   2.770
 5478TIP3    H116398   0.262   4.969   2.817
 5478TIP3    H216399   0.180   5.093   2.791
 5479TIP3   OH216400   0.918   5.326   3.709
 5479TIP3    H116401   0.872   5.311   3.627
 5479TIP3    H216402   0.989   5.386   3.687
 5480TIP3   OH216403   0.279   2.133   2.397
 5480TIP3    H116404   0.352   2.077   2.374
 5480TIP3    H216405   0.232   2.146   2.315
 5481TIP3   OH216406   0.459   2.975   0.252
 5481TIP3    H116407   0.437   2.882   0.257
 5481TIP3    H216408   0.555   2.977   0.250
 5482TIP3   OH216409   4.038   5.059   3.617
 5482TIP3    H116410   3.999   4.973   3.599
 5482TIP3    H216411   3.966   5.121   3.609
 5483TIP3   OH216412   4.144   1.208   3.371
 5483TIP3    H116413   4.173   1.270   3.439
 5483TIP3    H216414   4.224   1.168   3.339
 5484TIP3   OH216415   6.780   0.892   4.464
 5484TIP3    H116416   6.859   0.874   4.516
 5484TIP3    H216417   6.777   0.820   4.400
 5485TIP3   OH216418   5.793   4.585   4.685
 5485TIP3    H116419   5.883   4.569   4.655
 5485TIP3    H216420   5.790   4.679   4.701
 5486TIP3   OH216421   2.116   4.353   0.253
 5486TIP3    H116422   2.177   4.283   0.275
 5486TIP3    H216423   2.171   4.420   0.211
 5487TIP3   OH216424   4.796   1.618   0.116
 5487TIP3    H116425   4.788   1.587   0.026
 5487TIP3    H216426   4.750   1.702   0.118
 5488TIP3   OH216427   6.938   5.784   2.514
 5488TIP3    H116428   7.015   5.728   2.510
 5488TIP3    H216429   6.901   5.781   2.426
 5489TIP3   OH216430   1.047   4.373   4.276
 5489TIP3    H116431   0.975   4.435   4.262
 5489TIP3    H216432   1.121   4.411   4.228
 5490TIP3   OH216433   5.859   4.299   0.393
 5490TIP3    H116434   5.777   4.292   0.344
 5490TIP3    H216435   5.839   4.356   0.467
 5491TIP3   OH216436   1.467   0.924   0.100
 5491TIP3    H116437   1.409   0.866   0.149
 5491TIP3    H216438   1.484   0.877   0.019
 5492TIP3   OH216439   2.863   5.770   5.758
 5492TIP3    H116440   2.794   5.834   5.743
 5492TIP3    H216441   2.923   5.781   5.683
 5493TIP3   OH216442   7.133   1.578   5.144
 5493TIP3    H116443   7.094   1.491   5.140
 5493TIP3    H216444   7.226   1.562   5.160
 5494TIP3   OH216445   2.244   2.196   5.145
 5494TIP3    H116446   2.247   2.184   5.050
 5494TIP3    H216447   2.310   2.263   5.163
 5495TIP3   OH216448   5.171   3.244   2.552
 5495TIP3    H116449   5.102   3.184   2.522
 5495TIP3    H216450   5.252   3.194   2.544
 5496TIP3   OH216451   0.711   4.014   2.151
 5496TIP3    H116452   0.776   3.980   2.212
 5496TIP3    H216453   0.755   4.013   2.066
 5497TIP3   OH216454   6.215   6.522   4.007
 5497TIP3    H116455   6.196   6.517   3.913
 5497TIP3    H216456   6.277   6.595   4.015
 5498TIP3   OH216457   1.112   2.538   0.688
 5498TIP3    H116458   1.062   2.462   0.717
 5498TIP3    H216459   1.165   2.506   0.615
 5499TIP3   OH216460   6.865   5.574   0.596
 5499TIP3    H116461   6.950   5.595   0.635
 5499TIP3    H216462   6.868   5.613   0.509
 5500TIP3   OH216463   3.761   3.114   0.853
 5500TIP3    H116464   3.797   3.048   0.793
 5500TIP3    H216465   3.791   3.197   0.817
 5501TIP3   OH216466   6.388   2.736   1.020
 5501TIP3    H116467   6.311   2.792   1.014
 5501TIP3    H216468   6.392   2.691   0.935
 5502TIP3   OH216469   4.614   2.575   4.323
 5502TIP3    H116470   4.568   2.656   4.299
 5502TIP3    H216471   4.704   2.603   4.343
 5503TIP3   OH216472   2.154   1.212   0.071
 5503TIP3    H116473   2.081   1.271   0.086
 5503TIP3    H216474   2.210   1.222   0.148
 5504TIP3   OH216475   6.834   6.302   4.827
 5504TIP3    H116476   6.893   6.243   4.874
 5504TIP3    H216477   6.859   6.389   4.856
 5505TIP3   OH216478   3.720   3.566   0.360
 5505TIP3    H116479   3.690   3.480   0.389
 5505TIP3    H216480   3.811   3.571   0.388
 5506TIP3   OH216481   7.078   6.675   1.465
 5506TIP3    H116482   7.142   6.657   1.395
 5506TIP3    H216483   7.110   6.624   1.540
 5507TIP3   OH216484   1.347   0.409   2.969
 5507TIP3    H116485   1.314   0.325   3.001
 5507TIP3    H216486   1.381   0.453   3.047
 5508TIP3   OH216487  -0.003   3.089   2.604
 5508TIP3    H116488  -0.041   3.175   2.617
 5508TIP3    H216489   0.045   3.095   2.522
 5509TIP3   OH216490   4.709   3.232   2.214
 5509TIP3    H116491   4.658   3.151   2.217
 5509TIP3    H216492   4.700   3.262   2.124
 5510TIP3   OH216493   0.176   2.934   5.745
 5510TIP3    H116494   0.213   3.021   5.731
 5510TIP3    H216495   0.246   2.874   5.719
 5511TIP3   OH216496   4.525   2.702   2.681
 5511TIP3    H116497   4.510   2.712   2.587
 5511TIP3    H216498   4.620   2.711   2.690
 5512TIP3   OH216499   4.857   2.730   1.619
 5512TIP3    H116500   4.857   2.797   1.551
 5512TIP3    H216501   4.928   2.671   1.595
 5513TIP3   OH216502   4.757   5.775   3.268
 5513TIP3    H116503   4.834   5.762   3.213
 5513TIP3    H216504   4.779   5.732   3.351
 5514TIP3   OH216505   0.170   1.252   5.623
 5514TIP3    H116506   0.125   1.334   5.642
 5514TIP3    H216507   0.110   1.184   5.653
 5515TIP3   OH216508   6.936   3.832   5.575
 5515TIP3    H116509   7.001   3.877   5.629
 5515TIP3    H216510   6.893   3.902   5.525
 5516TIP3   OH216511   1.577   2.290   1.006
 5516TIP3    H116512   1.516   2.360   1.027
 5516TIP3    H216513   1.652   2.304   1.064
 5517TIP3   OH216514   3.718   5.156   4.821
 5517TIP3    H116515   3.751   5.236   4.781
 5517TIP3    H216516   3.755   5.156   4.909
 5518TIP3   OH216517   5.049   4.147   5.457
 5518TIP3    H116518   5.040   4.241   5.446
 5518TIP3    H216519   5.142   4.133   5.472
 5519TIP3   OH216520   5.019   6.198   5.806
 5519TIP3    H116521   4.928   6.175   5.825
 5519TIP3    H216522   5.067   6.115   5.818
 5520TIP3   OH216523   1.711   0.171   4.868
 5520TIP3    H116524   1.749   0.246   4.821
 5520TIP3    H216525   1.645   0.137   4.808
 5521TIP3   OH216526   2.013   0.077   4.842
 5521TIP3    H116527   2.008   0.023   4.763
 5521TIP3    H216528   1.926   0.118   4.848
 5522TIP3   OH216529   0.418   5.005   3.435
 5522TIP3    H116530   0.423   5.020   3.341
 5522TIP3    H216531   0.507   5.021   3.466
 5523TIP3   OH216532   1.440   2.213   4.791
 5523TIP3    H116533   1.506   2.161   4.838
 5523TIP3    H216534   1.358   2.165   4.806
 5524TIP3   OH216535   7.005   0.742   4.550
 5524TIP3    H116536   6.990   0.680   4.478
 5524TIP3    H216537   7.092   0.720   4.582
 5525TIP3   OH216538   7.151   1.333   3.429
 5525TIP3    H116539   7.072   1.347   3.481
 5525TIP3    H216540   7.182   1.421   3.410
 5526TIP3   OH216541   1.922   4.800   4.567
 5526TIP3    H116542   1.838   4.844   4.549
 5526TIP3    H216543   1.928   4.798   4.663
 5527TIP3   OH216544   5.357   3.034   1.357
 5527TIP3    H116545   5.374   3.034   1.262
 5527TIP3    H216546   5.318   2.949   1.374
 5528TIP3   OH216547   6.122   5.278   0.911
 5528TIP3    H116548   6.197   5.281   0.851
 5528TIP3    H216549   6.064   5.212   0.873
 5529TIP3   OH216550   6.649   4.210   2.285
 5529TIP3    H116551   6.685   4.237   2.201
 5529TIP3    H216552   6.726   4.195   2.340
 5530TIP3   OH216553   3.660   4.848   1.241
 5530TIP3    H116554   3.737   4.790   1.242
 5530TIP3    H216555   3.675   4.908   1.315
 5531TIP3   OH216556   3.027   4.606   4.129
 5531TIP3    H116557   2.964   4.552   4.176
 5531TIP3    H216558   2.975   4.650   4.061
 5532TIP3   OH216559   5.507   5.958   2.246
 5532TIP3    H116560   5.467   5.892   2.189
 5532TIP3    H216561   5.436   5.986   2.304
 5533TIP3   OH216562   4.064   6.636   3.260
 5533TIP3    H116563   4.100   6.686   3.186
 5533TIP3    H216564   4.055   6.547   3.226
 5534TIP3   OH216565   3.106   6.182   1.859
 5534TIP3    H116566   3.036   6.239   1.829
 5534TIP3    H216567   3.061   6.107   1.898
 5535TIP3   OH216568   5.908   2.615   2.759
 5535TIP3    H116569   5.906   2.651   2.671
 5535TIP3    H216570   5.971   2.669   2.806
 5536TIP3   OH216571   0.122   3.387   3.852
 5536TIP3    H116572   0.193   3.332   3.886
 5536TIP3    H216573   0.139   3.474   3.887
 5537TIP3   OH216574   1.635   0.790   4.963
 5537TIP3    H116575   1.718   0.798   5.011
 5537TIP3    H216576   1.636   0.862   4.901
 5538TIP3   OH216577   4.585   5.824   0.864
 5538TIP3    H116578   4.595   5.744   0.813
 5538TIP3    H216579   4.631   5.807   0.946
 5539TIP3   OH216580   4.648   5.068   0.997
 5539TIP3    H116581   4.728   5.100   1.040
 5539TIP3    H216582   4.598   5.147   0.977
 5540TIP3   OH216583   6.616   4.256   0.609
 5540TIP3    H116584   6.643   4.331   0.662
 5540TIP3    H216585   6.653   4.180   0.654
 5541TIP3   OH216586   3.595   4.097   3.424
 5541TIP3    H116587   3.517   4.108   3.478
 5541TIP3    H216588   3.667   4.132   3.477
 5542TIP3   OH216589   0.557   4.924   5.177
 5542TIP3    H116590   0.536   5.015   5.195
 5542TIP3    H216591   0.622   4.928   5.106
 5543TIP3   OH216592   6.030   3.822   3.328
 5543TIP3    H116593   6.076   3.744   3.358
 5543TIP3    H216594   6.099   3.880   3.297
 5544TIP3   OH216595   0.084   3.912   2.915
 5544TIP3    H116596   0.025   3.886   2.985
 5544TIP3    H216597   0.153   3.846   2.916
 5545TIP3   OH216598   6.221   4.792   4.564
 5545TIP3    H116599   6.203   4.788   4.470
 5545TIP3    H216600   6.313   4.817   4.570
 5546TIP3   OH216601   4.044   4.346   0.031
 5546TIP3    H116602   4.016   4.324   0.120
 5546TIP3    H216603   3.981   4.413   0.003
 5547TIP3   OH216604   6.951   4.246   0.850
 5547TIP3    H116605   6.982   4.199   0.927
 5547TIP3    H216606   6.948   4.338   0.878
 5548TIP3   OH216607   4.090   2.808   2.421
 5548TIP3    H116608   4.033   2.871   2.465
 5548TIP3    H216609   4.109   2.742   2.487
 5549TIP3   OH216610   2.770   5.508   2.116
 5549TIP3    H116611   2.710   5.581   2.102
 5549TIP3    H216612   2.737   5.464   2.195
 5550TIP3   OH216613   6.031   6.526   5.310
 5550TIP3    H116614   5.960   6.483   5.263
 5550TIP3    H216615   5.994   6.546   5.397
 5551TIP3   OH216616   1.509   2.677   4.507
 5551TIP3    H116617   1.559   2.725   4.441
 5551TIP3    H216618   1.506   2.587   4.474
 5552TIP3   OH216619   0.772   6.492   2.905
 5552TIP3    H116620   0.689   6.516   2.862
 5552TIP3    H216621   0.776   6.549   2.982
 5553TIP3   OH216622   2.126   1.874   5.172
 5553TIP3    H116623   2.143   1.901   5.082
 5553TIP3    H216624   2.044   1.919   5.195
 5554TIP3   OH216625   2.744   6.560   4.702
 5554TIP3    H116626   2.829   6.545   4.660
 5554TIP3    H216627   2.708   6.473   4.716
 5555TIP3   OH216628   0.760   5.515   4.581
 5555TIP3    H116629   0.758   5.526   4.486
 5555TIP3    H216630   0.669   5.518   4.608
 5556TIP3   OH216631   5.215   0.972   0.963
 5556TIP3    H116632   5.191   0.907   0.897
 5556TIP3    H216633   5.137   0.978   1.019
 5557TIP3   OH216634   2.617   4.612   2.044
 5557TIP3    H116635   2.652   4.654   2.123
 5557TIP3    H216636   2.656   4.660   1.972
 5558TIP3   OH216637   5.131   4.466   0.456
 5558TIP3    H116638   5.074   4.471   0.379
 5558TIP3    H216639   5.184   4.388   0.441
 5559TIP3   OH216640   5.440   5.080   1.266
 5559TIP3    H116641   5.432   4.989   1.239
 5559TIP3    H216642   5.393   5.085   1.350
 5560TIP3   OH216643   1.699   5.002   4.704
 5560TIP3    H116644   1.733   4.955   4.780
 5560TIP3    H216645   1.707   5.095   4.728
 5561TIP3   OH216646   4.962   5.485   1.133
 5561TIP3    H116647   5.016   5.436   1.194
 5561TIP3    H216648   4.876   5.488   1.174
 5562TIP3   OH216649   6.289   1.885   3.044
 5562TIP3    H116650   6.366   1.884   3.101
 5562TIP3    H216651   6.321   1.921   2.962
 5563TIP3   OH216652   4.987   4.420   0.225
 5563TIP3    H116653   4.971   4.334   0.185
 5563TIP3    H216654   5.036   4.468   0.158
 5564TIP3   OH216655   1.835   5.499   1.372
 5564TIP3    H116656   1.742   5.484   1.357
 5564TIP3    H216657   1.839   5.585   1.414
 5565TIP3   OH216658   4.870   5.743   4.621
 5565TIP3    H116659   4.947   5.705   4.577
 5565TIP3    H216660   4.853   5.824   4.573
 5566TIP3   OH216661   3.439   6.460   4.849
 5566TIP3    H116662   3.381   6.405   4.902
 5566TIP3    H216663   3.382   6.499   4.784
 5567TIP3   OH216664   0.797   4.247   4.084
 5567TIP3    H116665   0.719   4.223   4.034
 5567TIP3    H216666   0.798   4.186   4.158
 5568TIP3   OH216667   4.793   3.788   1.443
 5568TIP3    H116668   4.837   3.737   1.511
 5568TIP3    H216669   4.785   3.728   1.369
 5569TIP3   OH216670   5.383   1.887   1.863
 5569TIP3    H116671   5.422   1.958   1.812
 5569TIP3    H216672   5.384   1.812   1.804
 5570TIP3   OH216673   0.698   2.322   1.501
 5570TIP3    H116674   0.676   2.281   1.417
 5570TIP3    H216675   0.614   2.327   1.547
 5571TIP3   OH216676   0.621   3.707   1.479
 5571TIP3    H116677   0.599   3.799   1.493
 5571TIP3    H216678   0.536   3.663   1.476
 5572TIP3   OH216679   3.108   4.793   4.922
 5572TIP3    H116680   3.053   4.773   4.998
 5572TIP3    H216681   3.091   4.722   4.861
 5573TIP3   OH216682   5.756   5.825   2.297
 5573TIP3    H116683   5.777   5.865   2.381
 5573TIP3    H216684   5.667   5.855   2.278
 5574TIP3   OH216685   2.370   1.711   2.780
 5574TIP3    H116686   2.295   1.694   2.723
 5574TIP3    H216687   2.445   1.675   2.731
 5575TIP3   OH216688   1.422   5.170   5.596
 5575TIP3    H116689   1.388   5.083   5.614
 5575TIP3    H216690   1.472   5.194   5.674
 5576TIP3   OH216691   0.458   1.091   0.179
 5576TIP3    H116692   0.474   1.164   0.239
 5576TIP3    H216693   0.364   1.077   0.182
 5577TIP3   OH216694   0.262   4.688   2.001
 5577TIP3    H116695   0.307   4.616   2.045
 5577TIP3    H216696   0.329   4.728   1.946
 5578TIP3   OH216697   0.890   4.033   0.160
 5578TIP3    H116698   0.835   4.069   0.229
 5578TIP3    H216699   0.854   3.946   0.143
 5579TIP3   OH216700   2.389   3.035   2.662
 5579TIP3    H116701   2.356   3.124   2.649
 5579TIP3    H216702   2.453   3.044   2.733
 5580TIP3   OH216703   3.113   1.663   3.478
 5580TIP3    H116704   3.149   1.608   3.408
 5580TIP3    H216705   3.095   1.747   3.436
 5581TIP3   OH216706   3.214   0.198   0.578
 5581TIP3    H116707   3.244   0.120   0.626
 5581TIP3    H216708   3.119   0.187   0.570
 5582TIP3   OH216709   5.421   4.344   0.694
 5582TIP3    H116710   5.374   4.265   0.667
 5582TIP3    H216711   5.394   4.359   0.784
 5583TIP3   OH216712   3.421   0.964   1.212
 5583TIP3    H116713   3.415   1.001   1.124
 5583TIP3    H216714   3.390   1.034   1.270
 5584TIP3   OH216715   4.270   2.552   4.148
 5584TIP3    H116716   4.353   2.600   4.147
 5584TIP3    H216717   4.226   2.582   4.228
 5585TIP3   OH216718   1.326   6.316   4.891
 5585TIP3    H116719   1.293   6.347   4.975
 5585TIP3    H216720   1.419   6.299   4.907
 5586TIP3   OH216721   6.939   6.084   4.953
 5586TIP3    H116722   6.918   6.078   5.046
 5586TIP3    H216723   6.870   6.034   4.909
 5587TIP3   OH216724   2.536   1.682   3.733
 5587TIP3    H116725   2.497   1.750   3.679
 5587TIP3    H216726   2.629   1.681   3.708
 5588TIP3   OH216727   3.820   4.156   1.269
 5588TIP3    H116728   3.736   4.191   1.299
 5588TIP3    H216729   3.885   4.221   1.298
 5589TIP3   OH216730   1.130   5.217   2.252
 5589TIP3    H116731   1.059   5.227   2.315
 5589TIP3    H216732   1.125   5.296   2.198
 5590TIP3   OH216733   0.459   2.123   1.337
 5590TIP3    H116734   0.394   2.160   1.397
 5590TIP3    H216735   0.412   2.116   1.253
 5591TIP3   OH216736   1.574   4.169   3.291
 5591TIP3    H116737   1.595   4.230   3.220
 5591TIP3    H216738   1.631   4.195   3.363
 5592TIP3   OH216739   2.860   5.216   3.233
 5592TIP3    H116740   2.952   5.203   3.210
 5592TIP3    H216741   2.818   5.132   3.214
 5593TIP3   OH216742   1.321   0.530   0.908
 5593TIP3    H116743   1.336   0.542   0.814
 5593TIP3    H216744   1.303   0.618   0.941
 5594TIP3   OH216745   5.046   6.237   4.672
 5594TIP3    H116746   4.961   6.244   4.627
 5594TIP3    H216747   5.043   6.152   4.716
 5595TIP3   OH216748   2.540   5.880   2.586
 5595TIP3    H116749   2.634   5.858   2.585
 5595TIP3    H216750   2.507   5.843   2.667
 5596TIP3   OH216751   4.431   2.559   5.160
 5596TIP3    H116752   4.493   2.631   5.168
 5596TIP3    H216753   4.484   2.480   5.168
 5597TIP3   OH216754   0.507   5.123   4.866
 5597TIP3    H116755   0.429   5.151   4.915
 5597TIP3    H216756   0.483   5.036   4.834
 5598TIP3   OH216757   4.658   3.927   3.233
 5598TIP3    H116758   4.708   3.915   3.314
 5598TIP3    H216759   4.636   4.020   3.232
 5599TIP3   OH216760   3.904   6.600   0.274
 5599TIP3    H116761   3.896   6.678   0.329
 5599TIP3    H216762   3.885   6.527   0.333
 5600TIP3   OH216763   3.397   1.833   2.754
 5600TIP3    H116764   3.430   1.921   2.772
 5600TIP3    H216765   3.406   1.822   2.660
 5601TIP3   OH216766   2.901   6.236   3.498
 5601TIP3    H116767   2.887   6.311   3.555
 5601TIP3    H216768   2.859   6.260   3.416
 5602TIP3   OH216769   1.993   4.092   1.240
 5602TIP3    H116770   1.999   4.015   1.183
 5602TIP3    H216771   1.913   4.078   1.290
 5603TIP3   OH216772   4.182   5.294   4.613
 5603TIP3    H116773   4.263   5.341   4.634
 5603TIP3    H216774   4.153   5.331   4.530
 5604TIP3   OH216775   0.968   4.782   1.502
 5604TIP3    H116776   0.897   4.746   1.555
 5604TIP3    H216777   0.998   4.859   1.552
 5605TIP3   OH216778   4.433   2.284   0.103
 5605TIP3    H116779   4.414   2.378   0.110
 5605TIP3    H216780   4.387   2.256   0.023
 5606TIP3   OH216781   0.003   6.707   4.245
 5606TIP3    H116782   0.083   6.757   4.229
 5606TIP3    H216783   0.003   6.691   4.339
 5607TIP3   OH216784   5.239   4.079   2.467
 5607TIP3    H116785   5.233   3.984   2.462
 5607TIP3    H216786   5.238   4.098   2.561
 5608TIP3   OH216787   4.669   5.288   3.565
 5608TIP3    H116788   4.711   5.227   3.626
 5608TIP3    H216789   4.582   5.303   3.603
 5609TIP3   OH216790   2.563   0.788   5.171
 5609TIP3    H116791   2.653   0.761   5.190
 5609TIP3    H216792   2.566   0.884   5.173
 5610TIP3   OH216793   4.069   0.189   2.837
 5610TIP3    H116794   4.054   0.267   2.783
 5610TIP3    H216795   3.983   0.170   2.874
 5611TIP3   OH216796   1.870   1.326   0.155
 5611TIP3    H116797   1.833   1.240   0.138
 5611TIP3    H216798   1.881   1.329   0.250
 5612TIP3   OH216799   0.933   1.761   4.268
 5612TIP3    H116800   0.952   1.708   4.191
 5612TIP3    H216801   1.018   1.799   4.293
 5613TIP3   OH216802   4.758   5.301   5.561
 5613TIP3    H116803   4.808   5.229   5.522
 5613TIP3    H216804   4.670   5.267   5.570
 5614TIP3   OH216805   1.908   0.262   1.331
 5614TIP3    H116806   1.927   0.322   1.259
 5614TIP3    H216807   1.816   0.240   1.320
 5615TIP3   OH216808   0.069   0.741   5.436
 5615TIP3    H116809   0.126   0.712   5.365
 5615TIP3    H216810  -0.019   0.716   5.408
 5616TIP3   OH216811   1.806   1.677   5.669
 5616TIP3    H116812   1.883   1.669   5.724
 5616TIP3    H216813   1.804   1.596   5.618
 5617TIP3   OH216814   4.426   5.368   3.709
 5617TIP3    H116815   4.387   5.281   3.712
 5617TIP3    H216816   4.353   5.427   3.692
 5618TIP3   OH216817   4.907   3.058   0.210
 5618TIP3    H116818   4.945   3.116   0.144
 5618TIP3    H216819   4.904   3.110   0.290
 5619TIP3   OH216820   4.108   3.810   3.504
 5619TIP3    H116821   4.031   3.811   3.448
 5619TIP3    H216822   4.178   3.848   3.451
 5620TIP3   OH216823   4.132   2.657   5.323
 5620TIP3    H116824   4.214   2.631   5.365
 5620TIP3    H216825   4.086   2.575   5.305
 5621TIP3   OH216826   3.148   6.101   5.212
 5621TIP3    H116827   3.231   6.073   5.249
 5621TIP3    H216828   3.103   6.019   5.190
 5622TIP3   OH216829   6.327   4.063   2.014
 5622TIP3    H116830   6.345   4.067   1.921
 5622TIP3    H216831   6.399   4.010   2.050
 5623TIP3   OH216832   4.948   4.203   1.396
 5623TIP3    H116833   4.875   4.147   1.372
 5623TIP3    H216834   4.932   4.286   1.351
 5624TIP3   OH216835   6.106   2.494   5.549
 5624TIP3    H116836   6.127   2.422   5.608
 5624TIP3    H216837   6.079   2.565   5.607
 5625TIP3   OH216838   4.709   1.933   3.038
 5625TIP3    H116839   4.633   1.900   2.989
 5625TIP3    H216840   4.695   2.028   3.043
 5626TIP3   OH216841   4.928   6.420   5.226
 5626TIP3    H116842   4.933   6.497   5.282
 5626TIP3    H216843   4.971   6.446   5.145
 5627TIP3   OH216844   5.594   5.868   2.613
 5627TIP3    H116845   5.596   5.846   2.706
 5627TIP3    H216846   5.557   5.956   2.610
 5628TIP3   OH216847   4.602   5.456   1.446
 5628TIP3    H116848   4.626   5.476   1.355
 5628TIP3    H216849   4.506   5.456   1.445
 5629TIP3   OH216850   4.557   2.705   2.384
 5629TIP3    H116851   4.504   2.768   2.335
 5629TIP3    H216852   4.538   2.621   2.344
 5630TIP3   OH216853   3.526   4.031   0.224
 5630TIP3    H116854   3.542   4.115   0.182
 5630TIP3    H216855   3.436   4.009   0.202
 5631TIP3   OH216856   1.098   0.817   2.913
 5631TIP3    H116857   1.010   0.857   2.913
 5631TIP3    H216858   1.139   0.850   2.993
 5632TIP3   OH216859   4.539   4.586   3.965
 5632TIP3    H116860   4.615   4.642   3.949
 5632TIP3    H216861   4.528   4.537   3.883
 5633TIP3   OH216862   4.193   3.671   2.186
 5633TIP3    H116863   4.195   3.754   2.233
 5633TIP3    H216864   4.182   3.605   2.255
 5634TIP3   OH216865   1.315   6.060   2.800
 5634TIP3    H116866   1.227   6.056   2.839
 5634TIP3    H216867   1.301   6.099   2.714
 5635TIP3   OH216868   6.448   0.842   3.356
 5635TIP3    H116869   6.457   0.879   3.444
 5635TIP3    H216870   6.481   0.910   3.297
 5636TIP3   OH216871   2.650   0.101   5.800
 5636TIP3    H116872   2.745   0.115   5.795
 5636TIP3    H216873   2.618   0.120   5.712
 5637TIP3   OH216874   1.594   4.799   1.771
 5637TIP3    H116875   1.620   4.807   1.679
 5637TIP3    H216876   1.513   4.747   1.768
 5638TIP3   OH216877   1.132   6.635   4.532
 5638TIP3    H116878   1.173   6.551   4.552
 5638TIP3    H216879   1.204   6.692   4.507
 5639TIP3   OH216880   1.192   2.201   1.940
 5639TIP3    H116881   1.265   2.142   1.920
 5639TIP3    H216882   1.177   2.189   2.034
 5640TIP3   OH216883   2.135   0.641   5.131
 5640TIP3    H116884   2.168   0.646   5.221
 5640TIP3    H216885   2.213   0.630   5.078
 5641TIP3   OH216886   3.606   0.064   2.393
 5641TIP3    H116887   3.647   0.054   2.308
 5641TIP3    H216888   3.546   0.138   2.384
 5642TIP3   OH216889   2.868   0.440   3.510
 5642TIP3    H116890   2.915   0.519   3.534
 5642TIP3    H216891   2.861   0.444   3.414
 5643TIP3   OH216892   1.838   2.086   1.105
 5643TIP3    H116893   1.839   2.113   1.196
 5643TIP3    H216894   1.853   1.991   1.108
 5644TIP3   OH216895   2.512   4.193   5.785
 5644TIP3    H116896   2.495   4.158   5.872
 5644TIP3    H216897   2.573   4.131   5.746
 5645TIP3   OH216898   1.776   6.473   2.337
 5645TIP3    H116899   1.850   6.414   2.322
 5645TIP3    H216900   1.725   6.467   2.257
 5646TIP3   OH216901   5.895   4.355   1.537
 5646TIP3    H116902   5.960   4.320   1.476
 5646TIP3    H216903   5.864   4.435   1.495
 5647TIP3   OH216904   2.535   4.769   5.093
 5647TIP3    H116905   2.440   4.782   5.091
 5647TIP3    H216906   2.560   4.762   5.001
 5648TIP3   OH216907   6.880   0.832   5.816
 5648TIP3    H116908   6.872   0.737   5.822
 5648TIP3    H216909   6.973   0.850   5.833
 5649TIP3   OH216910   0.696   3.459   4.726
 5649TIP3    H116911   0.619   3.517   4.726
 5649TIP3    H216912   0.700   3.425   4.637
 5650TIP3   OH216913   4.542   1.977   4.519
 5650TIP3    H116914   4.496   2.044   4.467
 5650TIP3    H216915   4.634   1.987   4.493
 5651TIP3   OH216916   4.741   4.656   2.480
 5651TIP3    H116917   4.761   4.572   2.439
 5651TIP3    H216918   4.775   4.648   2.569
 5652TIP3   OH216919   4.673   0.904   1.562
 5652TIP3    H116920   4.614   0.911   1.487
 5652TIP3    H216921   4.711   0.817   1.554
 5653TIP3   OH216922   6.391   6.249   2.001
 5653TIP3    H116923   6.339   6.329   2.007
 5653TIP3    H216924   6.346   6.185   2.056
 5654TIP3   OH216925   1.564   3.162   5.630
 5654TIP3    H116926   1.504   3.125   5.565
 5654TIP3    H216927   1.643   3.184   5.581
 5655TIP3   OH216928   1.217   0.451   3.789
 5655TIP3    H116929   1.173   0.368   3.806
 5655TIP3    H216930   1.147   0.510   3.762
 5656TIP3   OH216931   2.289   2.318   4.448
 5656TIP3    H116932   2.328   2.382   4.507
 5656TIP3    H216933   2.314   2.347   4.361
 5657TIP3   OH216934   4.347   2.972   4.970
 5657TIP3    H116935   4.327   3.046   4.913
 5657TIP3    H216936   4.383   2.906   4.910
 5658TIP3   OH216937   1.871   1.626   1.520
 5658TIP3    H116938   1.928   1.675   1.462
 5658TIP3    H216939   1.829   1.561   1.463
 5659TIP3   OH216940   3.022   6.131   0.022
 5659TIP3    H116941   3.023   6.035   0.016
 5659TIP3    H216942   3.087   6.160  -0.042
 5660TIP3   OH216943   2.199   2.295   0.868
 5660TIP3    H116944   2.227   2.209   0.836
 5660TIP3    H216945   2.211   2.353   0.793
 5661TIP3   OH216946   7.182   2.110   4.295
 5661TIP3    H116947   7.263   2.095   4.345
 5661TIP3    H216948   7.142   2.187   4.335
 5662TIP3   OH216949   5.017   3.008   1.142
 5662TIP3    H116950   4.993   3.100   1.132
 5662TIP3    H216951   4.935   2.960   1.126
 5663TIP3   OH216952   6.145   5.894   0.663
 5663TIP3    H116953   6.176   5.819   0.713
 5663TIP3    H216954   6.130   5.962   0.729
 5664TIP3   OH216955   0.473   2.012   2.270
 5664TIP3    H116956   0.544   1.958   2.236
 5664TIP3    H216957   0.481   2.095   2.222
 5665TIP3   OH216958   4.915   2.790   0.094
 5665TIP3    H116959   4.950   2.873   0.125
 5665TIP3    H216960   4.851   2.764   0.160
 5666TIP3   OH216961   1.565   4.180   4.979
 5666TIP3    H116962   1.588   4.271   4.960
 5666TIP3    H216963   1.564   4.137   4.893
 5667TIP3   OH216964   6.622   1.855   3.675
 5667TIP3    H116965   6.564   1.919   3.716
 5667TIP3    H216966   6.567   1.809   3.612
 5668TIP3   OH216967   0.360   6.584   5.086
 5668TIP3    H116968   0.358   6.670   5.044
 5668TIP3    H216969   0.285   6.538   5.047
 5669TIP3   OH216970   0.745   1.298   1.200
 5669TIP3    H116971   0.744   1.285   1.294
 5669TIP3    H216972   0.757   1.393   1.189
 5670TIP3   OH216973   0.018   2.612   4.907
 5670TIP3    H116974   0.083   2.626   4.838
 5670TIP3    H216975   0.048   2.532   4.951
 5671TIP3   OH216976   1.204   1.738   1.111
 5671TIP3    H116977   1.117   1.773   1.130
 5671TIP3    H216978   1.264   1.810   1.129
 5672TIP3   OH216979   1.709   3.800   0.827
 5672TIP3    H116980   1.711   3.878   0.882
 5672TIP3    H216981   1.797   3.764   0.833
 5673TIP3   OH216982   4.068   2.304   1.783
 5673TIP3    H116983   4.156   2.275   1.758
 5673TIP3    H216984   4.055   2.385   1.734
 5674TIP3   OH216985   1.555   0.430   4.022
 5674TIP3    H116986   1.469   0.459   4.052
 5674TIP3    H216987   1.615   0.498   4.051
 5675TIP3   OH216988   6.598   3.821   2.806
 5675TIP3    H116989   6.653   3.896   2.829
 5675TIP3    H216990   6.645   3.777   2.735
 5676TIP3   OH216991   3.731   1.281   2.807
 5676TIP3    H116992   3.671   1.349   2.776
 5676TIP3    H216993   3.675   1.220   2.855
 5677TIP3   OH216994   5.482   2.890   0.326
 5677TIP3    H116995   5.428   2.956   0.282
 5677TIP3    H216996   5.488   2.921   0.416
 5678TIP3   OH216997   2.654   3.499   5.358
 5678TIP3    H116998   2.681   3.571   5.301
 5678TIP3    H216999   2.667   3.420   5.305
 5679TIP3   OH217000   3.054   1.037   5.317
 5679TIP3    H117001   3.024   0.972   5.381
 5679TIP3    H217002   2.977   1.054   5.263
 5680TIP3   OH217003   1.309   2.301   5.253
 5680TIP3    H117004   1.347   2.232   5.198
 5680TIP3    H217005   1.289   2.256   5.336
 5681TIP3   OH217006   7.193   0.758   0.451
 5681TIP3    H117007   7.288   0.764   0.440
 5681TIP3    H217008   7.164   0.849   0.451
 5682TIP3   OH217009   0.506   1.513   0.550
 5682TIP3    H117010   0.449   1.586   0.573
 5682TIP3    H217011   0.595   1.549   0.553
 5683TIP3   OH217012   1.974   1.888   2.074
 5683TIP3    H117013   2.063   1.890   2.110
 5683TIP3    H217014   1.924   1.945   2.131
 5684TIP3   OH217015   4.705   1.544   3.954
 5684TIP3    H117016   4.782   1.499   3.987
 5684TIP3    H217017   4.725   1.637   3.961
 5685TIP3   OH217018   6.370   2.543   0.831
 5685TIP3    H117019   6.285   2.520   0.868
 5685TIP3    H217020   6.377   2.489   0.752
 5686TIP3   OH217021   6.276   5.387   4.237
 5686TIP3    H117022   6.350   5.414   4.291
 5686TIP3    H217023   6.288   5.293   4.226
 5687TIP3   OH217024   1.810   6.623   3.845
 5687TIP3    H117025   1.905   6.622   3.843
 5687TIP3    H217026   1.788   6.687   3.913
 5688TIP3   OH217027   7.019   2.621   2.788
 5688TIP3    H117028   7.102   2.576   2.770
 5688TIP3    H217029   6.959   2.589   2.720
 5689TIP3   OH217030   4.880   0.779   4.109
 5689TIP3    H117031   4.882   0.788   4.013
 5689TIP3    H217032   4.807   0.720   4.125
 5690TIP3   OH217033   0.919   3.436   5.437
 5690TIP3    H117034   0.936   3.437   5.343
 5690TIP3    H217035   0.827   3.413   5.445
 5691TIP3   OH217036   7.007   4.056   4.474
 5691TIP3    H117037   6.930   4.096   4.513
 5691TIP3    H217038   7.053   4.129   4.432
 5692TIP3   OH217039   1.775   1.576   3.905
 5692TIP3    H117040   1.774   1.647   3.840
 5692TIP3    H217041   1.756   1.497   3.855
 5693TIP3   OH217042   5.093   4.046   4.026
 5693TIP3    H117043   5.186   4.024   4.037
 5693TIP3    H217044   5.080   4.123   4.082
 5694TIP3   OH217045   3.490   4.642   4.363
 5694TIP3    H117046   3.537   4.641   4.280
 5694TIP3    H217047   3.460   4.551   4.375
 5695TIP3   OH217048   3.854   0.673   0.076
 5695TIP3    H117049   3.935   0.623   0.066
 5695TIP3    H217050   3.866   0.723   0.156
 5696TIP3   OH217051   1.527   5.286   4.683
 5696TIP3    H117052   1.584   5.311   4.610
 5696TIP3    H217053   1.438   5.290   4.647
 5697TIP3   OH217054   6.537   4.449   2.949
 5697TIP3    H117055   6.485   4.514   2.996
 5697TIP3    H217056   6.485   4.429   2.871
 5698TIP3   OH217057   2.579   5.568   4.835
 5698TIP3    H117058   2.621   5.547   4.918
 5698TIP3    H217059   2.625   5.647   4.804
 5699TIP3   OH217060   6.304   0.736   2.169
 5699TIP3    H117061   6.318   0.754   2.262
 5699TIP3    H217062   6.321   0.819   2.125
 5700TIP3   OH217063   3.653   5.583   1.170
 5700TIP3    H117064   3.559   5.581   1.152
 5700TIP3    H217065   3.662   5.647   1.241
 5701TIP3   OH217066   3.015   4.013   0.657
 5701TIP3    H117067   3.000   3.926   0.694
 5701TIP3    H217068   2.928   4.048   0.641
 5702TIP3   OH217069   2.183   2.085   3.076
 5702TIP3    H117070   2.248   2.070   3.008
 5702TIP3    H217071   2.230   2.128   3.147
 5703TIP3   OH217072   3.633   4.527   2.969
 5703TIP3    H117073   3.672   4.486   2.892
 5703TIP3    H217074   3.645   4.463   3.039
 5704TIP3   OH217075   6.706   2.353   0.322
 5704TIP3    H117076   6.694   2.418   0.392
 5704TIP3    H217077   6.690   2.402   0.241
 5705TIP3   OH217078   6.361   4.026   2.567
 5705TIP3    H117079   6.395   4.083   2.498
 5705TIP3    H217080   6.356   3.939   2.527
 5706TIP3   OH217081   6.996   2.559   4.150
 5706TIP3    H117082   6.979   2.607   4.069
 5706TIP3    H217083   7.032   2.624   4.209
 5707TIP3   OH217084   1.539   4.641   2.133
 5707TIP3    H117085   1.454   4.597   2.126
 5707TIP3    H217086   1.581   4.625   2.048
 5708TIP3   OH217087   3.416   0.467   2.931
 5708TIP3    H117088   3.465   0.523   2.991
 5708TIP3    H217089   3.436   0.378   2.960
 5709TIP3   OH217090   6.589   3.362   3.476
 5709TIP3    H117091   6.619   3.278   3.444
 5709TIP3    H217092   6.516   3.341   3.534
 5710TIP3   OH217093   3.508   3.907   4.057
 5710TIP3    H117094   3.504   3.887   3.963
 5710TIP3    H217095   3.472   3.829   4.100
 5711TIP3   OH217096   5.121   0.035   3.187
 5711TIP3    H117097   5.142   0.065   3.098
 5711TIP3    H217098   5.153  -0.055   3.190
 5712TIP3   OH217099   5.127   5.343   1.291
 5712TIP3    H117100   5.158   5.415   1.236
 5712TIP3    H217101   5.207   5.300   1.321
 5713TIP3   OH217102   4.172   5.904   1.845
 5713TIP3    H117103   4.236   5.956   1.798
 5713TIP3    H217104   4.205   5.902   1.935
 5714TIP3   OH217105   1.248   5.246   2.816
 5714TIP3    H117106   1.272   5.248   2.724
 5714TIP3    H217107   1.191   5.170   2.825
 5715TIP3   OH217108   4.571   5.748   0.425
 5715TIP3    H117109   4.566   5.679   0.491
 5715TIP3    H217110   4.514   5.718   0.354
 5716TIP3   OH217111   5.373   0.522   2.498
 5716TIP3    H117112   5.467   0.505   2.499
 5716TIP3    H217113   5.343   0.485   2.415
 5717TIP3   OH217114   2.116   0.863   0.932
 5717TIP3    H117115   2.195   0.918   0.929
 5717TIP3    H217116   2.123   0.807   0.855
 5718TIP3   OH217117   1.502   4.766   3.840
 5718TIP3    H117118   1.477   4.674   3.845
 5718TIP3    H217119   1.479   4.802   3.926
 5719TIP3   OH217120   1.817   0.501   5.698
 5719TIP3    H117121   1.912   0.513   5.693
 5719TIP3    H217122   1.800   0.424   5.644
 5720TIP3   OH217123   1.253   0.416   5.802
 5720TIP3    H117124   1.230   0.502   5.838
 5720TIP3    H217125   1.206   0.410   5.719
 5721TIP3   OH217126   0.341   0.691   2.342
 5721TIP3    H117127   0.373   0.753   2.408
 5721TIP3    H217128   0.410   0.626   2.335
 5722TIP3   OH217129   3.781   1.787   3.043
 5722TIP3    H117130   3.788   1.704   2.995
 5722TIP3    H217131   3.839   1.776   3.118
 5723TIP3   OH217132   7.013   5.952   2.828
 5723TIP3    H117133   6.920   5.951   2.851
 5723TIP3    H217134   7.025   5.873   2.775
 5724TIP3   OH217135   0.566   1.359   5.379
 5724TIP3    H117136   0.524   1.354   5.464
 5724TIP3    H217137   0.495   1.382   5.318
 5725TIP3   OH217138   2.257   6.761   3.312
 5725TIP3    H117139   2.254   6.855   3.326
 5725TIP3    H217140   2.202   6.746   3.236
 5726TIP3   OH217141   2.868   4.758   2.842
 5726TIP3    H117142   2.915   4.689   2.890
 5726TIP3    H217143   2.871   4.729   2.751
 5727TIP3   OH217144   3.898   0.129   0.593
 5727TIP3    H117145   3.991   0.151   0.600
 5727TIP3    H217146   3.891   0.041   0.629
 5728TIP3   OH217147   4.971   2.789   1.884
 5728TIP3    H117148   4.939   2.849   1.953
 5728TIP3    H217149   4.949   2.834   1.802
 5729TIP3   OH217150   2.191   1.899   2.305
 5729TIP3    H117151   2.206   1.829   2.368
 5729TIP3    H217152   2.276   1.939   2.292
 5730TIP3   OH217153   5.017   5.439   1.984
 5730TIP3    H117154   5.019   5.444   1.889
 5730TIP3    H217155   4.942   5.382   2.003
 5731TIP3   OH217156   5.749   6.754   3.921
 5731TIP3    H117157   5.703   6.670   3.922
 5731TIP3    H217158   5.691   6.813   3.969
 5732TIP3   OH217159   0.190   1.218   3.550
 5732TIP3    H117160   0.219   1.306   3.574
 5732TIP3    H217161   0.121   1.233   3.485
 5733TIP3   OH217162   5.302   2.759   1.417
 5733TIP3    H117163   5.207   2.754   1.417
 5733TIP3    H217164   5.331   2.668   1.414
 5734TIP3   OH217165   3.141   6.267   5.456
 5734TIP3    H117166   3.188   6.212   5.519
 5734TIP3    H217167   3.125   6.209   5.381
 5735TIP3   OH217168   2.458   0.257   3.673
 5735TIP3    H117169   2.532   0.197   3.660
 5735TIP3    H217170   2.408   0.217   3.745
 5736TIP3   OH217171   1.878   5.661   4.216
 5736TIP3    H117172   1.903   5.571   4.236
 5736TIP3    H217173   1.782   5.657   4.205
 5737TIP3   OH217174   0.834   3.669   1.639
 5737TIP3    H117175   0.917   3.650   1.596
 5737TIP3    H217176   0.771   3.678   1.568
 5738TIP3   OH217177   3.738   3.855   0.345
 5738TIP3    H117178   3.669   3.899   0.295
 5738TIP3    H217179   3.723   3.762   0.329
 5739TIP3   OH217180   2.519   5.789   2.329
 5739TIP3    H117181   2.519   5.780   2.425
 5739TIP3    H217182   2.585   5.855   2.312
 5740TIP3   OH217183   2.880   6.690   3.910
 5740TIP3    H117184   2.948   6.677   3.845
 5740TIP3    H217185   2.819   6.618   3.896
 5741TIP3   OH217186   4.602   2.390   1.729
 5741TIP3    H117187   4.632   2.469   1.774
 5741TIP3    H217188   4.655   2.319   1.767
 5742TIP3   OH217189   6.330   6.540   3.458
 5742TIP3    H117190   6.271   6.465   3.453
 5742TIP3    H217191   6.356   6.544   3.550
 5743TIP3   OH217192   2.122   0.332   2.650
 5743TIP3    H117193   2.032   0.353   2.673
 5743TIP3    H217194   2.175   0.374   2.718
 5744TIP3   OH217195   6.537   2.753   1.924
 5744TIP3    H117196   6.576   2.669   1.950
 5744TIP3    H217197   6.449   2.751   1.962
 5745TIP3   OH217198   2.368   5.869   4.508
 5745TIP3    H117199   2.326   5.920   4.577
 5745TIP3    H217200   2.321   5.785   4.509
 5746TIP3   OH217201   4.506   0.408   1.143
 5746TIP3    H117202   4.475   0.476   1.084
 5746TIP3    H217203   4.567   0.453   1.202
 5747TIP3   OH217204   3.830   6.030   3.194
 5747TIP3    H117205   3.864   6.079   3.269
 5747TIP3    H217206   3.797   5.948   3.232
 5748TIP3   OH217207   7.068   5.398   5.611
 5748TIP3    H117208   7.133   5.413   5.679
 5748TIP3    H217209   7.113   5.344   5.546
 5749TIP3   OH217210   5.990   1.943   1.544
 5749TIP3    H117211   6.025   1.862   1.509
 5749TIP3    H217212   5.901   1.921   1.574
 5750TIP3   OH217213   5.720   6.617   1.941
 5750TIP3    H117214   5.674   6.660   1.868
 5750TIP3    H217215   5.651   6.568   1.986
 5751TIP3   OH217216   0.437   1.179   4.372
 5751TIP3    H117217   0.429   1.243   4.301
 5751TIP3    H217218   0.358   1.126   4.365
 5752TIP3   OH217219   2.474   2.824   5.528
 5752TIP3    H117220   2.554   2.834   5.477
 5752TIP3    H217221   2.469   2.904   5.581
 5753TIP3   OH217222   5.159   3.692   1.815
 5753TIP3    H117223   5.217   3.623   1.782
 5753TIP3    H217224   5.134   3.663   1.902
 5754TIP3   OH217225   4.225   4.054   5.009
 5754TIP3    H117226   4.144   4.012   4.983
 5754TIP3    H217227   4.245   4.115   4.938
 5755TIP3   OH217228   7.083   4.888   2.339
 5755TIP3    H117229   7.037   4.812   2.374
 5755TIP3    H217230   7.141   4.852   2.271
 5756TIP3   OH217231   6.405   1.998   3.967
 5756TIP3    H117232   6.433   2.031   3.882
 5756TIP3    H217233   6.419   1.903   3.962
 5757TIP3   OH217234   6.650   4.796   2.513
 5757TIP3    H117235   6.555   4.797   2.516
 5757TIP3    H217236   6.671   4.776   2.422
 5758TIP3   OH217237   4.004   0.508   2.157
 5758TIP3    H117238   3.950   0.555   2.093
 5758TIP3    H217239   3.979   0.545   2.241
 5759TIP3   OH217240   4.770   5.799   5.319
 5759TIP3    H117241   4.772   5.722   5.376
 5759TIP3    H217242   4.856   5.801   5.278
 5760TIP3   OH217243   5.876   4.918   2.605
 5760TIP3    H117244   5.898   4.999   2.560
 5760TIP3    H217245   5.954   4.863   2.597
 5761TIP3   OH217246   0.722   4.765   4.035
 5761TIP3    H117247   0.645   4.776   4.091
 5761TIP3    H217248   0.734   4.850   3.994
 5762TIP3   OH217249   5.748   6.140   2.356
 5762TIP3    H117250   5.713   6.222   2.322
 5762TIP3    H217251   5.681   6.075   2.335
 5763TIP3   OH217252   3.422   0.053   5.488
 5763TIP3    H117253   3.443   0.146   5.484
 5763TIP3    H217254   3.346   0.043   5.431
 5764TIP3   OH217255   4.180   5.489   3.860
 5764TIP3    H117256   4.114   5.525   3.919
 5764TIP3    H217257   4.263   5.501   3.906
 5765TIP3   OH217258   4.577   2.829   3.086
 5765TIP3    H117259   4.503   2.790   3.039
 5765TIP3    H217260   4.589   2.914   3.045
 5766TIP3   OH217261   1.390   3.009   5.467
 5766TIP3    H117262   1.306   2.973   5.438
 5766TIP3    H217263   1.450   2.993   5.394
 5767TIP3   OH217264   7.098   6.281   0.159
 5767TIP3    H117265   7.102   6.186   0.146
 5767TIP3    H217266   7.170   6.316   0.106
 5768TIP3   OH217267   4.275   2.595   0.743
 5768TIP3    H117268   4.306   2.684   0.758
 5768TIP3    H217269   4.338   2.539   0.789
 5769TIP3   OH217270   2.851   3.769   4.491
 5769TIP3    H117271   2.871   3.725   4.408
 5769TIP3    H217272   2.791   3.840   4.466
 5770TIP3   OH217273   7.149   6.724   4.830
 5770TIP3    H117274   7.149   6.812   4.792
 5770TIP3    H217275   7.093   6.732   4.907
 5771TIP3   OH217276   2.103   0.251   5.452
 5771TIP3    H117277   2.104   0.248   5.548
 5771TIP3    H217278   2.043   0.322   5.431
 5772TIP3   OH217279   0.388   3.169   2.487
 5772TIP3    H117280   0.312   3.196   2.435
 5772TIP3    H217281   0.438   3.249   2.499
 5773TIP3   OH217282   3.409   4.127   4.838
 5773TIP3    H117283   3.329   4.083   4.807
 5773TIP3    H217284   3.399   4.217   4.807
 5774TIP3   OH217285   2.373   1.388   2.846
 5774TIP3    H117286   2.293   1.336   2.832
 5774TIP3    H217287   2.444   1.325   2.837
 5775TIP3   OH217288   2.733   0.155   0.806
 5775TIP3    H117289   2.827   0.146   0.821
 5775TIP3    H217290   2.727   0.211   0.728
 5776TIP3   OH217291   5.183   5.045   0.572
 5776TIP3    H117292   5.168   4.985   0.499
 5776TIP3    H217293   5.213   5.126   0.531
 5777TIP3   OH217294   6.841   4.925   4.626
 5777TIP3    H117295   6.795   4.842   4.617
 5777TIP3    H217296   6.830   4.949   4.718
 5778TIP3   OH217297   4.047   5.473   3.216
 5778TIP3    H117298   4.140   5.465   3.198
 5778TIP3    H217299   4.004   5.449   3.133
 5779TIP3   OH217300   3.818   5.827   3.465
 5779TIP3    H117301   3.751   5.760   3.449
 5779TIP3    H217302   3.896   5.794   3.419
 5780TIP3   OH217303   4.945   3.276   1.183
 5780TIP3    H117304   4.877   3.286   1.117
 5780TIP3    H217305   4.899   3.280   1.267
 5781TIP3   OH217306   6.108   3.413   1.111
 5781TIP3    H117307   6.164   3.429   1.035
 5781TIP3    H217308   6.135   3.326   1.142
 5782TIP3   OH217309   2.542   5.061   3.169
 5782TIP3    H117310   2.482   5.120   3.123
 5782TIP3    H217311   2.521   5.073   3.262
 5783TIP3   OH217312   3.177   3.728   5.510
 5783TIP3    H117313   3.268   3.700   5.505
 5783TIP3    H217314   3.150   3.707   5.599
 5784TIP3   OH217315   5.985   1.912   1.105
 5784TIP3    H117316   6.009   1.819   1.105
 5784TIP3    H217317   5.998   1.940   1.014
 5785TIP3   OH217318   1.989   1.839   0.077
 5785TIP3    H117319   1.905   1.792   0.070
 5785TIP3    H217320   2.052   1.782   0.033
 5786TIP3   OH217321   3.466   3.039   4.210
 5786TIP3    H117322   3.539   3.063   4.152
 5786TIP3    H217323   3.407   3.114   4.205
 5787TIP3   OH217324   4.144   1.738   4.938
 5787TIP3    H117325   4.206   1.803   4.906
 5787TIP3    H217326   4.127   1.762   5.029
 5788TIP3   OH217327   7.027   0.977   2.645
 5788TIP3    H117328   7.032   0.936   2.732
 5788TIP3    H217329   6.968   0.920   2.596
 5789TIP3   OH217330   0.530   1.356   2.955
 5789TIP3    H117331   0.568   1.365   3.042
 5789TIP3    H217332   0.436   1.364   2.969
 5790TIP3   OH217333   4.112   6.079   4.426
 5790TIP3    H117334   4.156   6.060   4.509
 5790TIP3    H217335   4.031   6.124   4.453
 5791TIP3   OH217336   6.728   3.941   1.628
 5791TIP3    H117337   6.797   3.915   1.689
 5791TIP3    H217338   6.733   4.037   1.627
 5792TIP3   OH217339   2.605   4.900   3.624
 5792TIP3    H117340   2.551   4.840   3.573
 5792TIP3    H217341   2.579   4.885   3.715
 5793TIP3   OH217342   2.132   0.973   5.448
 5793TIP3    H117343   2.206   0.930   5.491
 5793TIP3    H217344   2.165   0.996   5.361
 5794TIP3   OH217345   2.155   4.860   4.845
 5794TIP3    H117346   2.204   4.781   4.822
 5794TIP3    H217347   2.193   4.887   4.929
 5795TIP3   OH217348   3.025   6.609   4.230
 5795TIP3    H117349   3.064   6.525   4.207
 5795TIP3    H217350   3.050   6.667   4.159
 5796TIP3   OH217351   5.388   2.289   5.344
 5796TIP3    H117352   5.413   2.330   5.427
 5796TIP3    H217353   5.367   2.199   5.368
 5797TIP3   OH217354   1.900   3.500   5.147
 5797TIP3    H117355   1.907   3.552   5.067
 5797TIP3    H217356   1.960   3.427   5.134
 5798TIP3   OH217357   3.157   6.201   3.096
 5798TIP3    H117358   3.150   6.108   3.118
 5798TIP3    H217359   3.250   6.214   3.075
 5799TIP3   OH217360   6.095   1.709   5.655
 5799TIP3    H117361   6.017   1.727   5.708
 5799TIP3    H217362   6.082   1.763   5.576
 5800TIP3   OH217363   4.346   2.949   1.380
 5800TIP3    H117364   4.352   2.854   1.370
 5800TIP3    H217365   4.430   2.975   1.418
 5801TIP3   OH217366   4.216   6.348   5.188
 5801TIP3    H117367   4.186   6.427   5.142
 5801TIP3    H217368   4.307   6.339   5.162
 5802TIP3   OH217369   3.737   4.430   3.600
 5802TIP3    H117370   3.827   4.415   3.572
 5802TIP3    H217371   3.688   4.442   3.519
 5803TIP3   OH217372   3.127   6.340   2.519
 5803TIP3    H117373   3.199   6.389   2.478
 5803TIP3    H217374   3.088   6.290   2.447
 5804TIP3   OH217375   0.746   5.487   1.045
 5804TIP3    H117376   0.748   5.399   1.084
 5804TIP3    H217377   0.813   5.484   0.977
 5805TIP3   OH217378   2.545   5.563   4.317
 5805TIP3    H117379   2.585   5.611   4.244
 5805TIP3    H217380   2.591   5.596   4.394
 5806TIP3   OH217381   1.999   1.753   1.304
 5806TIP3    H117382   1.997   1.712   1.218
 5806TIP3    H217383   2.092   1.772   1.320
 5807TIP3   OH217384   1.102   5.661   3.905
 5807TIP3    H117385   1.069   5.689   3.820
 5807TIP3    H217386   1.188   5.622   3.885
 5808TIP3   OH217387   1.766   3.186   1.697
 5808TIP3    H117388   1.855   3.151   1.698
 5808TIP3    H217389   1.723   3.146   1.773
 5809TIP3   OH217390   1.035   4.885   0.883
 5809TIP3    H117391   1.047   4.932   0.800
 5809TIP3    H217392   0.940   4.876   0.892
 5810TIP3   OH217393   5.522   2.332   2.828
 5810TIP3    H117394   5.598   2.352   2.773
 5810TIP3    H217395   5.449   2.375   2.784
 5811TIP3   OH217396   3.239   4.981   3.578
 5811TIP3    H117397   3.189   5.061   3.562
 5811TIP3    H217398   3.197   4.915   3.522
 5812TIP3   OH217399   4.198   5.408   0.562
 5812TIP3    H117400   4.169   5.398   0.653
 5812TIP3    H217401   4.284   5.449   0.569
 5813TIP3   OH217402   2.270   3.362   1.463
 5813TIP3    H117403   2.176   3.344   1.464
 5813TIP3    H217404   2.282   3.422   1.390
 5814TIP3   OH217405   0.823   0.986   1.919
 5814TIP3    H117406   0.729   0.992   1.937
 5814TIP3    H217407   0.855   1.075   1.931
 5815TIP3   OH217408   0.263   4.884   0.487
 5815TIP3    H117409   0.315   4.910   0.411
 5815TIP3    H217410   0.178   4.859   0.450
 5816TIP3   OH217411   3.756   5.995   0.087
 5816TIP3    H117412   3.671   5.971   0.125
 5816TIP3    H217413   3.768   5.933   0.015
 5817TIP3   OH217414   0.793   5.008   2.918
 5817TIP3    H117415   0.824   4.927   2.957
 5817TIP3    H217416   0.745   5.052   2.989
 5818TIP3   OH217417   6.723   5.232   5.070
 5818TIP3    H117418   6.692   5.318   5.097
 5818TIP3    H217419   6.643   5.183   5.048
 5819TIP3   OH217420   1.167   2.478   4.675
 5819TIP3    H117421   1.246   2.486   4.728
 5819TIP3    H217422   1.196   2.501   4.586
 5820TIP3   OH217423   6.749   0.237   3.930
 5820TIP3    H117424   6.761   0.331   3.924
 5820TIP3    H217425   6.834   0.203   3.955
 5821TIP3   OH217426   2.816   1.758   5.600
 5821TIP3    H117427   2.827   1.681   5.656
 5821TIP3    H217428   2.747   1.732   5.538
 5822TIP3   OH217429   1.667   5.256   0.904
 5822TIP3    H117430   1.698   5.345   0.886
 5822TIP3    H217431   1.679   5.245   0.999
 5823TIP3   OH217432   4.932   6.665   4.208
 5823TIP3    H117433   4.888   6.615   4.139
 5823TIP3    H217434   4.920   6.612   4.287
 5824TIP3   OH217435   1.430   4.415   4.768
 5824TIP3    H117436   1.376   4.490   4.744
 5824TIP3    H217437   1.396   4.343   4.715
 5825TIP3   OH217438   0.533   0.401   5.457
 5825TIP3    H117439   0.518   0.358   5.373
 5825TIP3    H217440   0.619   0.442   5.447
 5826TIP3   OH217441   7.029   2.780   4.304
 5826TIP3    H117442   7.028   2.784   4.399
 5826TIP3    H217443   6.971   2.851   4.276
 5827TIP3   OH217444   6.264   4.752   1.677
 5827TIP3    H117445   6.275   4.671   1.627
 5827TIP3    H217446   6.319   4.816   1.632
 5828TIP3   OH217447   0.995   0.608   3.713
 5828TIP3    H117448   0.959   0.686   3.670
 5828TIP3    H217449   0.918   0.556   3.737
 5829TIP3   OH217450   6.754   4.046   2.851
 5829TIP3    H117451   6.842   4.072   2.878
 5829TIP3    H217452   6.695   4.103   2.900
 5830TIP3   OH217453   6.945   2.095   5.410
 5830TIP3    H117454   7.016   2.090   5.346
 5830TIP3    H217455   6.916   2.186   5.406
 5831TIP3   OH217456   2.720   2.647   4.702
 5831TIP3    H117457   2.699   2.730   4.660
 5831TIP3    H217458   2.661   2.583   4.661
 5832TIP3   OH217459   4.185   3.511   0.658
 5832TIP3    H117460   4.096   3.546   0.669
 5832TIP3    H217461   4.173   3.430   0.608
 5833TIP3   OH217462   4.798   3.352   4.599
 5833TIP3    H117463   4.827   3.423   4.656
 5833TIP3    H217464   4.742   3.298   4.655
 5834TIP3   OH217465   2.585   5.489   2.332
 5834TIP3    H117466   2.588   5.584   2.333
 5834TIP3    H217467   2.493   5.467   2.347
 5835TIP3   OH217468   3.678   4.787   5.708
 5835TIP3    H117469   3.678   4.693   5.723
 5835TIP3    H217470   3.771   4.811   5.705
 5836TIP3   OH217471   6.358   3.202   0.936
 5836TIP3    H117472   6.433   3.231   0.988
 5836TIP3    H217473   6.291   3.269   0.949
 5837TIP3   OH217474   5.312   5.129   1.780
 5837TIP3    H117475   5.311   5.150   1.873
 5837TIP3    H217476   5.367   5.051   1.773
 5838TIP3   OH217477   7.002   0.578   3.952
 5838TIP3    H117478   7.057   0.509   3.914
 5838TIP3    H217479   6.981   0.547   4.039
 5839TIP3   OH217480   2.949   3.540   5.427
 5839TIP3    H117481   3.027   3.594   5.441
 5839TIP3    H217482   2.888   3.566   5.496
 5840TIP3   OH217483   0.681   4.197   1.141
 5840TIP3    H117484   0.713   4.285   1.124
 5840TIP3    H217485   0.618   4.180   1.071
 5841TIP3   OH217486   2.762   0.759   4.634
 5841TIP3    H117487   2.694   0.804   4.584
 5841TIP3    H217488   2.769   0.809   4.716
 5842TIP3   OH217489   4.520   1.897   3.464
 5842TIP3    H117490   4.556   1.888   3.552
 5842TIP3    H217491   4.519   1.992   3.448
 5843TIP3   OH217492   6.236   3.313   3.110
 5843TIP3    H117493   6.273   3.373   3.175
 5843TIP3    H217494   6.217   3.369   3.034
 5844TIP3   OH217495   4.436   0.965   0.679
 5844TIP3    H117496   4.380   1.042   0.668
 5844TIP3    H217497   4.379   0.891   0.658
 5845TIP3   OH217498   5.887   6.587   3.437
 5845TIP3    H117499   5.888   6.499   3.474
 5845TIP3    H217500   5.908   6.644   3.510
 5846TIP3   OH217501   3.040   3.035   4.014
 5846TIP3    H117502   2.970   3.080   4.062
 5846TIP3    H217503   3.059   2.957   4.066
 5847TIP3   OH217504   2.056   3.214   2.577
 5847TIP3    H117505   2.007   3.265   2.513
 5847TIP3    H217506   2.148   3.236   2.561
 5848TIP3   OH217507   0.298   2.079   5.747
 5848TIP3    H117508   0.311   2.074   5.841
 5848TIP3    H217509   0.386   2.094   5.711
 5849TIP3   OH217510   2.024   3.410   1.056
 5849TIP3    H117511   2.065   3.330   1.091
 5849TIP3    H217512   2.030   3.473   1.127
 5850TIP3   OH217513   2.404   5.272   5.131
 5850TIP3    H117514   2.462   5.331   5.179
 5850TIP3    H217515   2.461   5.227   5.069
 5851TIP3   OH217516   2.218   3.580   2.445
 5851TIP3    H117517   2.291   3.522   2.426
 5851TIP3    H217518   2.141   3.535   2.410
 5852TIP3   OH217519   1.620   3.901   3.234
 5852TIP3    H117520   1.615   3.996   3.245
 5852TIP3    H217521   1.556   3.866   3.295
 5853TIP3   OH217522   6.046   6.283   0.383
 5853TIP3    H117523   5.991   6.216   0.425
 5853TIP3    H217524   5.998   6.309   0.305
 5854TIP3   OH217525   3.794   3.160   5.127
 5854TIP3    H117526   3.812   3.106   5.204
 5854TIP3    H217527   3.880   3.173   5.086
 5855TIP3   OH217528   1.634   1.259   5.020
 5855TIP3    H117529   1.701   1.204   4.978
 5855TIP3    H217530   1.674   1.285   5.103
 5856TIP3   OH217531   2.360   1.445   3.945
 5856TIP3    H117532   2.385   1.495   4.023
 5856TIP3    H217533   2.265   1.457   3.939
 5857TIP3   OH217534   6.763   1.085   0.390
 5857TIP3    H117535   6.819   1.160   0.369
 5857TIP3    H217536   6.774   1.026   0.315
 5858TIP3   OH217537   1.446   3.193   2.266
 5858TIP3    H117538   1.375   3.256   2.263
 5858TIP3    H217539   1.494   3.207   2.184
 5859TIP3   OH217540   6.018   0.381   1.175
 5859TIP3    H117541   5.984   0.465   1.206
 5859TIP3    H217542   6.046   0.399   1.085
 5860TIP3   OH217543   3.613   3.041   4.610
 5860TIP3    H117544   3.570   2.978   4.668
 5860TIP3    H217545   3.624   2.995   4.527
 5861TIP3   OH217546   3.714   0.983   1.290
 5861TIP3    H117547   3.636   0.946   1.248
 5861TIP3    H217548   3.784   0.969   1.227
 5862TIP3   OH217549   2.960   2.376   3.724
 5862TIP3    H117550   3.037   2.357   3.778
 5862TIP3    H217551   2.994   2.390   3.636
 5863TIP3   OH217552   3.322   6.227   3.672
 5863TIP3    H117553   3.284   6.221   3.584
 5863TIP3    H217554   3.411   6.194   3.662
 5864TIP3   OH217555   5.298   1.815   3.969
 5864TIP3    H117556   5.332   1.737   4.013
 5864TIP3    H217557   5.229   1.783   3.912
 5865TIP3   OH217558   5.259   3.042   5.639
 5865TIP3    H117559   5.336   3.084   5.600
 5865TIP3    H217560   5.273   3.050   5.734
 5866TIP3   OH217561   0.718   6.567   0.522
 5866TIP3    H117562   0.670   6.630   0.576
 5866TIP3    H217563   0.806   6.565   0.560
 5867TIP3   OH217564   4.116   2.765   4.831
 5867TIP3    H117565   4.195   2.720   4.861
 5867TIP3    H217566   4.081   2.807   4.910
 5868TIP3   OH217567   3.572   0.052   3.569
 5868TIP3    H117568   3.614   0.073   3.653
 5868TIP3    H217569   3.480   0.073   3.582
 5869TIP3   OH217570   0.992   0.157   0.214
 5869TIP3    H117571   0.979   0.163   0.309
 5869TIP3    H217572   1.015   0.247   0.188
 5870TIP3   OH217573   4.471   2.616   0.241
 5870TIP3    H117574   4.564   2.612   0.265
 5870TIP3    H217575   4.462   2.700   0.195
 5871TIP3   OH217576   0.309   6.006   2.541
 5871TIP3    H117577   0.284   6.025   2.451
 5871TIP3    H217578   0.403   6.021   2.544
 5872TIP3   OH217579   5.946   2.215   0.893
 5872TIP3    H117580   5.933   2.152   0.823
 5872TIP3    H217581   5.873   2.276   0.884
 5873TIP3   OH217582   1.563   3.984   1.223
 5873TIP3    H117583   1.579   4.066   1.268
 5873TIP3    H217584   1.471   3.988   1.197
 5874TIP3   OH217585   5.673   6.316   1.165
 5874TIP3    H117586   5.684   6.228   1.202
 5874TIP3    H217587   5.761   6.353   1.165
 5875TIP3   OH217588   1.865   2.027   4.048
 5875TIP3    H117589   1.805   1.953   4.052
 5875TIP3    H217590   1.831   2.081   3.977
 5876TIP3   OH217591   5.725   4.833   3.089
 5876TIP3    H117592   5.740   4.762   3.027
 5876TIP3    H217593   5.760   4.911   3.045
 5877TIP3   OH217594   1.668   4.234   0.814
 5877TIP3    H117595   1.633   4.313   0.854
 5877TIP3    H217596   1.631   4.233   0.725
 5878TIP3   OH217597   5.067   1.930   1.486
 5878TIP3    H117598   4.988   1.965   1.528
 5878TIP3    H217599   5.040   1.845   1.451
 5879TIP3   OH217600   5.863   0.766   2.591
 5879TIP3    H117601   5.926   0.694   2.603
 5879TIP3    H217602   5.873   0.820   2.670
 5880TIP3   OH217603   5.898   1.932   4.156
 5880TIP3    H117604   5.924   1.953   4.066
 5880TIP3    H217605   5.888   2.017   4.199
 5881TIP3   OH217606   1.367   3.688   1.310
 5881TIP3    H117607   1.331   3.697   1.222
 5881TIP3    H217608   1.327   3.608   1.345
 5882TIP3   OH217609   0.076   4.082   0.095
 5882TIP3    H117610   0.091   4.080   0.000
 5882TIP3    H217611   0.097   4.172   0.121
 5883TIP3   OH217612   3.866   2.423   0.064
 5883TIP3    H117613   3.877   2.353   0.129
 5883TIP3    H217614   3.865   2.378  -0.020
 5884TIP3   OH217615   5.379   5.121   2.395
 5884TIP3    H117616   5.309   5.184   2.415
 5884TIP3    H217617   5.424   5.107   2.478
 5885TIP3   OH217618   2.700   6.035   0.874
 5885TIP3    H117619   2.677   5.952   0.832
 5885TIP3    H217620   2.742   6.086   0.804
 5886TIP3   OH217621   1.602   1.453   3.002
 5886TIP3    H117622   1.693   1.425   3.009
 5886TIP3    H217623   1.579   1.437   2.911
 5887TIP3   OH217624   1.098   6.484   3.400
 5887TIP3    H117625   1.074   6.439   3.481
 5887TIP3    H217626   1.187   6.453   3.381
 5888TIP3   OH217627   4.103   4.796   2.723
 5888TIP3    H117628   4.014   4.828   2.709
 5888TIP3    H217629   4.134   4.843   2.800
 5889TIP3   OH217630   0.129   2.162   3.670
 5889TIP3    H117631   0.076   2.237   3.697
 5889TIP3    H217632   0.183   2.142   3.746
 5890TIP3   OH217633   3.349   3.084   0.195
 5890TIP3    H117634   3.368   2.993   0.216
 5890TIP3    H217635   3.295   3.115   0.268
 5891TIP3   OH217636   5.388   2.517   3.150
 5891TIP3    H117637   5.361   2.530   3.241
 5891TIP3    H217638   5.423   2.428   3.148
 5892TIP3   OH217639   1.568   1.944   2.246
 5892TIP3    H117640   1.550   1.900   2.329
 5892TIP3    H217641   1.660   1.925   2.228
 5893TIP3   OH217642   0.429   2.715   2.562
 5893TIP3    H117643   0.476   2.796   2.583
 5893TIP3    H217644   0.461   2.651   2.626
 5894TIP3   OH217645   3.698   4.859   0.539
 5894TIP3    H117646   3.641   4.844   0.463
 5894TIP3    H217647   3.645   4.913   0.598
 5895TIP3   OH217648   5.425   5.210   2.024
 5895TIP3    H117649   5.379   5.169   2.097
 5895TIP3    H217650   5.512   5.172   2.026
 5896TIP3   OH217651   0.708   0.144   0.901
 5896TIP3    H117652   0.794   0.156   0.942
 5896TIP3    H217653   0.647   0.187   0.961
 5897TIP3   OH217654   0.685   4.817   4.339
 5897TIP3    H117655   0.705   4.910   4.331
 5897TIP3    H217656   0.768   4.773   4.323
 5898TIP3   OH217657   1.696   0.973   2.199
 5898TIP3    H117658   1.621   0.950   2.143
 5898TIP3    H217659   1.702   1.068   2.192
 5899TIP3   OH217660   3.829   1.117   1.686
 5899TIP3    H117661   3.736   1.097   1.692
 5899TIP3    H217662   3.846   1.121   1.592
 5900TIP3   OH217663   0.068   6.356   4.229
 5900TIP3    H117664   0.102   6.359   4.140
 5900TIP3    H217665   0.145   6.363   4.285
 5901TIP3   OH217666   2.052   2.729   5.313
 5901TIP3    H117667   1.991   2.803   5.325
 5901TIP3    H217668   1.996   2.652   5.313
 5902TIP3   OH217669   1.294   0.255   0.161
 5902TIP3    H117670   1.237   0.188   0.121
 5902TIP3    H217671   1.360   0.205   0.208
 5903TIP3   OH217672   1.043   3.398   1.781
 5903TIP3    H117673   1.049   3.481   1.735
 5903TIP3    H217674   1.033   3.333   1.713
 5904TIP3   OH217675   0.800   2.344   5.226
 5904TIP3    H117676   0.718   2.378   5.262
 5904TIP3    H217677   0.821   2.403   5.153
 5905TIP3   OH217678   3.744   5.941   1.156
 5905TIP3    H117679   3.672   5.948   1.094
 5905TIP3    H217680   3.717   5.996   1.230
 5906TIP3   OH217681   4.493   4.231   4.042
 5906TIP3    H117682   4.443   4.311   4.025
 5906TIP3    H217683   4.583   4.261   4.054
 5907TIP3   OH217684   5.129   2.957   3.505
 5907TIP3    H117685   5.187   2.961   3.581
 5907TIP3    H217686   5.073   2.881   3.522
 5908TIP3   OH217687   2.014   2.190   1.512
 5908TIP3    H117688   2.107   2.171   1.497
 5908TIP3    H217689   1.967   2.128   1.457
 5909TIP3   OH217690   2.927   4.170   4.563
 5909TIP3    H117691   2.981   4.246   4.545
 5909TIP3    H217692   2.843   4.190   4.522
 5910TIP3   OH217693   3.599   0.059   4.325
 5910TIP3    H117694   3.509   0.043   4.352
 5910TIP3    H217695   3.632  -0.027   4.300
 5911TIP3   OH217696   5.340   5.708   0.501
 5911TIP3    H117697   5.363   5.738   0.413
 5911TIP3    H217698   5.409   5.645   0.524
 5912TIP3   OH217699   5.075   3.824   0.335
 5912TIP3    H117700   5.021   3.754   0.298
 5912TIP3    H217701   5.030   3.850   0.415
 5913TIP3   OH217702   5.195   2.558   2.934
 5913TIP3    H117703   5.128   2.559   3.003
 5913TIP3    H217704   5.278   2.560   2.982
 5914TIP3   OH217705   2.101   5.553   5.481
 5914TIP3    H117706   2.127   5.623   5.541
 5914TIP3    H217707   2.176   5.541   5.423
 5915TIP3   OH217708   0.759   2.873   2.731
 5915TIP3    H117709   0.753   2.804   2.797
 5915TIP3    H217710   0.671   2.910   2.727
 5916TIP3   OH217711   0.718   0.633   1.356
 5916TIP3    H117712   0.717   0.710   1.300
 5916TIP3    H217713   0.787   0.650   1.420
 5917TIP3   OH217714   6.839   2.448   3.888
 5917TIP3    H117715   6.865   2.540   3.896
 5917TIP3    H217716   6.829   2.418   3.979
 5918TIP3   OH217717   4.764   3.309   3.385
 5918TIP3    H117718   4.831   3.245   3.362
 5918TIP3    H217719   4.725   3.275   3.466
 5919TIP3   OH217720   7.163   2.392   5.632
 5919TIP3    H117721   7.165   2.375   5.538
 5919TIP3    H217722   7.189   2.484   5.640
 5920TIP3   OH217723   5.708   3.316   5.494
 5920TIP3    H117724   5.769   3.334   5.565
 5920TIP3    H217725   5.657   3.396   5.484
 5921TIP3   OH217726   2.143   6.509   0.064
 5921TIP3    H117727   2.076   6.551   0.010
 5921TIP3    H217728   2.221   6.508   0.008
 5922TIP3   OH217729   4.163   2.259   0.784
 5922TIP3    H117730   4.086   2.222   0.741
 5922TIP3    H217731   4.234   2.245   0.722
 5923TIP3   OH217732   1.889   5.632   1.848
 5923TIP3    H117733   1.852   5.715   1.816
 5923TIP3    H217734   1.825   5.600   1.911
 5924TIP3   OH217735   6.874   6.640   0.164
 5924TIP3    H117736   6.910   6.698   0.231
 5924TIP3    H217737   6.851   6.560   0.212
 5925TIP3   OH217738   5.488   3.959   1.588
 5925TIP3    H117739   5.442   3.880   1.560
 5925TIP3    H217740   5.433   4.031   1.556
 5926TIP3   OH217741   0.620   5.458   2.180
 5926TIP3    H117742   0.627   5.417   2.266
 5926TIP3    H217743   0.700   5.432   2.135
 5927TIP3   OH217744   6.599   0.909   1.279
 5927TIP3    H117745   6.610   0.822   1.319
 5927TIP3    H217746   6.627   0.898   1.188
 5928TIP3   OH217747   6.025   4.296   1.781
 5928TIP3    H117748   5.998   4.346   1.704
 5928TIP3    H217749   6.048   4.363   1.845
 5929TIP3   OH217750   3.688   2.295   3.337
 5929TIP3    H117751   3.593   2.306   3.328
 5929TIP3    H217752   3.699   2.257   3.424
 5930TIP3   OH217753   0.315   4.215   2.259
 5930TIP3    H117754   0.398   4.177   2.285
 5930TIP3    H217755   0.267   4.229   2.341
 5931TIP3   OH217756   4.006   4.286   0.306
 5931TIP3    H117757   4.015   4.190   0.308
 5931TIP3    H217758   3.955   4.306   0.385
 5932TIP3   OH217759   0.019   0.435   3.996
 5932TIP3    H117760   0.096   0.380   4.010
 5932TIP3    H217761   0.054   0.524   3.995
 5933TIP3   OH217762   2.536   1.356   3.756
 5933TIP3    H117763   2.627   1.355   3.788
 5933TIP3    H217764   2.489   1.410   3.819
 5934TIP3   OH217765   6.070   2.079   1.302
 5934TIP3    H117766   6.030   2.021   1.237
 5934TIP3    H217767   6.067   2.030   1.384
 5935TIP3   OH217768   0.377   3.718   1.786
 5935TIP3    H117769   0.296   3.669   1.800
 5935TIP3    H217770   0.406   3.692   1.699
 5936TIP3   OH217771   2.601   4.043   4.159
 5936TIP3    H117772   2.528   4.094   4.125
 5936TIP3    H217773   2.668   4.049   4.091
 5937TIP3   OH217774   6.475   0.975   0.397
 5937TIP3    H117775   6.390   0.966   0.355
 5937TIP3    H217776   6.483   0.897   0.452
 5938TIP3   OH217777   6.397   3.701   0.447
 5938TIP3    H117778   6.319   3.729   0.399
 5938TIP3    H217779   6.366   3.626   0.499
 5939TIP3   OH217780   6.203   5.904   0.075
 5939TIP3    H117781   6.260   5.937   0.006
 5939TIP3    H217782   6.128   5.867   0.028
 5940TIP3   OH217783   3.407   2.709   2.405
 5940TIP3    H117784   3.383   2.639   2.466
 5940TIP3    H217785   3.378   2.678   2.320
 5941TIP3   OH217786   0.097   3.005   2.871
 5941TIP3    H117787   0.077   3.077   2.931
 5941TIP3    H217788   0.066   3.036   2.786
 5942TIP3   OH217789   3.396   2.120   2.104
 5942TIP3    H117790   3.312   2.077   2.088
 5942TIP3    H217791   3.411   2.174   2.027
 5943TIP3   OH217792   1.564   6.701   0.336
 5943TIP3    H117793   1.522   6.750   0.407
 5943TIP3    H217794   1.553   6.756   0.259
 5944TIP3   OH217795   0.694   0.527   0.930
 5944TIP3    H117796   0.773   0.583   0.934
 5944TIP3    H217797   0.718   0.449   0.980
 5945TIP3   OH217798   4.784   4.160   5.130
 5945TIP3    H117799   4.700   4.124   5.156
 5945TIP3    H217800   4.804   4.226   5.196
 5946TIP3   OH217801   6.862   3.809   5.105
 5946TIP3    H117802   6.905   3.750   5.167
 5946TIP3    H217803   6.770   3.787   5.110
 5947TIP3   OH217804   6.251   3.129   2.155
 5947TIP3    H117805   6.346   3.143   2.151
 5947TIP3    H217806   6.235   3.052   2.100
 5948TIP3   OH217807   2.160   0.229   5.753
 5948TIP3    H117808   2.086   0.169   5.743
 5948TIP3    H217809   2.146   0.270   5.838
 5949TIP3   OH217810   2.682   5.001   2.800
 5949TIP3    H117811   2.678   4.906   2.792
 5949TIP3    H217812   2.595   5.031   2.774
 5950TIP3   OH217813   1.931   4.200   4.472
 5950TIP3    H117814   1.973   4.286   4.480
 5950TIP3    H217815   1.964   4.151   4.547
 5951TIP3   OH217816   2.403   2.515   0.221
 5951TIP3    H117817   2.365   2.502   0.134
 5951TIP3    H217818   2.434   2.606   0.220
 5952TIP3   OH217819   4.582   4.051   5.254
 5952TIP3    H117820   4.642   4.021   5.323
 5952TIP3    H217821   4.496   4.051   5.296
 5953TIP3   OH217822   2.946   0.939   4.075
 5953TIP3    H117823   2.915   0.921   4.164
 5953TIP3    H217824   2.872   0.982   4.032
 5954TIP3   OH217825   4.280   3.861   3.285
 5954TIP3    H117826   4.339   3.787   3.280
 5954TIP3    H217827   4.217   3.846   3.214
 5955TIP3   OH217828   5.519   1.139   2.700
 5955TIP3    H117829   5.464   1.101   2.768
 5955TIP3    H217830   5.608   1.119   2.727
 5956TIP3   OH217831   1.342   5.021   5.806
 5956TIP3    H117832   1.346   4.951   5.871
 5956TIP3    H217833   1.264   5.002   5.754
 5957TIP3   OH217834   2.490   6.450   2.973
 5957TIP3    H117835   2.469   6.532   3.019
 5957TIP3    H217836   2.457   6.381   3.031
 5958TIP3   OH217837   3.146  -0.028   4.857
 5958TIP3    H117838   3.220  -0.002   4.912
 5958TIP3    H217839   3.121   0.053   4.812
 5959TIP3   OH217840   6.259   0.698   1.286
 5959TIP3    H117841   6.326   0.687   1.219
 5959TIP3    H217842   6.189   0.746   1.242
 5960TIP3   OH217843   2.307   3.235   1.969
 5960TIP3    H117844   2.331   3.253   1.878
 5960TIP3    H217845   2.293   3.140   1.971
 5961TIP3   OH217846   2.170   0.943   0.510
 5961TIP3    H117847   2.156   0.993   0.590
 5961TIP3    H217848   2.083   0.931   0.472
 5962TIP3   OH217849   1.862   6.608   3.443
 5962TIP3    H117850   1.869   6.579   3.352
 5962TIP3    H217851   1.849   6.528   3.494
 5963TIP3   OH217852   4.918   1.353   5.164
 5963TIP3    H117853   4.969   1.329   5.241
 5963TIP3    H217854   4.827   1.345   5.192
 5964TIP3   OH217855   6.520   3.967   0.360
 5964TIP3    H117856   6.500   3.878   0.387
 5964TIP3    H217857   6.435   4.003   0.332
 5965TIP3   OH217858   2.895   4.234   1.561
 5965TIP3    H117859   2.802   4.212   1.565
 5965TIP3    H217860   2.941   4.151   1.572
 5966TIP3   OH217861   0.535   4.825   3.118
 5966TIP3    H117862   0.465   4.781   3.167
 5966TIP3    H217863   0.498   4.911   3.098
 5967TIP3   OH217864   1.829   4.527   1.682
 5967TIP3    H117865   1.903   4.583   1.659
 5967TIP3    H217866   1.814   4.543   1.775
 5968TIP3   OH217867   5.237   3.305   4.272
 5968TIP3    H117868   5.273   3.375   4.218
 5968TIP3    H217869   5.146   3.329   4.286
 5969TIP3   OH217870   3.313   0.475   1.948
 5969TIP3    H117871   3.357   0.391   1.959
 5969TIP3    H217872   3.243   0.458   1.885
 5970TIP3   OH217873   5.913   4.692   0.685
 5970TIP3    H117874   5.957   4.755   0.741
 5970TIP3    H217875   5.876   4.744   0.614
 5971TIP3   OH217876   0.338   3.476   1.158
 5971TIP3    H117877   0.342   3.514   1.071
 5971TIP3    H217878   0.274   3.530   1.205
 5972TIP3   OH217879   0.247   2.668   2.061
 5972TIP3    H117880   0.295   2.652   1.980
 5972TIP3    H217881   0.308   2.718   2.115
 5973TIP3   OH217882   0.012   3.342   2.025
 5973TIP3    H117883   0.106   3.346   2.043
 5973TIP3    H217884  -0.028   3.323   2.110
 5974TIP3   OH217885   5.107   3.169   1.885
 5974TIP3    H117886   5.143   3.208   1.805
 5974TIP3    H217887   5.043   3.234   1.917
 5975TIP3   OH217888   6.867   1.802   1.417
 5975TIP3    H117889   6.919   1.722   1.410
 5975TIP3    H217890   6.930   1.873   1.402
 5976TIP3   OH217891   2.316   3.890   4.726
 5976TIP3    H117892   2.369   3.820   4.690
 5976TIP3    H217893   2.329   3.884   4.821
 5977TIP3   OH217894   3.476   0.312   4.212
 5977TIP3    H117895   3.499   0.219   4.218
 5977TIP3    H217896   3.395   0.314   4.161
 5978TIP3   OH217897   4.564  -0.002   5.875
 5978TIP3    H117898   4.503   0.043   5.817
 5978TIP3    H217899   4.642  -0.017   5.822
 5979TIP3   OH217900   4.306   5.763   1.461
 5979TIP3    H117901   4.227   5.802   1.424
 5979TIP3    H217902   4.368   5.836   1.465
 5980TIP3   OH217903   6.162   1.878   0.641
 5980TIP3    H117904   6.201   1.901   0.725
 5980TIP3    H217905   6.236   1.865   0.583
 5981TIP3   OH217906   2.330   3.859   5.615
 5981TIP3    H117907   2.406   3.833   5.562
 5981TIP3    H217908   2.284   3.776   5.633
 5982TIP3   OH217909   2.315   5.356   2.139
 5982TIP3    H117910   2.256   5.421   2.100
 5982TIP3    H217911   2.259   5.306   2.198
 5983TIP3   OH217912   0.984   1.694   3.321
 5983TIP3    H117913   0.967   1.681   3.414
 5983TIP3    H217914   0.899   1.716   3.283
 5984TIP3   OH217915   2.982   3.483   3.570
 5984TIP3    H117916   3.066   3.510   3.534
 5984TIP3    H217917   2.965   3.398   3.529
 5985TIP3   OH217918   0.427   0.769   2.957
 5985TIP3    H117919   0.463   0.701   3.015
 5985TIP3    H217920   0.392   0.835   3.017
 5986TIP3   OH217921   2.912   6.567   5.261
 5986TIP3    H117922   2.956   6.608   5.335
 5986TIP3    H217923   2.968   6.493   5.238
 5987TIP3   OH217924   0.598   5.580   0.771
 5987TIP3    H117925   0.575   5.656   0.823
 5987TIP3    H217926   0.627   5.615   0.687
 5988TIP3   OH217927   0.271   0.746   5.238
 5988TIP3    H117928   0.341   0.682   5.231
 5988TIP3    H217929   0.207   0.719   5.173
 5989TIP3   OH217930   3.128   5.236   1.087
 5989TIP3    H117931   3.113   5.321   1.127
 5989TIP3    H217932   3.043   5.193   1.089
 5990TIP3   OH217933   3.572   3.498   4.033
 5990TIP3    H117934   3.555   3.418   3.982
 5990TIP3    H217935   3.660   3.525   4.005
 5991TIP3   OH217936   2.347   6.525   5.231
 5991TIP3    H117937   2.412   6.544   5.299
 5991TIP3    H217938   2.299   6.450   5.265
 5992TIP3   OH217939   7.197   0.759   2.364
 5992TIP3    H117940   7.142   0.729   2.436
 5992TIP3    H217941   7.236   0.841   2.397
 5993TIP3   OH217942   6.844   3.086   2.312
 5993TIP3    H117943   6.808   3.168   2.280
 5993TIP3    H217944   6.775   3.049   2.367
 5994TIP3   OH217945   4.332   2.952   5.568
 5994TIP3    H117946   4.296   3.006   5.638
 5994TIP3    H217947   4.387   2.888   5.614
 5995TIP3   OH217948   4.334   1.148   3.651
 5995TIP3    H117949   4.404   1.213   3.658
 5995TIP3    H217950   4.342   1.114   3.562
 5996TIP3   OH217951   0.553   3.014   3.259
 5996TIP3    H117952   0.582   3.103   3.279
 5996TIP3    H217953   0.467   3.007   3.301
 5997TIP3   OH217954   3.383   4.793   4.982
 5997TIP3    H117955   3.288   4.792   4.969
 5997TIP3    H217956   3.394   4.792   5.077
 5998TIP3   OH217957   6.507   5.006   0.507
 5998TIP3    H117958   6.531   5.065   0.435
 5998TIP3    H217959   6.583   5.007   0.565
 5999TIP3   OH217960   1.178   1.684   5.281
 5999TIP3    H117961   1.206   1.628   5.353
 5999TIP3    H217962   1.160   1.623   5.209
 6000TIP3   OH217963   1.316   4.133   5.077
 6000TIP3    H117964   1.240   4.190   5.064
 6000TIP3    H217965   1.389   4.181   5.038
 6001TIP3   OH217966   1.479   0.029   2.766
 6001TIP3    H117967   1.568   0.031   2.803
 6001TIP3    H217968   1.426  -0.012   2.835
 6002TIP3   OH217969   4.083   5.814   1.324
 6002TIP3    H117970   4.075   5.811   1.229
 6002TIP3    H217971   4.058   5.727   1.354
 6003TIP3   OH217972   1.789   2.270   4.267
 6003TIP3    H117973   1.816   2.263   4.176
 6003TIP3    H217974   1.867   2.303   4.312
 6004TIP3   OH217975   6.922   0.439   2.639
 6004TIP3    H117976   6.925   0.346   2.662
 6004TIP3    H217977   6.869   0.479   2.708
 6005TIP3   OH217978   6.789   1.028   5.643
 6005TIP3    H117979   6.835   0.973   5.706
 6005TIP3    H217980   6.702   0.988   5.635
 6006TIP3   OH217981   4.548   4.249   1.426
 6006TIP3    H117982   4.622   4.204   1.386
 6006TIP3    H217983   4.526   4.320   1.366
 6007TIP3   OH217984   5.452   2.316   0.281
 6007TIP3    H117985   5.494   2.368   0.350
 6007TIP3    H217986   5.524   2.274   0.235
 6008TIP3   OH217987   2.335   5.608   1.477
 6008TIP3    H117988   2.334   5.685   1.534
 6008TIP3    H217989   2.270   5.549   1.514
 6009TIP3   OH217990   0.775   1.670   2.190
 6009TIP3    H117991   0.758   1.586   2.147
 6009TIP3    H217992   0.729   1.664   2.273
 6010TIP3   OH217993   6.042   0.087   1.521
 6010TIP3    H117994   6.100   0.069   1.594
 6010TIP3    H217995   5.955   0.095   1.560
 6011TIP3   OH217996   3.240   5.814   3.490
 6011TIP3    H117997   3.237   5.860   3.406
 6011TIP3    H217998   3.149   5.798   3.512
 6012TIP3   OH217999   4.351   3.490   2.016
 6012TIP3    H118000   4.292   3.531   2.079
 6012TIP3    H218001   4.345   3.396   2.036
 6013TIP3   OH218002   2.305   0.944   0.187
 6013TIP3    H118003   2.382   0.971   0.138
 6013TIP3    H218004   2.308   0.997   0.267
 6014TIP3   OH218005   0.059   3.509   5.832
 6014TIP3    H118006   0.110   3.437   5.795
 6014TIP3    H218007  -0.016   3.466   5.874
 6015TIP3   OH218008   5.922   4.785   4.090
 6015TIP3    H118009   5.922   4.875   4.124
 6015TIP3    H218010   6.002   4.779   4.038
 6016TIP3   OH218011   2.844  -0.023   1.237
 6016TIP3    H118012   2.874   0.068   1.242
 6016TIP3    H218013   2.749  -0.017   1.236
 6017TIP3   OH218014   5.888   5.741   1.536
 6017TIP3    H118015   5.840   5.753   1.618
 6017TIP3    H218016   5.826   5.766   1.468
 6018TIP3   OH218017   0.128   4.321   1.121
 6018TIP3    H118018   0.209   4.275   1.145
 6018TIP3    H218019   0.121   4.392   1.184
 6019TIP3   OH218020   5.347   2.562   3.651
 6019TIP3    H118021   5.366   2.476   3.689
 6019TIP3    H218022   5.433   2.598   3.629
 6020TIP3   OH218023   5.108   4.445   3.606
 6020TIP3    H118024   5.031   4.498   3.587
 6020TIP3    H218025   5.170   4.507   3.645
 6021TIP3   OH218026   3.231   2.813  -0.015
 6021TIP3    H118027   3.286   2.751   0.034
 6021TIP3    H218028   3.151   2.820   0.037
 6022TIP3   OH218029   5.900   5.802   2.899
 6022TIP3    H118030   5.953   5.736   2.854
 6022TIP3    H218031   5.810   5.771   2.889
 6023TIP3   OH218032   3.334   5.155   2.428
 6023TIP3    H118033   3.389   5.077   2.430
 6023TIP3    H218034   3.315   5.168   2.335
 6024TIP3   OH218035   1.055   1.886   5.770
 6024TIP3    H118036   1.084   1.863   5.682
 6024TIP3    H218037   1.035   1.979   5.765
 6025TIP3   OH218038   0.936   6.464   4.931
 6025TIP3    H118039   0.980   6.406   4.992
 6025TIP3    H218040   0.856   6.491   4.977
 6026TIP3   OH218041   0.720   2.316   0.375
 6026TIP3    H118042   0.692   2.289   0.287
 6026TIP3    H218043   0.687   2.405   0.384
 6027TIP3   OH218044   1.974   6.635   2.469
 6027TIP3    H118045   1.918   6.678   2.534
 6027TIP3    H218046   1.919   6.568   2.430
 6028TIP3   OH218047   4.401   2.229   0.638
 6028TIP3    H118048   4.438   2.150   0.601
 6028TIP3    H218049   4.424   2.298   0.577
 6029TIP3   OH218050   7.069   6.563   3.243
 6029TIP3    H118051   7.152   6.570   3.290
 6029TIP3    H218052   7.086   6.501   3.172
 6030TIP3   OH218053   6.518   2.757   3.322
 6030TIP3    H118054   6.437   2.727   3.363
 6030TIP3    H218055   6.587   2.732   3.382
 6031TIP3   OH218056   6.585   2.799   4.395
 6031TIP3    H118057   6.544   2.813   4.481
 6031TIP3    H218058   6.518   2.824   4.332
 6032TIP3   OH218059   2.946   2.775   5.418
 6032TIP3    H118060   3.001   2.849   5.394
 6032TIP3    H218061   2.987   2.699   5.377
 6033TIP3   OH218062   3.286   2.538   3.721
 6033TIP3    H118063   3.314   2.471   3.658
 6033TIP3    H218064   3.225   2.492   3.778
 6034TIP3   OH218065   1.227   1.744   3.589
 6034TIP3    H118066   1.234   1.650   3.605
 6034TIP3    H218067   1.298   1.762   3.527
 6035TIP3   OH218068   5.994   1.196   3.415
 6035TIP3    H118069   5.939   1.127   3.378
 6035TIP3    H218070   5.956   1.213   3.501
 6036TIP3   OH218071   1.201   5.293   5.509
 6036TIP3    H118072   1.134   5.261   5.570
 6036TIP3    H218073   1.284   5.269   5.550
 6037TIP3   OH218074   5.591   4.393   0.284
 6037TIP3    H118075   5.609   4.385   0.190
 6037TIP3    H218076   5.586   4.488   0.299
 6038TIP3   OH218077   3.307   0.738   3.622
 6038TIP3    H118078   3.340   0.717   3.709
 6038TIP3    H218079   3.332   0.664   3.568
 6039TIP3   OH218080   1.595   2.835   2.558
 6039TIP3    H118081   1.591   2.870   2.647
 6039TIP3    H218082   1.626   2.909   2.505
 6040TIP3   OH218083   2.868   2.900   5.851
 6040TIP3    H118084   2.857   2.839   5.778
 6040TIP3    H218085   2.919   2.973   5.814
 6041TIP3   OH218086   3.668   6.749   2.379
 6041TIP3    H118087   3.686   6.842   2.365
 6041TIP3    H218088   3.579   6.747   2.414
 6042TIP3   OH218089   0.460   4.640   3.935
 6042TIP3    H118090   0.454   4.710   4.000
 6042TIP3    H218091   0.476   4.685   3.852
 6043TIP3   OH218092   3.225   1.617   2.887
 6043TIP3    H118093   3.191   1.636   2.975
 6043TIP3    H218094   3.245   1.702   2.850
 6044TIP3   OH218095   5.794   5.347   0.133
 6044TIP3    H118096   5.842   5.311   0.059
 6044TIP3    H218097   5.725   5.401   0.093
 6045TIP3   OH218098   4.460   0.381   5.435
 6045TIP3    H118099   4.444   0.462   5.386
 6045TIP3    H218100   4.477   0.315   5.368
 6046TIP3   OH218101   4.660   3.286   0.580
 6046TIP3    H118102   4.585   3.276   0.639
 6046TIP3    H218103   4.649   3.374   0.542
 6047TIP3   OH218104   6.935   4.760   2.014
 6047TIP3    H118105   6.927   4.683   1.958
 6047TIP3    H218106   7.029   4.769   2.029
 6048TIP3   OH218107   6.380   4.189   4.351
 6048TIP3    H118108   6.371   4.285   4.353
 6048TIP3    H218109   6.338   4.163   4.269
 6049TIP3   OH218110   3.251   1.806   4.462
 6049TIP3    H118111   3.222   1.715   4.457
 6049TIP3    H218112   3.235   1.841   4.374
 6050TIP3   OH218113   0.218   5.429   0.952
 6050TIP3    H118114   0.181   5.511   0.920
 6050TIP3    H218115   0.148   5.389   1.003
 6051TIP3   OH218116   3.531   1.841   2.495
 6051TIP3    H118117   3.626   1.853   2.501
 6051TIP3    H218118   3.501   1.918   2.446
 6052TIP3   OH218119   2.397   0.860   3.396
 6052TIP3    H118120   2.410   0.913   3.317
 6052TIP3    H218121   2.446   0.780   3.378
 6053TIP3   OH218122   5.121   5.260   2.701
 6053TIP3    H118123   5.107   5.236   2.610
 6053TIP3    H218124   5.217   5.256   2.712
 6054TIP3   OH218125   6.222   2.107   1.907
 6054TIP3    H118126   6.195   2.166   1.977
 6054TIP3    H218127   6.305   2.071   1.937
 6055TIP3   OH218128   1.154   1.858   0.424
 6055TIP3    H118129   1.213   1.927   0.455
 6055TIP3    H218130   1.067   1.900   0.424
 6056TIP3   OH218131   3.680   2.282   4.723
 6056TIP3    H118132   3.713   2.198   4.691
 6056TIP3    H218133   3.606   2.258   4.778
 6057TIP3   OH218134   0.299   0.124   0.941
 6057TIP3    H118135   0.224   0.151   0.888
 6057TIP3    H218136   0.343   0.057   0.888
 6058TIP3   OH218137   3.232   3.974   1.901
 6058TIP3    H118138   3.323   3.943   1.902
 6058TIP3    H218139   3.230   4.041   1.834
 6059TIP3   OH218140   5.733   3.367   1.473
 6059TIP3    H118141   5.827   3.368   1.455
 6059TIP3    H218142   5.717   3.283   1.514
 6060TIP3   OH218143   3.379   0.711   5.264
 6060TIP3    H118144   3.358   0.628   5.308
 6060TIP3    H218145   3.384   0.689   5.171
 6061TIP3   OH218146   4.906   4.021   2.050
 6061TIP3    H118147   4.945   4.033   2.136
 6061TIP3    H218148   4.821   4.065   2.055
 6062TIP3   OH218149   2.770   0.320   5.250
 6062TIP3    H118150   2.712   0.392   5.224
 6062TIP3    H218151   2.712   0.244   5.258
 6063TIP3   OH218152   0.926   1.564   5.478
 6063TIP3    H118153   1.014   1.530   5.458
 6063TIP3    H218154   0.879   1.489   5.515
 6064TIP3   OH218155   3.706   4.786   2.248
 6064TIP3    H118156   3.780   4.844   2.229
 6064TIP3    H218157   3.629   4.833   2.215
 6065TIP3   OH218158   5.910   5.540   4.041
 6065TIP3    H118159   5.983   5.478   4.037
 6065TIP3    H218160   5.909   5.582   3.955
 6066TIP3   OH218161   0.040   5.730   2.983
 6066TIP3    H118162  -0.003   5.753   2.901
 6066TIP3    H218163  -0.006   5.783   3.049
 6067TIP3   OH218164   5.144   6.452   3.750
 6067TIP3    H118165   5.153   6.446   3.846
 6067TIP3    H218166   5.232   6.475   3.720
 6068TIP3   OH218167   2.940   2.401   3.444
 6068TIP3    H118168   2.991   2.330   3.404
 6068TIP3    H218169   2.948   2.474   3.383
 6069TIP3   OH218170   2.916   1.863   4.901
 6069TIP3    H118171   2.831   1.906   4.911
 6069TIP3    H218172   2.905   1.806   4.825
 6070TIP3   OH218173   6.785   3.051   2.736
 6070TIP3    H118174   6.873   3.021   2.715
 6070TIP3    H218175   6.776   3.135   2.692
 6071TIP3   OH218176   5.998   4.841   2.984
 6071TIP3    H118177   6.044   4.878   2.909
 6071TIP3    H218178   5.971   4.917   3.035
 6072TIP3   OH218179   0.537   2.450   5.300
 6072TIP3    H118180   0.558   2.540   5.324
 6072TIP3    H218181   0.486   2.416   5.374
 6073TIP3   OH218182   3.254   5.134   3.909
 6073TIP3    H118183   3.193   5.080   3.859
 6073TIP3    H218184   3.326   5.075   3.931
 6074TIP3   OH218185   6.284   4.047   1.463
 6074TIP3    H118186   6.198   4.069   1.429
 6074TIP3    H218187   6.344   4.066   1.391
 6075TIP3   OH218188   4.950   1.932   2.141
 6075TIP3    H118189   5.045   1.946   2.140
 6075TIP3    H218190   4.914   2.008   2.095
 6076TIP3   OH218191   1.255   0.911   3.133
 6076TIP3    H118192   1.291   0.994   3.102
 6076TIP3    H218193   1.275   0.910   3.227
 6077TIP3   OH218194   4.532   4.895   3.799
 6077TIP3    H118195   4.605   4.862   3.851
 6077TIP3    H218196   4.454   4.874   3.850
 6078TIP3   OH218197   5.428   3.103   3.679
 6078TIP3    H118198   5.392   3.167   3.740
 6078TIP3    H218199   5.377   3.023   3.695
 6079TIP3   OH218200   1.428   1.357   1.217
 6079TIP3    H118201   1.428   1.422   1.147
 6079TIP3    H218202   1.360   1.295   1.191
 6080TIP3   OH218203   5.799   6.760   4.249
 6080TIP3    H118204   5.756   6.691   4.300
 6080TIP3    H218205   5.836   6.713   4.173
 6081TIP3   OH218206   0.367   1.814   5.403
 6081TIP3    H118207   0.453   1.850   5.423
 6081TIP3    H218208   0.366   1.806   5.307
 6082TIP3   OH218209   6.865   0.268   0.339
 6082TIP3    H118210   6.796   0.331   0.317
 6082TIP3    H218211   6.863   0.263   0.434
 6083TIP3   OH218212   5.823   3.399   5.722
 6083TIP3    H118213   5.758   3.411   5.792
 6083TIP3    H218214   5.861   3.485   5.709
 6084TIP3   OH218215   2.348   4.993   5.037
 6084TIP3    H118216   2.404   5.053   4.988
 6084TIP3    H218217   2.305   5.048   5.103
 6085TIP3   OH218218   5.818   6.698   0.285
 6085TIP3    H118219   5.808   6.648   0.204
 6085TIP3    H218220   5.805   6.789   0.258
 6086TIP3   OH218221   7.109   6.461   5.025
 6086TIP3    H118222   7.070   6.539   4.985
 6086TIP3    H218223   7.145   6.412   4.952
 6087TIP3   OH218224   2.406   5.509   2.709
 6087TIP3    H118225   2.395   5.589   2.760
 6087TIP3    H218226   2.374   5.532   2.622
 6088TIP3   OH218227   5.710   1.840   0.679
 6088TIP3    H118228   5.764   1.878   0.749
 6088TIP3    H218229   5.634   1.898   0.674
 6089TIP3   OH218230   5.824   6.381   0.881
 6089TIP3    H118231   5.744   6.329   0.881
 6089TIP3    H218232   5.871   6.352   0.803
 6090TIP3   OH218233   3.931   5.329   1.714
 6090TIP3    H118234   3.843   5.340   1.677
 6090TIP3    H218235   3.988   5.318   1.638
 6091TIP3   OH218236   3.766   0.366   5.029
 6091TIP3    H118237   3.825   0.427   4.987
 6091TIP3    H218238   3.786   0.281   4.988
 6092TIP3   OH218239   2.394   1.831   5.251
 6092TIP3    H118240   2.305   1.836   5.218
 6092TIP3    H218241   2.420   1.922   5.265
 6093TIP3   OH218242   2.154   1.852   5.851
 6093TIP3    H118243   2.148   1.797   5.774
 6093TIP3    H218244   2.235   1.902   5.839
 6094TIP3   OH218245   6.289   3.186   4.553
 6094TIP3    H118246   6.311   3.096   4.577
 6094TIP3    H218247   6.214   3.208   4.608
 6095TIP3   OH218248   4.288   6.285   2.371
 6095TIP3    H118249   4.273   6.371   2.410
 6095TIP3    H218250   4.364   6.251   2.418
 6096TIP3   OH218251   1.761   0.837   2.421
 6096TIP3    H118252   1.732   0.894   2.350
 6096TIP3    H218253   1.803   0.764   2.376
 6097TIP3   OH218254   0.146   6.555   4.784
 6097TIP3    H118255   0.079   6.623   4.790
 6097TIP3    H218256   0.216   6.595   4.732
 6098TIP3   OH218257   4.744   0.797   3.036
 6098TIP3    H118258   4.794   0.717   3.024
 6098TIP3    H218259   4.713   0.820   2.948
 6099TIP3   OH218260   2.600   5.763   1.447
 6099TIP3    H118261   2.535   5.693   1.441
 6099TIP3    H218262   2.676   5.729   1.399
 6100TIP3   OH218263   1.508   3.732   2.241
 6100TIP3    H118264   1.435   3.737   2.179
 6100TIP3    H218265   1.498   3.646   2.283
 6101TIP3   OH218266   3.269   2.414   0.725
 6101TIP3    H118267   3.248   2.391   0.635
 6101TIP3    H218268   3.331   2.347   0.753
 6102TIP3   OH218269   2.966   5.485   2.971
 6102TIP3    H118270   2.951   5.429   2.895
 6102TIP3    H218271   2.898   5.551   2.967
 6103TIP3   OH218272   1.828   2.249   2.197
 6103TIP3    H118273   1.858   2.170   2.242
 6103TIP3    H218274   1.890   2.317   2.224
 6104TIP3   OH218275   4.250   0.249   2.332
 6104TIP3    H118276   4.216   0.200   2.406
 6104TIP3    H218277   4.216   0.203   2.255
 6105TIP3   OH218278   3.119   5.838   2.730
 6105TIP3    H118279   3.166   5.793   2.660
 6105TIP3    H218280   3.141   5.788   2.809
 6106TIP3   OH218281   1.235   2.896   2.994
 6106TIP3    H118282   1.170   2.939   2.937
 6106TIP3    H218283   1.319   2.911   2.950
 6107TIP3   OH218284   5.362   5.809   3.757
 6107TIP3    H118285   5.444   5.788   3.801
 6107TIP3    H218286   5.293   5.781   3.817
 6108TIP3   OH218287   3.087   5.217   3.555
 6108TIP3    H118288   2.995   5.241   3.570
 6108TIP3    H218289   3.135   5.299   3.569
 6109TIP3   OH218290   1.043   6.089   2.916
 6109TIP3    H118291   0.987   6.013   2.933
 6109TIP3    H218292   0.983   6.163   2.914
 6110TIP3   OH218293   3.202   4.731   3.448
 6110TIP3    H118294   3.270   4.670   3.476
 6110TIP3    H218295   3.151   4.682   3.383
 6111TIP3   OH218296   3.122   6.188   3.881
 6111TIP3    H118297   3.179   6.158   3.809
 6111TIP3    H218298   3.133   6.284   3.881
 6112TIP3   OH218299   4.353   3.393   0.085
 6112TIP3    H118300   4.359   3.396  -0.010
 6112TIP3    H218301   4.342   3.485   0.110
 6113TIP3   OH218302   1.666   6.436   0.719
 6113TIP3    H118303   1.631   6.439   0.808
 6113TIP3    H218304   1.593   6.407   0.665
 6114TIP3   OH218305   5.947   5.159   2.086
 6114TIP3    H118306   6.005   5.086   2.061
 6114TIP3    H218307   5.956   5.222   2.015
 6115TIP3   OH218308   5.420   3.669   5.173
 6115TIP3    H118309   5.347   3.664   5.111
 6115TIP3    H218310   5.413   3.756   5.211
 6116TIP3   OH218311   0.275   4.239   2.901
 6116TIP3    H118312   0.328   4.300   2.953
 6116TIP3    H218313   0.191   4.234   2.947
 6117TIP3   OH218314   4.892   4.417   5.893
 6117TIP3    H118315   4.857   4.349   5.836
 6117TIP3    H218316   4.837   4.493   5.876
 6118TIP3   OH218317   2.062   2.397   5.058
 6118TIP3    H118318   2.115   2.362   4.987
 6118TIP3    H218319   2.082   2.490   5.060
 6119TIP3   OH218320   1.732   3.389   2.077
 6119TIP3    H118321   1.765   3.448   2.009
 6119TIP3    H218322   1.662   3.340   2.033
 6120TIP3   OH218323   5.750   3.979   3.992
 6120TIP3    H118324   5.799   3.942   4.066
 6120TIP3    H218325   5.801   4.055   3.966
 6121TIP3   OH218326   5.347   1.483   2.381
 6121TIP3    H118327   5.352   1.490   2.477
 6121TIP3    H218328   5.439   1.473   2.354
 6122TIP3   OH218329   4.430   3.901   4.689
 6122TIP3    H118330   4.469   3.917   4.775
 6122TIP3    H218331   4.385   3.982   4.667
 6123TIP3   OH218332   3.376   0.189   1.676
 6123TIP3    H118333   3.299   0.235   1.710
 6123TIP3    H218334   3.405   0.244   1.603
 6124TIP3   OH218335   1.652   5.104   2.290
 6124TIP3    H118336   1.653   5.009   2.283
 6124TIP3    H218337   1.720   5.133   2.229
 6125TIP3   OH218338   1.191   1.377   2.948
 6125TIP3    H118339   1.233   1.459   2.920
 6125TIP3    H218340   1.140   1.350   2.872
 6126TIP3   OH218341   3.218   3.541   1.277
 6126TIP3    H118342   3.312   3.557   1.283
 6126TIP3    H218343   3.178   3.624   1.302
 6127TIP3   OH218344   3.148   0.313   1.766
 6127TIP3    H118345   3.126   0.239   1.823
 6127TIP3    H218346   3.092   0.301   1.689
 6128TIP3   OH218347   4.080   0.436   2.703
 6128TIP3    H118348   4.051   0.508   2.759
 6128TIP3    H218349   4.129   0.480   2.633
 6129TIP3   OH218350   5.212   5.676   3.957
 6129TIP3    H118351   5.175   5.700   4.042
 6129TIP3    H218352   5.158   5.604   3.926
 6130TIP3   OH218353   1.152   3.983   0.149
 6130TIP3    H118354   1.200   3.983   0.233
 6130TIP3    H218355   1.060   3.979   0.174
 6131TIP3   OH218356   4.288   6.117   5.398
 6131TIP3    H118357   4.297   6.189   5.335
 6131TIP3    H218358   4.363   6.126   5.456
 6132TIP3   OH218359   4.598   5.889   4.034
 6132TIP3    H118360   4.646   5.822   3.986
 6132TIP3    H218361   4.525   5.912   3.976
 6133TIP3   OH218362   5.298   2.850   3.698
 6133TIP3    H118363   5.309   2.760   3.666
 6133TIP3    H218364   5.241   2.840   3.775
 6134TIP3   OH218365   0.620   0.821   2.299
 6134TIP3    H118366   0.687   0.875   2.257
 6134TIP3    H218367   0.561   0.885   2.341
 6135TIP3   OH218368   5.601   1.704   2.568
 6135TIP3    H118369   5.650   1.785   2.555
 6135TIP3    H218370   5.510   1.733   2.575
 6136TIP3   OH218371   5.327   5.486   4.316
 6136TIP3    H118372   5.282   5.412   4.276
 6136TIP3    H218373   5.318   5.473   4.410
 6137TIP3   OH218374   0.130   5.783   5.867
 6137TIP3    H118375   0.073   5.735   5.927
 6137TIP3    H218376   0.212   5.734   5.868
 6138TIP3   OH218377   0.445   3.263   1.274
 6138TIP3    H118378   0.491   3.220   1.202
 6138TIP3    H218379   0.403   3.339   1.233
 6139TIP3   OH218380   3.037   5.373   4.793
 6139TIP3    H118381   3.005   5.328   4.871
 6139TIP3    H218382   2.967   5.361   4.728
 6140TIP3   OH218383   3.571   2.334   3.014
 6140TIP3    H118384   3.518   2.384   3.076
 6140TIP3    H218385   3.607   2.262   3.066
 6141TIP3   OH218386   1.682   4.007   0.992
 6141TIP3    H118387   1.617   4.011   1.063
 6141TIP3    H218388   1.675   4.092   0.948
 6142TIP3   OH218389   1.499   1.419   0.313
 6142TIP3    H118390   1.587   1.454   0.332
 6142TIP3    H218391   1.448   1.440   0.391
 6143TIP3   OH218392   4.249   3.508   1.677
 6143TIP3    H118393   4.323   3.543   1.726
 6143TIP3    H218394   4.287   3.472   1.597
 6144TIP3   OH218395   6.710   0.321   5.838
 6144TIP3    H118396   6.800   0.348   5.820
 6144TIP3    H218397   6.713   0.226   5.841
 6145TIP3   OH218398   3.061   0.026   3.715
 6145TIP3    H118399   3.049   0.058   3.804
 6145TIP3    H218400   3.143  -0.024   3.719
 6146TIP3   OH218401   4.390   4.098   0.423
 6146TIP3    H118402   4.330   4.116   0.351
 6146TIP3    H218403   4.403   4.182   0.466
 6147TIP3   OH218404   2.891   1.308   3.604
 6147TIP3    H118405   2.924   1.296   3.515
 6147TIP3    H218406   2.799   1.332   3.593
 6148TIP3   OH218407   0.829   3.406   0.813
 6148TIP3    H118408   0.784   3.330   0.775
 6148TIP3    H218409   0.896   3.368   0.869
 6149TIP3   OH218410   4.715   3.286   2.631
 6149TIP3    H118411   4.785   3.342   2.596
 6149TIP3    H218412   4.651   3.348   2.666
 6150TIP3   OH218413   5.020   3.505   3.774
 6150TIP3    H118414   5.079   3.486   3.847
 6150TIP3    H218415   4.995   3.419   3.739
 6151TIP3   OH218416   7.019   4.132   5.606
 6151TIP3    H118417   7.082   4.203   5.597
 6151TIP3    H218418   7.004   4.126   5.700
 6152TIP3   OH218419   0.557   0.456   0.011
 6152TIP3    H118420   0.536   0.545  -0.021
 6152TIP3    H218421   0.546   0.462   0.106
 6153TIP3   OH218422   2.783   0.098   2.379
 6153TIP3    H118423   2.719   0.046   2.331
 6153TIP3    H218424   2.838   0.033   2.423
 6154TIP3   OH218425   1.102   1.125   2.796
 6154TIP3    H118426   1.175   1.160   2.745
 6154TIP3    H218427   1.130   1.036   2.820
 6155TIP3   OH218428   6.928   1.912   4.781
 6155TIP3    H118429   7.000   1.975   4.783
 6155TIP3    H218430   6.960   1.840   4.726
 6156TIP3   OH218431   4.921   2.444   5.261
 6156TIP3    H118432   4.972   2.454   5.180
 6156TIP3    H218433   4.983   2.465   5.331
 6157TIP3   OH218434   6.482   5.128   3.325
 6157TIP3    H118435   6.458   5.209   3.372
 6157TIP3    H218436   6.574   5.141   3.302
 6158TIP3   OH218437   0.103   5.859   1.069
 6158TIP3    H118438   0.117   5.871   1.163
 6158TIP3    H218439   0.166   5.792   1.044
 6159TIP3   OH218440   1.393   2.953   3.339
 6159TIP3    H118441   1.481   2.932   3.309
 6159TIP3    H218442   1.364   2.874   3.385
 6160TIP3   OH218443   4.431   4.364   0.427
 6160TIP3    H118444   4.471   4.447   0.451
 6160TIP3    H218445   4.367   4.387   0.360
 6161TIP3   OH218446   4.088   5.364   4.373
 6161TIP3    H118447   4.007   5.328   4.336
 6161TIP3    H218448   4.101   5.447   4.327
 6162TIP3   OH218449   7.177   1.582   2.041
 6162TIP3    H118450   7.182   1.558   1.948
 6162TIP3    H218451   7.257   1.545   2.080
 6163TIP3   OH218452   3.955   6.063   1.438
 6163TIP3    H118453   3.964   6.137   1.379
 6163TIP3    H218454   3.998   5.990   1.393
 6164TIP3   OH218455   5.918   1.363   4.873
 6164TIP3    H118456   5.857   1.329   4.938
 6164TIP3    H218457   5.927   1.293   4.809
 6165TIP3   OH218458   2.313   4.203   4.340
 6165TIP3    H118459   2.328   4.232   4.250
 6165TIP3    H218460   2.247   4.264   4.374
 6166TIP3   OH218461   0.183   6.089   0.548
 6166TIP3    H118462   0.200   6.172   0.504
 6166TIP3    H218463   0.230   6.095   0.631
 6167TIP3   OH218464   4.659   1.402   0.273
 6167TIP3    H118465   4.701   1.470   0.220
 6167TIP3    H218466   4.700   1.320   0.244
 6168TIP3   OH218467   2.763   4.081   2.515
 6168TIP3    H118468   2.813   4.043   2.443
 6168TIP3    H218469   2.782   4.025   2.590
 6169TIP3   OH218470   3.622   1.791   5.587
 6169TIP3    H118471   3.640   1.855   5.519
 6169TIP3    H218472   3.558   1.732   5.549
 6170TIP3   OH218473   4.492   3.326   5.459
 6170TIP3    H118474   4.409   3.308   5.504
 6170TIP3    H218475   4.469   3.389   5.391
 6171TIP3   OH218476   5.732   6.074   4.178
 6171TIP3    H118477   5.763   6.134   4.246
 6171TIP3    H218478   5.636   6.079   4.185
 6172TIP3   OH218479   4.325   6.767   0.749
 6172TIP3    H118480   4.383   6.796   0.819
 6172TIP3    H218481   4.379   6.770   0.670
 6173TIP3   OH218482   4.543   0.417   0.080
 6173TIP3    H118483   4.601   0.376   0.145
 6173TIP3    H218484   4.601   0.464   0.021
 6174TIP3   OH218485   6.299   0.386   3.762
 6174TIP3    H118486   6.233   0.448   3.792
 6174TIP3    H218487   6.378   0.439   3.751
 6175TIP3   OH218488   2.414   5.771   2.801
 6175TIP3    H118489   2.335   5.823   2.814
 6175TIP3    H218490   2.471   5.795   2.874
 6176TIP3   OH218491   4.713   1.721   3.221
 6176TIP3    H118492   4.706   1.809   3.184
 6176TIP3    H218493   4.676   1.663   3.154
 6177TIP3   OH218494   6.954   3.475   3.836
 6177TIP3    H118495   7.044   3.495   3.859
 6177TIP3    H218496   6.958   3.439   3.747
 6178TIP3   OH218497   2.902   2.999   4.356
 6178TIP3    H118498   2.923   2.968   4.444
 6178TIP3    H218499   2.946   2.937   4.298
 6179TIP3   OH218500   1.399   1.117   5.093
 6179TIP3    H118501   1.474   1.171   5.070
 6179TIP3    H218502   1.418   1.032   5.054
 6180TIP3   OH218503   2.332   0.854   4.415
 6180TIP3    H118504   2.300   0.771   4.451
 6180TIP3    H218505   2.313   0.919   4.483
 6181TIP3   OH218506   6.345   5.633   5.756
 6181TIP3    H118507   6.407   5.626   5.683
 6181TIP3    H218508   6.259   5.621   5.715
 6182TIP3   OH218509   6.232   6.118   0.245
 6182TIP3    H118510   6.175   6.144   0.318
 6182TIP3    H218511   6.205   6.028   0.225
 6183TIP3   OH218512   4.317   2.006   1.278
 6183TIP3    H118513   4.247   2.057   1.319
 6183TIP3    H218514   4.289   1.997   1.187
 6184TIP3   OH218515   1.358   4.855   2.840
 6184TIP3    H118516   1.445   4.891   2.858
 6184TIP3    H218517   1.374   4.785   2.776
 6185TIP3   OH218518   5.989   3.965   5.829
 6185TIP3    H118519   6.024   3.970   5.918
 6185TIP3    H218520   5.928   4.038   5.823
 6186TIP3   OH218521   6.212   1.678   5.310
 6186TIP3    H118522   6.282   1.723   5.358
 6186TIP3    H218523   6.138   1.738   5.315
 6187TIP3   OH218524   2.161   5.328   2.862
 6187TIP3    H118525   2.171   5.376   2.780
 6187TIP3    H218526   2.069   5.302   2.864
 6188TIP3   OH218527   6.841   6.307   0.903
 6188TIP3    H118528   6.913   6.247   0.883
 6188TIP3    H218529   6.877   6.368   0.967
 6189TIP3   OH218530   4.461   3.676   3.168
 6189TIP3    H118531   4.489   3.767   3.179
 6189TIP3    H218532   4.541   3.625   3.182
 6190TIP3   OH218533   4.021   6.012   1.078
 6190TIP3    H118534   3.935   5.971   1.084
 6190TIP3    H218535   4.003   6.105   1.072
 6191TIP3   OH218536   4.320   3.047   0.434
 6191TIP3    H118537   4.269   3.049   0.353
 6191TIP3    H218538   4.356   3.136   0.442
 6192TIP3   OH218539   6.315   5.926   5.107
 6192TIP3    H118540   6.384   5.960   5.050
 6192TIP3    H218541   6.239   5.918   5.050
 6193TIP3   OH218542   5.264   5.489   1.607
 6193TIP3    H118543   5.177   5.460   1.633
 6193TIP3    H218544   5.249   5.572   1.560
 6194TIP3   OH218545   1.305   0.375   0.442
 6194TIP3    H118546   1.245   0.412   0.377
 6194TIP3    H218547   1.333   0.451   0.494
 6195TIP3   OH218548   5.831   1.467   3.154
 6195TIP3    H118549   5.925   1.475   3.140
 6195TIP3    H218550   5.805   1.549   3.196
 6196TIP3   OH218551   3.702   5.975   1.754
 6196TIP3    H118552   3.646   6.037   1.801
 6196TIP3    H218553   3.653   5.893   1.755
 6197TIP3   OH218554   4.408   4.948   4.494
 6197TIP3    H118555   4.416   4.886   4.422
 6197TIP3    H218556   4.345   5.013   4.463
 6198TIP3   OH218557   5.289   2.924   1.740
 6198TIP3    H118558   5.350   2.996   1.723
 6198TIP3    H218559   5.321   2.884   1.821
 6199TIP3   OH218560   5.763   3.114   4.358
 6199TIP3    H118561   5.683   3.165   4.369
 6199TIP3    H218562   5.756   3.079   4.269
 6200TIP3   OH218563   4.975   4.065   0.994
 6200TIP3    H118564   4.998   4.126   1.064
 6200TIP3    H218565   4.961   4.120   0.918
 6201TIP3   OH218566   5.553   2.894   4.999
 6201TIP3    H118567   5.572   2.872   4.908
 6201TIP3    H218568   5.627   2.948   5.026
 6202TIP3   OH218569   1.290   4.536   2.119
 6202TIP3    H118570   1.271   4.484   2.197
 6202TIP3    H218571   1.240   4.493   2.050
 6203TIP3   OH218572   0.441   5.639   5.511
 6203TIP3    H118573   0.371   5.702   5.523
 6203TIP3    H218574   0.522   5.690   5.518
 6204TIP3   OH218575   4.800   5.145   3.767
 6204TIP3    H118576   4.870   5.203   3.795
 6204TIP3    H218577   4.737   5.147   3.839
 6205TIP3   OH218578   2.870   2.993   2.920
 6205TIP3    H118579   2.861   2.973   3.013
 6205TIP3    H218580   2.912   2.915   2.883
 6206TIP3   OH218581   0.852   0.139   1.984
 6206TIP3    H118582   0.838   0.073   2.052
 6206TIP3    H218583   0.901   0.209   2.028
 6207TIP3   OH218584   3.411   3.502   5.785
 6207TIP3    H118585   3.334   3.559   5.777
 6207TIP3    H218586   3.446   3.522   5.871
 6208TIP3   OH218587   5.546   4.156   3.960
 6208TIP3    H118588   5.616   4.091   3.965
 6208TIP3    H218589   5.504   4.139   3.875
 6209TIP3   OH218590   1.087   5.513   4.813
 6209TIP3    H118591   1.149   5.578   4.846
 6209TIP3    H218592   1.027   5.563   4.758
 6210TIP3   OH218593   1.030   3.804   1.433
 6210TIP3    H118594   0.967   3.783   1.364
 6210TIP3    H218595   1.099   3.853   1.388
 6211TIP3   OH218596   7.109   0.122   5.015
 6211TIP3    H118597   7.042   0.084   5.072
 6211TIP3    H218598   7.125   0.054   4.949
 6212TIP3   OH218599   5.603   1.517   3.550
 6212TIP3    H118600   5.582   1.556   3.635
 6212TIP3    H218601   5.530   1.541   3.494
 6213TIP3   OH218602   6.820   6.300   0.077
 6213TIP3    H118603   6.785   6.241   0.144
 6213TIP3    H218604   6.914   6.307   0.098
 6214TIP3   OH218605   1.375   2.971   2.136
 6214TIP3    H118606   1.393   2.904   2.202
 6214TIP3    H218607   1.397   3.053   2.179
 6215TIP3   OH218608   1.640   1.281   0.881
 6215TIP3    H118609   1.586   1.360   0.873
 6215TIP3    H218610   1.658   1.255   0.790
 6216TIP3   OH218611   1.041   4.236   2.211
 6216TIP3    H118612   0.972   4.276   2.264
 6216TIP3    H218613   1.024   4.142   2.216
 6217TIP3   OH218614   2.202   0.793   2.420
 6217TIP3    H118615   2.287   0.832   2.438
 6217TIP3    H218616   2.165   0.774   2.506
 6218TIP3   OH218617   4.144   5.785   4.596
 6218TIP3    H118618   4.195   5.721   4.547
 6218TIP3    H218619   4.191   5.867   4.586
 6219TIP3   OH218620   6.402   4.277   0.425
 6219TIP3    H118621   6.335   4.224   0.467
 6219TIP3    H218622   6.467   4.293   0.493
 6220TIP3   OH218623   4.047   6.334   3.390
 6220TIP3    H118624   4.053   6.245   3.426
 6220TIP3    H218625   4.118   6.382   3.433
 6221TIP3   OH218626   6.673   4.996   3.605
 6221TIP3    H118627   6.736   4.929   3.631
 6221TIP3    H218628   6.661   5.050   3.682
 6222TIP3   OH218629   2.047   6.261   3.969
 6222TIP3    H118630   2.127   6.236   4.015
 6222TIP3    H218631   2.064   6.242   3.877
 6223TIP3   OH218632   2.001   2.096   0.747
 6223TIP3    H118633   1.990   2.067   0.838
 6223TIP3    H218634   1.961   2.183   0.746
 6224TIP3   OH218635   5.189   6.511   1.618
 6224TIP3    H118636   5.257   6.564   1.660
 6224TIP3    H218637   5.155   6.456   1.688
 6225TIP3   OH218638   5.037   5.746   1.573
 6225TIP3    H118639   4.955   5.711   1.538
 6225TIP3    H218640   5.021   5.840   1.582
 6226TIP3   OH218641   1.962   6.792   0.644
 6226TIP3    H118642   2.016   6.714   0.653
 6226TIP3    H218643   2.016   6.854   0.594
 6227TIP3   OH218644   2.285   0.350   4.172
 6227TIP3    H118645   2.236   0.367   4.092
 6227TIP3    H218646   2.339   0.428   4.185
 6228TIP3   OH218647   4.077   1.987   2.455
 6228TIP3    H118648   4.016   1.995   2.382
 6228TIP3    H218649   4.095   1.893   2.461
 6229TIP3   OH218650   4.402   5.897   2.330
 6229TIP3    H118651   4.403   5.923   2.422
 6229TIP3    H218652   4.488   5.859   2.314
 6230TIP3   OH218653   4.370   2.046   5.415
 6230TIP3    H118654   4.425   2.089   5.350
 6230TIP3    H218655   4.394   1.953   5.409
 6231TIP3   OH218656   3.938   4.224   5.757
 6231TIP3    H118657   3.974   4.138   5.733
 6231TIP3    H218658   3.972   4.283   5.690
 6232TIP3   OH218659   6.206   4.884   0.273
 6232TIP3    H118660   6.289   4.902   0.229
 6232TIP3    H218661   6.231   4.847   0.358
 6233TIP3   OH218662   2.641   3.981   0.044
 6233TIP3    H118663   2.649   3.958   0.137
 6233TIP3    H218664   2.717   3.939   0.003
 6234TIP3   OH218665   5.873   2.441   5.771
 6234TIP3    H118666   5.944   2.491   5.810
 6234TIP3    H218667   5.795   2.495   5.785
 6235TIP3   OH218668   5.960   6.229   4.662
 6235TIP3    H118669   6.037   6.276   4.694
 6235TIP3    H218670   5.925   6.186   4.740
 6236TIP3   OH218671   1.196   2.913   2.487
 6236TIP3    H118672   1.126   2.917   2.422
 6236TIP3    H218673   1.266   2.865   2.444
 6237TIP3   OH218674   3.181   4.242   0.774
 6237TIP3    H118675   3.130   4.255   0.854
 6237TIP3    H218676   3.130   4.179   0.723
 6238TIP3   OH218677   5.870   2.415   5.427
 6238TIP3    H118678   5.884   2.395   5.334
 6238TIP3    H218679   5.957   2.433   5.462
 6239TIP3   OH218680   2.287   3.501   4.274
 6239TIP3    H118681   2.237   3.425   4.247
 6239TIP3    H218682   2.279   3.563   4.201
 6240TIP3   OH218683   0.896   5.955   1.281
 6240TIP3    H118684   0.912   5.993   1.367
 6240TIP3    H218685   0.821   5.896   1.294
 6241TIP3   OH218686   6.153   4.279   5.784
 6241TIP3    H118687   6.230   4.322   5.746
 6241TIP3    H218688   6.190   4.214   5.844
 6242TIP3   OH218689   6.353   6.410   5.105
 6242TIP3    H118690   6.341   6.502   5.128
 6242TIP3    H218691   6.415   6.411   5.032
 6243TIP3   OH218692   6.487   3.495   2.474
 6243TIP3    H118693   6.478   3.528   2.563
 6243TIP3    H218694   6.399   3.464   2.451
 6244TIP3   OH218695   3.724   1.719   3.741
 6244TIP3    H118696   3.815   1.707   3.768
 6244TIP3    H218697   3.705   1.811   3.763
 6245TIP3   OH218698   2.279   4.930   5.551
 6245TIP3    H118699   2.238   4.872   5.615
 6245TIP3    H218700   2.321   4.871   5.488
 6246TIP3   OH218701   3.184   2.328   3.861
 6246TIP3    H118702   3.193   2.354   3.953
 6246TIP3    H218703   3.174   2.233   3.864
 6247TIP3   OH218704   2.540   2.430   0.783
 6247TIP3    H118705   2.447   2.447   0.772
 6247TIP3    H218706   2.546   2.366   0.853
 6248TIP3   OH218707   2.177   0.566   4.427
 6248TIP3    H118708   2.088   0.568   4.463
 6248TIP3    H218709   2.164   0.558   4.333
 6249TIP3   OH218710   6.227   2.482   5.289
 6249TIP3    H118711   6.317   2.452   5.291
 6249TIP3    H218712   6.200   2.483   5.382
 6250TIP3   OH218713   5.046   6.391   0.194
 6250TIP3    H118714   5.084   6.472   0.160
 6250TIP3    H218715   4.978   6.367   0.131
 6251TIP3   OH218716   0.095   2.894   0.236
 6251TIP3    H118717   0.023   2.895   0.173
 6251TIP3    H218718   0.129   2.983   0.235
 6252TIP3   OH218719   6.425   5.618   4.539
 6252TIP3    H118720   6.376   5.627   4.621
 6252TIP3    H218721   6.369   5.657   4.472
 6253TIP3   OH218722   2.658   5.250   4.155
 6253TIP3    H118723   2.571   5.279   4.129
 6253TIP3    H218724   2.676   5.175   4.099
 6254TIP3   OH218725   4.607   4.492   5.479
 6254TIP3    H118726   4.525   4.513   5.434
 6254TIP3    H218727   4.579   4.446   5.558
 6255TIP3   OH218728   5.658   5.082   2.078
 6255TIP3    H118729   5.750   5.090   2.103
 6255TIP3    H218730   5.616   5.042   2.154
 6256TIP3   OH218731   4.029   4.878   4.214
 6256TIP3    H118732   4.079   4.944   4.261
 6256TIP3    H218733   4.026   4.803   4.275
 6257TIP3   OH218734   7.032   0.052   1.276
 6257TIP3    H118735   7.112   0.044   1.328
 6257TIP3    H218736   7.001   0.141   1.293
 6258TIP3   OH218737   0.368   0.382   0.686
 6258TIP3    H118738   0.442   0.331   0.654
 6258TIP3    H218739   0.296   0.319   0.693
 6259TIP3   OH218740   5.232   0.357   5.090
 6259TIP3    H118741   5.327   0.361   5.078
 6259TIP3    H218742   5.208   0.269   5.063
 6260TIP3   OH218743   6.508   1.041   5.415
 6260TIP3    H118744   6.415   1.020   5.403
 6260TIP3    H218745   6.546   0.962   5.453
 6261TIP3   OH218746   3.261   1.230   1.175
 6261TIP3    H118747   3.169   1.235   1.148
 6261TIP3    H218748   3.310   1.244   1.095
 6262TIP3   OH218749   6.508   5.947   3.898
 6262TIP3    H118750   6.495   5.876   3.960
 6262TIP3    H218751   6.547   6.017   3.951
 6263TIP3   OH218752   7.071   1.186   2.287
 6263TIP3    H118753   7.071   1.095   2.317
 6263TIP3    H218754   7.127   1.185   2.209
 6264TIP3   OH218755   1.041   2.187   0.614
 6264TIP3    H118756   1.135   2.173   0.623
 6264TIP3    H218757   1.021   2.161   0.524
 6265TIP3   OH218758   6.194   3.036   5.648
 6265TIP3    H118759   6.265   3.089   5.684
 6265TIP3    H218760   6.131   3.030   5.720
 6266TIP3   OH218761   6.995   2.414   0.612
 6266TIP3    H118762   6.997   2.483   0.546
 6266TIP3    H218763   7.085   2.380   0.615
 6267TIP3   OH218764   4.118   6.667   5.340
 6267TIP3    H118765   4.064   6.747   5.333
 6267TIP3    H218766   4.163   6.661   5.256
 6268TIP3   OH218767   5.783   1.048   5.730
 6268TIP3    H118768   5.688   1.055   5.745
 6268TIP3    H218769   5.811   1.138   5.713
 6269TIP3   OH218770   6.216   5.847   1.719
 6269TIP3    H118771   6.309   5.861   1.737
 6269TIP3    H218772   6.177   5.935   1.720
 6270TIP3   OH218773   5.160   0.939   5.408
 6270TIP3    H118774   5.174   0.938   5.502
 6270TIP3    H218775   5.248   0.945   5.371
 6271TIP3   OH218776   6.934   3.868   4.838
 6271TIP3    H118777   6.887   3.950   4.825
 6271TIP3    H218778   6.927   3.851   4.932
 6272TIP3   OH218779   5.280   0.644   4.880
 6272TIP3    H118780   5.322   0.686   4.955
 6272TIP3    H218781   5.352   0.606   4.830
 6273TIP3   OH218782   6.545   5.631   3.202
 6273TIP3    H118783   6.550   5.679   3.120
 6273TIP3    H218784   6.536   5.699   3.269
 6274TIP3   OH218785   1.239   4.062   1.153
 6274TIP3    H118786   1.153   4.059   1.112
 6274TIP3    H218787   1.221   4.071   1.247
 6275TIP3   OH218788   6.359   2.968   4.318
 6275TIP3    H118789   6.281   2.950   4.265
 6275TIP3    H218790   6.337   3.048   4.366
 6276TIP3   OH218791   4.438   6.355   1.242
 6276TIP3    H118792   4.441   6.360   1.338
 6276TIP3    H218793   4.368   6.415   1.217
 6277TIP3   OH218794   1.120   1.611   4.968
 6277TIP3    H118795   1.147   1.703   4.962
 6277TIP3    H218796   1.200   1.562   4.949
 6278TIP3   OH218797   6.424   2.227   3.305
 6278TIP3    H118798   6.480   2.293   3.348
 6278TIP3    H218799   6.467   2.210   3.222
 6279TIP3   OH218800   0.657   5.938   2.627
 6279TIP3    H118801   0.735   5.993   2.639
 6279TIP3    H218802   0.634   5.949   2.535
 6280TIP3   OH218803   4.521   5.879   4.336
 6280TIP3    H118804   4.463   5.881   4.260
 6280TIP3    H218805   4.600   5.925   4.306
 6281TIP3   OH218806   6.313   0.381   3.115
 6281TIP3    H118807   6.306   0.441   3.190
 6281TIP3    H218808   6.396   0.404   3.075
 6282TIP3   OH218809   6.422   5.844   1.208
 6282TIP3    H118810   6.414   5.896   1.128
 6282TIP3    H218811   6.349   5.782   1.204
 6283TIP3   OH218812   2.700   1.918   0.361
 6283TIP3    H118813   2.617   1.952   0.327
 6283TIP3    H218814   2.741   1.877   0.285
 6284TIP3   OH218815   5.419   1.529   5.619
 6284TIP3    H118816   5.410   1.451   5.674
 6284TIP3    H218817   5.400   1.498   5.531
 6285TIP3   OH218818   5.184   2.141   5.060
 6285TIP3    H118819   5.178   2.235   5.081
 6285TIP3    H218820   5.270   2.131   5.020
 6286TIP3   OH218821   5.421   4.484   2.301
 6286TIP3    H118822   5.444   4.471   2.209
 6286TIP3    H218823   5.452   4.405   2.345
 6287TIP3   OH218824   4.616   6.632   2.249
 6287TIP3    H118825   4.596   6.538   2.243
 6287TIP3    H218826   4.700   6.635   2.296
 6288TIP3   OH218827   1.896   1.256   2.706
 6288TIP3    H118828   1.867   1.339   2.667
 6288TIP3    H218829   1.890   1.193   2.634
 6289TIP3   OH218830   3.294   1.050   5.453
 6289TIP3    H118831   3.355   1.117   5.424
 6289TIP3    H218832   3.244   1.028   5.375
 6290TIP3   OH218833   4.021   2.573   4.616
 6290TIP3    H118834   3.936   2.532   4.636
 6290TIP3    H218835   4.031   2.641   4.683
 6291TIP3   OH218836   5.744   5.569   5.162
 6291TIP3    H118837   5.775   5.539   5.076
 6291TIP3    H218838   5.791   5.515   5.225
 6292TIP3   OH218839   6.729   6.225   4.576
 6292TIP3    H118840   6.651   6.173   4.555
 6292TIP3    H218841   6.731   6.227   4.672
 6293TIP3   OH218842   0.222   6.603   0.824
 6293TIP3    H118843   0.203   6.600   0.918
 6293TIP3    H218844   0.189   6.688   0.795
 6294TIP3   OH218845   1.634   3.022   2.344
 6294TIP3    H118846   1.692   3.056   2.412
 6294TIP3    H218847   1.558   3.081   2.347
 6295TIP3   OH218848   6.520   0.262   4.116
 6295TIP3    H118849   6.562   0.260   4.203
 6295TIP3    H218850   6.587   0.229   4.057
 6296TIP3   OH218851   0.669   5.279   1.580
 6296TIP3    H118852   0.637   5.368   1.593
 6296TIP3    H218853   0.592   5.223   1.596
 6297TIP3   OH218854   3.683   4.963   3.232
 6297TIP3    H118855   3.726   4.885   3.197
 6297TIP3    H218856   3.603   4.930   3.272
 6298TIP3   OH218857   5.629   4.517   3.512
 6298TIP3    H118858   5.594   4.450   3.453
 6298TIP3    H218859   5.561   4.527   3.578
 6299TIP3   OH218860   3.036   5.621   5.039
 6299TIP3    H118861   3.112   5.583   4.996
 6299TIP3    H218862   3.053   5.611   5.132
 6300TIP3   OH218863   2.532   1.926   1.804
 6300TIP3    H118864   2.494   1.839   1.790
 6300TIP3    H218865   2.460   1.987   1.787
 6301TIP3   OH218866   5.698   4.449   3.076
 6301TIP3    H118867   5.772   4.395   3.047
 6301TIP3    H218868   5.673   4.498   2.998
 6302TIP3   OH218869   6.810   3.445   5.216
 6302TIP3    H118870   6.756   3.402   5.282
 6302TIP3    H218871   6.757   3.441   5.136
 6303TIP3   OH218872   1.833   6.736   0.268
 6303TIP3    H118873   1.872   6.655   0.301
 6303TIP3    H218874   1.740   6.715   0.259
 6304TIP3   OH218875   1.086   0.407   5.568
 6304TIP3    H118876   1.007   0.427   5.619
 6304TIP3    H218877   1.053   0.359   5.492
 6305TIP3   OH218878   6.363   6.163   5.304
 6305TIP3    H118879   6.377   6.228   5.236
 6305TIP3    H218880   6.312   6.208   5.371
 6306TIP3   OH218881   0.023   1.503   5.674
 6306TIP3    H118882   0.094   1.561   5.703
 6306TIP3    H218883  -0.047   1.518   5.738
 6307TIP3   OH218884   0.094   4.628   2.287
 6307TIP3    H118885   0.091   4.559   2.221
 6307TIP3    H218886   0.141   4.700   2.244
 6308TIP3   OH218887   2.732   1.934   1.075
 6308TIP3    H118888   2.637   1.945   1.080
 6308TIP3    H218889   2.759   1.914   1.164
 6309TIP3   OH218890   4.237   2.299   4.878
 6309TIP3    H118891   4.208   2.250   4.955
 6309TIP3    H218892   4.158   2.308   4.825
 6310TIP3   OH218893   5.876   5.276   3.868
 6310TIP3    H118894   5.800   5.278   3.810
 6310TIP3    H218895   5.839   5.274   3.956
 6311TIP3   OH218896   5.519   5.226   5.699
 6311TIP3    H118897   5.593   5.187   5.744
 6311TIP3    H218898   5.540   5.319   5.693
 6312TIP3   OH218899   6.065   6.153   2.670
 6312TIP3    H118900   6.102   6.225   2.619
 6312TIP3    H218901   6.055   6.081   2.608
 6313TIP3   OH218902   3.188   2.282   4.324
 6313TIP3    H118903   3.100   2.253   4.348
 6313TIP3    H218904   3.174   2.354   4.263
 6314TIP3   OH218905   1.688   4.936   0.008
 6314TIP3    H118906   1.594   4.919   0.015
 6314TIP3    H218907   1.711   4.905  -0.079
 6315TIP3   OH218908   5.303   1.284   5.456
 6315TIP3    H118909   5.287   1.249   5.543
 6315TIP3    H218910   5.396   1.270   5.441
 6316TIP3   OH218911   4.269   3.579   2.649
 6316TIP3    H118912   4.224   3.606   2.569
 6316TIP3    H218913   4.287   3.661   2.695
 6317TIP3   OH218914   7.248   6.590   0.394
 6317TIP3    H118915   7.256   6.572   0.300
 6317TIP3    H218916   7.216   6.508   0.431
 6318TIP3   OH218917   2.734   4.131   1.050
 6318TIP3    H118918   2.802   4.154   1.113
 6318TIP3    H218919   2.755   4.042   1.022
 6319TIP3   OH218920   6.947   6.123   3.299
 6319TIP3    H118921   7.017   6.119   3.364
 6319TIP3    H218922   6.902   6.039   3.306
 6320TIP3   OH218923   0.081   0.150   2.454
 6320TIP3    H118924   0.052   0.235   2.489
 6320TIP3    H218925   0.075   0.160   2.359
 6321TIP3   OH218926   6.073   3.288   5.545
 6321TIP3    H118927   6.108   3.208   5.504
 6321TIP3    H218928   6.067   3.266   5.638
 6322TIP3   OH218929   4.121   3.635   4.215
 6322TIP3    H118930   4.132   3.705   4.279
 6322TIP3    H218931   4.085   3.678   4.138
 6323TIP3   OH218932   6.392   6.105   4.711
 6323TIP3    H118933   6.367   6.037   4.648
 6323TIP3    H218934   6.347   6.184   4.680
 6324TIP3   OH218935   2.288   1.249   3.676
 6324TIP3    H118936   2.377   1.284   3.677
 6324TIP3    H218937   2.294   1.168   3.627
 6325TIP3   OH218938   4.960   6.735   1.758
 6325TIP3    H118939   5.049   6.728   1.723
 6325TIP3    H218940   4.921   6.649   1.741
 6326TIP3   OH218941   3.190   3.642   0.582
 6326TIP3    H118942   3.154   3.555   0.565
 6326TIP3    H218943   3.184   3.652   0.677
 6327TIP3   OH218944   3.323   1.614   0.547
 6327TIP3    H118945   3.298   1.530   0.587
 6327TIP3    H218946   3.358   1.666   0.619
 6328TIP3   OH218947   7.171   5.235   5.384
 6328TIP3    H118948   7.257   5.277   5.382
 6328TIP3    H218949   7.158   5.203   5.295
 6329TIP3   OH218950   0.338   6.688   2.671
 6329TIP3    H118951   0.419   6.642   2.651
 6329TIP3    H218952   0.277   6.661   2.603
 6330TIP3   OH218953   6.264   5.814   3.333
 6330TIP3    H118954   6.240   5.868   3.408
 6330TIP3    H218955   6.346   5.772   3.358
 6331TIP3   OH218956   4.149   5.620   4.268
 6331TIP3    H118957   4.080   5.682   4.291
 6331TIP3    H218958   4.217   5.632   4.334
 6332TIP3   OH218959   5.710   0.236   3.512
 6332TIP3    H118960   5.690   0.319   3.469
 6332TIP3    H218961   5.796   0.250   3.551
 6333TIP3   OH218962   2.089   0.411   4.805
 6333TIP3    H118963   2.014   0.378   4.757
 6333TIP3    H218964   2.071   0.504   4.817
 6334TIP3   OH218965   6.899   2.329   2.781
 6334TIP3    H118966   6.885   2.234   2.781
 6334TIP3    H218967   6.961   2.344   2.709
 6335TIP3   OH218968   2.433   3.503   5.524
 6335TIP3    H118969   2.390   3.421   5.500
 6335TIP3    H218970   2.511   3.506   5.468
 6336TIP3   OH218971   0.964   0.959   3.339
 6336TIP3    H118972   1.011   0.982   3.419
 6336TIP3    H218973   0.973   0.864   3.332
 6337TIP3   OH218974   3.517   4.164   0.470
 6337TIP3    H118975   3.425   4.147   0.452
 6337TIP3    H218976   3.565   4.103   0.413
 6338TIP3   OH218977   5.269   0.954   4.473
 6338TIP3    H118978   5.342   0.926   4.417
 6338TIP3    H218979   5.306   0.957   4.561
 6339TIP3   OH218980   3.940   5.238   4.164
 6339TIP3    H118981   4.021   5.202   4.129
 6339TIP3    H218982   3.880   5.240   4.089
 6340TIP3   OH218983   3.347   3.802   1.608
 6340TIP3    H118984   3.286   3.789   1.681
 6340TIP3    H218985   3.296   3.779   1.531
 6341TIP3   OH218986   0.504   5.577   1.374
 6341TIP3    H118987   0.578   5.562   1.315
 6341TIP3    H218988   0.544   5.610   1.455
 6342TIP3   OH218989   4.941   3.114   4.557
 6342TIP3    H118990   5.035   3.111   4.571
 6342TIP3    H218991   4.912   3.192   4.605
 6343TIP3   OH218992   6.085   3.770   5.543
 6343TIP3    H118993   6.131   3.803   5.466
 6343TIP3    H218994   5.992   3.785   5.522
 6344TIP3   OH218995   5.247   4.140   4.608
 6344TIP3    H118996   5.306   4.204   4.646
 6344TIP3    H218997   5.199   4.188   4.541
 6345TIP3   OH218998   3.563   2.364   4.299
 6345TIP3    H118999   3.535   2.416   4.223
 6345TIP3    H219000   3.509   2.284   4.293
 6346TIP3   OH219001   1.538   4.171   2.321
 6346TIP3    H119002   1.494   4.132   2.245
 6346TIP3    H219003   1.611   4.221   2.284
 6347TIP3   OH219004   0.758   1.082   3.210
 6347TIP3    H119005   0.762   1.056   3.118
 6347TIP3    H219006   0.833   1.038   3.250
 6348TIP3   OH219007   2.832   3.362   0.746
 6348TIP3    H119008   2.903   3.355   0.810
 6348TIP3    H219009   2.758   3.396   0.797
 6349TIP3   OH219010   3.396   6.487   5.233
 6349TIP3    H119011   3.355   6.416   5.182
 6349TIP3    H219012   3.490   6.468   5.229
 6350TIP3   OH219013   5.762   0.076   2.192
 6350TIP3    H119014   5.801   0.161   2.211
 6350TIP3    H219015   5.731   0.083   2.101
 6351TIP3   OH219016   0.404   5.185   1.578
 6351TIP3    H119017   0.380   5.262   1.630
 6351TIP3    H219018   0.373   5.110   1.629
 6352TIP3   OH219019   4.943   0.429   0.765
 6352TIP3    H119020   5.025   0.402   0.725
 6352TIP3    H219021   4.899   0.347   0.789
 6353TIP3   OH219022   1.141   3.070   3.521
 6353TIP3    H119023   1.197   3.093   3.447
 6353TIP3    H219024   1.102   2.986   3.497
 6354TIP3   OH219025   0.868   4.655   5.415
 6354TIP3    H119026   0.953   4.653   5.459
 6354TIP3    H219027   0.878   4.720   5.345
 6355TIP3   OH219028   5.312   1.245   5.102
 6355TIP3    H119029   5.240   1.270   5.159
 6355TIP3    H219030   5.373   1.198   5.160
 6356TIP3   OH219031   5.180   1.319   4.641
 6356TIP3    H119032   5.245   1.379   4.604
 6356TIP3    H219033   5.175   1.247   4.578
 6357TIP3   OH219034   4.472   2.386   4.736
 6357TIP3    H119035   4.399   2.330   4.765
 6357TIP3    H219036   4.530   2.390   4.811
 6358TIP3   OH219037   4.052   4.274   3.859
 6358TIP3    H119038   3.984   4.207   3.850
 6358TIP3    H219039   4.071   4.299   3.769
 6359TIP3   OH219040   5.657   0.763   2.195
 6359TIP3    H119041   5.590   0.698   2.175
 6359TIP3    H219042   5.639   0.788   2.286
 6360TIP3   OH219043   7.076   1.373   4.168
 6360TIP3    H119044   7.014   1.445   4.181
 6360TIP3    H219045   7.085   1.366   4.073
 6361TIP3   OH219046   3.899   2.484   3.945
 6361TIP3    H119047   3.941   2.520   4.023
 6361TIP3    H219048   3.857   2.560   3.903
 6362TIP3   OH219049   3.478   5.606   5.050
 6362TIP3    H119050   3.431   5.524   5.038
 6362TIP3    H219051   3.514   5.626   4.963
 6363TIP3   OH219052   3.567   1.570   2.778
 6363TIP3    H119053   3.508   1.640   2.807
 6363TIP3    H219054   3.650   1.615   2.761
 6364TIP3   OH219055   2.115   2.660   3.936
 6364TIP3    H119056   2.167   2.739   3.947
 6364TIP3    H219057   2.179   2.591   3.922
 6365TIP3   OH219058   6.450   4.018   4.560
 6365TIP3    H119059   6.432   4.063   4.643
 6365TIP3    H219060   6.414   4.076   4.493
 6366TIP3   OH219061   7.151   4.972   4.656
 6366TIP3    H119062   7.076   4.920   4.627
 6366TIP3    H219063   7.212   4.909   4.695
 6367TIP3   OH219064   7.115   0.312   5.412
 6367TIP3    H119065   7.155   0.364   5.342
 6367TIP3    H219066   7.121   0.221   5.381
 6368TIP3   OH219067   6.624   0.655   4.125
 6368TIP3    H119068   6.576   0.737   4.112
 6368TIP3    H219069   6.634   0.647   4.219
 6369TIP3   OH219070   6.977   0.825   2.917
 6369TIP3    H119071   6.937   0.755   2.969
 6369TIP3    H219072   7.071   0.805   2.918
 6370TIP3   OH219073   2.836   0.566   2.520
 6370TIP3    H119074   2.885   0.639   2.482
 6370TIP3    H219075   2.809   0.514   2.444
 6371TIP3   OH219076   6.470   4.185   4.777
 6371TIP3    H119077   6.469   4.145   4.864
 6371TIP3    H219078   6.544   4.246   4.779
 6372TIP3   OH219079   6.610   3.833   4.334
 6372TIP3    H119080   6.575   3.845   4.245
 6372TIP3    H219081   6.683   3.773   4.323
 6373TIP3   OH219082   3.963   3.518   1.254
 6373TIP3    H119083   4.033   3.489   1.195
 6373TIP3    H219084   3.960   3.451   1.322
 6374TIP3   OH219085   2.556   0.396   2.100
 6374TIP3    H119086   2.479   0.444   2.130
 6374TIP3    H219087   2.533   0.304   2.113
 6375TIP3   OH219088   2.816   5.196   1.798
 6375TIP3    H119089   2.763   5.159   1.869
 6375TIP3    H219090   2.758   5.259   1.756
 6376TIP3   OH219091   1.693   5.745   3.488
 6376TIP3    H119092   1.765   5.698   3.531
 6376TIP3    H219093   1.693   5.712   3.399
 6377TIP3   OH219094   0.929   6.277   4.444
 6377TIP3    H119095   0.904   6.185   4.433
 6377TIP3    H219096   0.944   6.287   4.537
 6378TIP3   OH219097   4.913   0.007   4.430
 6378TIP3    H119098   4.914   0.045   4.342
 6378TIP3    H219099   4.896  -0.086   4.416
 6379TIP3   OH219100   3.979   0.889   2.867
 6379TIP3    H119101   3.997   0.973   2.826
 6379TIP3    H219102   3.954   0.912   2.957
 6380TIP3   OH219103   6.176   4.170   0.554
 6380TIP3    H119104   6.136   4.257   0.552
 6380TIP3    H219105   6.163   4.140   0.644
 6381TIP3   OH219106   4.762   4.942   3.401
 6381TIP3    H119107   4.679   4.935   3.448
 6381TIP3    H219108   4.776   4.855   3.365
 6382TIP3   OH219109   6.649   5.571   3.995
 6382TIP3    H119110   6.583   5.632   4.029
 6382TIP3    H219111   6.643   5.494   4.051
 6383TIP3   OH219112   1.606   0.212   1.470
 6383TIP3    H119113   1.535   0.256   1.424
 6383TIP3    H219114   1.652   0.284   1.515
 6384TIP3   OH219115   3.321   2.600   4.975
 6384TIP3    H119116   3.239   2.555   4.999
 6384TIP3    H219117   3.317   2.607   4.880
 6385TIP3   OH219118   3.398   6.252   5.057
 6385TIP3    H119119   3.404   6.191   5.131
 6385TIP3    H219120   3.369   6.198   4.984
 6386TIP3   OH219121   7.183   2.042   1.199
 6386TIP3    H119122   7.135   2.116   1.236
 6386TIP3    H219123   7.133   1.965   1.224
 6387TIP3   OH219124   6.571   3.765   5.134
 6387TIP3    H119125   6.511   3.830   5.171
 6387TIP3    H219126   6.530   3.681   5.155
 6388TIP3   OH219127   3.341   6.539   4.304
 6388TIP3    H119128   3.306   6.464   4.255
 6388TIP3    H219129   3.272   6.605   4.297
 6389TIP3   OH219130   3.783   5.634   3.167
 6389TIP3    H119131   3.707   5.688   3.148
 6389TIP3    H219132   3.749   5.544   3.167
 6390TIP3   OH219133   6.110   2.637   2.969
 6390TIP3    H119134   6.096   2.543   2.965
 6390TIP3    H219135   6.202   2.646   2.993
 6391TIP3   OH219136   7.062   0.241   4.538
 6391TIP3    H119137   7.124   0.168   4.536
 6391TIP3    H219138   7.066   0.272   4.628
 6392TIP3   OH219139   1.130   4.938   3.003
 6392TIP3    H119140   1.086   4.903   2.925
 6392TIP3    H219141   1.222   4.943   2.979
 6393TIP3   OH219142   5.864   5.493   0.749
 6393TIP3    H119143   5.827   5.501   0.837
 6393TIP3    H219144   5.927   5.421   0.756
 6394TIP3   OH219145   5.337   4.377   4.693
 6394TIP3    H119146   5.389   4.416   4.622
 6394TIP3    H219147   5.247   4.398   4.670
 6395TIP3   OH219148   1.967   5.843   2.206
 6395TIP3    H119149   1.872   5.833   2.204
 6395TIP3    H219150   1.982   5.931   2.171
 6396TIP3   OH219151   0.550   2.113   2.593
 6396TIP3    H119152   0.581   2.180   2.532
 6396TIP3    H219153   0.598   2.131   2.674
 6397TIP3   OH219154   2.781   3.507   5.021
 6397TIP3    H119155   2.711   3.461   4.976
 6397TIP3    H219156   2.861   3.460   4.997
 6398TIP3   OH219157   0.293   1.363   1.650
 6398TIP3    H119158   0.285   1.431   1.583
 6398TIP3    H219159   0.306   1.282   1.601
 6399TIP3   OH219160   6.419   0.545   1.990
 6399TIP3    H119161   6.469   0.492   2.052
 6399TIP3    H219162   6.359   0.596   2.044
 6400TIP3   OH219163   4.745   0.589   0.002
 6400TIP3    H119164   4.834   0.588  -0.034
 6400TIP3    H219165   4.750   0.650   0.076
 6401TIP3   OH219166   5.051   4.328   2.901
 6401TIP3    H119167   5.018   4.415   2.925
 6401TIP3    H219168   5.130   4.317   2.954
 6402TIP3   OH219169   5.227   4.969   3.423
 6402TIP3    H119170   5.257   4.882   3.448
 6402TIP3    H219171   5.193   5.007   3.504
 6403TIP3   OH219172   1.507   5.032   4.497
 6403TIP3    H119173   1.546   5.049   4.583
 6403TIP3    H219174   1.452   4.955   4.511
 6404TIP3   OH219175   3.858   3.774   4.779
 6404TIP3    H119176   3.783   3.833   4.791
 6404TIP3    H219177   3.823   3.687   4.800
 6405TIP3   OH219178   5.250   1.644   0.386
 6405TIP3    H119179   5.270   1.587   0.461
 6405TIP3    H219180   5.330   1.644   0.334
 6406TIP3   OH219181   0.161   1.772   2.416
 6406TIP3    H119182   0.246   1.749   2.379
 6406TIP3    H219183   0.168   1.750   2.509
 6407TIP3   OH219184   4.328   5.597   3.418
 6407TIP3    H119185   4.364   5.513   3.446
 6407TIP3    H219186   4.330   5.593   3.322
 6408TIP3   OH219187   0.624   5.921   2.916
 6408TIP3    H119188   0.626   5.938   2.822
 6408TIP3    H219189   0.548   5.865   2.929
 6409TIP3   OH219190   6.799   3.601   5.636
 6409TIP3    H119191   6.842   3.670   5.584
 6409TIP3    H219192   6.863   3.530   5.640
 6410TIP3   OH219193   2.818   1.527   4.665
 6410TIP3    H119194   2.873   1.450   4.651
 6410TIP3    H219195   2.869   1.600   4.630
 6411TIP3   OH219196   4.234   1.399   5.758
 6411TIP3    H119197   4.209   1.326   5.815
 6411TIP3    H219198   4.153   1.448   5.744
 6412TIP3   OH219199   5.505   1.311   2.973
 6412TIP3    H119200   5.582   1.274   3.015
 6412TIP3    H219201   5.491   1.395   3.017
 6413TIP3   OH219202   1.785   0.531   2.612
 6413TIP3    H119203   1.804   0.487   2.529
 6413TIP3    H219204   1.690   0.540   2.614
 6414TIP3   OH219205   4.206   2.659   2.609
 6414TIP3    H119206   4.210   2.730   2.673
 6414TIP3    H219207   4.295   2.625   2.606
 6415TIP3   OH219208   6.784   3.400   2.726
 6415TIP3    H119209   6.871   3.384   2.691
 6415TIP3    H219210   6.724   3.371   2.657
 6416TIP3   OH219211   5.615   4.619   2.824
 6416TIP3    H119212   5.710   4.626   2.816
 6416TIP3    H219213   5.587   4.568   2.748
 6417TIP3   OH219214   1.229   6.678   5.388
 6417TIP3    H119215   1.189   6.745   5.444
 6417TIP3    H219216   1.166   6.667   5.317
 6418TIP3   OH219217   2.499   2.309   1.451
 6418TIP3    H119218   2.573   2.312   1.511
 6418TIP3    H219219   2.468   2.219   1.455
 6419TIP3   OH219220   6.835   0.979   1.490
 6419TIP3    H119221   6.918   0.953   1.451
 6419TIP3    H219222   6.783   1.012   1.416
 6420TIP3   OH219223   3.601   6.759   5.076
 6420TIP3    H119224   3.574   6.671   5.101
 6420TIP3    H219225   3.653   6.747   4.996
 6421TIP3   OH219226   5.326   4.228   1.846
 6421TIP3    H119227   5.255   4.229   1.910
 6421TIP3    H219228   5.308   4.151   1.792
 6422TIP3   OH219229   6.293   0.961   1.000
 6422TIP3    H119230   6.388   0.967   1.004
 6422TIP3    H219231   6.275   0.912   0.920
 6423TIP3   OH219232   5.883   2.850   0.920
 6423TIP3    H119233   5.951   2.786   0.938
 6423TIP3    H219234   5.833   2.856   1.001
 6424TIP3   OH219235   0.408   0.988   0.602
 6424TIP3    H119236   0.457   0.951   0.676
 6424TIP3    H219237   0.475   1.030   0.548
 6425TIP3   OH219238   0.864   6.012   1.788
 6425TIP3    H119239   0.784   5.988   1.834
 6425TIP3    H219240   0.903   6.080   1.842
 6426TIP3   OH219241   3.986   2.991   0.406
 6426TIP3    H119242   4.027   2.906   0.422
 6426TIP3    H219243   4.031   3.025   0.329
 6427TIP3   OH219244   5.844   6.162   5.179
 6427TIP3    H119245   5.913   6.217   5.143
 6427TIP3    H219246   5.775   6.163   5.113
 6428TIP3   OH219247   1.092   5.554   5.636
 6428TIP3    H119248   1.032   5.552   5.560
 6428TIP3    H219249   1.073   5.638   5.679
 6429TIP3   OH219250   4.996   5.228   1.516
 6429TIP3    H119251   5.015   5.269   1.431
 6429TIP3    H219252   5.077   5.183   1.539
 6430TIP3   OH219253   6.017   4.707   4.911
 6430TIP3    H119254   6.078   4.683   4.841
 6430TIP3    H219255   6.050   4.661   4.988
 6431TIP3   OH219256   5.442   6.078   4.233
 6431TIP3    H119257   5.373   6.037   4.286
 6431TIP3    H219258   5.403   6.085   4.146
 6432TIP3   OH219259   4.251   2.749   1.080
 6432TIP3    H119260   4.280   2.663   1.048
 6432TIP3    H219261   4.304   2.764   1.159
 6433TIP3   OH219262   2.804   6.144   0.629
 6433TIP3    H119263   2.864   6.211   0.595
 6433TIP3    H219264   2.737   6.134   0.562
 6434TIP3   OH219265   6.551   3.746   1.572
 6434TIP3    H119266   6.607   3.823   1.579
 6434TIP3    H219267   6.463   3.778   1.595
 6435TIP3   OH219268   1.937   0.476   5.287
 6435TIP3    H119269   2.016   0.530   5.291
 6435TIP3    H219270   1.953   0.415   5.214
 6436TIP3   OH219271   3.950   4.218   1.938
 6436TIP3    H119272   3.909   4.158   2.000
 6436TIP3    H219273   3.956   4.167   1.857
 6437TIP3   OH219274   5.049   2.251   4.391
 6437TIP3    H119275   5.126   2.196   4.408
 6437TIP3    H219276   5.085   2.338   4.373
 6438TIP3   OH219277   2.217   1.063   4.567
 6438TIP3    H119278   2.242   1.079   4.476
 6438TIP3    H219279   2.261   1.132   4.616
 6439TIP3   OH219280   1.435   6.368   0.864
 6439TIP3    H119281   1.462   6.282   0.830
 6439TIP3    H219282   1.445   6.360   0.959
 6440TIP3   OH219283   6.853   2.877   3.624
 6440TIP3    H119284   6.830   2.876   3.531
 6440TIP3    H219285   6.789   2.936   3.664
 6441TIP3   OH219286   3.740   2.247   2.505
 6441TIP3    H119287   3.694   2.298   2.571
 6441TIP3    H219288   3.814   2.207   2.552
 6442TIP3   OH219289   3.800   5.104   2.798
 6442TIP3    H119290   3.849   5.130   2.719
 6442TIP3    H219291   3.709   5.115   2.774
 6443TIP3   OH219292   2.261   0.514   2.837
 6443TIP3    H119293   2.288   0.583   2.898
 6443TIP3    H219294   2.330   0.448   2.843
 6444TIP3   OH219295   5.864   6.475   2.518
 6444TIP3    H119296   5.880   6.446   2.428
 6444TIP3    H219297   5.818   6.558   2.508
 6445TIP3   OH219298   0.415   4.609   2.387
 6445TIP3    H119299   0.374   4.695   2.384
 6445TIP3    H219300   0.456   4.606   2.474
 6446TIP3   OH219301   4.469   6.046   1.373
 6446TIP3    H119302   4.536   6.045   1.304
 6446TIP3    H219303   4.386   6.059   1.325
 6447TIP3   OH219304   6.426   6.556   3.117
 6447TIP3    H119305   6.339   6.520   3.099
 6447TIP3    H219306   6.473   6.547   3.034
 6448TIP3   OH219307   7.107   2.802   5.754
 6448TIP3    H119308   7.187   2.854   5.743
 6448TIP3    H219309   7.138   2.712   5.760
 6449TIP3   OH219310   0.548   5.910   1.163
 6449TIP3    H119311   0.479   5.864   1.209
 6449TIP3    H219312   0.619   5.846   1.155
 6450TIP3   OH219313   1.740   5.080   3.258
 6450TIP3    H119314   1.834   5.065   3.267
 6450TIP3    H219315   1.700   5.032   3.330
 6451TIP3   OH219316   2.651   4.985   1.118
 6451TIP3    H119317   2.579   5.009   1.176
 6451TIP3    H219318   2.613   4.988   1.030
 6452TIP3   OH219319   2.921   0.265   1.132
 6452TIP3    H119320   2.844   0.284   1.186
 6452TIP3    H219321   2.992   0.251   1.195
 6453TIP3   OH219322   6.461   5.940   0.937
 6453TIP3    H119323   6.451   5.852   0.902
 6453TIP3    H219324   6.415   5.996   0.874
 6454TIP3   OH219325   5.077   1.785   5.850
 6454TIP3    H119326   5.025   1.836   5.788
 6454TIP3    H219327   5.013   1.742   5.906
 6455TIP3   OH219328   3.347   3.839   0.454
 6455TIP3    H119329   3.409   3.859   0.524
 6455TIP3    H219330   3.274   3.796   0.499
 6456TIP3   OH219331   6.807   4.376   2.915
 6456TIP3    H119332   6.725   4.421   2.935
 6456TIP3    H219333   6.875   4.441   2.933
 6457TIP3   OH219334   2.879   3.056   1.302
 6457TIP3    H119335   2.804   3.018   1.347
 6457TIP3    H219336   2.847   3.081   1.216
 6458TIP3   OH219337   4.224   0.376   5.253
 6458TIP3    H119338   4.180   0.461   5.253
 6458TIP3    H219339   4.302   0.390   5.306
 6459TIP3   OH219340   5.828   2.800   3.599
 6459TIP3    H119341   5.755   2.821   3.658
 6459TIP3    H219342   5.790   2.802   3.512
 6460TIP3   OH219343   4.738   1.646   5.135
 6460TIP3    H119344   4.656   1.609   5.103
 6460TIP3    H219345   4.804   1.617   5.071
 6461TIP3   OH219346   6.880   0.247   3.043
 6461TIP3    H119347   6.819   0.247   2.969
 6461TIP3    H219348   6.836   0.298   3.111
 6462TIP3   OH219349   4.632   0.234   5.625
 6462TIP3    H119350   4.572   0.280   5.566
 6462TIP3    H219351   4.636   0.145   5.590
 6463TIP3   OH219352   7.188   0.623   1.598
 6463TIP3    H119353   7.140   0.555   1.645
 6463TIP3    H219354   7.155   0.618   1.509
 6464TIP3   OH219355   3.945   1.705   1.164
 6464TIP3    H119356   3.944   1.784   1.219
 6464TIP3    H219357   3.885   1.726   1.091
 6465TIP3   OH219358   0.880   6.108   2.632
 6465TIP3    H119359   0.861   6.162   2.709
 6465TIP3    H219360   0.946   6.046   2.663
 6466TIP3   OH219361   4.000   6.205   0.758
 6466TIP3    H119362   4.001   6.119   0.716
 6466TIP3    H219363   4.053   6.260   0.700
 6467TIP3   OH219364   2.943   5.722   4.384
 6467TIP3    H119365   2.998   5.676   4.447
 6467TIP3    H219366   2.973   5.690   4.299
 6468TIP3   OH219367   3.457   4.494   5.792
 6468TIP3    H119368   3.552   4.486   5.800
 6468TIP3    H219369   3.440   4.587   5.806
 6469TIP3   OH219370   0.514   3.741   0.725
 6469TIP3    H119371   0.486   3.781   0.643
 6469TIP3    H219372   0.600   3.703   0.705
 6470TIP3   OH219373   0.696   1.711   4.364
 6470TIP3    H119374   0.682   1.630   4.316
 6470TIP3    H219375   0.791   1.718   4.372
 6471TIP3   OH219376   3.616   1.183   0.647
 6471TIP3    H119377   3.557   1.110   0.630
 6471TIP3    H219378   3.697   1.142   0.678
 6472TIP3   OH219379   5.789   6.219   4.410
 6472TIP3    H119380   5.859   6.255   4.465
 6472TIP3    H219381   5.731   6.175   4.472
 6473TIP3   OH219382   6.412   5.421   3.028
 6473TIP3    H119383   6.391   5.504   3.071
 6473TIP3    H219384   6.485   5.386   3.079
 6474TIP3   OH219385   6.316   6.374   5.842
 6474TIP3    H119386   6.264   6.335   5.772
 6474TIP3    H219387   6.355   6.452   5.803
 6475TIP3   OH219388   3.044   4.936   3.952
 6475TIP3    H119389   2.973   4.979   3.904
 6475TIP3    H219390   3.061   4.855   3.904
 6476TIP3   OH219391   3.855   4.569   1.640
 6476TIP3    H119392   3.857   4.613   1.725
 6476TIP3    H219393   3.785   4.505   1.647
 6477TIP3   OH219394   6.850   2.254   1.914
 6477TIP3    H119395   6.854   2.163   1.882
 6477TIP3    H219396   6.937   2.289   1.896
 6478TIP3   OH219397   6.801   2.982   4.347
 6478TIP3    H119398   6.825   3.016   4.433
 6478TIP3    H219399   6.717   2.938   4.361
 6479TIP3   OH219400   2.039   3.266   5.197
 6479TIP3    H119401   2.077   3.183   5.168
 6479TIP3    H219402   1.957   3.242   5.240
 6480TIP3   OH219403   1.109   4.139   3.743
 6480TIP3    H119404   1.082   4.052   3.770
 6480TIP3    H219405   1.067   4.198   3.805
 6481TIP3   OH219406   3.532   0.164   0.453
 6481TIP3    H119407   3.474   0.197   0.385
 6481TIP3    H219408   3.612   0.216   0.444
 6482TIP3   OH219409   6.379   2.261   5.607
 6482TIP3    H119410   6.364   2.242   5.699
 6482TIP3    H219411   6.292   2.263   5.568
 6483TIP3   OH219412   4.985   6.654   3.283
 6483TIP3    H119413   4.995   6.642   3.189
 6483TIP3    H219414   4.896   6.624   3.302
 6484TIP3   OH219415   5.466   0.373   4.200
 6484TIP3    H119416   5.388   0.329   4.234
 6484TIP3    H219417   5.462   0.461   4.238
 6485TIP3   OH219418   4.005   4.953   1.475
 6485TIP3    H119419   3.974   5.006   1.402
 6485TIP3    H219420   4.000   4.862   1.443
 6486TIP3   OH219421   6.626   2.930   4.799
 6486TIP3    H119422   6.671   2.873   4.861
 6486TIP3    H219423   6.548   2.960   4.846
 6487TIP3   OH219424   2.093   2.713   4.726
 6487TIP3    H119425   1.999   2.695   4.732
 6487TIP3    H219426   2.134   2.639   4.771
 6488TIP3   OH219427   1.863   4.595   3.765
 6488TIP3    H119428   1.855   4.677   3.716
 6488TIP3    H219429   1.777   4.554   3.757
 6489TIP3   OH219430   1.184   1.415   1.686
 6489TIP3    H119431   1.264   1.364   1.698
 6489TIP3    H219432   1.177   1.428   1.592
 6490TIP3   OH219433   4.714   4.043   1.325
 6490TIP3    H119434   4.720   3.956   1.365
 6490TIP3    H219435   4.696   4.026   1.233
 6491TIP3   OH219436   5.728   3.697   1.271
 6491TIP3    H119437   5.634   3.681   1.268
 6491TIP3    H219438   5.738   3.765   1.338
 6492TIP3   OH219439   4.426   3.663   3.959
 6492TIP3    H119440   4.437   3.646   4.052
 6492TIP3    H219441   4.376   3.745   3.956
 6493TIP3   OH219442   5.584   1.039   3.820
 6493TIP3    H119443   5.520   1.070   3.756
 6493TIP3    H219444   5.653   1.000   3.768
 6494TIP3   OH219445   2.663   1.127   4.644
 6494TIP3    H119446   2.752   1.121   4.610
 6494TIP3    H219447   2.615   1.174   4.576
 6495TIP3   OH219448   3.318   4.157   0.027
 6495TIP3    H119449   3.291   4.236   0.073
 6495TIP3    H219450   3.242   4.133  -0.026
 6496TIP3   OH219451   3.814   0.248   4.616
 6496TIP3    H119452   3.820   0.290   4.702
 6496TIP3    H219453   3.737   0.287   4.575
 6497TIP3   OH219454   3.681   3.180   3.538
 6497TIP3    H119455   3.707   3.173   3.446
 6497TIP3    H219456   3.620   3.107   3.551
 6498TIP3   OH219457   6.755   1.859   4.545
 6498TIP3    H119458   6.849   1.841   4.549
 6498TIP3    H219459   6.730   1.837   4.456
 6499TIP3   OH219460   1.673   0.542   4.678
 6499TIP3    H119461   1.630   0.626   4.662
 6499TIP3    H219462   1.646   0.487   4.604
 6500TIP3   OH219463   4.759   6.135   5.808
 6500TIP3    H119464   4.726   6.221   5.781
 6500TIP3    H219465   4.752   6.081   5.730
 6501TIP3   OH219466   3.069   5.632   2.213
 6501TIP3    H119467   3.118   5.623   2.131
 6501TIP3    H219468   3.091   5.552   2.261
 6502TIP3   OH219469   6.241   3.554   3.938
 6502TIP3    H119470   6.268   3.568   4.029
 6502TIP3    H219471   6.150   3.586   3.936
 6503TIP3   OH219472   5.730   2.749   3.309
 6503TIP3    H119473   5.739   2.841   3.284
 6503TIP3    H219474   5.789   2.702   3.250
 6504TIP3   OH219475   6.825   4.406   5.119
 6504TIP3    H119476   6.809   4.498   5.099
 6504TIP3    H219477   6.919   4.402   5.139
 6505TIP3   OH219478   2.045   4.390   5.600
 6505TIP3    H119479   2.009   4.343   5.524
 6505TIP3    H219480   2.096   4.461   5.563
 6506TIP3   OH219481   0.814   0.727   3.180
 6506TIP3    H119482   0.770   0.740   3.264
 6506TIP3    H219483   0.906   0.711   3.203
 6507TIP3   OH219484   5.759   1.707   3.432
 6507TIP3    H119485   5.702   1.647   3.481
 6507TIP3    H219486   5.818   1.743   3.498
 6508TIP3   OH219487   2.660   2.863   0.264
 6508TIP3    H119488   2.568   2.880   0.283
 6508TIP3    H219489   2.667   2.768   0.261
 6509TIP3   OH219490   6.931   1.080   3.541
 6509TIP3    H119491   6.896   1.150   3.486
 6509TIP3    H219492   6.857   1.051   3.593
 6510TIP3   OH219493   4.119   5.091   2.036
 6510TIP3    H119494   4.196   5.114   2.088
 6510TIP3    H219495   4.134   4.999   2.012
 6511TIP3   OH219496   5.006   5.331   3.739
 6511TIP3    H119497   5.093   5.300   3.714
 6511TIP3    H219498   4.992   5.409   3.686
 6512TIP3   OH219499   4.413   1.525   1.039
 6512TIP3    H119500   4.475   1.573   1.094
 6512TIP3    H219501   4.327   1.552   1.071
 6513TIP3   OH219502   1.692   6.486   0.419
 6513TIP3    H119503   1.786   6.498   0.411
 6513TIP3    H219504   1.654   6.570   0.392
 6514TIP3   OH219505   2.786   0.036   5.341
 6514TIP3    H119506   2.812   0.054   5.251
 6514TIP3    H219507   2.860   0.066   5.394
 6515TIP3   OH219508   0.183   6.206   3.128
 6515TIP3    H119509   0.088   6.206   3.114
 6515TIP3    H219510   0.215   6.134   3.074
 6516TIP3   OH219511   4.726   5.223   5.221
 6516TIP3    H119512   4.815   5.254   5.241
 6516TIP3    H219513   4.727   5.131   5.244
 6517TIP3   OH219514   4.999   6.349   2.836
 6517TIP3    H119515   4.995   6.419   2.902
 6517TIP3    H219516   5.001   6.268   2.887
 6518TIP3   OH219517   0.502   2.727   0.329
 6518TIP3    H119518   0.414   2.691   0.339
 6518TIP3    H219519   0.536   2.734   0.418
 6519TIP3   OH219520   3.404   0.357   1.426
 6519TIP3    H119521   3.459   0.434   1.412
 6519TIP3    H219522   3.314   0.391   1.425
 6520TIP3   OH219523   4.881   5.937   3.999
 6520TIP3    H119524   4.958   5.920   3.946
 6520TIP3    H219525   4.814   5.964   3.936
 6521TIP3   OH219526   5.909   2.200   2.647
 6521TIP3    H119527   5.969   2.273   2.662
 6521TIP3    H219528   5.827   2.242   2.621
 6522TIP3   OH219529   6.878   4.711   5.442
 6522TIP3    H119530   6.905   4.620   5.457
 6522TIP3    H219531   6.949   4.763   5.479
 6523TIP3   OH219532   0.331   3.719   3.002
 6523TIP3    H119533   0.411   3.745   3.048
 6523TIP3    H219534   0.357   3.716   2.909
 6524TIP3   OH219535   7.131   1.072   2.960
 6524TIP3    H119536   7.070   1.002   2.983
 6524TIP3    H219537   7.162   1.106   3.043
 6525TIP3   OH219538   5.590   1.676   1.688
 6525TIP3    H119539   5.545   1.600   1.727
 6525TIP3    H219540   5.671   1.640   1.653
 6526TIP3   OH219541   3.713   5.623   1.696
 6526TIP3    H119542   3.682   5.532   1.697
 6526TIP3    H219543   3.806   5.617   1.718
 6527TIP3   OH219544   5.084   4.663   4.807
 6527TIP3    H119545   5.015   4.727   4.827
 6527TIP3    H219546   5.076   4.647   4.713
 6528TIP3   OH219547   2.454   3.750   3.876
 6528TIP3    H119548   2.394   3.694   3.925
 6528TIP3    H219549   2.409   3.834   3.870
 6529TIP3   OH219550   6.917   3.604   3.114
 6529TIP3    H119551   6.857   3.576   3.183
 6529TIP3    H219552   6.997   3.628   3.160
 6530TIP3   OH219553   3.556   4.132   4.215
 6530TIP3    H119554   3.569   4.051   4.165
 6530TIP3    H219555   3.579   4.108   4.305
 6531TIP3   OH219556   5.868   6.081   2.869
 6531TIP3    H119557   5.872   5.986   2.882
 6531TIP3    H219558   5.930   6.099   2.799
 6532TIP3   OH219559   0.059   4.559   1.261
 6532TIP3    H119560   0.029   4.650   1.273
 6532TIP3    H219561   0.037   4.515   1.343
 6533TIP3   OH219562   3.226   1.221   3.339
 6533TIP3    H119563   3.230   1.186   3.428
 6533TIP3    H219564   3.310   1.196   3.300
 6534TIP3   OH219565   6.732   0.849   3.243
 6534TIP3    H119566   6.773   0.923   3.199
 6534TIP3    H219567   6.705   0.884   3.328
 6535TIP3   OH219568   1.069   5.693   3.592
 6535TIP3    H119569   1.150   5.744   3.594
 6535TIP3    H219570   1.098   5.602   3.596
 6536TIP3   OH219571   5.140   0.184   2.963
 6536TIP3    H119572   5.207   0.249   2.944
 6536TIP3    H219573   5.104   0.161   2.877
 6537TIP3   OH219574   4.380   3.306   3.420
 6537TIP3    H119575   4.284   3.314   3.426
 6537TIP3    H219576   4.401   3.231   3.475
 6538TIP3   OH219577   4.345   5.332   0.163
 6538TIP3    H119578   4.373   5.309   0.075
 6538TIP3    H219579   4.279   5.400   0.151
 6539TIP3   OH219580   5.337   4.273   1.103
 6539TIP3    H119581   5.413   4.282   1.160
 6539TIP3    H219582   5.340   4.351   1.047
 6540TIP3   OH219583   5.364   2.457   1.977
 6540TIP3    H119584   5.305   2.419   1.912
 6540TIP3    H219585   5.330   2.546   1.990
 6541TIP3   OH219586   0.887   3.110   2.874
 6541TIP3    H119587   0.868   3.185   2.818
 6541TIP3    H219588   0.846   3.036   2.830
 6542TIP3   OH219589   1.528   1.339   3.246
 6542TIP3    H119590   1.519   1.399   3.173
 6542TIP3    H219591   1.598   1.279   3.220
 6543TIP3   OH219592   5.202   4.148   0.115
 6543TIP3    H119593   5.112   4.152   0.083
 6543TIP3    H219594   5.244   4.227   0.080
 6544TIP3   OH219595   0.910   3.029   3.130
 6544TIP3    H119596   0.911   3.083   3.051
 6544TIP3    H219597   0.873   2.945   3.101
 6545TIP3   OH219598   6.645   2.271   1.005
 6545TIP3    H119599   6.620   2.253   1.095
 6545TIP3    H219600   6.693   2.354   1.009
 6546TIP3   OH219601   0.692   2.462   4.578
 6546TIP3    H119602   0.620   2.499   4.629
 6546TIP3    H219603   0.658   2.453   4.489
 6547TIP3   OH219604   1.030   5.858   4.996
 6547TIP3    H119605   1.028   5.818   5.083
 6547TIP3    H219606   0.965   5.927   5.000
 6548TIP3   OH219607   4.973   0.265   4.276
 6548TIP3    H119608   4.901   0.236   4.220
 6548TIP3    H219609   4.953   0.356   4.296
 6549TIP3   OH219610   2.301   1.486   5.906
 6549TIP3    H119611   2.265   1.474   5.818
 6549TIP3    H219612   2.375   1.426   5.910
 6550TIP3   OH219613   6.467   4.698   0.317
 6550TIP3    H119614   6.562   4.693   0.328
 6550TIP3    H219615   6.432   4.649   0.392
 6551TIP3   OH219616   6.798   1.369   4.353
 6551TIP3    H119617   6.820   1.411   4.437
 6551TIP3    H219618   6.753   1.437   4.303
 6552TIP3   OH219619   1.143   1.410   3.759
 6552TIP3    H119620   1.099   1.421   3.674
 6552TIP3    H219621   1.071   1.412   3.823
 6553TIP3   OH219622   0.785   4.216   2.686
 6553TIP3    H119623   0.727   4.285   2.719
 6553TIP3    H219624   0.806   4.163   2.763
 6554TIP3   OH219625   1.617   1.085   1.382
 6554TIP3    H119626   1.521   1.082   1.384
 6554TIP3    H219627   1.639   1.116   1.295
 6555TIP3   OH219628   2.075   6.823   2.311
 6555TIP3    H119629   2.023   6.813   2.230
 6555TIP3    H219630   2.027   6.772   2.376
 6556TIP3   OH219631   3.683   2.940   1.267
 6556TIP3    H119632   3.740   2.881   1.218
 6556TIP3    H219633   3.699   3.027   1.230
 6557TIP3   OH219634   2.219   4.632   2.623
 6557TIP3    H119635   2.145   4.680   2.587
 6557TIP3    H219636   2.248   4.575   2.552
 6558TIP3   OH219637   3.665   5.312   5.432
 6558TIP3    H119638   3.662   5.396   5.386
 6558TIP3    H219639   3.730   5.260   5.384
 6559TIP3   OH219640   4.193   3.703   3.738
 6559TIP3    H119641   4.266   3.649   3.709
 6559TIP3    H219642   4.164   3.748   3.659
 6560TIP3   OH219643   7.031   2.249   0.962
 6560TIP3    H119644   7.000   2.264   1.051
 6560TIP3    H219645   7.033   2.336   0.922
 6561TIP3   OH219646   4.372   0.429   5.678
 6561TIP3    H119647   4.287   0.457   5.645
 6561TIP3    H219648   4.421   0.403   5.601
 6562TIP3   OH219649   6.151   0.887   3.756
 6562TIP3    H119650   6.113   0.955   3.811
 6562TIP3    H219651   6.100   0.889   3.675
 6563TIP3   OH219652   2.028   4.204   5.813
 6563TIP3    H119653   2.047   4.111   5.814
 6563TIP3    H219654   2.038   4.229   5.721
 6564TIP3   OH219655   0.610   5.174   2.372
 6564TIP3    H119656   0.550   5.150   2.442
 6564TIP3    H219657   0.626   5.267   2.384
 6565TIP3   OH219658   5.428   0.953   1.534
 6565TIP3    H119659   5.489   0.948   1.608
 6565TIP3    H219660   5.360   0.890   1.555
 6566TIP3   OH219661   2.559   0.269   4.384
 6566TIP3    H119662   2.504   0.244   4.310
 6566TIP3    H219663   2.561   0.365   4.382
 6567TIP3   OH219664   6.483   1.347   0.916
 6567TIP3    H119665   6.403   1.374   0.870
 6567TIP3    H219666   6.518   1.429   0.951
 6568TIP3   OH219667   0.212   5.130   3.946
 6568TIP3    H119668   0.305   5.146   3.955
 6568TIP3    H219669   0.184   5.096   4.031
 6569TIP3   OH219670   5.757   4.667   1.755
 6569TIP3    H119671   5.693   4.702   1.817
 6569TIP3    H219672   5.839   4.710   1.779
 6570TIP3   OH219673   2.478   3.433   4.483
 6570TIP3    H119674   2.440   3.348   4.503
 6570TIP3    H219675   2.416   3.474   4.423
 6571TIP3   OH219676   3.141   2.405   5.862
 6571TIP3    H119677   3.154   2.418   5.768
 6571TIP3    H219678   3.156   2.491   5.900
 6572TIP3   OH219679   3.495   1.524   5.843
 6572TIP3    H119680   3.453   1.517   5.757
 6572TIP3    H219681   3.424   1.549   5.902
 6573TIP3   OH219682   2.987   4.111   3.319
 6573TIP3    H119683   2.918   4.046   3.333
 6573TIP3    H219684   2.943   4.196   3.333
 6574TIP3   OH219685   5.495   5.982   5.635
 6574TIP3    H119686   5.502   6.074   5.660
 6574TIP3    H219687   5.417   5.950   5.682
 6575TIP3   OH219688   3.618   1.368   5.056
 6575TIP3    H119689   3.597   1.356   4.963
 6575TIP3    H219690   3.639   1.461   5.063
 6576TIP3   OH219691   5.876   6.206   0.660
 6576TIP3    H119692   5.901   6.163   0.578
 6576TIP3    H219693   5.780   6.207   0.659
 6577TIP3   OH219694   0.848   6.655   4.558
 6577TIP3    H119695   0.842   6.725   4.622
 6577TIP3    H219696   0.941   6.633   4.555
 6578TIP3   OH219697   4.420   3.787   2.799
 6578TIP3    H119698   4.397   3.811   2.889
 6578TIP3    H219699   4.488   3.720   2.809
 6579TIP3   OH219700   2.011   3.833   1.954
 6579TIP3    H119701   2.010   3.884   2.035
 6579TIP3    H219702   1.978   3.746   1.980
 6580TIP3   OH219703   5.892   2.771   4.755
 6580TIP3    H119704   5.922   2.827   4.683
 6580TIP3    H219705   5.962   2.777   4.820
 6581TIP3   OH219706   5.946   0.316   3.379
 6581TIP3    H119707   5.870   0.282   3.330
 6581TIP3    H219708   6.015   0.252   3.362
 6582TIP3   OH219709   6.252   3.234   5.133
 6582TIP3    H119710   6.172   3.199   5.096
 6582TIP3    H219711   6.316   3.230   5.062
 6583TIP3   OH219712   0.818   2.063   4.309
 6583TIP3    H119713   0.808   1.968   4.299
 6583TIP3    H219714   0.805   2.078   4.403
 6584TIP3   OH219715   2.163   2.230   2.500
 6584TIP3    H119716   2.077   2.270   2.493
 6584TIP3    H219717   2.200   2.266   2.580
 6585TIP3   OH219718   4.954   3.243   3.783
 6585TIP3    H119719   4.965   3.161   3.831
 6585TIP3    H219720   4.860   3.258   3.782
 6586TIP3   OH219721   6.472   3.244   0.435
 6586TIP3    H119722   6.445   3.229   0.526
 6586TIP3    H219723   6.429   3.175   0.386
 6587TIP3   OH219724   1.932   4.235   4.179
 6587TIP3    H119725   1.951   4.182   4.256
 6587TIP3    H219726   1.959   4.323   4.203
 6588TIP3   OH219727   2.090   4.421   4.408
 6588TIP3    H119728   2.071   4.484   4.477
 6588TIP3    H219729   2.048   4.458   4.330
 6589TIP3   OH219730   0.406   6.710   0.598
 6589TIP3    H119731   0.376   6.645   0.661
 6589TIP3    H219732   0.463   6.768   0.648
 6590TIP3   OH219733   1.533   4.344   0.361
 6590TIP3    H119734   1.490   4.288   0.296
 6590TIP3    H219735   1.573   4.414   0.310
 6591TIP3   OH219736   1.440   4.343   4.352
 6591TIP3    H119737   1.411   4.257   4.323
 6591TIP3    H219738   1.523   4.327   4.398
 6592TIP3   OH219739   2.182   6.576   4.436
 6592TIP3    H119740   2.269   6.616   4.443
 6592TIP3    H219741   2.163   6.575   4.342
 6593TIP3   OH219742   2.357   3.537   1.265
 6593TIP3    H119743   2.329   3.503   1.181
 6593TIP3    H219744   2.341   3.631   1.260
 6594TIP3   OH219745   1.959   3.016   1.294
 6594TIP3    H119746   1.920   2.979   1.214
 6594TIP3    H219747   2.044   3.050   1.266
 6595TIP3   OH219748   6.401   1.433   3.421
 6595TIP3    H119749   6.377   1.382   3.343
 6595TIP3    H219750   6.459   1.501   3.388
 6596TIP3   OH219751   5.563   4.949   0.444
 6596TIP3    H119752   5.484   4.975   0.395
 6596TIP3    H219753   5.632   5.005   0.410
 6597TIP3   OH219754   4.442   2.384   0.910
 6597TIP3    H119755   4.471   2.320   0.975
 6597TIP3    H219756   4.365   2.345   0.869
 6598TIP3   OH219757   2.404   3.243   5.401
 6598TIP3    H119758   2.453   3.267   5.322
 6598TIP3    H219759   2.314   3.230   5.371
 6599TIP3   OH219760   2.446   0.250   2.470
 6599TIP3    H119761   2.468   0.248   2.377
 6599TIP3    H219762   2.425   0.159   2.491
 6600TIP3   OH219763   5.130   6.053   2.743
 6600TIP3    H119764   5.149   6.046   2.649
 6600TIP3    H219765   5.038   6.080   2.747
 6601TIP3   OH219766   2.738   4.729   1.038
 6601TIP3    H119767   2.720   4.797   1.103
 6601TIP3    H219768   2.770   4.655   1.089
 6602TIP3   OH219769   2.667   4.355   1.885
 6602TIP3    H119770   2.685   4.412   1.810
 6602TIP3    H219771   2.652   4.415   1.958
 6603TIP3   OH219772   0.752   0.383   1.216
 6603TIP3    H119773   0.679   0.328   1.187
 6603TIP3    H219774   0.709   0.458   1.259
 6604TIP3   OH219775   6.812   3.343   2.210
 6604TIP3    H119776   6.838   3.301   2.128
 6604TIP3    H219777   6.720   3.367   2.197
 6605TIP3   OH219778   1.559   5.182   0.099
 6605TIP3    H119779   1.572   5.088   0.086
 6605TIP3    H219780   1.610   5.224   0.030
 6606TIP3   OH219781   4.799   5.965   4.468
 6606TIP3    H119782   4.821   6.058   4.469
 6606TIP3    H219783   4.817   5.936   4.379
 6607TIP3   OH219784   3.065   1.562   4.576
 6607TIP3    H119785   3.092   1.521   4.494
 6607TIP3    H219786   3.132   1.536   4.639
 6608TIP3   OH219787   6.010   2.297   3.058
 6608TIP3    H119788   6.010   2.209   3.095
 6608TIP3    H219789   5.917   2.318   3.046
 6609TIP3   OH219790   5.939   5.752   5.108
 6609TIP3    H119791   6.015   5.726   5.160
 6609TIP3    H219792   5.870   5.690   5.133
 6610TIP3   OH219793   1.355   3.239   0.954
 6610TIP3    H119794   1.375   3.330   0.930
 6610TIP3    H219795   1.425   3.188   0.913
 6611TIP3   OH219796   1.395   5.654   1.399
 6611TIP3    H119797   1.422   5.661   1.490
 6611TIP3    H219798   1.300   5.646   1.403
 6612TIP3   OH219799   4.975   1.872   2.976
 6612TIP3    H119800   4.893   1.920   2.987
 6612TIP3    H219801   5.024   1.889   3.057
 6613TIP3   OH219802   6.884   1.453   4.599
 6613TIP3    H119803   6.971   1.415   4.587
 6613TIP3    H219804   6.833   1.383   4.640
 6614TIP3   OH219805   4.184   0.524   4.098
 6614TIP3    H119806   4.240   0.587   4.054
 6614TIP3    H219807   4.109   0.513   4.040
 6615TIP3   OH219808   5.111   5.390   0.047
 6615TIP3    H119809   5.171   5.343  -0.010
 6615TIP3    H219810   5.031   5.337   0.047
 6616TIP3   OH219811   6.279   0.667   0.045
 6616TIP3    H119812   6.340   0.737   0.023
 6616TIP3    H219813   6.193   0.702   0.024
 6617TIP3   OH219814   1.100   1.437   5.798
 6617TIP3    H119815   1.128   1.388   5.876
 6617TIP3    H219816   1.087   1.526   5.829
 6618TIP3   OH219817   6.995   2.409   3.032
 6618TIP3    H119818   7.080   2.423   2.990
 6618TIP3    H219819   6.935   2.388   2.960
 6619TIP3   OH219820   2.423   0.317   3.401
 6619TIP3    H119821   2.429   0.264   3.480
 6619TIP3    H219822   2.484   0.390   3.416
 6620TIP3   OH219823   3.779   5.904   5.654
 6620TIP3    H119824   3.772   5.819   5.697
 6620TIP3    H219825   3.830   5.958   5.715
 6621TIP3   OH219826   0.720   5.602   4.080
 6621TIP3    H119827   0.719   5.532   4.144
 6621TIP3    H219828   0.723   5.558   3.995
 6622TIP3   OH219829   3.729   2.677   4.833
 6622TIP3    H119830   3.797   2.743   4.845
 6622TIP3    H219831   3.707   2.649   4.922
 6623TIP3   OH219832   3.184   4.034   1.286
 6623TIP3    H119833   3.242   4.010   1.213
 6623TIP3    H219834   3.207   4.125   1.306
 6624TIP3   OH219835   5.724   3.009   2.336
 6624TIP3    H119836   5.799   3.023   2.278
 6624TIP3    H219837   5.757   3.027   2.424
 6625TIP3   OH219838   0.872   0.984   0.641
 6625TIP3    H119839   0.832   0.901   0.667
 6625TIP3    H219840   0.893   1.028   0.724
 6626TIP3   OH219841   4.801   5.948   0.197
 6626TIP3    H119842   4.866   6.016   0.182
 6626TIP3    H219843   4.847   5.866   0.178
 6627TIP3   OH219844   5.757   4.347   2.359
 6627TIP3    H119845   5.844   4.334   2.321
 6627TIP3    H219846   5.717   4.260   2.356
 6628TIP3   OH219847   3.186   0.368   3.505
 6628TIP3    H119848   3.200   0.274   3.492
 6628TIP3    H219849   3.207   0.383   3.597
 6629TIP3   OH219850   1.124   3.947   5.697
 6629TIP3    H119851   1.207   3.969   5.655
 6629TIP3    H219852   1.128   3.852   5.710
 6630TIP3   OH219853   1.508   5.568   5.611
 6630TIP3    H119854   1.583   5.522   5.571
 6630TIP3    H219855   1.455   5.597   5.537
 6631TIP3   OH219856   4.660   2.407   5.219
 6631TIP3    H119857   4.688   2.382   5.131
 6631TIP3    H219858   4.740   2.433   5.264
 6632TIP3   OH219859   3.803   5.303   4.604
 6632TIP3    H119860   3.755   5.317   4.523
 6632TIP3    H219861   3.848   5.220   4.592
 6633TIP3   OH219862   0.556   1.238   5.034
 6633TIP3    H119863   0.513   1.175   5.092
 6633TIP3    H219864   0.490   1.306   5.020
 6634TIP3   OH219865   5.354   3.234   0.730
 6634TIP3    H119866   5.429   3.224   0.789
 6634TIP3    H219867   5.297   3.161   0.752
 6635TIP3   OH219868   6.258   0.789   0.792
 6635TIP3    H119869   6.199   0.715   0.805
 6635TIP3    H219870   6.210   0.848   0.734
 6636TIP3   OH219871   6.699   6.283   1.508
 6636TIP3    H119872   6.708   6.312   1.599
 6636TIP3    H219873   6.781   6.308   1.466
 6637TIP3   OH219874   2.412   0.329   5.028
 6637TIP3    H119875   2.384   0.420   5.028
 6637TIP3    H219876   2.415   0.305   4.935
 6638TIP3   OH219877   1.151   4.077   2.983
 6638TIP3    H119878   1.092   4.004   3.001
 6638TIP3    H219879   1.189   4.098   3.068
 6639TIP3   OH219880   0.441   5.432   3.538
 6639TIP3    H119881   0.471   5.415   3.628
 6639TIP3    H219882   0.521   5.428   3.485
 6640TIP3   OH219883   2.979   2.126  -0.001
 6640TIP3    H119884   2.898   2.146   0.045
 6640TIP3    H219885   2.950   2.102  -0.089
 6641TIP3   OH219886   6.142   5.243   5.730
 6641TIP3    H119887   6.181   5.229   5.817
 6641TIP3    H219888   6.208   5.293   5.683
 6642TIP3   OH219889   1.568   5.394   1.396
 6642TIP3    H119890   1.489   5.448   1.406
 6642TIP3    H219891   1.547   5.313   1.443
 6643TIP3   OH219892   6.740   3.588   1.638
 6643TIP3    H119893   6.682   3.661   1.619
 6643TIP3    H219894   6.722   3.566   1.729
 6644TIP3   OH219895   6.864   6.489   4.277
 6644TIP3    H119896   6.871   6.431   4.201
 6644TIP3    H219897   6.893   6.574   4.246
 6645TIP3   OH219898   3.768   0.108   5.291
 6645TIP3    H119899   3.849   0.094   5.242
 6645TIP3    H219900   3.749   0.023   5.331
 6646TIP3   OH219901   2.378   3.565   3.051
 6646TIP3    H119902   2.442   3.532   3.115
 6646TIP3    H219903   2.428   3.576   2.970
 6647TIP3   OH219904   3.659   2.954   0.448
 6647TIP3    H119905   3.631   2.904   0.371
 6647TIP3    H219906   3.752   2.932   0.457
 6648TIP3   OH219907   1.838   1.228   4.759
 6648TIP3    H119908   1.880   1.277   4.829
 6648TIP3    H219909   1.873   1.267   4.679
 6649TIP3   OH219910   6.127   1.635   0.496
 6649TIP3    H119911   6.190   1.645   0.425
 6649TIP3    H219912   6.118   1.723   0.533
 6650TIP3   OH219913   0.474   2.425   4.094
 6650TIP3    H119914   0.404   2.485   4.070
 6650TIP3    H219915   0.527   2.416   4.015
 6651TIP3   OH219916   6.241   2.957   0.973
 6651TIP3    H119917   6.311   3.022   0.964
 6651TIP3    H219918   6.188   2.968   0.894
 6652TIP3   OH219919   6.861   1.959   1.970
 6652TIP3    H119920   6.933   1.917   2.017
 6652TIP3    H219921   6.822   2.018   2.035
 6653TIP3   OH219922   4.744   2.952   1.140
 6653TIP3    H119923   4.740   2.891   1.213
 6653TIP3    H219924   4.725   2.899   1.063
 6654TIP3   OH219925   3.828   1.686   2.188
 6654TIP3    H119926   3.876   1.621   2.239
 6654TIP3    H219927   3.791   1.637   2.115
 6655TIP3   OH219928   4.404   5.150   4.982
 6655TIP3    H119929   4.379   5.092   5.055
 6655TIP3    H219930   4.364   5.110   4.905
 6656TIP3   OH219931   2.304   3.933   4.433
 6656TIP3    H119932   2.322   3.941   4.527
 6656TIP3    H219933   2.316   4.022   4.398
 6657TIP3   OH219934  -0.017   1.521   2.379
 6657TIP3    H119935   0.045   1.476   2.322
 6657TIP3    H219936  -0.029   1.607   2.338
 6658TIP3   OH219937   2.021   2.141   3.454
 6658TIP3    H119938   1.930   2.122   3.432
 6658TIP3    H219939   2.030   2.116   3.546
 6659TIP3   OH219940   4.556   2.452   3.750
 6659TIP3    H119941   4.558   2.471   3.844
 6659TIP3    H219942   4.632   2.397   3.735
 6660TIP3   OH219943   5.550   2.256   5.780
 6660TIP3    H119944   5.628   2.281   5.830
 6660TIP3    H219945   5.540   2.327   5.715
 6661TIP3   OH219946   4.036   6.383   3.697
 6661TIP3    H119947   4.012   6.455   3.755
 6661TIP3    H219948   3.980   6.393   3.620
 6662TIP3   OH219949   1.639   2.907   3.218
 6662TIP3    H119950   1.718   2.855   3.231
 6662TIP3    H219951   1.667   2.979   3.161
 6663TIP3   OH219952   6.115   1.495   5.041
 6663TIP3    H119953   6.086   1.582   5.069
 6663TIP3    H219954   6.033   1.448   5.020
 6664TIP3   OH219955   1.265   2.187   0.930
 6664TIP3    H119956   1.326   2.226   0.868
 6664TIP3    H219957   1.263   2.249   1.003
 6665TIP3   OH219958   6.868   2.754   0.695
 6665TIP3    H119959   6.864   2.836   0.745
 6665TIP3    H219960   6.781   2.715   0.706
 6666TIP3   OH219961   0.892   6.106   0.280
 6666TIP3    H119962   0.847   6.144   0.355
 6666TIP3    H219963   0.984   6.102   0.307
 6667TIP3   OH219964   3.224   0.118   3.378
 6667TIP3    H119965   3.278   0.047   3.343
 6667TIP3    H219966   3.228   0.187   3.312
 6668TIP3   OH219967   6.906   1.360   1.264
 6668TIP3    H119968   6.993   1.329   1.288
 6668TIP3    H219969   6.922   1.440   1.213
 6669TIP3   OH219970   4.138   2.702   5.618
 6669TIP3    H119971   4.225   2.723   5.654
 6669TIP3    H219972   4.156   2.658   5.535
 6670TIP3   OH219973   6.079   2.535   0.840
 6670TIP3    H119974   6.072   2.449   0.798
 6670TIP3    H219975   6.096   2.595   0.767
 6671TIP3   OH219976   5.799   1.046   2.288
 6671TIP3    H119977   5.712   1.060   2.250
 6671TIP3    H219978   5.858   1.089   2.227
 6672TIP3   OH219979   4.602   5.459   2.696
 6672TIP3    H119980   4.524   5.492   2.741
 6672TIP3    H219981   4.639   5.395   2.756
 6673TIP3   OH219982   1.517   5.954   3.454
 6673TIP3    H119983   1.583   5.885   3.459
 6673TIP3    H219984   1.565   6.034   3.476
 6674TIP3   OH219985   0.303   1.680   0.595
 6674TIP3    H119986   0.349   1.745   0.649
 6674TIP3    H219987   0.218   1.670   0.638
 6675TIP3   OH219988   0.595   5.451   2.816
 6675TIP3    H119989   0.502   5.474   2.818
 6675TIP3    H219990   0.601   5.377   2.756
 6676TIP3   OH219991   4.626   2.878   4.320
 6676TIP3    H119992   4.683   2.891   4.396
 6676TIP3    H219993   4.679   2.901   4.245
 6677TIP3   OH219994   6.865   0.940   4.921
 6677TIP3    H119995   6.941   0.918   4.975
 6677TIP3    H219996   6.813   0.999   4.976
 6678TIP3   OH219997   2.990   4.560   1.858
 6678TIP3    H119998   2.960   4.560   1.949
 6678TIP3    H219999   2.957   4.643   1.822
 6679TIP3   OH220000   0.691   4.821   2.046
 6679TIP3    H120001   0.650   4.828   2.132
 6679TIP3    H220002   0.746   4.899   2.039
 6680TIP3   OH220003   1.443   1.760   4.060
 6680TIP3    H120004   1.407   1.683   4.016
 6680TIP3    H220005   1.395   1.834   4.023
 6681TIP3   OH220006   4.765   6.472   4.852
 6681TIP3    H120007   4.674   6.450   4.832
 6681TIP3    H220008   4.778   6.445   4.943
 6682TIP3   OH220009   4.745   5.889   5.579
 6682TIP3    H120010   4.824   5.852   5.539
 6682TIP3    H220011   4.708   5.945   5.512
 6683TIP3   OH220012   2.240   0.895   3.607
 6683TIP3    H120013   2.151   0.921   3.584
 6683TIP3    H220014   2.284   0.884   3.523
 6684TIP3   OH220015   3.019   4.183   3.858
 6684TIP3    H120016   3.047   4.274   3.859
 6684TIP3    H220017   3.098   4.133   3.877
 6685TIP3   OH220018   6.292   1.350   5.155
 6685TIP3    H120019   6.259   1.325   5.241
 6685TIP3    H220020   6.219   1.398   5.114
 6686TIP3   OH220021   0.893   0.477   5.181
 6686TIP3    H120022   0.849   0.545   5.232
 6686TIP3    H220023   0.822   0.421   5.150
 6687TIP3   OH220024   2.753   5.829   3.830
 6687TIP3    H120025   2.775   5.842   3.738
 6687TIP3    H220026   2.825   5.870   3.878
 6688TIP3   OH220027   6.071   1.286   4.515
 6688TIP3    H120028   6.165   1.306   4.516
 6688TIP3    H220029   6.039   1.329   4.436
 6689TIP3   OH220030   4.032   5.331   4.851
 6689TIP3    H120031   4.072   5.303   4.769
 6689TIP3    H220032   4.056   5.263   4.914
 6690TIP3   OH220033   3.208   5.825   2.384
 6690TIP3    H120034   3.214   5.779   2.468
 6690TIP3    H220035   3.155   5.768   2.329
 6691TIP3   OH220036   2.148   3.669   5.856
 6691TIP3    H120037   2.144   3.621   5.773
 6691TIP3    H220038   2.077   3.632   5.908
 6692TIP3   OH220039   2.659   2.489   0.547
 6692TIP3    H120040   2.621   2.464   0.631
 6692TIP3    H220041   2.645   2.583   0.541
 6693TIP3   OH220042   3.904   2.100   1.836
 6693TIP3    H120043   3.965   2.165   1.800
 6693TIP3    H220044   3.860   2.147   1.908
 6694TIP3   OH220045   3.236   0.601   0.987
 6694TIP3    H120046   3.325   0.626   1.013
 6694TIP3    H220047   3.195   0.572   1.069
 6695TIP3   OH220048   6.075   4.849   0.846
 6695TIP3    H120049   6.149   4.906   0.825
 6695TIP3    H220050   6.086   4.831   0.940
 6696TIP3   OH220051   0.111   0.533   2.955
 6696TIP3    H120052   0.152   0.586   3.023
 6696TIP3    H220053   0.041   0.486   3.001
 6697TIP3   OH220054   4.823   6.675   5.340
 6697TIP3    H120055   4.883   6.661   5.413
 6697TIP3    H220056   4.738   6.644   5.372
 6698TIP3   OH220057   2.922   2.333   2.831
 6698TIP3    H120058   2.950   2.248   2.796
 6698TIP3    H220059   2.887   2.380   2.755
 6699TIP3   OH220060   2.332   1.568   1.605
 6699TIP3    H120061   2.319   1.644   1.663
 6699TIP3    H220062   2.385   1.508   1.657
 6700TIP3   OH220063   1.696   2.781   5.322
 6700TIP3    H120064   1.641   2.767   5.399
 6700TIP3    H220065   1.783   2.802   5.358
 6701TIP3   OH220066   4.050   2.883   1.518
 6701TIP3    H120067   4.031   2.902   1.426
 6701TIP3    H220068   4.129   2.933   1.537
 6702TIP3   OH220069   2.900   5.661   0.457
 6702TIP3    H120070   2.912   5.581   0.407
 6702TIP3    H220071   2.962   5.723   0.418
 6703TIP3   OH220072   4.567   1.890   3.751
 6703TIP3    H120073   4.661   1.908   3.743
 6703TIP3    H220074   4.529   1.974   3.779
 6704TIP3   OH220075   1.751   5.648   1.089
 6704TIP3    H120076   1.806   5.619   1.162
 6704TIP3    H220077   1.669   5.676   1.131
 6705TIP3   OH220078   2.293   0.486   3.633
 6705TIP3    H120079   2.323   0.530   3.713
 6705TIP3    H220080   2.351   0.410   3.624
 6706TIP3   OH220081   6.182   1.957   4.849
 6706TIP3    H120082   6.243   1.972   4.777
 6706TIP3    H220083   6.229   1.899   4.909
 6707TIP3   OH220084   2.045   0.689   4.767
 6707TIP3    H120085   1.998   0.714   4.847
 6707TIP3    H220086   1.987   0.718   4.696
 6708TIP3   OH220087   1.162   5.718   0.776
 6708TIP3    H120088   1.114   5.661   0.716
 6708TIP3    H220089   1.222   5.660   0.822
 6709TIP3   OH220090   5.639   4.016   0.995
 6709TIP3    H120091   5.544   4.012   0.993
 6709TIP3    H220092   5.660   4.108   0.977
 6710TIP3   OH220093   2.782   2.282   3.065
 6710TIP3    H120094   2.829   2.286   2.982
 6710TIP3    H220095   2.849   2.258   3.129
 6711TIP3   OH220096   0.006   3.820   2.595
 6711TIP3    H120097   0.084   3.814   2.650
 6711TIP3    H220098  -0.068   3.813   2.656
 6712TIP3   OH220099   5.475   3.194   3.977
 6712TIP3    H120100   5.555   3.143   3.992
 6712TIP3    H220101   5.404   3.132   3.995
 6713TIP3   OH220102   1.384   5.402   1.950
 6713TIP3    H120103   1.404   5.417   2.042
 6713TIP3    H220104   1.426   5.319   1.929
 6714TIP3   OH220105   3.742   2.834   3.679
 6714TIP3    H120106   3.662   2.882   3.659
 6714TIP3    H220107   3.713   2.762   3.736
 6715TIP3   OH220108   4.852   4.431   2.360
 6715TIP3    H120109   4.844   4.424   2.264
 6715TIP3    H220110   4.947   4.427   2.376
 6716TIP3   OH220111   5.507   0.399   5.084
 6716TIP3    H120112   5.550   0.358   5.009
 6716TIP3    H220113   5.573   0.398   5.153
 6717TIP3   OH220114   4.051   5.294   5.224
 6717TIP3    H120115   4.132   5.345   5.218
 6717TIP3    H220116   3.982   5.360   5.238
 6718TIP3   OH220117   1.102   0.660   2.181
 6718TIP3    H120118   1.140   0.745   2.159
 6718TIP3    H220119   1.035   0.681   2.246
 6719TIP3   OH220120   1.823   0.470   3.112
 6719TIP3    H120121   1.791   0.393   3.065
 6719TIP3    H220122   1.782   0.544   3.067
 6720TIP3   OH220123   5.106   5.655   0.618
 6720TIP3    H120124   5.143   5.618   0.698
 6720TIP3    H220125   5.182   5.669   0.561
 6721TIP3   OH220126   0.392   0.945   2.463
 6721TIP3    H120127   0.358   0.995   2.538
 6721TIP3    H220128   0.370   0.999   2.387
 6722TIP3   OH220129   2.859   3.114   4.995
 6722TIP3    H120130   2.825   3.139   4.909
 6722TIP3    H220131   2.930   3.176   5.012
 6723TIP3   OH220132   0.772   6.361   3.372
 6723TIP3    H120133   0.678   6.351   3.387
 6723TIP3    H220134   0.784   6.454   3.354
 6724TIP3   OH220135   5.751   2.179   2.396
 6724TIP3    H120136   5.662   2.212   2.393
 6724TIP3    H220137   5.743   2.086   2.374
 6725TIP3   OH220138   3.937   3.235   2.010
 6725TIP3    H120139   3.879   3.219   2.084
 6725TIP3    H220140   3.987   3.154   1.999
 6726TIP3   OH220141   3.016   1.538   5.293
 6726TIP3    H120142   3.082   1.470   5.308
 6726TIP3    H220143   3.067   1.616   5.269
 6727TIP3   OH220144   2.987   0.153   0.387
 6727TIP3    H120145   2.984   0.060   0.364
 6727TIP3    H220146   2.906   0.189   0.352
 6728TIP3   OH220147   3.073   5.968   4.363
 6728TIP3    H120148   3.048   5.883   4.329
 6728TIP3    H220149   3.023   5.978   4.444
 6729TIP3   OH220150   5.912   0.892   4.196
 6729TIP3    H120151   6.006   0.880   4.186
 6729TIP3    H220152   5.903   0.980   4.231
 6730TIP3   OH220153   4.805   3.813   0.930
 6730TIP3    H120154   4.876   3.876   0.941
 6730TIP3    H220155   4.737   3.844   0.990
 6731TIP3   OH220156   6.086   6.742   0.102
 6731TIP3    H120157   6.096   6.665   0.047
 6731TIP3    H220158   6.167   6.747   0.153
 6732TIP3   OH220159   4.270   5.821   5.458
 6732TIP3    H120160   4.324   5.788   5.386
 6732TIP3    H220161   4.259   5.914   5.440
 6733TIP3   OH220162   2.483   2.200   0.947
 6733TIP3    H120163   2.462   2.164   0.862
 6733TIP3    H220164   2.490   2.125   1.005
 6734TIP3   OH220165   0.051   0.780   2.865
 6734TIP3    H120166   0.087   0.693   2.882
 6734TIP3    H220167   0.128   0.834   2.846
 6735TIP3   OH220168   4.933   6.720   2.123
 6735TIP3    H120169   4.998   6.665   2.080
 6735TIP3    H220170   4.965   6.729   2.213
 6736TIP3   OH220171   2.365   0.470   4.759
 6736TIP3    H120172   2.281   0.449   4.800
 6736TIP3    H220173   2.350   0.557   4.720
 6737TIP3   OH220174   2.719   0.423   3.733
 6737TIP3    H120175   2.642   0.383   3.694
 6737TIP3    H220176   2.768   0.458   3.659
 6738TIP3   OH220177   3.116   5.243   3.100
 6738TIP3    H120178   3.199   5.264   3.058
 6738TIP3    H220179   3.054   5.307   3.064
 6739TIP3   OH220180   5.947   3.490   2.828
 6739TIP3    H120181   5.887   3.563   2.817
 6739TIP3    H220182   5.892   3.412   2.822
 6740TIP3   OH220183   3.788   3.149   2.479
 6740TIP3    H120184   3.701   3.113   2.463
 6740TIP3    H220185   3.772   3.227   2.533
 6741TIP3   OH220186   5.568   2.337   5.146
 6741TIP3    H120187   5.490   2.325   5.200
 6741TIP3    H220188   5.605   2.250   5.138
 6742TIP3   OH220189   3.071   1.902   3.353
 6742TIP3    H120190   3.091   1.966   3.422
 6742TIP3    H220191   2.976   1.897   3.351
 6743TIP3   OH220192   6.560   6.374   4.942
 6743TIP3    H120193   6.651   6.344   4.953
 6743TIP3    H220194   6.566   6.446   4.879
 6744TIP3   OH220195   2.587   1.815   2.925
 6744TIP3    H120196   2.643   1.738   2.924
 6744TIP3    H220197   2.513   1.791   2.869
 6745TIP3   OH220198   5.268   0.422   1.478
 6745TIP3    H120199   5.293   0.386   1.393
 6745TIP3    H220200   5.172   0.429   1.473
 6746TIP3   OH220201   3.656   3.514   5.596
 6746TIP3    H120202   3.698   3.594   5.626
 6746TIP3    H220203   3.727   3.458   5.566
 6747TIP3   OH220204   6.609   1.988   4.261
 6747TIP3    H120205   6.611   1.972   4.167
 6747TIP3    H220206   6.658   1.916   4.299
 6748TIP3   OH220207   1.205   0.180   4.409
 6748TIP3    H120208   1.197   0.182   4.313
 6748TIP3    H220209   1.124   0.221   4.440
 6749TIP3   OH220210   2.638   3.004   5.137
 6749TIP3    H120211   2.729   3.012   5.109
 6749TIP3    H220212   2.642   2.948   5.215
 6750TIP3   OH220213   3.297   5.231   1.642
 6750TIP3    H120214   3.329   5.193   1.724
 6750TIP3    H220215   3.375   5.240   1.588
 6751TIP3   OH220216   6.671   5.410   3.138
 6751TIP3    H120217   6.633   5.497   3.148
 6751TIP3    H220218   6.696   5.405   3.046
 6752TIP3   OH220219   7.087   5.742   4.143
 6752TIP3    H120220   7.068   5.668   4.085
 6752TIP3    H220221   7.176   5.726   4.174
 6753TIP3   OH220222   6.431   4.398   1.875
 6753TIP3    H120223   6.347   4.396   1.921
 6753TIP3    H220224   6.493   4.427   1.942
 6754TIP3   OH220225   0.932   1.013   4.171
 6754TIP3    H120226   0.916   0.922   4.193
 6754TIP3    H220227   0.949   1.013   4.077
 6755TIP3   OH220228   1.262   0.507   2.004
 6755TIP3    H120229   1.214   0.555   1.937
 6755TIP3    H220230   1.235   0.547   2.087
 6756TIP3   OH220231   3.107   0.595   0.323
 6756TIP3    H120232   3.083   0.589   0.230
 6756TIP3    H220233   3.196   0.561   0.326
 6757TIP3   OH220234   4.338   1.858   2.612
 6757TIP3    H120235   4.248   1.833   2.593
 6757TIP3    H220236   4.390   1.783   2.585
 6758TIP3   OH220237   1.835   3.052   2.525
 6758TIP3    H120238   1.830   3.009   2.611
 6758TIP3    H220239   1.902   3.119   2.535
 6759TIP3   OH220240   5.045   5.716   4.855
 6759TIP3    H120241   5.061   5.736   4.763
 6759TIP3    H220242   4.989   5.638   4.854
 6760TIP3   OH220243   5.216   2.661   0.123
 6760TIP3    H120244   5.232   2.722   0.051
 6760TIP3    H220245   5.247   2.576   0.090
 6761TIP3   OH220246   2.443   1.162   4.017
 6761TIP3    H120247   2.530   1.188   4.046
 6761TIP3    H220248   2.404   1.243   3.983
 6762TIP3   OH220249   5.699   6.746   5.699
 6762TIP3    H120250   5.764   6.685   5.734
 6762TIP3    H220251   5.732   6.769   5.612
 6763TIP3   OH220252   2.034   1.850   3.160
 6763TIP3    H120253   2.078   1.933   3.139
 6763TIP3    H220254   2.094   1.806   3.219
 6764TIP3   OH220255   2.294   5.999   0.728
 6764TIP3    H120256   2.305   6.020   0.821
 6764TIP3    H220257   2.354   5.926   0.713
 6765TIP3   OH220258   4.846   2.889   0.487
 6765TIP3    H120259   4.863   2.980   0.463
 6765TIP3    H220260   4.933   2.849   0.491
 6766TIP3   OH220261   0.740   6.438   1.122
 6766TIP3    H120262   0.671   6.503   1.110
 6766TIP3    H220263   0.734   6.381   1.045
 6767TIP3   OH220264   1.689   3.253   4.645
 6767TIP3    H120265   1.603   3.273   4.682
 6767TIP3    H220266   1.743   3.328   4.668
 6768TIP3   OH220267   5.116   2.740   4.294
 6768TIP3    H120268   5.031   2.726   4.336
 6768TIP3    H220269   5.123   2.836   4.288
 6769TIP3   OH220270   6.747   1.577   2.951
 6769TIP3    H120271   6.776   1.667   2.966
 6769TIP3    H220272   6.722   1.575   2.858
 6770TIP3   OH220273   5.195   3.451   0.743
 6770TIP3    H120274   5.267   3.389   0.731
 6770TIP3    H220275   5.208   3.516   0.673
 6771TIP3   OH220276   4.228   1.810   1.578
 6771TIP3    H120277   4.319   1.826   1.551
 6771TIP3    H220278   4.223   1.848   1.666
 6772TIP3   OH220279   2.880   6.486   1.849
 6772TIP3    H120280   2.895   6.393   1.863
 6772TIP3    H220281   2.820   6.512   1.918
 6773TIP3   OH220282   1.852   2.594   4.758
 6773TIP3    H120283   1.763   2.621   4.735
 6773TIP3    H220284   1.859   2.611   4.852
 6774TIP3   OH220285   6.413   1.237   4.901
 6774TIP3    H120286   6.347   1.259   4.967
 6774TIP3    H220287   6.369   1.176   4.842
 6775TIP3   OH220288   5.876   0.669   1.898
 6775TIP3    H120289   5.970   0.661   1.884
 6775TIP3    H220290   5.841   0.581   1.884
 6776TIP3   OH220291   6.502   5.405   1.658
 6776TIP3    H120292   6.542   5.329   1.701
 6776TIP3    H220293   6.515   5.390   1.565
 6777TIP3   OH220294   3.599   4.226   1.878
 6777TIP3    H120295   3.542   4.180   1.816
 6777TIP3    H220296   3.550   4.304   1.902
 6778TIP3   OH220297   2.827   4.892   5.793
 6778TIP3    H120298   2.789   4.805   5.777
 6778TIP3    H220299   2.862   4.887   5.882
 6779TIP3   OH220300   3.905   2.653   5.726
 6779TIP3    H120301   3.926   2.560   5.716
 6779TIP3    H220302   3.985   2.699   5.702
 6780TIP3   OH220303   1.739   5.544   0.822
 6780TIP3    H120304   1.738   5.563   0.916
 6780TIP3    H220305   1.669   5.599   0.786
 6781TIP3   OH220306   5.967   3.478   4.076
 6781TIP3    H120307   5.934   3.469   3.987
 6781TIP3    H220308   5.890   3.467   4.131
 6782TIP3   OH220309   4.872   3.557   0.617
 6782TIP3    H120310   4.937   3.542   0.548
 6782TIP3    H220311   4.788   3.536   0.576
 6783TIP3   OH220312   2.259   6.510   2.338
 6783TIP3    H120313   2.168   6.532   2.357
 6783TIP3    H220314   2.274   6.544   2.250
 6784TIP3   OH220315   0.232   4.443   1.574
 6784TIP3    H120316   0.268   4.364   1.614
 6784TIP3    H220317   0.303   4.477   1.519
 6785TIP3   OH220318   0.978   0.951   5.673
 6785TIP3    H120319   1.054   0.978   5.620
 6785TIP3    H220320   0.977   1.012   5.746
 6786TIP3   OH220321   3.400   3.424   1.613
 6786TIP3    H120322   3.316   3.469   1.607
 6786TIP3    H220323   3.441   3.460   1.691
 6787TIP3   OH220324   4.399   1.414   4.360
 6787TIP3    H120325   4.353   1.362   4.295
 6787TIP3    H220326   4.400   1.503   4.324
 6788TIP3   OH220327   0.756   4.614   2.322
 6788TIP3    H120328   0.682   4.647   2.271
 6788TIP3    H220329   0.786   4.537   2.275
 6789TIP3   OH220330   2.279   2.714   0.987
 6789TIP3    H120331   2.308   2.629   1.021
 6789TIP3    H220332   2.198   2.694   0.940
 6790TIP3   OH220333   2.324   6.710   2.919
 6790TIP3    H120334   2.364   6.790   2.887
 6790TIP3    H220335   2.373   6.689   2.999
 6791TIP3   OH220336   5.197   0.954   4.969
 6791TIP3    H120337   5.176   1.039   4.930
 6791TIP3    H220338   5.116   0.925   5.010
 6792TIP3   OH220339   5.140   4.039   3.483
 6792TIP3    H120340   5.066   3.989   3.448
 6792TIP3    H220341   5.213   3.978   3.481
 6793TIP3   OH220342   0.091   0.853   2.099
 6793TIP3    H120343   0.057   0.812   2.178
 6793TIP3    H220344   0.027   0.830   2.031
 6794TIP3   OH220345   3.961   1.470   5.148
 6794TIP3    H120346   4.054   1.460   5.130
 6794TIP3    H220347   3.920   1.396   5.104
 6795TIP3   OH220348   0.191   5.838   3.735
 6795TIP3    H120349   0.240   5.872   3.810
 6795TIP3    H220350   0.208   5.744   3.736
 6796TIP3   OH220351   6.266   1.219   0.166
 6796TIP3    H120352   6.208   1.143   0.177
 6796TIP3    H220353   6.305   1.207   0.079
 6797TIP3   OH220354   0.391   6.542   5.363
 6797TIP3    H120355   0.305   6.580   5.384
 6797TIP3    H220356   0.414   6.581   5.279
 6798TIP3   OH220357   5.621   2.848   3.775
 6798TIP3    H120358   5.628   2.784   3.846
 6798TIP3    H220359   5.526   2.862   3.764
 6799TIP3   OH220360   1.731   4.182   5.528
 6799TIP3    H120361   1.686   4.159   5.446
 6799TIP3    H220362   1.815   4.136   5.522
 6800TIP3   OH220363   7.071   6.263   3.101
 6800TIP3    H120364   6.996   6.265   3.041
 6800TIP3    H220365   7.042   6.209   3.174
 6801TIP3   OH220366   2.261   0.540   0.653
 6801TIP3    H120367   2.253   0.471   0.588
 6801TIP3    H220368   2.308   0.610   0.609
 6802TIP3   OH220369   1.244   6.368   4.642
 6802TIP3    H120370   1.150   6.361   4.658
 6802TIP3    H220371   1.281   6.379   4.730
 6803TIP3   OH220372   0.075   1.858   5.169
 6803TIP3    H120373  -0.006   1.826   5.129
 6803TIP3    H220374   0.114   1.781   5.209
 6804TIP3   OH220375   1.554   3.097   1.196
 6804TIP3    H120376   1.594   3.108   1.282
 6804TIP3    H220377   1.606   3.153   1.138
 6805TIP3   OH220378   2.786   0.442   4.840
 6805TIP3    H120379   2.748   0.521   4.877
 6805TIP3    H220380   2.755   0.441   4.749
 6806TIP3   OH220381   1.090   4.546   1.563
 6806TIP3    H120382   1.128   4.553   1.650
 6806TIP3    H220383   1.046   4.630   1.549
 6807TIP3   OH220384   3.459   3.358   1.976
 6807TIP3    H120385   3.444   3.290   1.909
 6807TIP3    H220386   3.450   3.312   2.059
 6808TIP3   OH220387   4.094   4.739   5.106
 6808TIP3    H120388   4.094   4.707   5.196
 6808TIP3    H220389   4.025   4.805   5.105
 6809TIP3   OH220390   5.285   2.255   0.651
 6809TIP3    H120391   5.246   2.193   0.713
 6809TIP3    H220392   5.220   2.326   0.645
 6810TIP3   OH220393   7.063   1.797   1.770
 6810TIP3    H120394   7.076   1.710   1.732
 6810TIP3    H220395   7.014   1.780   1.851
 6811TIP3   OH220396   6.110   4.942   2.044
 6811TIP3    H120397   6.096   4.850   2.019
 6811TIP3    H220398   6.118   4.939   2.139
 6812TIP3   OH220399   6.798   3.241   4.871
 6812TIP3    H120400   6.875   3.270   4.919
 6812TIP3    H220401   6.746   3.191   4.935
 6813TIP3   OH220402   2.572   2.727   0.635
 6813TIP3    H120403   2.609   2.815   0.627
 6813TIP3    H220404   2.549   2.718   0.727
 6814TIP3   OH220405   6.023   4.139   0.209
 6814TIP3    H120406   6.115   4.154   0.229
 6814TIP3    H220407   5.976   4.184   0.279
 6815TIP3   OH220408   2.682   3.945   5.735
 6815TIP3    H120409   2.662   3.915   5.823
 6815TIP3    H220410   2.758   4.002   5.745
 6816TIP3   OH220411   3.228   2.844   3.163
 6816TIP3    H120412   3.182   2.902   3.224
 6816TIP3    H220413   3.188   2.861   3.078
 6817TIP3   OH220414   0.899   2.052   1.962
 6817TIP3    H120415   0.830   2.091   1.909
 6817TIP3    H220416   0.973   2.042   1.901
 6818TIP3   OH220417   4.930   4.779   5.830
 6818TIP3    H120418   4.842   4.812   5.813
 6818TIP3    H220419   4.977   4.790   5.747
 6819TIP3   OH220420   0.059   1.828   0.979
 6819TIP3    H120421   0.077   1.906   0.927
 6819TIP3    H220422  -0.032   1.837   1.006
 6820TIP3   OH220423   0.606   4.697   5.434
 6820TIP3    H120424   0.580   4.607   5.411
 6820TIP3    H220425   0.699   4.700   5.413
 6821TIP3   OH220426   6.782   5.085   3.334
 6821TIP3    H120427   6.860   5.076   3.389
 6821TIP3    H220428   6.714   5.037   3.381
 6822TIP3   OH220429   5.466   6.690   0.158
 6822TIP3    H120430   5.495   6.759   0.218
 6822TIP3    H220431   5.421   6.737   0.088
 6823TIP3   OH220432   3.555   5.183   5.668
 6823TIP3    H120433   3.548   5.210   5.577
 6823TIP3    H220434   3.645   5.152   5.677
 6824TIP3   OH220435   3.592   0.393   0.228
 6824TIP3    H120436   3.642   0.400   0.309
 6824TIP3    H220437   3.506   0.429   0.250
 6825TIP3   OH220438   0.986   1.477   2.330
 6825TIP3    H120439   1.065   1.477   2.276
 6825TIP3    H220440   0.917   1.509   2.272
 6826TIP3   OH220441   4.181   3.716   3.041
 6826TIP3    H120442   4.229   3.633   3.043
 6826TIP3    H220443   4.171   3.736   2.948
 6827TIP3   OH220444   1.925   0.226   1.731
 6827TIP3    H120445   1.930   0.191   1.642
 6827TIP3    H220446   2.007   0.198   1.772
 6828TIP3   OH220447   5.199   0.041   1.629
 6828TIP3    H120448   5.223   0.125   1.669
 6828TIP3    H220449   5.283  -0.001   1.609
 6829TIP3   OH220450   2.219   2.628   5.084
 6829TIP3    H120451   2.207   2.714   5.044
 6829TIP3    H220452   2.210   2.644   5.178
 6830TIP3   OH220453   5.367   4.805   4.769
 6830TIP3    H120454   5.291   4.751   4.792
 6830TIP3    H220455   5.367   4.808   4.673
 6831TIP3   OH220456   5.839   0.674   0.070
 6831TIP3    H120457   5.913   0.715   0.026
 6831TIP3    H220458   5.791   0.630   0.000
 6832TIP3   OH220459   6.151   4.999   1.291
 6832TIP3    H120460   6.203   5.019   1.369
 6832TIP3    H220461   6.180   5.062   1.226
 6833TIP3   OH220462   6.646   0.138   2.454
 6833TIP3    H120463   6.592   0.060   2.441
 6833TIP3    H220464   6.734   0.111   2.429
 6834TIP3   OH220465   3.783   4.352   4.849
 6834TIP3    H120466   3.714   4.405   4.809
 6834TIP3    H220467   3.782   4.270   4.800
 6835TIP3   OH220468   6.868   6.052   5.232
 6835TIP3    H120469   6.781   6.021   5.257
 6835TIP3    H220470   6.882   6.129   5.288
 6836TIP3   OH220471   2.647   2.802   3.199
 6836TIP3    H120472   2.715   2.868   3.187
 6836TIP3    H220473   2.623   2.776   3.109
 6837TIP3   OH220474   2.581   1.311   0.969
 6837TIP3    H120475   2.622   1.320   0.883
 6837TIP3    H220476   2.562   1.218   0.978
 6838TIP3   OH220477   3.227   1.468   2.394
 6838TIP3    H120478   3.221   1.498   2.484
 6838TIP3    H220479   3.302   1.515   2.358
 6839TIP3   OH220480   1.766   4.569   4.463
 6839TIP3    H120481   1.829   4.547   4.531
 6839TIP3    H220482   1.713   4.640   4.501
 6840TIP3   OH220483   3.899   5.808   2.687
 6840TIP3    H120484   3.886   5.829   2.594
 6840TIP3    H220485   3.834   5.740   2.705
 6841TIP3   OH220486   6.258   0.734   2.475
 6841TIP3    H120487   6.256   0.752   2.569
 6841TIP3    H220488   6.177   0.772   2.442
 6842TIP3   OH220489   0.347   2.962   2.988
 6842TIP3    H120490   0.343   2.878   3.034
 6842TIP3    H220491   0.265   2.966   2.938
 6843TIP3   OH220492   6.933   6.799   3.908
 6843TIP3    H120493   6.849   6.817   3.949
 6843TIP3    H220494   6.941   6.704   3.909
 6844TIP3   OH220495   6.751   6.463   2.252
 6844TIP3    H120496   6.828   6.421   2.214
 6844TIP3    H220497   6.691   6.474   2.179
 6845TIP3   OH220498   6.276   6.510   4.418
 6845TIP3    H120499   6.253   6.603   4.411
 6845TIP3    H220500   6.342   6.497   4.350
 6846TIP3   OH220501   0.363   0.381   2.550
 6846TIP3    H120502   0.305   0.448   2.587
 6846TIP3    H220503   0.415   0.429   2.485
 6847TIP3   OH220504   3.780   1.320   5.513
 6847TIP3    H120505   3.788   1.309   5.418
 6847TIP3    H220506   3.687   1.310   5.531
 6848TIP3   OH220507   6.463   2.509   1.206
 6848TIP3    H120508   6.429   2.450   1.138
 6848TIP3    H220509   6.472   2.594   1.162
 6849TIP3   OH220510   1.308   0.327   2.698
 6849TIP3    H120511   1.351   0.323   2.784
 6849TIP3    H220512   1.371   0.372   2.642
 6850TIP3   OH220513   1.390   0.238   2.160
 6850TIP3    H120514   1.320   0.233   2.095
 6850TIP3    H220515   1.437   0.318   2.139
 6851TIP3   OH220516   0.891   3.919   5.071
 6851TIP3    H120517   0.939   3.842   5.100
 6851TIP3    H220518   0.870   3.967   5.152
 6852TIP3   OH220519   5.912   4.862   0.298
 6852TIP3    H120520   5.995   4.841   0.255
 6852TIP3    H220521   5.851   4.794   0.269
 6853TIP3   OH220522   5.884   3.057   2.882
 6853TIP3    H120523   5.827   3.132   2.864
 6853TIP3    H220524   5.914   3.071   2.971
 6854TIP3   OH220525   5.449   0.267   4.685
 6854TIP3    H120526   5.415   0.186   4.648
 6854TIP3    H220527   5.408   0.273   4.771
 6855TIP3   OH220528   3.902   0.618   1.097
 6855TIP3    H120529   3.881   0.527   1.120
 6855TIP3    H220530   3.870   0.628   1.008
 6856TIP3   OH220531   0.707   5.523   5.751
 6856TIP3    H120532   0.707   5.543   5.657
 6856TIP3    H220533   0.752   5.598   5.791
 6857TIP3   OH220534   6.790   0.095   3.523
 6857TIP3    H120535   6.782   0.031   3.452
 6857TIP3    H220536   6.717   0.155   3.510
 6858TIP3   OH220537   3.153   1.147   1.748
 6858TIP3    H120538   3.080   1.177   1.694
 6858TIP3    H220539   3.231   1.180   1.704
 6859TIP3   OH220540   2.633   0.625   0.564
 6859TIP3    H120541   2.637   0.560   0.634
 6859TIP3    H220542   2.610   0.575   0.486
 6860TIP3   OH220543   6.248   4.025   5.678
 6860TIP3    H120544   6.160   3.994   5.697
 6860TIP3    H220545   6.284   4.049   5.763
 6861TIP3   OH220546   4.617   4.552   3.574
 6861TIP3    H120547   4.561   4.621   3.536
 6861TIP3    H220548   4.589   4.472   3.529
 6862TIP3   OH220549   3.457   5.651   2.863
 6862TIP3    H120550   3.456   5.556   2.846
 6862TIP3    H220551   3.536   5.683   2.819
 6863TIP3   OH220552   2.762   6.590   3.487
 6863TIP3    H120553   2.668   6.597   3.468
 6863TIP3    H220554   2.787   6.504   3.452
 6864TIP3   OH220555   4.295   1.414   1.509
 6864TIP3    H120556   4.225   1.466   1.471
 6864TIP3    H220557   4.277   1.416   1.603
 6865TIP3   OH220558   4.446   6.787   4.381
 6865TIP3    H120559   4.526   6.759   4.427
 6865TIP3    H220560   4.427   6.714   4.322
 6866TIP3   OH220561   2.213   2.071   0.568
 6866TIP3    H120562   2.224   1.993   0.514
 6866TIP3    H220563   2.141   2.049   0.627
 6867TIP3   OH220564   0.063   2.506   2.704
 6867TIP3    H120565   0.138   2.449   2.684
 6867TIP3    H220566   0.063   2.513   2.799
 6868TIP3   OH220567   7.040   5.250   2.429
 6868TIP3    H120568   7.120   5.253   2.377
 6868TIP3    H220569   6.987   5.181   2.388
 6869TIP3   OH220570   6.216   3.992   1.181
 6869TIP3    H120571   6.233   3.899   1.173
 6869TIP3    H220572   6.123   4.002   1.158
 6870TIP3   OH220573   2.973   5.458   0.277
 6870TIP3    H120574   3.053   5.491   0.318
 6870TIP3    H220575   3.004   5.402   0.206
 6871TIP3   OH220576   7.033   1.423   0.094
 6871TIP3    H120577   6.975   1.488   0.054
 6871TIP3    H220578   7.121   1.456   0.076
 6872TIP3   OH220579   4.543   3.667   2.360
 6872TIP3    H120580   4.617   3.690   2.304
 6872TIP3    H220581   4.544   3.572   2.363
 6873TIP3   OH220582   7.203   5.290   0.975
 6873TIP3    H120583   7.125   5.240   0.999
 6873TIP3    H220584   7.210   5.281   0.880
 6874TIP3   OH220585   2.985   1.983   2.135
 6874TIP3    H120586   3.045   1.929   2.187
 6874TIP3    H220587   3.032   2.066   2.124
 6875TIP3   OH220588   5.541   3.547   1.843
 6875TIP3    H120589   5.591   3.610   1.895
 6875TIP3    H220590   5.557   3.573   1.752
 6876TIP3   OH220591   6.426   3.485   4.292
 6876TIP3    H120592   6.476   3.428   4.233
 6876TIP3    H220593   6.343   3.499   4.247
 6877TIP3   OH220594   3.505   3.624   1.862
 6877TIP3    H120595   3.428   3.666   1.902
 6877TIP3    H220596   3.518   3.545   1.914
 6878TIP3   OH220597   1.891   4.835   2.071
 6878TIP3    H120598   1.921   4.926   2.071
 6878TIP3    H220599   1.814   4.836   2.128
 6879TIP3   OH220600   3.167   3.113   0.702
 6879TIP3    H120601   3.233   3.065   0.752
 6879TIP3    H220602   3.177   3.204   0.730
 6880TIP3   OH220603   3.766   4.387   3.905
 6880TIP3    H120604   3.752   4.344   3.989
 6880TIP3    H220605   3.857   4.417   3.907
 6881TIP3   OH220606   3.279   3.906   4.517
 6881TIP3    H120607   3.237   3.970   4.575
 6881TIP3    H220608   3.309   3.837   4.577
 6882TIP3   OH220609   3.590   4.304   3.205
 6882TIP3    H120610   3.539   4.296   3.124
 6882TIP3    H220611   3.577   4.220   3.249
 6883TIP3   OH220612   2.687   1.855   2.420
 6883TIP3    H120613   2.670   1.923   2.355
 6883TIP3    H220614   2.770   1.816   2.391
 6884TIP3   OH220615   5.556   4.051   0.078
 6884TIP3    H120616   5.538   4.142   0.104
 6884TIP3    H220617   5.589   4.010   0.157
 6885TIP3   OH220618   1.900   2.903   1.035
 6885TIP3    H120619   1.922   2.879   0.945
 6885TIP3    H220620   1.851   2.985   1.026
 6886TIP3   OH220621   4.833   5.963   3.711
 6886TIP3    H120622   4.921   5.993   3.688
 6886TIP3    H220623   4.834   5.870   3.691
 6887TIP3   OH220624   5.137   1.390   4.318
 6887TIP3    H120625   5.101   1.415   4.233
 6887TIP3    H220626   5.094   1.307   4.339
 6888TIP3   OH220627   3.624   1.798   3.266
 6888TIP3    H120628   3.534   1.765   3.260
 6888TIP3    H220629   3.646   1.826   3.177
 6889TIP3   OH220630   5.683   5.143   1.743
 6889TIP3    H120631   5.604   5.093   1.762
 6889TIP3    H220632   5.755   5.088   1.773
 6890TIP3   OH220633   5.268   2.033   4.116
 6890TIP3    H120634   5.271   1.975   4.040
 6890TIP3    H220635   5.184   2.012   4.158
 6891TIP3   OH220636   0.318   4.547   3.678
 6891TIP3    H120637   0.252   4.510   3.619
 6891TIP3    H220638   0.277   4.545   3.764
 6892TIP3   OH220639   5.716   2.614   5.483
 6892TIP3    H120640   5.770   2.535   5.477
 6892TIP3    H220641   5.723   2.641   5.575
 6893TIP3   OH220642   0.594   2.067   3.821
 6893TIP3    H120643   0.674   2.030   3.859
 6893TIP3    H220644   0.614   2.160   3.810
 6894TIP3   OH220645   0.081   3.302   5.230
 6894TIP3    H120646   0.091   3.390   5.195
 6894TIP3    H220647   0.000   3.305   5.280
 6895TIP3   OH220648   0.369   5.364   0.639
 6895TIP3    H120649   0.297   5.401   0.690
 6895TIP3    H220650   0.434   5.339   0.705
 6896TIP3   OH220651   3.281   3.486   3.990
 6896TIP3    H120652   3.365   3.523   4.017
 6896TIP3    H220653   3.216   3.538   4.038
 6897TIP3   OH220654   5.038   5.372   0.493
 6897TIP3    H120655   5.056   5.442   0.431
 6897TIP3    H220656   5.124   5.343   0.522
 6898TIP3   OH220657   0.452   5.649   2.532
 6898TIP3    H120658   0.417   5.698   2.606
 6898TIP3    H220659   0.387   5.580   2.516
 6899TIP3   OH220660   3.329   5.468   4.355
 6899TIP3    H120661   3.403   5.511   4.311
 6899TIP3    H220662   3.341   5.375   4.336
 6900TIP3   OH220663   4.356   3.106   5.812
 6900TIP3    H120664   4.374   3.179   5.871
 6900TIP3    H220665   4.372   3.028   5.864
 6901TIP3   OH220666   1.363   1.555   2.340
 6901TIP3    H120667   1.374   1.501   2.262
 6901TIP3    H220668   1.322   1.496   2.404
 6902TIP3   OH220669   6.942   4.624   4.925
 6902TIP3    H120670   6.862   4.610   4.875
 6902TIP3    H220671   7.011   4.582   4.873
 6903TIP3   OH220672   3.964   3.676   2.521
 6903TIP3    H120673   3.955   3.591   2.477
 6903TIP3    H220674   4.040   3.717   2.480
 6904TIP3   OH220675   6.636   5.576   1.064
 6904TIP3    H120676   6.622   5.661   1.023
 6904TIP3    H220677   6.731   5.568   1.070
 6905TIP3   OH220678   5.719   1.647   1.031
 6905TIP3    H120679   5.722   1.631   1.126
 6905TIP3    H220680   5.637   1.607   1.002
 6906TIP3   OH220681   1.345   4.655   1.199
 6906TIP3    H120682   1.365   4.634   1.108
 6906TIP3    H220683   1.249   4.653   1.204
 6907TIP3   OH220684   5.949   2.126   3.904
 6907TIP3    H120685   5.855   2.136   3.890
 6907TIP3    H220686   5.980   2.215   3.917
 6908TIP3   OH220687   6.547   4.513   5.201
 6908TIP3    H120688   6.642   4.509   5.208
 6908TIP3    H220689   6.530   4.528   5.108
 6909TIP3   OH220690   2.112   5.267   3.191
 6909TIP3    H120691   2.041   5.331   3.201
 6909TIP3    H220692   2.189   5.320   3.170
 6910TIP3   OH220693   6.738   5.905   4.604
 6910TIP3    H120694   6.735   5.847   4.527
 6910TIP3    H220695   6.831   5.921   4.618
 6911TIP3   OH220696   6.647   2.954   1.800
 6911TIP3    H120697   6.588   2.887   1.835
 6911TIP3    H220698   6.730   2.938   1.845
 6912TIP3   OH220699   3.169   4.879   1.540
 6912TIP3    H120700   3.147   4.883   1.633
 6912TIP3    H220701   3.178   4.971   1.514
 6913TIP3   OH220702   4.275   3.948   3.990
 6913TIP3    H120703   4.305   3.983   3.906
 6913TIP3    H220704   4.275   4.023   4.049
 6914TIP3   OH220705   0.326   5.156   0.879
 6914TIP3    H120706   0.341   5.106   0.959
 6914TIP3    H220707   0.390   5.227   0.883
 6915TIP3   OH220708   2.011   4.005   3.367
 6915TIP3    H120709   1.933   4.056   3.347
 6915TIP3    H220710   1.978   3.921   3.398
 6916TIP3   OH220711   2.666   3.193   3.119
 6916TIP3    H120712   2.704   3.274   3.152
 6916TIP3    H220713   2.572   3.203   3.131
 6917TIP3   OH220714   4.018   1.564   5.796
 6917TIP3    H120715   4.042   1.577   5.888
 6917TIP3    H220716   3.925   1.544   5.798
 6918TIP3   OH220717   5.907   0.235   5.710
 6918TIP3    H120718   5.821   0.272   5.691
 6918TIP3    H220719   5.966   0.278   5.648
 6919TIP3   OH220720   5.493   2.904   0.592
 6919TIP3    H120721   5.582   2.918   0.623
 6919TIP3    H220722   5.441   2.970   0.638
 6920TIP3   OH220723   2.112   1.534   2.305
 6920TIP3    H120724   2.139   1.443   2.319
 6920TIP3    H220725   2.195   1.582   2.299
 6921TIP3   OH220726   6.720   1.955   5.233
 6921TIP3    H120727   6.776   1.914   5.299
 6921TIP3    H220728   6.725   2.049   5.254
 6922TIP3   OH220729   3.432   2.146   2.728
 6922TIP3    H120730   3.420   2.226   2.780
 6922TIP3    H220731   3.520   2.155   2.692
 6923TIP3   OH220732   5.695   1.156   0.830
 6923TIP3    H120733   5.704   1.065   0.857
 6923TIP3    H220734   5.615   1.159   0.779
 6924TIP3   OH220735   5.601   0.460   3.307
 6924TIP3    H120736   5.624   0.386   3.252
 6924TIP3    H220737   5.506   0.463   3.305
 6925TIP3   OH220738   4.495   0.265   2.487
 6925TIP3    H120739   4.540   0.200   2.433
 6925TIP3    H220740   4.410   0.277   2.444
 6926TIP3   OH220741   6.164   4.183   5.458
 6926TIP3    H120742   6.231   4.248   5.477
 6926TIP3    H220743   6.177   4.115   5.524
 6927TIP3   OH220744   3.005   3.931   4.186
 6927TIP3    H120745   3.071   3.905   4.251
 6927TIP3    H220746   2.935   3.867   4.196
 6928TIP3   OH220747   0.212   5.488   0.273
 6928TIP3    H120748   0.141   5.551   0.280
 6928TIP3    H220749   0.273   5.526   0.210
 6929TIP3   OH220750   1.496   3.061   3.548
 6929TIP3    H120751   1.575   3.016   3.580
 6929TIP3    H220752   1.475   3.015   3.466
 6930TIP3   OH220753   2.156   4.426   0.917
 6930TIP3    H120754   2.249   4.403   0.909
 6930TIP3    H220755   2.112   4.344   0.939
 6931TIP3   OH220756   5.050   1.707   4.150
 6931TIP3    H120757   5.050   1.726   4.056
 6931TIP3    H220758   5.043   1.612   4.156
 6932TIP3   OH220759   6.656   4.930   2.884
 6932TIP3    H120760   6.718   4.861   2.861
 6932TIP3    H220761   6.709   4.995   2.930
 6933TIP3   OH220762   3.858   0.074   3.442
 6933TIP3    H120763   3.944   0.076   3.485
 6933TIP3    H220764   3.797   0.105   3.508
 6934TIP3   OH220765   4.668   6.298   3.661
 6934TIP3    H120766   4.642   6.383   3.624
 6934TIP3    H220767   4.639   6.234   3.597
 6935TIP3   OH220768   6.110   6.096   0.853
 6935TIP3    H120769   6.014   6.094   0.861
 6935TIP3    H220770   6.142   6.066   0.939
 6936TIP3   OH220771   7.232   6.374   0.736
 6936TIP3    H120772   7.158   6.430   0.760
 6936TIP3    H220773   7.308   6.417   0.775
 6937TIP3   OH220774   0.586   5.213   5.171
 6937TIP3    H120775   0.564   5.245   5.083
 6937TIP3    H220776   0.547   5.277   5.230
 6938TIP3   OH220777   0.612   5.491   0.056
 6938TIP3    H120778   0.642   5.567   0.007
 6938TIP3    H220779   0.665   5.490   0.135
 6939TIP3   OH220780   1.142   3.418   2.469
 6939TIP3    H120781   1.221   3.396   2.518
 6939TIP3    H220782   1.080   3.348   2.490
 6940TIP3   OH220783   5.612   4.027   1.285
 6940TIP3    H120784   5.621   4.017   1.191
 6940TIP3    H220785   5.518   4.019   1.302
 6941TIP3   OH220786   2.667   0.768   1.964
 6941TIP3    H120787   2.596   0.744   2.024
 6941TIP3    H220788   2.628   0.759   1.877
 6942TIP3   OH220789   0.258   5.335   2.566
 6942TIP3    H120790   0.178   5.388   2.560
 6942TIP3    H220791   0.288   5.326   2.476
 6943TIP3   OH220792   6.410   1.296   4.511
 6943TIP3    H120793   6.456   1.373   4.545
 6943TIP3    H220794   6.479   1.244   4.470
 6944TIP3   OH220795   6.789   1.127   5.144
 6944TIP3    H120796   6.796   1.114   5.239
 6944TIP3    H220797   6.701   1.163   5.131
 6945TIP3   OH220798   3.989   0.947   4.032
 6945TIP3    H120799   3.962   0.865   4.075
 6945TIP3    H220800   4.084   0.946   4.037
 6946TIP3   OH220801   7.115   1.579   0.925
 6946TIP3    H120802   7.096   1.666   0.890
 6946TIP3    H220803   7.185   1.545   0.869
 6947TIP3   OH220804   3.539   2.923   1.914
 6947TIP3    H120805   3.594   3.000   1.900
 6947TIP3    H220806   3.597   2.849   1.899
 6948TIP3   OH220807   4.445   5.752   5.270
 6948TIP3    H120808   4.527   5.802   5.275
 6948TIP3    H220809   4.447   5.710   5.184
 6949TIP3   OH220810   3.421   3.171   1.784
 6949TIP3    H120811   3.511   3.163   1.751
 6949TIP3    H220812   3.380   3.237   1.727
 6950TIP3   OH220813   3.988   2.319   5.172
 6950TIP3    H120814   3.998   2.349   5.262
 6950TIP3    H220815   3.895   2.295   5.165
 6951TIP3   OH220816   3.591   1.262   1.073
 6951TIP3    H120817   3.660   1.297   1.017
 6951TIP3    H220818   3.533   1.214   1.013
 6952TIP3   OH220819   3.568   1.964   0.845
 6952TIP3    H120820   3.655   1.982   0.808
 6952TIP3    H220821   3.586   1.939   0.936
 6953TIP3   OH220822   1.068   4.655   1.237
 6953TIP3    H120823   1.030   4.569   1.252
 6953TIP3    H220824   1.032   4.711   1.306
 6954TIP3   OH220825   2.450   5.681   3.178
 6954TIP3    H120826   2.499   5.719   3.105
 6954TIP3    H220827   2.410   5.602   3.141
 6955TIP3   OH220828   0.606   1.950   5.336
 6955TIP3    H120829   0.655   2.016   5.288
 6955TIP3    H220830   0.667   1.877   5.346
 6956TIP3   OH220831   6.367   4.864   2.457
 6956TIP3    H120832   6.328   4.779   2.439
 6956TIP3    H220833   6.308   4.905   2.521
 6957TIP3   OH220834   5.644   0.864   3.173
 6957TIP3    H120835   5.579   0.933   3.158
 6957TIP3    H220836   5.608   0.787   3.129
 6958TIP3   OH220837   2.361   2.430   1.062
 6958TIP3    H120838   2.449   2.436   1.099
 6958TIP3    H220839   2.359   2.344   1.020
 6959TIP3   OH220840   0.375   4.935   0.212
 6959TIP3    H120841   0.335   4.931   0.125
 6959TIP3    H220842   0.349   5.020   0.247
 6960TIP3   OH220843   1.990   3.637   4.106
 6960TIP3    H120844   2.080   3.652   4.078
 6960TIP3    H220845   1.972   3.546   4.080
 6961TIP3   OH220846   4.502   3.288   3.134
 6961TIP3    H120847   4.563   3.361   3.141
 6961TIP3    H220848   4.462   3.281   3.221
 6962TIP3   OH220849   4.032   4.355   3.469
 6962TIP3    H120850   4.019   4.360   3.374
 6962TIP3    H220851   4.085   4.276   3.481
 6963TIP3   OH220852   4.056   5.434   5.771
 6963TIP3    H120853   4.075   5.404   5.682
 6963TIP3    H220854   4.139   5.469   5.803
 6964TIP3   OH220855   4.531   3.179   4.297
 6964TIP3    H120856   4.554   3.259   4.344
 6964TIP3    H220857   4.524   3.112   4.366
 6965TIP3   OH220858   6.334   1.436   1.528
 6965TIP3    H120859   6.383   1.363   1.491
 6965TIP3    H220860   6.401   1.498   1.556
 6966TIP3   OH220861   1.855   1.965   1.399
 6966TIP3    H120862   1.906   1.893   1.363
 6966TIP3    H220863   1.816   1.929   1.479
 6967TIP3   OH220864   1.734   3.113   3.843
 6967TIP3    H120865   1.666   3.052   3.869
 6967TIP3    H220866   1.695   3.200   3.856
 6968TIP3   OH220867   0.489   2.875   2.018
 6968TIP3    H120868   0.450   2.903   1.935
 6968TIP3    H220869   0.421   2.893   2.083
 6969TIP3   OH220870   5.354   0.777   1.305
 6969TIP3    H120871   5.392   0.826   1.378
 6969TIP3    H220872   5.383   0.824   1.226
 6970TIP3   OH220873   6.616   6.288   1.846
 6970TIP3    H120874   6.526   6.269   1.871
 6970TIP3    H220875   6.637   6.225   1.777
 6971TIP3   OH220876   6.757   0.126   0.122
 6971TIP3    H120877   6.697   0.052   0.129
 6971TIP3    H220878   6.744   0.176   0.202
 6972TIP3   OH220879   3.483   5.660   4.189
 6972TIP3    H120880   3.508   5.716   4.115
 6972TIP3    H220881   3.463   5.722   4.259
 6973TIP3   OH220882   3.887   0.735   1.358
 6973TIP3    H120883   3.960   0.796   1.358
 6973TIP3    H220884   3.877   0.708   1.267
 6974TIP3   OH220885   4.542   4.838   2.451
 6974TIP3    H120886   4.506   4.820   2.538
 6974TIP3    H220887   4.620   4.783   2.446
 6975TIP3   OH220888   0.530   3.387   2.406
 6975TIP3    H120889   0.537   3.376   2.312
 6975TIP3    H220890   0.608   3.437   2.431
 6976TIP3   OH220891   3.837   2.795   2.813
 6976TIP3    H120892   3.819   2.877   2.858
 6976TIP3    H220893   3.785   2.730   2.859
 6977TIP3   OH220894   0.715   0.470   2.159
 6977TIP3    H120895   0.760   0.531   2.101
 6977TIP3    H220896   0.774   0.395   2.165
 6978TIP3   OH220897   0.755   4.862   0.951
 6978TIP3    H120898   0.737   4.889   1.041
 6978TIP3    H220899   0.758   4.766   0.955
 6979TIP3   OH220900   1.866   4.471   0.358
 6979TIP3    H120901   1.826   4.543   0.310
 6979TIP3    H220902   1.944   4.449   0.308
 6980TIP3   OH220903   2.146   5.886   0.116
 6980TIP3    H120904   2.189   5.966   0.146
 6980TIP3    H220905   2.218   5.825   0.102
 6981TIP3   OH220906   5.134   2.905   4.837
 6981TIP3    H120907   5.164   2.814   4.840
 6981TIP3    H220908   5.060   2.909   4.898
 6982TIP3   OH220909   5.479   1.149   2.183
 6982TIP3    H120910   5.536   1.160   2.107
 6982TIP3    H220911   5.433   1.067   2.168
 6983TIP3   OH220912   0.796   5.280   3.475
 6983TIP3    H120913   0.755   5.193   3.476
 6983TIP3    H220914   0.746   5.330   3.411
 6984TIP3   OH220915   0.352   0.536   5.609
 6984TIP3    H120916   0.407   0.513   5.534
 6984TIP3    H220917   0.403   0.508   5.685
 6985TIP3   OH220918   0.495   4.033   4.044
 6985TIP3    H120919   0.402   4.036   4.066
 6985TIP3    H220920   0.528   3.954   4.087
 6986TIP3   OH220921   1.413   5.659   1.694
 6986TIP3    H120922   1.486   5.668   1.756
 6986TIP3    H220923   1.336   5.685   1.744
 6987TIP3   OH220924   1.729   1.141   3.531
 6987TIP3    H120925   1.702   1.050   3.541
 6987TIP3    H220926   1.687   1.169   3.450
 6988TIP3   OH220927   0.276   0.957   0.992
 6988TIP3    H120928   0.359   1.004   0.987
 6988TIP3    H220929   0.218   1.017   1.040
 6989TIP3   OH220930   5.199   2.312   1.730
 6989TIP3    H120931   5.148   2.284   1.806
 6989TIP3    H220932   5.229   2.230   1.690
 6990TIP3   OH220933   2.403   2.008   5.773
 6990TIP3    H120934   2.356   1.967   5.700
 6990TIP3    H220935   2.495   2.007   5.746
 6991TIP3   OH220936   5.593   6.735   2.969
 6991TIP3    H120937   5.554   6.773   2.890
 6991TIP3    H220938   5.658   6.799   2.997
 6992TIP3   OH220939   3.761   5.270   0.976
 6992TIP3    H120940   3.753   5.312   1.062
 6992TIP3    H220941   3.687   5.211   0.971
 6993TIP3   OH220942   2.345   5.534   0.810
 6993TIP3    H120943   2.280   5.604   0.813
 6993TIP3    H220944   2.355   5.507   0.902
 6994TIP3   OH220945   2.114   5.511   1.993
 6994TIP3    H120946   2.038   5.459   1.966
 6994TIP3    H220947   2.137   5.563   1.916
 6995TIP3   OH220948   2.785   5.196   3.514
 6995TIP3    H120949   2.696   5.165   3.500
 6995TIP3    H220950   2.814   5.227   3.428
 6996TIP3   OH220951   4.968   1.363   1.964
 6996TIP3    H120952   4.882   1.401   1.950
 6996TIP3    H220953   4.950   1.271   1.986
 6997TIP3   OH220954   3.939   1.915   1.351
 6997TIP3    H120955   4.024   1.955   1.370
 6997TIP3    H220956   3.890   1.983   1.305
 6998TIP3   OH220957   1.655   2.570   1.146
 6998TIP3    H120958   1.729   2.625   1.168
 6998TIP3    H220959   1.633   2.593   1.055
 6999TIP3   OH220960   5.389   0.074   4.410
 6999TIP3    H120961   5.480   0.053   4.431
 6999TIP3    H220962   5.337   0.024   4.473
 7000TIP3   OH220963   1.263   4.022   3.522
 7000TIP3    H120964   1.232   4.036   3.612
 7000TIP3    H220965   1.208   3.952   3.488
 7001TIP3   OH220966   7.020   6.058   1.987
 7001TIP3    H120967   6.931   6.094   1.982
 7001TIP3    H220968   7.074   6.125   1.946
 7002TIP3   OH220969   4.848   6.206   1.278
 7002TIP3    H120970   4.925   6.152   1.264
 7002TIP3    H220971   4.873   6.266   1.348
 7003TIP3   OH220972   0.973   3.566   4.280
 7003TIP3    H120973   0.925   3.512   4.217
 7003TIP3    H220974   0.909   3.628   4.313
 7004TIP3   OH220975   3.188   1.381   0.076
 7004TIP3    H120976   3.245   1.308   0.053
 7004TIP3    H220977   3.130   1.392   0.001
 7005TIP3   OH220978   5.272   1.646   1.704
 7005TIP3    H120979   5.315   1.636   1.619
 7005TIP3    H220980   5.240   1.559   1.726
 7006TIP3   OH220981   6.562   4.122   3.393
 7006TIP3    H120982   6.565   4.204   3.444
 7006TIP3    H220983   6.516   4.061   3.450
 7007TIP3   OH220984   7.046   3.808   1.235
 7007TIP3    H120985   6.993   3.780   1.161
 7007TIP3    H220986   7.078   3.727   1.274
 7008TIP3   OH220987   6.108   1.787   4.268
 7008TIP3    H120988   6.048   1.841   4.217
 7008TIP3    H220989   6.060   1.768   4.349
 7009TIP3   OH220990   1.501  -0.020   4.696
 7009TIP3    H120991   1.430   0.022   4.649
 7009TIP3    H220992   1.560  -0.052   4.628
 7010TIP3   OH220993   3.359   1.506   5.584
 7010TIP3    H120994   3.397   1.552   5.508
 7010TIP3    H220995   3.267   1.532   5.585
 7011TIP3   OH220996   2.439   6.022   5.333
 7011TIP3    H120997   2.475   6.090   5.275
 7011TIP3    H220998   2.417   5.950   5.273
 7012TIP3   OH220999   0.373   2.671   3.913
 7012TIP3    H121000   0.313   2.744   3.899
 7012TIP3    H221001   0.455   2.698   3.874
 7013TIP3   OH221002   3.480   2.620   2.740
 7013TIP3    H121003   3.429   2.544   2.711
 7013TIP3    H221004   3.428   2.658   2.811
 7014TIP3   OH221005   5.851   2.585   4.362
 7014TIP3    H121006   5.885   2.546   4.443
 7014TIP3    H221007   5.869   2.679   4.371
 7015TIP3   OH221008   3.829   0.225   1.856
 7015TIP3    H121009   3.880   0.304   1.839
 7015TIP3    H221010   3.830   0.216   1.952
 7016TIP3   OH221011   0.056   2.647   5.551
 7016TIP3    H121012   0.016   2.713   5.495
 7016TIP3    H221013   0.141   2.628   5.511
 7017TIP3   OH221014   5.920   6.472   1.219
 7017TIP3    H121015   6.007   6.479   1.180
 7017TIP3    H221016   5.871   6.544   1.180
 7018TIP3   OH221017   3.980   1.144   2.757
 7018TIP3    H121018   3.899   1.189   2.730
 7018TIP3    H221019   4.045   1.173   2.693
 7019TIP3   OH221020   5.764   2.530   5.125
 7019TIP3    H121021   5.683   2.479   5.129
 7019TIP3    H221022   5.735   2.621   5.131
 7020TIP3   OH221023   6.202   6.362   2.267
 7020TIP3    H121024   6.158   6.423   2.326
 7020TIP3    H221025   6.271   6.414   2.226
 7021TIP3   OH221026   5.017   0.565   0.302
 7021TIP3    H121027   4.946   0.626   0.281
 7021TIP3    H221028   4.972   0.483   0.322
 7022TIP3   OH221029   5.177   3.507   2.598
 7022TIP3    H121030   5.194   3.416   2.574
 7022TIP3    H221031   5.227   3.520   2.678
 7023TIP3   OH221032   1.447   1.842   3.441
 7023TIP3    H121033   1.486   1.917   3.486
 7023TIP3    H221034   1.518   1.777   3.438
 7024TIP3   OH221035   6.230   1.581   1.953
 7024TIP3    H121036   6.239   1.501   1.901
 7024TIP3    H221037   6.170   1.557   2.023
 7025TIP3   OH221038   6.830   6.681   1.986
 7025TIP3    H121039   6.738   6.669   1.963
 7025TIP3    H221040   6.876   6.677   1.902
 7026TIP3   OH221041   0.491   1.114   0.904
 7026TIP3    H121042   0.435   1.156   0.839
 7026TIP3    H221043   0.559   1.070   0.853
 7027TIP3   OH221044   0.736   6.535   3.960
 7027TIP3    H121045   0.699   6.461   4.009
 7027TIP3    H221046   0.812   6.563   4.012
 7028TIP3   OH221047   6.444   3.118   4.957
 7028TIP3    H121048   6.460   3.167   4.876
 7028TIP3    H221049   6.520   3.137   5.012
 7029TIP3   OH221050   4.180   6.193   1.589
 7029TIP3    H121051   4.101   6.157   1.547
 7029TIP3    H221052   4.147   6.246   1.661
 7030TIP3   OH221053   0.577   0.187   1.959
 7030TIP3    H121054   0.671   0.179   1.944
 7030TIP3    H221055   0.552   0.103   1.997
 7031TIP3   OH221056   2.695   0.971   3.954
 7031TIP3    H121057   2.601   0.979   3.937
 7031TIP3    H221058   2.706   0.881   3.985
 7032TIP3   OH221059   5.872   2.457   0.479
 7032TIP3    H121060   5.854   2.385   0.418
 7032TIP3    H221061   5.816   2.528   0.448
 7033TIP3   OH221062   2.428   6.289   2.132
 7033TIP3    H121063   2.457   6.375   2.161
 7033TIP3    H221064   2.489   6.265   2.062
 7034TIP3   OH221065   2.267   4.587   4.783
 7034TIP3    H121066   2.343   4.583   4.725
 7034TIP3    H221067   2.298   4.549   4.866
 7035TIP3   OH221068   1.805   4.899   5.393
 7035TIP3    H121069   1.736   4.965   5.406
 7035TIP3    H221070   1.834   4.912   5.302
 7036TIP3   OH221071   1.701   0.700   1.628
 7036TIP3    H121072   1.681   0.690   1.721
 7036TIP3    H221073   1.722   0.792   1.617
 7037TIP3   OH221074   1.126   0.749   4.006
 7037TIP3    H121075   1.038   0.766   3.974
 7037TIP3    H221076   1.125   0.783   4.096
 7038TIP3   OH221077   3.963   0.531   1.553
 7038TIP3    H121078   3.927   0.589   1.485
 7038TIP3    H221079   3.903   0.542   1.627
 7039TIP3   OH221080   1.780   0.807   5.686
 7039TIP3    H121081   1.686   0.800   5.702
 7039TIP3    H221082   1.810   0.717   5.682
 7040TIP3   OH221083   5.608   0.022   0.353
 7040TIP3    H121084   5.536  -0.011   0.299
 7040TIP3    H221085   5.682  -0.035   0.331
 7041TIP3   OH221086   1.444   5.388   1.081
 7041TIP3    H121087   1.533   5.364   1.107
 7041TIP3    H221088   1.389   5.323   1.125
 7042TIP3   OH221089   2.111   5.158   1.709
 7042TIP3    H121090   2.110   5.152   1.614
 7042TIP3    H221091   2.032   5.208   1.731
 7043TIP3   OH221092   6.328   0.829   4.910
 7043TIP3    H121093   6.423   0.835   4.903
 7043TIP3    H221094   6.296   0.909   4.868
 7044TIP3   OH221095   3.870   1.855   5.794
 7044TIP3    H121096   3.852   1.770   5.754
 7044TIP3    H221097   3.795   1.871   5.851
 7045TIP3   OH221098   6.372   5.059   1.903
 7045TIP3    H121099   6.290   5.010   1.914
 7045TIP3    H221100   6.359   5.138   1.955
 7046TIP3   OH221101   2.353   0.155   1.502
 7046TIP3    H121102   2.335   0.063   1.518
 7046TIP3    H221103   2.329   0.170   1.411
 7047TIP3   OH221104   1.978   2.467   2.245
 7047TIP3    H121105   2.019   2.525   2.180
 7047TIP3    H221106   2.037   2.472   2.321
 7048TIP3   OH221107   3.247   2.107   4.869
 7048TIP3    H121108   3.293   2.082   4.789
 7048TIP3    H221109   3.229   2.201   4.859
 7049TIP3   OH221110   5.255   2.964   2.043
 7049TIP3    H121111   5.325   3.028   2.057
 7049TIP3    H221112   5.178   3.018   2.026
 7050TIP3   OH221113   6.843   5.293   5.522
 7050TIP3    H121114   6.901   5.359   5.560
 7050TIP3    H221115   6.865   5.212   5.568
 7051TIP3   OH221116   1.505   2.691   5.537
 7051TIP3    H121117   1.492   2.742   5.617
 7051TIP3    H221118   1.417   2.665   5.511
 7052TIP3   OH221119   0.167   3.286   2.411
 7052TIP3    H121120   0.206   3.373   2.422
 7052TIP3    H221121   0.073   3.303   2.399
 7053TIP3   OH221122   1.491   3.279   4.081
 7053TIP3    H121123   1.432   3.206   4.064
 7053TIP3    H221124   1.480   3.298   4.174
 7054TIP3   OH221125   0.534   6.776   2.125
 7054TIP3    H121126   0.625   6.746   2.131
 7054TIP3    H221127   0.484   6.697   2.105
 7055TIP3   OH221128   5.819   0.604   4.232
 7055TIP3    H121129   5.794   0.584   4.322
 7055TIP3    H221130   5.914   0.611   4.235
 7056TIP3   OH221131   5.155   0.040   0.778
 7056TIP3    H121132   5.120  -0.048   0.770
 7056TIP3    H221133   5.221   0.034   0.846
 7057TIP3   OH221134   2.578   1.693   2.607
 7057TIP3    H121135   2.622   1.609   2.596
 7057TIP3    H221136   2.613   1.748   2.536
 7058TIP3   OH221137   1.508   0.031   0.247
 7058TIP3    H121138   1.528   0.085   0.324
 7058TIP3    H221139   1.591  -0.009   0.223
 7059TIP3   OH221140   5.618   3.593   4.651
 7059TIP3    H121141   5.671   3.637   4.718
 7059TIP3    H221142   5.620   3.500   4.676
 7060TIP3   OH221143   4.854   4.150   2.843
 7060TIP3    H121144   4.808   4.191   2.770
 7060TIP3    H221145   4.917   4.216   2.871
 7061TIP3   OH221146   0.148   5.865   2.105
 7061TIP3    H121147   0.063   5.822   2.107
 7061TIP3    H221148   0.163   5.883   2.012
 7062TIP3   OH221149   5.094   2.527   2.239
 7062TIP3    H121150   5.082   2.585   2.314
 7062TIP3    H221151   5.162   2.568   2.187
 7063TIP3   OH221152   2.553   2.333   2.851
 7063TIP3    H121153   2.576   2.425   2.866
 7063TIP3    H221154   2.631   2.285   2.879
 7064TIP3   OH221155   3.687   1.656   1.113
 7064TIP3    H121156   3.744   1.605   1.171
 7064TIP3    H221157   3.601   1.613   1.121
 7065TIP3   OH221158   3.866   1.485   3.007
 7065TIP3    H121159   3.869   1.402   2.960
 7065TIP3    H221160   3.891   1.464   3.097
 7066TIP3   OH221161   6.343   2.203   5.293
 7066TIP3    H121162   6.400   2.268   5.334
 7066TIP3    H221163   6.403   2.133   5.266
 7067TIP3   OH221164   4.815   1.376   3.606
 7067TIP3    H121165   4.867   1.300   3.581
 7067TIP3    H221166   4.877   1.431   3.656
 7068TIP3   OH221167   3.348   0.322   5.613
 7068TIP3    H121168   3.394   0.354   5.690
 7068TIP3    H221169   3.303   0.243   5.643
 7069TIP3   OH221170   6.152   2.655   4.102
 7069TIP3    H121171   6.175   2.709   4.178
 7069TIP3    H221172   6.163   2.565   4.133
 7070TIP3   OH221173   0.544   1.365   4.554
 7070TIP3    H121174   0.542   1.308   4.632
 7070TIP3    H221175   0.534   1.304   4.481
 7071TIP3   OH221176   2.810   1.246   2.314
 7071TIP3    H121177   2.770   1.214   2.233
 7071TIP3    H221178   2.892   1.286   2.287
 7072TIP3   OH221179   2.064   6.060   4.329
 7072TIP3    H121180   2.073   6.155   4.323
 7072TIP3    H221181   2.148   6.030   4.364
 7073TIP3   OH221182   3.835   4.688   1.895
 7073TIP3    H121183   3.752   4.701   1.942
 7073TIP3    H221184   3.887   4.633   1.954
 7074TIP3   OH221185   4.380   3.006   5.237
 7074TIP3    H121186   4.475   2.989   5.238
 7074TIP3    H221187   4.353   2.987   5.147
 7075TIP3   OH221188   2.802   4.481   5.104
 7075TIP3    H121189   2.785   4.446   5.017
 7075TIP3    H221190   2.876   4.430   5.136
 7076TIP3   OH221191   0.009   4.929   1.631
 7076TIP3    H121192   0.009   5.025   1.635
 7076TIP3    H221193   0.099   4.905   1.655
 7077TIP3   OH221194   7.113   4.831   5.461
 7077TIP3    H121195   7.160   4.758   5.421
 7077TIP3    H221196   7.161   4.848   5.542
 7078TIP3   OH221197   1.666   1.090   0.205
 7078TIP3    H121198   1.615   1.031   0.149
 7078TIP3    H221199   1.613   1.170   0.210
 7079TIP3   OH221200   3.126   3.628   0.849
 7079TIP3    H121201   3.067   3.621   0.924
 7079TIP3    H221202   3.213   3.609   0.886
 7080TIP3   OH221203   1.685   2.009   0.698
 7080TIP3    H121204   1.720   1.957   0.770
 7080TIP3    H221205   1.715   2.098   0.716
 7081TIP3   OH221206   6.823   6.528   3.129
 7081TIP3    H121207   6.762   6.592   3.167
 7081TIP3    H221208   6.907   6.549   3.169
 7082TIP3   OH221209   2.645   1.198   2.117
 7082TIP3    H121210   2.588   1.271   2.143
 7082TIP3    H221211   2.632   1.190   2.023
 7083TIP3   OH221212   3.576   0.525   0.693
 7083TIP3    H121213   3.604   0.482   0.774
 7083TIP3    H221214   3.497   0.478   0.666
 7084TIP3   OH221215   1.780   3.257   4.095
 7084TIP3    H121216   1.792   3.340   4.049
 7084TIP3    H221217   1.703   3.272   4.151
 7085TIP3   OH221218   0.387   6.052   4.542
 7085TIP3    H121219   0.400   6.026   4.633
 7085TIP3    H221220   0.364   6.145   4.546
 7086TIP3   OH221221   5.832   5.868   0.247
 7086TIP3    H121222   5.825   5.775   0.269
 7086TIP3    H221223   5.891   5.871   0.171
 7087TIP3   OH221224   1.525   4.005   4.169
 7087TIP3    H121225   1.459   4.072   4.185
 7087TIP3    H221226   1.542   4.009   4.075
 7088TIP3   OH221227   1.201   5.961   1.869
 7088TIP3    H121228   1.195   5.927   1.780
 7088TIP3    H221229   1.247   5.893   1.918
 7089TIP3   OH221230   5.806   0.035   2.462
 7089TIP3    H121231   5.800   0.055   2.369
 7089TIP3    H221232   5.730   0.079   2.501
 7090TIP3   OH221233   5.376   6.253   4.481
 7090TIP3    H121234   5.422   6.230   4.562
 7090TIP3    H221235   5.439   6.234   4.412
 7091TIP3   OH221236   1.249   2.766   1.854
 7091TIP3    H121237   1.203   2.850   1.853
 7091TIP3    H221238   1.194   2.710   1.909
 7092TIP3   OH221239   5.113   6.550   0.867
 7092TIP3    H121240   5.199   6.574   0.902
 7092TIP3    H221241   5.091   6.621   0.807
 7093TIP3   OH221242   6.146   2.644   1.427
 7093TIP3    H121243   6.155   2.648   1.332
 7093TIP3    H221244   6.228   2.604   1.457
 7094TIP3   OH221245   3.089   1.827   3.032
 7094TIP3    H121246   3.034   1.812   3.109
 7094TIP3    H221247   3.030   1.822   2.958
 7095TIP3   OH221248   3.643   5.963   4.957
 7095TIP3    H121249   3.563   5.994   4.916
 7095TIP3    H221250   3.652   5.872   4.928
 7096TIP3   OH221251   1.886   4.836   4.836
 7096TIP3    H121252   1.975   4.870   4.840
 7096TIP3    H221253   1.866   4.812   4.927
 7097TIP3   OH221254   2.507   6.202   0.110
 7097TIP3    H121255   2.577   6.211   0.174
 7097TIP3    H221256   2.549   6.219   0.025
 7098TIP3   OH221257   2.973   1.616   3.893
 7098TIP3    H121258   2.896   1.561   3.881
 7098TIP3    H221259   2.992   1.650   3.806
 7099TIP3   OH221260   3.607   4.444   1.515
 7099TIP3    H121261   3.513   4.457   1.527
 7099TIP3    H221262   3.614   4.377   1.447
 7100TIP3   OH221263   7.101   5.411   1.843
 7100TIP3    H121264   7.183   5.457   1.857
 7100TIP3    H221265   7.051   5.469   1.785
 7101TIP3   OH221266   4.352   5.349   4.176
 7101TIP3    H121267   4.307   5.310   4.101
 7101TIP3    H221268   4.284   5.400   4.220
 7102TIP3   OH221269   0.707   3.897   4.855
 7102TIP3    H121270   0.626   3.947   4.860
 7102TIP3    H221271   0.744   3.902   4.943
 7103TIP3   OH221272   3.787   5.610   4.378
 7103TIP3    H121273   3.824   5.695   4.401
 7103TIP3    H221274   3.833   5.548   4.436
 7104TIP3   OH221275   1.905   1.578   4.833
 7104TIP3    H121276   1.948   1.660   4.807
 7104TIP3    H221277   1.822   1.578   4.785
 7105TIP3   OH221278   4.352   3.891   2.147
 7105TIP3    H121279   4.420   3.926   2.205
 7105TIP3    H221280   4.356   3.797   2.158
 7106TIP3   OH221281   7.111   0.934   1.423
 7106TIP3    H121282   7.131   0.842   1.405
 7106TIP3    H221283   7.120   0.978   1.339
 7107TIP3   OH221284   2.483   1.295   5.818
 7107TIP3    H121285   2.495   1.346   5.738
 7107TIP3    H221286   2.565   1.248   5.830
 7108TIP3   OH221287   3.194   5.842   3.896
 7108TIP3    H121288   3.281   5.850   3.857
 7108TIP3    H221289   3.188   5.750   3.922
 7109TIP3   OH221290   4.727   2.827   1.379
 7109TIP3    H121291   4.689   2.743   1.407
 7109TIP3    H221292   4.668   2.893   1.415
 7110TIP3   OH221293   6.167   6.324   0.716
 7110TIP3    H121294   6.098   6.299   0.654
 7110TIP3    H221295   6.175   6.248   0.774
 7111TIP3   OH221296   1.841   0.164   0.414
 7111TIP3    H121297   1.846   0.077   0.455
 7111TIP3    H221298   1.831   0.224   0.487
 7112TIP3   OH221299   5.613   6.012   5.305
 7112TIP3    H121300   5.555   6.075   5.347
 7112TIP3    H221301   5.696   6.059   5.293
 7113TIP3   OH221302   2.300   4.569   2.145
 7113TIP3    H121303   2.387   4.610   2.143
 7113TIP3    H221304   2.307   4.496   2.084
 7114TIP3   OH221305   4.079   2.757   0.585
 7114TIP3    H121306   4.139   2.689   0.617
 7114TIP3    H221307   4.042   2.721   0.504
 7115TIP3   OH221308   5.196   6.720   3.975
 7115TIP3    H121309   5.105   6.735   3.948
 7115TIP3    H221310   5.204   6.624   3.979
 7116TIP3   OH221311   6.381   2.207   0.244
 7116TIP3    H121312   6.458   2.151   0.237
 7116TIP3    H221313   6.349   2.215   0.154
 7117TIP3   OH221314   5.231   1.165   4.169
 7117TIP3    H121315   5.186   1.108   4.107
 7117TIP3    H221316   5.203   1.253   4.146
 7118TIP3   OH221317   3.318   2.823   0.308
 7118TIP3    H121318   3.328   2.729   0.322
 7118TIP3    H221319   3.224   2.835   0.296
 7119TIP3   OH221320   1.531   0.064   2.339
 7119TIP3    H121321   1.605   0.107   2.381
 7119TIP3    H221322   1.485   0.134   2.292
 7120TIP3   OH221323   5.312   5.810   1.503
 7120TIP3    H121324   5.299   5.860   1.423
 7120TIP3    H221325   5.228   5.814   1.548
 7121TIP3   OH221326   6.111   6.446   2.636
 7121TIP3    H121327   6.086   6.502   2.709
 7121TIP3    H221328   6.034   6.442   2.580
 7122TIP3   OH221329   3.286   4.727   4.088
 7122TIP3    H121330   3.267   4.733   3.995
 7122TIP3    H221331   3.205   4.695   4.127
 7123TIP3   OH221332   1.076   3.638   0.266
 7123TIP3    H121333   1.161   3.671   0.295
 7123TIP3    H221334   1.093   3.602   0.179
 7124TIP3   OH221335   4.671   5.014   0.584
 7124TIP3    H121336   4.747   5.072   0.579
 7124TIP3    H221337   4.608   5.051   0.522
 7125TIP3   OH221338   6.462   4.590   4.928
 7125TIP3    H121339   6.455   4.678   4.966
 7125TIP3    H221340   6.373   4.556   4.929
 7126TIP3   OH221341   1.551   4.288   5.727
 7126TIP3    H121342   1.500   4.298   5.647
 7126TIP3    H221343   1.618   4.224   5.704
 7127TIP3   OH221344   3.831   0.726   4.109
 7127TIP3    H121345   3.861   0.635   4.106
 7127TIP3    H221346   3.857   0.757   4.195
 7128TIP3   OH221347   2.147   1.429   3.057
 7128TIP3    H121348   2.119   1.502   3.114
 7128TIP3    H221349   2.237   1.450   3.034
 7129TIP3   OH221350   2.377   4.770   1.847
 7129TIP3    H121351   2.442   4.835   1.823
 7129TIP3    H221352   2.406   4.689   1.804
 7130TIP3   OH221353   5.069   3.006   4.293
 7130TIP3    H121354   4.998   2.989   4.231
 7130TIP3    H221355   5.028   3.056   4.363
 7131TIP3   OH221356   5.252   4.853   2.741
 7131TIP3    H121357   5.314   4.925   2.733
 7131TIP3    H221358   5.284   4.800   2.814
 7132TIP3   OH221359   1.640   6.368   4.705
 7132TIP3    H121360   1.711   6.368   4.640
 7132TIP3    H221361   1.584   6.440   4.679
 7133TIP3   OH221362   6.923   4.885   4.972
 7133TIP3    H121363   6.967   4.911   5.052
 7133TIP3    H221364   6.955   4.796   4.954
 7134TIP3   OH221365   5.296   3.094   4.975
 7134TIP3    H121366   5.379   3.122   4.937
 7134TIP3    H221367   5.252   3.045   4.905
 7135TIP3   OH221368   4.750   3.993   0.418
 7135TIP3    H121369   4.715   3.915   0.375
 7135TIP3    H221370   4.719   3.987   0.508
 7136TIP3   OH221371   3.062   5.761   3.210
 7136TIP3    H121372   3.086   5.732   3.122
 7136TIP3    H221373   3.113   5.841   3.224
 7137TIP3   OH221374   5.285   2.371   4.286
 7137TIP3    H121375   5.295   2.289   4.335
 7137TIP3    H221376   5.368   2.417   4.300
 7138TIP3   OH221377   6.082   5.420   1.212
 7138TIP3    H121378   6.033   5.456   1.139
 7138TIP3    H221379   6.066   5.480   1.284
 7139TIP3   OH221380   1.331   5.619   5.412
 7139TIP3    H121381   1.247   5.574   5.409
 7139TIP3    H221382   1.364   5.617   5.322
 7140TIP3   OH221383   2.909   1.346   4.953
 7140TIP3    H121384   2.904   1.267   5.007
 7140TIP3    H221385   2.981   1.331   4.893
 7141TIP3   OH221386   6.812   2.923   5.507
 7141TIP3    H121387   6.811   2.888   5.596
 7141TIP3    H221388   6.730   2.892   5.469
 7142TIP3   OH221389   5.650   4.406   4.052
 7142TIP3    H121390   5.564   4.434   4.084
 7142TIP3    H221391   5.639   4.314   4.030
 7143TIP3   OH221392   3.945   5.094   5.869
 7143TIP3    H121393   3.953   5.002   5.844
 7143TIP3    H221394   3.851   5.107   5.885
 7144TIP3   OH221395   1.275   0.111   0.969
 7144TIP3    H121396   1.311   0.051   1.035
 7144TIP3    H221397   1.310   0.197   0.993
 7145TIP3   OH221398   0.235   2.672   0.370
 7145TIP3    H121399   0.187   2.614   0.429
 7145TIP3    H221400   0.175   2.745   0.353
 7146TIP3   OH221401   4.945   1.021   2.721
 7146TIP3    H121402   5.003   1.086   2.681
 7146TIP3    H221403   4.887   1.072   2.776
 7147TIP3   OH221404   1.696   5.306   2.568
 7147TIP3    H121405   1.715   5.286   2.659
 7147TIP3    H221406   1.601   5.317   2.564
 7148TIP3   OH221407   5.909   0.176   0.700
 7148TIP3    H121408   5.928   0.173   0.793
 7148TIP3    H221409   5.970   0.115   0.660
 7149TIP3   OH221410   0.836   0.439   0.228
 7149TIP3    H121411   0.855   0.530   0.208
 7149TIP3    H221412   0.740   0.435   0.231
 7150TIP3   OH221413   2.991   0.234   5.380
 7150TIP3    H121414   2.913   0.271   5.339
 7150TIP3    H221415   2.985   0.262   5.471
 7151TIP3   OH221416   1.242   6.460   5.127
 7151TIP3    H121417   1.188   6.521   5.177
 7151TIP3    H221418   1.236   6.377   5.175
 7152TIP3   OH221419   1.109   4.431   0.934
 7152TIP3    H121420   1.052   4.363   0.898
 7152TIP3    H221421   1.188   4.384   0.961
 7153TIP3   OH221422   4.191   2.446  -0.008
 7153TIP3    H121423   4.149   2.531   0.007
 7153TIP3    H221424   4.132   2.399  -0.066
 7154TIP3   OH221425   5.772   1.288   4.618
 7154TIP3    H121426   5.682   1.301   4.648
 7154TIP3    H221427   5.783   1.352   4.547
 7155TIP3   OH221428   3.136   3.829   5.024
 7155TIP3    H121429   3.199   3.881   5.074
 7155TIP3    H221430   3.050   3.854   5.060
 7156TIP3   OH221431   0.281   3.948   2.467
 7156TIP3    H121432   0.216   3.885   2.435
 7156TIP3    H221433   0.350   3.947   2.400
 7157TIP3   OH221434   5.691   3.926   0.694
 7157TIP3    H121435   5.684   4.021   0.689
 7157TIP3    H221436   5.618   3.900   0.751
 7158TIP3   OH221437   6.989   5.054   2.745
 7158TIP3    H121438   6.971   4.968   2.707
 7158TIP3    H221439   6.928   5.113   2.700
 7159TIP3   OH221440   1.420   2.930   0.690
 7159TIP3    H121441   1.385   2.944   0.778
 7159TIP3    H221442   1.353   2.879   0.645
 7160TIP3   OH221443   5.192   1.394   0.517
 7160TIP3    H121444   5.109   1.364   0.479
 7160TIP3    H221445   5.168   1.429   0.603
 7161TIP3   OH221446   3.274   5.675   0.374
 7161TIP3    H121447   3.210   5.737   0.340
 7161TIP3    H221448   3.350   5.684   0.316
 7162TIP3   OH221449   0.926   1.877   4.536
 7162TIP3    H121450   0.964   1.789   4.547
 7162TIP3    H221451   0.980   1.918   4.468
 7163TIP3   OH221452   3.481   4.575   4.856
 7163TIP3    H121453   3.503   4.531   4.938
 7163TIP3    H221454   3.463   4.666   4.881
 7164TIP3   OH221455   5.092   2.753   0.363
 7164TIP3    H121456   5.109   2.727   0.273
 7164TIP3    H221457   5.174   2.736   0.409
 7165TIP3   OH221458   6.439   1.200   1.464
 7165TIP3    H121459   6.396   1.192   1.379
 7165TIP3    H221460   6.533   1.199   1.444
 7166TIP3   OH221461   6.109   5.907   1.063
 7166TIP3    H121462   6.164   5.837   1.098
 7166TIP3    H221463   6.023   5.892   1.102
 7167TIP3   OH221464   2.834   1.454   3.308
 7167TIP3    H121465   2.805   1.420   3.392
 7167TIP3    H221466   2.810   1.546   3.309
 7168TIP3   OH221467   1.224   0.801   3.756
 7168TIP3    H121468   1.311   0.838   3.768
 7168TIP3    H221469   1.196   0.776   3.844
 7169TIP3   OH221470   2.730   1.015   2.493
 7169TIP3    H121471   2.766   1.037   2.407
 7169TIP3    H221472   2.786   0.944   2.524
 7170TIP3   OH221473   3.196   1.062   3.990
 7170TIP3    H121474   3.110   1.024   3.970
 7170TIP3    H221475   3.221   1.023   4.073
 7171TIP3   OH221476   6.275   3.100   0.298
 7171TIP3    H121477   6.207   3.147   0.347
 7171TIP3    H221478   6.261   3.127   0.207
 7172TIP3   OH221479   0.734   6.464   5.119
 7172TIP3    H121480   0.753   6.494   5.208
 7172TIP3    H221481   0.705   6.374   5.129
 7173TIP3   OH221482   5.362   0.705   3.154
 7173TIP3    H121483   5.349   0.615   3.124
 7173TIP3    H221484   5.277   0.747   3.138
 7174TIP3   OH221485   6.403   1.889   5.385
 7174TIP3    H121486   6.409   1.887   5.290
 7174TIP3    H221487   6.475   1.946   5.412
 7175TIP3   OH221488   1.074   5.140   5.728
 7175TIP3    H121489   1.015   5.215   5.726
 7175TIP3    H221490   1.073   5.112   5.820
 7176TIP3   OH221491   5.643   5.139   0.252
 7176TIP3    H121492   5.714   5.186   0.206
 7176TIP3    H221493   5.568   5.197   0.244
 7177TIP3   OH221494   0.299   0.464   3.808
 7177TIP3    H121495   0.263   0.376   3.798
 7177TIP3    H221496   0.384   0.451   3.851
 7178TIP3   OH221497   6.388   5.843   3.673
 7178TIP3    H121498   6.446   5.879   3.741
 7178TIP3    H221499   6.307   5.823   3.719
 7179TIP3   OH221500   5.691   1.770   4.145
 7179TIP3    H121501   5.708   1.789   4.053
 7179TIP3    H221502   5.770   1.798   4.191
 7180TIP3   OH221503   0.742   5.720   2.291
 7180TIP3    H121504   0.819   5.677   2.328
 7180TIP3    H221505   0.689   5.648   2.257
 7181TIP3   OH221506   4.088   1.389   0.814
 7181TIP3    H121507   4.142   1.408   0.890
 7181TIP3    H221508   4.143   1.335   0.758
 7182TIP3   OH221509   2.686   5.845   0.490
 7182TIP3    H121510   2.746   5.785   0.446
 7182TIP3    H221511   2.631   5.880   0.420
 7183TIP3   OH221512   5.289   3.392   5.476
 7183TIP3    H121513   5.248   3.442   5.547
 7183TIP3    H221514   5.232   3.406   5.401
 7184TIP3   OH221515   5.899   0.273   4.731
 7184TIP3    H121516   5.993   0.252   4.735
 7184TIP3    H221517   5.896   0.356   4.683
 7185TIP3   OH221518   1.292   3.040   3.789
 7185TIP3    H121519   1.387   3.032   3.785
 7185TIP3    H221520   1.263   3.046   3.698
 7186TIP3   OH221521   2.856   3.572   2.878
 7186TIP3    H121522   2.823   3.495   2.831
 7186TIP3    H221523   2.947   3.580   2.851
 7187TIP3   OH221524   4.157   0.612   4.364
 7187TIP3    H121525   4.156   0.590   4.271
 7187TIP3    H221526   4.183   0.531   4.407
 7188TIP3   OH221527   2.698   2.789   3.895
 7188TIP3    H121528   2.735   2.876   3.900
 7188TIP3    H221529   2.745   2.747   3.823
 7189TIP3   OH221530   2.831   5.339   5.279
 7189TIP3    H121531   2.836   5.384   5.363
 7189TIP3    H221532   2.855   5.249   5.299
 7190TIP3   OH221533   0.041   5.492   2.451
 7190TIP3    H121534   0.024   5.462   2.362
 7190TIP3    H221535   0.038   5.588   2.444
 7191TIP3   OH221536   1.729   4.854   5.872
 7191TIP3    H121537   1.736   4.821   5.782
 7191TIP3    H221538   1.748   4.947   5.864
 7192TIP3   OH221539   2.944   4.917   1.951
 7192TIP3    H121540   2.849   4.927   1.958
 7192TIP3    H221541   2.979   4.988   2.005
 7193TIP3   OH221542   4.380   5.916   4.947
 7193TIP3    H121543   4.468   5.924   4.984
 7193TIP3    H221544   4.378   5.828   4.909
 7194TIP3   OH221545   0.384   3.003   4.864
 7194TIP3    H121546   0.333   3.020   4.943
 7194TIP3    H221547   0.449   3.073   4.862
 7195TIP3   OH221548   5.190   4.280   3.361
 7195TIP3    H121549   5.220   4.329   3.438
 7195TIP3    H221550   5.150   4.201   3.396
 7196TIP3   OH221551   6.972   0.713   1.012
 7196TIP3    H121552   7.021   0.668   0.943
 7196TIP3    H221553   6.905   0.651   1.039
 7197TIP3   OH221554   5.409   3.101   2.464
 7197TIP3    H121555   5.469   3.160   2.510
 7197TIP3    H221556   5.409   3.132   2.373
 7198TIP3   OH221557   4.657   5.649   5.649
 7198TIP3    H121558   4.662   5.603   5.565
 7198TIP3    H221559   4.687   5.738   5.629
 7199TIP3   OH221560   1.104   4.982   4.263
 7199TIP3    H121561   1.151   5.034   4.198
 7199TIP3    H221562   1.152   4.899   4.267
 7200TIP3   OH221563   0.167   2.384   4.326
 7200TIP3    H121564   0.167   2.466   4.277
 7200TIP3    H221565   0.076   2.372   4.353
 7201TIP3   OH221566   2.141   5.326   4.138
 7201TIP3    H121567   2.119   5.393   4.073
 7201TIP3    H221568   2.232   5.305   4.121
 7202TIP3   OH221569   2.196   5.996   2.494
 7202TIP3    H121570   2.262   6.047   2.541
 7202TIP3    H221571   2.242   5.960   2.419
 7203TIP3   OH221572   2.389   5.711   2.086
 7203TIP3    H121573   2.424   5.707   2.174
 7203TIP3    H221574   2.315   5.651   2.086
 7204TIP3   OH221575   2.748   1.327   3.008
 7204TIP3    H121576   2.711   1.363   3.088
 7204TIP3    H221577   2.820   1.272   3.038
 7205TIP3   OH221578   3.198   5.508   1.998
 7205TIP3    H121579   3.266   5.524   1.933
 7205TIP3    H221580   3.121   5.484   1.947
 7206TIP3   OH221581   3.528   0.670   1.902
 7206TIP3    H121582   3.463   0.602   1.921
 7206TIP3    H221583   3.485   0.727   1.839
 7207TIP3   OH221584   0.893   1.608   0.917
 7207TIP3    H121585   0.911   1.694   0.878
 7207TIP3    H221586   0.877   1.627   1.010
 7208TIP3   OH221587   3.485   3.013   3.171
 7208TIP3    H121588   3.424   2.940   3.164
 7208TIP3    H221589   3.435   3.089   3.142
 7209TIP3   OH221590   6.325   5.313   3.597
 7209TIP3    H121591   6.256   5.366   3.639
 7209TIP3    H221592   6.339   5.355   3.512
 7210TIP3   OH221593   6.117   1.454   2.169
 7210TIP3    H121594   6.106   1.456   2.264
 7210TIP3    H221595   6.089   1.366   2.143
 7211TIP3   OH221596   4.087   1.113   4.881
 7211TIP3    H121597   4.075   1.199   4.842
 7211TIP3    H221598   4.063   1.125   4.973
 7212TIP3   OH221599   2.864   5.214   4.658
 7212TIP3    H121600   2.836   5.170   4.578
 7212TIP3    H221601   2.854   5.148   4.727
 7213TIP3   OH221602   0.697   3.512   1.042
 7213TIP3    H121603   0.727   3.534   0.954
 7213TIP3    H221604   0.610   3.473   1.029
 7214TIP3   OH221605   1.347   0.777   2.340
 7214TIP3    H121606   1.290   0.846   2.306
 7214TIP3    H221607   1.429   0.787   2.291
 7215TIP3   OH221608   6.356   2.025   1.596
 7215TIP3    H121609   6.433   2.001   1.648
 7215TIP3    H221610   6.359   2.121   1.594
 7216TIP3   OH221611   4.618   4.009   1.065
 7216TIP3    H121612   4.620   4.103   1.045
 7216TIP3    H221613   4.525   3.985   1.058
 7217TIP3   OH221614   4.815   1.682   2.168
 7217TIP3    H121615   4.759   1.684   2.246
 7217TIP3    H221616   4.880   1.750   2.185
 7218TIP3   OH221617   5.702   0.913   1.034
 7218TIP3    H121618   5.621   0.863   1.024
 7218TIP3    H221619   5.717   0.917   1.128
 7219TIP3   OH221620   1.908   2.091   0.030
 7219TIP3    H121621   1.977   2.157   0.035
 7219TIP3    H221622   1.945   2.014   0.075
 7220TIP3   OH221623   0.008   5.959   0.837
 7220TIP3    H121624   0.003   5.874   0.794
 7220TIP3    H221625   0.071   5.947   0.908
 7221TIP3   OH221626   4.222   6.646   3.731
 7221TIP3    H121627   4.181   6.608   3.808
 7221TIP3    H221628   4.208   6.741   3.741
 7222TIP3   OH221629   4.452   1.384   5.595
 7222TIP3    H121630   4.384   1.409   5.658
 7222TIP3    H221631   4.458   1.289   5.603
 7223TIP3   OH221632   3.842   0.329   0.015
 7223TIP3    H121633   3.770   0.380   0.052
 7223TIP3    H221634   3.916   0.390   0.014
 7224TIP3   OH221635   3.868   6.618   2.251
 7224TIP3    H121636   3.874   6.630   2.156
 7224TIP3    H221637   3.792   6.671   2.277
 7225TIP3   OH221638   5.005   0.512   3.986
 7225TIP3    H121639   5.080   0.555   3.945
 7225TIP3    H221640   4.965   0.579   4.041
 7226TIP3   OH221641   6.413   4.908   3.514
 7226TIP3    H121642   6.386   4.968   3.445
 7226TIP3    H221643   6.496   4.944   3.547
 7227TIP3   OH221644   4.035   3.987   5.672
 7227TIP3    H121645   4.037   3.930   5.595
 7227TIP3    H221646   4.003   3.931   5.743
 7228TIP3   OH221647   3.762   2.741   3.995
 7228TIP3    H121648   3.668   2.752   3.977
 7228TIP3    H221649   3.765   2.696   4.079
 7229TIP3   OH221650   7.051   0.446   1.726
 7229TIP3    H121651   6.966   0.479   1.755
 7229TIP3    H221652   7.064   0.365   1.775
 7230TIP3   OH221653   5.695   0.856   0.706
 7230TIP3    H121654   5.639   0.804   0.764
 7230TIP3    H221655   5.634   0.907   0.652
 7231TIP3   OH221656   4.667   6.788   0.985
 7231TIP3    H121657   4.579   6.824   0.974
 7231TIP3    H221658   4.683   6.793   1.079
 7232TIP3   OH221659   2.011   5.702   2.926
 7232TIP3    H121660   2.007   5.790   2.887
 7232TIP3    H221661   2.050   5.648   2.858
 7233TIP3   OH221662   6.218   0.105   3.108
 7233TIP3    H121663   6.210   0.088   3.202
 7233TIP3    H221664   6.251   0.195   3.103
 7234TIP3   OH221665   6.027   5.707   3.441
 7234TIP3    H121666   6.083   5.773   3.400
 7234TIP3    H221667   5.939   5.730   3.411
 7235TIP3   OH221668   6.662   5.886   4.302
 7235TIP3    H121669   6.626   5.797   4.304
 7235TIP3    H221670   6.756   5.873   4.313
 7236TIP3   OH221671   5.067   4.171   1.684
 7236TIP3    H121672   4.987   4.119   1.693
 7236TIP3    H221673   5.076   4.217   1.768
 7237TIP3   OH221674   0.756   5.097   4.577
 7237TIP3    H121675   0.806   5.018   4.557
 7237TIP3    H221676   0.820   5.168   4.575
 7238TIP3   OH221677   1.866   6.306   3.039
 7238TIP3    H121678   1.899   6.363   3.109
 7238TIP3    H221679   1.771   6.306   3.051
 7239TIP3   OH221680   5.552   3.286   4.364
 7239TIP3    H121681   5.590   3.356   4.311
 7239TIP3    H221682   5.467   3.269   4.323
 7240TIP3   OH221683   4.330   0.632   2.170
 7240TIP3    H121684   4.290   0.692   2.108
 7240TIP3    H221685   4.397   0.684   2.214
 7241TIP3   OH221686   5.276   4.337   3.110
 7241TIP3    H121687   5.338   4.405   3.135
 7241TIP3    H221688   5.237   4.308   3.193
 7242TIP3   OH221689   5.912   3.239   0.645
 7242TIP3    H121690   5.904   3.236   0.740
 7242TIP3    H221691   5.869   3.320   0.619
 7243TIP3   OH221692   4.003   5.592   4.025
 7243TIP3    H121693   4.052   5.614   4.104
 7243TIP3    H221694   3.921   5.553   4.056
 7244TIP3   OH221695   3.214   1.332   0.738
 7244TIP3    H121696   3.230   1.287   0.655
 7244TIP3    H221697   3.126   1.302   0.764
 7245TIP3   OH221698   7.123   4.656   4.326
 7245TIP3    H121699   7.047   4.707   4.300
 7245TIP3    H221700   7.091   4.597   4.394
 7246TIP3   OH221701   6.024   0.265   4.176
 7246TIP3    H121702   6.076   0.271   4.095
 7246TIP3    H221703   5.935   0.286   4.149
 7247TIP3   OH221704   6.996   3.476   2.400
 7247TIP3    H121705   7.042   3.559   2.389
 7247TIP3    H221706   6.926   3.479   2.336
 7248TIP3   OH221707   4.751   1.192   2.853
 7248TIP3    H121708   4.788   1.214   2.939
 7248TIP3    H221709   4.659   1.173   2.871
 7249TIP3   OH221710   4.839   0.163   1.575
 7249TIP3    H121711   4.755   0.194   1.541
 7249TIP3    H221712   4.816   0.094   1.637
 7250TIP3   OH221713   4.027   0.234   1.240
 7250TIP3    H121714   3.965   0.287   1.190
 7250TIP3    H221715   3.991   0.145   1.235
 7251TIP3   OH221716   1.920   3.535   0.831
 7251TIP3    H121717   1.986   3.512   0.896
 7251TIP3    H221718   1.950   3.619   0.795
 7252TIP3   OH221719   6.638   2.538   4.344
 7252TIP3    H121720   6.702   2.504   4.406
 7252TIP3    H221721   6.614   2.624   4.378
 7253TIP3   OH221722   0.755   3.367   4.983
 7253TIP3    H121723   0.726   3.416   4.906
 7253TIP3    H221724   0.685   3.303   4.997
 7254TIP3   OH221725  -0.010   6.169   1.109
 7254TIP3    H121726   0.083   6.184   1.099
 7254TIP3    H221727  -0.040   6.141   1.022
 7255TIP3   OH221728   0.211   6.030   4.324
 7255TIP3    H121729   0.265   5.984   4.389
 7255TIP3    H221730   0.175   6.105   4.372
 7256TIP3   OH221731   5.477   0.493   5.491
 7256TIP3    H121732   5.398   0.491   5.437
 7256TIP3    H221733   5.452   0.548   5.566
 7257TIP3   OH221734   7.013   2.184   3.553
 7257TIP3    H121735   7.023   2.249   3.622
 7257TIP3    H221736   7.022   2.234   3.472
 7258TIP3   OH221737   0.736   0.336   4.363
 7258TIP3    H121738   0.709   0.375   4.280
 7258TIP3    H221739   0.684   0.382   4.430
 7259TIP3   OH221740   4.002   5.735   0.124
 7259TIP3    H121741   3.972   5.792   0.195
 7259TIP3    H221742   3.922   5.703   0.083
 7260TIP3   OH221743   5.511   1.893   5.255
 7260TIP3    H121744   5.537   1.807   5.288
 7260TIP3    H221745   5.417   1.898   5.272
 7261TIP3   OH221746   4.795   0.327   1.998
 7261TIP3    H121747   4.726   0.330   2.063
 7261TIP3    H221748   4.851   0.402   2.018
 7262TIP3   OH221749   2.966   1.974   5.795
 7262TIP3    H121750   3.023   2.003   5.724
 7262TIP3    H221751   2.987   1.881   5.806
 7263TIP3   OH221752   2.232   5.801   0.474
 7263TIP3    H121753   2.298   5.847   0.527
 7263TIP3    H221754   2.281   5.728   0.436
 7264TIP3   OH221755   1.179   5.329   4.025
 7264TIP3    H121756   1.189   5.274   3.948
 7264TIP3    H221757   1.266   5.328   4.066
 7265TIP3   OH221758   0.909   6.317   0.078
 7265TIP3    H121759   0.913   6.261   0.156
 7265TIP3    H221760   0.828   6.290   0.034
 7266TIP3   OH221761   3.453   2.047   0.039
 7266TIP3    H121762   3.382   2.108   0.056
 7266TIP3    H221763   3.437   1.973   0.098
 7267TIP3   OH221764   5.508   4.930   5.222
 7267TIP3    H121765   5.538   5.012   5.183
 7267TIP3    H221766   5.515   4.866   5.152
 7268TIP3   OH221767   3.826   3.381   0.731
 7268TIP3    H121768   3.742   3.426   0.744
 7268TIP3    H221769   3.833   3.372   0.636
 7269TIP3   OH221770   3.544   3.661   0.129
 7269TIP3    H121771   3.587   3.689   0.048
 7269TIP3    H221772   3.613   3.617   0.179
 7270TIP3   OH221773   4.458   1.798   4.019
 7270TIP3    H121774   4.486   1.817   3.930
 7270TIP3    H221775   4.423   1.880   4.052
 7271TIP3   OH221776   5.552   2.262   1.331
 7271TIP3    H121777   5.531   2.239   1.241
 7271TIP3    H221778   5.480   2.318   1.359
 7272TIP3   OH221779   7.011   1.867   0.972
 7272TIP3    H121780   6.965   1.838   0.893
 7272TIP3    H221781   6.967   1.949   0.996
 7273TIP3   OH221782   5.706   3.906   5.590
 7273TIP3    H121783   5.768   3.889   5.519
 7273TIP3    H221784   5.620   3.901   5.548
 7274TIP3   OH221785   0.219   1.401   2.180
 7274TIP3    H121786   0.243   1.366   2.094
 7274TIP3    H221787   0.252   1.491   2.180
 7275TIP3   OH221788   6.077   5.427   4.465
 7275TIP3    H121789   6.010   5.487   4.430
 7275TIP3    H221790   6.102   5.373   4.390
 7276TIP3   OH221791   6.294   4.140   4.089
 7276TIP3    H121792   6.370   4.136   4.031
 7276TIP3    H221793   6.278   4.049   4.114
 7277TIP3   OH221794   5.856   3.487   0.616
 7277TIP3    H121795   5.943   3.529   0.613
 7277TIP3    H221796   5.802   3.548   0.666
 7278TIP3   OH221797   5.043   1.957   4.254
 7278TIP3    H121798   5.048   1.866   4.226
 7278TIP3    H221799   5.020   1.952   4.347
 7279TIP3   OH221800   1.378   1.544   0.979
 7279TIP3    H121801   1.344   1.545   0.889
 7279TIP3    H221802   1.307   1.581   1.032
 7280TIP3   OH221803   1.575   1.979   3.635
 7280TIP3    H121804   1.539   2.043   3.695
 7280TIP3    H221805   1.661   1.958   3.671
 7281TIP3   OH221806   3.589   1.045   2.906
 7281TIP3    H121807   3.494   1.033   2.912
 7281TIP3    H221808   3.625   0.973   2.957
 7282TIP3   OH221809   3.962   4.555   0.408
 7282TIP3    H121810   4.054   4.567   0.431
 7282TIP3    H221811   3.934   4.478   0.458
 7283TIP3   OH221812   6.766   3.004   1.385
 7283TIP3    H121813   6.809   3.078   1.428
 7283TIP3    H221814   6.693   2.983   1.443
 7284TIP3   OH221815   2.413   4.954   0.321
 7284TIP3    H121816   2.472   4.895   0.367
 7284TIP3    H221817   2.394   5.024   0.384
 7285TIP3   OH221818   7.150   3.162   3.084
 7285TIP3    H121819   7.199   3.242   3.102
 7285TIP3    H221820   7.191   3.095   3.140
 7286TIP3   OH221821   6.468   5.464   1.250
 7286TIP3    H121822   6.390   5.520   1.250
 7286TIP3    H221823   6.522   5.497   1.179
 7287TIP3   OH221824   0.510   4.370   1.808
 7287TIP3    H121825   0.449   4.298   1.793
 7287TIP3    H221826   0.585   4.330   1.852
 7288TIP3   OH221827   5.423   0.673   5.113
 7288TIP3    H121828   5.350   0.676   5.174
 7288TIP3    H221829   5.435   0.580   5.094
 7289TIP3   OH221830   3.385   5.301   0.677
 7289TIP3    H121831   3.398   5.302   0.582
 7289TIP3    H221832   3.323   5.229   0.692
 7290TIP3   OH221833   6.782   3.746   2.075
 7290TIP3    H121834   6.873   3.737   2.048
 7290TIP3    H221835   6.734   3.685   2.019
 7291TIP3   OH221836   3.839   6.657   5.545
 7291TIP3    H121837   3.830   6.718   5.472
 7291TIP3    H221838   3.817   6.571   5.507
 7292TIP3   OH221839   4.732   0.472   5.276
 7292TIP3    H121840   4.718   0.515   5.191
 7292TIP3    H221841   4.704   0.537   5.341
 7293TIP3   OH221842   6.259   3.453   2.334
 7293TIP3    H121843   6.184   3.502   2.365
 7293TIP3    H221844   6.251   3.453   2.238
 7294TIP3   OH221845   6.430   2.494   2.236
 7294TIP3    H121846   6.430   2.547   2.157
 7294TIP3    H221847   6.491   2.539   2.295
 7295TIP3   OH221848   3.518   5.373   4.112
 7295TIP3    H121849   3.583   5.444   4.108
 7295TIP3    H221850   3.524   5.330   4.027
 7296TIP3   OH221851   4.826   6.188   1.826
 7296TIP3    H121852   4.759   6.241   1.782
 7296TIP3    H221853   4.778   6.115   1.864
 7297TIP3   OH221854   3.066   3.798   1.707
 7297TIP3    H121855   3.069   3.857   1.631
 7297TIP3    H221856   2.994   3.830   1.760
 7298TIP3   OH221857   0.565   0.323   3.486
 7298TIP3    H121858   0.505   0.397   3.494
 7298TIP3    H221859   0.566   0.303   3.393
 7299TIP3   OH221860   1.067   3.135   0.764
 7299TIP3    H121861   1.040   3.046   0.742
 7299TIP3    H221862   1.110   3.168   0.684
 7300TIP3   OH221863   3.039   2.044   1.820
 7300TIP3    H121864   3.065   1.995   1.898
 7300TIP3    H221865   2.960   2.091   1.846
 7301TIP3   OH221866   1.825   3.476   3.608
 7301TIP3    H121867   1.773   3.529   3.547
 7301TIP3    H221868   1.911   3.469   3.566
 7302TIP3   OH221869   5.485   0.932   1.800
 7302TIP3    H121870   5.416   0.914   1.864
 7302TIP3    H221871   5.529   1.011   1.833
 7303TIP3   OH221872   5.172   5.239   4.410
 7303TIP3    H121873   5.131   5.309   4.359
 7303TIP3    H221874   5.101   5.178   4.430
 7304TIP3   OH221875   1.397   6.202   5.563
 7304TIP3    H121876   1.481   6.183   5.605
 7304TIP3    H221877   1.402   6.295   5.540
 7305TIP3   OH221878   1.075   6.254   1.237
 7305TIP3    H121879   1.002   6.291   1.286
 7305TIP3    H221880   1.038   6.178   1.191
 7306TIP3   OH221881   6.091   2.633   4.581
 7306TIP3    H121882   6.019   2.574   4.600
 7306TIP3    H221883   6.169   2.588   4.615
 7307TIP3   OH221884   5.969   2.351   1.151
 7307TIP3    H121885   6.051   2.398   1.137
 7307TIP3    H221886   5.971   2.281   1.085
 7308TIP3   OH221887   2.314   2.694   0.499
 7308TIP3    H121888   2.376   2.763   0.524
 7308TIP3    H221889   2.318   2.693   0.403
 7309TIP3   OH221890   3.799   1.167   4.524
 7309TIP3    H121891   3.860   1.240   4.512
 7309TIP3    H221892   3.825   1.103   4.459
 7310TIP3   OH221893   3.547   0.587   1.412
 7310TIP3    H121894   3.483   0.651   1.381
 7310TIP3    H221895   3.617   0.640   1.452
 7311TIP3   OH221896   6.119   1.749   1.409
 7311TIP3    H121897   6.092   1.657   1.412
 7311TIP3    H221898   6.192   1.750   1.347
 7312TIP3   OH221899   1.586   6.204   4.920
 7312TIP3    H121900   1.618   6.251   4.843
 7312TIP3    H221901   1.581   6.113   4.892
 7313TIP3   OH221902   4.335   1.256   1.037
 7313TIP3    H121903   4.363   1.342   1.069
 7313TIP3    H221904   4.337   1.200   1.114
 7314TIP3   OH221905   3.417   0.022   4.959
 7314TIP3    H121906   3.472   0.087   5.003
 7314TIP3    H221907   3.479  -0.032   4.910
 7315TIP3   OH221908   2.731   4.252   3.612
 7315TIP3    H121909   2.762   4.305   3.686
 7315TIP3    H221910   2.749   4.306   3.535
 7316TIP3   OH221911   5.959   1.681   4.494
 7316TIP3    H121912   5.935   1.767   4.528
 7316TIP3    H221913   5.876   1.636   4.481
 7317TIP3   OH221914   2.759   4.714   2.270
 7317TIP3    H121915   2.803   4.705   2.355
 7317TIP3    H221916   2.743   4.808   2.261
 7318TIP3   OH221917   3.931   6.182   5.416
 7318TIP3    H121918   3.954   6.275   5.415
 7318TIP3    H221919   4.014   6.136   5.401
 7319TIP3   OH221920   6.214   5.234   4.622
 7319TIP3    H121921   6.274   5.279   4.683
 7319TIP3    H221922   6.174   5.305   4.572
 7320TIP3   OH221923   5.137   0.786   3.498
 7320TIP3    H121924   5.145   0.699   3.460
 7320TIP3    H221925   5.202   0.839   3.451
 7321TIP3   OH221926   3.321   4.158   2.349
 7321TIP3    H121927   3.228   4.174   2.362
 7321TIP3    H221928   3.324   4.087   2.284
 7322TIP3   OH221929   2.549   1.282   2.620
 7322TIP3    H121930   2.578   1.371   2.600
 7322TIP3    H221931   2.514   1.250   2.537
 7323TIP3   OH221932   0.407   3.533   4.014
 7323TIP3    H121933   0.394   3.448   3.972
 7323TIP3    H221934   0.498   3.555   3.995
 7324TIP3   OH221935   2.943   1.531   1.500
 7324TIP3    H121936   2.989   1.459   1.457
 7324TIP3    H221937   3.002   1.560   1.569
 7325TIP3   OH221938   0.940   5.627   0.619
 7325TIP3    H121939   0.873   5.686   0.584
 7325TIP3    H221940   0.934   5.549   0.563
 7326TIP3   OH221941   0.602   2.848   4.029
 7326TIP3    H121942   0.582   2.822   3.939
 7326TIP3    H221943   0.697   2.841   4.036
 7327TIP3   OH221944   5.868   0.053   1.765
 7327TIP3    H121945   5.775   0.052   1.788
 7327TIP3    H221946   5.910   0.099   1.837
 7328TIP3   OH221947   1.726   1.598   5.191
 7328TIP3    H121948   1.664   1.586   5.120
 7328TIP3    H221949   1.716   1.690   5.217
 7329TIP3   OH221950   3.132   2.942   1.333
 7329TIP3    H121951   3.046   2.980   1.315
 7329TIP3    H221952   3.187   2.969   1.259
 7330TIP3   OH221953   5.733   0.598   5.457
 7330TIP3    H121954   5.752   0.646   5.538
 7330TIP3    H221955   5.641   0.573   5.464
 7331TIP3   OH221956   4.059   1.998   0.045
 7331TIP3    H121957   4.007   2.078   0.035
 7331TIP3    H221958   4.146   2.022   0.013
 7332TIP3   OH221959   4.238   3.066   2.336
 7332TIP3    H121960   4.143   3.079   2.331
 7332TIP3    H221961   4.249   2.972   2.347
 7333TIP3   OH221962   2.316   3.347   3.365
 7333TIP3    H121963   2.395   3.373   3.318
 7333TIP3    H221964   2.244   3.382   3.313
 7334TIP3   OH221965   3.999   6.395   2.362
 7334TIP3    H121966   3.953   6.471   2.328
 7334TIP3    H221967   3.928   6.335   2.390
 7335TIP3   OH221968   1.963   0.687   2.299
 7335TIP3    H121969   2.030   0.710   2.364
 7335TIP3    H221970   1.978   0.750   2.228
 7336TIP3   OH221971   3.169   4.939   4.694
 7336TIP3    H121972   3.240   4.888   4.655
 7336TIP3    H221973   3.160   4.903   4.783
 7337TIP3   OH221974   4.355   2.868   3.408
 7337TIP3    H121975   4.431   2.812   3.389
 7337TIP3    H221976   4.387   2.930   3.473
 7338TIP3   OH221977   2.208   6.329   2.657
 7338TIP3    H121978   2.198   6.423   2.672
 7338TIP3    H221979   2.120   6.293   2.671
 7339TIP3   OH221980   5.431   3.682   4.424
 7339TIP3    H121981   5.419   3.755   4.484
 7339TIP3    H221982   5.363   3.693   4.358
 7340TIP3   OH221983   6.822   6.526   4.972
 7340TIP3    H121984   6.736   6.562   4.952
 7340TIP3    H221985   6.866   6.593   5.024
 7341TIP3   OH221986   5.347   6.754   2.214
 7341TIP3    H121987   5.439   6.779   2.216
 7341TIP3    H221988   5.313   6.782   2.299
 7342TIP3   OH221989   2.135   5.745   0.777
 7342TIP3    H121990   2.150   5.830   0.819
 7342TIP3    H221991   2.154   5.760   0.685
 7343TIP3   OH221992   4.851   4.373   0.995
 7343TIP3    H121993   4.856   4.458   0.952
 7343TIP3    H221994   4.854   4.393   1.089
 7344TIP3   OH221995   1.107   4.113   0.433
 7344TIP3    H121996   1.177   4.065   0.477
 7344TIP3    H221997   1.028   4.062   0.452
 7345TIP3   OH221998   0.148   2.554   4.587
 7345TIP3    H121999   0.161   2.648   4.578
 7345TIP3    H222000   0.144   2.521   4.498
 7346TIP3   OH222001   2.221   3.670   5.040
 7346TIP3    H122002   2.271   3.598   5.079
 7346TIP3    H222003   2.284   3.742   5.034
 7347TIP3   OH222004   5.235   3.245   0.345
 7347TIP3    H122005   5.242   3.152   0.325
 7347TIP3    H222006   5.250   3.289   0.261
 7348TIP3   OH222007   1.603   4.543   5.825
 7348TIP3    H122008   1.579   4.454   5.800
 7348TIP3    H222009   1.671   4.567   5.762
 7349TIP3   OH222010   2.199   4.724   5.129
 7349TIP3    H122011   2.119   4.673   5.117
 7349TIP3    H222012   2.174   4.793   5.190
 7350TIP3   OH222013   0.427   3.970   4.862
 7350TIP3    H122014   0.353   3.913   4.884
 7350TIP3    H222015   0.417   3.985   4.768
 7351TIP3   OH222016   2.238   5.771   4.182
 7351TIP3    H122017   2.311   5.723   4.222
 7351TIP3    H222018   2.227   5.730   4.096
 7352TIP3   OH222019   0.383   3.285   3.876
 7352TIP3    H122020   0.445   3.236   3.930
 7352TIP3    H222021   0.410   3.267   3.786
 7353TIP3   OH222022   3.949   5.864   0.377
 7353TIP3    H122023   3.936   5.921   0.453
 7353TIP3    H222024   4.012   5.911   0.323
 7354TIP3   OH222025   4.323   4.394   3.697
 7354TIP3    H122026   4.410   4.372   3.664
 7354TIP3    H222027   4.285   4.450   3.628
 7355TIP3   OH222028   1.506   3.720   0.973
 7355TIP3    H122029   1.570   3.763   0.915
 7355TIP3    H222030   1.437   3.785   0.984
 7356TIP3   OH222031   1.659   4.952   3.000
 7356TIP3    H122032   1.653   5.017   2.930
 7356TIP3    H222033   1.692   5.001   3.075
 7357TIP3   OH222034   4.455   0.103   4.942
 7357TIP3    H122035   4.516   0.040   4.980
 7357TIP3    H222036   4.507   0.182   4.930
 7358TIP3   OH222037   5.505   4.910   2.275
 7358TIP3    H122038   5.465   4.832   2.311
 7358TIP3    H222039   5.457   4.983   2.315
 7359TIP3   OH222040   4.372   1.445   3.206
 7359TIP3    H122041   4.452   1.409   3.244
 7359TIP3    H222042   4.303   1.417   3.265
 7360TIP3   OH222043   2.573   4.987   1.736
 7360TIP3    H122044   2.568   5.037   1.817
 7360TIP3    H222045   2.537   5.046   1.669
 7361TIP3   OH222046   6.980   4.553   1.864
 7361TIP3    H122047   7.050   4.553   1.799
 7361TIP3    H222048   6.954   4.461   1.870
 7362TIP3   OH222049   1.360   4.926   0.910
 7362TIP3    H122050   1.293   4.861   0.930
 7362TIP3    H222051   1.414   4.885   0.842
 7363TIP3   OH222052   0.522   3.358   2.109
 7363TIP3    H122053   0.529   3.433   2.050
 7363TIP3    H222054   0.579   3.292   2.069
 7364TIP3   OH222055   2.298   0.717   3.016
 7364TIP3    H122056   2.361   0.749   3.080
 7364TIP3    H222057   2.232   0.787   3.010
 7365TIP3   OH222058   7.139   0.930   5.737
 7365TIP3    H122059   7.183   0.845   5.736
 7365TIP3    H222060   7.114   0.945   5.645
 7366TIP3   OH222061   4.520   4.998   4.196
 7366TIP3    H122062   4.467   4.976   4.119
 7366TIP3    H222063   4.572   4.919   4.213
 7367TIP3   OH222064   3.922   6.065   5.816
 7367TIP3    H122065   3.856   6.117   5.862
 7367TIP3    H222066   3.994   6.058   5.879
 7368TIP3   OH222067   6.605   0.375   2.155
 7368TIP3    H122068   6.619   0.446   2.218
 7368TIP3    H222069   6.693   0.344   2.133
 7369TIP3   OH222070   1.807   3.293   5.540
 7369TIP3    H122071   1.771   3.382   5.543
 7369TIP3    H222072   1.857   3.284   5.621
 7370TIP3   OH222073   1.615   2.525   0.619
 7370TIP3    H122074   1.653   2.520   0.531
 7370TIP3    H222075   1.524   2.552   0.604
 7371TIP3   OH222076   3.962   3.915   1.507
 7371TIP3    H122077   4.038   3.867   1.541
 7371TIP3    H222078   3.933   3.864   1.432
 7372TIP3   OH222079   4.292   1.973   4.854
 7372TIP3    H122080   4.242   2.026   4.792
 7372TIP3    H222081   4.340   2.036   4.908
 7373TIP3   OH222082   2.596   3.240   0.944
 7373TIP3    H122083   2.538   3.192   0.886
 7373TIP3    H222084   2.588   3.331   0.916
 7374TIP3   OH222085   4.397   1.653   3.541
 7374TIP3    H122086   4.437   1.665   3.627
 7374TIP3    H222087   4.436   1.722   3.486
 7375TIP3   OH222088   4.799   5.257   2.034
 7375TIP3    H122089   4.866   5.188   2.039
 7375TIP3    H222090   4.722   5.213   1.998
 7376TIP3   OH222091   7.212   1.974   3.168
 7376TIP3    H122092   7.239   1.882   3.170
 7376TIP3    H222093   7.120   1.973   3.194
 7377TIP3   OH222094   4.610   2.004   0.543
 7377TIP3    H122095   4.538   1.947   0.572
 7377TIP3    H222096   4.654   1.954   0.475
 7378TIP3   OH222097   7.119   1.795   0.145
 7378TIP3    H122098   7.174   1.832   0.076
 7378TIP3    H222099   7.173   1.725   0.184
 7379TIP3   OH222100   6.506   4.676   1.478
 7379TIP3    H122101   6.535   4.608   1.538
 7379TIP3    H222102   6.550   4.756   1.507
 7380TIP3   OH222103   2.547   0.107   4.593
 7380TIP3    H122104   2.464   0.063   4.577
 7380TIP3    H222105   2.552   0.175   4.526
 7381TIP3   OH222106   6.582   3.804   3.344
 7381TIP3    H122107   6.593   3.894   3.314
 7381TIP3    H222108   6.539   3.813   3.430
 7382TIP3   OH222109   5.781   0.380   1.600
 7382TIP3    H122110   5.801   0.295   1.560
 7382TIP3    H222111   5.694   0.368   1.639
 7383TIP3   OH222112   0.246   3.119   0.139
 7383TIP3    H122113   0.295   3.199   0.121
 7383TIP3    H222114   0.308   3.063   0.185
 7384TIP3   OH222115   1.426   1.752   2.057
 7384TIP3    H122116   1.351   1.784   2.107
 7384TIP3    H222117   1.502   1.778   2.109
 7385TIP3   OH222118   6.510   6.268   0.325
 7385TIP3    H122119   6.500   6.346   0.380
 7385TIP3    H222120   6.423   6.254   0.288
 7386TIP3   OH222121   0.405   2.853   1.059
 7386TIP3    H122122   0.314   2.824   1.050
 7386TIP3    H222123   0.454   2.801   0.995
 7387TIP3   OH222124   5.349   4.614   3.212
 7387TIP3    H122125   5.415   4.572   3.267
 7387TIP3    H222126   5.387   4.700   3.192
 7388TIP3   OH222127   0.868   6.479   5.857
 7388TIP3    H122128   0.883   6.523   5.941
 7388TIP3    H222129   0.936   6.515   5.800
 7389TIP3   OH222130   4.035   6.311   0.259
 7389TIP3    H122131   3.999   6.361   0.185
 7389TIP3    H222132   4.126   6.339   0.264
 7390TIP3   OH222133   2.157   2.637   1.323
 7390TIP3    H122134   2.130   2.565   1.266
 7390TIP3    H222135   2.215   2.596   1.388
 7391TIP3   OH222136   5.873   4.193   5.747
 7391TIP3    H122137   5.877   4.170   5.654
 7391TIP3    H222138   5.959   4.231   5.766
 7392TIP3   OH222139   3.701   2.518   4.594
 7392TIP3    H122140   3.680   2.433   4.633
 7392TIP3    H222141   3.727   2.572   4.668
 7393TIP3   OH222142   1.952   4.189   0.470
 7393TIP3    H122143   1.973   4.256   0.405
 7393TIP3    H222144   1.993   4.109   0.436
 7394TIP3   OH222145   6.854   0.379   5.102
 7394TIP3    H122146   6.819   0.310   5.158
 7394TIP3    H222147   6.777   0.428   5.072
 7395TIP3   OH222148   6.107   5.543   0.985
 7395TIP3    H122149   6.106   5.449   0.968
 7395TIP3    H222150   6.128   5.583   0.901
 7396TIP3   OH222151   3.489   3.313   1.115
 7396TIP3    H122152   3.517   3.296   1.205
 7396TIP3    H222153   3.570   3.316   1.065
 7397TIP3   OH222154   3.044   5.306   5.061
 7397TIP3    H122155   3.039   5.211   5.050
 7397TIP3    H222156   2.988   5.325   5.136
 7398TIP3   OH222157   3.127   3.728   4.021
 7398TIP3    H122158   3.133   3.787   4.096
 7398TIP3    H222159   3.034   3.705   4.016
 7399TIP3   OH222160   1.000   2.799   2.060
 7399TIP3    H122161   0.997   2.774   1.967
 7399TIP3    H222162   0.915   2.773   2.094
 7400TIP3   OH222163   1.950   0.633   2.861
 7400TIP3    H122164   1.867   0.665   2.896
 7400TIP3    H222165   1.927   0.593   2.777
 7401TIP3   OH222166   3.072   1.010   2.517
 7401TIP3    H122167   3.105   1.026   2.606
 7401TIP3    H222168   3.132   1.060   2.461
 7402TIP3   OH222169   2.125   6.520   4.179
 7402TIP3    H122170   2.033   6.496   4.168
 7402TIP3    H222171   2.173   6.440   4.161
 7403TIP3   OH222172   5.287   0.018   4.667
 7403TIP3    H122173   5.197   0.048   4.653
 7403TIP3    H222174   5.277  -0.068   4.709
 7404TIP3   OH222175   3.502   6.283   1.622
 7404TIP3    H122176   3.569   6.343   1.655
 7404TIP3    H222177   3.508   6.291   1.527
 7405TIP3   OH222178   4.757   0.986   2.229
 7405TIP3    H122179   4.677   1.002   2.179
 7405TIP3    H222180   4.739   1.024   2.315
 7406TIP3   OH222181   1.653   6.463   3.688
 7406TIP3    H122182   1.709   6.524   3.735
 7406TIP3    H222183   1.668   6.379   3.731
 7407TIP3   OH222184   4.733   0.007   4.645
 7407TIP3    H122185   4.772  -0.080   4.646
 7407TIP3    H222186   4.786   0.056   4.582
 7408TIP3   OH222187   5.306   6.268   1.348
 7408TIP3    H122188   5.233   6.272   1.286
 7408TIP3    H222189   5.277   6.205   1.415
 7409TIP3   OH222190   1.386   2.619   2.764
 7409TIP3    H122191   1.435   2.628   2.682
 7409TIP3    H222192   1.305   2.669   2.749
 7410TIP3   OH222193   3.600   1.290   1.856
 7410TIP3    H122194   3.695   1.300   1.860
 7410TIP3    H222195   3.570   1.364   1.802
 7411TIP3   OH222196   2.189   4.852   1.363
 7411TIP3    H122197   2.099   4.822   1.352
 7411TIP3    H222198   2.234   4.778   1.403
 7412TIP3   OH222199   2.742   3.656   1.608
 7412TIP3    H122200   2.668   3.684   1.554
 7412TIP3    H222201   2.736   3.708   1.688
 7413TIP3   OH222202   5.317   2.704   0.505
 7413TIP3    H122203   5.369   2.648   0.448
 7413TIP3    H222204   5.372   2.781   0.520
 7414TIP3   OH222205   0.230   2.858   5.205
 7414TIP3    H122206   0.306   2.813   5.167
 7414TIP3    H222207   0.221   2.938   5.153
 7415TIP3   OH222208   2.010   4.221   5.368
 7415TIP3    H122209   2.016   4.178   5.284
 7415TIP3    H222210   2.014   4.150   5.432
 7416TIP3   OH222211   2.393   1.617   2.329
 7416TIP3    H122212   2.478   1.633   2.286
 7416TIP3    H222213   2.415   1.604   2.421
 7417TIP3   OH222214   5.634   6.771   2.212
 7417TIP3    H122215   5.712   6.820   2.237
 7417TIP3    H222216   5.625   6.704   2.279
 7418TIP3   OH222217   0.733   3.869   3.013
 7418TIP3    H122218   0.712   3.823   2.931
 7418TIP3    H222219   0.658   3.852   3.070
 7419TIP3   OH222220   4.176   6.714   0.150
 7419TIP3    H122221   4.228   6.711   0.230
 7419TIP3    H222222   4.091   6.678   0.175
 7420TIP3   OH222223   3.373   0.551   0.272
 7420TIP3    H122224   3.373   0.521   0.181
 7420TIP3    H222225   3.420   0.634   0.270
 7421TIP3   OH222226   0.567   4.217   1.520
 7421TIP3    H122227   0.525   4.299   1.494
 7421TIP3    H222228   0.650   4.244   1.559
 7422TIP3   OH222229   5.285   2.001   3.710
 7422TIP3    H122230   5.380   1.993   3.725
 7422TIP3    H222231   5.245   1.973   3.792
 7423TIP3   OH222232   0.687   0.886   1.242
 7423TIP3    H122233   0.718   0.932   1.164
 7423TIP3    H222234   0.738   0.923   1.314
 7424TIP3   OH222235   3.712   0.464   4.190
 7424TIP3    H122236   3.751   0.410   4.122
 7424TIP3    H222237   3.646   0.408   4.230
 7425TIP3   OH222238   4.094   6.604   5.838
 7425TIP3    H122239   4.150   6.578   5.910
 7425TIP3    H222240   4.103   6.534   5.773
 7426TIP3   OH222241   0.272   1.300   2.936
 7426TIP3    H122242   0.265   1.204   2.941
 7426TIP3    H222243   0.223   1.323   2.858
 7427TIP3   OH222244   5.880   0.037   3.555
 7427TIP3    H122245   5.799   0.060   3.600
 7427TIP3    H222246   5.916  -0.036   3.605
 7428TIP3   OH222247   2.483   4.448   3.920
 7428TIP3    H122248   2.435   4.525   3.953
 7428TIP3    H222249   2.465   4.448   3.826
 7429TIP3   OH222250   2.467   6.734   0.888
 7429TIP3    H122251   2.503   6.790   0.957
 7429TIP3    H222252   2.389   6.696   0.928
 7430TIP3   OH222253   3.857   1.165   2.472
 7430TIP3    H122254   3.948   1.177   2.501
 7430TIP3    H222255   3.819   1.253   2.477
 7431TIP3   OH222256   1.441   0.367   2.451
 7431TIP3    H122257   1.511   0.413   2.404
 7431TIP3    H222258   1.370   0.431   2.456
 7432TIP3   OH222259   2.178   6.742   1.440
 7432TIP3    H122260   2.153   6.834   1.449
 7432TIP3    H222261   2.260   6.745   1.389
 7433TIP3   OH222262   2.441   1.066   2.755
 7433TIP3    H122263   2.487   1.134   2.706
 7433TIP3    H222264   2.366   1.110   2.793
 7434TIP3   OH222265   1.843   3.183   2.222
 7434TIP3    H122266   1.765   3.129   2.235
 7434TIP3    H222267   1.813   3.254   2.165
 7435TIP3   OH222268   6.637   5.940   0.590
 7435TIP3    H122269   6.575   5.983   0.648
 7435TIP3    H222270   6.713   5.998   0.589
 7436TIP3   OH222271   4.682   5.111   1.345
 7436TIP3    H122272   4.604   5.162   1.323
 7436TIP3    H222273   4.746   5.135   1.278
 7437TIP3   OH222274   3.750   3.119   1.570
 7437TIP3    H122275   3.807   3.125   1.494
 7437TIP3    H222276   3.731   3.211   1.592
 7438TIP3   OH222277   3.896   2.480   3.282
 7438TIP3    H122278   3.827   2.414   3.274
 7438TIP3    H222279   3.972   2.431   3.314
 7439TIP3   OH222280   3.390   6.718   0.161
 7439TIP3    H122281   3.347   6.725   0.075
 7439TIP3    H222282   3.448   6.642   0.153
 7440TIP3   OH222283   0.841   0.714   1.603
 7440TIP3    H122284   0.866   0.720   1.695
 7440TIP3    H222285   0.874   0.629   1.574
 7441TIP3   OH222286   3.271   2.255   3.421
 7441TIP3    H122287   3.192   2.217   3.459
 7441TIP3    H222288   3.280   2.212   3.337
 7442TIP3   OH222289   5.329   6.696   0.985
 7442TIP3    H122290   5.392   6.761   0.952
 7442TIP3    H222291   5.383   6.631   1.029
 7443TIP3   OH222292   4.107   4.020   0.295
 7443TIP3    H122293   4.142   4.029   0.207
 7443TIP3    H222294   4.081   3.928   0.301
 7444TIP3   OH222295   6.857   5.086   3.011
 7444TIP3    H122296   6.838   5.145   3.084
 7444TIP3    H222297   6.952   5.082   3.008
 7445TIP3   OH222298   1.563   2.420   4.359
 7445TIP3    H122299   1.509   2.407   4.281
 7445TIP3    H222300   1.651   2.394   4.332
 7446TIP3   OH222301   5.422   1.258   1.189
 7446TIP3    H122302   5.506   1.279   1.229
 7446TIP3    H222303   5.386   1.342   1.162
 7447TIP3   OH222304   3.643   0.689   3.664
 7447TIP3    H122305   3.613   0.599   3.648
 7447TIP3    H222306   3.632   0.733   3.579
 7448TIP3   OH222307   1.084   0.906   4.993
 7448TIP3    H122308   1.118   0.830   5.042
 7448TIP3    H222309   1.025   0.868   4.928
 7449TIP3   OH222310   6.855   2.635   3.144
 7449TIP3    H122311   6.854   2.691   3.067
 7449TIP3    H222312   6.921   2.569   3.126
 7450TIP3   OH222313   5.729   5.436   3.312
 7450TIP3    H122314   5.736   5.433   3.408
 7450TIP3    H222315   5.699   5.349   3.288
 7451TIP3   OH222316   1.778   1.339   5.267
 7451TIP3    H122317   1.766   1.340   5.362
 7451TIP3    H222318   1.771   1.431   5.241
 7452TIP3   OH222319   6.366   1.861   2.408
 7452TIP3    H122320   6.305   1.911   2.462
 7452TIP3    H222321   6.446   1.914   2.406
 7453TIP3   OH222322   0.631   6.665   3.390
 7453TIP3    H122323   0.574   6.737   3.363
 7453TIP3    H222324   0.688   6.704   3.456
 7454TIP3   OH222325   4.001   1.226   3.025
 7454TIP3    H122326   3.961   1.188   3.104
 7454TIP3    H222327   3.974   1.167   2.955
 7455TIP3   OH222328   0.724   0.777   4.221
 7455TIP3    H122329   0.742   0.799   4.312
 7455TIP3    H222330   0.628   0.776   4.215
 7456TIP3   OH222331   1.662   6.410   3.368
 7456TIP3    H122332   1.626   6.449   3.288
 7456TIP3    H222333   1.642   6.473   3.437
 7457TIP3   OH222334   3.738   3.524   4.737
 7457TIP3    H122335   3.748   3.519   4.642
 7457TIP3    H222336   3.747   3.434   4.768
 7458TIP3   OH222337   0.336   0.879   4.078
 7458TIP3    H122338   0.377   0.796   4.104
 7458TIP3    H222339   0.387   0.908   4.002
 7459TIP3   OH222340   0.900   2.117   5.774
 7459TIP3    H122341   0.856   2.123   5.689
 7459TIP3    H222342   0.897   2.206   5.808
 7460TIP3   OH222343   6.493   1.943   4.664
 7460TIP3    H122344   6.550   1.895   4.604
 7460TIP3    H222345   6.550   1.967   4.737
 7461TIP3   OH222346   4.042   2.616   2.241
 7461TIP3    H122347   4.060   2.699   2.286
 7461TIP3    H222348   3.968   2.579   2.289
 7462TIP3   OH222349   4.098   6.622   0.689
 7462TIP3    H122350   4.186   6.659   0.678
 7462TIP3    H222351   4.050   6.689   0.737
 7463TIP3   OH222352   1.773   5.921   4.214
 7463TIP3    H122353   1.749   6.002   4.259
 7463TIP3    H222354   1.705   5.910   4.148
 7464TIP3   OH222355   6.489   1.650   0.706
 7464TIP3    H122356   6.459   1.702   0.631
 7464TIP3    H222357   6.408   1.618   0.747
 7465TIP3   OH222358   1.818   6.237   5.265
 7465TIP3    H122359   1.797   6.145   5.279
 7465TIP3    H222360   1.746   6.271   5.212
 7466TIP3   OH222361   6.706   5.407   1.382
 7466TIP3    H122362   6.644   5.451   1.323
 7466TIP3    H222363   6.791   5.447   1.361
 7467TIP3   OH222364   4.294   1.502   2.583
 7467TIP3    H122365   4.301   1.448   2.504
 7467TIP3    H222366   4.215   1.555   2.569
 7468TIP3   OH222367   6.411   3.702   2.182
 7468TIP3    H122368   6.469   3.627   2.174
 7468TIP3    H222369   6.456   3.773   2.136
 7469TIP3   OH222370   6.028   2.102   5.048
 7469TIP3    H122371   6.043   2.196   5.054
 7469TIP3    H222372   6.102   2.068   4.998
 7470TIP3   OH222373   3.152   5.977   4.870
 7470TIP3    H122374   3.064   5.963   4.906
 7470TIP3    H222375   3.210   5.929   4.930
 7471TIP3   OH222376   1.637   6.350   2.128
 7471TIP3    H122377   1.569   6.392   2.075
 7471TIP3    H222378   1.668   6.278   2.074
 7472TIP3   OH222379   1.930   4.158   0.745
 7472TIP3    H122380   1.843   4.184   0.775
 7472TIP3    H222381   1.926   4.166   0.650
 7473TIP3   OH222382   2.816   4.049   4.003
 7473TIP3    H122383   2.873   4.098   3.945
 7473TIP3    H222384   2.870   4.029   4.079
 7474TIP3   OH222385   2.087   4.140   2.785
 7474TIP3    H122386   2.086   4.067   2.723
 7474TIP3    H222387   2.038   4.210   2.742
 7475TIP3   OH222388   2.294   6.265   1.758
 7475TIP3    H122389   2.237   6.337   1.783
 7475TIP3    H222390   2.235   6.192   1.742
 7476TIP3   OH222391   5.344   1.751   5.858
 7476TIP3    H122392   5.252   1.772   5.839
 7476TIP3    H222393   5.368   1.686   5.792
 7477TIP3   OH222394   5.177   2.313   4.834
 7477TIP3    H122395   5.265   2.345   4.850
 7477TIP3    H222396   5.120   2.382   4.868
 7478TIP3   OH222397   0.468   4.785   1.484
 7478TIP3    H122398   0.536   4.809   1.421
 7478TIP3    H222399   0.514   4.730   1.548
 7479TIP3   OH222400   0.682   5.839   0.800
 7479TIP3    H122401   0.676   5.852   0.705
 7479TIP3    H222402   0.775   5.825   0.816
 7480TIP3   OH222403   3.893   5.679   1.049
 7480TIP3    H122404   3.833   5.634   1.109
 7480TIP3    H222405   3.882   5.632   0.965
 7481TIP3   OH222406   5.945   1.094   1.811
 7481TIP3    H122407   5.859   1.052   1.807
 7481TIP3    H222408   6.007   1.021   1.815
 7482TIP3   OH222409   1.922   3.956   3.886
 7482TIP3    H122410   1.964   3.937   3.970
 7482TIP3    H222411   1.892   4.046   3.894
 7483TIP3   OH222412   1.990   3.393   2.334
 7483TIP3    H122413   2.071   3.350   2.306
 7483TIP3    H222414   1.920   3.331   2.312
 7484TIP3   OH222415   0.979   2.969   2.333
 7484TIP3    H122416   0.983   2.944   2.240
 7484TIP3    H222417   0.929   3.051   2.333
 7485TIP3   OH222418   4.626   4.447   0.703
 7485TIP3    H122419   4.543   4.463   0.748
 7485TIP3    H222420   4.682   4.520   0.728
 7486TIP3   OH222421   5.155   4.703   2.176
 7486TIP3    H122422   5.163   4.781   2.230
 7486TIP3    H222423   5.090   4.649   2.221
 7487TIP3   OH222424   4.855   2.603   4.769
 7487TIP3    H122425   4.790   2.673   4.770
 7487TIP3    H222426   4.850   2.566   4.681
 7488TIP3   OH222427   0.087   4.827   1.263
 7488TIP3    H122428   0.111   4.771   1.336
 7488TIP3    H222429   0.059   4.909   1.303
 7489TIP3   OH222430   5.076   2.176   5.522
 7489TIP3    H122431   5.090   2.191   5.616
 7489TIP3    H222432   5.012   2.242   5.496
 7490TIP3   OH222433   3.877   4.897   5.063
 7490TIP3    H122434   3.817   4.883   4.989
 7490TIP3    H222435   3.826   4.950   5.125
 7491TIP3   OH222436   4.162   0.425   5.889
 7491TIP3    H122437   4.115   0.361   5.834
 7491TIP3    H222438   4.124   0.509   5.866
 7492TIP3   OH222439   6.349   6.294   1.665
 7492TIP3    H122440   6.391   6.380   1.655
 7492TIP3    H222441   6.284   6.307   1.734
 7493TIP3   OH222442   4.333   0.211   1.236
 7493TIP3    H122443   4.255   0.245   1.192
 7493TIP3    H222444   4.406   0.244   1.184
 7494TIP3   OH222445   3.873   0.005   5.631
 7494TIP3    H122446   3.923  -0.017   5.553
 7494TIP3    H222447   3.939   0.016   5.700
 7495TIP3   OH222448   4.045   4.519   5.651
 7495TIP3    H122449   3.968   4.499   5.597
 7495TIP3    H222450   4.037   4.612   5.670
 7496TIP3   OH222451   0.450   3.972   0.539
 7496TIP3    H122452   0.376   4.032   0.543
 7496TIP3    H222453   0.527   4.029   0.540
 7497TIP3   OH222454   4.544   4.833   3.531
 7497TIP3    H122455   4.467   4.889   3.524
 7497TIP3    H222456   4.577   4.848   3.619
 7498TIP3   OH222457   3.041   1.700   5.803
 7498TIP3    H122458   3.122   1.669   5.844
 7498TIP3    H222459   3.037   1.655   5.719
 7499TIP3   OH222460   3.765   0.225   1.606
 7499TIP3    H122461   3.759   0.203   1.699
 7499TIP3    H222462   3.858   0.234   1.589
 7500TIP3   OH222463   0.970   3.693   5.487
 7500TIP3    H122464   0.953   3.603   5.458
 7500TIP3    H222465   1.029   3.684   5.561
 7501TIP3   OH222466   4.374   1.769   5.455
 7501TIP3    H122467   4.399   1.694   5.400
 7501TIP3    H222468   4.290   1.744   5.493
 7502TIP3   OH222469   6.549   3.139   1.192
 7502TIP3    H122470   6.593   3.067   1.147
 7502TIP3    H222471   6.491   3.096   1.255
 7503TIP3   OH222472   1.398   1.770   5.915
 7503TIP3    H122473   1.367   1.741   5.829
 7503TIP3    H222474   1.490   1.794   5.900
 7504TIP3   OH222475   2.456   5.777   0.665
 7504TIP3    H122476   2.545   5.785   0.629
 7504TIP3    H222477   2.454   5.689   0.703
 7505TIP3   OH222478   6.069   4.057   2.093
 7505TIP3    H122479   6.061   3.985   2.156
 7505TIP3    H222480   6.161   4.055   2.066
 7506TIP3   OH222481   2.167   1.370   5.263
 7506TIP3    H122482   2.108   1.446   5.259
 7506TIP3    H222483   2.206   1.365   5.176
 7507TIP3   OH222484   4.832   6.116   5.133
 7507TIP3    H122485   4.853   6.186   5.071
 7507TIP3    H222486   4.905   6.055   5.126
 7508TIP3   OH222487   6.023   0.528   1.627
 7508TIP3    H122488   6.085   0.457   1.639
 7508TIP3    H222489   5.938   0.485   1.621
 7509TIP3   OH222490   5.106   1.238   1.208
 7509TIP3    H122491   5.083   1.262   1.298
 7509TIP3    H222492   5.201   1.221   1.211
 7510TIP3   OH222493   1.299   5.449   4.494
 7510TIP3    H122494   1.284   5.384   4.563
 7510TIP3    H222495   1.228   5.435   4.432
 7511TIP3   OH222496   0.394   2.365   1.602
 7511TIP3    H122497   0.388   2.451   1.561
 7511TIP3    H222498   0.332   2.311   1.553
 7512TIP3   OH222499   3.346   1.251   1.604
 7512TIP3    H122500   3.428   1.216   1.568
 7512TIP3    H222501   3.364   1.345   1.616
 7513TIP3   OH222502   1.748   3.682   5.856
 7513TIP3    H122503   1.830   3.654   5.817
 7513TIP3    H222504   1.718   3.754   5.800
 7514TIP3   OH222505   1.912   1.557   1.939
 7514TIP3    H122506   1.933   1.513   1.856
 7514TIP3    H222507   1.950   1.644   1.930
 7515TIP3   OH222508   5.479   4.599   0.636
 7515TIP3    H122509   5.498   4.630   0.725
 7515TIP3    H222510   5.445   4.510   0.649
 7516TIP3   OH222511  -0.009   0.540   0.884
 7516TIP3    H122512   0.067   0.548   0.942
 7516TIP3    H222513   0.028   0.533   0.797
 7517TIP3   OH222514   5.580   2.791   4.701
 7517TIP3    H122515   5.666   2.763   4.730
 7517TIP3    H222516   5.588   2.800   4.606
 7518TIP3   OH222517   0.950   1.085   0.880
 7518TIP3    H122518   0.946   1.178   0.859
 7518TIP3    H222519   0.895   1.075   0.958
 7519TIP3   OH222520   6.317   0.647   5.730
 7519TIP3    H122521   6.341   0.708   5.800
 7519TIP3    H222522   6.391   0.587   5.723
 7520TIP3   OH222523   0.707   2.701   2.090
 7520TIP3    H122524   0.638   2.753   2.049
 7520TIP3    H222525   0.666   2.616   2.107
 7521TIP3   OH222526   4.531   4.325   0.972
 7521TIP3    H122527   4.441   4.309   0.945
 7521TIP3    H222528   4.584   4.286   0.902
 7522TIP3   OH222529   0.645   4.429   5.358
 7522TIP3    H122530   0.676   4.416   5.448
 7522TIP3    H222531   0.587   4.355   5.342
 7523TIP3   OH222532   2.673   0.975   1.303
 7523TIP3    H122533   2.731   0.899   1.302
 7523TIP3    H222534   2.623   0.965   1.385
 7524TIP3   OH222535   1.310   3.588   4.752
 7524TIP3    H122536   1.361   3.522   4.705
 7524TIP3    H222537   1.375   3.639   4.801
 7525TIP3   OH222538   0.315   1.164   3.296
 7525TIP3    H122539   0.316   1.146   3.390
 7525TIP3    H222540   0.383   1.231   3.284
 7526TIP3   OH222541   0.033   5.197   1.664
 7526TIP3    H122542  -0.021   5.258   1.612
 7526TIP3    H222543   0.105   5.251   1.697
 7527TIP3   OH222544   0.922   0.145   1.097
 7527TIP3    H122545   0.999   0.114   1.145
 7527TIP3    H222546   0.867   0.185   1.165
 7528TIP3   OH222547   1.997   3.170   0.423
 7528TIP3    H122548   2.088   3.139   0.421
 7528TIP3    H222549   2.002   3.259   0.457
 7529TIP3   OH222550   6.657   1.634   0.941
 7529TIP3    H122551   6.622   1.647   0.853
 7529TIP3    H222552   6.582   1.646   0.999
 7530TIP3   OH222553   0.730   2.963   1.294
 7530TIP3    H122554   0.716   3.047   1.338
 7530TIP3    H222555   0.798   2.980   1.229
 7531TIP3   OH222556   1.449   2.786   2.323
 7531TIP3    H122557   1.429   2.701   2.283
 7531TIP3    H222558   1.506   2.765   2.397
 7532TIP3   OH222559   0.248   0.187   3.738
 7532TIP3    H122560   0.160   0.163   3.767
 7532TIP3    H222561   0.255   0.149   3.650
 7533TIP3   OH222562   3.562   0.532   3.202
 7533TIP3    H122563   3.638   0.590   3.204
 7533TIP3    H222564   3.597   0.447   3.175
 7534TIP3   OH222565   5.247   0.175   3.870
 7534TIP3    H122566   5.194   0.203   3.944
 7534TIP3    H222567   5.237   0.080   3.866
 7535TIP3   OH222568   0.448   4.828   4.120
 7535TIP3    H122569   0.372   4.822   4.178
 7535TIP3    H222570   0.489   4.911   4.143
 7536TIP3   OH222571   2.818   0.306   0.602
 7536TIP3    H122572   2.879   0.380   0.606
 7536TIP3    H222573   2.810   0.287   0.508
 7537TIP3   OH222574   1.663  -0.001   4.470
 7537TIP3    H122575   1.742   0.048   4.446
 7537TIP3    H222576   1.592   0.044   4.425
 7538TIP3   OH222577   0.555   0.116   5.542
 7538TIP3    H122578   0.520   0.205   5.550
 7538TIP3    H222579   0.649   0.129   5.527
 7539TIP3   OH222580   0.777   3.802   0.040
 7539TIP3    H122581   0.700   3.837   0.085
 7539TIP3    H222582   0.780   3.710   0.064
 7540TIP3   OH222583   6.580   2.422   3.425
 7540TIP3    H122584   6.628   2.410   3.507
 7540TIP3    H222585   6.624   2.496   3.382
 7541TIP3   OH222586   6.289   2.627   2.006
 7541TIP3    H122587   6.257   2.552   1.956
 7541TIP3    H222588   6.212   2.659   2.054
 7542TIP3   OH222589   3.847   6.543   1.194
 7542TIP3    H122590   3.787   6.556   1.268
 7542TIP3    H222591   3.842   6.449   1.177
 7543TIP3   OH222592   3.064   5.436   2.396
 7543TIP3    H122593   2.994   5.463   2.455
 7543TIP3    H222594   3.102   5.358   2.437
 7544TIP3   OH222595   4.720   6.150   3.008
 7544TIP3    H122596   4.704   6.157   2.913
 7544TIP3    H222597   4.660   6.081   3.037
 7545TIP3   OH222598   1.880   5.583   5.212
 7545TIP3    H122599   1.816   5.566   5.281
 7545TIP3    H222600   1.938   5.507   5.214
 7546TIP3   OH222601   3.330   2.126   1.706
 7546TIP3    H122602   3.244   2.166   1.718
 7546TIP3    H222603   3.353   2.146   1.615
 7547TIP3   OH222604   6.483   2.159   4.904
 7547TIP3    H122605   6.562   2.136   4.855
 7547TIP3    H222606   6.459   2.246   4.872
 7548TIP3   OH222607   4.238   4.434   0.268
 7548TIP3    H122608   4.210   4.485   0.344
 7548TIP3    H222609   4.168   4.371   0.253
 7549TIP3   OH222610   0.614   1.888   2.033
 7549TIP3    H122611   0.583   1.937   1.957
 7549TIP3    H222612   0.575   1.801   2.022
 7550TIP3   OH222613   7.132   3.522   5.529
 7550TIP3    H122614   7.124   3.458   5.458
 7550TIP3    H222615   7.106   3.475   5.608
 7551TIP3   OH222616   0.681   4.178   4.482
 7551TIP3    H122617   0.751   4.134   4.530
 7551TIP3    H222618   0.636   4.231   4.547
 7552TIP3   OH222619   6.084   0.581   2.304
 7552TIP3    H122620   5.996   0.575   2.266
 7552TIP3    H222621   6.137   0.616   2.233
 7553TIP3   OH222622   0.381   4.674   4.453
 7553TIP3    H122623   0.326   4.747   4.424
 7553TIP3    H222624   0.324   4.598   4.450
 7554TIP3   OH222625   3.931   0.878   3.537
 7554TIP3    H122626   3.912   0.911   3.625
 7554TIP3    H222627   3.962   0.954   3.489
 7555TIP3   OH222628   4.142   5.677   4.839
 7555TIP3    H122629   4.165   5.719   4.756
 7555TIP3    H222630   4.225   5.670   4.886
 7556TIP3   OH222631   3.497   6.043   1.027
 7556TIP3    H122632   3.480   6.082   1.113
 7556TIP3    H222633   3.536   6.115   0.976
 7557TIP3   OH222634   5.814   1.956   0.156
 7557TIP3    H122635   5.755   1.923   0.224
 7557TIP3    H222636   5.766   1.946   0.075
 7558TIP3   OH222637   6.838   2.918   5.213
 7558TIP3    H122638   6.883   2.834   5.206
 7558TIP3    H222639   6.835   2.935   5.308
 7559TIP3   OH222640   4.067   4.962   5.346
 7559TIP3    H122641   4.119   4.965   5.426
 7559TIP3    H222642   4.012   5.040   5.350
 7560TIP3   OH222643   6.638   2.492   1.901
 7560TIP3    H122644   6.598   2.468   1.818
 7560TIP3    H222645   6.652   2.409   1.946
 7561TIP3   OH222646   6.076   1.487   5.412
 7561TIP3    H122647   6.147   1.549   5.393
 7561TIP3    H222648   6.117   1.401   5.407
 7562TIP3   OH222649   0.967   0.504   1.490
 7562TIP3    H122650   0.932   0.435   1.433
 7562TIP3    H222651   1.011   0.456   1.561
 7563TIP3   OH222652   4.121   5.597   2.910
 7563TIP3    H122653   4.072   5.667   2.954
 7563TIP3    H222654   4.057   5.557   2.852
 7564TIP3   OH222655   2.315   3.798   1.762
 7564TIP3    H122656   2.331   3.735   1.693
 7564TIP3    H222657   2.224   3.783   1.787
 7565TIP3   OH222658   4.977   0.926   1.357
 7565TIP3    H122659   4.979   0.872   1.278
 7565TIP3    H222660   4.903   0.986   1.344
 7566TIP3   OH222661   0.183   5.631   4.942
 7566TIP3    H122662   0.172   5.619   4.848
 7566TIP3    H222663   0.270   5.595   4.961
 7567TIP3   OH222664   4.731   3.752   3.705
 7567TIP3    H122665   4.642   3.753   3.670
 7567TIP3    H222666   4.783   3.708   3.638
 7568TIP3   OH222667   4.316   4.361   4.957
 7568TIP3    H122668   4.283   4.449   4.946
 7568TIP3    H222669   4.305   4.342   5.051
 7569TIP3   OH222670   1.389   1.865   4.291
 7569TIP3    H122671   1.427   1.840   4.207
 7569TIP3    H222672   1.393   1.961   4.292
 7570TIP3   OH222673   2.877   3.268   2.882
 7570TIP3    H122674   2.899   3.175   2.883
 7570TIP3    H222675   2.809   3.277   2.949
 7571TIP3   OH222676   4.416   4.389   4.677
 7571TIP3    H122677   4.405   4.402   4.772
 7571TIP3    H222678   4.396   4.474   4.639
 7572TIP3   OH222679   3.664   5.720   0.673
 7572TIP3    H122680   3.666   5.738   0.579
 7572TIP3    H222681   3.630   5.630   0.680
 7573TIP3   OH222682   1.136   6.096   4.781
 7573TIP3    H122683   1.183   6.084   4.699
 7573TIP3    H222684   1.201   6.129   4.843
 7574TIP3   OH222685   3.260   3.235   4.117
 7574TIP3    H122686   3.291   3.315   4.076
 7574TIP3    H222687   3.223   3.183   4.045
 7575TIP3   OH222688   2.794   6.339   2.212
 7575TIP3    H122689   2.772   6.424   2.249
 7575TIP3    H222690   2.737   6.277   2.258
 7576TIP3   OH222691   7.148   6.045   3.470
 7576TIP3    H122692   7.189   5.961   3.449
 7576TIP3    H222693   7.141   6.045   3.565
 7577TIP3   OH222694   1.199   4.571   4.770
 7577TIP3    H122695   1.132   4.503   4.774
 7577TIP3    H222696   1.150   4.653   4.758
 7578TIP3   OH222697   1.783   6.214   1.383
 7578TIP3    H122698   1.872   6.218   1.347
 7578TIP3    H222699   1.751   6.304   1.376
 7579TIP3   OH222700   0.947   2.495   2.513
 7579TIP3    H122701   0.913   2.584   2.515
 7579TIP3    H222702   0.986   2.483   2.600
 7580TIP3   OH222703   6.970   2.241   0.318
 7580TIP3    H122704   6.938   2.242   0.228
 7580TIP3    H222705   6.890   2.244   0.371
 7581TIP3   OH222706   2.708   6.744   2.518
 7581TIP3    H122707   2.628   6.692   2.513
 7581TIP3    H222708   2.768   6.691   2.569
 7582TIP3   OH222709   5.442   2.536   1.301
 7582TIP3    H122710   5.427   2.596   1.227
 7582TIP3    H222711   5.535   2.514   1.296
 7583TIP3   OH222712   6.021   6.681   5.033
 7583TIP3    H122713   6.099   6.730   5.006
 7583TIP3    H222714   6.050   6.628   5.107
 7584TIP3   OH222715   5.471   5.500   3.237
 7584TIP3    H122716   5.555   5.543   3.254
 7584TIP3    H222717   5.490   5.435   3.169
 7585TIP3   OH222718   3.522   3.178   2.570
 7585TIP3    H122719   3.464   3.108   2.540
 7585TIP3    H222720   3.509   3.248   2.507
 7586TIP3   OH222721   4.564   2.922   0.307
 7586TIP3    H122722   4.508   2.951   0.379
 7586TIP3    H222723   4.651   2.915   0.346
 7587TIP3   OH222724   4.084   5.013   0.212
 7587TIP3    H122725   4.082   4.935   0.157
 7587TIP3    H222726   4.095   5.085   0.150
 7588TIP3   OH222727   3.087   3.346   5.615
 7588TIP3    H122728   3.055   3.379   5.699
 7588TIP3    H222729   3.046   3.402   5.550
 7589TIP3   OH222730   4.882   1.178   0.080
 7589TIP3    H122731   4.960   1.168   0.135
 7589TIP3    H222732   4.916   1.208  -0.005
 7590TIP3   OH222733   6.574   5.995   5.270
 7590TIP3    H122734   6.507   6.051   5.307
 7590TIP3    H222735   6.552   5.989   5.177
 7591TIP3   OH222736   5.241   3.052   4.083
 7591TIP3    H122737   5.158   3.061   4.035
 7591TIP3    H222738   5.232   3.112   4.158
 7592TIP3   OH222739   1.104   5.517   2.620
 7592TIP3    H122740   1.090   5.493   2.711
 7592TIP3    H222741   1.021   5.499   2.576
 7593TIP3   OH222742   2.489   1.869   0.577
 7593TIP3    H122743   2.548   1.910   0.513
 7593TIP3    H222744   2.403   1.869   0.534
 7594TIP3   OH222745   5.419   2.434   4.916
 7594TIP3    H122746   5.423   2.520   4.959
 7594TIP3    H222747   5.462   2.374   4.977
 7595TIP3   OH222748   6.113   3.337   2.607
 7595TIP3    H122749   6.079   3.411   2.657
 7595TIP3    H222750   6.168   3.289   2.669
 7596TIP3   OH222751   3.038   0.492   0.836
 7596TIP3    H122752   3.062   0.497   0.743
 7596TIP3    H222753   3.101   0.549   0.880
 7597TIP3   OH222754   0.153   5.794   2.649
 7597TIP3    H122755   0.211   5.723   2.677
 7597TIP3    H222756   0.212   5.869   2.637
 7598TIP3   OH222757   6.904   6.712   1.721
 7598TIP3    H122758   6.927   6.777   1.654
 7598TIP3    H222759   6.836   6.659   1.680
 7599TIP3   OH222760   4.917   3.578   2.644
 7599TIP3    H122761   4.908   3.546   2.554
 7599TIP3    H222762   5.011   3.575   2.661
 7600TIP3   OH222763   0.912   5.354   1.836
 7600TIP3    H122764   0.863   5.305   1.770
 7600TIP3    H222765   0.846   5.411   1.876
 7601TIP3   OH222766   4.680   6.417   5.120
 7601TIP3    H122767   4.682   6.512   5.107
 7601TIP3    H222768   4.758   6.399   5.173
 7602TIP3   OH222769   5.821   1.526   1.533
 7602TIP3    H122770   5.792   1.446   1.578
 7602TIP3    H222771   5.915   1.514   1.520
 7603TIP3   OH222772   1.901   2.205   0.324
 7603TIP3    H122773   1.984   2.161   0.343
 7603TIP3    H222774   1.835   2.137   0.332
 7604TIP3   OH222775   2.464   2.479   2.157
 7604TIP3    H122776   2.401   2.549   2.175
 7604TIP3    H222777   2.448   2.414   2.226
 7605TIP3   OH222778   0.784   3.130   5.157
 7605TIP3    H122779   0.875   3.119   5.129
 7605TIP3    H222780   0.765   3.223   5.139
 7606TIP3   OH222781   2.657   0.610   1.286
 7606TIP3    H122782   2.645   0.515   1.283
 7606TIP3    H222783   2.714   0.628   1.211
 7607TIP3   OH222784   4.842   4.150   3.170
 7607TIP3    H122785   4.769   4.207   3.192
 7607TIP3    H222786   4.845   4.151   3.074
 7608TIP3   OH222787   6.162   2.555   2.363
 7608TIP3    H122788   6.253   2.557   2.336
 7608TIP3    H222789   6.165   2.554   2.459
 7609TIP3   OH222790   5.770   0.556   4.495
 7609TIP3    H122791   5.746   0.574   4.586
 7609TIP3    H222792   5.728   0.474   4.474
 7610TIP3   OH222793   4.548   1.087   5.237
 7610TIP3    H122794   4.561   1.104   5.144
 7610TIP3    H222795   4.562   1.172   5.279
 7611TIP3   OH222796   2.934   5.742   1.982
 7611TIP3    H122797   2.840   5.756   1.979
 7611TIP3    H222798   2.945   5.662   2.035
 7612TIP3   OH222799   2.917   2.731   0.454
 7612TIP3    H122800   2.985   2.713   0.519
 7612TIP3    H222801   2.851   2.782   0.502
 7613TIP3   OH222802   5.292   6.707   1.802
 7613TIP3    H122803   5.381   6.724   1.771
 7613TIP3    H222804   5.244   6.788   1.785
 7614TIP3   OH222805   3.382   5.408   3.458
 7614TIP3    H122806   3.416   5.395   3.547
 7614TIP3    H222807   3.288   5.422   3.470
 7615TIP3   OH222808   5.037   0.046   3.646
 7615TIP3    H122809   5.116   0.089   3.612
 7615TIP3    H222810   5.034  -0.038   3.600
 7616TIP3   OH222811   1.146   5.133   1.736
 7616TIP3    H122812   1.068   5.174   1.698
 7616TIP3    H222813   1.120   5.112   1.826
 7617TIP3   OH222814   0.076   4.836   2.532
 7617TIP3    H122815  -0.004   4.869   2.490
 7617TIP3    H222816   0.106   4.909   2.587
 7618TIP3   OH222817   1.021   5.677   4.454
 7618TIP3    H122818   0.979   5.633   4.381
 7618TIP3    H222819   1.101   5.714   4.417
 7619TIP3   OH222820   5.381   1.540   3.389
 7619TIP3    H122821   5.360   1.559   3.298
 7619TIP3    H222822   5.313   1.585   3.439
 7620TIP3   OH222823   0.515   3.047   5.855
 7620TIP3    H122824   0.531   2.963   5.899
 7620TIP3    H222825   0.420   3.053   5.849
 7621TIP3   OH222826   1.605   6.585   2.774
 7621TIP3    H122827   1.641   6.526   2.840
 7621TIP3    H222828   1.679   6.639   2.747
 7622TIP3   OH222829   0.417   1.363   5.654
 7622TIP3    H122830   0.338   1.329   5.613
 7622TIP3    H222831   0.407   1.341   5.747
 7623TIP3   OH222832   3.995   4.074   5.279
 7623TIP3    H122833   4.010   4.145   5.217
 7623TIP3    H222834   4.082   4.036   5.293
 7624TIP3   OH222835   6.623   1.626   1.855
 7624TIP3    H122836   6.570   1.648   1.932
 7624TIP3    H222837   6.695   1.574   1.890
 7625TIP3   OH222838   5.489   5.863   4.462
 7625TIP3    H122839   5.479   5.823   4.376
 7625TIP3    H222840   5.557   5.811   4.505
 7626TIP3   OH222841   7.068   0.691   2.635
 7626TIP3    H122842   7.010   0.643   2.694
 7626TIP3    H222843   7.138   0.723   2.692
 7627TIP3   OH222844   3.005   2.159   4.109
 7627TIP3    H122845   3.082   2.148   4.054
 7627TIP3    H222846   2.978   2.250   4.094
 7628TIP3   OH222847   1.807   4.674   0.178
 7628TIP3    H122848   1.848   4.658   0.093
 7628TIP3    H222849   1.853   4.751   0.212
 7629TIP3   OH222850   0.134   4.192   1.919
 7629TIP3    H122851   0.057   4.142   1.893
 7629TIP3    H222852   0.191   4.190   1.842
 7630TIP3   OH222853   1.218   3.456   5.682
 7630TIP3    H122854   1.222   3.420   5.594
 7630TIP3    H222855   1.309   3.482   5.701
 7631TIP3   OH222856   4.262   6.042   2.147
 7631TIP3    H122857   4.169   6.020   2.154
 7631TIP3    H222858   4.303   6.000   2.222
 7632TIP3   OH222859   2.055   2.206   2.016
 7632TIP3    H122860   1.984   2.222   2.077
 7632TIP3    H222861   2.033   2.258   1.938
 7633TIP3   OH222862   0.791   2.054   3.078
 7633TIP3    H122863   0.746   1.981   3.035
 7633TIP3    H222864   0.882   2.046   3.050
 7634TIP3   OH222865   1.046   0.079   5.164
 7634TIP3    H122866   0.957   0.064   5.130
 7634TIP3    H222867   1.100   0.013   5.120
 7635TIP3   OH222868   3.744   0.729   2.324
 7635TIP3    H122869   3.699   0.653   2.359
 7635TIP3    H222870   3.831   0.726   2.364
 7636TIP3   OH222871   0.853   2.327   4.280
 7636TIP3    H122872   0.853   2.231   4.284
 7636TIP3    H222873   0.762   2.351   4.296
 7637TIP3   OH222874   5.787   5.282   2.486
 7637TIP3    H122875   5.825   5.365   2.457
 7637TIP3    H222876   5.692   5.299   2.488
 7638TIP3   OH222877   6.036   6.517   1.625
 7638TIP3    H122878   6.034   6.439   1.568
 7638TIP3    H222879   6.062   6.588   1.566
 7639TIP3   OH222880   0.173   3.180   3.287
 7639TIP3    H122881   0.189   3.091   3.318
 7639TIP3    H222882   0.166   3.233   3.367
 7640TIP3   OH222883   5.094   0.430   4.569
 7640TIP3    H122884   5.011   0.473   4.589
 7640TIP3    H222885   5.071   0.338   4.558
 7641TIP3   OH222886   4.759   5.211   2.819
 7641TIP3    H122887   4.809   5.147   2.869
 7641TIP3    H222888   4.811   5.291   2.824
 7642TIP3   OH222889   6.559   3.435   0.915
 7642TIP3    H122890   6.583   3.508   0.973
 7642TIP3    H222891   6.465   3.444   0.904
 7643TIP3   OH222892   0.431   0.617   0.844
 7643TIP3    H122893   0.404   0.530   0.814
 7643TIP3    H222894   0.507   0.601   0.899
 7644TIP3   OH222895   3.106   6.810   1.107
 7644TIP3    H122896   3.082   6.751   1.034
 7644TIP3    H222897   3.178   6.862   1.072
 7645TIP3   OH222898   1.342   3.242   1.798
 7645TIP3    H122899   1.258   3.280   1.823
 7645TIP3    H222900   1.379   3.304   1.735
 7646TIP3   OH222901   6.484   3.391   5.773
 7646TIP3    H122902   6.460   3.311   5.726
 7646TIP3    H222903   6.568   3.371   5.813
 7647TIP3   OH222904   2.246   5.076   2.187
 7647TIP3    H122905   2.219   5.056   2.277
 7647TIP3    H222906   2.309   5.007   2.166
 7648TIP3   OH222907   6.375   4.613   1.239
 7648TIP3    H122908   6.417   4.662   1.309
 7648TIP3    H222909   6.408   4.524   1.248
 7649TIP3   OH222910   3.401   5.282   0.391
 7649TIP3    H122911   3.482   5.321   0.358
 7649TIP3    H222912   3.333   5.314   0.331
 7650TIP3   OH222913   5.538   0.425   0.650
 7650TIP3    H122914   5.526   0.392   0.739
 7650TIP3    H222915   5.551   0.346   0.597
 7651TIP3   OH222916   3.196   6.673   4.831
 7651TIP3    H122917   3.271   6.733   4.834
 7651TIP3    H222918   3.120   6.731   4.819
 7652TIP3   OH222919   2.720   6.587   0.853
 7652TIP3    H122920   2.630   6.558   0.870
 7652TIP3    H222921   2.769   6.558   0.930
 7653TIP3   OH222922   2.486   4.791   3.848
 7653TIP3    H122923   2.405   4.741   3.836
 7653TIP3    H222924   2.468   4.850   3.921
 7654TIP3   OH222925   1.759   1.169   1.161
 7654TIP3    H122926   1.850   1.159   1.133
 7654TIP3    H222927   1.713   1.197   1.081
 7655TIP3   OH222928   4.858   2.511   1.353
 7655TIP3    H122929   4.852   2.415   1.350
 7655TIP3    H222930   4.927   2.528   1.417
 7656TIP3   OH222931   2.444   6.735   5.819
 7656TIP3    H122932   2.431   6.762   5.910
 7656TIP3    H222933   2.525   6.779   5.793
 7657TIP3   OH222934   0.115   6.455   2.563
 7657TIP3    H122935   0.158   6.372   2.580
 7657TIP3    H222936   0.074   6.479   2.647
 7658TIP3   OH222937   3.660   5.881   2.364
 7658TIP3    H122938   3.585   5.935   2.338
 7658TIP3    H222939   3.638   5.794   2.331
 7659TIP3   OH222940   5.362   0.505   0.045
 7659TIP3    H122941   5.388   0.467   0.129
 7659TIP3    H222942   5.411   0.587   0.040
 7660TIP3   OH222943   0.491   3.634   0.036
 7660TIP3    H122944   0.577   3.609   0.068
 7660TIP3    H222945   0.492   3.730   0.035
 7661TIP3   OH222946   4.431   3.910   1.883
 7661TIP3    H122947   4.403   3.929   1.973
 7661TIP3    H222948   4.375   3.965   1.828
 7662TIP3   OH222949   5.545   0.465   1.208
 7662TIP3    H122950   5.593   0.403   1.262
 7662TIP3    H222951   5.536   0.543   1.263
 7663TIP3   OH222952   4.750   5.562   1.979
 7663TIP3    H122953   4.746   5.482   1.926
 7663TIP3    H222954   4.670   5.609   1.958
 7664TIP3   OH222955   6.909   3.305   1.747
 7664TIP3    H122956   6.925   3.368   1.817
 7664TIP3    H222957   6.990   3.254   1.742
 7665TIP3   OH222958   3.367   1.727   3.240
 7665TIP3    H122959   3.351   1.633   3.242
 7665TIP3    H222960   3.280   1.766   3.251
 7666TIP3   OH222961   0.106   0.695   4.051
 7666TIP3    H122962   0.197   0.724   4.055
 7666TIP3    H222963   0.056   0.771   4.081
 7667TIP3   OH222964   2.916   0.827   0.300
 7667TIP3    H122965   2.984   0.866   0.354
 7667TIP3    H222966   2.951   0.741   0.276
 7668TIP3   OH222967   3.296   1.628   0.015
 7668TIP3    H122968   3.299   1.674   0.099
 7668TIP3    H222969   3.287   1.536   0.039
 7669TIP3   OH222970   0.618   6.269   3.628
 7669TIP3    H122971   0.654   6.208   3.564
 7669TIP3    H222972   0.695   6.313   3.664
 7670TIP3   OH222973   1.138   1.136   3.826
 7670TIP3    H122974   1.231   1.116   3.829
 7670TIP3    H222975   1.134   1.229   3.804
 7671TIP3   OH222976   1.416   1.217   5.743
 7671TIP3    H122977   1.338   1.183   5.699
 7671TIP3    H222978   1.402   1.196   5.836
 7672TIP3   OH222979   6.950   5.582   1.339
 7672TIP3    H122980   6.916   5.670   1.322
 7672TIP3    H222981   7.037   5.581   1.298
 7673TIP3   OH222982   6.572   2.843   5.381
 7673TIP3    H122983   6.524   2.777   5.431
 7673TIP3    H222984   6.504   2.892   5.335
 7674TIP3   OH222985   4.126   0.632   2.904
 7674TIP3    H122986   4.210   0.653   2.946
 7674TIP3    H222987   4.084   0.717   2.892
 7675TIP3   OH222988   2.166   1.379   1.482
 7675TIP3    H122989   2.196   1.333   1.403
 7675TIP3    H222990   2.226   1.453   1.490
 7676TIP3   OH222991   6.674   1.041   0.686
 7676TIP3    H122992   6.749   0.982   0.696
 7676TIP3    H222993   6.641   1.053   0.775
 7677TIP3   OH222994   5.425   6.803   4.161
 7677TIP3    H122995   5.355   6.786   4.099
 7677TIP3    H222996   5.455   6.717   4.189
 7678TIP3   OH222997   3.411   2.196   1.432
 7678TIP3    H122998   3.318   2.215   1.436
 7678TIP3    H222999   3.447   2.258   1.368
 7679TIP3   OH223000   5.955   3.178   3.136
 7679TIP3    H123001   6.040   3.219   3.119
 7679TIP3    H223002   5.895   3.251   3.147
 7680TIP3   OH223003   5.431   4.487   5.059
 7680TIP3    H123004   5.452   4.561   5.116
 7680TIP3    H223005   5.514   4.464   5.018
 7681TIP3   OH223006   7.026   6.810   2.144
 7681TIP3    H123007   7.023   6.750   2.219
 7681TIP3    H223008   6.948   6.789   2.093
 7682TIP3   OH223009   2.051   2.727   4.381
 7682TIP3    H123010   2.136   2.691   4.407
 7682TIP3    H223011   2.072   2.790   4.311
 7683TIP3   OH223012   6.763   4.222   5.500
 7683TIP3    H123013   6.766   4.195   5.408
 7683TIP3    H223014   6.840   4.183   5.540
 7684TIP3   OH223015   3.503   2.112   2.349
 7684TIP3    H123016   3.477   2.135   2.260
 7684TIP3    H223017   3.572   2.175   2.370
 7685TIP3   OH223018   2.978   3.462   3.856
 7685TIP3    H123019   2.959   3.465   3.762
 7685TIP3    H223020   3.049   3.399   3.865
 7686TIP3   OH223021   6.433   3.870   3.796
 7686TIP3    H123022   6.343   3.901   3.805
 7686TIP3    H223023   6.439   3.841   3.705
 7687TIP3   OH223024   0.785   0.139   5.844
 7687TIP3    H123025   0.869   0.182   5.859
 7687TIP3    H223026   0.801   0.085   5.766
 7688TIP3   OH223027   1.303   6.560   1.190
 7688TIP3    H123028   1.309   6.493   1.122
 7688TIP3    H223029   1.292   6.511   1.272
 7689TIP3   OH223030   0.010   3.986   3.217
 7689TIP3    H123031  -0.069   3.939   3.245
 7689TIP3    H223032  -0.021   4.071   3.188
 7690TIP3   OH223033   3.785   0.926   0.241
 7690TIP3    H123034   3.771   1.005   0.189
 7690TIP3    H223035   3.880   0.915   0.244
 7691TIP3   OH223036   0.980   6.696   3.291
 7691TIP3    H123037   1.021   6.627   3.343
 7691TIP3    H223038   1.049   6.761   3.277
 7692TIP3   OH223039   5.429   5.658   5.590
 7692TIP3    H123040   5.392   5.713   5.660
 7692TIP3    H223041   5.492   5.715   5.545
 7693TIP3   OH223042   5.361   4.238   5.403
 7693TIP3    H123043   5.446   4.279   5.421
 7693TIP3    H223044   5.345   4.255   5.310
 7694TIP3   OH223045   4.513   4.446   1.227
 7694TIP3    H123046   4.532   4.412   1.139
 7694TIP3    H223047   4.499   4.540   1.215
 7695TIP3   OH223048   1.639   4.785   3.412
 7695TIP3    H123049   1.729   4.805   3.385
 7695TIP3    H223050   1.617   4.854   3.474
 7696TIP3   OH223051   1.164   1.326   2.466
 7696TIP3    H123052   1.156   1.243   2.419
 7696TIP3    H223053   1.098   1.383   2.426
 7697TIP3   OH223054   0.487   4.308   0.755
 7697TIP3    H123055   0.552   4.256   0.708
 7697TIP3    H223056   0.429   4.341   0.687
 7698TIP3   OH223057   4.502   5.275   0.904
 7698TIP3    H123058   4.505   5.239   0.816
 7698TIP3    H223059   4.447   5.353   0.896
 7699TIP3   OH223060   0.293   2.259   3.450
 7699TIP3    H123061   0.338   2.325   3.502
 7699TIP3    H223062   0.238   2.212   3.513
 7700TIP3   OH223063   4.163   2.045   4.572
 7700TIP3    H123064   4.149   2.137   4.595
 7700TIP3    H223065   4.218   2.047   4.494
 7701TIP3   OH223066   6.992   4.037   1.462
 7701TIP3    H123067   6.945   4.084   1.531
 7701TIP3    H223068   6.925   3.984   1.419
 7702TIP3   OH223069   0.503   4.532   5.802
 7702TIP3    H123070   0.478   4.484   5.881
 7702TIP3    H223071   0.555   4.469   5.752
 7703TIP3   OH223072   6.492   3.848   1.876
 7703TIP3    H123073   6.456   3.923   1.830
 7703TIP3    H223074   6.562   3.884   1.931
 7704TIP3   OH223075   1.736   5.213   3.723
 7704TIP3    H123076   1.731   5.272   3.798
 7704TIP3    H223077   1.765   5.129   3.760
 7705TIP3   OH223078   3.889   3.944   4.219
 7705TIP3    H123079   3.981   3.934   4.241
 7705TIP3    H223080   3.842   3.895   4.287
 7706TIP3   OH223081   3.779   3.225   0.466
 7706TIP3    H123082   3.748   3.202   0.379
 7706TIP3    H223083   3.859   3.174   0.478
 7707TIP3   OH223084   0.591   5.360   3.292
 7707TIP3    H123085   0.517   5.395   3.242
 7707TIP3    H223086   0.659   5.344   3.227
 7708TIP3   OH223087   6.354   2.735   4.838
 7708TIP3    H123088   6.410   2.670   4.796
 7708TIP3    H223089   6.307   2.776   4.765
 7709TIP3   OH223090   6.760   5.189   3.962
 7709TIP3    H123091   6.721   5.240   4.034
 7709TIP3    H223092   6.685   5.161   3.910
 7710TIP3   OH223093   1.702   4.309   4.717
 7710TIP3    H123094   1.697   4.312   4.621
 7710TIP3    H223095   1.624   4.356   4.746
 7711TIP3   OH223096   6.847   6.133   0.566
 7711TIP3    H123097   6.865   6.220   0.600
 7711TIP3    H223098   6.932   6.099   0.540
 7712TIP3   OH223099   2.941   1.297   1.170
 7712TIP3    H123100   2.893   1.296   1.253
 7712TIP3    H223101   2.948   1.205   1.145
 7713TIP3   OH223102   4.130   5.906   3.797
 7713TIP3    H123103   4.158   5.860   3.718
 7713TIP3    H223104   4.037   5.926   3.782
 7714TIP3   OH223105   4.808   3.760   3.060
 7714TIP3    H123106   4.773   3.826   3.121
 7714TIP3    H223107   4.900   3.783   3.050
 7715TIP3   OH223108   1.718   4.250   3.488
 7715TIP3    H123109   1.705   4.345   3.493
 7715TIP3    H223110   1.676   4.216   3.567
 7716TIP3   OH223111   3.817   1.277   0.454
 7716TIP3    H123112   3.753   1.301   0.387
 7716TIP3    H223113   3.769   1.217   0.512
 7717TIP3   OH223114   6.197   6.345   1.433
 7717TIP3    H123115   6.264   6.345   1.502
 7717TIP3    H223116   6.180   6.253   1.416
 7718TIP3   OH223117   1.114   4.460   2.525
 7718TIP3    H123118   1.028   4.487   2.556
 7718TIP3    H223119   1.144   4.397   2.590
 7719TIP3   OH223120   7.049   4.118   5.203
 7719TIP3    H123121   6.976   4.102   5.262
 7719TIP3    H223122   7.099   4.037   5.204
 7720TIP3   OH223123   6.879   5.117   5.260
 7720TIP3    H123124   6.834   5.168   5.192
 7720TIP3    H223125   6.885   5.178   5.334
 7721TIP3   OH223126   4.917   0.663   0.623
 7721TIP3    H123127   4.912   0.571   0.648
 7721TIP3    H223128   4.857   0.672   0.549
 7722TIP3   OH223129   1.766   3.921   3.025
 7722TIP3    H123130   1.728   3.907   3.111
 7722TIP3    H223131   1.828   3.849   3.014
 7723TIP3   OH223132   7.176   5.079   4.402
 7723TIP3    H123133   7.172   5.042   4.490
 7723TIP3    H223134   7.091   5.122   4.390
 7724TIP3   OH223135   0.250   3.291   2.128
 7724TIP3    H123136   0.227   3.264   2.217
 7724TIP3    H223137   0.346   3.294   2.128
 7725TIP3   OH223138   1.975   2.907   0.104
 7725TIP3    H123139   2.022   2.859   0.171
 7725TIP3    H223140   1.961   2.843   0.034
 7726TIP3   OH223141   1.342   4.400   2.705
 7726TIP3    H123142   1.266   4.356   2.743
 7726TIP3    H223143   1.328   4.492   2.724
 7727TIP3   OH223144   2.095   5.081   4.522
 7727TIP3    H123145   2.146   5.148   4.567
 7727TIP3    H223146   2.115   5.000   4.569
 7728TIP3   OH223147   7.170   5.412   3.224
 7728TIP3    H123148   7.100   5.465   3.186
 7728TIP3    H223149   7.157   5.419   3.318
 7729TIP3   OH223150   2.540   6.121   4.545
 7729TIP3    H123151   2.502   6.035   4.563
 7729TIP3    H223152   2.627   6.102   4.510
 7730TIP3   OH223153   0.465   4.016   5.406
 7730TIP3    H123154   0.476   3.976   5.492
 7730TIP3    H223155   0.377   3.990   5.378
 7731TIP3   OH223156   0.830   1.701   1.910
 7731TIP3    H123157   0.918   1.683   1.942
 7731TIP3    H223158   0.831   1.674   1.819
 7732TIP3   OH223159   1.890   2.648   5.659
 7732TIP3    H123160   1.928   2.566   5.627
 7732TIP3    H223161   1.842   2.622   5.738
 7733TIP3   OH223162   1.918   2.367   2.502
 7733TIP3    H123163   1.837   2.409   2.474
 7733TIP3    H223164   1.969   2.437   2.543
 7734TIP3   OH223165   0.165   5.998   0.102
 7734TIP3    H123166   0.188   5.969   0.013
 7734TIP3    H223167   0.070   5.986   0.106
 7735TIP3   OH223168   1.377   6.025   1.237
 7735TIP3    H123169   1.444   6.009   1.303
 7735TIP3    H223170   1.417   5.994   1.155
 7736TIP3   OH223171   6.751   4.657   4.211
 7736TIP3    H123172   6.778   4.606   4.287
 7736TIP3    H223173   6.816   4.727   4.204
 7737TIP3   OH223174   3.170   4.140   5.246
 7737TIP3    H123175   3.223   4.219   5.247
 7737TIP3    H223176   3.224   4.074   5.289
 7738TIP3   OH223177   2.953   4.619   0.812
 7738TIP3    H123178   3.036   4.581   0.839
 7738TIP3    H223179   2.951   4.704   0.856
 7739TIP3   OH223180   3.078   2.916   5.062
 7739TIP3    H123181   3.063   2.949   5.150
 7739TIP3    H223182   3.001   2.942   5.012
 7740TIP3   OH223183   2.472   5.048   2.593
 7740TIP3    H123184   2.511   4.966   2.564
 7740TIP3    H223185   2.388   5.054   2.547
 7741TIP3   OH223186   1.326   2.984   4.830
 7741TIP3    H123187   1.251   3.024   4.785
 7741TIP3    H223188   1.290   2.957   4.915
 7742TIP3   OH223189   7.065   4.655   0.539
 7742TIP3    H123190   7.071   4.635   0.633
 7742TIP3    H223191   6.973   4.636   0.517
 7743TIP3   OH223192   1.971   5.972   4.604
 7743TIP3    H123193   1.955   5.948   4.512
 7743TIP3    H223194   2.053   5.927   4.627
 7744TIP3   OH223195   2.316   5.841   1.086
 7744TIP3    H123196   2.409   5.829   1.105
 7744TIP3    H223197   2.274   5.760   1.117
 7745TIP3   OH223198   0.409   2.260   2.157
 7745TIP3    H123199   0.436   2.261   2.065
 7745TIP3    H223200   0.314   2.274   2.155
 7746TIP3   OH223201   4.126   3.756   1.645
 7746TIP3    H123202   4.129   3.800   1.730
 7746TIP3    H223203   4.152   3.666   1.664
 7747TIP3   OH223204   0.983   1.433   3.980
 7747TIP3    H123205   0.911   1.390   4.026
 7747TIP3    H223206   0.955   1.525   3.971
 7748TIP3   OH223207   2.296   5.597   4.443
 7748TIP3    H123208   2.254   5.512   4.456
 7748TIP3    H223209   2.385   5.576   4.415
 7749TIP3   OH223210   2.736   3.217   0.356
 7749TIP3    H123211   2.790   3.205   0.434
 7749TIP3    H223212   2.739   3.312   0.340
 7750TIP3   OH223213   6.172   6.227   3.231
 7750TIP3    H123214   6.143   6.260   3.316
 7750TIP3    H223215   6.267   6.216   3.241
 7751TIP3   OH223216   2.410   5.235   2.997
 7751TIP3    H123217   2.335   5.293   2.985
 7751TIP3    H223218   2.472   5.261   2.929
 7752TIP3   OH223219   7.038   5.803   1.080
 7752TIP3    H123220   7.128   5.835   1.076
 7752TIP3    H223221   7.042   5.712   1.050
 7753TIP3   OH223222   1.736   5.058   4.335
 7753TIP3    H123223   1.747   5.123   4.404
 7753TIP3    H223224   1.653   5.015   4.357
 7754TIP3   OH223225   5.957   5.419   5.002
 7754TIP3    H123226   5.960   5.424   4.906
 7754TIP3    H223227   6.045   5.391   5.026
 7755TIP3   OH223228   4.315   5.680   1.715
 7755TIP3    H123229   4.314   5.720   1.627
 7755TIP3    H223230   4.236   5.714   1.757
 7756TIP3   OH223231   0.911   5.625   1.654
 7756TIP3    H123232   0.884   5.557   1.592
 7756TIP3    H223233   1.001   5.647   1.628
 7757TIP3   OH223234   5.147   4.553   5.056
 7757TIP3    H123235   5.241   4.538   5.049
 7757TIP3    H223236   5.124   4.599   4.976
 7758TIP3   OH223237   1.715   6.418   4.348
 7758TIP3    H123238   1.752   6.427   4.260
 7758TIP3    H223239   1.780   6.456   4.405
 7759TIP3   OH223240   5.239   3.316   3.768
 7759TIP3    H123241   5.261   3.397   3.815
 7759TIP3    H223242   5.168   3.277   3.818
 7760TIP3   OH223243   0.653   6.717   5.134
 7760TIP3    H123244   0.621   6.751   5.050
 7760TIP3    H223245   0.688   6.630   5.113
 7761TIP3   OH223246   3.599   3.098   4.947
 7761TIP3    H123247   3.521   3.152   4.942
 7761TIP3    H223248   3.642   3.126   5.029
 7762TIP3   OH223249   0.548   1.279   1.928
 7762TIP3    H123250   0.524   1.226   1.851
 7762TIP3    H223251   0.464   1.308   1.963
 7763TIP3   OH223252   1.248   1.467   5.465
 7763TIP3    H123253   1.215   1.412   5.394
 7763TIP3    H223254   1.328   1.424   5.493
 7764TIP3   OH223255   6.091   2.108   5.310
 7764TIP3    H123256   6.064   2.098   5.219
 7764TIP3    H223257   6.177   2.150   5.304
 7765TIP3   OH223258   2.354   1.272   3.335
 7765TIP3    H123259   2.443   1.254   3.365
 7765TIP3    H223260   2.345   1.223   3.254
 7766TIP3   OH223261   2.205   0.158   5.195
 7766TIP3    H123262   2.167   0.211   5.265
 7766TIP3    H223263   2.277   0.210   5.161
 7767TIP3   OH223264   3.953   2.568   1.945
 7767TIP3    H123265   3.998   2.587   2.027
 7767TIP3    H223266   3.944   2.653   1.902
 7768TIP3   OH223267   6.103   3.663   1.460
 7768TIP3    H123268   6.073   3.656   1.369
 7768TIP3    H223269   6.076   3.751   1.487
 7769TIP3   OH223270   0.204   1.779   1.307
 7769TIP3    H123271   0.132   1.805   1.249
 7769TIP3    H223272   0.283   1.788   1.253
 7770TIP3   OH223273   2.470   5.302   5.828
 7770TIP3    H123274   2.551   5.258   5.852
 7770TIP3    H223275   2.492   5.395   5.827
 7771TIP3   OH223276   1.212   6.577   2.425
 7771TIP3    H123277   1.279   6.519   2.461
 7771TIP3    H223278   1.256   6.661   2.413
 7772TIP3   OH223279   1.300   1.911   0.811
 7772TIP3    H123280   1.282   1.951   0.896
 7772TIP3    H223281   1.270   1.977   0.747
 7773TIP3   OH223282   1.827   5.667   5.804
 7773TIP3    H123283   1.826   5.597   5.869
 7773TIP3    H223284   1.844   5.746   5.855
 7774TIP3   OH223285   6.841   5.978   3.105
 7774TIP3    H123286   6.867   6.065   3.074
 7774TIP3    H223287   6.790   5.941   3.033
 7775TIP3   OH223288   5.650   0.983   4.549
 7775TIP3    H123289   5.688   1.064   4.513
 7775TIP3    H223290   5.654   0.921   4.477
 7776TIP3   OH223291   0.341   3.885   0.914
 7776TIP3    H123292   0.385   3.843   0.988
 7776TIP3    H223293   0.401   3.874   0.840
 7777TIP3   OH223294   0.871   1.285   4.224
 7777TIP3    H123295   0.848   1.288   4.317
 7777TIP3    H223296   0.914   1.200   4.212
 7778TIP3   OH223297   1.681   5.712   0.125
 7778TIP3    H123298   1.621   5.748   0.190
 7778TIP3    H223299   1.752   5.777   0.121
 7779TIP3   OH223300   0.205   1.602   5.231
 7779TIP3    H123301   0.201   1.519   5.279
 7779TIP3    H223302   0.298   1.620   5.222
 7780TIP3   OH223303   0.526   5.841   0.238
 7780TIP3    H123304   0.590   5.820   0.306
 7780TIP3    H223305   0.452   5.878   0.286
 7781TIP3   OH223306   2.757   0.077   2.864
 7781TIP3    H123307   2.849   0.100   2.881
 7781TIP3    H223308   2.762   0.006   2.801
 7782TIP3   OH223309   2.027   6.741   3.139
 7782TIP3    H123310   2.020   6.706   3.051
 7782TIP3    H223311   1.989   6.828   3.134
 7783TIP3   OH223312   6.989   1.158   4.415
 7783TIP3    H123313   6.938   1.111   4.481
 7783TIP3    H223314   6.928   1.220   4.376
 7784TIP3   OH223315   4.835   2.186   2.851
 7784TIP3    H123316   4.794   2.240   2.918
 7784TIP3    H223317   4.928   2.190   2.871
 7785TIP3   OH223318   0.752   5.985   3.759
 7785TIP3    H123319   0.761   5.894   3.729
 7785TIP3    H223320   0.739   6.035   3.678
 7786TIP3   OH223321   4.136   4.244   4.754
 7786TIP3    H123322   4.177   4.310   4.810
 7786TIP3    H223323   4.210   4.199   4.713
 7787TIP3   OH223324   6.960   2.727   4.616
 7787TIP3    H123325   6.915   2.647   4.587
 7787TIP3    H223326   6.955   2.725   4.712
 7788TIP3   OH223327   4.453   3.090   2.903
 7788TIP3    H123328   4.463   3.165   2.960
 7788TIP3    H223329   4.527   3.096   2.842
 7789TIP3   OH223330   5.326   0.424   2.980
 7789TIP3    H123331   5.412   0.397   2.946
 7789TIP3    H223332   5.290   0.482   2.913
 7790TIP3   OH223333   2.275   0.888   5.832
 7790TIP3    H123334   2.233   0.843   5.905
 7790TIP3    H223335   2.221   0.965   5.817
 7791TIP3   OH223336   6.392   0.382   4.945
 7791TIP3    H123337   6.313   0.365   4.995
 7791TIP3    H223338   6.400   0.308   4.885
 7792TIP3   OH223339   2.534   4.356   0.684
 7792TIP3    H123340   2.559   4.309   0.604
 7792TIP3    H223341   2.517   4.445   0.655
 7793TIP3   OH223342   1.447   5.264   2.293
 7793TIP3    H123343   1.388   5.196   2.261
 7793TIP3    H223344   1.517   5.216   2.338
 7794TIP3   OH223345   7.183   5.792   5.610
 7794TIP3    H123346   7.089   5.807   5.622
 7794TIP3    H223347   7.217   5.789   5.699
 7795TIP3   OH223348   3.017   0.321   4.809
 7795TIP3    H123349   3.053   0.337   4.896
 7795TIP3    H223350   2.923   0.330   4.819
 7796TIP3   OH223351   6.873   0.161   2.674
 7796TIP3    H123352   6.843   0.109   2.599
 7796TIP3    H223353   6.927   0.101   2.725
 7797TIP3   OH223354   5.712   1.509   2.801
 7797TIP3    H123355   5.705   1.572   2.729
 7797TIP3    H223356   5.691   1.560   2.879
 7798TIP3   OH223357   0.492   5.339   3.843
 7798TIP3    H123358   0.477   5.256   3.889
 7798TIP3    H223359   0.456   5.405   3.902
 7799TIP3   OH223360   4.645   0.642   5.087
 7799TIP3    H123361   4.592   0.668   5.012
 7799TIP3    H223362   4.661   0.724   5.134
 7800TIP3   OH223363   5.903   6.188   3.127
 7800TIP3    H123364   5.997   6.201   3.137
 7800TIP3    H223365   5.892   6.159   3.037
 7801TIP3   OH223366   0.698   0.710   2.766
 7801TIP3    H123367   0.645   0.776   2.722
 7801TIP3    H223368   0.700   0.636   2.704
 7802TIP3   OH223369   0.008   6.512   5.739
 7802TIP3    H123370   0.070   6.444   5.713
 7802TIP3    H223371   0.056   6.567   5.800
 7803TIP3   OH223372   4.711   4.681   5.207
 7803TIP3    H123373   4.754   4.642   5.131
 7803TIP3    H223374   4.694   4.772   5.181
 7804TIP3   OH223375   6.977   0.624   4.249
 7804TIP3    H123376   7.017   0.539   4.267
 7804TIP3    H223377   7.051   0.680   4.225
 7805TIP3   OH223378   3.655   5.281   0.252
 7805TIP3    H123379   3.590   5.287   0.182
 7805TIP3    H223380   3.731   5.239   0.211
 7806TIP3   OH223381   3.254   4.151   3.231
 7806TIP3    H123382   3.290   4.192   3.309
 7806TIP3    H223383   3.159   4.151   3.245
 7807TIP3   OH223384   5.716   3.668   4.364
 7807TIP3    H123385   5.774   3.654   4.438
 7807TIP3    H223386   5.628   3.665   4.401
 7808TIP3   OH223387   7.131   5.996   5.361
 7808TIP3    H123388   7.036   6.005   5.353
 7808TIP3    H223389   7.164   6.008   5.272
 7809TIP3   OH223390   4.522   5.279   5.416
 7809TIP3    H123391   4.586   5.271   5.346
 7809TIP3    H223392   4.451   5.330   5.377
 7810TIP3   OH223393   2.712   3.032   2.306
 7810TIP3    H123394   2.743   2.979   2.233
 7810TIP3    H223395   2.639   3.083   2.270
 7811TIP3   OH223396   6.591   2.739   3.649
 7811TIP3    H123397   6.646   2.668   3.616
 7811TIP3    H223398   6.654   2.807   3.676
 7812TIP3   OH223399   1.223   6.233   1.870
 7812TIP3    H123400   1.293   6.273   1.818
 7812TIP3    H223401   1.232   6.139   1.856
 7813TIP3   OH223402   6.774   4.660   4.668
 7813TIP3    H123403   6.714   4.609   4.614
 7813TIP3    H223404   6.860   4.624   4.648
 7814TIP3   OH223405   5.160   3.848   0.960
 7814TIP3    H123406   5.138   3.765   1.004
 7814TIP3    H223407   5.101   3.912   0.999
 7815TIP3   OH223408   6.215   5.686   1.192
 7815TIP3    H123409   6.174   5.634   1.123
 7815TIP3    H223410   6.152   5.684   1.264
 7816TIP3   OH223411   1.901   5.605   0.331
 7816TIP3    H123412   1.866   5.666   0.395
 7816TIP3    H223413   1.833   5.599   0.264
 7817TIP3   OH223414   5.746   4.907   0.648
 7817TIP3    H123415   5.668   4.898   0.593
 7817TIP3    H223416   5.766   5.001   0.645
 7818TIP3   OH223417   0.930   5.842   0.305
 7818TIP3    H123418   0.866   5.816   0.372
 7818TIP3    H223419   0.883   5.905   0.250
 7819TIP3   OH223420   1.029   3.261   0.988
 7819TIP3    H123421   1.019   3.205   0.911
 7819TIP3    H223422   1.123   3.263   1.003
 7820TIP3   OH223423   2.382   0.326   1.032
 7820TIP3    H123424   2.396   0.420   1.043
 7820TIP3    H223425   2.314   0.319   0.966
 7821TIP3   OH223426   1.501   3.664   2.597
 7821TIP3    H123427   1.438   3.733   2.575
 7821TIP3    H223428   1.470   3.629   2.680
 7822TIP3   OH223429   0.165   6.232   2.165
 7822TIP3    H123430   0.186   6.139   2.176
 7822TIP3    H223431   0.122   6.256   2.246
 7823TIP3   OH223432   1.952   1.884   5.481
 7823TIP3    H123433   1.892   1.878   5.556
 7823TIP3    H223434   1.894   1.894   5.405
 7824TIP3   OH223435   1.917   1.304   3.214
 7824TIP3    H123436   1.878   1.217   3.207
 7824TIP3    H223437   1.924   1.335   3.124
 7825TIP3   OH223438   0.820   4.223   2.395
 7825TIP3    H123439   0.766   4.241   2.471
 7825TIP3    H223440   0.760   4.228   2.321
 7826TIP3   OH223441   6.380   2.402   3.661
 7826TIP3    H123442   6.423   2.332   3.710
 7826TIP3    H223443   6.423   2.400   3.575
 7827TIP3   OH223444   3.869   1.108   0.731
 7827TIP3    H123445   3.873   1.023   0.686
 7827TIP3    H223446   3.956   1.121   0.768
 7828TIP3   OH223447   6.304   5.769   2.517
 7828TIP3    H123448   6.370   5.792   2.452
 7828TIP3    H223449   6.221   5.797   2.478
 7829TIP3   OH223450   1.928   1.701   3.499
 7829TIP3    H123451   1.945   1.615   3.462
 7829TIP3    H223452   1.998   1.756   3.466
 7830TIP3   OH223453   0.692   5.199   2.715
 7830TIP3    H123454   0.686   5.162   2.803
 7830TIP3    H223455   0.630   5.148   2.662
 7831TIP3   OH223456   6.917   4.170   3.044
 7831TIP3    H123457   6.863   4.237   3.003
 7831TIP3    H223458   6.894   4.175   3.137
 7832TIP3   OH223459   6.536   3.293   4.772
 7832TIP3    H123460   6.529   3.354   4.698
 7832TIP3    H223461   6.630   3.286   4.788
 7833TIP3   OH223462   6.419   4.599   3.488
 7833TIP3    H123463   6.494   4.567   3.437
 7833TIP3    H223464   6.428   4.694   3.486
 7834TIP3   OH223465   5.904   1.268   0.353
 7834TIP3    H123466   5.951   1.230   0.278
 7834TIP3    H223467   5.913   1.203   0.422
 7835TIP3   OH223468   0.888   2.576   5.088
 7835TIP3    H123469   0.818   2.567   5.023
 7835TIP3    H223470   0.877   2.664   5.123
 7836TIP3   OH223471   5.877   6.326   3.514
 7836TIP3    H123472   5.870   6.245   3.564
 7836TIP3    H223473   5.820   6.313   3.439
 7837TIP3   OH223474   5.876   3.763   0.803
 7837TIP3    H123475   5.843   3.721   0.882
 7837TIP3    H223476   5.801   3.809   0.767
 7838TIP3   OH223477   4.304   2.033   4.324
 7838TIP3    H123478   4.244   2.043   4.251
 7838TIP3    H223479   4.369   2.103   4.313
 7839TIP3   OH223480   2.487   5.102   3.445
 7839TIP3    H123481   2.505   5.030   3.506
 7839TIP3    H223482   2.395   5.124   3.461
 7840TIP3   OH223483   2.397   6.488   0.210
 7840TIP3    H123484   2.311   6.456   0.182
 7840TIP3    H223485   2.458   6.454   0.145
 7841TIP3   OH223486   5.779   6.339   1.765
 7841TIP3    H123487   5.704   6.316   1.709
 7841TIP3    H223488   5.782   6.435   1.762
 7842TIP3   OH223489   4.592   5.861   1.172
 7842TIP3    H123490   4.647   5.846   1.249
 7842TIP3    H223491   4.589   5.956   1.163
 7843TIP3   OH223492   4.580   4.537   4.914
 7843TIP3    H123493   4.669   4.563   4.939
 7843TIP3    H223494   4.531   4.540   4.996
 7844TIP3   OH223495   1.706   4.454   3.198
 7844TIP3    H123496   1.742   4.527   3.149
 7844TIP3    H223497   1.625   4.432   3.151
 7845TIP3   OH223498   6.672   4.761   1.142
 7845TIP3    H123499   6.713   4.830   1.195
 7845TIP3    H223500   6.678   4.682   1.197
 7846TIP3   OH223501   1.238   5.637   1.962
 7846TIP3    H123502   1.230   5.623   2.056
 7846TIP3    H223503   1.275   5.556   1.928
 7847TIP3   OH223504   5.905   1.796   2.716
 7847TIP3    H123505   5.888   1.839   2.799
 7847TIP3    H223506   5.845   1.838   2.654
 7848TIP3   OH223507   0.962   5.986   1.537
 7848TIP3    H123508   0.944   6.024   1.623
 7848TIP3    H223509   1.048   6.021   1.513
 7849TIP3   OH223510   5.723   2.419   2.675
 7849TIP3    H123511   5.764   2.485   2.731
 7849TIP3    H223512   5.697   2.466   2.596
 7850TIP3   OH223513   2.501   2.631   4.014
 7850TIP3    H123514   2.544   2.583   4.085
 7850TIP3    H223515   2.572   2.675   3.969
 7851TIP3   OH223516   1.503   0.918   2.860
 7851TIP3    H123517   1.458   0.834   2.863
 7851TIP3    H223518   1.433   0.983   2.849
 7852TIP3   OH223519   4.552   0.374   2.706
 7852TIP3    H123520   4.623   0.316   2.734
 7852TIP3    H223521   4.513   0.329   2.631
 7853TIP3   OH223522   6.402   3.430   3.737
 7853TIP3    H123523   6.355   3.464   3.814
 7853TIP3    H223524   6.492   3.419   3.768
 7854TIP3   OH223525   6.421   5.337   5.446
 7854TIP3    H123526   6.487   5.273   5.476
 7854TIP3    H223527   6.351   5.283   5.410
 7855TIP3   OH223528   1.621   3.196   0.386
 7855TIP3    H123529   1.620   3.256   0.312
 7855TIP3    H223530   1.655   3.114   0.351
 7856TIP3   OH223531   3.843   2.942   4.874
 7856TIP3    H123532   3.759   2.985   4.889
 7856TIP3    H223533   3.907   2.998   4.918
 7857TIP3   OH223534   1.307   2.888   5.091
 7857TIP3    H123535   1.247   2.816   5.111
 7857TIP3    H223536   1.394   2.847   5.091
 7858TIP3   OH223537   2.904   0.905   5.017
 7858TIP3    H123538   2.894   0.826   5.070
 7858TIP3    H223539   2.873   0.976   5.073
 7859TIP3   OH223540   5.693   3.392   0.440
 7859TIP3    H123541   5.601   3.398   0.465
 7859TIP3    H223542   5.740   3.435   0.511
 7860TIP3   OH223543   2.756   5.473   2.761
 7860TIP3    H123544   2.767   5.378   2.767
 7860TIP3    H223545   2.680   5.492   2.817
 7861TIP3   OH223546   5.729   5.927   5.045
 7861TIP3    H123547   5.719   5.975   5.127
 7861TIP3    H223548   5.807   5.873   5.057
 7862TIP3   OH223549   1.032   4.821   2.794
 7862TIP3    H123550   0.943   4.825   2.760
 7862TIP3    H223551   1.086   4.794   2.719
 7863TIP3   OH223552   3.302   2.728   4.060
 7863TIP3    H123553   3.351   2.810   4.054
 7863TIP3    H223554   3.245   2.729   3.983
 7864TIP3   OH223555   5.476   5.431   2.816
 7864TIP3    H123556   5.417   5.479   2.874
 7864TIP3    H223557   5.563   5.463   2.839
 7865TIP3   OH223558   5.818   5.124   1.457
 7865TIP3    H123559   5.808   5.101   1.364
 7865TIP3    H223560   5.773   5.054   1.504
 7866TIP3   OH223561   0.027   0.763   5.044
 7866TIP3    H123562  -0.026   0.828   5.089
 7866TIP3    H223563  -0.033   0.720   4.983
 7867TIP3   OH223564   5.477   1.997   2.739
 7867TIP3    H123565   5.421   2.074   2.749
 7867TIP3    H223566   5.437   1.930   2.795
 7868TIP3   OH223567   0.313   2.518   5.457
 7868TIP3    H123568   0.348   2.482   5.538
 7868TIP3    H223569   0.362   2.600   5.444
 7869TIP3   OH223570   2.135   0.304   0.222
 7869TIP3    H123571   2.096   0.225   0.260
 7869TIP3    H223572   2.197   0.335   0.288
 7870TIP3   OH223573   0.025   1.462   0.483
 7870TIP3    H123574   0.070   1.432   0.404
 7870TIP3    H223575   0.057   1.404   0.552
 7871TIP3   OH223576   4.132   1.827   3.436
 7871TIP3    H123577   4.222   1.845   3.409
 7871TIP3    H223578   4.092   1.913   3.447
 7872TIP3   OH223579   6.117   2.400   1.903
 7872TIP3    H123580   6.029   2.425   1.933
 7872TIP3    H223581   6.101   2.331   1.839
 7873TIP3   OH223582   7.106   1.400   3.894
 7873TIP3    H123583   7.084   1.482   3.850
 7873TIP3    H223584   7.111   1.336   3.823
 7874TIP3   OH223585   1.925   4.512   4.206
 7874TIP3    H123586   1.951   4.572   4.136
 7874TIP3    H223587   1.844   4.549   4.241
 7875TIP3   OH223588   4.663   0.705   3.646
 7875TIP3    H123589   4.650   0.774   3.711
 7875TIP3    H223590   4.576   0.668   3.632
 7876TIP3   OH223591   6.254   4.323   2.096
 7876TIP3    H123592   6.171   4.367   2.079
 7876TIP3    H223593   6.251   4.243   2.044
 7877TIP3   OH223594   1.336   4.304   3.649
 7877TIP3    H123595   1.256   4.268   3.688
 7877TIP3    H223596   1.380   4.228   3.610
 7878TIP3   OH223597   5.358   4.919   0.254
 7878TIP3    H123598   5.337   4.887   0.166
 7878TIP3    H223599   5.292   4.878   0.311
 7879TIP3   OH223600   0.839   4.248   5.028
 7879TIP3    H123601   0.848   4.199   5.110
 7879TIP3    H223602   0.800   4.331   5.054
 7880TIP3   OH223603   3.051   4.625   0.190
 7880TIP3    H123604   3.093   4.698   0.143
 7880TIP3    H223605   3.019   4.665   0.271
 7881TIP3   OH223606   2.728   1.989   3.957
 7881TIP3    H123607   2.735   2.056   4.024
 7881TIP3    H223608   2.741   1.906   4.004
 7882TIP3   OH223609   5.531   2.611   4.275
 7882TIP3    H123610   5.533   2.690   4.330
 7882TIP3    H223611   5.616   2.569   4.290
 7883TIP3   OH223612   5.222   6.681   5.549
 7883TIP3    H123613   5.262   6.768   5.554
 7883TIP3    H223614   5.282   6.623   5.596
 7884TIP3   OH223615   1.337   4.326   1.027
 7884TIP3    H123616   1.407   4.365   1.079
 7884TIP3    H223617   1.327   4.238   1.063
 7885TIP3   OH223618   5.579   2.850   1.553
 7885TIP3    H123619   5.561   2.762   1.586
 7885TIP3    H223620   5.502   2.873   1.501
 7886TIP3   OH223621   1.520   0.469   2.052
 7886TIP3    H123622   1.431   0.472   2.018
 7886TIP3    H223623   1.575   0.451   1.975
 7887TIP3   OH223624   7.047   3.342   5.016
 7887TIP3    H123625   7.117   3.357   5.079
 7887TIP3    H223626   7.016   3.430   4.993
 7888TIP3   OH223627   6.816   1.584   0.390
 7888TIP3    H123628   6.858   1.667   0.368
 7888TIP3    H223629   6.722   1.601   0.382
 7889TIP3   OH223630   6.079   2.059   3.676
 7889TIP3    H123631   6.047   2.110   3.601
 7889TIP3    H223632   6.017   2.079   3.746
 7890TIP3   OH223633   2.855   3.721   5.162
 7890TIP3    H123634   2.809   3.781   5.104
 7890TIP3    H223635   2.845   3.635   5.120
 7891TIP3   OH223636   6.681   1.348   0.598
 7891TIP3    H123637   6.669   1.428   0.546
 7891TIP3    H223638   6.705   1.380   0.685
 7892TIP3   OH223639   2.314   5.784   5.812
 7892TIP3    H123640   2.244   5.783   5.747
 7892TIP3    H223641   2.360   5.866   5.797
 7893TIP3   OH223642   5.408   3.879   5.713
 7893TIP3    H123643   5.442   3.904   5.626
 7893TIP3    H223644   5.402   3.962   5.760
 7894TIP3   OH223645   3.895   4.508   2.579
 7894TIP3    H123646   3.845   4.457   2.642
 7894TIP3    H223647   3.830   4.562   2.534
 7895TIP3   OH223648   5.076   2.562   4.919
 7895TIP3    H123649   5.159   2.598   4.888
 7895TIP3    H223650   5.013   2.589   4.852
 7896TIP3   OH223651   3.201   3.358   1.808
 7896TIP3    H123652   3.142   3.392   1.874
 7896TIP3    H223653   3.178   3.406   1.728
 7897TIP3   OH223654   2.894   0.572   1.084
 7897TIP3    H123655   2.926   0.523   1.159
 7897TIP3    H223656   2.875   0.505   1.018
 7898TIP3   OH223657   2.696   5.985   5.768
 7898TIP3    H123658   2.614   6.028   5.745
 7898TIP3    H223659   2.681   5.953   5.857
 7899TIP3   OH223660   3.505   5.165   1.843
 7899TIP3    H123661   3.578   5.104   1.833
 7899TIP3    H223662   3.430   5.110   1.864
 7900TIP3   OH223663   0.739   2.792   5.674
 7900TIP3    H123664   0.769   2.868   5.624
 7900TIP3    H223665   0.751   2.718   5.614
 7901TIP3   OH223666   2.320   2.274   2.712
 7901TIP3    H123667   2.399   2.323   2.735
 7901TIP3    H223668   2.327   2.192   2.760
 7902TIP3   OH223669   2.406   2.439   5.133
 7902TIP3    H123670   2.340   2.504   5.107
 7902TIP3    H223671   2.475   2.448   5.067
 7903TIP3   OH223672   4.743   6.604   3.963
 7903TIP3    H123673   4.701   6.576   3.882
 7903TIP3    H223674   4.697   6.557   4.033
 7904TIP3   OH223675   4.985   4.077   2.290
 7904TIP3    H123676   4.915   4.049   2.348
 7904TIP3    H223677   5.061   4.088   2.347
 7905TIP3   OH223678   2.349   5.315   5.582
 7905TIP3    H123679   2.406   5.295   5.656
 7905TIP3    H223680   2.394   5.386   5.536
 7906TIP3   OH223681   1.324   4.375   3.243
 7906TIP3    H123682   1.410   4.344   3.214
 7906TIP3    H223683   1.273   4.384   3.163
 7907TIP3   OH223684   2.387   4.270   1.746
 7907TIP3    H123685   2.365   4.295   1.656
 7907TIP3    H223686   2.390   4.175   1.745
 7908TIP3   OH223687   6.113   0.726   5.562
 7908TIP3    H123688   6.189   0.707   5.618
 7908TIP3    H223689   6.037   0.707   5.616
 7909TIP3   OH223690   6.010   3.205   5.814
 7909TIP3    H123691   6.056   3.245   5.888
 7909TIP3    H223692   5.940   3.266   5.793
 7910TIP3   OH223693   3.060   5.841   0.319
 7910TIP3    H123694   3.068   5.917   0.378
 7910TIP3    H223695   3.015   5.876   0.242
 7911TIP3   OH223696   2.582   5.780   1.150
 7911TIP3    H123697   2.655   5.812   1.202
 7911TIP3    H223698   2.617   5.707   1.100
 7912TIP3   OH223699   6.760   3.679   2.344
 7912TIP3    H123700   6.790   3.766   2.374
 7912TIP3    H223701   6.762   3.685   2.249
 7913TIP3   OH223702   3.087   0.723   4.045
 7913TIP3    H123703   3.043   0.807   4.062
 7913TIP3    H223704   3.027   0.677   3.986
 7914TIP3   OH223705   2.320   0.597   1.121
 7914TIP3    H123706   2.231   0.608   1.088
 7914TIP3    H223707   2.311   0.599   1.216
 7915TIP3   OH223708   6.865   5.385   3.787
 7915TIP3    H123709   6.940   5.334   3.758
 7915TIP3    H223710   6.800   5.321   3.814
 7916TIP3   OH223711   4.696   6.522   1.189
 7916TIP3    H123712   4.642   6.577   1.245
 7916TIP3    H223713   4.774   6.503   1.241
 7917TIP3   OH223714   6.745   0.911   2.547
 7917TIP3    H123715   6.795   0.989   2.526
 7917TIP3    H223716   6.763   0.851   2.474
 7918TIP3   OH223717   1.966   5.247   0.433
 7918TIP3    H123718   1.891   5.271   0.378
 7918TIP3    H223719   2.038   5.300   0.398
 7919TIP3   OH223720   3.223   0.748   0.717
 7919TIP3    H123721   3.312   0.730   0.686
 7919TIP3    H223722   3.224   0.721   0.809
 7920TIP3   OH223723   0.114   2.875   4.162
 7920TIP3    H123724   0.079   2.840   4.243
 7920TIP3    H223725   0.148   2.962   4.185
 7921TIP3   OH223726   0.146   1.336   2.718
 7921TIP3    H123727   0.075   1.378   2.670
 7921TIP3    H223728   0.183   1.273   2.656
 7922TIP3   OH223729   0.896   3.022   1.084
 7922TIP3    H123730   0.852   2.984   1.008
 7922TIP3    H223731   0.903   3.115   1.065
 7923TIP3   OH223732   5.509   1.617   0.300
 7923TIP3    H123733   5.549   1.622   0.213
 7923TIP3    H223734   5.555   1.545   0.343
 7924TIP3   OH223735   1.697   2.835   2.129
 7924TIP3    H123736   1.630   2.780   2.088
 7924TIP3    H223737   1.654   2.871   2.206
 7925TIP3   OH223738   0.633   0.886   3.813
 7925TIP3    H123739   0.562   0.823   3.801
 7925TIP3    H223740   0.599   0.967   3.773
 7926TIP3   OH223741   6.826   1.440   1.946
 7926TIP3    H123742   6.754   1.378   1.957
 7926TIP3    H223743   6.868   1.414   1.865
 7927TIP3   OH223744   4.565   1.344   1.383
 7927TIP3    H123745   4.480   1.365   1.422
 7927TIP3    H223746   4.609   1.290   1.449
 7928TIP3   OH223747   5.885   2.819   0.214
 7928TIP3    H123748   5.912   2.910   0.229
 7928TIP3    H223749   5.848   2.819   0.126
 7929TIP3   OH223750   2.547   2.063   5.347
 7929TIP3    H123751   2.575   2.085   5.258
 7929TIP3    H223752   2.554   2.145   5.395
 7930TIP3   OH223753   6.698   4.169   5.085
 7930TIP3    H123754   6.727   4.261   5.087
 7930TIP3    H223755   6.723   4.135   5.170
 7931TIP3   OH223756   4.525   3.487   2.620
 7931TIP3    H123757   4.578   3.564   2.597
 7931TIP3    H223758   4.437   3.522   2.634
 7932TIP3   OH223759   7.068   1.637   2.696
 7932TIP3    H123760   7.117   1.719   2.702
 7932TIP3    H223761   6.978   1.665   2.677
 7933TIP3   OH223762   0.504   0.853   5.793
 7933TIP3    H123763   0.542   0.941   5.789
 7933TIP3    H223764   0.415   0.866   5.824
 7934TIP3   OH223765   1.814   1.166   0.667
 7934TIP3    H123766   1.816   1.123   0.753
 7934TIP3    H223767   1.905   1.194   0.652
 7935TIP3   OH223768   1.514   5.198   3.919
 7935TIP3    H123769   1.569   5.271   3.891
 7935TIP3    H223770   1.559   5.162   3.996
 7936TIP3   OH223771   5.080   6.148   3.270
 7936TIP3    H123772   5.010   6.174   3.330
 7936TIP3    H223773   5.147   6.215   3.280
 7937TIP3   OH223774   3.419   1.223   3.861
 7937TIP3    H123775   3.423   1.133   3.893
 7937TIP3    H223776   3.371   1.271   3.928
 7938TIP3   OH223777   5.291   0.155   3.587
 7938TIP3    H123778   5.382   0.137   3.564
 7938TIP3    H223779   5.295   0.185   3.678
 7939TIP3   OH223780   1.237   5.968   4.540
 7939TIP3    H123781   1.218   5.914   4.463
 7939TIP3    H223782   1.298   6.035   4.508
 7940TIP3   OH223783   7.062   2.629   2.073
 7940TIP3    H123784   7.096   2.541   2.056
 7940TIP3    H223785   7.125   2.688   2.031
 7941TIP3   OH223786   5.178   5.614   0.912
 7941TIP3    H123787   5.269   5.644   0.913
 7941TIP3    H223788   5.152   5.616   1.004
 7942TIP3   OH223789   4.098   4.880   1.009
 7942TIP3    H123790   4.085   4.974   1.017
 7942TIP3    H223791   4.054   4.843   1.086
 7943TIP3   OH223792   2.872   2.394   1.212
 7943TIP3    H123793   2.873   2.361   1.121
 7943TIP3    H223794   2.944   2.456   1.215
 7944TIP3   OH223795   6.177   6.728   1.158
 7944TIP3    H123796   6.256   6.674   1.166
 7944TIP3    H223797   6.110   6.668   1.125
 7945TIP3   OH223798   3.416   5.350   5.293
 7945TIP3    H123799   3.402   5.313   5.206
 7945TIP3    H223800   3.477   5.290   5.336
 7946TIP3   OH223801   5.386   5.009   3.657
 7946TIP3    H123802   5.338   5.090   3.638
 7946TIP3    H223803   5.478   5.033   3.646
 7947TIP3   OH223804   5.986   2.944   5.883
 7947TIP3    H123805   5.970   3.038   5.883
 7947TIP3    H223806   5.900   2.905   5.866
 7948TIP3   OH223807   1.721   3.679   4.572
 7948TIP3    H123808   1.737   3.614   4.641
 7948TIP3    H223809   1.797   3.672   4.514
 7949TIP3   OH223810   2.067   1.902   1.026
 7949TIP3    H123811   2.152   1.875   0.990
 7949TIP3    H223812   2.090   1.968   1.092
 7950TIP3   OH223813   0.383   4.135   3.345
 7950TIP3    H123814   0.377   4.085   3.264
 7950TIP3    H223815   0.395   4.226   3.317
 7951TIP3   OH223816   3.726   0.760   3.386
 7951TIP3    H123817   3.664   0.833   3.382
 7951TIP3    H223818   3.792   0.788   3.449
 7952TIP3   OH223819   6.042   1.931   0.324
 7952TIP3    H123820   6.065   1.848   0.284
 7952TIP3    H223821   5.952   1.947   0.297
 7953TIP3   OH223822   7.155   3.856   5.306
 7953TIP3    H123823   7.084   3.791   5.308
 7953TIP3    H223824   7.230   3.808   5.273
 7954TIP3   OH223825   5.634   4.867   1.540
 7954TIP3    H123826   5.690   4.812   1.595
 7954TIP3    H223827   5.656   4.842   1.450
 7955TIP3   OH223828   0.182   2.403   2.165
 7955TIP3    H123829   0.110   2.379   2.106
 7955TIP3    H223830   0.211   2.488   2.133
 7956TIP3   OH223831   5.378   1.302   5.789
 7956TIP3    H123832   5.286   1.274   5.785
 7956TIP3    H223833   5.384   1.350   5.872
 7957TIP3   OH223834   5.197   0.579   1.201
 7957TIP3    H123835   5.155   0.545   1.280
 7957TIP3    H223836   5.267   0.636   1.233
 7958TIP3   OH223837   5.060   4.828   1.556
 7958TIP3    H123838   5.050   4.788   1.470
 7958TIP3    H223839   4.970   4.834   1.590
 7959TIP3   OH223840   2.535   3.174   2.177
 7959TIP3    H123841   2.546   3.244   2.113
 7959TIP3    H223842   2.483   3.108   2.132
 7960TIP3   OH223843   4.179   4.129   3.525
 7960TIP3    H123844   4.241   4.127   3.598
 7960TIP3    H223845   4.104   4.078   3.555
 7961TIP3   OH223846   3.706   4.740   4.546
 7961TIP3    H123847   3.672   4.827   4.569
 7961TIP3    H223848   3.670   4.723   4.459
 7962TIP3   OH223849   2.496   1.676   0.295
 7962TIP3    H123850   2.560   1.717   0.353
 7962TIP3    H223851   2.549   1.619   0.238
 7963TIP3   OH223852   1.977   1.962   2.828
 7963TIP3    H123853   2.028   1.989   2.904
 7963TIP3    H223854   2.039   1.963   2.755
 7964TIP3   OH223855   0.535   3.659   2.273
 7964TIP3    H123856   0.630   3.662   2.284
 7964TIP3    H223857   0.522   3.671   2.179
 7965TIP3   OH223858   3.267   4.725   0.823
 7965TIP3    H123859   3.196   4.769   0.775
 7965TIP3    H223860   3.240   4.730   0.914
 7966TIP3   OH223861   3.557   1.412   3.354
 7966TIP3    H123862   3.610   1.490   3.369
 7966TIP3    H223863   3.500   1.407   3.430
 7967TIP3   OH223864   5.954   3.590   4.529
 7967TIP3    H123865   5.968   3.566   4.620
 7967TIP3    H223866   5.949   3.507   4.482
 7968TIP3   OH223867   0.489   1.892   4.432
 7968TIP3    H123868   0.419   1.880   4.368
 7968TIP3    H223869   0.560   1.838   4.400
 7969TIP3   OH223870   2.566   5.396   5.295
 7969TIP3    H123871   2.659   5.391   5.274
 7969TIP3    H223872   2.562   5.462   5.365
 7970TIP3   OH223873   3.837   4.182   2.288
 7970TIP3    H123874   3.782   4.187   2.210
 7970TIP3    H223875   3.778   4.149   2.356
 7971TIP3   OH223876   1.235   4.148   4.072
 7971TIP3    H123877   1.180   4.077   4.037
 7971TIP3    H223878   1.244   4.127   4.165
 7972TIP3   OH223879   1.518   0.731   4.570
 7972TIP3    H123880   1.538   0.822   4.546
 7972TIP3    H223881   1.434   0.738   4.617
 7973TIP3   OH223882   3.038   0.450   2.233
 7973TIP3    H123883   3.111   0.512   2.224
 7973TIP3    H223884   2.964   0.504   2.261
 7974TIP3   OH223885   4.587   1.044   4.158
 7974TIP3    H123886   4.641   1.095   4.217
 7974TIP3    H223887   4.600   1.084   4.072
 7975TIP3   OH223888   5.434   3.321   5.853
 7975TIP3    H123889   5.448   3.268   5.931
 7975TIP3    H223890   5.517   3.317   5.805
 7976TIP3   OH223891   3.885   1.433   1.142
 7976TIP3    H123892   3.948   1.505   1.145
 7976TIP3    H223893   3.932   1.358   1.178
 7977TIP3   OH223894   2.765   0.297   0.328
 7977TIP3    H123895   2.684   0.252   0.306
 7977TIP3    H223896   2.776   0.362   0.258
 7978TIP3   OH223897   1.898   5.565   4.583
 7978TIP3    H123898   1.838   5.626   4.540
 7978TIP3    H223899   1.860   5.550   4.669
 7979TIP3   OH223900   3.220   6.514   2.055
 7979TIP3    H123901   3.246   6.422   2.054
 7979TIP3    H223902   3.253   6.547   2.138
 7980TIP3   OH223903   6.811   1.249   2.240
 7980TIP3    H123904   6.891   1.198   2.242
 7980TIP3    H223905   6.836   1.335   2.274
 7981TIP3   OH223906   2.234   5.190   5.341
 7981TIP3    H123907   2.282   5.231   5.269
 7981TIP3    H223908   2.268   5.233   5.420
 7982TIP3   OH223909   1.360   6.442   3.525
 7982TIP3    H123910   1.434   6.487   3.564
 7982TIP3    H223911   1.308   6.411   3.599
 7983TIP3   OH223912   6.502   6.091   4.955
 7983TIP3    H123913   6.508   6.106   4.860
 7983TIP3    H223914   6.492   6.178   4.993
 7984TIP3   OH223915   7.089   6.710   5.312
 7984TIP3    H123916   7.011   6.660   5.288
 7984TIP3    H223917   7.081   6.791   5.262
 7985TIP3   OH223918   4.448   0.930   0.356
 7985TIP3    H123919   4.544   0.929   0.359
 7985TIP3    H223920   4.428   0.976   0.275
 7986TIP3   OH223921   5.559   4.194   4.496
 7986TIP3    H123922   5.622   4.144   4.443
 7986TIP3    H223923   5.581   4.171   4.586
 7987TIP3   OH223924   2.181   1.684   0.239
 7987TIP3    H123925   2.138   1.704   0.155
 7987TIP3    H223926   2.274   1.700   0.222
 7988TIP3   OH223927   5.914   2.771   4.004
 7988TIP3    H123928   5.947   2.807   3.922
 7988TIP3    H223929   5.991   2.730   4.045
 7989TIP3   OH223930   3.568   0.978   3.411
 7989TIP3    H123931   3.524   1.010   3.489
 7989TIP3    H223932   3.552   1.046   3.345
 7990TIP3   OH223933   1.593   5.710   5.307
 7990TIP3    H123934   1.612   5.642   5.372
 7990TIP3    H223935   1.560   5.784   5.359
 7991TIP3   OH223936   1.776   5.980   1.954
 7991TIP3    H123937   1.752   6.058   1.904
 7991TIP3    H223938   1.813   5.920   1.888
 7992TIP3   OH223939   0.524   0.425   3.963
 7992TIP3    H123940   0.458   0.396   4.026
 7992TIP3    H223941   0.600   0.447   4.018
 7993TIP3   OH223942   1.270   4.138   2.489
 7993TIP3    H123943   1.175   4.132   2.503
 7993TIP3    H223944   1.304   4.052   2.514
 7994TIP3   OH223945   3.175   0.730   2.729
 7994TIP3    H123946   3.153   0.821   2.747
 7994TIP3    H223947   3.091   0.689   2.709
 7995TIP3   OH223948   6.921   2.634   5.231
 7995TIP3    H123949   6.906   2.555   5.179
 7995TIP3    H223950   7.016   2.643   5.235
 7996TIP3   OH223951   3.081   4.775   5.707
 7996TIP3    H123952   3.063   4.684   5.732
 7996TIP3    H223953   2.999   4.821   5.728
 7997TIP3   OH223954   6.596   1.280   1.248
 7997TIP3    H123955   6.631   1.335   1.178
 7997TIP3    H223956   6.619   1.190   1.222
 7998TIP3   OH223957   0.225   0.672   1.016
 7998TIP3    H123958   0.185   0.759   1.009
 7998TIP3    H223959   0.280   0.664   0.939
 7999TIP3   OH223960   5.116   0.803   0.766
 7999TIP3    H123961   5.181   0.837   0.705
 7999TIP3    H223962   5.070   0.735   0.717
 8000TIP3   OH223963   4.250   2.955   2.670
 8000TIP3    H123964   4.170   2.980   2.625
 8000TIP3    H223965   4.297   3.037   2.683
 8001TIP3   OH223966   0.776   4.297   0.445
 8001TIP3    H123967   0.863   4.335   0.451
 8001TIP3    H223968   0.718   4.360   0.489
 8002TIP3   OH223969   1.038   6.664   5.205
 8002TIP3    H123970   0.955   6.653   5.252
 8002TIP3    H223971   1.013   6.692   5.118
 8003TIP3   OH223972   0.528   2.739   4.261
 8003TIP3    H123973   0.562   2.816   4.305
 8003TIP3    H223974   0.551   2.752   4.169
 8004TIP3   OH223975   1.077   0.887   1.888
 8004TIP3    H123976   1.127   0.919   1.963
 8004TIP3    H223977   0.998   0.942   1.887
 8005TIP3   OH223978   4.825   4.679   5.474
 8005TIP3    H123979   4.804   4.652   5.384
 8005TIP3    H223980   4.742   4.671   5.521
 8006TIP3   OH223981   6.579   6.504   2.046
 8006TIP3    H123982   6.573   6.454   1.964
 8006TIP3    H223983   6.489   6.531   2.065
 8007TIP3   OH223984   1.385   2.009   1.884
 8007TIP3    H123985   1.383   1.913   1.885
 8007TIP3    H223986   1.477   2.030   1.867
 8008TIP3   OH223987   4.580   3.005   2.253
 8008TIP3    H123988   4.515   2.942   2.221
 8008TIP3    H223989   4.559   3.017   2.345
 8009TIP3   OH223990   2.436   3.626   4.815
 8009TIP3    H123991   2.460   3.650   4.726
 8009TIP3    H223992   2.515   3.643   4.867
 8010TIP3   OH223993   2.568   1.002   1.040
 8010TIP3    H123994   2.599   1.000   1.131
 8010TIP3    H223995   2.584   0.913   1.007
 8011TIP3   OH223996   6.280   1.454   1.218
 8011TIP3    H123997   6.305   1.363   1.202
 8011TIP3    H223998   6.285   1.464   1.313
 8012TIP3   OH223999   4.504   1.189   2.551
 8012TIP3    H124000   4.577   1.127   2.565
 8012TIP3    H224001   4.495   1.193   2.455
 8013TIP3   OH224002   4.458   3.100   1.872
 8013TIP3    H124003   4.438   3.028   1.812
 8013TIP3    H224004   4.416   3.176   1.833
 8014TIP3   OH224005   4.844   1.610   2.583
 8014TIP3    H124006   4.894   1.560   2.518
 8014TIP3    H224007   4.779   1.548   2.616
 8015TIP3   OH224008   4.763   2.144   2.287
 8015TIP3    H124009   4.755   2.049   2.294
 8015TIP3    H224010   4.673   2.177   2.287
 8016TIP3   OH224011   4.922   1.899   0.458
 8016TIP3    H124012   4.869   1.822   0.436
 8016TIP3    H224013   4.969   1.874   0.538
 8017TIP3   OH224014   4.605   2.114   1.525
 8017TIP3    H124015   4.534   2.104   1.588
 8017TIP3    H224016   4.561   2.115   1.440
 8018TIP3   OH224017   0.510   0.407   2.854
 8018TIP3    H124018   0.582   0.426   2.915
 8018TIP3    H224019   0.445   0.474   2.873
 8019TIP3   OH224020   5.619   2.622   3.022
 8019TIP3    H124021   5.548   2.629   3.086
 8019TIP3    H224022   5.579   2.651   2.940
 8020TIP3   OH224023   3.625   2.007   4.483
 8020TIP3    H124024   3.624   2.047   4.396
 8020TIP3    H224025   3.717   1.994   4.503
 8021TIP3   OH224026   4.958   2.826   3.738
 8021TIP3    H124027   4.885   2.764   3.739
 8021TIP3    H224028   5.032   2.776   3.772
 8022TIP3   OH224029   0.132   0.795   1.791
 8022TIP3    H124030   0.075   0.783   1.715
 8022TIP3    H224031   0.113   0.720   1.848
 8023TIP3   OH224032   6.617   0.764   3.623
 8023TIP3    H124033   6.668   0.838   3.657
 8023TIP3    H224034   6.532   0.803   3.601
 8024TIP3   OH224035   1.009   5.998   5.767
 8024TIP3    H124036   0.930   6.051   5.779
 8024TIP3    H224037   1.059   6.045   5.701
 8025TIP3   OH224038   5.782   4.297   0.060
 8025TIP3    H124039   5.782   4.333  -0.029
 8025TIP3    H224040   5.789   4.202   0.048
 8026TIP3   OH224041   0.592   4.742   3.640
 8026TIP3    H124042   0.636   4.671   3.688
 8026TIP3    H224043   0.575   4.704   3.553
 8027TIP3   OH224044   2.918   4.155   2.993
 8027TIP3    H124045   2.867   4.167   3.073
 8027TIP3    H224046   2.923   4.061   2.981
 8028TIP3   OH224047   6.447   2.723   2.756
 8028TIP3    H124048   6.439   2.818   2.749
 8028TIP3    H224049   6.471   2.707   2.847
 8029TIP3   OH224050   5.609   2.830   5.694
 8029TIP3    H124051   5.516   2.825   5.669
 8029TIP3    H224052   5.643   2.905   5.645
 8030TIP3   OH224053   6.072   5.853   2.431
 8030TIP3    H124054   6.031   5.869   2.516
 8030TIP3    H224055   6.085   5.940   2.394
 8031TIP3   OH224056   0.976   2.888   5.566
 8031TIP3    H124057   1.004   2.904   5.476
 8031TIP3    H224058   1.043   2.829   5.602
 8032TIP3   OH224059   3.510   0.523   5.729
 8032TIP3    H124060   3.435   0.545   5.675
 8032TIP3    H224061   3.542   0.607   5.762
 8033TIP3   OH224062   0.309   2.608   4.930
 8033TIP3    H124063   0.388   2.659   4.948
 8033TIP3    H224064   0.301   2.549   5.005
 8034TIP3   OH224065   2.127   3.349   3.863
 8034TIP3    H124066   2.165   3.275   3.816
 8034TIP3    H224067   2.141   3.329   3.955
 8035TIP3   OH224068   0.868   3.661   4.834
 8035TIP3    H124069   0.795   3.721   4.820
 8035TIP3    H224070   0.836   3.576   4.801
 8036TIP3   OH224071   2.053   4.051   4.678
 8036TIP3    H124072   1.986   3.990   4.649
 8036TIP3    H224073   2.129   3.996   4.697
 8037TIP3   OH224074   5.596   5.749   3.928
 8037TIP3    H124075   5.531   5.721   3.993
 8037TIP3    H224076   5.668   5.687   3.938
 8038TIP3   OH224077   4.565   1.957   5.086
 8038TIP3    H124078   4.657   1.937   5.100
 8038TIP3    H224079   4.555   1.957   4.991
 8039TIP3   OH224080   3.663   3.083   4.002
 8039TIP3    H124081   3.625   3.139   3.934
 8039TIP3    H224082   3.743   3.129   4.028
 8040TIP3   OH224083   1.866   4.100   1.471
 8040TIP3    H124084   1.824   4.089   1.557
 8040TIP3    H224085   1.952   4.135   1.491
 8041TIP3   OH224086   2.511   2.829   0.910
 8041TIP3    H124087   2.588   2.786   0.946
 8041TIP3    H224088   2.439   2.803   0.968
 8042TIP3   OH224089   5.003   4.789   0.926
 8042TIP3    H124090   5.092   4.756   0.936
 8042TIP3    H224091   5.001   4.825   0.838
 8043TIP3   OH224092   1.513   3.588   5.552
 8043TIP3    H124093   1.600   3.589   5.511
 8043TIP3    H224094   1.530   3.576   5.645
 8044TIP3   OH224095   0.539   2.734   1.292
 8044TIP3    H124096   0.512   2.803   1.232
 8044TIP3    H224097   0.626   2.708   1.261
 8045TIP3   OH224098   0.496   4.113   0.949
 8045TIP3    H124099   0.416   4.064   0.937
 8045TIP3    H224100   0.488   4.188   0.890
 8046TIP3   OH224101   6.911   4.206   0.377
 8046TIP3    H124102   7.003   4.197   0.354
 8046TIP3    H224103   6.880   4.116   0.391
 8047TIP3   OH224104   6.050   1.123   3.916
 8047TIP3    H124105   6.124   1.183   3.902
 8047TIP3    H224106   6.028   1.134   4.009
 8048TIP3   OH224107   6.198   0.399   0.095
 8048TIP3    H124108   6.104   0.409   0.114
 8048TIP3    H224109   6.228   0.489   0.080
 8049TIP3   OH224110   5.433   2.032   0.111
 8049TIP3    H124111   5.442   2.052   0.018
 8049TIP3    H224112   5.385   2.107   0.147
 8050TIP3   OH224113   6.723   2.077   3.236
 8050TIP3    H124114   6.698   2.145   3.173
 8050TIP3    H224115   6.755   2.126   3.312
 8051TIP3   OH224116   0.794   3.395   3.105
 8051TIP3    H124117   0.819   3.420   3.016
 8051TIP3    H224118   0.699   3.406   3.107
 8052TIP3   OH224119   4.555   0.253   4.307
 8052TIP3    H124120   4.569   0.305   4.387
 8052TIP3    H224121   4.639   0.208   4.294
 8053TIP3   OH224122   4.349   0.012   4.386
 8053TIP3    H124123   4.260  -0.007   4.413
 8053TIP3    H224124   4.396   0.031   4.467
 8054TIP3   OH224125   3.853   5.756   4.633
 8054TIP3    H124126   3.853   5.697   4.709
 8054TIP3    H224127   3.944   5.754   4.602
 8055TIP3   OH224128   1.842   5.597   3.941
 8055TIP3    H124129   1.866   5.625   4.029
 8055TIP3    H224130   1.818   5.678   3.895
 8056TIP3   OH224131   3.102   4.634   4.691
 8056TIP3    H124132   3.179   4.652   4.637
 8056TIP3    H224133   3.028   4.640   4.631
 8057TIP3   OH224134   3.279   6.361   0.230
 8057TIP3    H124135   3.303   6.358   0.138
 8057TIP3    H224136   3.350   6.315   0.275
 8058TIP3   OH224137   0.650   0.968   4.935
 8058TIP3    H124138   0.658   1.062   4.922
 8058TIP3    H224139   0.632   0.957   5.028
 8059TIP3   OH224140   5.744   5.867   5.762
 8059TIP3    H124141   5.754   5.778   5.729
 8059TIP3    H224142   5.693   5.912   5.695
 8060TIP3   OH224143   6.636   5.937   5.540
 8060TIP3    H124144   6.606   5.969   5.456
 8060TIP3    H224145   6.556   5.925   5.592
 8061TIP3   OH224146   6.717   2.126   3.924
 8061TIP3    H124147   6.694   2.112   3.833
 8061TIP3    H224148   6.743   2.218   3.929
 8062TIP3   OH224149   1.394   0.846   5.530
 8062TIP3    H124150   1.352   0.760   5.528
 8062TIP3    H224151   1.465   0.836   5.593
 8063TIP3   OH224152   4.564   3.426   4.444
 8063TIP3    H124153   4.655   3.408   4.466
 8063TIP3    H224154   4.527   3.463   4.524
 8064TIP3   OH224155   6.296   1.015   1.800
 8064TIP3    H124156   6.259   1.008   1.712
 8064TIP3    H224157   6.237   0.965   1.855
 8065TIP3   OH224158   6.567   2.090   5.507
 8065TIP3    H124159   6.614   2.170   5.484
 8065TIP3    H224160   6.496   2.120   5.563
 8066TIP3   OH224161   4.100   5.281   2.890
 8066TIP3    H124162   4.026   5.335   2.864
 8066TIP3    H224163   4.076   5.247   2.976
 8067TIP3   OH224164   6.410   1.567   2.998
 8067TIP3    H124165   6.349   1.625   3.042
 8067TIP3    H224166   6.434   1.614   2.918
 8068TIP3   OH224167   2.668   6.511   3.866
 8068TIP3    H124168   2.605   6.479   3.802
 8068TIP3    H224169   2.620   6.511   3.949
 8069TIP3   OH224170   5.449   1.220   1.517
 8069TIP3    H124171   5.523   1.225   1.456
 8069TIP3    H224172   5.422   1.128   1.514
 8070TIP3   OH224173   7.091   3.155   0.390
 8070TIP3    H124174   7.139   3.102   0.453
 8070TIP3    H224175   7.006   3.170   0.431
 8071TIP3   OH224176   1.218   6.707   1.865
 8071TIP3    H124177   1.132   6.722   1.903
 8071TIP3    H224178   1.213   6.745   1.777
 8072TIP3   OH224179   0.564   3.901   0.152
 8072TIP3    H124180   0.470   3.905   0.171
 8072TIP3    H224181   0.604   3.959   0.217
 8073TIP3   OH224182   4.037   2.993   4.656
 8073TIP3    H124183   4.081   2.911   4.680
 8073TIP3    H224184   3.954   2.990   4.702
 8074TIP3   OH224185   5.931   0.779   1.587
 8074TIP3    H124186   5.978   0.696   1.579
 8074TIP3    H224187   5.846   0.755   1.625
 8075TIP3   OH224188   5.703   6.501   4.356
 8075TIP3    H124189   5.690   6.456   4.440
 8075TIP3    H224190   5.793   6.480   4.331
 8076TIP3   OH224191   0.431   4.407   2.646
 8076TIP3    H124192   0.408   4.314   2.644
 8076TIP3    H224193   0.522   4.409   2.673
 8077TIP3   OH224194   5.788   6.545   5.008
 8077TIP3    H124195   5.724   6.608   4.976
 8077TIP3    H224196   5.872   6.592   5.004
 8078TIP3   OH224197   0.194   1.313   5.353
 8078TIP3    H124198   0.183   1.253   5.427
 8078TIP3    H224199   0.211   1.256   5.279
 8079TIP3   OH224200   7.166   4.687   1.484
 8079TIP3    H124201   7.179   4.773   1.523
 8079TIP3    H224202   7.146   4.630   1.558
 8080TIP3   OH224203   2.450   0.540   4.426
 8080TIP3    H124204   2.355   0.527   4.431
 8080TIP3    H224205   2.465   0.566   4.335
 8081TIP3   OH224206   2.859   5.201   1.418
 8081TIP3    H124207   2.886   5.172   1.331
 8081TIP3    H224208   2.838   5.120   1.465
 8082TIP3   OH224209   3.904   4.946   2.162
 8082TIP3    H124210   3.954   4.918   2.239
 8082TIP3    H224211   3.970   4.985   2.104
 8083TIP3   OH224212   0.408   0.271   4.411
 8083TIP3    H124213   0.480   0.261   4.348
 8083TIP3    H224214   0.338   0.216   4.375
 8084TIP3   OH224215   4.648   3.972   2.921
 8084TIP3    H124216   4.731   4.018   2.913
 8084TIP3    H224217   4.671   3.887   2.958
 8085TIP3   OH224218   6.411   2.699   0.281
 8085TIP3    H124219   6.339   2.716   0.221
 8085TIP3    H224220   6.391   2.613   0.318
 8086TIP3   OH224221   1.565   6.626   0.944
 8086TIP3    H124222   1.595   6.535   0.958
 8086TIP3    H224223   1.645   6.674   0.922
 8087TIP3   OH224224   5.591   1.726   5.660
 8087TIP3    H124225   5.589   1.808   5.611
 8087TIP3    H224226   5.519   1.675   5.624
 8088TIP3   OH224227   2.865   2.431   4.104
 8088TIP3    H124228   2.807   2.390   4.039
 8088TIP3    H224229   2.866   2.523   4.080
 8089TIP3   OH224230   1.971   1.802   1.809
 8089TIP3    H124231   1.911   1.798   1.734
 8089TIP3    H224232   1.933   1.868   1.867
 8090TIP3   OH224233   3.507   3.892   1.896
 8090TIP3    H124234   3.576   3.924   1.839
 8090TIP3    H224235   3.509   3.797   1.885
 8091TIP3   OH224236   0.221   1.256   4.632
 8091TIP3    H124237   0.260   1.213   4.556
 8091TIP3    H224238   0.197   1.343   4.602
 8092TIP3   OH224239   1.395   0.081   5.185
 8092TIP3    H124240   1.389   0.140   5.109
 8092TIP3    H224241   1.381   0.138   5.260
 8093TIP3   OH224242   4.538   6.120   2.102
 8093TIP3    H124243   4.472   6.069   2.149
 8093TIP3    H224244   4.596   6.055   2.063
 8094TIP3   OH224245   1.392   3.340   3.053
 8094TIP3    H124246   1.481   3.363   3.029
 8094TIP3    H224247   1.398   3.313   3.145
 8095TIP3   OH224248   4.588   6.490   0.930
 8095TIP3    H124249   4.514   6.437   0.960
 8095TIP3    H224250   4.637   6.510   1.010
 8096TIP3   OH224251   0.685   0.417   2.638
 8096TIP3    H124252   0.758   0.374   2.682
 8096TIP3    H224253   0.614   0.417   2.702
 8097TIP3   OH224254   2.837   0.882   4.309
 8097TIP3    H124255   2.788   0.820   4.256
 8097TIP3    H224256   2.781   0.899   4.385
 8098TIP3   OH224257   4.874   0.306   3.034
 8098TIP3    H124258   4.922   0.382   3.002
 8098TIP3    H224259   4.941   0.253   3.078
 8099TIP3   OH224260   1.056   6.256   3.905
 8099TIP3    H124261   1.035   6.267   3.997
 8099TIP3    H224262   1.049   6.162   3.889
 8100TIP3   OH224263   0.863   4.576   0.967
 8100TIP3    H124264   0.941   4.531   0.934
 8100TIP3    H224265   0.794   4.509   0.965
 8101TIP3   OH224266   1.312   1.033   0.481
 8101TIP3    H124267   1.405   1.015   0.494
 8101TIP3    H224268   1.306   1.068   0.392
 8102TIP3   OH224269   6.625   6.684   3.331
 8102TIP3    H124270   6.683   6.736   3.275
 8102TIP3    H224271   6.555   6.656   3.271
 8103TIP3   OH224272   2.989   5.903   5.097
 8103TIP3    H124273   3.055   5.851   5.052
 8103TIP3    H224274   2.943   5.841   5.153
 8104TIP3   OH224275   3.844   1.719   1.549
 8104TIP3    H124276   3.850   1.801   1.499
 8104TIP3    H224277   3.901   1.658   1.502
 8105TIP3   OH224278   7.090   4.859   1.018
 8105TIP3    H124279   7.170   4.842   1.068
 8105TIP3    H224280   7.117   4.850   0.927
 8106TIP3   OH224281   2.956   2.740   0.809
 8106TIP3    H124282   2.934   2.647   0.812
 8106TIP3    H224283   3.023   2.746   0.740
 8107TIP3   OH224284   2.506   6.407   3.651
 8107TIP3    H124285   2.419   6.366   3.650
 8107TIP3    H224286   2.567   6.334   3.643
 8108TIP3   OH224287   0.128   5.551   3.715
 8108TIP3    H124288   0.040   5.588   3.719
 8108TIP3    H224289   0.123   5.473   3.770
 8109TIP3   OH224290   6.771   4.503   0.075
 8109TIP3    H124291   6.781   4.474   0.166
 8109TIP3    H224292   6.693   4.558   0.076
 8110TIP3   OH224293   1.231   4.805   3.459
 8110TIP3    H124294   1.148   4.776   3.421
 8110TIP3    H224295   1.288   4.728   3.455
 8111TIP3   OH224296   2.040   0.620   0.407
 8111TIP3    H124297   2.018   0.714   0.405
 8111TIP3    H224298   2.074   0.602   0.319
 8112TIP3   OH224299   0.487   2.749   3.193
 8112TIP3    H124300   0.394   2.749   3.211
 8112TIP3    H224301   0.510   2.840   3.176
 8113TIP3   OH224302   5.643   6.053   4.589
 8113TIP3    H124303   5.595   6.036   4.671
 8113TIP3    H224304   5.600   5.997   4.524
 8114TIP3   OH224305   2.658   1.601   1.508
 8114TIP3    H124306   2.752   1.586   1.496
 8114TIP3    H224307   2.633   1.656   1.434
 8115TIP3   OH224308   3.380   3.578   4.262
 8115TIP3    H124309   3.360   3.494   4.303
 8115TIP3    H224310   3.467   3.565   4.224
 8116TIP3   OH224311   5.130   6.524   2.068
 8116TIP3    H124312   5.173   6.542   1.984
 8116TIP3    H224313   5.080   6.443   2.052
 8117TIP3   OH224314   4.755   4.753   3.945
 8117TIP3    H124315   4.787   4.700   4.019
 8117TIP3    H224316   4.830   4.760   3.886
 8118TIP3   OH224317   3.671   1.380   4.781
 8118TIP3    H124318   3.597   1.369   4.721
 8118TIP3    H224319   3.731   1.438   4.734
 8119TIP3   OH224320   5.827   5.325   1.857
 8119TIP3    H124321   5.760   5.273   1.813
 8119TIP3    H224322   5.856   5.388   1.791
 8120TIP3   OH224323   2.926   0.506   1.632
 8120TIP3    H124324   2.928   0.542   1.721
 8120TIP3    H224325   2.855   0.553   1.589
 8121TIP3   OH224326   4.146   5.084   4.368
 8121TIP3    H124327   4.148   5.172   4.332
 8121TIP3    H224328   4.058   5.074   4.403
 8122TIP3   OH224329   5.688   5.452   2.089
 8122TIP3    H124330   5.664   5.515   2.021
 8122TIP3    H224331   5.716   5.374   2.041
 8123TIP3   OH224332   1.065   1.754   2.018
 8123TIP3    H124333   1.121   1.796   2.083
 8123TIP3    H224334   1.126   1.721   1.952
 8124TIP3   OH224335   3.357   4.361   5.332
 8124TIP3    H124336   3.409   4.408   5.397
 8124TIP3    H224337   3.422   4.315   5.278
 8125TIP3   OH224338   0.755   0.719   0.646
 8125TIP3    H124339   0.751   0.624   0.657
 8125TIP3    H224340   0.732   0.733   0.554
 8126TIP3   OH224341   4.272   3.753   0.885
 8126TIP3    H124342   4.246   3.778   0.796
 8126TIP3    H224343   4.189   3.749   0.933
 8127TIP3   OH224344   3.100   3.773   1.344
 8127TIP3    H124345   3.008   3.772   1.374
 8127TIP3    H224346   3.109   3.856   1.297
 8128TIP3   OH224347   3.290   6.754   0.863
 8128TIP3    H124348   3.364   6.698   0.842
 8128TIP3    H224349   3.213   6.702   0.839
 8129TIP3   OH224350   2.637   0.048   4.193
 8129TIP3    H124351   2.707  -0.003   4.151
 8129TIP3    H224352   2.679   0.087   4.269
 8130TIP3   OH224353   2.333   6.225   2.876
 8130TIP3    H124354   2.381   6.294   2.922
 8130TIP3    H224355   2.300   6.268   2.797
 8131TIP3   OH224356   1.507   1.380   5.498
 8131TIP3    H124357   1.515   1.314   5.430
 8131TIP3    H224358   1.499   1.331   5.580
 8132TIP3   OH224359   1.118   1.660   4.520
 8132TIP3    H124360   1.200   1.676   4.566
 8132TIP3    H224361   1.115   1.565   4.510
 8133TIP3   OH224362   4.625   4.065   3.603
 8133TIP3    H124363   4.719   4.062   3.618
 8133TIP3    H224364   4.596   3.974   3.614
 8134TIP3   OH224365   0.752   5.375   3.920
 8134TIP3    H124366   0.810   5.362   3.845
 8134TIP3    H224367   0.664   5.359   3.886
 8135TIP3   OH224368   5.235   3.640   0.555
 8135TIP3    H124369   5.182   3.715   0.580
 8135TIP3    H224370   5.263   3.659   0.465
 8136TIP3   OH224371   3.424   2.732   5.869
 8136TIP3    H124372   3.462   2.776   5.944
 8136TIP3    H224373   3.473   2.650   5.862
 8137TIP3   OH224374   2.930   5.539   3.880
 8137TIP3    H124375   2.979   5.458   3.869
 8137TIP3    H224376   2.840   5.511   3.897
 8138TIP3   OH224377   2.119   1.436   3.805
 8138TIP3    H124378   2.155   1.513   3.760
 8138TIP3    H224379   2.143   1.362   3.749
 8139TIP3   OH224380   3.147   2.135   0.330
 8139TIP3    H124381   3.132   2.048   0.293
 8139TIP3    H224382   3.170   2.189   0.255
 8140TIP3   OH224383   3.316   2.931   0.869
 8140TIP3    H124384   3.390   2.967   0.919
 8140TIP3    H224385   3.345   2.843   0.845
 8141TIP3   OH224386   3.459   1.927   3.513
 8141TIP3    H124387   3.442   1.928   3.419
 8141TIP3    H224388   3.497   2.013   3.531
 8142TIP3   OH224389   2.027   3.821   1.429
 8142TIP3    H124390   1.957   3.872   1.470
 8142TIP3    H224391   2.106   3.846   1.477
 8143TIP3   OH224392   4.981   5.946   1.041
 8143TIP3    H124393   4.930   5.868   1.019
 8143TIP3    H224394   4.923   6.020   1.019
 8144TIP3   OH224395   5.800   0.331   2.258
 8144TIP3    H124396   5.755   0.349   2.340
 8144TIP3    H224397   5.804   0.416   2.214
 8145TIP3   OH224398   4.912   1.085   2.006
 8145TIP3    H124399   4.943   0.999   1.982
 8145TIP3    H224400   4.830   1.069   2.053
 8146TIP3   OH224401   7.164   2.041   4.840
 8146TIP3    H124402   7.138   2.087   4.760
 8146TIP3    H224403   7.235   1.983   4.813
 8147TIP3   OH224404   4.595   1.539   3.026
 8147TIP3    H124405   4.582   1.552   2.932
 8147TIP3    H224406   4.508   1.516   3.059
 8148TIP3   OH224407   5.955   1.980   1.883
 8148TIP3    H124408   5.884   2.044   1.871
 8148TIP3    H224409   5.975   1.984   1.977
 8149TIP3   OH224410   1.269   0.131   3.063
 8149TIP3    H124411   1.274   0.091   3.150
 8149TIP3    H224412   1.272   0.057   3.002
 8150TIP3   OH224413   4.697   4.706   3.240
 8150TIP3    H124414   4.731   4.763   3.171
 8150TIP3    H224415   4.769   4.648   3.261
 8151TIP3   OH224416   4.821   0.327   2.412
 8151TIP3    H124417   4.881   0.359   2.345
 8151TIP3    H224418   4.739   0.309   2.366
 8152TIP3   OH224419   4.174   6.171   0.513
 8152TIP3    H124420   4.148   6.143   0.425
 8152TIP3    H224421   4.263   6.136   0.524
 8153TIP3   OH224422   6.107   2.117   4.448
 8153TIP3    H124423   6.178   2.076   4.398
 8153TIP3    H224424   6.030   2.107   4.393
 8154TIP3   OH224425   2.896   1.461   0.661
 8154TIP3    H124426   2.906   1.373   0.698
 8154TIP3    H224427   2.955   1.516   0.714
 8155TIP3   OH224428   0.932   4.538   3.227
 8155TIP3    H124429   0.851   4.487   3.215
 8155TIP3    H224430   0.988   4.511   3.154
 8156TIP3   OH224431   6.836   3.483   4.300
 8156TIP3    H124432   6.768   3.512   4.361
 8156TIP3    H224433   6.865   3.564   4.257
 8157TIP3   OH224434   2.728   4.768   4.002
 8157TIP3    H124435   2.703   4.824   4.076
 8157TIP3    H224436   2.664   4.697   4.004
 8158TIP3   OH224437   5.713   3.384   5.082
 8158TIP3    H124438   5.642   3.355   5.139
 8158TIP3    H224439   5.719   3.478   5.097
 8159TIP3   OH224440   5.590   2.274   4.208
 8159TIP3    H124441   5.531   2.198   4.201
 8159TIP3    H224442   5.586   2.298   4.301
 8160TIP3   OH224443   2.632   5.710   4.087
 8160TIP3    H124444   2.569   5.720   4.015
 8160TIP3    H224445   2.702   5.656   4.051
 8161TIP3   OH224446   3.372   2.027   4.596
 8161TIP3    H124447   3.467   2.024   4.600
 8161TIP3    H224448   3.347   1.951   4.544
 8162TIP3   OH224449   1.072   0.717   3.246
 8162TIP3    H124450   1.115   0.638   3.279
 8162TIP3    H224451   1.144   0.772   3.216
 8163TIP3   OH224452   0.445   6.497   2.080
 8163TIP3    H124453   0.532   6.474   2.048
 8163TIP3    H224454   0.406   6.413   2.105
 8164TIP3   OH224455   6.326   5.449   2.611
 8164TIP3    H124456   6.234   5.474   2.608
 8164TIP3    H224457   6.349   5.432   2.519
 8165TIP3   OH224458   0.143   5.663   4.190
 8165TIP3    H124459   0.198   5.669   4.268
 8165TIP3    H224460   0.198   5.696   4.119
 8166TIP3   OH224461   5.700   5.627   3.124
 8166TIP3    H124462   5.739   5.572   3.192
 8166TIP3    H224463   5.669   5.704   3.171
 8167TIP3   OH224464   1.959   1.333   4.988
 8167TIP3    H124465   1.902   1.344   5.063
 8167TIP3    H224466   1.972   1.421   4.953
 8168TIP3   OH224467   5.480   6.262   3.782
 8168TIP3    H124468   5.565   6.296   3.809
 8168TIP3    H224469   5.430   6.340   3.756
 8169TIP3   OH224470   5.875   3.892   5.339
 8169TIP3    H124471   5.966   3.881   5.312
 8169TIP3    H224472   5.841   3.802   5.345
 8170TIP3   OH224473   4.437   2.195   5.159
 8170TIP3    H124474   4.492   2.267   5.189
 8170TIP3    H224475   4.497   2.122   5.148
 8171TIP3   OH224476   1.845   2.319   0.726
 8171TIP3    H124477   1.765   2.367   0.703
 8171TIP3    H224478   1.916   2.377   0.702
 8172TIP3   OH224479   2.343   4.918   0.664
 8172TIP3    H124480   2.282   4.932   0.592
 8172TIP3    H224481   2.404   4.852   0.631
 8173TIP3   OH224482   3.267   4.413   3.519
 8173TIP3    H124483   3.262   4.341   3.582
 8173TIP3    H224484   3.335   4.470   3.553
 8174TIP3   OH224485   0.010   3.418   3.156
 8174TIP3    H124486   0.069   3.439   3.228
 8174TIP3    H224487   0.029   3.484   3.090
 8175TIP3   OH224488   6.424   6.152   0.741
 8175TIP3    H124489   6.461   6.170   0.828
 8175TIP3    H224490   6.445   6.229   0.689
 8176TIP3   OH224491   6.599   6.567   4.718
 8176TIP3    H124492   6.683   6.550   4.675
 8176TIP3    H224493   6.542   6.598   4.647
 8177TIP3   OH224494   1.883   4.918   3.435
 8177TIP3    H124495   1.872   4.937   3.529
 8177TIP3    H224496   1.954   4.853   3.432
 8178TIP3   OH224497   3.035   6.572   4.531
 8178TIP3    H124498   3.123   6.605   4.550
 8178TIP3    H224499   3.008   6.618   4.452
 8179TIP3   OH224500   4.014   4.545   2.320
 8179TIP3    H124501   3.982   4.474   2.376
 8179TIP3    H224502   3.989   4.625   2.366
 8180TIP3   OH224503   6.330   2.287   1.587
 8180TIP3    H124504   6.236   2.288   1.571
 8180TIP3    H224505   6.362   2.368   1.546
 8181TIP3   OH224506   6.299   5.696   4.771
 8181TIP3    H124507   6.298   5.624   4.834
 8181TIP3    H224508   6.239   5.761   4.807
 8182TIP3   OH224509   6.838   6.651   2.635
 8182TIP3    H124510   6.908   6.706   2.599
 8182TIP3    H224511   6.767   6.712   2.654
 8183TIP3   OH224512   5.691   1.291   3.839
 8183TIP3    H124513   5.617   1.338   3.800
 8183TIP3    H224514   5.650   1.226   3.896
 8184TIP3   OH224515   1.690   5.325   3.132
 8184TIP3    H124516   1.698   5.240   3.176
 8184TIP3    H224517   1.615   5.316   3.073
 8185TIP3   OH224518   3.428   6.357   5.533
 8185TIP3    H124519   3.513   6.324   5.504
 8185TIP3    H224520   3.386   6.389   5.453
 8186TIP3   OH224521   1.031   2.704   4.373
 8186TIP3    H124522   1.056   2.619   4.408
 8186TIP3    H224523   1.097   2.722   4.305
 8187TIP3   OH224524   5.335   5.473   1.968
 8187TIP3    H124525   5.401   5.473   1.898
 8187TIP3    H224526   5.359   5.399   2.024
 8188TIP3   OH224527   2.859   3.905   2.732
 8188TIP3    H124528   2.947   3.875   2.706
 8188TIP3    H224529   2.863   3.908   2.828
 8189TIP3   OH224530   4.268   4.504   3.176
 8189TIP3    H124531   4.182   4.540   3.152
 8189TIP3    H224532   4.325   4.527   3.102
 8190TIP3   OH224533   4.775   2.234   1.889
 8190TIP3    H124534   4.856   2.183   1.880
 8190TIP3    H224535   4.789   2.288   1.966
 8191TIP3   OH224536   6.730   0.609   4.370
 8191TIP3    H124537   6.758   0.552   4.442
 8191TIP3    H224538   6.795   0.594   4.301
 8192TIP3   OH224539   1.450   6.613   4.906
 8192TIP3    H124540   1.355   6.599   4.902
 8192TIP3    H224541   1.479   6.601   4.816
 8193TIP3   OH224542   6.415   3.588   1.813
 8193TIP3    H124543   6.452   3.673   1.836
 8193TIP3    H224544   6.360   3.606   1.737
 8194TIP3   OH224545   2.552   0.684   3.902
 8194TIP3    H124546   2.549   0.595   3.867
 8194TIP3    H224547   2.563   0.740   3.824
 8195TIP3   OH224548   1.261   1.531   2.068
 8195TIP3    H124549   1.356   1.529   2.078
 8195TIP3    H224550   1.246   1.562   1.979
 8196TIP3   OH224551   6.131   3.293   0.494
 8196TIP3    H124552   6.087   3.311   0.410
 8196TIP3    H224553   6.060   3.290   0.558
 8197TIP3   OH224554   0.016   1.983   1.691
 8197TIP3    H124555  -0.054   1.917   1.689
 8197TIP3    H224556   0.091   1.940   1.652
 8198TIP3   OH224557   0.872   5.811   3.450
 8198TIP3    H124558   0.944   5.763   3.491
 8198TIP3    H224559   0.801   5.747   3.445
 8199TIP3   OH224560   4.871   5.188   1.130
 8199TIP3    H124561   4.932   5.117   1.149
 8199TIP3    H224562   4.924   5.254   1.086
 8200TIP3   OH224563   5.323   5.834   5.801
 8200TIP3    H124564   5.335   5.865   5.891
 8200TIP3    H224565   5.234   5.862   5.777
 8201TIP3   OH224566   6.551   6.709   0.203
 8201TIP3    H124567   6.554   6.630   0.258
 8201TIP3    H224568   6.641   6.722   0.174
 8202TIP3   OH224569   1.780   2.395   3.737
 8202TIP3    H124570   1.847   2.395   3.668
 8202TIP3    H224571   1.710   2.451   3.703
 8203TIP3   OH224572   1.572   4.460   0.045
 8203TIP3    H124573   1.654   4.498   0.014
 8203TIP3    H224574   1.598   4.381   0.091
 8204TIP3   OH224575   3.736   5.569   0.087
 8204TIP3    H124576   3.700   5.586   0.000
 8204TIP3    H224577   3.812   5.512   0.071
 8205TIP3   OH224578   2.932   3.293   2.191
 8205TIP3    H124579   2.977   3.209   2.181
 8205TIP3    H224580   2.922   3.304   2.285
 8206TIP3   OH224581   0.886   4.594   2.600
 8206TIP3    H124582   0.878   4.680   2.642
 8206TIP3    H224583   0.855   4.608   2.511
 8207TIP3   OH224584   5.665   5.780   5.480
 8207TIP3    H124585   5.623   5.841   5.418
 8207TIP3    H224586   5.751   5.818   5.495
 8208TIP3   OH224587   0.580   3.127   4.048
 8208TIP3    H124588   0.565   3.037   4.020
 8208TIP3    H224589   0.675   3.137   4.046
 8209TIP3   OH224590   5.187   3.282   1.025
 8209TIP3    H124591   5.173   3.322   0.939
 8209TIP3    H224592   5.107   3.302   1.074
 8210TIP3   OH224593   5.196   4.707   4.387
 8210TIP3    H124594   5.288   4.698   4.413
 8210TIP3    H224595   5.166   4.786   4.433
 8211TIP3   OH224596   3.127   2.019   5.587
 8211TIP3    H124597   3.217   2.024   5.619
 8211TIP3    H224598   3.116   2.096   5.531
 8212TIP3   OH224599   1.310   4.086   4.328
 8212TIP3    H124600   1.345   4.011   4.376
 8212TIP3    H224601   1.216   4.086   4.349
 8213TIP3   OH224602   7.153   3.840   0.321
 8213TIP3    H124603   7.190   3.803   0.240
 8213TIP3    H224604   7.214   3.813   0.390
 8214TIP3   OH224605   4.208   2.216   0.287
 8214TIP3    H124606   4.234   2.265   0.209
 8214TIP3    H224607   4.116   2.195   0.273
 8215TIP3   OH224608   1.561   0.896   2.589
 8215TIP3    H124609   1.639   0.864   2.545
 8215TIP3    H224610   1.584   0.897   2.682
 8216TIP3   OH224611   1.371   0.307   1.341
 8216TIP3    H124612   1.311   0.233   1.341
 8216TIP3    H224613   1.320   0.379   1.302
 8217TIP3   OH224614   0.701   1.702   4.040
 8217TIP3    H124615   0.664   1.773   4.092
 8217TIP3    H224616   0.692   1.624   4.095
 8218TIP3   OH224617   2.824   4.891   0.199
 8218TIP3    H124618   2.789   4.928   0.279
 8218TIP3    H224619   2.828   4.965   0.138
 8219TIP3   OH224620   3.385   5.579   1.108
 8219TIP3    H124621   3.339   5.660   1.130
 8219TIP3    H224622   3.384   5.577   1.012
 8220TIP3   OH224623   6.339   5.267   3.875
 8220TIP3    H124624   6.400   5.199   3.903
 8220TIP3    H224625   6.353   5.276   3.781
 8221TIP3   OH224626   1.740   6.489   1.376
 8221TIP3    H124627   1.764   6.550   1.307
 8221TIP3    H224628   1.688   6.541   1.438
 8222TIP3   OH224629   6.327   0.599   4.056
 8222TIP3    H124630   6.419   0.610   4.033
 8222TIP3    H224631   6.280   0.610   3.973
 8223TIP3   OH224632   6.038   0.797   3.231
 8223TIP3    H124633   5.985   0.718   3.236
 8223TIP3    H224634   6.123   0.767   3.199
 8224TIP3   OH224635   3.041   1.569   0.273
 8224TIP3    H124636   3.055   1.522   0.192
 8224TIP3    H224637   2.994   1.507   0.329
 8225TIP3   OH224638   0.382   3.374   4.424
 8225TIP3    H124639   0.336   3.429   4.361
 8225TIP3    H224640   0.389   3.289   4.381
 8226TIP3   OH224641   2.114   5.408   4.597
 8226TIP3    H124642   2.163   5.443   4.671
 8226TIP3    H224643   2.035   5.463   4.593
 8227TIP3   OH224644   3.396   6.039   2.543
 8227TIP3    H124645   3.328   6.030   2.610
 8227TIP3    H224646   3.355   6.005   2.463
 8228TIP3   OH224647   3.784   5.457   3.710
 8228TIP3    H124648   3.735   5.537   3.725
 8228TIP3    H224649   3.867   5.486   3.671
 8229TIP3   OH224650   4.366   5.682   0.238
 8229TIP3    H124651   4.286   5.630   0.232
 8229TIP3    H224652   4.366   5.735   0.159
 8230TIP3   OH224653   1.286   0.530   4.477
 8230TIP3    H124654   1.245   0.444   4.465
 8230TIP3    H224655   1.213   0.592   4.481
 8231TIP3   OH224656   6.840   1.217   5.441
 8231TIP3    H124657   6.827   1.163   5.520
 8231TIP3    H224658   6.931   1.245   5.446
 8232TIP3   OH224659   3.566   3.644   4.938
 8232TIP3    H124660   3.490   3.593   4.909
 8232TIP3    H224661   3.641   3.601   4.898
 8233TIP3   OH224662   1.140   6.347   2.304
 8233TIP3    H124663   1.045   6.339   2.316
 8233TIP3    H224664   1.164   6.423   2.358
 8234TIP3   OH224665   1.884   1.349   0.412
 8234TIP3    H124666   1.845   1.300   0.484
 8234TIP3    H224667   1.864   1.441   0.432
 8235TIP3   OH224668   2.568   4.732   4.822
 8235TIP3    H124669   2.543   4.777   4.741
 8235TIP3    H224670   2.642   4.677   4.796
 8236TIP3   OH224671   3.294   0.265   0.889
 8236TIP3    H124672   3.198   0.261   0.887
 8236TIP3    H224673   3.318   0.283   0.798
 8237TIP3   OH224674   5.228   2.172   0.267
 8237TIP3    H124675   5.161   2.209   0.325
 8237TIP3    H224676   5.298   2.238   0.267
 8238TIP3   OH224677   4.666   1.887   5.546
 8238TIP3    H124678   4.667   1.900   5.641
 8238TIP3    H224679   4.653   1.793   5.535
 8239TIP3   OH224680   3.617   6.531   3.153
 8239TIP3    H124681   3.689   6.484   3.196
 8239TIP3    H224682   3.572   6.576   3.225
 8240TIP3   OH224683   4.379   0.811   3.451
 8240TIP3    H124684   4.369   0.828   3.545
 8240TIP3    H224685   4.394   0.716   3.445
 8241TIP3   OH224686   1.507   5.063   2.557
 8241TIP3    H124687   1.569   5.068   2.485
 8241TIP3    H224688   1.422   5.053   2.515
 8242TIP3   OH224689   5.569   1.031   0.207
 8242TIP3    H124690   5.541   0.940   0.219
 8242TIP3    H224691   5.643   1.026   0.146
 8243TIP3   OH224692   3.428   3.818   3.515
 8243TIP3    H124693   3.400   3.739   3.470
 8243TIP3    H224694   3.372   3.887   3.479
 8244TIP3   OH224695   5.196   5.759   3.503
 8244TIP3    H124696   5.238   5.800   3.579
 8244TIP3    H224697   5.210   5.820   3.431
 8245TIP3   OH224698   5.919   3.978   0.980
 8245TIP3    H124699   5.950   3.908   0.922
 8245TIP3    H224700   5.824   3.976   0.971
 8246TIP3   OH224701   1.656   6.128   0.779
 8246TIP3    H124702   1.621   6.159   0.696
 8246TIP3    H224703   1.744   6.166   0.783
 8247TIP3   OH224704   6.624   3.276   5.394
 8247TIP3    H124705   6.543   3.229   5.376
 8247TIP3    H224706   6.604   3.330   5.470
 8248TIP3   OH224707   1.953   6.574   2.937
 8248TIP3    H124708   1.961   6.492   2.889
 8248TIP3    H224709   2.001   6.638   2.885
 8249TIP3   OH224710   6.120   1.613   1.078
 8249TIP3    H124711   6.032   1.579   1.065
 8249TIP3    H224712   6.163   1.549   1.135
 8250TIP3   OH224713   4.640   3.940   1.647
 8250TIP3    H124714   4.712   3.987   1.690
 8250TIP3    H224715   4.575   4.008   1.631
 8251TIP3   OH224716   0.013   4.792   2.053
 8251TIP3    H124717   0.009   4.875   2.005
 8251TIP3    H224718   0.094   4.751   2.024
 8252TIP3   OH224719   6.003   1.183   1.114
 8252TIP3    H124720   5.964   1.103   1.078
 8252TIP3    H224721   6.002   1.245   1.041
 8253TIP3   OH224722   0.910   5.280   0.102
 8253TIP3    H124723   0.821   5.248   0.120
 8253TIP3    H224724   0.900   5.375   0.093
 8254TIP3   OH224725   4.026   4.734   0.729
 8254TIP3    H124726   4.060   4.793   0.796
 8254TIP3    H224727   4.032   4.647   0.768
 8255TIP3   OH224728   4.920   0.593   3.672
 8255TIP3    H124729   4.885   0.520   3.722
 8255TIP3    H224730   4.843   0.645   3.649
 8256TIP3   OH224731   4.348   3.984   1.009
 8256TIP3    H124732   4.391   4.021   0.932
 8256TIP3    H224733   4.311   3.902   0.979
 8257TIP3   OH224734   2.439   2.431   5.821
 8257TIP3    H124735   2.521   2.422   5.869
 8257TIP3    H224736   2.417   2.342   5.794
 8258TIP3   OH224737   4.129   5.227   1.209
 8258TIP3    H124738   4.069   5.193   1.142
 8258TIP3    H224739   4.074   5.241   1.285
 8259TIP3   OH224740   5.875   0.355   2.617
 8259TIP3    H124741   5.873   0.315   2.704
 8259TIP3    H224742   5.955   0.408   2.617
 8260TIP3   OH224743   3.120   0.464   1.236
 8260TIP3    H124744   3.155   0.522   1.304
 8260TIP3    H224745   3.191   0.402   1.219
 8261TIP3   OH224746   4.508   0.786   3.906
 8261TIP3    H124747   4.480   0.877   3.903
 8261TIP3    H224748   4.457   0.742   3.839
 8262TIP3   OH224749   1.070   0.741   4.329
 8262TIP3    H124750   1.024   0.758   4.411
 8262TIP3    H224751   1.123   0.820   4.314
 8263TIP3   OH224752   6.260   6.259   0.015
 8263TIP3    H124753   6.266   6.207   0.095
 8263TIP3    H224754   6.244   6.195  -0.054
 8264TIP3   OH224755   4.641   2.754   5.177
 8264TIP3    H124756   4.709   2.734   5.113
 8264TIP3    H224757   4.682   2.815   5.238
 8265TIP3   OH224758   4.271   2.433   1.144
 8265TIP3    H124759   4.365   2.451   1.150
 8265TIP3    H224760   4.264   2.351   1.095
 8266TIP3   OH224761   4.410   5.858   0.033
 8266TIP3    H124762   4.427   5.930   0.093
 8266TIP3    H224763   4.473   5.870  -0.038
 8267TIP3   OH224764   0.074   3.398   0.610
 8267TIP3    H124765   0.016   3.465   0.572
 8267TIP3    H224766   0.024   3.363   0.684
 8268TIP3   OH224767   7.080   3.510   1.003
 8268TIP3    H124768   6.998   3.556   1.020
 8268TIP3    H224769   7.148   3.576   1.013
 8269TIP3   OH224770   1.391   2.490   4.848
 8269TIP3    H124771   1.358   2.493   4.938
 8269TIP3    H224772   1.430   2.403   4.839
 8270TIP3   OH224773   4.097   1.119   0.932
 8270TIP3    H124774   4.127   1.030   0.955
 8270TIP3    H224775   4.159   1.177   0.976
 8271TIP3   OH224776   0.906   2.063   0.404
 8271TIP3    H124777   0.851   1.988   0.380
 8271TIP3    H224778   0.848   2.139   0.395
 8272TIP3   OH224779   3.286   0.269   5.211
 8272TIP3    H124780   3.379   0.257   5.230
 8272TIP3    H224781   3.244   0.190   5.246
 8273TIP3   OH224782   6.598   4.873   4.389
 8273TIP3    H124783   6.589   4.836   4.477
 8273TIP3    H224784   6.582   4.800   4.330
 8274TIP3   OH224785   3.543   2.450   5.830
 8274TIP3    H124786   3.565   2.359   5.810
 8274TIP3    H224787   3.496   2.481   5.752
 8275TIP3   OH224788   0.504   5.110   1.307
 8275TIP3    H124789   0.481   5.106   1.400
 8275TIP3    H224790   0.565   5.183   1.300
 8276TIP3   OH224791   5.675   1.960   0.954
 8276TIP3    H124792   5.586   1.929   0.938
 8276TIP3    H224793   5.720   1.884   0.991
 8277TIP3   OH224794   0.676   4.947   0.653
 8277TIP3    H124795   0.584   4.970   0.663
 8277TIP3    H224796   0.699   4.905   0.736
 8278TIP3   OH224797   0.420   6.693   4.054
 8278TIP3    H124798   0.407   6.642   3.974
 8278TIP3    H224799   0.461   6.631   4.115
 8279TIP3   OH224800   0.125   4.530   3.024
 8279TIP3    H124801   0.140   4.521   2.930
 8279TIP3    H224802   0.196   4.480   3.064
 8280TIP3   OH224803   6.930   3.362   5.695
 8280TIP3    H124804   6.864   3.336   5.759
 8280TIP3    H224805   6.987   3.285   5.686
 8281TIP3   OH224806   7.029   1.349   2.519
 8281TIP3    H124807   7.078   1.428   2.495
 8281TIP3    H224808   7.051   1.286   2.450
 8282TIP3   OH224809   4.105   2.753   2.860
 8282TIP3    H124810   4.084   2.690   2.929
 8282TIP3    H224811   4.019   2.779   2.826
 8283TIP3   OH224812   3.068   1.666   5.022
 8283TIP3    H124813   3.031   1.747   4.985
 8283TIP3    H224814   2.992   1.613   5.044
 8284TIP3   OH224815   5.603   0.362   2.885
 8284TIP3    H124816   5.553   0.305   2.826
 8284TIP3    H224817   5.694   0.338   2.869
 8285TIP3   OH224818   5.285   5.543   1.171
 8285TIP3    H124819   5.327   5.589   1.098
 8285TIP3    H224820   5.353   5.534   1.237
 8286TIP3   OH224821   2.071   6.285   0.218
 8286TIP3    H124822   2.063   6.321   0.129
 8286TIP3    H224823   1.988   6.242   0.234
 8287TIP3   OH224824   1.760   0.084   3.526
 8287TIP3    H124825   1.773  -0.002   3.486
 8287TIP3    H224826   1.804   0.145   3.466
 8288TIP3   OH224827   5.055   5.357   3.421
 8288TIP3    H124828   5.086   5.351   3.331
 8288TIP3    H224829   5.012   5.273   3.438
 8289TIP3   OH224830   0.370   2.270   1.870
 8289TIP3    H124831   0.289   2.226   1.897
 8289TIP3    H224832   0.349   2.309   1.785
 8290TIP3   OH224833   2.872   5.990   1.807
 8290TIP3    H124834   2.779   5.968   1.798
 8290TIP3    H224835   2.907   5.923   1.865
 8291TIP3   OH224836   6.690   5.339   4.190
 8291TIP3    H124837   6.745   5.400   4.239
 8291TIP3    H224838   6.667   5.271   4.253
 8292TIP3   OH224839   2.058   5.689   2.411
 8292TIP3    H124840   1.973   5.646   2.420
 8292TIP3    H224841   2.041   5.762   2.352
 8293TIP3   OH224842   4.259   3.016   0.158
 8293TIP3    H124843   4.242   2.922   0.162
 8293TIP3    H224844   4.311   3.027   0.078
 8294TIP3   OH224845   0.248   5.022   5.242
 8294TIP3    H124846   0.267   4.939   5.199
 8294TIP3    H224847   0.185   5.000   5.311
 8295TIP3   OH224848   4.770   0.163   4.103
 8295TIP3    H124849   4.710   0.225   4.062
 8295TIP3    H224850   4.783   0.094   4.038
 8296TIP3   OH224851   4.932   4.554   3.263
 8296TIP3    H124852   4.943   4.474   3.315
 8296TIP3    H224853   5.004   4.611   3.291
 8297TIP3   OH224854   2.040   3.085   3.130
 8297TIP3    H124855   2.033   3.082   3.225
 8297TIP3    H224856   2.074   3.173   3.112
 8298TIP3   OH224857   6.504   6.114   2.547
 8298TIP3    H124858   6.555   6.034   2.530
 8298TIP3    H224859   6.498   6.156   2.461
 8299TIP3   OH224860   3.614   2.314   0.997
 8299TIP3    H124861   3.585   2.398   1.033
 8299TIP3    H224862   3.703   2.330   0.968
 8300TIP3   OH224863   6.415   2.431   4.955
 8300TIP3    H124864   6.465   2.464   4.881
 8300TIP3    H224865   6.391   2.510   5.005
 8301TIP3   OH224866   1.133   6.624   4.837
 8301TIP3    H124867   1.084   6.570   4.900
 8301TIP3    H224868   1.114   6.584   4.752
 8302TIP3   OH224869   1.495   4.660   0.613
 8302TIP3    H124870   1.590   4.675   0.615
 8302TIP3    H224871   1.468   4.668   0.704
 8303TIP3   OH224872   1.488   5.945   5.491
 8303TIP3    H124873   1.573   5.986   5.508
 8303TIP3    H224874   1.455   5.922   5.577
 8304TIP3   OH224875   0.025   0.506   2.209
 8304TIP3    H124876   0.052   0.577   2.268
 8304TIP3    H224877  -0.071   0.509   2.211
 8305TIP3   OH224878   4.136   2.926   5.379
 8305TIP3    H124879   4.117   2.833   5.377
 8305TIP3    H224880   4.231   2.932   5.384
 8306TIP3   OH224881   2.295   5.360   1.736
 8306TIP3    H124882   2.239   5.287   1.711
 8306TIP3    H224883   2.244   5.438   1.716
 8307TIP3   OH224884   5.233   1.935   2.370
 8307TIP3    H124885   5.311   1.989   2.354
 8307TIP3    H224886   5.159   1.996   2.361
 8308TIP3   OH224887   1.210   6.646   4.180
 8308TIP3    H124888   1.248   6.658   4.093
 8308TIP3    H224889   1.265   6.578   4.220
 8309TIP3   OH224890   5.009   2.834   0.740
 8309TIP3    H124891   4.982   2.744   0.727
 8309TIP3    H224892   4.932   2.877   0.780
 8310TIP3   OH224893   1.093   3.997   0.792
 8310TIP3    H124894   1.185   4.016   0.777
 8310TIP3    H224895   1.075   3.920   0.739
 8311TIP3   OH224896   5.863   6.003   3.375
 8311TIP3    H124897   5.875   6.078   3.316
 8311TIP3    H224898   5.869   5.926   3.319
 8312TIP3   OH224899   5.845   5.955   2.047
 8312TIP3    H124900   5.794   6.035   2.030
 8312TIP3    H224901   5.800   5.913   2.120
 8313TIP3   OH224902   2.720   0.164   4.803
 8313TIP3    H124903   2.685   0.252   4.809
 8313TIP3    H224904   2.665   0.120   4.738
 8314TIP3   OH224905   0.140   2.588   3.464
 8314TIP3    H124906   0.196   2.636   3.403
 8314TIP3    H224907   0.145   2.637   3.546
 8315TIP3   OH224908   3.116   3.763   3.057
 8315TIP3    H124909   3.142   3.736   2.969
 8315TIP3    H224910   3.195   3.804   3.093
 8316TIP3   OH224911   3.923   4.301   5.442
 8316TIP3    H124912   3.966   4.222   5.410
 8316TIP3    H224913   3.964   4.372   5.392
 8317TIP3   OH224914   5.164   0.646   4.337
 8317TIP3    H124915   5.247   0.632   4.383
 8317TIP3    H224916   5.101   0.592   4.385
 8318TIP3   OH224917   4.804   6.315   0.425
 8318TIP3    H124918   4.731   6.318   0.364
 8318TIP3    H224919   4.764   6.325   0.511
 8319TIP3   OH224920   5.943   1.719   1.810
 8319TIP3    H124921   6.037   1.725   1.793
 8319TIP3    H224922   5.919   1.807   1.840
 8320TIP3   OH224923   3.318   1.063   2.949
 8320TIP3    H124924   3.295   1.154   2.931
 8320TIP3    H224925   3.270   1.013   2.883
 8321TIP3   OH224926   1.111   4.254   2.787
 8321TIP3    H124927   1.128   4.183   2.849
 8321TIP3    H224928   1.018   4.243   2.764
 8322TIP3   OH224929   0.004   5.492   1.243
 8322TIP3    H124930   0.095   5.520   1.244
 8322TIP3    H224931   0.006   5.400   1.269
 8323TIP3   OH224932   6.640   2.829   0.370
 8323TIP3    H124933   6.634   2.921   0.343
 8323TIP3    H224934   6.552   2.794   0.352
 8324TIP3   OH224935   3.704   6.397   4.318
 8324TIP3    H124936   3.672   6.484   4.295
 8324TIP3    H224937   3.787   6.413   4.363
 8325TIP3   OH224938   6.528   0.110   0.406
 8325TIP3    H124939   6.588   0.050   0.450
 8325TIP3    H224940   6.442   0.072   0.420
 8326TIP3   OH224941   3.771   5.672   1.409
 8326TIP3    H124942   3.860   5.645   1.433
 8326TIP3    H224943   3.721   5.666   1.490
 8327TIP3   OH224944   4.438   3.481   1.413
 8327TIP3    H124945   4.490   3.472   1.333
 8327TIP3    H224946   4.483   3.550   1.462
 8328TIP3   OH224947   0.794   3.255   3.788
 8328TIP3    H124948   0.734   3.318   3.748
 8328TIP3    H224949   0.880   3.277   3.753
 8329TIP3   OH224950   3.847   4.511   5.059
 8329TIP3    H124951   3.817   4.454   4.988
 8329TIP3    H224952   3.836   4.600   5.024
 8330TIP3   OH224953   2.425   6.721   1.745
 8330TIP3    H124954   2.508   6.675   1.760
 8330TIP3    H224955   2.388   6.733   1.833
 8331TIP3   OH224956   0.606   4.428   0.965
 8331TIP3    H124957   0.571   4.392   0.883
 8331TIP3    H224958   0.542   4.494   0.991
 8332TIP3   OH224959   6.972   5.514   3.032
 8332TIP3    H124960   6.984   5.608   3.044
 8332TIP3    H224961   6.896   5.506   2.975
 8333TIP3   OH224962   6.169   1.494   3.560
 8333TIP3    H124963   6.151   1.431   3.630
 8333TIP3    H224964   6.240   1.454   3.509
 8334TIP3   OH224965   5.329   4.010   1.270
 8334TIP3    H124966   5.294   4.081   1.216
 8334TIP3    H224967   5.252   3.963   1.301
 8335TIP3   OH224968   1.851   4.384   0.038
 8335TIP3    H124969   1.891   4.470   0.028
 8335TIP3    H224970   1.924   4.326   0.060
 8336TIP3   OH224971   5.983   4.551   1.098
 8336TIP3    H124972   5.958   4.510   1.181
 8336TIP3    H224973   6.028   4.631   1.124
 8337TIP3   OH224974   1.856   4.242   1.734
 8337TIP3    H124975   1.794   4.225   1.804
 8337TIP3    H224976   1.853   4.337   1.721
 8338TIP3   OH224977   4.548   5.918   4.621
 8338TIP3    H124978   4.553   5.943   4.528
 8338TIP3    H224979   4.631   5.874   4.638
 8339TIP3   OH224980   4.692   6.335   5.659
 8339TIP3    H124981   4.756   6.398   5.692
 8339TIP3    H224982   4.731   6.303   5.577
 8340TIP3   OH224983   0.133   1.366   4.249
 8340TIP3    H124984   0.169   1.279   4.228
 8340TIP3    H224985   0.039   1.353   4.253
 8341TIP3   OH224986   2.700   5.792   4.766
 8341TIP3    H124987   2.675   5.882   4.785
 8341TIP3    H224988   2.705   5.788   4.671
 8342TIP3   OH224989   1.171   1.462   0.637
 8342TIP3    H124990   1.259   1.499   0.632
 8342TIP3    H224991   1.184   1.371   0.663
 8343TIP3   OH224992   3.758   3.987   1.688
 8343TIP3    H124993   3.788   3.949   1.770
 8343TIP3    H224994   3.837   3.992   1.634
 8344TIP3   OH224995   5.737   4.549   0.914
 8344TIP3    H124996   5.826   4.544   0.951
 8344TIP3    H224997   5.704   4.633   0.944
 8345TIP3   OH224998   0.870   0.196   1.545
 8345TIP3    H124999   0.805   0.169   1.480
 8345TIP3    H225000   0.823   0.254   1.604
 8346TIP3   OH225001   0.148   0.236   2.213
 8346TIP3    H125002   0.137   0.329   2.232
 8346TIP3    H225003   0.137   0.229   2.118
 8347TIP3   OH225004   2.397   4.463   1.247
 8347TIP3    H125005   2.337   4.406   1.199
 8347TIP3    H225006   2.484   4.436   1.218
 8348TIP3   OH225007   5.687   3.229   0.215
 8348TIP3    H125008   5.620   3.288   0.179
 8348TIP3    H225009   5.706   3.265   0.301
 8349TIP3   OH225010   1.531   1.162   3.896
 8349TIP3    H125011   1.473   1.098   3.938
 8349TIP3    H225012   1.477   1.202   3.829
 8350TIP3   OH225013   6.115   5.998   3.483
 8350TIP3    H125014   6.025   6.030   3.484
 8350TIP3    H225015   6.169   6.075   3.497
 8351TIP3   OH225016   4.776   3.474   3.916
 8351TIP3    H125017   4.791   3.517   4.000
 8351TIP3    H225018   4.856   3.491   3.866
 8352TIP3   OH225019   6.148   3.913   5.287
 8352TIP3    H125020   6.216   3.979   5.304
 8352TIP3    H225021   6.184   3.860   5.215
 8353TIP3   OH225022   5.017   4.600   3.981
 8353TIP3    H125023   5.088   4.539   3.960
 8353TIP3    H225024   4.938   4.547   3.978
 8354TIP3   OH225025   1.697   0.381   4.451
 8354TIP3    H125026   1.622   0.322   4.448
 8354TIP3    H225027   1.736   0.374   4.364
 8355TIP3   OH225028   0.617   0.235   0.660
 8355TIP3    H125029   0.633   0.190   0.743
 8355TIP3    H225030   0.691   0.295   0.650
 8356TIP3   OH225031   6.491   4.469   4.203
 8356TIP3    H125032   6.398   4.491   4.206
 8356TIP3    H225033   6.524   4.496   4.289
 8357TIP3   OH225034   4.593   3.434   1.160
 8357TIP3    H125035   4.519   3.475   1.116
 8357TIP3    H225036   4.567   3.343   1.170
 8358TIP3   OH225037   2.476   2.523   3.501
 8358TIP3    H125038   2.396   2.509   3.451
 8358TIP3    H225039   2.492   2.439   3.545
 8359TIP3   OH225040   1.677   5.886   2.180
 8359TIP3    H125041   1.717   5.929   2.105
 8359TIP3    H225042   1.588   5.923   2.184
 8360TIP3   OH225043   5.758   4.622   2.362
 8360TIP3    H125044   5.700   4.641   2.437
 8360TIP3    H225045   5.761   4.526   2.359
 8361TIP3   OH225046   6.338   0.897   4.555
 8361TIP3    H125047   6.420   0.894   4.604
 8361TIP3    H225048   6.318   0.805   4.535
 8362TIP3   OH225049   6.712   4.527   3.619
 8362TIP3    H125050   6.619   4.527   3.643
 8362TIP3    H225051   6.758   4.528   3.703
 8363TIP3   OH225052   0.366   4.802   5.023
 8363TIP3    H125053   0.299   4.763   5.079
 8363TIP3    H225054   0.438   4.823   5.083
 8364TIP3   OH225055   1.180   4.607   2.896
 8364TIP3    H125056   1.109   4.661   2.863
 8364TIP3    H225057   1.260   4.646   2.859
 8365TIP3   OH225058   0.337   6.432   4.419
 8365TIP3    H125059   0.338   6.521   4.455
 8365TIP3    H225060   0.412   6.389   4.461
 8366TIP3   OH225061   3.993   0.978   2.333
 8366TIP3    H125062   4.019   0.919   2.404
 8366TIP3    H225063   3.936   1.043   2.375
 8367TIP3   OH225064   6.693   5.862   1.088
 8367TIP3    H125065   6.753   5.921   1.041
 8367TIP3    H225066   6.613   5.914   1.098
 8368TIP3   OH225067   3.003   0.088   2.534
 8368TIP3    H125068   3.020   0.105   2.627
 8368TIP3    H225069   3.058   0.151   2.488
 8369TIP3   OH225070   2.889   6.544   1.075
 8369TIP3    H125071   2.923   6.457   1.096
 8369TIP3    H225072   2.872   6.584   1.160
 8370TIP3   OH225073   0.923   5.704   4.713
 8370TIP3    H125074   0.866   5.649   4.659
 8370TIP3    H225075   0.983   5.746   4.651
 8371TIP3   OH225076   2.438   5.305   4.450
 8371TIP3    H125077   2.459   5.331   4.539
 8371TIP3    H225078   2.485   5.369   4.395
 8372TIP3   OH225079   2.157   3.559   4.499
 8372TIP3    H125080   2.078   3.592   4.456
 8372TIP3    H225081   2.217   3.540   4.427
 8373TIP3   OH225082   3.755   5.528   4.124
 8373TIP3    H125083   3.711   5.610   4.101
 8373TIP3    H225084   3.762   5.530   4.219
 8374TIP3   OH225085   1.099   3.512   1.198
 8374TIP3    H125086   1.151   3.482   1.272
 8374TIP3    H225087   1.020   3.549   1.238
 8375TIP3   OH225088   1.293   6.737   0.212
 8375TIP3    H125089   1.378   6.774   0.189
 8375TIP3    H225090   1.229   6.797   0.175
 8376TIP3   OH225091   4.838   6.606   1.532
 8376TIP3    H125092   4.906   6.548   1.499
 8376TIP3    H225093   4.838   6.681   1.472
 8377TIP3   OH225094   6.173   1.765   3.555
 8377TIP3    H125095   6.224   1.837   3.517
 8377TIP3    H225096   6.217   1.686   3.525
 8378TIP3   OH225097   3.972   5.556   2.425
 8378TIP3    H125098   3.915   5.632   2.419
 8378TIP3    H225099   3.935   5.492   2.364
 8379TIP3   OH225100   5.583   2.466   0.492
 8379TIP3    H125101   5.565   2.476   0.585
 8379TIP3    H225102   5.637   2.542   0.469
 8380TIP3   OH225103   3.706   0.988   5.170
 8380TIP3    H125104   3.640   0.994   5.101
 8380TIP3    H225105   3.727   0.894   5.174
 8381TIP3   OH225106   3.709   0.407   2.411
 8381TIP3    H125107   3.777   0.473   2.426
 8381TIP3    H225108   3.706   0.398   2.316
 8382TIP3   OH225109   4.509   6.691   5.625
 8382TIP3    H125110   4.601   6.691   5.653
 8382TIP3    H225111   4.470   6.616   5.671
 8383TIP3   OH225112   3.001   5.800   0.889
 8383TIP3    H125113   3.036   5.889   0.882
 8383TIP3    H225114   2.987   5.786   0.982
 8384TIP3   OH225115   5.199   5.654   5.240
 8384TIP3    H125116   5.294   5.643   5.235
 8384TIP3    H225117   5.175   5.613   5.323
 8385TIP3   OH225118   4.149   2.416   0.478
 8385TIP3    H125119   4.065   2.399   0.521
 8385TIP3    H225120   4.158   2.346   0.414
 8386TIP3   OH225121   3.581   4.144   2.417
 8386TIP3    H125122   3.573   4.178   2.506
 8386TIP3    H225123   3.492   4.143   2.383
 8387TIP3   OH225124   2.710   3.672   4.793
 8387TIP3    H125125   2.702   3.756   4.840
 8387TIP3    H225126   2.774   3.623   4.845
 8388TIP3   OH225127   5.974   0.835   5.174
 8388TIP3    H125128   6.020   0.819   5.091
 8388TIP3    H225129   5.983   0.753   5.222
 8389TIP3   OH225130   4.469   6.754   1.837
 8389TIP3    H125131   4.524   6.684   1.802
 8389TIP3    H225132   4.482   6.750   1.931
 8390TIP3   OH225133   0.507   2.689   0.881
 8390TIP3    H125134   0.514   2.708   0.788
 8390TIP3    H225135   0.485   2.595   0.884
 8391TIP3   OH225136   1.029   0.628   4.747
 8391TIP3    H125137   0.948   0.675   4.766
 8391TIP3    H225138   1.092   0.697   4.727
 8392TIP3   OH225139   6.879   5.737   4.987
 8392TIP3    H125140   6.855   5.826   4.964
 8392TIP3    H225141   6.831   5.719   5.068
 8393TIP3   OH225142   2.257   4.218   4.977
 8393TIP3    H125143   2.184   4.185   5.029
 8393TIP3    H225144   2.266   4.309   5.005
 8394TIP3   OH225145   3.445   6.354   1.366
 8394TIP3    H125146   3.433   6.296   1.292
 8394TIP3    H225147   3.374   6.418   1.359
 8395TIP3   OH225148   2.806   0.361   3.974
 8395TIP3    H125149   2.782   0.389   3.886
 8395TIP3    H225150   2.723   0.359   4.022
 8396TIP3   OH225151   3.425   1.094   2.601
 8396TIP3    H125152   3.484   1.158   2.560
 8396TIP3    H225153   3.357   1.147   2.641
 8397TIP3   OH225154   6.155   1.945   2.575
 8397TIP3    H125155   6.097   1.869   2.584
 8397TIP3    H225156   6.101   2.019   2.602
 8398TIP3   OH225157   3.026   2.987   4.627
 8398TIP3    H125158   3.111   2.944   4.638
 8398TIP3    H225159   2.964   2.927   4.669
 8399TIP3   OH225160   3.606   1.909   5.838
 8399TIP3    H125161   3.609   1.860   5.755
 8399TIP3    H225162   3.586   1.999   5.812
 8400TIP3   OH225163   2.532   0.808   1.694
 8400TIP3    H125164   2.541   0.714   1.714
 8400TIP3    H225165   2.450   0.833   1.735
 8401TIP3   OH225166   1.346   3.235   1.483
 8401TIP3    H125167   1.256   3.202   1.477
 8401TIP3    H225168   1.399   3.156   1.497
 8402TIP3   OH225169   4.249   5.073   1.553
 8402TIP3    H125170   4.169   5.025   1.531
 8402TIP3    H225171   4.286   5.025   1.627
 8403TIP3   OH225172   1.146   6.104   5.566
 8403TIP3    H125173   1.158   6.015   5.533
 8403TIP3    H225174   1.235   6.136   5.582
 8404TIP3   OH225175   5.559   6.081   1.343
 8404TIP3    H125176   5.513   6.162   1.321
 8404TIP3    H225177   5.575   6.087   1.437
 8405TIP3   OH225178   0.390   1.377   0.757
 8405TIP3    H125179   0.447   1.406   0.686
 8405TIP3    H225180   0.433   1.409   0.837
 8406TIP3   OH225181   3.177   1.778   2.390
 8406TIP3    H125182   3.241   1.764   2.320
 8406TIP3    H225183   3.196   1.866   2.422
 8407TIP3   OH225184   5.141   4.496   2.382
 8407TIP3    H125185   5.139   4.471   2.474
 8407TIP3    H225186   5.227   4.469   2.351
 8408TIP3   OH225187   5.424   1.609   3.055
 8408TIP3    H125188   5.353   1.605   2.991
 8408TIP3    H225189   5.432   1.703   3.075
 8409TIP3   OH225190   0.675   4.456   2.760
 8409TIP3    H125191   0.629   4.521   2.813
 8409TIP3    H225192   0.746   4.504   2.717
 8410TIP3   OH225193   1.387   3.232   3.337
 8410TIP3    H125194   1.368   3.143   3.307
 8410TIP3    H225195   1.419   3.221   3.426
 8411TIP3   OH225196   1.858   3.123   0.175
 8411TIP3    H125197   1.869   3.138   0.269
 8411TIP3    H225198   1.906   3.042   0.158
 8412TIP3   OH225199   0.494   1.155   1.244
 8412TIP3    H125200   0.556   1.224   1.222
 8412TIP3    H225201   0.546   1.075   1.247
 8413TIP3   OH225202   2.702   4.182   3.175
 8413TIP3    H125203   2.656   4.217   3.099
 8413TIP3    H225204   2.641   4.119   3.213
 8414TIP3   OH225205   1.018   3.752   0.688
 8414TIP3    H125206   1.009   3.696   0.766
 8414TIP3    H225207   1.090   3.713   0.640
 8415TIP3   OH225208   5.859   3.858   0.104
 8415TIP3    H125209   5.915   3.907   0.165
 8415TIP3    H225210   5.897   3.874   0.018
 8416TIP3   OH225211   6.645   2.714   1.375
 8416TIP3    H125212   6.614   2.771   1.445
 8416TIP3    H225213   6.666   2.631   1.418
 8417TIP3   OH225214   6.971   0.300   4.788
 8417TIP3    H125215   6.902   0.344   4.839
 8417TIP3    H225216   7.012   0.240   4.851
 8418TIP3   OH225217   5.621   0.320   4.444
 8418TIP3    H125218   5.580   0.294   4.526
 8418TIP3    H225219   5.564   0.285   4.376
 8419TIP3   OH225220   6.718   4.672   0.405
 8419TIP3    H125221   6.713   4.718   0.488
 8419TIP3    H225222   6.765   4.591   0.425
 8420TIP3   OH225223   0.628   4.509   0.574
 8420TIP3    H125224   0.558   4.570   0.594
 8420TIP3    H225225   0.704   4.544   0.620
 8421TIP3   OH225226   6.095   0.229   2.344
 8421TIP3    H125227   6.004   0.251   2.325
 8421TIP3    H225228   6.146   0.281   2.282
 8422TIP3   OH225229   2.070   0.767   1.732
 8422TIP3    H125230   2.059   0.673   1.717
 8422TIP3    H225231   1.981   0.800   1.748
 8423TIP3   OH225232   5.215   6.071   1.519
 8423TIP3    H125233   5.159   6.057   1.595
 8423TIP3    H225234   5.303   6.051   1.550
 8424TIP3   OH225235   1.198   6.072   3.473
 8424TIP3    H125236   1.155   6.039   3.394
 8424TIP3    H225237   1.272   6.122   3.440
 8425TIP3   OH225238   4.209   1.667   1.216
 8425TIP3    H125239   4.131   1.671   1.161
 8425TIP3    H225240   4.257   1.747   1.197
 8426TIP3   OH225241   3.657   1.727   4.733
 8426TIP3    H125242   3.750   1.707   4.743
 8426TIP3    H225243   3.630   1.759   4.818
 8427TIP3   OH225244   1.848   0.409   2.357
 8427TIP3    H125245   1.854   0.317   2.331
 8427TIP3    H225246   1.937   0.442   2.349
 8428TIP3   OH225247   6.236   3.724   3.061
 8428TIP3    H125248   6.323   3.759   3.041
 8428TIP3    H225249   6.250   3.662   3.132
 8429TIP3   OH225250   4.721   5.119   4.046
 8429TIP3    H125251   4.668   5.193   4.016
 8429TIP3    H225252   4.667   5.077   4.113
 8430TIP3   OH225253   1.780   5.637   2.128
 8430TIP3    H125254   1.870   5.670   2.120
 8430TIP3    H225255   1.731   5.711   2.164
 8431TIP3   OH225256   2.044   4.656   2.228
 8431TIP3    H125257   2.035   4.747   2.201
 8431TIP3    H225258   2.128   4.629   2.191
 8432TIP3   OH225259   6.626   5.157   0.289
 8432TIP3    H125260   6.636   5.252   0.301
 8432TIP3    H225261   6.714   5.126   0.270
 8433TIP3   OH225262   0.592   4.833   1.195
 8433TIP3    H125263   0.513   4.812   1.145
 8433TIP3    H225264   0.573   4.918   1.235
 8434TIP3   OH225265   3.439   4.852   3.256
 8434TIP3    H125266   3.371   4.919   3.246
 8434TIP3    H225267   3.392   4.775   3.288
 8435TIP3   OH225268   5.999   4.809   2.355
 8435TIP3    H125269   5.912   4.777   2.381
 8435TIP3    H225270   5.986   4.902   2.340
 8436TIP3   OH225271   0.074   5.106   1.295
 8436TIP3    H125272   0.091   5.180   1.352
 8436TIP3    H225273   0.007   5.136   1.234
 8437TIP3   OH225274   4.261   2.194   3.485
 8437TIP3    H125275   4.225   2.178   3.572
 8437TIP3    H225276   4.194   2.159   3.426
 8438TIP3   OH225277   4.958   0.284   5.582
 8438TIP3    H125278   4.872   0.322   5.595
 8438TIP3    H225279   4.959   0.206   5.638
 8439TIP3   OH225280   3.651   5.012   1.499
 8439TIP3    H125281   3.701   5.014   1.581
 8439TIP3    H225282   3.656   4.921   1.470
 8440TIP3   OH225283   1.267   1.053   5.309
 8440TIP3    H125284   1.238   0.971   5.268
 8440TIP3    H225285   1.326   1.092   5.245
 8441TIP3   OH225286   5.718   0.877   5.270
 8441TIP3    H125287   5.746   0.863   5.180
 8441TIP3    H225288   5.795   0.857   5.323
 8442TIP3   OH225289   2.705   1.359   4.114
 8442TIP3    H125290   2.688   1.447   4.079
 8442TIP3    H225291   2.749   1.313   4.042
 8443TIP3   OH225292   6.108   0.623   3.813
 8443TIP3    H125293   6.022   0.634   3.853
 8443TIP3    H225294   6.136   0.712   3.792
 8444TIP3   OH225295   5.832   2.689   2.494
 8444TIP3    H125296   5.905   2.719   2.440
 8444TIP3    H225297   5.807   2.766   2.545
 8445TIP3   OH225298   2.693   2.263   3.447
 8445TIP3    H125299   2.772   2.309   3.475
 8445TIP3    H225300   2.669   2.305   3.364
 8446TIP3   OH225301   2.402   3.117   1.453
 8446TIP3    H125302   2.366   3.037   1.413
 8446TIP3    H225303   2.337   3.185   1.435
 8447TIP3   OH225304   6.814   0.487   1.859
 8447TIP3    H125305   6.757   0.561   1.882
 8447TIP3    H225306   6.855   0.462   1.942
 8448TIP3   OH225307   4.414   6.709   4.894
 8448TIP3    H125308   4.385   6.755   4.816
 8448TIP3    H225309   4.496   6.667   4.869
 8449TIP3   OH225310   1.611   3.672   1.998
 8449TIP3    H125311   1.669   3.596   1.988
 8449TIP3    H225312   1.600   3.680   2.093
 8450TIP3   OH225313   1.193   5.127   0.523
 8450TIP3    H125314   1.117   5.163   0.477
 8450TIP3    H225315   1.268   5.175   0.488
 8451TIP3   OH225316   5.898   3.009   0.498
 8451TIP3    H125317   5.908   3.043   0.409
 8451TIP3    H225318   5.919   3.084   0.555
 8452TIP3   OH225319   4.619   2.598   1.173
 8452TIP3    H125320   4.634   2.510   1.208
 8452TIP3    H225321   4.539   2.628   1.217
 8453TIP3   OH225322   3.759   6.010   3.910
 8453TIP3    H125323   3.837   6.066   3.912
 8453TIP3    H225324   3.699   6.050   3.973
 8454TIP3   OH225325   2.333   4.206   2.349
 8454TIP3    H125326   2.241   4.187   2.328
 8454TIP3    H225327   2.383   4.159   2.282
 8455TIP3   OH225328   0.091   4.766   4.760
 8455TIP3    H125329   0.183   4.784   4.739
 8455TIP3    H225330   0.092   4.679   4.799
 8456TIP3   OH225331   2.968   6.731   2.842
 8456TIP3    H125332   3.054   6.702   2.812
 8456TIP3    H225333   2.906   6.688   2.783
 8457TIP3   OH225334   3.552   0.198   5.153
 8457TIP3    H125335   3.605   0.136   5.201
 8457TIP3    H225336   3.611   0.271   5.134
 8458TIP3   OH225337   1.490   1.631   1.580
 8458TIP3    H125338   1.439   1.710   1.601
 8458TIP3    H225339   1.542   1.614   1.659
 8459TIP3   OH225340   3.737   6.166   0.850
 8459TIP3    H125341   3.760   6.073   0.846
 8459TIP3    H225342   3.820   6.212   0.837
 8460TIP3   OH225343   6.669   4.511   2.028
 8460TIP3    H125344   6.585   4.525   2.073
 8460TIP3    H225345   6.734   4.549   2.086
 8461TIP3   OH225346   0.136   1.487   3.985
 8461TIP3    H125347   0.123   1.462   4.076
 8461TIP3    H225348   0.061   1.448   3.939
 8462TIP3   OH225349   4.711   5.947   1.925
 8462TIP3    H125350   4.793   5.900   1.940
 8462TIP3    H225351   4.650   5.878   1.896
 8463TIP3   OH225352   0.044   6.175   5.549
 8463TIP3    H125353   0.105   6.140   5.615
 8463TIP3    H225354   0.023   6.099   5.494
 8464TIP3   OH225355   0.381   5.844   0.849
 8464TIP3    H125356   0.473   5.830   0.826
 8464TIP3    H225357   0.356   5.765   0.896
 8465TIP3   OH225358   4.608   5.656   5.088
 8465TIP3    H125359   4.646   5.736   5.051
 8465TIP3    H225360   4.676   5.621   5.145
 8466TIP3   OH225361   6.419   5.526   2.229
 8466TIP3    H125362   6.367   5.521   2.149
 8466TIP3    H225363   6.374   5.468   2.291
 8467TIP3   OH225364   6.397   4.664   3.086
 8467TIP3    H125365   6.326   4.644   3.147
 8467TIP3    H225366   6.420   4.755   3.104
 8468TIP3   OH225367   1.868   5.295   2.920
 8468TIP3    H125368   1.858   5.319   3.013
 8468TIP3    H225369   1.829   5.368   2.872
 8469TIP3   OH225370   3.105   1.201   0.301
 8469TIP3    H125371   3.032   1.257   0.328
 8469TIP3    H225372   3.136   1.240   0.220
 8470TIP3   OH225373   3.912   4.042   3.386
 8470TIP3    H125374   3.961   3.989   3.323
 8470TIP3    H225375   3.877   4.114   3.334
 8471TIP3   OH225376   7.076   5.686   0.751
 8471TIP3    H125377   7.166   5.663   0.730
 8471TIP3    H225378   7.067   5.670   0.844
 8472TIP3   OH225379   0.032   1.687   0.642
 8472TIP3    H125380   0.051   1.617   0.580
 8472TIP3    H225381  -0.022   1.749   0.593
 8473TIP3   OH225382   6.283   5.233   1.170
 8473TIP3    H125383   6.217   5.268   1.108
 8473TIP3    H225384   6.300   5.306   1.229
 8474TIP3   OH225385   4.837   2.947   5.389
 8474TIP3    H125386   4.876   3.032   5.367
 8474TIP3    H225387   4.747   2.967   5.415
 8475TIP3   OH225388   5.850   1.887   4.622
 8475TIP3    H125389   5.763   1.877   4.659
 8475TIP3    H225390   5.873   1.978   4.640
 8476TIP3   OH225391   6.851   0.864   0.796
 8476TIP3    H125392   6.879   0.822   0.878
 8476TIP3    H225393   6.928   0.861   0.740
 8477TIP3   OH225394   4.052   1.579   2.804
 8477TIP3    H125395   4.098   1.501   2.773
 8477TIP3    H225396   4.011   1.552   2.886
 8478TIP3   OH225397   1.062   3.671   3.670
 8478TIP3    H125398   1.134   3.677   3.607
 8478TIP3    H225399   0.984   3.659   3.616
 8479TIP3   OH225400   4.098   5.248   5.547
 8479TIP3    H125401   4.123   5.156   5.556
 8479TIP3    H225402   4.173   5.290   5.505
 8480TIP3   OH225403   4.565   3.339   4.989
 8480TIP3    H125404   4.513   3.260   5.003
 8480TIP3    H225405   4.587   3.337   4.896
 8481TIP3   OH225406   5.660   0.812   4.326
 8481TIP3    H125407   5.661   0.745   4.393
 8481TIP3    H225408   5.736   0.792   4.271
 8482TIP3   OH225409   0.819   4.633   0.704
 8482TIP3    H125410   0.806   4.637   0.798
 8482TIP3    H225411   0.857   4.718   0.681
 8483TIP3   OH225412   4.318   5.803   5.729
 8483TIP3    H125413   4.331   5.808   5.634
 8483TIP3    H225414   4.241   5.747   5.740
 8484TIP3   OH225415   5.883   2.605   3.131
 8484TIP3    H125416   5.950   2.640   3.073
 8484TIP3    H225417   5.801   2.613   3.082
 8485TIP3   OH225418   2.624   1.714   0.940
 8485TIP3    H125419   2.628   1.632   0.989
 8485TIP3    H225420   2.700   1.764   0.970
 8486TIP3   OH225421   2.694   4.639   3.682
 8486TIP3    H125422   2.718   4.578   3.752
 8486TIP3    H225423   2.622   4.690   3.718
 8487TIP3   OH225424   0.046   0.564   1.929
 8487TIP3    H125425  -0.011   0.537   1.857
 8487TIP3    H225426   0.022   0.506   2.002
 8488TIP3   OH225427   4.985   4.980   5.251
 8488TIP3    H125428   5.002   4.887   5.269
 8488TIP3    H225429   4.974   4.983   5.156
 8489TIP3   OH225430   1.403   0.549   1.635
 8489TIP3    H125431   1.362   0.559   1.548
 8489TIP3    H225432   1.340   0.588   1.695
 8490TIP3   OH225433   4.696   1.984   2.677
 8490TIP3    H125434   4.734   2.048   2.737
 8490TIP3    H225435   4.772   1.950   2.628
 8491TIP3   OH225436   5.702   5.265   4.772
 8491TIP3    H125437   5.783   5.215   4.762
 8491TIP3    H225438   5.633   5.204   4.746
 8492TIP3   OH225439   0.209   1.473   3.725
 8492TIP3    H125440   0.241   1.561   3.702
 8492TIP3    H225441   0.203   1.475   3.820
 8493TIP3   OH225442   5.285   4.260   5.128
 8493TIP3    H125443   5.361   4.274   5.072
 8493TIP3    H225444   5.223   4.328   5.103
 8494TIP3   OH225445   1.585   6.418   1.779
 8494TIP3    H125446   1.563   6.510   1.773
 8494TIP3    H225447   1.511   6.372   1.741
 8495TIP3   OH225448   5.056   2.014   3.198
 8495TIP3    H125449   5.150   2.024   3.217
 8495TIP3    H225450   5.016   2.092   3.237
 8496TIP3   OH225451   2.392   4.829   4.606
 8496TIP3    H125452   2.310   4.805   4.650
 8496TIP3    H225453   2.421   4.908   4.652
 8497TIP3   OH225454   2.836   6.666   1.311
 8497TIP3    H125455   2.864   6.612   1.386
 8497TIP3    H225456   2.864   6.754   1.334
 8498TIP3   OH225457   6.243   3.491   3.504
 8498TIP3    H125458   6.185   3.561   3.535
 8498TIP3    H225459   6.269   3.445   3.584
 8499TIP3   OH225460   1.827   5.512   2.410
 8499TIP3    H125461   1.769   5.538   2.338
 8499TIP3    H225462   1.768   5.475   2.476
 8500TIP3   OH225463   0.765   1.395   5.123
 8500TIP3    H125464   0.774   1.374   5.216
 8500TIP3    H225465   0.697   1.336   5.091
 8501TIP3   OH225466   3.367   5.259   2.955
 8501TIP3    H125467   3.360   5.182   2.898
 8501TIP3    H225468   3.444   5.241   3.009
 8502TIP3   OH225469   0.654   1.846   2.956
 8502TIP3    H125470   0.574   1.891   2.926
 8502TIP3    H225471   0.686   1.801   2.878
 8503TIP3   OH225472   4.449   3.271   1.650
 8503TIP3    H125473   4.428   3.294   1.560
 8503TIP3    H225474   4.470   3.354   1.692
 8504TIP3   OH225475   5.718   5.040   1.206
 8504TIP3    H125476   5.716   5.096   1.128
 8504TIP3    H225477   5.629   5.045   1.241
 8505TIP3   OH225478   3.790   0.793   4.606
 8505TIP3    H125479   3.697   0.804   4.588
 8505TIP3    H225480   3.820   0.729   4.542
 8506TIP3   OH225481   5.566   3.957   0.340
 8506TIP3    H125482   5.480   3.994   0.359
 8506TIP3    H225483   5.593   3.914   0.422
 8507TIP3   OH225484   3.223   2.698   1.454
 8507TIP3    H125485   3.194   2.783   1.421
 8507TIP3    H225486   3.318   2.698   1.443
 8508TIP3   OH225487   0.358   3.841   1.182
 8508TIP3    H125488   0.310   3.772   1.227
 8508TIP3    H225489   0.298   3.916   1.182
 8509TIP3   OH225490   3.100   5.200   2.528
 8509TIP3    H125491   3.033   5.137   2.552
 8509TIP3    H225492   3.171   5.147   2.493
 8510TIP3   OH225493   1.871   5.217   4.559
 8510TIP3    H125494   1.961   5.187   4.567
 8510TIP3    H225495   1.855   5.269   4.637
 8511TIP3   OH225496   5.236   0.726   1.598
 8511TIP3    H125497   5.218   0.670   1.673
 8511TIP3    H225498   5.254   0.665   1.526
 8512TIP3   OH225499   5.857   6.105   1.614
 8512TIP3    H125500   5.765   6.101   1.637
 8512TIP3    H225501   5.900   6.141   1.692
 8513TIP3   OH225502   4.292   4.138   3.281
 8513TIP3    H125503   4.251   4.151   3.367
 8513TIP3    H225504   4.286   4.044   3.266
 8514TIP3   OH225505   3.900   3.082   5.357
 8514TIP3    H125506   3.994   3.098   5.359
 8514TIP3    H225507   3.891   2.987   5.369
 8515TIP3   OH225508   5.540   3.371   3.708
 8515TIP3    H125509   5.462   3.348   3.658
 8515TIP3    H225510   5.598   3.295   3.699
 8516TIP3   OH225511   0.675   6.172   4.794
 8516TIP3    H125512   0.737   6.100   4.781
 8516TIP3    H225513   0.723   6.234   4.850
 8517TIP3   OH225514   4.769   4.827   4.247
 8517TIP3    H125515   4.743   4.817   4.339
 8517TIP3    H225516   4.820   4.748   4.229
 8518TIP3   OH225517   0.274   6.184   1.064
 8518TIP3    H125518   0.363   6.165   1.094
 8518TIP3    H225519   0.257   6.273   1.095
 8519TIP3   OH225520   5.071   6.074   5.022
 8519TIP3    H125521   5.113   6.153   4.990
 8519TIP3    H225522   5.062   6.018   4.945
 8520TIP3   OH225523   5.091   4.829   1.928
 8520TIP3    H125524   5.120   4.776   2.003
 8520TIP3    H225525   5.033   4.895   1.967
 8521TIP3   OH225526   2.287   3.112   5.137
 8521TIP3    H125527   2.256   3.082   5.052
 8521TIP3    H225528   2.357   3.051   5.160
 8522TIP3   OH225529   4.614   6.618   3.726
 8522TIP3    H125530   4.538   6.653   3.773
 8522TIP3    H225531   4.636   6.685   3.661
 8523TIP3   OH225532   5.947   3.119   0.238
 8523TIP3    H125533   5.874   3.177   0.217
 8523TIP3    H225534   6.007   3.127   0.164
 8524TIP3   OH225535   3.411   4.132   3.610
 8524TIP3    H125536   3.388   4.136   3.703
 8524TIP3    H225537   3.333   4.096   3.568
 8525TIP3   OH225538   4.341   2.861   3.907
 8525TIP3    H125539   4.412   2.824   3.855
 8525TIP3    H225540   4.273   2.881   3.842
 8526TIP3   OH225541   2.448   4.356   0.941
 8526TIP3    H125542   2.484   4.357   0.853
 8526TIP3    H225543   2.523   4.368   0.999
 8527TIP3   OH225544   2.482   0.676   2.136
 8527TIP3    H125545   2.485   0.735   2.212
 8527TIP3    H225546   2.401   0.627   2.147
 8528TIP3   OH225547   0.780   3.536   1.902
 8528TIP3    H125548   0.792   3.591   1.825
 8528TIP3    H225549   0.858   3.481   1.905
 8529TIP3   OH225550   0.627   6.128   0.880
 8529TIP3    H125551   0.630   6.110   0.786
 8529TIP3    H225552   0.629   6.041   0.920
 8530TIP3   OH225553   4.241   6.536   3.490
 8530TIP3    H125554   4.209   6.577   3.570
 8530TIP3    H225555   4.265   6.609   3.433
 8531TIP3   OH225556   5.855   6.068   0.958
 8531TIP3    H125557   5.822   6.081   1.046
 8531TIP3    H225558   5.802   6.126   0.903
 8532TIP3   OH225559   2.549   5.058   5.551
 8532TIP3    H125560   2.473   5.116   5.558
 8532TIP3    H225561   2.542   5.020   5.463
 8533TIP3   OH225562   5.269   0.654   0.364
 8533TIP3    H125563   5.182   0.616   0.353
 8533TIP3    H225564   5.287   0.646   0.458
 8534TIP3   OH225565   0.360   5.344   2.310
 8534TIP3    H125566   0.448   5.346   2.270
 8534TIP3    H225567   0.314   5.417   2.268
 8535TIP3   OH225568   4.786   3.955   2.464
 8535TIP3    H125569   4.806   3.866   2.492
 8535TIP3    H225570   4.714   3.982   2.520
 8536TIP3   OH225571   4.783   4.388   4.023
 8536TIP3    H125572   4.805   4.297   4.001
 8536TIP3    H225573   4.717   4.413   3.959
 8537TIP3   OH225574   7.049   3.725   2.043
 8537TIP3    H125575   7.122   3.767   1.996
 8537TIP3    H225576   7.078   3.722   2.134
 8538TIP3   OH225577   4.823   1.284   0.739
 8538TIP3    H125578   4.768   1.252   0.668
 8538TIP3    H225579   4.849   1.204   0.786
 8539TIP3   OH225580   6.277   3.742   1.089
 8539TIP3    H125581   6.362   3.709   1.118
 8539TIP3    H225582   6.215   3.701   1.149
 8540TIP3   OH225583   0.106   6.627   5.412
 8540TIP3    H125584   0.022   6.633   5.367
 8540TIP3    H225585   0.117   6.712   5.455
 8541TIP3   OH225586   3.868   6.250   2.007
 8541TIP3    H125587   3.951   6.274   2.048
 8541TIP3    H225588   3.824   6.195   2.072
 8542TIP3   OH225589   3.537   6.667   2.748
 8542TIP3    H125590   3.564   6.691   2.836
 8542TIP3    H225591   3.570   6.738   2.693
 8543TIP3   OH225592   2.270   6.746   0.412
 8543TIP3    H125593   2.222   6.794   0.480
 8543TIP3    H225594   2.225   6.768   0.331
 8544TIP3   OH225595   5.354   4.184   5.746
 8544TIP3    H125596   5.396   4.268   5.723
 8544TIP3    H225597   5.266   4.208   5.774
 8545TIP3   OH225598   1.474   1.773   5.236
 8545TIP3    H125599   1.486   1.721   5.315
 8545TIP3    H225600   1.383   1.803   5.241
 8546TIP3   OH225601   4.835   5.718   0.968
 8546TIP3    H125602   4.831   5.680   1.056
 8546TIP3    H225603   4.817   5.645   0.909
 8547TIP3   OH225604   4.876   3.141   0.461
 8547TIP3    H125605   4.920   3.149   0.546
 8547TIP3    H225606   4.797   3.193   0.470
 8548TIP3   OH225607   7.058   1.384   2.808
 8548TIP3    H125608   7.060   1.474   2.776
 8548TIP3    H225609   7.056   1.330   2.729
 8549TIP3   OH225610   7.184   5.830   1.843
 8549TIP3    H125611   7.190   5.871   1.757
 8549TIP3    H225612   7.145   5.898   1.899
 8550TIP3   OH225613   1.727   2.509   1.619
 8550TIP3    H125614   1.641   2.468   1.607
 8550TIP3    H225615   1.730   2.532   1.712
 8551TIP3   OH225616   3.518   5.740   3.185
 8551TIP3    H125617   3.509   5.823   3.140
 8551TIP3    H225618   3.465   5.679   3.133
 8552TIP3   OH225619   2.958   6.721   3.318
 8552TIP3    H125620   2.886   6.706   3.379
 8552TIP3    H225621   3.029   6.753   3.373
 8553TIP3   OH225622   4.163   6.100   3.497
 8553TIP3    H125623   4.221   6.143   3.561
 8553TIP3    H225624   4.096   6.057   3.551
 8554TIP3   OH225625   5.734   6.217   5.616
 8554TIP3    H125626   5.671   6.211   5.544
 8554TIP3    H225627   5.681   6.212   5.695
 8555TIP3   OH225628   6.498   4.486   3.832
 8555TIP3    H125629   6.553   4.411   3.852
 8555TIP3    H225630   6.514   4.548   3.904
 8556TIP3   OH225631   4.213   1.474   5.023
 8556TIP3    H125632   4.266   1.427   4.959
 8556TIP3    H225633   4.166   1.540   4.972
 8557TIP3   OH225634   0.825   1.103   2.557
 8557TIP3    H125635   0.835   1.197   2.545
 8557TIP3    H225636   0.909   1.066   2.531
 8558TIP3   OH225637   3.262   0.352   3.777
 8558TIP3    H125638   3.307   0.436   3.791
 8558TIP3    H225639   3.327   0.286   3.799
 8559TIP3   OH225640   2.169   5.911   1.361
 8559TIP3    H125641   2.179   5.970   1.436
 8559TIP3    H225642   2.231   5.946   1.296
 8560TIP3   OH225643   6.912   1.627   3.277
 8560TIP3    H125644   6.982   1.614   3.342
 8560TIP3    H225645   6.954   1.608   3.193
 8561TIP3   OH225646   0.291   0.406   0.381
 8561TIP3    H125647   0.353   0.338   0.408
 8561TIP3    H225648   0.208   0.380   0.421
 8562TIP3   OH225649   2.095   5.380   3.558
 8562TIP3    H125650   2.143   5.306   3.521
 8562TIP3    H225651   2.007   5.371   3.521
 8563TIP3   OH225652   5.640   1.711   4.960
 8563TIP3    H125653   5.702   1.682   5.026
 8563TIP3    H225654   5.637   1.639   4.896
 8564TIP3   OH225655   1.492   0.882   0.959
 8564TIP3    H125656   1.484   0.955   1.020
 8564TIP3    H225657   1.513   0.807   1.014
 8565TIP3   OH225658   0.919   6.537   2.652
 8565TIP3    H125659   0.861   6.512   2.724
 8565TIP3    H225660   0.860   6.561   2.580
 8566TIP3   OH225661   6.174   2.188   3.324
 8566TIP3    H125662   6.269   2.199   3.327
 8566TIP3    H225663   6.141   2.275   3.301
 8567TIP3   OH225664   0.971   5.488   0.854
 8567TIP3    H125665   1.010   5.418   0.801
 8567TIP3    H225666   0.927   5.545   0.791
 8568TIP3   OH225667   5.036   5.942   0.732
 8568TIP3    H125668   5.119   5.899   0.711
 8568TIP3    H225669   4.972   5.871   0.729
 8569TIP3   OH225670   2.138   6.560   0.667
 8569TIP3    H125671   2.122   6.511   0.747
 8569TIP3    H225672   2.221   6.526   0.634
 8570TIP3   OH225673   4.214   3.479   5.128
 8570TIP3    H125674   4.124   3.490   5.098
 8570TIP3    H225675   4.224   3.385   5.140
 8571TIP3   OH225676   6.862   2.592   2.568
 8571TIP3    H125677   6.775   2.627   2.582
 8571TIP3    H225678   6.886   2.621   2.480
 8572TIP3   OH225679   1.252   5.853   4.292
 8572TIP3    H125680   1.191   5.915   4.252
 8572TIP3    H225681   1.249   5.776   4.236
 8573TIP3   OH225682   5.993   6.565   5.592
 8573TIP3    H125683   5.957   6.653   5.584
 8573TIP3    H225684   5.975   6.539   5.682
 8574TIP3   OH225685   0.485   4.773   2.695
 8574TIP3    H125686   0.391   4.784   2.681
 8574TIP3    H225687   0.492   4.713   2.769
 8575TIP3   OH225688   0.767   1.356   2.524
 8575TIP3    H125689   0.748   1.322   2.436
 8575TIP3    H225690   0.746   1.449   2.519
 8576TIP3   OH225691   5.607   4.222   5.123
 8576TIP3    H125692   5.679   4.284   5.111
 8576TIP3    H225693   5.542   4.246   5.058
 8577TIP3   OH225694   5.356   4.687   2.915
 8577TIP3    H125695   5.432   4.633   2.895
 8577TIP3    H225696   5.335   4.667   3.006
 8578TIP3   OH225697   5.178   3.938   5.280
 8578TIP3    H125698   5.167   4.021   5.326
 8578TIP3    H225699   5.207   3.877   5.348
 8579TIP3   OH225700   2.647   0.596   2.726
 8579TIP3    H125701   2.716   0.604   2.659
 8579TIP3    H225702   2.647   0.681   2.770
 8580TIP3   OH225703   3.951   6.772   3.471
 8580TIP3    H125704   3.991   6.746   3.387
 8580TIP3    H225705   3.994   6.854   3.494
 8581TIP3   OH225706   2.850   5.776   2.321
 8581TIP3    H125707   2.803   5.748   2.400
 8581TIP3    H225708   2.903   5.700   2.297
 8582TIP3   OH225709   5.674   0.237   5.416
 8582TIP3    H125710   5.653   0.291   5.492
 8582TIP3    H225711   5.641   0.150   5.439
 8583TIP3   OH225712   3.970   1.871   5.396
 8583TIP3    H125713   4.047   1.855   5.450
 8583TIP3    H225714   3.932   1.784   5.381
 8584TIP3   OH225715   4.499   4.902   2.813
 8584TIP3    H125716   4.430   4.956   2.775
 8584TIP3    H225717   4.526   4.949   2.892
 8585TIP3   OH225718   3.990   6.171   3.885
 8585TIP3    H125719   3.994   6.241   3.819
 8585TIP3    H225720   4.059   6.110   3.858
 8586TIP3   OH225721   1.711   6.696   3.020
 8586TIP3    H125722   1.710   6.778   2.970
 8586TIP3    H225723   1.782   6.645   2.982
 8587TIP3   OH225724   2.769   3.181   2.560
 8587TIP3    H125725   2.742   3.118   2.493
 8587TIP3    H225726   2.731   3.147   2.641
 8588TIP3   OH225727   4.979   6.577   5.528
 8588TIP3    H125728   4.979   6.483   5.546
 8588TIP3    H225729   5.067   6.607   5.553
 8589TIP3   OH225730   5.601   1.346   2.380
 8589TIP3    H125731   5.571   1.264   2.419
 8589TIP3    H225732   5.691   1.355   2.410
 8590TIP3   OH225733   5.281   6.094   2.983
 8590TIP3    H125734   5.197   6.135   3.006
 8590TIP3    H225735   5.276   6.079   2.889
 8591TIP3   OH225736   3.514   5.974   3.006
 8591TIP3    H125737   3.500   5.915   2.932
 8591TIP3    H225738   3.557   6.051   2.969
 8592TIP3   OH225739   2.328   2.762   2.857
 8592TIP3    H125740   2.301   2.670   2.854
 8592TIP3    H225741   2.423   2.759   2.851
 8593TIP3   OH225742   1.187   0.783   0.866
 8593TIP3    H125743   1.194   0.876   0.889
 8593TIP3    H225744   1.168   0.784   0.772
 8594TIP3   OH225745   5.042   6.021   5.419
 8594TIP3    H125746   5.108   6.040   5.351
 8594TIP3    H225747   5.056   5.929   5.440
 8595TIP3   OH225748   5.422   3.355   0.508
 8595TIP3    H125749   5.345   3.328   0.458
 8595TIP3    H225750   5.412   3.313   0.594
 8596TIP3   OH225751   5.918   6.741   3.677
 8596TIP3    H125752   6.000   6.768   3.718
 8596TIP3    H225753   5.862   6.714   3.750
 8597TIP3   OH225754   7.098   1.867   4.244
 8597TIP3    H125755   7.128   1.852   4.155
 8597TIP3    H225756   7.104   1.962   4.257
 8598TIP3   OH225757   5.867   2.971   2.618
 8598TIP3    H125758   5.951   2.975   2.572
 8598TIP3    H225759   5.889   2.982   2.710
 8599TIP3   OH225760   6.720   1.617   2.391
 8599TIP3    H125761   6.700   1.704   2.359
 8599TIP3    H225762   6.790   1.585   2.334
 8600TIP3   OH225763   2.438   3.805   1.238
 8600TIP3    H125764   2.484   3.816   1.155
 8600TIP3    H225765   2.345   3.809   1.214
 8601TIP3   OH225766   3.851   2.655   0.988
 8601TIP3    H125767   3.893   2.738   1.010
 8601TIP3    H225768   3.912   2.611   0.929
 8602TIP3   OH225769   1.294   4.480   0.446
 8602TIP3    H125770   1.230   4.441   0.505
 8602TIP3    H225771   1.369   4.419   0.448
 8603TIP3   OH225772   3.070   1.833   0.360
 8603TIP3    H125773   3.088   1.832   0.454
 8603TIP3    H225774   3.070   1.741   0.334
 8604TIP3   OH225775   5.036   3.798   3.771
 8604TIP3    H125776   5.118   3.776   3.727
 8604TIP3    H225777   4.974   3.731   3.740
 8605TIP3   OH225778   5.077   4.756   0.222
 8605TIP3    H125779   5.098   4.721   0.135
 8605TIP3    H225780   5.136   4.709   0.281
 8606TIP3   OH225781   1.454   4.016   2.097
 8606TIP3    H125782   1.525   3.997   2.037
 8606TIP3    H225783   1.403   4.084   2.054
 8607TIP3   OH225784   0.237   5.889   1.326
 8607TIP3    H125785   0.157   5.845   1.355
 8607TIP3    H225786   0.307   5.847   1.375
 8608TIP3   OH225787   1.737   5.040   1.832
 8608TIP3    H125788   1.816   5.056   1.781
 8608TIP3    H225789   1.728   4.945   1.835
 8609TIP3   OH225790   2.705   4.362   4.068
 8609TIP3    H125791   2.672   4.275   4.090
 8609TIP3    H225792   2.639   4.399   4.009
 8610TIP3   OH225793   5.634   4.952   5.471
 8610TIP3    H125794   5.588   4.922   5.393
 8610TIP3    H225795   5.605   4.892   5.540
 8611TIP3   OH225796   1.233   3.590   3.106
 8611TIP3    H125797   1.289   3.667   3.101
 8611TIP3    H225798   1.286   3.518   3.073
 8612TIP3   OH225799   6.018   1.847   5.412
 8612TIP3    H125800   5.934   1.879   5.444
 8612TIP3    H225801   6.053   1.918   5.359
 8613TIP3   OH225802   4.863   3.066   0.828
 8613TIP3    H125803   4.850   3.132   0.896
 8613TIP3    H225804   4.880   3.117   0.749
 8614TIP3   OH225805   1.971   0.062   1.511
 8614TIP3    H125806   1.971   0.121   1.436
 8614TIP3    H225807   1.953  -0.025   1.475
 8615TIP3   OH225808   1.071   1.962   2.945
 8615TIP3    H125809   1.034   1.875   2.958
 8615TIP3    H225810   1.157   1.958   2.987
 8616TIP3   OH225811   3.858   2.187   2.112
 8616TIP3    H125812   3.944   2.226   2.123
 8616TIP3    H225813   3.854   2.117   2.178
 8617TIP3   OH225814   0.992   0.324   2.132
 8617TIP3    H125815   1.038   0.385   2.075
 8617TIP3    H225816   0.983   0.371   2.215
 8618TIP3   OH225817   0.396   0.741   2.687
 8618TIP3    H125818   0.413   0.826   2.646
 8618TIP3    H225819   0.436   0.748   2.774
 8619TIP3   OH225820   4.317   0.640   4.662
 8619TIP3    H125821   4.303   0.557   4.617
 8619TIP3    H225822   4.302   0.706   4.595
 8620TIP3   OH225823   2.455   6.764   1.329
 8620TIP3    H125824   2.532   6.785   1.277
 8620TIP3    H225825   2.489   6.744   1.416
 8621TIP3   OH225826   0.758   5.558   5.211
 8621TIP3    H125827   0.677   5.520   5.245
 8621TIP3    H225828   0.785   5.498   5.141
 8622TIP3   OH225829   5.354   0.616   0.627
 8622TIP3    H125830   5.428   0.555   0.630
 8622TIP3    H225831   5.321   0.619   0.716
 8623TIP3   OH225832   5.396   3.027   5.233
 8623TIP3    H125833   5.455   2.953   5.247
 8623TIP3    H225834   5.370   3.021   5.141
 8624TIP3   OH225835   4.552   0.753   2.306
 8624TIP3    H125836   4.600   0.712   2.378
 8624TIP3    H225837   4.608   0.826   2.278
 8625TIP3   OH225838   0.647   1.364   3.704
 8625TIP3    H125839   0.621   1.312   3.780
 8625TIP3    H225840   0.726   1.410   3.732
 8626TIP3   OH225841   2.078   5.470   0.016
 8626TIP3    H125842   2.111   5.536  -0.045
 8626TIP3    H225843   1.993   5.503   0.044
 8627TIP3   OH225844   0.978   1.352   0.878
 8627TIP3    H125845   0.944   1.439   0.901
 8627TIP3    H225846   1.025   1.366   0.796
 8628TIP3   OH225847   2.609   0.896   4.443
 8628TIP3    H125848   2.587   0.989   4.431
 8628TIP3    H225849   2.531   0.849   4.414
 8629TIP3   OH225850   0.244   2.093   1.111
 8629TIP3    H125851   0.199   2.154   1.053
 8629TIP3    H225852   0.174   2.039   1.148
 8630TIP3   OH225853   4.168   2.133   3.727
 8630TIP3    H125854   4.223   2.107   3.801
 8630TIP3    H225855   4.100   2.066   3.723
 8631TIP3   OH225856   2.222   3.595   3.964
 8631TIP3    H125857   2.187   3.668   3.913
 8631TIP3    H225858   2.204   3.518   3.911
 8632TIP3   OH225859   5.914   5.094   0.481
 8632TIP3    H125860   5.901   5.020   0.421
 8632TIP3    H225861   5.870   5.167   0.439
 8633TIP3   OH225862   5.720   3.852   1.512
 8633TIP3    H125863   5.791   3.913   1.494
 8633TIP3    H225864   5.648   3.908   1.543
 8634TIP3   OH225865   6.481   4.654   0.753
 8634TIP3    H125866   6.428   4.592   0.803
 8634TIP3    H225867   6.464   4.632   0.662
 8635TIP3   OH225868   5.687   1.980   2.978
 8635TIP3    H125869   5.616   1.942   3.029
 8635TIP3    H225870   5.650   2.061   2.941
 8636TIP3   OH225871   0.784   4.983   5.544
 8636TIP3    H125872   0.749   5.056   5.595
 8636TIP3    H225873   0.710   4.923   5.534
 8637TIP3   OH225874   2.167   2.746   3.130
 8637TIP3    H125875   2.244   2.753   3.185
 8637TIP3    H225876   2.201   2.745   3.041
 8638TIP3   OH225877   1.867   0.619   1.380
 8638TIP3    H125878   1.805   0.545   1.381
 8638TIP3    H225879   1.881   0.639   1.472
 8639TIP3   OH225880   4.816   1.697   3.731
 8639TIP3    H125881   4.811   1.702   3.635
 8639TIP3    H225882   4.780   1.611   3.752
 8640TIP3   OH225883   5.466   2.743   2.835
 8640TIP3    H125884   5.531   2.809   2.811
 8640TIP3    H225885   5.434   2.709   2.751
 8641TIP3   OH225886   5.699   2.075   4.438
 8641TIP3    H125887   5.641   2.030   4.376
 8641TIP3    H225888   5.696   2.021   4.517
 8642TIP3   OH225889   0.334   3.399   4.936
 8642TIP3    H125890   0.327   3.374   4.844
 8642TIP3    H225891   0.310   3.491   4.938
 8643TIP3   OH225892   6.173   4.995   2.789
 8643TIP3    H125893   6.230   4.923   2.816
 8643TIP3    H225894   6.222   5.074   2.811
 8644TIP3   OH225895   4.741   5.545   3.505
 8644TIP3    H125896   4.810   5.558   3.570
 8644TIP3    H225897   4.722   5.451   3.510
 8645TIP3   OH225898   0.272   3.553   4.263
 8645TIP3    H125899   0.315   3.551   4.177
 8645TIP3    H225900   0.206   3.621   4.255
 8646TIP3   OH225901   3.802   0.573   4.420
 8646TIP3    H125902   3.759   0.571   4.334
 8646TIP3    H225903   3.889   0.537   4.404
 8647TIP3   OH225904   5.791   5.051   3.544
 8647TIP3    H125905   5.851   5.044   3.618
 8647TIP3    H225906   5.799   4.968   3.498
 8648TIP3   OH225907   1.193   5.845   5.511
 8648TIP3    H125908   1.228   5.853   5.600
 8648TIP3    H225909   1.251   5.782   5.468
 8649TIP3   OH225910   4.823   1.705   4.514
 8649TIP3    H125911   4.797   1.764   4.584
 8649TIP3    H225912   4.863   1.631   4.559
 8650TIP3   OH225913   5.117   5.230   2.424
 8650TIP3    H125914   5.024   5.214   2.441
 8650TIP3    H225915   5.122   5.247   2.330
 8651TIP3   OH225916   0.986   0.566   0.887
 8651TIP3    H125917   1.010   0.488   0.837
 8651TIP3    H225918   1.065   0.619   0.888
 8652TIP3   OH225919   5.624   6.736   4.854
 8652TIP3    H125920   5.531   6.737   4.830
 8652TIP3    H225921   5.662   6.812   4.809
 8653TIP3   OH225922   3.334   1.031   4.791
 8653TIP3    H125923   3.240   1.033   4.813
 8653TIP3    H225924   3.337   0.998   4.701
 8654TIP3   OH225925   4.967   1.674   1.409
 8654TIP3    H125926   4.900   1.605   1.409
 8654TIP3    H225927   5.039   1.637   1.459
 8655TIP3   OH225928   4.386   5.278   2.371
 8655TIP3    H125929   4.452   5.306   2.307
 8655TIP3    H225930   4.338   5.208   2.327
 8656TIP3   OH225931   2.556   3.822   1.498
 8656TIP3    H125932   2.493   3.882   1.539
 8656TIP3    H225933   2.517   3.800   1.413
 8657TIP3   OH225934   2.546   1.447   4.539
 8657TIP3    H125935   2.576   1.412   4.455
 8657TIP3    H225936   2.627   1.469   4.586
 8658TIP3   OH225937   3.267   0.663   5.682
 8658TIP3    H125938   3.225   0.660   5.769
 8658TIP3    H225939   3.210   0.719   5.630
 8659TIP3   OH225940   1.998   3.701   5.620
 8659TIP3    H125941   2.045   3.621   5.596
 8659TIP3    H225942   1.917   3.696   5.570
 8660TIP3   OH225943   6.870   0.831   1.761
 8660TIP3    H125944   6.925   0.815   1.685
 8660TIP3    H225945   6.808   0.758   1.763
 8661TIP3   OH225946   5.454   1.622   4.088
 8661TIP3    H125947   5.461   1.527   4.097
 8661TIP3    H225948   5.536   1.656   4.123
 8662TIP3   OH225949   1.491   6.721   1.784
 8662TIP3    H125950   1.405   6.703   1.824
 8662TIP3    H225951   1.513   6.809   1.814
 8663TIP3   OH225952   0.233   0.796   5.632
 8663TIP3    H125953   0.277   0.714   5.655
 8663TIP3    H225954   0.155   0.768   5.583
 8664TIP3   OH225955   3.315   2.378   2.290
 8664TIP3    H125956   3.404   2.413   2.290
 8664TIP3    H225957   3.260   2.454   2.270
 8665TIP3   OH225958   5.450   1.362   3.763
 8665TIP3    H125959   5.393   1.378   3.838
 8665TIP3    H225960   5.392   1.328   3.695
 8666TIP3   OH225961   4.234   1.284   0.230
 8666TIP3    H125962   4.187   1.366   0.212
 8666TIP3    H225963   4.216   1.266   0.322
 8667TIP3   OH225964   0.080   4.830   0.113
 8667TIP3    H125965   0.030   4.817   0.194
 8667TIP3    H225966   0.026   4.889   0.060
 8668TIP3   OH225967   6.691   1.692   5.126
 8668TIP3    H125968   6.709   1.770   5.180
 8668TIP3    H225969   6.709   1.618   5.185
 8669TIP3   OH225970   0.195   4.790   4.253
 8669TIP3    H125971   0.119   4.732   4.263
 8669TIP3    H225972   0.159   4.869   4.212
 8670TIP3   OH225973   7.105   0.355   0.189
 8670TIP3    H125974   7.066   0.349   0.101
 8670TIP3    H225975   7.039   0.319   0.247
 8671TIP3   OH225976   4.299   1.758   4.413
 8671TIP3    H125977   4.371   1.707   4.375
 8671TIP3    H225978   4.308   1.845   4.373
 8672TIP3   OH225979   2.761   6.632   4.162
 8672TIP3    H125980   2.780   6.653   4.071
 8672TIP3    H225981   2.847   6.629   4.204
 8673TIP3   OH225982   1.040   0.248   3.859
 8673TIP3    H125983   1.074   0.161   3.837
 8673TIP3    H225984   0.975   0.232   3.927
 8674TIP3   OH225985   6.304   0.651   3.233
 8674TIP3    H125986   6.342   0.713   3.296
 8674TIP3    H225987   6.341   0.676   3.149
 8675TIP3   OH225988   3.207   2.106   5.891
 8675TIP3    H125989   3.281   2.118   5.833
 8675TIP3    H225990   3.170   2.194   5.901
 8676TIP3   OH225991   0.538   3.806   4.187
 8676TIP3    H125992   0.509   3.771   4.271
 8676TIP3    H225993   0.552   3.729   4.133
 8677TIP3   OH225994   0.670   2.590   4.894
 8677TIP3    H125995   0.758   2.590   4.855
 8677TIP3    H225996   0.612   2.563   4.823
 8678TIP3   OH225997   2.286   4.047   3.443
 8678TIP3    H125998   2.194   4.033   3.421
 8678TIP3    H225999   2.293   4.141   3.459
 8679TIP3   OH226000   1.896   2.615   4.110
 8679TIP3    H126001   1.933   2.638   4.195
 8679TIP3    H226002   1.969   2.623   4.049
 8680TIP3   OH226003   4.611   4.844   1.439
 8680TIP3    H126004   4.632   4.926   1.394
 8680TIP3    H226005   4.679   4.834   1.505
 8681TIP3   OH226006   6.249   4.533   4.073
 8681TIP3    H126007   6.188   4.583   4.018
 8681TIP3    H226008   6.281   4.464   4.016
 8682TIP3   OH226009   1.606   5.100   5.812
 8682TIP3    H126010   1.617   5.163   5.884
 8682TIP3    H226011   1.520   5.060   5.828
 8683TIP3   OH226012   0.676   1.368   1.490
 8683TIP3    H126013   0.632   1.438   1.442
 8683TIP3    H226014   0.651   1.380   1.581
 8684TIP3   OH226015   2.134   1.560   0.940
 8684TIP3    H126016   2.167   1.552   0.851
 8684TIP3    H226017   2.169   1.484   0.986
 8685TIP3   OH226018   5.637   4.258   1.772
 8685TIP3    H126019   5.668   4.237   1.684
 8685TIP3    H226020   5.543   4.242   1.768
 8686TIP3   OH226021   0.981   4.995   4.891
 8686TIP3    H126022   1.044   5.020   4.959
 8686TIP3    H226023   0.920   4.936   4.935
 8687TIP3   OH226024   5.034   2.970   1.633
 8687TIP3    H126025   5.056   2.973   1.540
 8687TIP3    H226026   5.119   2.965   1.678
 8688TIP3   OH226027   1.083   0.302   5.313
 8688TIP3    H126028   1.016   0.357   5.271
 8688TIP3    H226029   1.088   0.224   5.258
 8689TIP3   OH226030   6.243   4.721   1.932
 8689TIP3    H126031   6.313   4.758   1.986
 8689TIP3    H226032   6.259   4.757   1.845
 8690TIP3   OH226033   5.382   6.277   2.176
 8690TIP3    H126034   5.387   6.218   2.100
 8690TIP3    H226035   5.345   6.223   2.245
 8691TIP3   OH226036   2.292   0.521   5.788
 8691TIP3    H126037   2.319   0.516   5.880
 8691TIP3    H226038   2.329   0.442   5.748
 8692TIP3   OH226039   2.525   5.182   0.151
 8692TIP3    H126040   2.455   5.194   0.088
 8692TIP3    H226041   2.507   5.096   0.191
 8693TIP3   OH226042   4.287   4.967   3.499
 8693TIP3    H126043   4.206   5.011   3.475
 8693TIP3    H226044   4.340   4.966   3.419
 8694TIP3   OH226045   2.102   5.772   2.665
 8694TIP3    H126046   2.124   5.866   2.669
 8694TIP3    H226047   2.077   5.757   2.574
 8695TIP3   OH226048   1.179   5.772   2.913
 8695TIP3    H126049   1.117   5.756   2.984
 8695TIP3    H226050   1.264   5.746   2.949
 8696TIP3   OH226051   4.469   5.885   2.677
 8696TIP3    H126052   4.382   5.849   2.696
 8696TIP3    H226053   4.524   5.808   2.662
 8697TIP3   OH226054   4.326   0.037   2.078
 8697TIP3    H126055   4.346   0.104   2.012
 8697TIP3    H226056   4.235   0.012   2.059
 8698TIP3   OH226057   6.390   2.904   5.122
 8698TIP3    H126058   6.303   2.864   5.122
 8698TIP3    H226059   6.377   2.990   5.082
 8699TIP3   OH226060   3.827   3.907   2.608
 8699TIP3    H126061   3.732   3.897   2.606
 8699TIP3    H226062   3.861   3.819   2.592
 8700TIP3   OH226063   3.918   5.844   2.429
 8700TIP3    H126064   3.825   5.837   2.404
 8700TIP3    H226065   3.964   5.849   2.346
 8701TIP3   OH226066   2.183   3.200   1.186
 8701TIP3    H126067   2.198   3.115   1.145
 8701TIP3    H226068   2.267   3.245   1.179
 8702TIP3   OH226069   6.699   1.902   0.756
 8702TIP3    H126070   6.759   1.960   0.803
 8702TIP3    H226071   6.754   1.831   0.723
 8703TIP3   OH226072   0.783   2.209   1.104
 8703TIP3    H126073   0.860   2.242   1.150
 8703TIP3    H226074   0.816   2.186   1.017
 8704TIP3   OH226075   1.039   6.313   3.168
 8704TIP3    H126076   1.042   6.374   3.242
 8704TIP3    H226077   0.947   6.289   3.161
 8705TIP3   OH226078   3.057   4.003   1.524
 8705TIP3    H126079   3.098   4.004   1.438
 8705TIP3    H226080   3.123   4.043   1.582
 8706TIP3   OH226081   1.170   3.350   4.331
 8706TIP3    H126082   1.111   3.419   4.302
 8706TIP3    H226083   1.166   3.353   4.427
 8707TIP3   OH226084   3.819   2.422   4.375
 8707TIP3    H126085   3.737   2.387   4.339
 8707TIP3    H226086   3.793   2.468   4.454
 8708TIP3   OH226087   2.076   6.308   5.171
 8708TIP3    H126088   2.122   6.329   5.252
 8708TIP3    H226089   1.988   6.283   5.199
 8709TIP3   OH226090   1.860   2.896   2.781
 8709TIP3    H126091   1.856   2.812   2.827
 8709TIP3    H226092   1.948   2.900   2.745
 8710TIP3   OH226093   4.130   0.037   3.534
 8710TIP3    H126094   4.188   0.097   3.486
 8710TIP3    H226095   4.172  -0.049   3.525
 8711TIP3   OH226096   2.968   3.625   3.234
 8711TIP3    H126097   3.028   3.659   3.168
 8711TIP3    H226098   2.902   3.693   3.244
 8712TIP3   OH226099   0.442   6.014   4.833
 8712TIP3    H126100   0.482   6.100   4.835
 8712TIP3    H226101   0.495   5.961   4.893
 8713TIP3   OH226102   4.691   2.680   3.699
 8713TIP3    H126103   4.610   2.629   3.697
 8713TIP3    H226104   4.710   2.699   3.607
 8714TIP3   OH226105   3.727   3.854   3.520
 8714TIP3    H126106   3.773   3.900   3.450
 8714TIP3    H226107   3.646   3.904   3.533
 8715TIP3   OH226108   2.603   0.046   1.912
 8715TIP3    H126109   2.648   0.127   1.887
 8715TIP3    H226110   2.634  -0.019   1.849
 8716TIP3   OH226111   2.470   3.867   0.964
 8716TIP3    H126112   2.456   3.794   0.904
 8716TIP3    H226113   2.416   3.938   0.929
 8717TIP3   OH226114   1.115   4.296   5.016
 8717TIP3    H126115   1.087   4.342   5.096
 8717TIP3    H226116   1.033   4.269   4.974
 8718TIP3   OH226117   6.879   5.576   5.703
 8718TIP3    H126118   6.956   5.531   5.669
 8718TIP3    H226119   6.887   5.666   5.671
 8719TIP3   OH226120   0.720   4.935   0.368
 8719TIP3    H126121   0.687   4.936   0.457
 8719TIP3    H226122   0.669   5.001   0.322
 8720TIP3   OH226123   2.498   6.630   3.488
 8720TIP3    H126124   2.488   6.567   3.559
 8720TIP3    H226125   2.409   6.653   3.463
 8721TIP3   OH226126   4.844   1.893   5.201
 8721TIP3    H126127   4.785   1.820   5.180
 8721TIP3    H226128   4.909   1.856   5.261
 8722TIP3   OH226129   0.219   1.150   2.322
 8722TIP3    H126130   0.150   1.089   2.348
 8722TIP3    H226131   0.173   1.225   2.285
 8723TIP3   OH226132   3.872   3.244   3.753
 8723TIP3    H126133   3.874   3.151   3.775
 8723TIP3    H226134   3.805   3.250   3.684
 8724TIP3   OH226135   6.982   5.845   4.688
 8724TIP3    H126136   7.042   5.857   4.615
 8724TIP3    H226137   6.978   5.750   4.699
 8725TIP3   OH226138   0.657   4.318   3.477
 8725TIP3    H126139   0.603   4.366   3.541
 8725TIP3    H226140   0.744   4.316   3.516
 8726TIP3   OH226141   2.103   6.440   0.898
 8726TIP3    H126142   2.177   6.380   0.898
 8726TIP3    H226143   2.028   6.385   0.924
 8727TIP3   OH226144   5.240   4.097   2.730
 8727TIP3    H126145   5.174   4.028   2.724
 8727TIP3    H226146   5.259   4.104   2.823
 8728TIP3   OH226147   0.479   4.479   4.940
 8728TIP3    H126148   0.515   4.390   4.937
 8728TIP3    H226149   0.391   4.468   4.975
 8729TIP3   OH226150   7.081   2.375   4.359
 8729TIP3    H126151   7.021   2.421   4.417
 8729TIP3    H226152   7.049   2.395   4.271
 8730TIP3   OH226153   3.741   3.409   1.928
 8730TIP3    H126154   3.675   3.341   1.941
 8730TIP3    H226155   3.823   3.368   1.956
 8731TIP3   OH226156   2.115   5.429   1.425
 8731TIP3    H126157   2.122   5.333   1.421
 8731TIP3    H226158   2.024   5.446   1.450
 8732TIP3   OH226159   4.058   2.421   2.584
 8732TIP3    H126160   4.117   2.497   2.589
 8732TIP3    H226161   4.097   2.366   2.517
 8733TIP3   OH226162   6.162   2.363   4.787
 8733TIP3    H126163   6.089   2.415   4.819
 8733TIP3    H226164   6.196   2.319   4.865
 8734TIP3   OH226165   0.163   4.265   5.403
 8734TIP3    H126166   0.087   4.283   5.459
 8734TIP3    H226167   0.191   4.177   5.428
 8735TIP3   OH226168   0.568   0.041   4.776
 8735TIP3    H126169   0.585   0.130   4.746
 8735TIP3    H226170   0.489   0.048   4.829
 8736TIP3   OH226171   4.629   2.295   1.255
 8736TIP3    H126172   4.616   2.245   1.175
 8736TIP3    H226173   4.712   2.261   1.290
 8737TIP3   OH226174   0.640   0.898   1.614
 8737TIP3    H126175   0.679   0.954   1.547
 8737TIP3    H226176   0.697   0.821   1.616
 8738TIP3   OH226177   4.480   2.385   2.505
 8738TIP3    H126178   4.500   2.396   2.598
 8738TIP3    H226179   4.561   2.407   2.460
 8739TIP3   OH226180   5.010   6.437   1.409
 8739TIP3    H126181   5.080   6.417   1.472
 8739TIP3    H226182   5.048   6.414   1.324
 8740TIP3   OH226183   2.537   3.504   3.272
 8740TIP3    H126184   2.570   3.543   3.353
 8740TIP3    H226185   2.616   3.478   3.225
 8741TIP3   OH226186   0.374   5.758   4.042
 8741TIP3    H126187   0.376   5.838   4.094
 8741TIP3    H226188   0.465   5.730   4.037
 8742TIP3   OH226189   5.168   3.640   3.145
 8742TIP3    H126190   5.121   3.584   3.207
 8742TIP3    H226191   5.250   3.661   3.190
 8743TIP3   OH226192   3.177   0.298   2.456
 8743TIP3    H126193   3.267   0.294   2.425
 8743TIP3    H226194   3.128   0.337   2.383
 8744TIP3   OH226195   4.720   5.398   3.943
 8744TIP3    H126196   4.719   5.474   3.885
 8744TIP3    H226197   4.684   5.430   4.026
 8745TIP3   OH226198   1.923   4.549   3.340
 8745TIP3    H126199   1.848   4.503   3.302
 8745TIP3    H226200   1.993   4.540   3.275
 8746TIP3   OH226201   3.790   2.259   3.835
 8746TIP3    H126202   3.809   2.333   3.892
 8746TIP3    H226203   3.849   2.271   3.760
 8747TIP3   OH226204   1.426   2.509   1.308
 8747TIP3    H126205   1.498   2.506   1.245
 8747TIP3    H226206   1.429   2.599   1.343
 8748TIP3   OH226207   2.815   4.924   0.822
 8748TIP3    H126208   2.724   4.951   0.812
 8748TIP3    H226209   2.813   4.860   0.893
 8749TIP3   OH226210   3.378   3.940   1.105
 8749TIP3    H126211   3.409   3.850   1.111
 8749TIP3    H226212   3.450   3.987   1.064
 8750TIP3   OH226213   6.391   4.539   2.436
 8750TIP3    H126214   6.299   4.554   2.456
 8750TIP3    H226215   6.423   4.486   2.509
 8751TIP3   OH226216   1.706   5.772   3.776
 8751TIP3    H126217   1.687   5.769   3.682
 8751TIP3    H226218   1.763   5.848   3.787
 8752TIP3   OH226219   1.256   3.976   1.436
 8752TIP3    H126220   1.239   4.047   1.498
 8752TIP3    H226221   1.329   3.928   1.475
 8753TIP3   OH226222   6.552   2.621   2.475
 8753TIP3    H126223   6.618   2.690   2.483
 8753TIP3    H226224   6.494   2.636   2.550
 8754TIP3   OH226225   7.009   6.352   5.676
 8754TIP3    H126226   7.066   6.419   5.713
 8754TIP3    H226227   7.054   6.324   5.596
 8755TIP3   OH226228   5.989   1.104   4.707
 8755TIP3    H126229   6.008   1.149   4.625
 8755TIP3    H226230   5.894   1.106   4.714
 8756TIP3   OH226231   2.457   6.279   0.686
 8756TIP3    H126232   2.509   6.227   0.625
 8756TIP3    H226233   2.378   6.227   0.700
 8757TIP3   OH226234   0.164   6.147   3.715
 8757TIP3    H126235   0.128   6.065   3.747
 8757TIP3    H226236   0.258   6.140   3.732
 8758TIP3   OH226237   1.718   5.836   2.745
 8758TIP3    H126238   1.631   5.862   2.775
 8758TIP3    H226239   1.727   5.878   2.659
 8759TIP3   OH226240   1.011   1.372   3.509
 8759TIP3    H126241   1.033   1.381   3.417
 8759TIP3    H226242   0.971   1.285   3.517
 8760TIP3   OH226243   2.003   1.013   5.024
 8760TIP3    H126244   1.941   1.029   5.095
 8760TIP3    H226245   1.993   1.087   4.965
 8761TIP3   OH226246   0.169   3.503   1.710
 8761TIP3    H126247   0.192   3.411   1.697
 8761TIP3    H226248   0.091   3.516   1.656
 8762TIP3   OH226249   0.475   0.441   5.836
 8762TIP3    H126250   0.530   0.442   5.914
 8762TIP3    H226251   0.463   0.348   5.816
 8763TIP3   OH226252   6.059   4.261   4.656
 8763TIP3    H126253   6.131   4.319   4.631
 8763TIP3    H226254   5.984   4.294   4.607
 8764TIP3   OH226255   7.146   2.271   2.577
 8764TIP3    H126256   7.214   2.336   2.593
 8764TIP3    H226257   7.170   2.231   2.494
 8765TIP3   OH226258   6.210   0.242   4.763
 8765TIP3    H126259   6.280   0.180   4.741
 8765TIP3    H226260   6.202   0.236   4.858
 8766TIP3   OH226261   6.846   6.767   5.473
 8766TIP3    H126262   6.791   6.734   5.402
 8766TIP3    H226263   6.872   6.855   5.445
 8767TIP3   OH226264   1.075   6.783   2.667
 8767TIP3    H126265   1.110   6.805   2.581
 8767TIP3    H226266   1.049   6.691   2.659
 8768TIP3   OH226267   0.106   0.133   1.945
 8768TIP3    H126268   0.142   0.088   1.869
 8768TIP3    H226269   0.107   0.067   2.015
 8769TIP3   OH226270   4.357   2.575   1.659
 8769TIP3    H126271   4.314   2.537   1.736
 8769TIP3    H226272   4.448   2.546   1.665
 8770TIP3   OH226273   2.592   3.372   1.248
 8770TIP3    H126274   2.511   3.422   1.255
 8770TIP3    H226275   2.600   3.328   1.332
 8771TIP3   OH226276   3.982   3.270   4.647
 8771TIP3    H126277   4.008   3.178   4.647
 8771TIP3    H226278   3.890   3.269   4.674
 8772TIP3   OH226279   4.702   1.204   0.506
 8772TIP3    H126280   4.693   1.109   0.502
 8772TIP3    H226281   4.789   1.221   0.469
 8773TIP3   OH226282   4.825   3.543   0.870
 8773TIP3    H126283   4.858   3.538   0.780
 8773TIP3    H226284   4.832   3.636   0.893
 8774TIP3   OH226285   2.814   0.010   0.144
 8774TIP3    H126286   2.832  -0.026   0.231
 8774TIP3    H226287   2.879  -0.030   0.087
 8775TIP3   OH226288   6.870   2.024   1.677
 8775TIP3    H126289   6.938   2.010   1.744
 8775TIP3    H226290   6.791   1.987   1.715
 8776TIP3   OH226291   0.610   6.219   5.135
 8776TIP3    H126292   0.658   6.138   5.152
 8776TIP3    H226293   0.543   6.221   5.204
 8777TIP3   OH226294   2.296   5.796   1.718
 8777TIP3    H126295   2.359   5.868   1.714
 8777TIP3    H226296   2.251   5.809   1.801
 8778TIP3   OH226297   1.495   2.783   1.344
 8778TIP3    H126298   1.586   2.782   1.373
 8778TIP3    H226299   1.485   2.867   1.299
 8779TIP3   OH226300   3.177   1.455   4.369
 8779TIP3    H126301   3.127   1.374   4.378
 8779TIP3    H226302   3.231   1.442   4.291
 8780TIP3   OH226303   6.594   1.895   3.000
 8780TIP3    H126304   6.626   1.985   2.994
 8780TIP3    H226305   6.605   1.859   2.912
 8781TIP3   OH226306   2.055   4.737   4.327
 8781TIP3    H126307   2.010   4.791   4.393
 8781TIP3    H226308   2.143   4.725   4.363
 8782TIP3   OH226309   2.758   5.101   0.024
 8782TIP3    H126310   2.687   5.158   0.052
 8782TIP3    H226311   2.750   5.096  -0.071
 8783TIP3   OH226312   2.514   4.724   3.351
 8783TIP3    H126313   2.436   4.766   3.315
 8783TIP3    H226314   2.493   4.630   3.351
 8784TIP3   OH226315   7.125   3.552   1.332
 8784TIP3    H126316   7.032   3.528   1.324
 8784TIP3    H226317   7.166   3.474   1.369
 8785TIP3   OH226318   0.457   6.037   3.509
 8785TIP3    H126319   0.491   6.086   3.583
 8785TIP3    H226320   0.467   5.945   3.535
 8786TIP3   OH226321   4.561   1.282   3.318
 8786TIP3    H126322   4.525   1.296   3.405
 8786TIP3    H226323   4.645   1.239   3.333
 8787TIP3   OH226324   1.682   2.901   0.578
 8787TIP3    H126325   1.662   2.878   0.488
 8787TIP3    H226326   1.596   2.906   0.621
 8788TIP3   OH226327   1.405   4.383   1.438
 8788TIP3    H126328   1.434   4.473   1.452
 8788TIP3    H226329   1.481   4.340   1.398
 8789TIP3   OH226330   1.648   0.441   1.282
 8789TIP3    H126331   1.677   0.487   1.204
 8789TIP3    H226332   1.561   0.478   1.301
 8790TIP3   OH226333   0.414   5.295   4.391
 8790TIP3    H126334   0.319   5.299   4.397
 8790TIP3    H226335   0.444   5.382   4.415
 8791TIP3   OH226336   1.703   5.007   0.292
 8791TIP3    H126337   1.752   5.088   0.309
 8791TIP3    H226338   1.727   4.983   0.203
 8792TIP3   OH226339   5.495   5.568   1.377
 8792TIP3    H126340   5.483   5.663   1.368
 8792TIP3    H226341   5.528   5.556   1.466
 8793TIP3   OH226342   5.540   3.559   5.578
 8793TIP3    H126343   5.577   3.603   5.655
 8793TIP3    H226344   5.446   3.554   5.596
 8794TIP3   OH226345   1.330   1.469   1.432
 8794TIP3    H126346   1.381   1.441   1.355
 8794TIP3    H226347   1.390   1.526   1.480
 8795TIP3   OH226348   6.373   3.912   0.771
 8795TIP3    H126349   6.287   3.869   0.770
 8795TIP3    H226350   6.352   4.005   0.782
 8796TIP3   OH226351   2.492   4.439   4.340
 8796TIP3    H126352   2.507   4.529   4.311
 8796TIP3    H226353   2.426   4.405   4.279
 8797TIP3   OH226354   3.795   0.109   4.909
 8797TIP3    H126355   3.854   0.038   4.881
 8797TIP3    H226356   3.725   0.109   4.843
 8798TIP3   OH226357   2.185   0.081   2.508
 8798TIP3    H126358   2.181   0.160   2.562
 8798TIP3    H226359   2.103   0.082   2.458
 8799TIP3   OH226360   4.434   1.569   1.752
 8799TIP3    H126361   4.345   1.535   1.762
 8799TIP3    H226362   4.486   1.493   1.728
 8800TIP3   OH226363   4.427   6.284   1.498
 8800TIP3    H126364   4.453   6.216   1.435
 8800TIP3    H226365   4.344   6.253   1.534
 8801TIP3   OH226366   4.106   0.170   2.537
 8801TIP3    H126367   4.021   0.147   2.500
 8801TIP3    H226368   4.090   0.180   2.631
 8802TIP3   OH226369   5.496   5.782   1.816
 8802TIP3    H126370   5.495   5.690   1.788
 8802TIP3    H226371   5.474   5.780   1.909
 8803TIP3   OH226372   0.277   4.900   1.661
 8803TIP3    H126373   0.340   4.910   1.732
 8803TIP3    H226374   0.326   4.859   1.590
 8804TIP3   OH226375   0.914   2.712   0.444
 8804TIP3    H126376   0.898   2.776   0.374
 8804TIP3    H226377   0.940   2.765   0.519
 8805TIP3   OH226378   5.050   3.460   1.493
 8805TIP3    H126379   5.090   3.544   1.469
 8805TIP3    H226380   5.087   3.397   1.432
 8806TIP3   OH226381   4.444   2.346   1.460
 8806TIP3    H126382   4.491   2.398   1.526
 8806TIP3    H226383   4.508   2.333   1.391
 8807TIP3   OH226384   6.634   0.243   0.708
 8807TIP3    H126385   6.645   0.148   0.707
 8807TIP3    H226386   6.722   0.278   0.696
 8808TIP3   OH226387   5.640   5.552   3.577
 8808TIP3    H126388   5.672   5.632   3.535
 8808TIP3    H226389   5.554   5.538   3.538
 8809TIP3   OH226390   2.361   3.475   5.858
 8809TIP3    H126391   2.361   3.471   5.762
 8809TIP3    H226392   2.290   3.534   5.880
 8810TIP3   OH226393   0.747   0.506   4.123
 8810TIP3    H126394   0.730   0.595   4.154
 8810TIP3    H226395   0.838   0.489   4.149
 8811TIP3   OH226396   4.483   3.811   3.636
 8811TIP3    H126397   4.402   3.862   3.648
 8811TIP3    H226398   4.453   3.725   3.606
 8812TIP3   OH226399   2.455   0.692   0.162
 8812TIP3    H126400   2.421   0.758   0.102
 8812TIP3    H226401   2.513   0.639   0.108
 8813TIP3   OH226402   5.930   1.474   0.902
 8813TIP3    H126403   5.854   1.525   0.930
 8813TIP3    H226404   5.934   1.486   0.807
 8814TIP3   OH226405   0.282   1.328   1.933
 8814TIP3    H126406   0.258   1.236   1.921
 8814TIP3    H226407   0.286   1.364   1.844
 8815TIP3   OH226408   0.327   0.181   3.259
 8815TIP3    H126409   0.343   0.275   3.259
 8815TIP3    H226410   0.404   0.144   3.215
 8816TIP3   OH226411   1.359   1.240   2.641
 8816TIP3    H126412   1.421   1.201   2.579
 8816TIP3    H226413   1.277   1.246   2.591
 8817TIP3   OH226414   1.413   5.242   0.774
 8817TIP3    H126415   1.474   5.240   0.847
 8817TIP3    H226416   1.465   5.214   0.698
 8818TIP3   OH226417   0.481   5.657   4.630
 8818TIP3    H126418   0.435   5.722   4.684
 8818TIP3    H226419   0.463   5.573   4.672
 8819TIP3   OH226420   1.265   5.016   2.409
 8819TIP3    H126421   1.188   5.064   2.380
 8819TIP3    H226422   1.311   4.994   2.328
 8820TIP3   OH226423   5.466   5.562   5.221
 8820TIP3    H126424   5.440   5.471   5.238
 8820TIP3    H226425   5.561   5.562   5.230
 8821TIP3   OH226426   5.482   0.847   3.986
 8821TIP3    H126427   5.521   0.763   3.963
 8821TIP3    H226428   5.526   0.911   3.931
 8822TIP3   OH226429   6.379   5.777   5.314
 8822TIP3    H126430   6.457   5.820   5.350
 8822TIP3    H226431   6.355   5.831   5.239
 8823TIP3   OH226432   7.137   1.735   5.484
 8823TIP3    H126433   7.213   1.792   5.479
 8823TIP3    H226434   7.157   1.674   5.555
 8824TIP3   OH226435   2.640   0.867   0.313
 8824TIP3    H126436   2.615   0.827   0.230
 8824TIP3    H226437   2.733   0.887   0.302
 8825TIP3   OH226438   2.205   6.688   1.045
 8825TIP3    H126439   2.135   6.683   0.980
 8825TIP3    H226440   2.207   6.602   1.085
 8826TIP3   OH226441   2.737   3.876   0.894
 8826TIP3    H126442   2.742   3.809   0.962
 8826TIP3    H226443   2.645   3.902   0.892
 8827TIP3   OH226444   0.237   4.097   5.132
 8827TIP3    H126445   0.204   4.155   5.202
 8827TIP3    H226446   0.238   4.010   5.171
 8828TIP3   OH226447   2.075   4.415   3.790
 8828TIP3    H126448   1.987   4.452   3.798
 8828TIP3    H226449   2.067   4.348   3.722
 8829TIP3   OH226450   2.553   5.270   2.760
 8829TIP3    H126451   2.492   5.213   2.714
 8829TIP3    H226452   2.516   5.358   2.749
 8830TIP3   OH226453   5.759   1.933   2.244
 8830TIP3    H126454   5.778   1.862   2.305
 8830TIP3    H226455   5.843   1.954   2.205
 8831TIP3   OH226456   7.010   6.590   2.340
 8831TIP3    H126457   7.000   6.522   2.274
 8831TIP3    H226458   7.001   6.544   2.423
 8832TIP3   OH226459   3.523   0.767   0.782
 8832TIP3    H126460   3.536   0.767   0.877
 8832TIP3    H226461   3.532   0.675   0.757
 8833TIP3   OH226462   5.133   5.022   3.778
 8833TIP3    H126463   5.226   5.000   3.771
 8833TIP3    H226464   5.126   5.067   3.862
 8834TIP3   OH226465   2.941   1.039   1.075
 8834TIP3    H126466   2.884   1.002   1.142
 8834TIP3    H226467   2.958   0.966   1.015
 8835TIP3   OH226468   3.523   3.572   1.323
 8835TIP3    H126469   3.532   3.477   1.329
 8835TIP3    H226470   3.555   3.605   1.407
 8836TIP3   OH226471   1.133   0.251   1.609
 8836TIP3    H126472   1.170   0.223   1.525
 8836TIP3    H226473   1.053   0.200   1.619
 8837TIP3   OH226474   1.370   4.789   4.832
 8837TIP3    H126475   1.302   4.726   4.806
 8837TIP3    H226476   1.447   4.735   4.848
 8838TIP3   OH226477   5.817   4.269   4.834
 8838TIP3    H126478   5.881   4.257   4.763
 8838TIP3    H226479   5.743   4.213   4.809
 8839TIP3   OH226480   1.288   6.230   3.057
 8839TIP3    H126481   1.205   6.261   3.092
 8839TIP3    H226482   1.264   6.164   2.992
 8840TIP3   OH226483   3.651   5.831   0.379
 8840TIP3    H126484   3.743   5.848   0.357
 8840TIP3    H226485   3.602   5.891   0.323
 8841TIP3   OH226486   1.150   3.863   3.847
 8841TIP3    H126487   1.115   3.805   3.780
 8841TIP3    H226488   1.107   3.836   3.928
 8842TIP3   OH226489   4.691   3.815   4.870
 8842TIP3    H126490   4.770   3.866   4.885
 8842TIP3    H226491   4.629   3.847   4.935
 8843TIP3   OH226492   1.110   2.892   3.268
 8843TIP3    H126493   1.180   2.901   3.203
 8843TIP3    H226494   1.033   2.930   3.225
 8844TIP3   OH226495   3.171   2.312   5.191
 8844TIP3    H126496   3.160   2.259   5.270
 8844TIP3    H226497   3.128   2.395   5.212
 8845TIP3   OH226498   2.501   2.888   4.825
 8845TIP3    H126499   2.542   2.837   4.755
 8845TIP3    H226500   2.575   2.929   4.870
 8846TIP3   OH226501   3.329   0.709   1.246
 8846TIP3    H126502   3.381   0.789   1.236
 8846TIP3    H226503   3.239   0.738   1.234
 8847TIP3   OH226504   5.398   5.113   2.747
 8847TIP3    H126505   5.421   5.141   2.835
 8847TIP3    H226506   5.481   5.094   2.705
 8848TIP3   OH226507   0.201   0.391   4.860
 8848TIP3    H126508   0.243   0.464   4.814
 8848TIP3    H226509   0.188   0.325   4.793
 8849TIP3   OH226510   1.729   5.295   0.289
 8849TIP3    H126511   1.778   5.352   0.229
 8849TIP3    H226512   1.661   5.256   0.235
 8850TIP3   OH226513   0.212   4.302   4.671
 8850TIP3    H126514   0.152   4.374   4.690
 8850TIP3    H226515   0.165   4.223   4.698
 8851TIP3   OH226516   2.086   5.051   1.983
 8851TIP3    H126517   2.156   5.080   2.042
 8851TIP3    H226518   2.112   5.085   1.898
 8852TIP3   OH226519   3.469   6.116   3.895
 8852TIP3    H126520   3.407   6.113   3.822
 8852TIP3    H226521   3.546   6.068   3.864
 8853TIP3   OH226522   2.470   6.695   3.145
 8853TIP3    H126523   2.545   6.754   3.149
 8853TIP3    H226524   2.412   6.727   3.215
 8854TIP3   OH226525   0.498   6.240   3.336
 8854TIP3    H126526   0.456   6.203   3.259
 8854TIP3    H226527   0.472   6.183   3.408
 8855TIP3   OH226528   1.708   5.417   2.001
 8855TIP3    H126529   1.720   5.346   2.063
 8855TIP3    H226530   1.723   5.497   2.052
 8856TIP3   OH226531   1.125   3.741   4.128
 8856TIP3    H126532   1.195   3.699   4.078
 8856TIP3    H226533   1.093   3.673   4.188
 8857TIP3   OH226534   0.376   0.764   3.785
 8857TIP3    H126535   0.325   0.687   3.758
 8857TIP3    H226536   0.322   0.839   3.759
 8858TIP3   OH226537   3.943   5.794   1.740
 8858TIP3    H126538   3.881   5.867   1.736
 8858TIP3    H226539   4.020   5.830   1.785
 8859TIP3   OH226540   3.058   2.870   0.255
 8859TIP3    H126541   3.038   2.964   0.258
 8859TIP3    H226542   2.998   2.831   0.319
 8860TIP3   OH226543   1.660   3.905   5.727
 8860TIP3    H126544   1.616   3.922   5.644
 8860TIP3    H226545   1.597   3.930   5.794
 8861TIP3   OH226546   3.267   6.250   2.086
 8861TIP3    H126547   3.186   6.259   2.137
 8861TIP3    H226548   3.238   6.220   2.000
 8862TIP3   OH226549   2.250   3.702   3.557
 8862TIP3    H126550   2.205   3.762   3.616
 8862TIP3    H226551   2.329   3.749   3.530
 8863TIP3   OH226552   3.565   1.368   4.112
 8863TIP3    H126553   3.621   1.325   4.048
 8863TIP3    H226554   3.621   1.378   4.190
 8864TIP3   OH226555   4.405   3.906   0.616
 8864TIP3    H126556   4.418   3.936   0.526
 8864TIP3    H226557   4.494   3.904   0.653
 8865TIP3   OH226558   5.630   4.862   1.923
 8865TIP3    H126559   5.652   4.938   1.977
 8865TIP3    H226560   5.561   4.893   1.865
 8866TIP3   OH226561   6.596   1.516   4.563
 8866TIP3    H126562   6.686   1.484   4.572
 8866TIP3    H226563   6.604   1.599   4.516
 8867TIP3   OH226564   1.139   2.241   5.473
 8867TIP3    H126565   1.074   2.295   5.428
 8867TIP3    H226566   1.112   2.151   5.457
 8868TIP3   OH226567   0.237   4.786   2.902
 8868TIP3    H126568   0.152   4.806   2.941
 8868TIP3    H226569   0.239   4.691   2.894
 8869TIP3   OH226570   5.493   3.886   4.852
 8869TIP3    H126571   5.421   3.931   4.896
 8869TIP3    H226572   5.459   3.798   4.836
 8870TIP3   OH226573   3.012   3.867   5.312
 8870TIP3    H126574   3.066   3.807   5.363
 8870TIP3    H226575   2.948   3.811   5.269
 8871TIP3   OH226576   2.395   6.061   5.753
 8871TIP3    H126577   2.385   6.115   5.674
 8871TIP3    H226578   2.340   6.105   5.818
 8872TIP3   OH226579   6.525   2.974   2.864
 8872TIP3    H126580   6.605   2.925   2.882
 8872TIP3    H226581   6.553   3.065   2.856
 8873TIP3   OH226582   5.018   0.143   2.711
 8873TIP3    H126583   5.085   0.204   2.680
 8873TIP3    H226584   5.027   0.067   2.654
 8874TIP3   OH226585   4.998   5.634   3.235
 8874TIP3    H126586   5.089   5.663   3.237
 8874TIP3    H226587   4.991   5.581   3.156
 8875TIP3   OH226588   0.852   1.667   5.083
 8875TIP3    H126589   0.930   1.661   5.028
 8875TIP3    H226590   0.828   1.576   5.100
 8876TIP3   OH226591   3.801   3.601   3.608
 8876TIP3    H126592   3.887   3.590   3.567
 8876TIP3    H226593   3.776   3.691   3.588
 8877TIP3   OH226594   2.769   4.291   2.735
 8877TIP3    H126595   2.766   4.227   2.664
 8877TIP3    H226596   2.702   4.261   2.797
 8878TIP3   OH226597   1.500   1.387   2.097
 8878TIP3    H126598   1.432   1.342   2.146
 8878TIP3    H226599   1.582   1.354   2.134
 8879TIP3   OH226600   0.533   0.253   1.371
 8879TIP3    H126601   0.580   0.289   1.446
 8879TIP3    H226602   0.441   0.259   1.395
 8880TIP3   OH226603   1.370   6.400   5.850
 8880TIP3    H126604   1.439   6.394   5.784
 8880TIP3    H226605   1.299   6.446   5.806
 8881TIP3   OH226606   2.597   2.484   4.930
 8881TIP3    H126607   2.605   2.531   4.847
 8881TIP3    H226608   2.607   2.392   4.905
 8882TIP3   OH226609   2.719   0.646   1.544
 8882TIP3    H126610   2.670   0.652   1.462
 8882TIP3    H226611   2.655   0.670   1.611
 8883TIP3   OH226612   3.178   4.583   0.549
 8883TIP3    H126613   3.121   4.658   0.535
 8883TIP3    H226614   3.119   4.512   0.573
 8884TIP3   OH226615   6.506   5.969   0.220
 8884TIP3    H126616   6.439   6.036   0.232
 8884TIP3    H226617   6.534   5.947   0.309
 8885TIP3   OH226618   5.648   0.419   0.931
 8885TIP3    H126619   5.671   0.335   0.969
 8885TIP3    H226620   5.572   0.448   0.982
 8886TIP3   OH226621   2.428   5.246   0.829
 8886TIP3    H126622   2.360   5.309   0.807
 8886TIP3    H226623   2.406   5.215   0.916
 8887TIP3   OH226624   3.980   2.994   2.568
 8887TIP3    H126625   3.917   2.949   2.624
 8887TIP3    H226626   3.927   3.057   2.519
 8888TIP3   OH226627   3.328   6.603   2.276
 8888TIP3    H126628   3.354   6.688   2.239
 8888TIP3    H226629   3.267   6.626   2.346
 8889TIP3   OH226630   6.780   0.536   1.086
 8889TIP3    H126631   6.688   0.539   1.060
 8889TIP3    H226632   6.791   0.450   1.125
 8890TIP3   OH226633   3.572   2.115   4.916
 8890TIP3    H126634   3.505   2.047   4.926
 8890TIP3    H226635   3.640   2.090   4.978
 8891TIP3   OH226636   2.726   4.544   4.661
 8891TIP3    H126637   2.770   4.482   4.719
 8891TIP3    H226638   2.637   4.509   4.652
 8892TIP3   OH226639   6.369   6.420   2.666
 8892TIP3    H126640   6.392   6.459   2.582
 8892TIP3    H226641   6.273   6.415   2.665
 8893TIP3   OH226642   1.540   2.078   5.828
 8893TIP3    H126643   1.563   2.124   5.747
 8893TIP3    H226644   1.535   1.986   5.803
 8894TIP3   OH226645   1.793   3.519   0.358
 8894TIP3    H126646   1.816   3.610   0.378
 8894TIP3    H226647   1.774   3.520   0.264
 8895TIP3   OH226648   6.260   5.558   1.604
 8895TIP3    H126649   6.306   5.487   1.648
 8895TIP3    H226650   6.307   5.637   1.629
 8896TIP3   OH226651   0.989   2.459   5.397
 8896TIP3    H126652   0.931   2.464   5.321
 8896TIP3    H226653   0.930   2.464   5.473
 8897TIP3   OH226654   1.661   5.363   4.364
 8897TIP3    H126655   1.739   5.375   4.310
 8897TIP3    H226656   1.661   5.438   4.423
 8898TIP3   OH226657   3.429   0.276   2.333
 8898TIP3    H126658   3.495   0.303   2.268
 8898TIP3    H226659   3.348   0.267   2.282
 8899TIP3   OH226660   3.346   0.834   3.100
 8899TIP3    H126661   3.441   0.824   3.110
 8899TIP3    H226662   3.335   0.920   3.061
 8900TIP3   OH226663   0.528   4.960   4.548
 8900TIP3    H126664   0.597   5.024   4.567
 8900TIP3    H226665   0.447   5.005   4.572
 8901TIP3   OH226666   1.604   2.329   2.757
 8901TIP3    H126667   1.612   2.379   2.676
 8901TIP3    H226668   1.561   2.389   2.818
 8902TIP3   OH226669   6.130   0.818   0.335
 8902TIP3    H126670   6.189   0.744   0.346
 8902TIP3    H226671   6.044   0.785   0.360
 8903TIP3   OH226672   0.741   4.426   2.102
 8903TIP3    H126673   0.719   4.361   2.035
 8903TIP3    H226674   0.657   4.462   2.129
 8904TIP3   OH226675   6.965   5.548   4.013
 8904TIP3    H126676   6.911   5.523   4.088
 8904TIP3    H226677   6.922   5.507   3.937
 8905TIP3   OH226678   4.628   6.562   1.710
 8905TIP3    H126679   4.662   6.482   1.749
 8905TIP3    H226680   4.687   6.581   1.638
 8906TIP3   OH226681   2.872   1.441   4.319
 8906TIP3    H126682   2.811   1.415   4.250
 8906TIP3    H226683   2.893   1.358   4.363
 8907TIP3   OH226684   4.933   5.488   0.835
 8907TIP3    H126685   4.981   5.557   0.881
 8907TIP3    H226686   4.977   5.407   0.862
 8908TIP3   OH226687   5.505   4.294   2.066
 8908TIP3    H126688   5.581   4.347   2.041
 8908TIP3    H226689   5.452   4.289   1.987
 8909TIP3   OH226690   0.019   3.091   0.654
 8909TIP3    H126691   0.099   3.142   0.648
 8909TIP3    H226692  -0.032   3.133   0.723
 8910TIP3   OH226693   1.971   0.295   5.083
 8910TIP3    H126694   1.901   0.306   5.019
 8910TIP3    H226695   2.050   0.283   5.030
 8911TIP3   OH226696   5.505   6.367   1.685
 8911TIP3    H126697   5.485   6.408   1.601
 8911TIP3    H226698   5.433   6.395   1.742
 8912TIP3   OH226699   4.485   0.136   0.216
 8912TIP3    H126700   4.466   0.199   0.147
 8912TIP3    H226701   4.463   0.182   0.297
 8913TIP3   OH226702   3.699   1.098   2.112
 8913TIP3    H126703   3.608   1.070   2.098
 8913TIP3    H226704   3.727   1.047   2.189
 8914TIP3   OH226705   0.509   3.951   1.536
 8914TIP3    H126706   0.531   4.043   1.522
 8914TIP3    H226707   0.428   3.939   1.487
 8915TIP3   OH226708   5.162   3.352   2.140
 8915TIP3    H126709   5.203   3.370   2.055
 8915TIP3    H226710   5.219   3.394   2.204
 8916TIP3   OH226711   5.743   4.858   0.948
 8916TIP3    H126712   5.770   4.847   0.857
 8916TIP3    H226713   5.752   4.951   0.965
 8917TIP3   OH226714   2.215   5.873   4.742
 8917TIP3    H126715   2.253   5.959   4.762
 8917TIP3    H226716   2.230   5.821   4.821
 8918TIP3   OH226717   1.600   0.544   2.327
 8918TIP3    H126718   1.579   0.551   2.234
 8918TIP3    H226719   1.679   0.490   2.330
 8919TIP3   OH226720   3.536   0.957   3.919
 8919TIP3    H126721   3.630   0.977   3.911
 8919TIP3    H226722   3.532   0.862   3.909
 8920TIP3   OH226723   4.101   3.908   2.351
 8920TIP3    H126724   4.087   3.997   2.318
 8920TIP3    H226725   4.182   3.914   2.401
 8921TIP3   OH226726   2.166   3.485   5.626
 8921TIP3    H126727   2.189   3.393   5.633
 8921TIP3    H226728   2.204   3.513   5.542
 8922TIP3   OH226729   7.164   1.495   1.787
 8922TIP3    H126730   7.076   1.467   1.761
 8922TIP3    H226731   7.222   1.457   1.722
 8923TIP3   OH226732   5.187   6.061   2.012
 8923TIP3    H126733   5.125   5.988   2.014
 8923TIP3    H226734   5.141   6.133   2.056
 8924TIP3   OH226735   2.288   4.127   5.601
 8924TIP3    H126736   2.345   4.184   5.652
 8924TIP3    H226737   2.307   4.039   5.633
 8925TIP3   OH226738   3.445   1.385   0.385
 8925TIP3    H126739   3.365   1.333   0.391
 8925TIP3    H226740   3.422   1.470   0.423
 8926TIP3   OH226741   4.976   5.868   2.012
 8926TIP3    H126742   4.934   5.874   2.098
 8926TIP3    H226743   5.000   5.775   2.003
 8927TIP3   OH226744   3.685   2.679   3.258
 8927TIP3    H126745   3.775   2.648   3.272
 8927TIP3    H226746   3.644   2.675   3.344
 8928TIP3   OH226747   1.612   5.704   5.034
 8928TIP3    H126748   1.623   5.679   5.126
 8928TIP3    H226749   1.529   5.753   5.032
 8929TIP3   OH226750   6.230   2.201   0.826
 8929TIP3    H126751   6.191   2.217   0.739
 8929TIP3    H226752   6.213   2.109   0.843
 8930TIP3   OH226753   6.337   5.285   0.713
 8930TIP3    H126754   6.381   5.260   0.632
 8930TIP3    H226755   6.371   5.373   0.732
 8931TIP3   OH226756   1.687   0.683   3.034
 8931TIP3    H126757   1.616   0.661   2.974
 8931TIP3    H226758   1.683   0.778   3.042
 8932TIP3   OH226759   2.948   5.437   1.900
 8932TIP3    H126760   2.936   5.347   1.871
 8932TIP3    H226761   2.876   5.453   1.961
 8933TIP3   OH226762   4.987   3.791   5.653
 8933TIP3    H126763   4.910   3.743   5.684
 8933TIP3    H226764   4.967   3.813   5.562
 8934TIP3   OH226765   4.386   4.110   1.610
 8934TIP3    H126766   4.375   4.034   1.552
 8934TIP3    H226767   4.446   4.168   1.561
 8935TIP3   OH226768   3.134   2.346   4.751
 8935TIP3    H126769   3.172   2.333   4.664
 8935TIP3    H226770   3.061   2.406   4.736
 8936TIP3   OH226771   2.767   3.640   2.071
 8936TIP3    H126772   2.852   3.676   2.095
 8936TIP3    H226773   2.768   3.551   2.105
 8937TIP3   OH226774   5.823   6.504   5.814
 8937TIP3    H126775   5.820   6.507   5.910
 8937TIP3    H226776   5.786   6.419   5.791
 8938TIP3   OH226777   4.560   6.797   5.201
 8938TIP3    H126778   4.573   6.728   5.266
 8938TIP3    H226779   4.470   6.784   5.170
 8939TIP3   OH226780   0.163   3.712   0.419
 8939TIP3    H126781   0.253   3.689   0.397
 8939TIP3    H226782   0.127   3.634   0.461
 8940TIP3   OH226783   5.147   4.611   1.178
 8940TIP3    H126784   5.188   4.572   1.101
 8940TIP3    H226785   5.148   4.542   1.244
 8941TIP3   OH226786   2.348   1.880   3.581
 8941TIP3    H126787   2.373   1.929   3.503
 8941TIP3    H226788   2.317   1.947   3.642
 8942TIP3   OH226789   1.966   0.013   3.140
 8942TIP3    H126790   1.939   0.091   3.190
 8942TIP3    H226791   2.039   0.043   3.087
 8943TIP3   OH226792   2.105   5.819   5.635
 8943TIP3    H126793   2.015   5.850   5.643
 8943TIP3    H226794   2.149   5.886   5.582
 8944TIP3   OH226795   0.675   1.916   1.055
 8944TIP3    H126796   0.662   1.923   0.960
 8944TIP3    H226797   0.715   2.000   1.079
 8945TIP3   OH226798   4.256   4.453   5.815
 8945TIP3    H126799   4.195   4.489   5.751
 8945TIP3    H226800   4.211   4.376   5.851
 8946TIP3   OH226801   4.364   6.694   0.361
 8946TIP3    H126802   4.414   6.757   0.413
 8946TIP3    H226803   4.424   6.620   0.348
 8947TIP3   OH226804   0.585   4.853   2.296
 8947TIP3    H126805   0.501   4.835   2.338
 8947TIP3    H226806   0.603   4.945   2.315
 8948TIP3   OH226807   6.719   0.973   2.829
 8948TIP3    H126808   6.730   0.961   2.734
 8948TIP3    H226809   6.770   0.901   2.868
 8949TIP3   OH226810   0.278   5.128   4.667
 8949TIP3    H126811   0.300   5.204   4.613
 8949TIP3    H226812   0.184   5.134   4.681
 8950TIP3   OH226813   4.646   6.408   0.644
 8950TIP3    H126814   4.564   6.421   0.693
 8950TIP3    H226815   4.708   6.377   0.710
 8951TIP3   OH226816   5.922   5.014   5.723
 8951TIP3    H126817   5.979   5.085   5.751
 8951TIP3    H226818   5.843   5.024   5.777
 8952TIP3   OH226819   5.021   4.843   5.584
 8952TIP3    H126820   4.949   4.795   5.543
 8952TIP3    H226821   5.099   4.794   5.560
 8953TIP3   OH226822   3.812   4.674   4.782
 8953TIP3    H126823   3.769   4.681   4.697
 8953TIP3    H226824   3.778   4.748   4.833
 8954TIP3   OH226825   4.368   5.190   0.675
 8954TIP3    H126826   4.326   5.105   0.692
 8954TIP3    H226827   4.311   5.231   0.610
 8955TIP3   OH226828   0.676   1.785   4.867
 8955TIP3    H126829   0.696   1.715   4.929
 8955TIP3    H226830   0.627   1.743   4.797
 8956TIP3   OH226831   1.750   0.508   3.663
 8956TIP3    H126832   1.662   0.482   3.693
 8956TIP3    H226833   1.791   0.426   3.636
 8957TIP3   OH226834   1.800   2.095   4.746
 8957TIP3    H126835   1.828   2.106   4.837
 8957TIP3    H226836   1.753   2.176   4.726
 8958TIP3   OH226837   2.311   4.828   3.611
 8958TIP3    H126838   2.242   4.838   3.546
 8958TIP3    H226839   2.278   4.760   3.670
 8959TIP3   OH226840   2.268   2.019   2.041
 8959TIP3    H126841   2.191   2.075   2.030
 8959TIP3    H226842   2.299   2.039   2.129
 8960TIP3   OH226843   6.153   3.917   0.396
 8960TIP3    H126844   6.150   3.985   0.463
 8960TIP3    H226845   6.136   3.963   0.314
 8961TIP3   OH226846   4.199   0.864   0.426
 8961TIP3    H126847   4.230   0.787   0.474
 8961TIP3    H226848   4.278   0.908   0.396
 8962TIP3   OH226849   4.205   0.224   3.345
 8962TIP3    H126850   4.193   0.318   3.332
 8962TIP3    H226851   4.271   0.198   3.281
 8963TIP3   OH226852   1.013   5.120   2.803
 8963TIP3    H126853   1.012   5.065   2.725
 8963TIP3    H226854   0.931   5.101   2.847
 8964TIP3   OH226855   0.008   1.146   2.077
 8964TIP3    H126856   0.048   1.202   2.011
 8964TIP3    H226857   0.063   1.067   2.079
 8965TIP3   OH226858   0.290   3.884   0.150
 8965TIP3    H126859   0.244   3.817   0.201
 8965TIP3    H226860   0.224   3.952   0.136
 8966TIP3   OH226861   4.938   0.751   5.053
 8966TIP3    H126862   4.987   0.711   4.981
 8966TIP3    H226863   4.886   0.679   5.090
 8967TIP3   OH226864   0.130   5.396   4.236
 8967TIP3    H126865   0.056   5.356   4.191
 8967TIP3    H226866   0.139   5.483   4.196
 8968TIP3   OH226867   3.600   4.764   0.996
 8968TIP3    H126868   3.551   4.686   1.020
 8968TIP3    H226869   3.621   4.806   1.079
 8969TIP3   OH226870   1.885   1.579   1.079
 8969TIP3    H126871   1.811   1.589   1.019
 8969TIP3    H226872   1.962   1.587   1.023
 8970TIP3   OH226873   0.672   0.908   5.229
 8970TIP3    H126874   0.763   0.880   5.234
 8970TIP3    H226875   0.639   0.899   5.318
 8971TIP3   OH226876   5.903   2.971   1.199
 8971TIP3    H126877   5.912   2.877   1.180
 8971TIP3    H226878   5.810   2.983   1.218
 8972TIP3   OH226879   4.077   4.667   3.084
 8972TIP3    H126880   4.014   4.605   3.047
 8972TIP3    H226881   4.025   4.724   3.140
 8973TIP3   OH226882   3.408   0.946   4.186
 8973TIP3    H126883   3.429   0.861   4.225
 8973TIP3    H226884   3.463   0.951   4.108
 8974TIP3   OH226885   6.577   6.367   0.682
 8974TIP3    H126886   6.567   6.415   0.764
 8974TIP3    H226887   6.671   6.355   0.671
 8975TIP3   OH226888   2.482   4.087   2.146
 8975TIP3    H126889   2.441   4.023   2.089
 8975TIP3    H226890   2.565   4.047   2.172
 8976TIP3   OH226891   4.453   1.607   0.346
 8976TIP3    H126892   4.437   1.619   0.439
 8976TIP3    H226893   4.530   1.551   0.341
 8977TIP3   OH226894   0.314   2.033   3.830
 8977TIP3    H126895   0.409   2.040   3.827
 8977TIP3    H226896   0.298   1.957   3.886
 8978TIP3   OH226897   5.390   1.834   4.978
 8978TIP3    H126898   5.374   1.838   5.073
 8978TIP3    H226899   5.462   1.772   4.968
 8979TIP3   OH226900   3.325   4.391   1.566
 8979TIP3    H126901   3.239   4.425   1.542
 8979TIP3    H226902   3.351   4.443   1.642
 8980TIP3   OH226903   2.882   3.535   1.407
 8980TIP3    H126904   2.842   3.561   1.490
 8980TIP3    H226905   2.892   3.440   1.414
 8981TIP3   OH226906   2.397   1.624   5.447
 8981TIP3    H126907   2.427   1.704   5.405
 8981TIP3    H226908   2.428   1.554   5.390
 8982TIP3   OH226909   1.862   0.756   0.922
 8982TIP3    H126910   1.864   0.848   0.895
 8982TIP3    H226911   1.945   0.720   0.892
 8983TIP3   OH226912   1.637   5.436   3.882
 8983TIP3    H126913   1.564   5.493   3.907
 8983TIP3    H226914   1.715   5.482   3.911
 8984TIP3   OH226915   5.097   0.946   3.106
 8984TIP3    H126916   5.160   1.012   3.133
 8984TIP3    H226917   5.018   0.966   3.156
 8985TIP3   OH226918   3.442   4.934   5.681
 8985TIP3    H126919   3.426   5.022   5.648
 8985TIP3    H226920   3.534   4.916   5.658
 8986TIP3   OH226921   5.600   3.598   1.574
 8986TIP3    H126922   5.644   3.666   1.523
 8986TIP3    H226923   5.646   3.517   1.550
 8987TIP3   OH226924   4.822   5.194   4.638
 8987TIP3    H126925   4.859   5.277   4.609
 8987TIP3    H226926   4.890   5.156   4.693
 8988TIP3   OH226927   5.795   3.167   5.278
 8988TIP3    H126928   5.747   3.213   5.347
 8988TIP3    H226929   5.809   3.233   5.210
 8989TIP3   OH226930   1.287   1.558   3.943
 8989TIP3    H126931   1.338   1.546   3.863
 8989TIP3    H226932   1.206   1.509   3.928
 8990TIP3   OH226933   2.314   1.864   4.285
 8990TIP3    H126934   2.284   1.942   4.330
 8990TIP3    H226935   2.282   1.873   4.195
 8991TIP3   OH226936   3.580   1.853   5.279
 8991TIP3    H126937   3.643   1.922   5.257
 8991TIP3    H226938   3.504   1.900   5.313
 8992TIP3   OH226939   5.941   3.944   4.748
 8992TIP3    H126940   6.013   3.937   4.811
 8992TIP3    H226941   5.880   3.875   4.774
 8993TIP3   OH226942   5.239   6.357   3.377
 8993TIP3    H126943   5.289   6.437   3.362
 8993TIP3    H226944   5.300   6.298   3.420
 8994TIP3   OH226945   2.227   2.258   3.313
 8994TIP3    H126946   2.238   2.353   3.322
 8994TIP3    H226947   2.152   2.237   3.368
 8995TIP3   OH226948   4.447   4.406   4.338
 8995TIP3    H126949   4.530   4.418   4.383
 8995TIP3    H226950   4.381   4.421   4.406
 8996TIP3   OH226951   1.139   2.019   2.667
 8996TIP3    H126952   1.104   1.991   2.752
 8996TIP3    H226953   1.063   2.052   2.620
 8997TIP3   OH226954   2.126   5.447   0.350
 8997TIP3    H126955   2.059   5.514   0.366
 8997TIP3    H226956   2.153   5.461   0.260
 8998TIP3   OH226957   7.096   3.338   2.605
 8998TIP3    H126958   7.169   3.393   2.635
 8998TIP3    H226959   7.055   3.389   2.535
 8999TIP3   OH226960   5.399   6.475   4.818
 8999TIP3    H126961   5.416   6.382   4.829
 8999TIP3    H226962   5.332   6.479   4.750
 9000TIP3   OH226963   7.076   3.214   4.150
 9000TIP3    H126964   6.998   3.263   4.124
 9000TIP3    H226965   7.149   3.275   4.137
 9001TIP3   OH226966   1.622   6.093   4.413
 9001TIP3    H126967   1.687   6.116   4.480
 9001TIP3    H226968   1.541   6.133   4.443
 9002TIP3   OH226969   1.076   2.184   3.645
 9002TIP3    H126970   1.070   2.273   3.682
 9002TIP3    H226971   1.163   2.181   3.606
 9003TIP3   OH226972   0.037   1.171   5.862
 9003TIP3    H126973  -0.026   1.243   5.858
 9003TIP3    H226974  -0.017   1.092   5.857
 9004TIP3   OH226975   2.852   0.058   1.726
 9004TIP3    H126976   2.911   0.105   1.668
 9004TIP3    H226977   2.810   0.126   1.778
 9005TIP3   OH226978   6.851   6.589   1.337
 9005TIP3    H126979   6.834   6.498   1.361
 9005TIP3    H226980   6.928   6.612   1.390
 9006TIP3   OH226981   2.575   2.453   1.224
 9006TIP3    H126982   2.659   2.419   1.193
 9006TIP3    H226983   2.549   2.394   1.294
 9007TIP3   OH226984   3.296  -0.009   0.077
 9007TIP3    H126985   3.373   0.044   0.095
 9007TIP3    H226986   3.275  -0.052   0.160
 9008TIP3   OH226987   6.882   6.364   1.787
 9008TIP3    H126988   6.804   6.378   1.841
 9008TIP3    H226989   6.915   6.452   1.769
 9009TIP3   OH226990   7.126   3.295   0.819
 9009TIP3    H126991   7.039   3.329   0.798
 9009TIP3    H226992   7.142   3.324   0.909
 9010TIP3   OH226993   1.640   4.515   3.536
 9010TIP3    H126994   1.660   4.553   3.450
 9010TIP3    H226995   1.578   4.576   3.574
 9011TIP3   OH226996   7.012   3.489   1.917
 9011TIP3    H126997   7.096   3.451   1.940
 9011TIP3    H226998   7.007   3.570   1.968
 9012TIP3   OH226999   0.501   3.474   5.647
 9012TIP3    H127000   0.443   3.409   5.686
 9012TIP3    H227001   0.442   3.533   5.600
 9013TIP3   OH227002   1.675   3.240   4.375
 9013TIP3    H127003   1.706   3.238   4.465
 9013TIP3    H227004   1.645   3.150   4.358
 9014TIP3   OH227005   3.446   2.326   5.149
 9014TIP3    H127006   3.462   2.319   5.055
 9014TIP3    H227007   3.352   2.342   5.156
 9015TIP3   OH227008   5.165   2.831   2.818
 9015TIP3    H127009   5.151   2.741   2.846
 9015TIP3    H227010   5.258   2.847   2.834
 9016TIP3   OH227011   0.935   5.362   5.778
 9016TIP3    H127012   0.848   5.383   5.743
 9016TIP3    H227013   0.992   5.431   5.745
 9017TIP3   OH227014   2.566   6.437   2.710
 9017TIP3    H127015   2.585   6.344   2.706
 9017TIP3    H227016   2.527   6.450   2.797
 9018TIP3   OH227017   2.657   1.471   0.165
 9018TIP3    H127018   2.716   1.401   0.193
 9018TIP3    H227019   2.611   1.436   0.089
 9019TIP3   OH227020   1.637   6.758   2.057
 9019TIP3    H127021   1.597   6.839   2.088
 9019TIP3    H227022   1.587   6.688   2.100
 9020TIP3   OH227023   0.041   0.701   4.664
 9020TIP3    H127024   0.075   0.767   4.724
 9020TIP3    H227025   0.115   0.644   4.646
 9021TIP3   OH227026   6.355   1.978   2.783
 9021TIP3    H127027   6.388   2.068   2.796
 9021TIP3    H227028   6.276   1.989   2.730
 9022TIP3   OH227029   4.700   0.223   3.625
 9022TIP3    H127030   4.682   0.163   3.698
 9022TIP3    H227031   4.721   0.306   3.667
 9023TIP3   OH227032   3.892   0.094   4.300
 9023TIP3    H127033   3.906   0.123   4.210
 9023TIP3    H227034   3.797   0.092   4.310
 9024TIP3   OH227035   6.612   0.756   0.884
 9024TIP3    H127036   6.671   0.800   0.823
 9024TIP3    H227037   6.589   0.674   0.840
 9025TIP3   OH227038   0.013   4.261   3.082
 9025TIP3    H127039   0.016   4.355   3.064
 9025TIP3    H227040  -0.080   4.240   3.084
 9026TIP3   OH227041   1.677   6.710   0.622
 9026TIP3    H127042   1.763   6.740   0.648
 9026TIP3    H227043   1.679   6.615   0.640
 9027TIP3   OH227044   4.226   5.036   4.706
 9027TIP3    H127045   4.185   5.113   4.668
 9027TIP3    H227046   4.275   4.996   4.634
 9028TIP3   OH227047   1.833   2.875   5.550
 9028TIP3    H127048   1.877   2.796   5.581
 9028TIP3    H227049   1.792   2.912   5.628
 9029TIP3   OH227050   6.986   1.254   5.751
 9029TIP3    H127051   6.905   1.301   5.731
 9029TIP3    H227052   7.040   1.265   5.672
 9030TIP3   OH227053   6.265   4.501   3.701
 9030TIP3    H127054   6.333   4.515   3.766
 9030TIP3    H227055   6.312   4.490   3.618
 9031TIP3   OH227056   7.130   1.745   5.853
 9031TIP3    H127057   7.168   1.816   5.803
 9031TIP3    H227058   7.043   1.776   5.878
 9032TIP3   OH227059   6.429   5.042   2.208
 9032TIP3    H127060   6.405   4.955   2.176
 9032TIP3    H227061   6.451   5.029   2.300
 9033TIP3   OH227062   3.133   5.484   0.519
 9033TIP3    H127063   3.124   5.552   0.586
 9033TIP3    H227064   3.185   5.526   0.450
 9034TIP3   OH227065   4.458   3.700   5.560
 9034TIP3    H127066   4.420   3.786   5.543
 9034TIP3    H227067   4.456   3.691   5.656
 9035TIP3   OH227068   5.064   2.438   0.965
 9035TIP3    H127069   5.059   2.346   0.939
 9035TIP3    H227070   5.110   2.480   0.892
 9036TIP3   OH227071   4.599   4.935   5.199
 9036TIP3    H127072   4.520   4.984   5.222
 9036TIP3    H227073   4.625   4.970   5.114
 9037TIP3   OH227074   4.365   0.258   3.976
 9037TIP3    H127075   4.453   0.297   3.980
 9037TIP3    H227076   4.368   0.201   3.900
 9038TIP3   OH227077   3.714   0.610   2.876
 9038TIP3    H127078   3.800   0.576   2.899
 9038TIP3    H227079   3.682   0.550   2.808
 9039TIP3   OH227080   5.048   2.291   2.974
 9039TIP3    H127081   5.017   2.299   3.064
 9039TIP3    H227082   5.054   2.382   2.943
 9040TIP3   OH227083   1.219   1.651   1.816
 9040TIP3    H127084   1.212   1.691   1.729
 9040TIP3    H227085   1.226   1.557   1.799
 9041TIP3   OH227086   3.733   3.093   1.840
 9041TIP3    H127087   3.755   3.087   1.747
 9041TIP3    H227088   3.815   3.117   1.883
 9042TIP3   OH227089   1.920   2.818   1.876
 9042TIP3    H127090   1.851   2.762   1.912
 9042TIP3    H227091   2.001   2.775   1.901
 9043TIP3   OH227092   0.508   6.568   3.822
 9043TIP3    H127093   0.527   6.623   3.745
 9043TIP3    H227094   0.593   6.552   3.862
 9044TIP3   OH227095   4.399   0.588   5.237
 9044TIP3    H127096   4.316   0.621   5.204
 9044TIP3    H227097   4.463   0.610   5.168
 9045TIP3   OH227098   3.007   5.453   0.974
 9045TIP3    H127099   3.040   5.449   1.064
 9045TIP3    H227100   3.086   5.446   0.920
 9046TIP3   OH227101   2.080   0.156   0.712
 9046TIP3    H127102   1.987   0.167   0.691
 9046TIP3    H227103   2.119   0.122   0.632
 9047TIP3   OH227104   3.721   5.562   0.380
 9047TIP3    H127105   3.714   5.657   0.394
 9047TIP3    H227106   3.710   5.551   0.285
 9048TIP3   OH227107   5.910   5.280   5.610
 9048TIP3    H127108   5.875   5.352   5.663
 9048TIP3    H227109   6.003   5.301   5.600
 9049TIP3   OH227110   4.500   3.950   5.001
 9049TIP3    H127111   4.541   3.972   5.085
 9049TIP3    H227112   4.418   3.999   5.001
 9050TIP3   OH227113   2.698   4.971   2.270
 9050TIP3    H127114   2.723   4.999   2.358
 9050TIP3    H227115   2.618   5.020   2.251
 9051TIP3   OH227116   6.089   4.828   3.400
 9051TIP3    H127117   6.002   4.869   3.395
 9051TIP3    H227118   6.091   4.789   3.487
 9052TIP3   OH227119   2.367   4.123   2.602
 9052TIP3    H127120   2.311   4.046   2.594
 9052TIP3    H227121   2.371   4.159   2.513
 9053TIP3   OH227122   1.425   5.305   2.997
 9053TIP3    H127123   1.348   5.307   2.940
 9053TIP3    H227124   1.456   5.396   2.998
 9054TIP3   OH227125   4.666   6.075   4.815
 9054TIP3    H127126   4.730   6.128   4.768
 9054TIP3    H227127   4.623   6.023   4.747
 9055TIP3   OH227128   5.341   4.885   5.423
 9055TIP3    H127129   5.390   4.818   5.470
 9055TIP3    H227130   5.378   4.886   5.335
 9056TIP3   OH227131   5.190   3.014   0.775
 9056TIP3    H127132   5.190   2.981   0.865
 9056TIP3    H227133   5.142   2.947   0.725
 9057TIP3   OH227134   2.751   5.981   4.180
 9057TIP3    H127135   2.689   5.916   4.145
 9057TIP3    H227136   2.825   5.978   4.119
 9058TIP3   OH227137   0.047   6.730   2.494
 9058TIP3    H127138   0.053   6.635   2.509
 9058TIP3    H227139  -0.047   6.748   2.491
 9059TIP3   OH227140   4.883   2.828   4.132
 9059TIP3    H127141   4.951   2.765   4.155
 9059TIP3    H227142   4.829   2.783   4.066
 9060TIP3   OH227143   0.934   0.366   3.144
 9060TIP3    H127144   1.022   0.392   3.171
 9060TIP3    H227145   0.875   0.418   3.198
 9061TIP3   OH227146   5.874   5.072   4.953
 9061TIP3    H127147   5.845   5.162   4.967
 9061TIP3    H227148   5.963   5.070   4.988
 9062TIP3   OH227149   5.310   1.634   5.330
 9062TIP3    H127150   5.399   1.612   5.303
 9062TIP3    H227151   5.256   1.613   5.254
 9063TIP3   OH227152   4.626   1.402   4.519
 9063TIP3    H127153   4.561   1.398   4.449
 9063TIP3    H227154   4.668   1.487   4.508
 9064TIP3   OH227155   0.422   4.662   0.964
 9064TIP3    H127156   0.423   4.746   0.919
 9064TIP3    H227157   0.330   4.647   0.985
 9065TIP3   OH227158   2.878   3.084   1.862
 9065TIP3    H127159   2.824   3.061   1.787
 9065TIP3    H227160   2.889   3.179   1.856
 9066TIP3   OH227161   0.487   0.550   1.486
 9066TIP3    H127162   0.577   0.580   1.487
 9066TIP3    H227163   0.464   0.542   1.394
 9067TIP3   OH227164   0.123   5.836   3.467
 9067TIP3    H127165   0.186   5.770   3.440
 9067TIP3    H227166   0.118   5.828   3.562
 9068TIP3   OH227167   2.718   0.293   1.899
 9068TIP3    H127168   2.691   0.377   1.936
 9068TIP3    H227169   2.799   0.271   1.946
 9069TIP3   OH227170   1.671   1.679   3.409
 9069TIP3    H127171   1.686   1.734   3.332
 9069TIP3    H227172   1.749   1.690   3.463
 9070TIP3   OH227173   6.090   2.806   4.935
 9070TIP3    H127174   6.117   2.825   5.025
 9070TIP3    H227175   6.143   2.730   4.910
 9071TIP3   OH227176   4.706   2.607   2.041
 9071TIP3    H127177   4.758   2.687   2.052
 9071TIP3    H227178   4.756   2.539   2.085
 9072TIP3   OH227179   3.733   3.485   2.420
 9072TIP3    H127180   3.745   3.504   2.327
 9072TIP3    H227181   3.649   3.439   2.424
 9073TIP3   OH227182   2.683   3.764   3.706
 9073TIP3    H127183   2.619   3.808   3.649
 9073TIP3    H227184   2.630   3.726   3.776
 9074TIP3   OH227185   1.045   4.029   4.440
 9074TIP3    H127186   1.019   3.951   4.490
 9074TIP3    H227187   1.028   4.102   4.499
 9075TIP3   OH227188   6.475   1.318   3.690
 9075TIP3    H127189   6.437   1.378   3.754
 9075TIP3    H227190   6.438   1.346   3.606
 9076TIP3   OH227191   4.064   0.919   0.182
 9076TIP3    H127192   4.043   0.872   0.263
 9076TIP3    H227193   4.154   0.895   0.163
 9077TIP3   OH227194   7.075   4.951   3.213
 9077TIP3    H127195   7.060   4.857   3.221
 9077TIP3    H227196   7.048   4.987   3.298
 9078TIP3   OH227197   3.765   1.995   3.815
 9078TIP3    H127198   3.777   2.088   3.838
 9078TIP3    H227199   3.845   1.973   3.767
 9079TIP3   OH227200   1.343   1.213   2.255
 9079TIP3    H127201   1.288   1.141   2.223
 9079TIP3    H227202   1.368   1.187   2.343
 9080TIP3   OH227203   6.373   1.821   1.351
 9080TIP3    H127204   6.343   1.864   1.431
 9080TIP3    H227205   6.461   1.790   1.372
 9081TIP3   OH227206   3.870   3.391   2.639
 9081TIP3    H127207   3.843   3.424   2.554
 9081TIP3    H227208   3.800   3.419   2.699
 9082TIP3   OH227209   0.487   2.319   3.244
 9082TIP3    H127210   0.436   2.293   3.167
 9082TIP3    H227211   0.434   2.290   3.318
 9083TIP3   OH227212   0.326   2.406   4.720
 9083TIP3    H127213   0.272   2.440   4.649
 9083TIP3    H227214   0.315   2.470   4.791
 9084TIP3   OH227215   5.168   2.544   0.705
 9084TIP3    H127216   5.190   2.635   0.685
 9084TIP3    H227217   5.078   2.534   0.674
 9085TIP3   OH227218   6.524   0.440   2.972
 9085TIP3    H127219   6.583   0.515   2.986
 9085TIP3    H227220   6.577   0.377   2.924
 9086TIP3   OH227221   6.013   4.032   2.509
 9086TIP3    H127222   6.047   4.060   2.593
 9086TIP3    H227223   6.023   4.109   2.452
 9087TIP3   OH227224   3.083   5.856   5.621
 9087TIP3    H127225   3.083   5.763   5.598
 9087TIP3    H227226   3.175   5.880   5.625
 9088TIP3   OH227227   1.257   6.664   5.795
 9088TIP3    H127228   1.321   6.715   5.745
 9088TIP3    H227229   1.172   6.700   5.769
 9089TIP3   OH227230   1.753   0.960   1.574
 9089TIP3    H127231   1.840   1.001   1.564
 9089TIP3    H227232   1.699   1.003   1.507
 9090TIP3   OH227233   6.067   3.175   3.642
 9090TIP3    H127234   6.159   3.178   3.615
 9090TIP3    H227235   6.020   3.138   3.567
 9091TIP3   OH227236   3.538   2.409   0.589
 9091TIP3    H127237   3.599   2.475   0.622
 9091TIP3    H227238   3.532   2.345   0.660
 9092TIP3   OH227239   0.921   5.205   1.572
 9092TIP3    H127240   0.830   5.224   1.551
 9092TIP3    H227241   0.955   5.162   1.494
 9093TIP3   OH227242   5.493   6.037   0.602
 9093TIP3    H127243   5.550   6.114   0.600
 9093TIP3    H227244   5.417   6.062   0.549
 9094TIP3   OH227245   2.700   4.706   0.051
 9094TIP3    H127246   2.611   4.681   0.074
 9094TIP3    H227247   2.719   4.782   0.106
 9095TIP3   OH227248   4.347   2.572   5.473
 9095TIP3    H127249   4.406   2.635   5.514
 9095TIP3    H227250   4.398   2.534   5.402
 9096TIP3   OH227251   2.300   0.189   4.773
 9096TIP3    H127252   2.205   0.198   4.774
 9096TIP3    H227253   2.332   0.277   4.751
 9097TIP3   OH227254   3.371   2.648   0.810
 9097TIP3    H127255   3.410   2.686   0.732
 9097TIP3    H227256   3.326   2.569   0.780
 9098TIP3   OH227257   5.805   5.734   0.638
 9098TIP3    H127258   5.876   5.775   0.588
 9098TIP3    H227259   5.850   5.671   0.695
 9099TIP3   OH227260   6.377   3.588   3.287
 9099TIP3    H127261   6.438   3.646   3.332
 9099TIP3    H227262   6.331   3.543   3.358
 9100TIP3   OH227263   3.951   6.464   0.042
 9100TIP3    H127264   3.921   6.513   0.118
 9100TIP3    H227265   3.915   6.512  -0.033
 9101TIP3   OH227266   4.113   2.129   1.427
 9101TIP3    H127267   4.032   2.142   1.476
 9101TIP3    H227268   4.180   2.176   1.478
 9102TIP3   OH227269   0.446   2.742   3.520
 9102TIP3    H127270   0.486   2.685   3.454
 9102TIP3    H227271   0.394   2.804   3.469
 9103TIP3   OH227272   6.308   6.485   1.209
 9103TIP3    H127273   6.331   6.394   1.190
 9103TIP3    H227274   6.258   6.481   1.290
 9104TIP3   OH227275   5.024   4.813   0.665
 9104TIP3    H127276   4.960   4.821   0.594
 9104TIP3    H227277   5.100   4.861   0.634
 9105TIP3   OH227278   1.709   1.853   1.598
 9105TIP3    H127279   1.719   1.762   1.569
 9105TIP3    H227280   1.689   1.846   1.692
 9106TIP3   OH227281   4.807   0.487   3.357
 9106TIP3    H127282   4.877   0.522   3.412
 9106TIP3    H227283   4.827   0.394   3.349
 9107TIP3   OH227284   4.211   3.310   5.531
 9107TIP3    H127285   4.144   3.249   5.563
 9107TIP3    H227286   4.163   3.391   5.515
 9108TIP3   OH227287   4.424   4.395   2.151
 9108TIP3    H127288   4.364   4.462   2.184
 9108TIP3    H227289   4.368   4.324   2.123
 9109TIP3   OH227290   4.078   4.780   4.738
 9109TIP3    H127291   3.986   4.770   4.762
 9109TIP3    H227292   4.097   4.873   4.752
 9110TIP3   OH227293   2.929   3.263   1.465
 9110TIP3    H127294   2.908   3.194   1.402
 9110TIP3    H227295   3.024   3.271   1.461
 9111TIP3   OH227296   3.939   0.429   0.645
 9111TIP3    H127297   3.882   0.378   0.703
 9111TIP3    H227298   4.010   0.369   0.622
 9112TIP3   OH227299   4.001   2.502   0.792
 9112TIP3    H127300   4.095   2.489   0.776
 9112TIP3    H227301   3.976   2.425   0.844
 9113TIP3   OH227302   1.719   3.409   0.989
 9113TIP3    H127303   1.765   3.455   0.919
 9113TIP3    H227304   1.726   3.467   1.065
 9114TIP3   OH227305   6.943   0.310   0.621
 9114TIP3    H127306   6.978   0.300   0.709
 9114TIP3    H227307   6.957   0.402   0.599
 9115TIP3   OH227308   2.334   0.314   0.502
 9115TIP3    H127309   2.340   0.225   0.468
 9115TIP3    H227310   2.420   0.352   0.485
 9116TIP3   OH227311   1.369   6.535   2.058
 9116TIP3    H127312   1.303   6.566   1.996
 9116TIP3    H227313   1.323   6.532   2.142
 9117TIP3   OH227314   3.962   4.160   2.649
 9117TIP3    H127315   3.921   4.073   2.644
 9117TIP3    H227316   4.056   4.141   2.650
 9118TIP3   OH227317   4.924   1.963   5.652
 9118TIP3    H127318   4.841   1.931   5.617
 9118TIP3    H227319   4.963   2.013   5.581
 9119TIP3   OH227320   1.625   2.582   3.555
 9119TIP3    H127321   1.709   2.619   3.530
 9119TIP3    H227322   1.609   2.512   3.492
 9120TIP3   OH227323   0.582   0.546   1.831
 9120TIP3    H127324   0.522   0.620   1.823
 9120TIP3    H227325   0.669   0.586   1.834
 9121TIP3   OH227326   2.314   2.870   1.329
 9121TIP3    H127327   2.256   2.798   1.351
 9121TIP3    H227328   2.397   2.828   1.308
 9122TIP3   OH227329   0.999   2.340   1.227
 9122TIP3    H127330   1.038   2.418   1.264
 9122TIP3    H227331   1.039   2.267   1.275
 9123TIP3   OH227332   5.172   3.239   1.366
 9123TIP3    H127333   5.228   3.163   1.379
 9123TIP3    H227334   5.121   3.219   1.288
 9124TIP3   OH227335   3.049   4.253   4.875
 9124TIP3    H127336   3.086   4.206   4.800
 9124TIP3    H227337   3.121   4.307   4.907
 9125TIP3   OH227338   5.949   5.042   3.786
 9125TIP3    H127339   6.025   5.010   3.835
 9125TIP3    H227340   5.944   5.135   3.808
 9126TIP3   OH227341   3.606   4.705   0.149
 9126TIP3    H127342   3.546   4.731   0.219
 9126TIP3    H227343   3.693   4.714   0.188
 9127TIP3   OH227344   0.443   1.479   1.064
 9127TIP3    H127345   0.529   1.463   1.025
 9127TIP3    H227346   0.411   1.557   1.020
 9128TIP3   OH227347   1.738   4.631   1.930
 9128TIP3    H127348   1.713   4.704   1.873
 9128TIP3    H227349   1.792   4.672   1.998
 9129TIP3   OH227350   3.861   1.623   5.353
 9129TIP3    H127351   3.890   1.573   5.430
 9129TIP3    H227352   3.904   1.580   5.279
 9130TIP3   OH227353   3.602   0.290   5.427
 9130TIP3    H127354   3.672   0.237   5.389
 9130TIP3    H227355   3.630   0.380   5.412
 9131TIP3   OH227356   4.784   4.344   0.519
 9131TIP3    H127357   4.728   4.391   0.580
 9131TIP3    H227358   4.800   4.407   0.448
 9132TIP3   OH227359   1.703   0.433   1.621
 9132TIP3    H127360   1.655   0.422   1.703
 9132TIP3    H227361   1.687   0.523   1.595
 9133TIP3   OH227362   0.638   3.501   4.407
 9133TIP3    H127363   0.678   3.472   4.326
 9133TIP3    H227364   0.561   3.444   4.417
 9134TIP3   OH227365   5.310   6.240   0.993
 9134TIP3    H127366   5.292   6.149   0.969
 9134TIP3    H227367   5.318   6.286   0.909
 9135TIP3   OH227368   0.974   6.322   4.707
 9135TIP3    H127369   0.962   6.384   4.779
 9135TIP3    H227370   1.012   6.244   4.747
 9136TIP3   OH227371   5.054   1.867   4.503
 9136TIP3    H127372   5.087   1.879   4.592
 9136TIP3    H227373   4.987   1.799   4.511
 9137TIP3   OH227374   4.361   4.760   5.383
 9137TIP3    H127375   4.405   4.834   5.426
 9137TIP3    H227376   4.268   4.772   5.403
 9138TIP3   OH227377   6.843   1.929   4.056
 9138TIP3    H127378   6.892   1.886   3.986
 9138TIP3    H227379   6.815   2.012   4.018
 9139TIP3   OH227380   2.639   4.084   1.893
 9139TIP3    H127381   2.659   4.175   1.874
 9139TIP3    H227382   2.597   4.086   1.979
 9140TIP3   OH227383   5.417   1.994   3.095
 9140TIP3    H127384   5.377   1.999   3.182
 9140TIP3    H227385   5.373   2.063   3.045
 9141TIP3   OH227386   4.800   3.826   5.262
 9141TIP3    H127387   4.781   3.895   5.326
 9141TIP3    H227388   4.758   3.748   5.300
 9142TIP3   OH227389   3.920   2.940   3.889
 9142TIP3    H127390   3.856   2.905   3.827
 9142TIP3    H227391   3.883   2.920   3.975
 9143TIP3   OH227392   5.640   2.448   4.742
 9143TIP3    H127393   5.594   2.499   4.809
 9143TIP3    H227394   5.684   2.378   4.791
 9144TIP3   OH227395   5.405   4.482   4.161
 9144TIP3    H127396   5.376   4.572   4.170
 9144TIP3    H227397   5.377   4.456   4.073
 9145TIP3   OH227398   3.136   2.372   0.474
 9145TIP3    H127399   3.044   2.393   0.487
 9145TIP3    H227400   3.136   2.289   0.427
 9146TIP3   OH227401   4.546   0.317   3.434
 9146TIP3    H127402   4.603   0.303   3.358
 9146TIP3    H227403   4.598   0.287   3.509
 9147TIP3   OH227404   2.906   4.711   4.497
 9147TIP3    H127405   2.837   4.653   4.529
 9147TIP3    H227406   2.890   4.717   4.402
 9148TIP3   OH227407   1.357   3.484   0.844
 9148TIP3    H127408   1.437   3.535   0.858
 9148TIP3    H227409   1.335   3.499   0.752
 9149TIP3   OH227410   0.410   5.397   3.099
 9149TIP3    H127411   0.391   5.360   3.012
 9149TIP3    H227412   0.339   5.461   3.113
 9150TIP3   OH227413   5.792   4.532   5.495
 9150TIP3    H127414   5.876   4.496   5.524
 9150TIP3    H227415   5.815   4.610   5.445
 9151TIP3   OH227416   0.148   6.759   3.823
 9151TIP3    H127417   0.184   6.670   3.831
 9151TIP3    H227418   0.195   6.797   3.749
 9152TIP3   OH227419   3.275   5.826   1.166
 9152TIP3    H127420   3.339   5.864   1.106
 9152TIP3    H227421   3.266   5.891   1.236
 9153TIP3   OH227422   7.044   3.357   5.329
 9153TIP3    H127423   7.028   3.279   5.382
 9153TIP3    H227424   6.976   3.353   5.261
 9154TIP3   OH227425   0.481   5.078   2.579
 9154TIP3    H127426   0.482   4.982   2.583
 9154TIP3    H227427   0.408   5.104   2.636
 9155TIP3   OH227428   4.650   3.990   5.682
 9155TIP3    H127429   4.678   3.925   5.746
 9155TIP3    H227430   4.573   3.952   5.641
 9156TIP3   OH227431   0.090   3.772   1.514
 9156TIP3    H127432   0.049   3.827   1.447
 9156TIP3    H227433   0.019   3.719   1.549
 9157TIP3   OH227434   5.486   3.124   2.208
 9157TIP3    H127435   5.563   3.093   2.255
 9157TIP3    H227436   5.518   3.192   2.150
 9158TIP3   OH227437   1.794   4.962   2.582
 9158TIP3    H127438   1.822   5.037   2.530
 9158TIP3    H227439   1.822   4.983   2.671
 9159TIP3   OH227440   3.143   5.564   5.290
 9159TIP3    H127441   3.169   5.493   5.349
 9159TIP3    H227442   3.210   5.631   5.302
 9160TIP3   OH227443   4.546   1.341   5.329
 9160TIP3    H127444   4.517   1.366   5.416
 9160TIP3    H227445   4.488   1.387   5.269
 9161TIP3   OH227446   3.171   4.471   3.285
 9161TIP3    H127447   3.193   4.460   3.377
 9161TIP3    H227448   3.081   4.437   3.278
 9162TIP3   OH227449   7.100   3.607   3.576
 9162TIP3    H127450   7.157   3.557   3.517
 9162TIP3    H227451   7.015   3.565   3.568
 9163TIP3   OH227452   2.946   0.573   2.769
 9163TIP3    H127453   2.912   0.560   2.680
 9163TIP3    H227454   3.012   0.505   2.779
 9164TIP3   OH227455   1.250   1.643   2.943
 9164TIP3    H127456   1.172   1.679   2.985
 9164TIP3    H227457   1.284   1.714   2.890
 9165TIP3   OH227458   2.810   6.775   0.492
 9165TIP3    H127459   2.782   6.830   0.419
 9165TIP3    H227460   2.787   6.825   0.570
 9166TIP3   OH227461   6.730   5.447  -0.023
 9166TIP3    H127462   6.792   5.378   0.002
 9166TIP3    H227463   6.644   5.406  -0.013
 9167TIP3   OH227464   5.635   4.902   0.082
 9167TIP3    H127465   5.543   4.879   0.094
 9167TIP3    H227466   5.657   4.954   0.159
 9168TIP3   OH227467   0.272   6.447   1.546
 9168TIP3    H127468   0.330   6.513   1.509
 9168TIP3    H227469   0.264   6.381   1.477
 9169TIP3   OH227470   2.807   6.583   5.583
 9169TIP3    H127471   2.902   6.571   5.581
 9169TIP3    H227472   2.774   6.507   5.629
 9170TIP3   OH227473   3.889   6.805   1.123
 9170TIP3    H127474   3.814   6.828   1.178
 9170TIP3    H227475   3.900   6.711   1.135
 9171TIP3   OH227476   1.445   0.813   5.152
 9171TIP3    H127477   1.501   0.827   5.228
 9171TIP3    H227478   1.501   0.769   5.089
 9172TIP3   OH227479   1.362   3.924   2.704
 9172TIP3    H127480   1.319   3.886   2.627
 9172TIP3    H227481   1.450   3.947   2.673
 9173TIP3   OH227482   0.283   0.534   5.059
 9173TIP3    H127483   0.315   0.606   5.003
 9173TIP3    H227484   0.241   0.474   4.998
 9174TIP3   OH227485   1.923   0.724   5.002
 9174TIP3    H127486   1.926   0.816   5.028
 9174TIP3    H227487   1.990   0.682   5.056
 9175TIP3   OH227488   6.153   2.457   3.217
 9175TIP3    H127489   6.129   2.399   3.144
 9175TIP3    H227490   6.070   2.472   3.263
 9176TIP3   OH227491   5.528   3.062   1.739
 9176TIP3    H127492   5.550   2.978   1.701
 9176TIP3    H227493   5.524   3.122   1.664
 9177TIP3   OH227494   2.796   0.617   2.183
 9177TIP3    H127495   2.702   0.607   2.170
 9177TIP3    H227496   2.807   0.709   2.207
 9178TIP3   OH227497   1.799  -0.040   1.834
 9178TIP3    H127498   1.776   0.049   1.861
 9178TIP3    H227499   1.876  -0.028   1.778
 9179TIP3   OH227500   4.380   6.107   4.099
 9179TIP3    H127501   4.319   6.038   4.124
 9179TIP3    H227502   4.466   6.076   4.129
 9180TIP3   OH227503   4.066   3.058   5.611
 9180TIP3    H127504   4.114   3.016   5.539
 9180TIP3    H227505   4.108   3.027   5.690
 9181TIP3   OH227506   2.926   1.228   1.637
 9181TIP3    H127507   2.862   1.159   1.655
 9181TIP3    H227508   2.929   1.232   1.541
 9182TIP3   OH227509   1.458   6.498   2.535
 9182TIP3    H127510   1.485   6.413   2.501
 9182TIP3    H227511   1.507   6.509   2.616
 9183TIP3   OH227512   2.160   4.191   4.015
 9183TIP3    H127513   2.104   4.132   4.067
 9183TIP3    H227514   2.099   4.259   3.984
 9184TIP3   OH227515   0.510   3.625   2.011
 9184TIP3    H127516   0.470   3.666   1.935
 9184TIP3    H227517   0.604   3.640   1.999
 9185TIP3   OH227518   2.888   4.481   2.985
 9185TIP3    H127519   2.805   4.526   2.972
 9185TIP3    H227520   2.917   4.509   3.072
 9186TIP3   OH227521   2.712   1.511   1.123
 9186TIP3    H127522   2.805   1.493   1.134
 9186TIP3    H227523   2.668   1.428   1.145
 9187TIP3   OH227524   6.191   3.324   0.140
 9187TIP3    H127525   6.123   3.379   0.178
 9187TIP3    H227526   6.153   3.289   0.060
 9188TIP3   OH227527   7.160   6.608   3.734
 9188TIP3    H127528   7.112   6.588   3.815
 9188TIP3    H227529   7.236   6.659   3.763
 9189TIP3   OH227530   5.452   1.599   1.264
 9189TIP3    H127531   5.420   1.671   1.210
 9189TIP3    H227532   5.536   1.629   1.297
 9190TIP3   OH227533   1.874   3.742   3.422
 9190TIP3    H127534   1.803   3.679   3.407
 9190TIP3    H227535   1.833   3.810   3.476
 9191TIP3   OH227536   4.269   1.054   1.567
 9191TIP3    H127537   4.200   1.081   1.628
 9191TIP3    H227538   4.339   1.022   1.624
 9192TIP3   OH227539   2.125   6.571   3.794
 9192TIP3    H127540   2.105   6.612   3.710
 9192TIP3    H227541   2.175   6.493   3.771
 9193TIP3   OH227542   0.586   6.123   0.158
 9193TIP3    H127543   0.647   6.059   0.196
 9193TIP3    H227544   0.510   6.121   0.217
 9194TIP3   OH227545   1.022   1.303   5.589
 9194TIP3    H127546   1.089   1.239   5.565
 9194TIP3    H227547   1.057   1.347   5.667
 9195TIP3   OH227548   6.414   2.867   0.726
 9195TIP3    H127549   6.355   2.846   0.654
 9195TIP3    H227550   6.417   2.962   0.728
 9196TIP3   OH227551   5.296   6.626   1.343
 9196TIP3    H127552   5.268   6.587   1.426
 9196TIP3    H227553   5.361   6.564   1.309
 9197TIP3   OH227554   0.998   0.760   2.650
 9197TIP3    H127555   1.042   0.716   2.723
 9197TIP3    H227556   0.907   0.772   2.680
 9198TIP3   OH227557   0.232   5.863   4.755
 9198TIP3    H127558   0.150   5.903   4.785
 9198TIP3    H227559   0.300   5.915   4.797
 9199TIP3   OH227560   1.724   4.473   4.955
 9199TIP3    H127561   1.762   4.434   4.877
 9199TIP3    H227562   1.797   4.517   4.998
 9200TIP3   OH227563   0.984   6.355   5.585
 9200TIP3    H127564   1.042   6.285   5.557
 9200TIP3    H227565   0.906   6.310   5.619
 9201TIP3   OH227566   3.786   0.582   1.806
 9201TIP3    H127567   3.693   0.568   1.824
 9201TIP3    H227568   3.806   0.667   1.845
 9202TIP3   OH227569   3.887   4.443   4.434
 9202TIP3    H127570   3.919   4.460   4.523
 9202TIP3    H227571   3.828   4.368   4.444
 9203TIP3   OH227572   2.027   2.704   0.576
 9203TIP3    H127573   2.096   2.639   0.583
 9203TIP3    H227574   1.946   2.657   0.595
 9204TIP3   OH227575   4.980   3.373   4.319
 9204TIP3    H127576   4.952   3.431   4.390
 9204TIP3    H227577   4.920   3.298   4.326
 9205TIP3   OH227578   6.939   5.918   1.317
 9205TIP3    H127579   6.867   5.973   1.288
 9205TIP3    H227580   6.968   5.872   1.237
 9206TIP3   OH227581   1.319   6.011   5.300
 9206TIP3    H127582   1.391   6.004   5.362
 9206TIP3    H227583   1.257   5.943   5.328
 9207TIP3   OH227584   5.993   0.591   5.356
 9207TIP3    H127585   5.910   0.585   5.404
 9207TIP3    H227586   6.051   0.639   5.414
 9208TIP3   OH227587   1.766   3.478   0.080
 9208TIP3    H127588   1.759   3.483  -0.016
 9208TIP3    H227589   1.843   3.423   0.095
 9209TIP3   OH227590   2.864   3.269   4.052
 9209TIP3    H127591   2.830   3.226   3.974
 9209TIP3    H227592   2.882   3.359   4.025
 9210TIP3   OH227593   5.541   5.945   4.818
 9210TIP3    H127594   5.459   5.897   4.807
 9210TIP3    H227595   5.574   5.917   4.903
 9211TIP3   OH227596   5.983   5.102   4.558
 9211TIP3    H127597   5.986   5.020   4.606
 9211TIP3    H227598   6.060   5.151   4.588
 9212TIP3   OH227599   5.910   3.012   4.577
 9212TIP3    H127600   5.884   3.103   4.559
 9212TIP3    H227601   5.922   2.974   4.490
 9213TIP3   OH227602   5.639   0.816   2.469
 9213TIP3    H127603   5.717   0.769   2.499
 9213TIP3    H227604   5.669   0.906   2.453
 9214TIP3   OH227605   5.557   3.322   2.583
 9214TIP3    H127606   5.569   3.413   2.556
 9214TIP3    H227607   5.646   3.287   2.588
 9215TIP3   OH227608   7.014   4.540   0.793
 9215TIP3    H127609   7.100   4.500   0.809
 9215TIP3    H227610   6.983   4.566   0.880
 9216TIP3   OH227611   5.864   6.131   3.728
 9216TIP3    H127612   5.830   6.074   3.798
 9216TIP3    H227613   5.949   6.093   3.705
 9217TIP3   OH227614   5.008   2.999   3.939
 9217TIP3    H127615   4.951   2.985   4.014
 9217TIP3    H227616   4.974   2.940   3.871
 9218TIP3   OH227617   6.048   4.340   3.724
 9218TIP3    H127618   6.131   4.388   3.713
 9218TIP3    H227619   5.987   4.385   3.666
 9219TIP3   OH227620   3.089   2.033   3.585
 9219TIP3    H127621   3.164   1.980   3.612
 9219TIP3    H227622   3.036   2.043   3.663
 9220TIP3   OH227623   0.228   3.998   2.110
 9220TIP3    H127624   0.282   4.037   2.179
 9220TIP3    H227625   0.204   4.071   2.054
 9221TIP3   OH227626   3.005   5.835   1.177
 9221TIP3    H127627   2.998   5.902   1.245
 9221TIP3    H227628   3.097   5.806   1.182
 9222TIP3   OH227629   6.578   1.101   4.435
 9222TIP3    H127630   6.627   1.031   4.476
 9222TIP3    H227631   6.519   1.057   4.374
 9223TIP3   OH227632   1.714   0.648   4.193
 9223TIP3    H127633   1.743   0.730   4.233
 9223TIP3    H227634   1.654   0.610   4.258
 9224TIP3   OH227635   5.893   4.553   2.834
 9224TIP3    H127636   5.969   4.607   2.815
 9224TIP3    H227637   5.903   4.476   2.778
 9225TIP3   OH227638   5.643   5.253   5.417
 9225TIP3    H127639   5.668   5.341   5.444
 9225TIP3    H227640   5.552   5.245   5.445
 9226TIP3   OH227641   4.968   6.229   4.067
 9226TIP3    H127642   4.977   6.134   4.071
 9226TIP3    H227643   4.873   6.244   4.067
 9227TIP3   OH227644   1.175   3.418   3.442
 9227TIP3    H127645   1.242   3.358   3.409
 9227TIP3    H227646   1.102   3.408   3.381
 9228TIP3   OH227647   3.987   4.499   2.030
 9228TIP3    H127648   4.000   4.414   1.987
 9228TIP3    H227649   4.005   4.482   2.122
 9229TIP3   OH227650   4.526   4.005   2.631
 9229TIP3    H127651   4.509   3.915   2.656
 9229TIP3    H227652   4.540   4.051   2.713
 9230TIP3   OH227653   7.130   0.835   4.204
 9230TIP3    H127654   7.142   0.930   4.213
 9230TIP3    H227655   7.047   0.825   4.159
 9231TIP3   OH227656   3.886   3.843   2.213
 9231TIP3    H127657   3.966   3.804   2.246
 9231TIP3    H227658   3.881   3.928   2.257
 9232TIP3   OH227659   0.031   0.139   4.181
 9232TIP3    H127660   0.102   0.182   4.133
 9232TIP3    H227661   0.060   0.048   4.190
 9233TIP3   OH227662   1.976   1.439   3.473
 9233TIP3    H127663   1.934   1.388   3.404
 9233TIP3    H227664   1.931   1.412   3.553
 9234TIP3   OH227665   4.836   3.392   5.384
 9234TIP3    H127666   4.917   3.430   5.350
 9234TIP3    H227667   4.790   3.465   5.424
 9235TIP3   OH227668   3.771   1.430   2.531
 9235TIP3    H127669   3.786   1.510   2.583
 9235TIP3    H227670   3.675   1.420   2.531
 9236TIP3   OH227671   3.896   4.577   0.140
 9236TIP3    H127672   3.916   4.560   0.232
 9236TIP3    H227673   3.933   4.663   0.123
 9237TIP3   OH227674   0.131   2.777   1.056
 9237TIP3    H127675   0.054   2.833   1.065
 9237TIP3    H227676   0.120   2.710   1.125
 9238TIP3   OH227677   1.804   5.484   0.074
 9238TIP3    H127678   1.778   5.437  -0.005
 9238TIP3    H227679   1.732   5.544   0.093
 9239TIP3   OH227680   2.061   3.117   0.884
 9239TIP3    H127681   2.004   3.082   0.815
 9239TIP3    H227682   2.098   3.039   0.927
 9240TIP3   OH227683   3.720   0.336   1.361
 9240TIP3    H127684   3.649   0.391   1.394
 9240TIP3    H227685   3.777   0.324   1.437
 9241TIP3   OH227686   3.783   2.636   1.291
 9241TIP3    H127687   3.861   2.607   1.338
 9241TIP3    H227688   3.795   2.603   1.202
 9242TIP3   OH227689   1.420   5.997   2.207
 9242TIP3    H127690   1.400   6.081   2.166
 9242TIP3    H227691   1.336   5.964   2.237
 9243TIP3   OH227692   4.084   5.091   5.039
 9243TIP3    H127693   4.058   5.153   5.107
 9243TIP3    H227694   4.028   5.015   5.053
 9244TIP3   OH227695   0.058   0.699   1.308
 9244TIP3    H127696   0.028   0.616   1.270
 9244TIP3    H227697   0.152   0.701   1.290
 9245TIP3   OH227698   1.342   2.583   3.797
 9245TIP3    H127699   1.408   2.532   3.844
 9245TIP3    H227700   1.351   2.555   3.706
 9246TIP3   OH227701   6.608   6.188   0.949
 9246TIP3    H127702   6.669   6.260   0.940
 9246TIP3    H227703   6.656   6.111   0.918
 9247TIP3   OH227704   1.354   5.546   0.876
 9247TIP3    H127705   1.380   5.502   0.795
 9247TIP3    H227706   1.396   5.496   0.945
 9248TIP3   OH227707   6.687   1.230   5.803
 9248TIP3    H127708   6.726   1.164   5.745
 9248TIP3    H227709   6.653   1.297   5.743
 9249TIP3   OH227710   5.730   5.495   2.897
 9249TIP3    H127711   5.718   5.537   2.982
 9249TIP3    H227712   5.765   5.408   2.917
 9250TIP3   OH227713   3.159   3.677   3.748
 9250TIP3    H127714   3.186   3.586   3.738
 9250TIP3    H227715   3.145   3.689   3.842
 9251TIP3   OH227716   5.535   4.506   1.548
 9251TIP3    H127717   5.596   4.434   1.564
 9251TIP3    H227718   5.452   4.477   1.584
 9252TIP3   OH227719   6.642   3.517   1.950
 9252TIP3    H127720   6.555   3.528   1.913
 9252TIP3    H227721   6.627   3.476   2.035
 9253TIP3   OH227722   6.364   4.037   1.742
 9253TIP3    H127723   6.309   3.961   1.723
 9253TIP3    H227724   6.346   4.098   1.671
 9254TIP3   OH227725   5.677   5.564   4.816
 9254TIP3    H127726   5.596   5.590   4.860
 9254TIP3    H227727   5.666   5.471   4.798
 9255TIP3   OH227728   4.768   5.007   5.517
 9255TIP3    H127729   4.808   4.933   5.472
 9255TIP3    H227730   4.825   5.023   5.593
 9256TIP3   OH227731   5.697   3.998   5.876
 9256TIP3    H127732   5.681   3.922   5.820
 9256TIP3    H227733   5.738   4.062   5.818
 9257TIP3   OH227734   2.131   1.011   1.307
 9257TIP3    H127735   2.182   0.967   1.375
 9257TIP3    H227736   2.057   0.953   1.290
 9258TIP3   OH227737   4.770   3.277   1.427
 9258TIP3    H127738   4.687   3.229   1.420
 9258TIP3    H227739   4.790   3.277   1.520
 9259TIP3   OH227740   6.533   1.584   1.605
 9259TIP3    H127741   6.572   1.662   1.565
 9259TIP3    H227742   6.548   1.597   1.699
 9260TIP3   OH227743   6.571   1.205   2.594
 9260TIP3    H127744   6.665   1.188   2.593
 9260TIP3    H227745   6.553   1.240   2.681
 9261TIP3   OH227746   7.138   3.509   4.686
 9261TIP3    H127747   7.169   3.599   4.689
 9261TIP3    H227748   7.182   3.465   4.759
 9262TIP3   OH227749   0.740   2.137   5.549
 9262TIP3    H127750   0.735   2.075   5.476
 9262TIP3    H227751   0.681   2.208   5.524
 9263TIP3   OH227752   6.882   1.596   1.115
 9263TIP3    H127753   6.805   1.611   1.061
 9263TIP3    H227754   6.955   1.593   1.053
 9264TIP3   OH227755   6.011   4.033   1.794
 9264TIP3    H127756   6.013   4.019   1.889
 9264TIP3    H227757   6.018   4.128   1.783
 9265TIP3   OH227758   3.234   6.531   1.352
 9265TIP3    H127759   3.195   6.511   1.437
 9265TIP3    H227760   3.170   6.589   1.310
 9266TIP3   OH227761   3.121   2.457   3.004
 9266TIP3    H127762   3.090   2.396   2.937
 9266TIP3    H227763   3.118   2.543   2.963
 9267TIP3   OH227764   2.991   1.182   3.077
 9267TIP3    H127765   3.041   1.244   3.131
 9267TIP3    H227766   2.998   1.099   3.123
 9268TIP3   OH227767   6.865   3.433   3.584
 9268TIP3    H127768   6.920   3.398   3.514
 9268TIP3    H227769   6.781   3.387   3.574
 9269TIP3   OH227770   4.355   4.131   3.751
 9269TIP3    H127771   4.329   4.217   3.784
 9269TIP3    H227772   4.446   4.143   3.723
 9270TIP3   OH227773   3.897   4.266   4.154
 9270TIP3    H127774   3.878   4.172   4.150
 9270TIP3    H227775   3.829   4.302   4.210
 9271TIP3   OH227776   0.359   5.598   5.830
 9271TIP3    H127777   0.359   5.617   5.736
 9271TIP3    H227778   0.371   5.504   5.836
 9272TIP3   OH227779   3.497   6.106   3.246
 9272TIP3    H127780   3.536   6.051   3.178
 9272TIP3    H227781   3.450   6.174   3.197
 9273TIP3   OH227782   2.543   5.544   5.518
 9273TIP3    H127783   2.592   5.541   5.600
 9273TIP3    H227784   2.530   5.638   5.502
 9274TIP3   OH227785   2.429   6.377   1.480
 9274TIP3    H127786   2.434   6.395   1.574
 9274TIP3    H227787   2.520   6.359   1.454
 9275TIP3   OH227788   4.565   5.971   3.210
 9275TIP3    H127789   4.504   5.922   3.265
 9275TIP3    H227790   4.644   5.916   3.208
 9276TIP3   OH227791   2.646   6.433   5.740
 9276TIP3    H127792   2.646   6.431   5.836
 9276TIP3    H227793   2.556   6.454   5.716
 9277TIP3   OH227794   1.796   3.050   3.010
 9277TIP3    H127795   1.891   3.055   3.025
 9277TIP3    H227796   1.788   2.993   2.933
 9278TIP3   OH227797   3.803   5.811   2.017
 9278TIP3    H127798   3.849   5.729   2.003
 9278TIP3    H227799   3.739   5.815   1.946
 9279TIP3   OH227800   6.473   5.163   5.754
 9279TIP3    H127801   6.450   5.253   5.779
 9279TIP3    H227802   6.553   5.145   5.804
 9280TIP3   OH227803   0.940   0.152   0.475
 9280TIP3    H127804   0.895   0.104   0.545
 9280TIP3    H227805   1.027   0.171   0.511
 9281TIP3   OH227806   4.459   2.452   2.780
 9281TIP3    H127807   4.528   2.516   2.759
 9281TIP3    H227808   4.421   2.485   2.861
 9282TIP3   OH227809   0.757   2.903   3.416
 9282TIP3    H127810   0.722   2.961   3.484
 9282TIP3    H227811   0.701   2.919   3.339
 9283TIP3   OH227812   1.157   0.374   1.102
 9283TIP3    H127813   1.193   0.410   1.021
 9283TIP3    H227814   1.080   0.324   1.073
 9284TIP3   OH227815   3.331   2.380   4.550
 9284TIP3    H127816   3.300   2.369   4.460
 9284TIP3    H227817   3.394   2.309   4.562
 9285TIP3   OH227818   1.517   2.787   5.820
 9285TIP3    H127819   1.537   2.877   5.845
 9285TIP3    H227820   1.602   2.742   5.820
 9286TIP3   OH227821   0.037   1.138   3.219
 9286TIP3    H127822  -0.024   1.192   3.269
 9286TIP3    H227823   0.122   1.182   3.229
 9287TIP3   OH227824   1.704   2.998   1.912
 9287TIP3    H127825   1.708   2.943   1.991
 9287TIP3    H227826   1.759   2.951   1.849
 9288TIP3   OH227827   4.137   3.315   0.483
 9288TIP3    H127828   4.108   3.288   0.396
 9288TIP3    H227829   4.232   3.304   0.481
 9289TIP3   OH227830   5.540   1.385   1.735
 9289TIP3    H127831   5.489   1.329   1.676
 9289TIP3    H227832   5.631   1.364   1.716
 9290TIP3   OH227833   5.594   3.672   2.115
 9290TIP3    H127834   5.598   3.702   2.206
 9290TIP3    H227835   5.581   3.751   2.064
 9291TIP3   OH227836   3.952   6.394   3.147
 9291TIP3    H127837   3.976   6.375   3.237
 9291TIP3    H227838   4.003   6.332   3.095
 9292TIP3   OH227839   6.745   6.119   0.302
 9292TIP3    H127840   6.655   6.151   0.311
 9292TIP3    H227841   6.787   6.141   0.385
 9293TIP3   OH227842   0.712   3.497   0.390
 9293TIP3    H127843   0.714   3.531   0.479
 9293TIP3    H227844   0.714   3.401   0.401
 9294TIP3   OH227845   4.456   1.324   0.470
 9294TIP3    H127846   4.542   1.282   0.466
 9294TIP3    H227847   4.438   1.349   0.379
 9295TIP3   OH227848   4.498   3.243   0.792
 9295TIP3    H127849   4.491   3.147   0.794
 9295TIP3    H227850   4.460   3.271   0.876
 9296TIP3   OH227851   6.899   0.402   5.568
 9296TIP3    H127852   6.964   0.370   5.505
 9296TIP3    H227853   6.819   0.411   5.517
 9297TIP3   OH227854   0.873   5.234   0.753
 9297TIP3    H127855   0.957   5.190   0.766
 9297TIP3    H227856   0.817   5.197   0.821
 9298TIP3   OH227857   6.330   4.872   3.790
 9298TIP3    H127858   6.330   4.860   3.695
 9298TIP3    H227859   6.420   4.895   3.811
 9299TIP3   OH227860   5.568   1.238   5.403
 9299TIP3    H127861   5.615   1.185   5.467
 9299TIP3    H227862   5.596   1.203   5.318
 9300TIP3   OH227863   1.576   6.150   0.261
 9300TIP3    H127864   1.535   6.073   0.221
 9300TIP3    H227865   1.517   6.222   0.238
 9301TIP3   OH227866   3.310   4.995   0.890
 9301TIP3    H127867   3.242   4.939   0.852
 9301TIP3    H227868   3.284   5.005   0.982
 9302TIP3   OH227869   6.422   3.421   4.559
 9302TIP3    H127870   6.410   3.328   4.575
 9302TIP3    H227871   6.420   3.430   4.464
 9303TIP3   OH227872   4.453   1.516   3.829
 9303TIP3    H127873   4.534   1.548   3.870
 9303TIP3    H227874   4.386   1.578   3.856
 9304TIP3   OH227875   7.175   4.067   2.390
 9304TIP3    H127876   7.212   3.988   2.429
 9304TIP3    H227877   7.239   4.135   2.410
 9305TIP3   OH227878   6.201   4.509   1.444
 9305TIP3    H127879   6.287   4.495   1.404
 9305TIP3    H227880   6.191   4.437   1.506
 9306TIP3   OH227881   6.934   4.297   1.810
 9306TIP3    H127882   6.914   4.294   1.716
 9306TIP3    H227883   7.005   4.233   1.821
 9307TIP3   OH227884   6.294   2.540   2.616
 9307TIP3    H127885   6.351   2.583   2.679
 9307TIP3    H227886   6.236   2.485   2.669
 9308TIP3   OH227887   4.227   4.082   2.650
 9308TIP3    H127888   4.302   4.027   2.671
 9308TIP3    H227889   4.256   4.137   2.577
 9309TIP3   OH227890   4.556   3.156   1.166
 9309TIP3    H127891   4.477   3.110   1.136
 9309TIP3    H227892   4.626   3.093   1.154
 9310TIP3   OH227893   0.131   2.435   1.723
 9310TIP3    H127894   0.108   2.377   1.795
 9310TIP3    H227895   0.075   2.512   1.737
 9311TIP3   OH227896   6.651   4.878   1.572
 9311TIP3    H127897   6.641   4.967   1.537
 9311TIP3    H227898   6.746   4.866   1.578
 9312TIP3   OH227899   4.632   1.463   2.663
 9312TIP3    H127900   4.633   1.373   2.629
 9312TIP3    H227901   4.579   1.457   2.743
 9313TIP3   OH227902   3.592   6.007   2.736
 9313TIP3    H127903   3.542   6.009   2.654
 9313TIP3    H227904   3.668   6.062   2.718
 9314TIP3   OH227905   2.632   6.305   4.732
 9314TIP3    H127906   2.629   6.243   4.659
 9314TIP3    H227907   2.541   6.312   4.762
 9315TIP3   OH227908   3.004   5.239   0.066
 9315TIP3    H127909   2.932   5.186   0.032
 9315TIP3    H227910   3.083   5.196   0.033
 9316TIP3   OH227911   3.367   4.476   2.735
 9316TIP3    H127912   3.375   4.569   2.756
 9316TIP3    H227913   3.280   4.452   2.768
 9317TIP3   OH227914   0.193   5.660   1.624
 9317TIP3    H127915   0.210   5.574   1.662
 9317TIP3    H227916   0.279   5.693   1.598
 9318TIP3   OH227917   1.613   2.073   4.356
 9318TIP3    H127918   1.659   2.154   4.336
 9318TIP3    H227919   1.681   2.005   4.354
 9319TIP3   OH227920   1.419   3.828   3.776
 9319TIP3    H127921   1.327   3.852   3.769
 9319TIP3    H227922   1.427   3.748   3.724
 9320TIP3   OH227923   5.937   6.343   0.142
 9320TIP3    H127924   5.991   6.392   0.081
 9320TIP3    H227925   5.855   6.392   0.146
 9321TIP3   OH227926   0.625   4.157   3.843
 9321TIP3    H127927   0.571   4.125   3.915
 9321TIP3    H227928   0.592   4.245   3.825
 9322TIP3   OH227929   5.038   1.496   2.413
 9322TIP3    H127930   5.076   1.483   2.326
 9322TIP3    H227931   5.111   1.481   2.473
 9323TIP3   OH227932   0.215   3.221   1.783
 9323TIP3    H127933   0.228   3.181   1.869
 9323TIP3    H227934   0.257   3.160   1.722
 9324TIP3   OH227935   1.065   4.414   3.028
 9324TIP3    H127936   1.072   4.338   2.972
 9324TIP3    H227937   1.109   4.484   2.980
 9325TIP3   OH227938   5.742   2.482   1.253
 9325TIP3    H127939   5.780   2.423   1.189
 9325TIP3    H227940   5.802   2.480   1.327
 9326TIP3   OH227941   3.590   4.927   2.458
 9326TIP3    H127942   3.619   5.017   2.441
 9326TIP3    H227943   3.667   4.873   2.439
 9327TIP3   OH227944   1.802   3.590   2.553
 9327TIP3    H127945   1.889   3.584   2.594
 9327TIP3    H227946   1.774   3.680   2.569
 9328TIP3   OH227947   0.568   4.659   3.345
 9328TIP3    H127948   0.514   4.602   3.291
 9328TIP3    H227949   0.635   4.693   3.285
 9329TIP3   OH227950   5.074   0.809   2.870
 9329TIP3    H127951   5.064   0.844   2.958
 9329TIP3    H227952   5.040   0.877   2.812
 9330TIP3   OH227953   1.015   0.524   4.203
 9330TIP3    H127954   1.025   0.605   4.253
 9330TIP3    H227955   1.098   0.512   4.158
 9331TIP3   OH227956   5.573   6.776   1.756
 9331TIP3    H127957   5.619   6.783   1.673
 9331TIP3    H227958   5.591   6.858   1.801
 9332TIP3   OH227959   5.851   3.768   3.760
 9332TIP3    H127960   5.909   3.800   3.829
 9332TIP3    H227961   5.839   3.844   3.702
 9333TIP3   OH227962   1.495   5.439   3.624
 9333TIP3    H127963   1.438   5.516   3.632
 9333TIP3    H227964   1.543   5.436   3.706
 9334TIP3   OH227965   5.847   6.778   5.419
 9334TIP3    H127966   5.860   6.826   5.337
 9334TIP3    H227967   5.794   6.702   5.394
 9335TIP3   OH227968   0.390   4.649   0.627
 9335TIP3    H127969   0.359   4.725   0.676
 9335TIP3    H227970   0.415   4.684   0.541
 9336TIP3   OH227971  -0.004   6.492   1.626
 9336TIP3    H127972  -0.050   6.443   1.693
 9336TIP3    H227973   0.085   6.455   1.626
 9337TIP3   OH227974   1.056   3.264   1.990
 9337TIP3    H127975   1.043   3.306   1.905
 9337TIP3    H227976   0.968   3.263   2.029
 9338TIP3   OH227977   5.321   6.694   0.443
 9338TIP3    H127978   5.408   6.662   0.468
 9338TIP3    H227979   5.287   6.626   0.385
 9339TIP3   OH227980   6.294   1.775   5.021
 9339TIP3    H127981   6.375   1.823   5.041
 9339TIP3    H227982   6.276   1.725   5.101
 9340TIP3   OH227983   4.912   0.516   2.592
 9340TIP3    H127984   4.883   0.445   2.535
 9340TIP3    H227985   4.999   0.540   2.559
 9341TIP3   OH227986   1.820   2.662   2.411
 9341TIP3    H127987   1.880   2.712   2.465
 9341TIP3    H227988   1.853   2.672   2.322
 9342TIP3   OH227989   3.413   4.509   1.824
 9342TIP3    H127990   3.487   4.569   1.819
 9342TIP3    H227991   3.385   4.514   1.916
 9343TIP3   OH227992   1.886   1.424   2.170
 9343TIP3    H127993   1.908   1.490   2.105
 9343TIP3    H227994   1.946   1.440   2.243
 9344TIP3   OH227995   0.617   3.764   2.771
 9344TIP3    H127996   0.523   3.781   2.781
 9344TIP3    H227997   0.646   3.828   2.706
 9345TIP3   OH227998   1.737   5.197   5.545
 9345TIP3    H127999   1.831   5.182   5.537
 9345TIP3    H228000   1.710   5.141   5.618
 9346TIP3   OH228001   5.174   0.218   5.393
 9346TIP3    H128002   5.239   0.289   5.394
 9346TIP3    H228003   5.112   0.241   5.461
 9347TIP3   OH228004   6.649   2.765   5.035
 9347TIP3    H128005   6.560   2.801   5.034
 9347TIP3    H228006   6.683   2.788   5.122
 9348TIP3   OH228007   1.229   4.682   0.936
 9348TIP3    H128008   1.146   4.729   0.920
 9348TIP3    H228009   1.203   4.590   0.945
 9349TIP3   OH228010   6.572   3.933   2.133
 9349TIP3    H128011   6.649   3.877   2.125
 9349TIP3    H228012   6.602   4.008   2.184
 9350TIP3   OH228013   2.687   0.296   2.999
 9350TIP3    H128014   2.695   0.216   2.948
 9350TIP3    H228015   2.725   0.274   3.084
 9351TIP3   OH228016   3.390   0.620   4.282
 9351TIP3    H128017   3.295   0.632   4.279
 9351TIP3    H228018   3.403   0.529   4.254
 9352TIP3   OH228019   5.774   0.280   1.280
 9352TIP3    H128020   5.837   0.344   1.245
 9352TIP3    H228021   5.760   0.219   1.207
 9353TIP3   OH228022   1.989   6.514   0.374
 9353TIP3    H128023   2.054   6.509   0.444
 9353TIP3    H228024   2.024   6.459   0.304
 9354TIP3   OH228025   5.679   0.289   4.886
 9354TIP3    H128026   5.749   0.253   4.831
 9354TIP3    H228027   5.635   0.213   4.922
 9355TIP3   OH228028   0.870   2.748   3.767
 9355TIP3    H128029   0.901   2.838   3.760
 9355TIP3    H228030   0.868   2.730   3.861
 9356TIP3   OH228031   1.898   1.021   2.552
 9356TIP3    H128032   1.988   0.992   2.568
 9356TIP3    H228033   1.851   0.941   2.530
 9357TIP3   OH228034   1.821   0.116   5.288
 9357TIP3    H128035   1.869   0.163   5.220
 9357TIP3    H228036   1.811   0.027   5.254
 9358TIP3   OH228037   6.561   2.358   2.629
 9358TIP3    H128038   6.550   2.404   2.546
 9358TIP3    H228039   6.604   2.421   2.686
 9359TIP3   OH228040   1.935   2.138   4.986
 9359TIP3    H128041   1.979   2.223   4.983
 9359TIP3    H228042   1.887   2.139   5.069
 9360TIP3   OH228043   0.555   0.881   4.693
 9360TIP3    H128044   0.576   0.908   4.782
 9360TIP3    H228045   0.518   0.960   4.652
 9361TIP3   OH228046   6.960   3.948   0.955
 9361TIP3    H128047   6.956   4.021   1.018
 9361TIP3    H228048   7.043   3.905   0.974
 9362TIP3   OH228049   5.311   6.090   2.387
 9362TIP3    H128050   5.221   6.057   2.394
 9362TIP3    H228051   5.337   6.108   2.477
 9363TIP3   OH228052   3.220   2.703   4.425
 9363TIP3    H128053   3.215   2.692   4.519
 9363TIP3    H228054   3.306   2.669   4.401
 9364TIP3   OH228055   5.402   1.290   3.290
 9364TIP3    H128056   5.390   1.379   3.323
 9364TIP3    H228057   5.497   1.278   3.289
 9365TIP3   OH228058   2.327   4.039   2.981
 9365TIP3    H128059   2.257   4.093   2.945
 9365TIP3    H228060   2.283   3.960   3.014
 9366TIP3   OH228061   1.284   3.901   4.574
 9366TIP3    H128062   1.192   3.876   4.578
 9366TIP3    H228063   1.330   3.821   4.552
 9367TIP3   OH228064   2.930   2.445   4.356
 9367TIP3    H128065   2.899   2.458   4.267
 9367TIP3    H228066   2.923   2.532   4.397
 9368TIP3   OH228067   5.797   2.567   0.739
 9368TIP3    H128068   5.865   2.570   0.807
 9368TIP3    H228069   5.846   2.559   0.657
 9369TIP3   OH228070   4.295   6.398   0.200
 9369TIP3    H128071   4.355   6.352   0.143
 9369TIP3    H228072   4.270   6.477   0.151
 9370TIP3   OH228073   4.965   6.216   4.360
 9370TIP3    H128074   4.951   6.219   4.266
 9370TIP3    H228075   4.928   6.298   4.393
 9371TIP3   OH228076   5.467   2.878   4.094
 9371TIP3    H128077   5.390   2.928   4.121
 9371TIP3    H228078   5.431   2.797   4.058
 9372TIP3   OH228079   1.762   1.883   3.249
 9372TIP3    H128080   1.846   1.873   3.203
 9372TIP3    H228081   1.697   1.884   3.179
 9373TIP3   OH228082   2.945   5.218   0.800
 9373TIP3    H128083   2.964   5.269   0.879
 9373TIP3    H228084   2.929   5.130   0.833
 9374TIP3   OH228085   4.855   2.395   2.137
 9374TIP3    H128086   4.811   2.331   2.192
 9374TIP3    H228087   4.946   2.396   2.169
 9375TIP3   OH228088   6.605   2.532   0.130
 9375TIP3    H128089   6.570   2.576   0.207
 9375TIP3    H228090   6.637   2.602   0.074
 9376TIP3   OH228091   5.533   0.045   3.500
 9376TIP3    H128092   5.596   0.116   3.510
 9376TIP3    H228093   5.533   0.000   3.584
 9377TIP3   OH228094   6.124   5.933   2.016
 9377TIP3    H128095   6.113   5.839   2.007
 9377TIP3    H228096   6.034   5.966   2.024
 9378TIP3   OH228097   7.193   3.060   2.035
 9378TIP3    H128098   7.191   3.151   2.005
 9378TIP3    H228099   7.197   3.065   2.130
 9379TIP3   OH228100   6.851   2.125   4.984
 9379TIP3    H128101   6.818   2.039   4.960
 9379TIP3    H228102   6.821   2.183   4.914
 9380TIP3   OH228103   0.765   2.523   3.924
 9380TIP3    H128104   0.764   2.551   3.832
 9380TIP3    H228105   0.694   2.458   3.930
 9381TIP3   OH228106   5.681   1.560   0.694
 9381TIP3    H128107   5.769   1.536   0.665
 9381TIP3    H228108   5.683   1.655   0.703
 9382TIP3   OH228109   2.385   3.997   5.260
 9382TIP3    H128110   2.443   3.960   5.327
 9382TIP3    H228111   2.385   4.091   5.277
 9383TIP3   OH228112   6.394   5.921   5.671
 9383TIP3    H128113   6.337   5.998   5.671
 9383TIP3    H228114   6.334   5.847   5.659
 9384TIP3   OH228115   4.535   0.251   5.205
 9384TIP3    H128116   4.590   0.329   5.198
 9384TIP3    H228117   4.595   0.178   5.192
 9385TIP3   OH228118   0.572   4.274   0.056
 9385TIP3    H128119   0.624   4.205   0.097
 9385TIP3    H228120   0.571   4.345   0.121
 9386TIP3   OH228121   0.500   4.017   2.311
 9386TIP3    H128122   0.556   4.030   2.235
 9386TIP3    H228123   0.553   3.965   2.371
 9387TIP3   OH228124   0.955   5.971   2.238
 9387TIP3    H128125   1.042   5.986   2.275
 9387TIP3    H228126   0.924   5.891   2.279
 9388TIP3   OH228127   3.822   0.357   1.100
 9388TIP3    H128128   3.758   0.333   1.033
 9388TIP3    H228129   3.773   0.355   1.182
 9389TIP3   OH228130   1.251   6.705   0.536
 9389TIP3    H128131   1.205   6.660   0.607
 9389TIP3    H228132   1.197   6.781   0.516
 9390TIP3   OH228133   0.229   3.613   4.623
 9390TIP3    H128134   0.190   3.664   4.694
 9390TIP3    H228135   0.267   3.536   4.666
 9391TIP3   OH228136   1.923   6.122   5.842
 9391TIP3    H128137   1.940   6.172   5.763
 9391TIP3    H228138   2.010   6.108   5.881
 9392TIP3   OH228139   1.916   6.044   2.458
 9392TIP3    H128140   1.899   6.129   2.498
 9392TIP3    H228141   2.011   6.034   2.460
 9393TIP3   OH228142   2.575   6.090   2.286
 9393TIP3    H128143   2.503   6.147   2.260
 9393TIP3    H228144   2.611   6.130   2.364
 9394TIP3   OH228145   6.888   1.334   3.019
 9394TIP3    H128146   6.957   1.351   2.956
 9394TIP3    H228147   6.863   1.420   3.052
 9395TIP3   OH228148   3.225   5.629   1.517
 9395TIP3    H128149   3.223   5.722   1.494
 9395TIP3    H228150   3.165   5.622   1.591
 9396TIP3   OH228151   7.130   4.533   4.081
 9396TIP3    H128152   7.138   4.575   4.167
 9396TIP3    H228153   7.208   4.560   4.034
 9397TIP3   OH228154   3.757   4.289   1.681
 9397TIP3    H128155   3.709   4.281   1.763
 9397TIP3    H228156   3.697   4.333   1.622
 9398TIP3   OH228157   1.008   2.949   1.660
 9398TIP3    H128158   1.094   2.937   1.621
 9398TIP3    H228159   1.026   2.962   1.753
 9399TIP3   OH228160   1.566   3.023   5.252
 9399TIP3    H128161   1.586   2.930   5.262
 9399TIP3    H228162   1.550   3.034   5.159
 9400TIP3   OH228163   2.322   5.443   4.857
 9400TIP3    H128164   2.366   5.363   4.830
 9400TIP3    H228165   2.393   5.506   4.871
 9401TIP3   OH228166   5.316   2.795   5.536
 9401TIP3    H128167   5.236   2.764   5.494
 9401TIP3    H228168   5.287   2.864   5.596
 9402TIP3   OH228169   4.742   5.855   5.859
 9402TIP3    H128170   4.743   5.830   5.766
 9402TIP3    H228171   4.749   5.950   5.859
 9403TIP3   OH228172   4.307   2.574   4.927
 9403TIP3    H128173   4.257   2.492   4.933
 9403TIP3    H228174   4.371   2.568   4.998
 9404TIP3   OH228175   0.241   1.701   2.892
 9404TIP3    H128176   0.176   1.633   2.907
 9404TIP3    H228177   0.205   1.778   2.937
 9405TIP3   OH228178   6.322   0.000   4.021
 9405TIP3    H128179   6.397  -0.006   4.080
 9405TIP3    H228180   6.314   0.093   4.001
 9406TIP3   OH228181   6.881   4.460   0.463
 9406TIP3    H128182   6.949   4.490   0.523
 9406TIP3    H228183   6.898   4.366   0.454
 9407TIP3   OH228184   0.754   3.612   0.639
 9407TIP3    H128185   0.833   3.664   0.647
 9407TIP3    H228186   0.766   3.540   0.702
 9408TIP3   OH228187   5.127   6.006   4.770
 9408TIP3    H128188   5.191   5.961   4.825
 9408TIP3    H228189   5.125   5.954   4.689
 9409TIP3   OH228190   5.286   2.136   3.302
 9409TIP3    H128191   5.291   2.098   3.390
 9409TIP3    H228192   5.218   2.204   3.309
 9410TIP3   OH228193   5.461   2.338   1.654
 9410TIP3    H128194   5.489   2.246   1.657
 9410TIP3    H228195   5.365   2.333   1.654
 9411TIP3   OH228196   1.716   1.554   0.679
 9411TIP3    H128197   1.738   1.615   0.749
 9411TIP3    H228198   1.777   1.577   0.608
 9412TIP3   OH228199   2.005   3.371   0.074
 9412TIP3    H128200   2.086   3.358   0.025
 9412TIP3    H228201   1.972   3.282   0.088
 9413TIP3   OH228202   5.923   0.557   3.189
 9413TIP3    H128203   5.843   0.517   3.156
 9413TIP3    H228204   5.960   0.492   3.248
 9414TIP3   OH228205   2.677   3.088   0.113
 9414TIP3    H128206   2.676   2.998   0.145
 9414TIP3    H228207   2.701   3.141   0.190
 9415TIP3   OH228208   6.090   3.636   0.566
 9415TIP3    H128209   6.095   3.669   0.476
 9415TIP3    H228210   6.145   3.695   0.617
 9416TIP3   OH228211   4.737   0.385   1.330
 9416TIP3    H128212   4.807   0.329   1.296
 9416TIP3    H228213   4.665   0.324   1.350
 9417TIP3   OH228214   3.143   0.545   3.012
 9417TIP3    H128215   3.227   0.518   2.974
 9417TIP3    H228216   3.148   0.641   3.014
 9418TIP3   OH228217  -0.011   5.453   2.158
 9418TIP3    H128218   0.075   5.489   2.178
 9418TIP3    H228219  -0.001   5.413   2.071
 9419TIP3   OH228220   5.016   3.794   4.063
 9419TIP3    H128221   5.009   3.886   4.087
 9419TIP3    H228222   5.031   3.795   3.968
 9420TIP3   OH228223   0.651   1.061   0.470
 9420TIP3    H128224   0.659   0.991   0.406
 9420TIP3    H228225   0.742   1.083   0.492
 9421TIP3   OH228226   6.950   1.136   0.590
 9421TIP3    H128227   6.925   1.225   0.616
 9421TIP3    H228228   6.867   1.093   0.570
 9422TIP3   OH228229   5.965   0.746   0.885
 9422TIP3    H128230   5.892   0.803   0.864
 9422TIP3    H228231   5.981   0.696   0.805
 9423TIP3   OH228232   5.326   3.566   3.882
 9423TIP3    H128233   5.330   3.587   3.789
 9423TIP3    H228234   5.402   3.609   3.920
 9424TIP3   OH228235   4.648   4.131   2.050
 9424TIP3    H128236   4.577   4.190   2.024
 9424TIP3    H228237   4.615   4.088   2.130
 9425TIP3   OH228238   4.313   3.881   1.491
 9425TIP3    H128239   4.247   3.828   1.537
 9425TIP3    H228240   4.366   3.817   1.444
 9426TIP3   OH228241   6.618   2.276   3.080
 9426TIP3    H128242   6.542   2.268   3.023
 9426TIP3    H228243   6.636   2.370   3.083
 9427TIP3   OH228244   5.629   4.498   2.578
 9427TIP3    H128245   5.670   4.459   2.501
 9427TIP3    H228246   5.542   4.458   2.582
 9428TIP3   OH228247   0.852   6.357   1.366
 9428TIP3    H128248   0.791   6.377   1.437
 9428TIP3    H228249   0.806   6.386   1.286
 9429TIP3   OH228250   0.145   0.069   3.089
 9429TIP3    H128251   0.206   0.092   3.159
 9429TIP3    H228252   0.171   0.125   3.015
 9430TIP3   OH228253   0.935   6.643   4.133
 9430TIP3    H128254   1.027   6.637   4.160
 9430TIP3    H228255   0.896   6.703   4.197
 9431TIP3   OH228256   3.285   0.130   2.794
 9431TIP3    H128257   3.346   0.144   2.867
 9431TIP3    H228258   3.324   0.057   2.745
 9432TIP3   OH228259   5.632   3.109   1.251
 9432TIP3    H128260   5.605   3.046   1.185
 9432TIP3    H228261   5.649   3.190   1.202
 9433TIP3   OH228262   1.484   3.681   4.925
 9433TIP3    H128263   1.527   3.741   4.986
 9433TIP3    H228264   1.546   3.609   4.914
 9434TIP3   OH228265   0.578   5.481   4.853
 9434TIP3    H128266   0.653   5.529   4.887
 9434TIP3    H228267   0.615   5.400   4.817
 9435TIP3   OH228268   1.590   5.137   2.813
 9435TIP3    H128269   1.570   5.127   2.720
 9435TIP3    H228270   1.523   5.196   2.845
 9436TIP3   OH228271   3.425   5.156   4.471
 9436TIP3    H128272   3.372   5.176   4.394
 9436TIP3    H228273   3.368   5.175   4.545
 9437TIP3   OH228274   4.747   0.202   2.819
 9437TIP3    H128275   4.822   0.172   2.767
 9437TIP3    H228276   4.784   0.226   2.903
 9438TIP3   OH228277   4.625   2.561   1.482
 9438TIP3    H128278   4.673   2.554   1.564
 9438TIP3    H228279   4.679   2.513   1.419
 9439TIP3   OH228280   1.771   0.100  -0.011
 9439TIP3    H128281   1.725   0.061   0.063
 9439TIP3    H228282   1.705   0.153  -0.056
 9440TIP3   OH228283   0.267   1.095   2.683
 9440TIP3    H128284   0.339   1.156   2.699
 9440TIP3    H228285   0.252   1.053   2.767
 9441TIP3   OH228286   1.836   1.454   4.274
 9441TIP3    H128287   1.872   1.439   4.187
 9441TIP3    H228288   1.816   1.547   4.276
 9442TIP3   OH228289   6.820   1.207   3.957
 9442TIP3    H128290   6.900   1.158   3.975
 9442TIP3    H228291   6.769   1.201   4.037
 9443TIP3   OH228292   3.463   5.601   0.184
 9443TIP3    H128293   3.557   5.618   0.177
 9443TIP3    H228294   3.425   5.649   0.110
 9444TIP3   OH228295   1.072   1.421   1.334
 9444TIP3    H128296   1.146   1.452   1.384
 9444TIP3    H228297   1.025   1.500   1.307
 9445TIP3   OH228298   0.922   6.786   0.733
 9445TIP3    H128299   0.957   6.702   0.763
 9445TIP3    H228300   0.945   6.848   0.802
 9446TIP3   OH228301   0.927   2.516   1.485
 9446TIP3    H128302   0.842   2.479   1.507
 9446TIP3    H228303   0.911   2.608   1.467
 9447TIP3   OH228304   5.557   4.773   1.154
 9447TIP3    H128305   5.609   4.711   1.205
 9447TIP3    H228306   5.621   4.832   1.115
 9448TIP3   OH228307   5.693   5.757   4.624
 9448TIP3    H128308   5.661   5.828   4.680
 9448TIP3    H228309   5.701   5.682   4.683
 9449TIP3   OH228310   5.377   1.117   0.754
 9449TIP3    H128311   5.354   1.045   0.694
 9449TIP3    H228312   5.331   1.096   0.835
 9450TIP3   OH228313   2.558   0.189   5.220
 9450TIP3    H128314   2.506   0.187   5.300
 9450TIP3    H228315   2.506   0.240   5.158
 9451TIP3   OH228316   4.371   5.475   4.670
 9451TIP3    H128317   4.424   5.396   4.667
 9451TIP3    H228318   4.390   5.513   4.756
 9452TIP3   OH228319   7.165   2.051   0.572
 9452TIP3    H128320   7.203   2.048   0.660
 9452TIP3    H228321   7.076   2.084   0.585
 9453TIP3   OH228322   1.338   2.389   3.575
 9453TIP3    H128323   1.335   2.372   3.481
 9453TIP3    H228324   1.396   2.322   3.610
 9454TIP3   OH228325   4.368   5.616   4.438
 9454TIP3    H128326   4.455   5.632   4.403
 9454TIP3    H228327   4.382   5.561   4.515
 9455TIP3   OH228328   3.439   0.923   5.686
 9455TIP3    H128329   3.451   0.828   5.674
 9455TIP3    H228330   3.394   0.951   5.606
 9456TIP3   OH228331   4.309   4.925   0.612
 9456TIP3    H128332   4.327   4.895   0.701
 9456TIP3    H228333   4.390   4.907   0.564
 9457TIP3   OH228334   3.776   0.443   5.704
 9457TIP3    H128335   3.686   0.470   5.687
 9457TIP3    H228336   3.828   0.489   5.639
 9458TIP3   OH228337   4.555   5.094   1.978
 9458TIP3    H128338   4.562   5.082   2.073
 9458TIP3    H228339   4.483   5.036   1.953
 9459TIP3   OH228340   5.945   4.854   4.681
 9459TIP3    H128341   6.013   4.838   4.615
 9459TIP3    H228342   5.994   4.865   4.763
 9460TIP3   OH228343   0.410   3.577   3.288
 9460TIP3    H128344   0.488   3.628   3.266
 9460TIP3    H228345   0.339   3.620   3.240
 9461TIP3   OH228346   4.001   5.334   0.402
 9461TIP3    H128347   4.051   5.407   0.437
 9461TIP3    H228348   4.007   5.344   0.307
 9462TIP3   OH228349   6.465   4.673   5.417
 9462TIP3    H128350   6.460   4.603   5.352
 9462TIP3    H228351   6.482   4.752   5.366
 9463TIP3   OH228352   1.784   3.920   3.633
 9463TIP3    H128353   1.831   3.906   3.715
 9463TIP3    H228354   1.723   3.991   3.652
 9464TIP3   OH228355   1.958   3.895   1.697
 9464TIP3    H128356   2.009   3.973   1.679
 9464TIP3    H228357   1.986   3.867   1.784
 9465TIP3   OH228358   6.320   0.642   1.540
 9465TIP3    H128359   6.301   0.667   1.450
 9465TIP3    H228360   6.234   0.642   1.583
 9466TIP3   OH228361   1.660   4.194   0.013
 9466TIP3    H128362   1.677   4.121   0.071
 9466TIP3    H228363   1.739   4.248   0.019
 9467TIP3   OH228364   0.198   4.030   3.952
 9467TIP3    H128365   0.153   4.042   4.036
 9467TIP3    H228366   0.191   3.937   3.935
 9468TIP3   OH228367   6.441   2.234   2.840
 9468TIP3    H128368   6.507   2.264   2.777
 9468TIP3    H228369   6.387   2.311   2.857
 9469TIP3   OH228370   6.927   5.134   1.468
 9469TIP3    H128371   6.890   5.199   1.529
 9469TIP3    H228372   6.972   5.187   1.402
 9470TIP3   OH228373   6.279   5.009   5.641
 9470TIP3    H128374   6.204   5.051   5.683
 9470TIP3    H228375   6.354   5.035   5.694
 9471TIP3   OH228376   6.410   3.200   2.458
 9471TIP3    H128377   6.361   3.173   2.536
 9471TIP3    H228378   6.343   3.232   2.398
 9472TIP3   OH228379   6.450   0.386   0.420
 9472TIP3    H128380   6.464   0.291   0.413
 9472TIP3    H228381   6.522   0.424   0.370
 9473TIP3   OH228382   3.076   1.678   4.203
 9473TIP3    H128383   3.082   1.608   4.267
 9473TIP3    H228384   3.090   1.635   4.119
 9474TIP3   OH228385   3.702   2.670   2.597
 9474TIP3    H128386   3.756   2.716   2.661
 9474TIP3    H228387   3.618   2.657   2.641
 9475TIP3   OH228388   0.677   5.601   3.465
 9475TIP3    H128389   0.605   5.660   3.484
 9475TIP3    H228390   0.664   5.577   3.373
 9476TIP3   OH228391   3.528   4.624   4.062
 9476TIP3    H128392   3.435   4.649   4.066
 9476TIP3    H228393   3.537   4.580   3.977
 9477TIP3   OH228394   4.868   0.198   4.908
 9477TIP3    H128395   4.787   0.248   4.892
 9477TIP3    H228396   4.888   0.214   5.000
 9478TIP3   OH228397   0.477   4.254   5.243
 9478TIP3    H128398   0.458   4.180   5.302
 9478TIP3    H228399   0.462   4.219   5.155
 9479TIP3   OH228400   0.282   6.090   0.792
 9479TIP3    H128401   0.273   6.115   0.884
 9479TIP3    H228402   0.311   5.999   0.795
 9480TIP3   OH228403   3.129   5.550   4.511
 9480TIP3    H128404   3.204   5.520   4.459
 9480TIP3    H228405   3.161   5.626   4.559
 9481TIP3   OH228406   2.459   0.144   2.191
 9481TIP3    H128407   2.372   0.121   2.160
 9481TIP3    H228408   2.510   0.063   2.184
 9482TIP3   OH228409   5.812   0.905   1.984
 9482TIP3    H128410   5.827   0.817   1.949
 9482TIP3    H228411   5.778   0.890   2.072
 9483TIP3   OH228412   6.083   4.689   3.615
 9483TIP3    H128413   6.008   4.632   3.594
 9483TIP3    H228414   6.158   4.630   3.616
 9484TIP3   OH228415   0.861   1.110   4.595
 9484TIP3    H128416   0.850   1.145   4.683
 9484TIP3    H228417   0.841   1.184   4.537
 9485TIP3   OH228418   5.735   2.458   3.778
 9485TIP3    H128419   5.709   2.532   3.832
 9485TIP3    H228420   5.685   2.469   3.697
 9486TIP3   OH228421   2.361   4.698   0.958
 9486TIP3    H128422   2.292   4.658   0.906
 9486TIP3    H228423   2.442   4.658   0.926
 9487TIP3   OH228424   6.271   0.046   0.384
 9487TIP3    H128425   6.237   0.116   0.439
 9487TIP3    H228426   6.235   0.064   0.297
 9488TIP3   OH228427   4.008   0.399   0.295
 9488TIP3    H128428   4.045   0.344   0.226
 9488TIP3    H228429   4.075   0.464   0.313
 9489TIP3   OH228430   3.055   1.077   4.818
 9489TIP3    H128431   3.095   1.102   4.901
 9489TIP3    H228432   2.984   1.018   4.843
 9490TIP3   OH228433   0.817   3.666   1.296
 9490TIP3    H128434   0.755   3.685   1.366
 9490TIP3    H228435   0.762   3.640   1.222
 9491TIP3   OH228436   2.794   1.883   3.380
 9491TIP3    H128437   2.734   1.921   3.316
 9491TIP3    H228438   2.764   1.917   3.464
 9492TIP3   OH228439   4.458   5.362   1.178
 9492TIP3    H128440   4.469   5.317   1.094
 9492TIP3    H228441   4.453   5.291   1.243
 9493TIP3   OH228442   3.090   2.798   4.203
 9493TIP3    H128443   3.137   2.778   4.284
 9493TIP3    H228444   3.149   2.769   4.134
 9494TIP3   OH228445   1.516   6.204   3.780
 9494TIP3    H128446   1.532   6.171   3.691
 9494TIP3    H228447   1.593   6.176   3.830
 9495TIP3   OH228448   1.254   0.578   1.400
 9495TIP3    H128449   1.162   0.574   1.424
 9495TIP3    H228450   1.254   0.610   1.310
 9496TIP3   OH228451   1.964   6.345   2.795
 9496TIP3    H128452   1.919   6.323   2.713
 9496TIP3    H228453   1.905   6.314   2.863
 9497TIP3   OH228454   3.428   2.102   4.288
 9497TIP3    H128455   3.344   2.147   4.280
 9497TIP3    H228456   3.406   2.009   4.292
 9498TIP3   OH228457   2.037   1.597   5.101
 9498TIP3    H128458   2.072   1.686   5.104
 9498TIP3    H228459   1.942   1.608   5.108
 9499TIP3   OH228460   3.880   1.665   0.899
 9499TIP3    H128461   3.865   1.577   0.865
 9499TIP3    H228462   3.793   1.694   0.928
 9500TIP3   OH228463   4.330   1.385   2.344
 9500TIP3    H128464   4.371   1.332   2.276
 9500TIP3    H228465   4.282   1.453   2.297
 9501TIP3   OH228466   0.225   4.542   2.762
 9501TIP3    H128467   0.292   4.480   2.734
 9501TIP3    H228468   0.176   4.561   2.682
 9502TIP3   OH228469   2.649   1.151   0.316
 9502TIP3    H128470   2.640   1.058   0.338
 9502TIP3    H228471   2.559   1.181   0.304
 9503TIP3   OH228472   4.530   4.782   0.494
 9503TIP3    H128473   4.579   4.730   0.430
 9503TIP3    H228474   4.588   4.856   0.514
 9504TIP3   OH228475   2.298   2.104   1.767
 9504TIP3    H128476   2.275   2.197   1.769
 9504TIP3    H228477   2.279   2.073   1.855
 9505TIP3   OH228478   3.313   4.251   1.326
 9505TIP3    H128479   3.325   4.318   1.259
 9505TIP3    H228480   3.298   4.300   1.406
 9506TIP3   OH228481   2.684   2.127   5.100
 9506TIP3    H128482   2.750   2.187   5.066
 9506TIP3    H228483   2.733   2.056   5.139
 9507TIP3   OH228484   3.295   2.876   4.697
 9507TIP3    H128485   3.373   2.910   4.740
 9507TIP3    H228486   3.316   2.785   4.675
 9508TIP3   OH228487   0.143   5.270   4.460
 9508TIP3    H128488   0.149   5.327   4.383
 9508TIP3    H228489   0.068   5.213   4.442
 9509TIP3   OH228490   3.342   5.569   5.764
 9509TIP3    H128491   3.315   5.604   5.849
 9509TIP3    H228492   3.297   5.485   5.757
 9510TIP3   OH228493   2.328   4.806   4.349
 9510TIP3    H128494   2.383   4.811   4.428
 9510TIP3    H228495   2.301   4.896   4.333
 9511TIP3   OH228496   1.082   4.389   1.347
 9511TIP3    H128497   1.171   4.353   1.345
 9511TIP3    H228498   1.081   4.447   1.423
 9512TIP3   OH228499   1.297   5.836   3.590
 9512TIP3    H128500   1.386   5.834   3.554
 9512TIP3    H228501   1.260   5.919   3.559
 9513TIP3   OH228502   6.241   6.333   4.613
 9513TIP3    H128503   6.261   6.416   4.568
 9513TIP3    H228504   6.225   6.271   4.542
 9514TIP3   OH228505   6.825   2.112   0.882
 9514TIP3    H128506   6.776   2.182   0.925
 9514TIP3    H228507   6.916   2.142   0.884
 9515TIP3   OH228508   1.640   4.309   2.040
 9515TIP3    H128509   1.559   4.275   2.002
 9515TIP3    H228510   1.654   4.392   1.995
 9516TIP3   OH228511   4.904   4.051   3.643
 9516TIP3    H128512   4.985   4.053   3.592
 9516TIP3    H228513   4.899   3.961   3.675
 9517TIP3   OH228514   4.410   5.833   3.827
 9517TIP3    H128515   4.329   5.871   3.794
 9517TIP3    H228516   4.477   5.859   3.763
 9518TIP3   OH228517   1.909   0.573   4.466
 9518TIP3    H128518   1.851   0.636   4.507
 9518TIP3    H228519   1.850   0.503   4.436
 9519TIP3   OH228520   5.312   2.047   5.439
 9519TIP3    H128521   5.243   2.113   5.438
 9519TIP3    H228522   5.274   1.973   5.486
 9520TIP3   OH228523   2.825   4.466   4.295
 9520TIP3    H128524   2.772   4.433   4.367
 9520TIP3    H228525   2.787   4.427   4.216
 9521TIP3   OH228526   3.580   2.140   1.857
 9521TIP3    H128527   3.515   2.099   1.799
 9521TIP3    H228528   3.581   2.084   1.935
 9522TIP3   OH228529   4.441   5.517   1.963
 9522TIP3    H128530   4.391   5.538   1.885
 9522TIP3    H228531   4.501   5.449   1.936
 9523TIP3   OH228532   0.994   5.091   3.861
 9523TIP3    H128533   1.088   5.078   3.867
 9523TIP3    H228534   0.984   5.172   3.812
 9524TIP3   OH228535   1.811   1.605   0.387
 9524TIP3    H128536   1.873   1.667   0.348
 9524TIP3    H228537   1.726   1.632   0.352
 9525TIP3   OH228538   1.955   3.992   5.522
 9525TIP3    H128539   1.942   3.946   5.439
 9525TIP3    H228540   1.983   3.924   5.583
 9526TIP3   OH228541   1.195   0.670   1.149
 9526TIP3    H128542   1.172   0.754   1.110
 9526TIP3    H228543   1.125   0.611   1.120
 9527TIP3   OH228544   2.640   2.384   1.688
 9527TIP3    H128545   2.642   2.477   1.669
 9527TIP3    H228546   2.568   2.374   1.751
 9528TIP3   OH228547   0.488   1.380   3.464
 9528TIP3    H128548   0.549   1.396   3.536
 9528TIP3    H228549   0.544   1.377   3.386
 9529TIP3   OH228550   6.055   6.540   0.991
 9529TIP3    H128551   6.104   6.561   0.911
 9529TIP3    H228552   5.985   6.482   0.961
 9530TIP3   OH228553   4.033   0.711   0.712
 9530TIP3    H128554   4.008   0.621   0.692
 9530TIP3    H228555   4.129   0.711   0.706
 9531TIP3   OH228556   5.758   6.354   3.841
 9531TIP3    H128557   5.778   6.290   3.773
 9531TIP3    H228558   5.831   6.346   3.903
 9532TIP3   OH228559   3.429   1.560   1.164
 9532TIP3    H128560   3.383   1.527   1.087
 9532TIP3    H228561   3.361   1.599   1.219
 9533TIP3   OH228562   1.133   6.302   3.660
 9533TIP3    H128563   1.107   6.296   3.752
 9533TIP3    H228564   1.133   6.212   3.629
 9534TIP3   OH228565   6.071   5.995   1.469
 9534TIP3    H128566   5.997   6.042   1.508
 9534TIP3    H228567   6.062   5.905   1.501
 9535TIP3   OH228568   2.650   5.820   1.722
 9535TIP3    H128569   2.652   5.766   1.643
 9535TIP3    H228570   2.581   5.884   1.706
 9536TIP3   OH228571   7.126   0.841   0.739
 9536TIP3    H128572   7.142   0.790   0.660
 9536TIP3    H228573   7.200   0.901   0.744
 9537TIP3   OH228574   3.890   2.368   5.714
 9537TIP3    H128575   3.957   2.392   5.778
 9537TIP3    H228576   3.884   2.272   5.721
 9538TIP3   OH228577   4.266   5.205   0.395
 9538TIP3    H128578   4.208   5.272   0.430
 9538TIP3    H228579   4.304   5.245   0.317
 9539TIP3   OH228580   1.024   2.048   4.075
 9539TIP3    H128581   0.958   2.066   4.142
 9539TIP3    H228582   1.089   1.994   4.120
 9540TIP3   OH228583   4.596   3.200   4.713
 9540TIP3    H128584   4.502   3.197   4.733
 9540TIP3    H228585   4.624   3.108   4.718
 9541TIP3   OH228586   2.534   5.514   2.970
 9541TIP3    H128587   2.439   5.521   2.958
 9541TIP3    H228588   2.544   5.467   3.053
 9542TIP3   OH228589   1.250   4.216   5.814
 9542TIP3    H128590   1.323   4.263   5.773
 9542TIP3    H228591   1.183   4.212   5.746
 9543TIP3   OH228592   7.111   4.097   1.784
 9543TIP3    H128593   7.194   4.058   1.755
 9543TIP3    H228594   7.047   4.026   1.774
 9544TIP3   OH228595   5.741   2.671   0.397
 9544TIP3    H128596   5.827   2.694   0.363
 9544TIP3    H228597   5.680   2.718   0.340
 9545TIP3   OH228598   4.983   2.054   1.872
 9545TIP3    H128599   5.066   2.012   1.893
 9545TIP3    H228600   4.919   1.983   1.871
 9546TIP3   OH228601   1.517   0.264   3.824
 9546TIP3    H128602   1.607   0.237   3.805
 9546TIP3    H228603   1.527   0.347   3.872
 9547TIP3   OH228604   3.431   4.540   3.261
 9547TIP3    H128605   3.339   4.513   3.253
 9547TIP3    H228606   3.480   4.458   3.259
 9548TIP3   OH228607   6.198   4.750   4.287
 9548TIP3    H128608   6.225   4.675   4.234
 9548TIP3    H228609   6.108   4.731   4.312
 9549TIP3   OH228610   2.424   5.022   1.277
 9549TIP3    H128611   2.468   5.009   1.361
 9549TIP3    H228612   2.386   4.936   1.256
 9550TIP3   OH228613   2.800   4.296   0.236
 9550TIP3    H128614   2.883   4.248   0.245
 9550TIP3    H228615   2.792   4.312   0.142
 9551TIP3   OH228616   7.075   6.185   0.831
 9551TIP3    H128617   7.132   6.260   0.814
 9551TIP3    H228618   7.130   6.109   0.813
 9552TIP3   OH228619   1.239   4.903   1.632
 9552TIP3    H128620   1.220   4.990   1.670
 9552TIP3    H228621   1.238   4.917   1.538
 9553TIP3   OH228622   2.283   3.010   1.779
 9553TIP3    H128623   2.281   2.935   1.719
 9553TIP3    H228624   2.365   3.054   1.760
 9554TIP3   OH228625   2.405   1.330   5.056
 9554TIP3    H128626   2.482   1.306   5.005
 9554TIP3    H228627   2.348   1.374   4.994
 9555TIP3   OH228628   0.845   6.798   1.485
 9555TIP3    H128629   0.891   6.729   1.437
 9555TIP3    H228630   0.903   6.821   1.557
 9556TIP3   OH228631   0.957   5.292   5.104
 9556TIP3    H128632   0.916   5.227   5.161
 9556TIP3    H228633   0.903   5.293   5.025
 9557TIP3   OH228634   3.831   4.794   2.723
 9557TIP3    H128635   3.739   4.769   2.716
 9557TIP3    H228636   3.834   4.853   2.797
 9558TIP3   OH228637   2.838   5.031   2.518
 9558TIP3    H128638   2.875   4.944   2.531
 9558TIP3    H228639   2.803   5.055   2.604
 9559TIP3   OH228640   5.452   4.902   1.731
 9559TIP3    H128641   5.516   4.890   1.661
 9559TIP3    H228642   5.378   4.847   1.706
 9560TIP3   OH228643   5.854   4.155   5.456
 9560TIP3    H128644   5.884   4.203   5.378
 9560TIP3    H228645   5.867   4.063   5.434
 9561TIP3   OH228646   2.088   2.396   3.002
 9561TIP3    H128647   2.157   2.340   3.038
 9561TIP3    H228648   2.015   2.336   2.985
 9562TIP3   OH228649   6.853   3.226   0.551
 9562TIP3    H128650   6.849   3.277   0.632
 9562TIP3    H228651   6.831   3.137   0.578
 9563TIP3   OH228652   3.858   5.088   1.271
 9563TIP3    H128653   3.813   5.172   1.267
 9563TIP3    H228654   3.847   5.050   1.184
 9564TIP3   OH228655   4.820   2.095   4.496
 9564TIP3    H128656   4.867   2.159   4.442
 9564TIP3    H228657   4.886   2.031   4.521
 9565TIP3   OH228658   2.613   1.181   3.286
 9565TIP3    H128659   2.605   1.273   3.261
 9565TIP3    H228660   2.635   1.136   3.204
 9566TIP3   OH228661   7.071   3.906   4.152
 9566TIP3    H128662   7.071   3.995   4.186
 9566TIP3    H228663   7.072   3.917   4.056
 9567TIP3   OH228664   3.752   6.233   2.368
 9567TIP3    H128665   3.668   6.269   2.339
 9567TIP3    H228666   3.781   6.178   2.295
 9568TIP3   OH228667   1.277   3.131   1.214
 9568TIP3    H128668   1.364   3.108   1.247
 9568TIP3    H228669   1.294   3.187   1.138
 9569TIP3   OH228670   5.232   6.403   4.300
 9569TIP3    H128671   5.153   6.427   4.349
 9569TIP3    H228672   5.269   6.329   4.348
 9570TIP3   OH228673   4.331   6.639   1.620
 9570TIP3    H128674   4.389   6.649   1.544
 9570TIP3    H228675   4.358   6.709   1.680
 9571TIP3   OH228676   1.884   6.527   4.559
 9571TIP3    H128677   1.906   6.591   4.626
 9571TIP3    H228678   1.944   6.547   4.486
 9572TIP3   OH228679   6.726   3.362   1.177
 9572TIP3    H128680   6.658   3.296   1.192
 9572TIP3    H228681   6.802   3.313   1.146
 9573TIP3   OH228682   2.475   6.376   4.049
 9573TIP3    H128683   2.396   6.336   4.086
 9573TIP3    H228684   2.526   6.302   4.015
 9574TIP3   OH228685   1.763   5.911   4.998
 9574TIP3    H128686   1.673   5.881   5.015
 9574TIP3    H228687   1.798   5.933   5.084
 9575TIP3   OH228688   6.152   2.520   3.769
 9575TIP3    H128689   6.221   2.484   3.713
 9575TIP3    H228690   6.072   2.512   3.717
 9576TIP3   OH228691   0.340   0.319   1.792
 9576TIP3    H128692   0.279   0.381   1.752
 9576TIP3    H228693   0.284   0.251   1.829
 9577TIP3   OH228694   1.849   1.075   5.250
 9577TIP3    H128695   1.859   1.037   5.337
 9577TIP3    H228696   1.797   1.154   5.264
 9578TIP3   OH228697   1.827   6.283   2.561
 9578TIP3    H128698   1.753   6.256   2.616
 9578TIP3    H228699   1.788   6.340   2.495
 9579TIP3   OH228700   3.520   3.290   4.490
 9579TIP3    H128701   3.542   3.203   4.523
 9579TIP3    H228702   3.427   3.284   4.465
 9580TIP3   OH228703   2.104   5.797   3.734
 9580TIP3    H128704   2.040   5.757   3.675
 9580TIP3    H228705   2.150   5.861   3.679
 9581TIP3   OH228706   2.433   5.166   1.556
 9581TIP3    H128707   2.402   5.209   1.635
 9581TIP3    H228708   2.430   5.234   1.489
 9582TIP3   OH228709   6.099   3.022   4.161
 9582TIP3    H128710   6.064   3.048   4.075
 9582TIP3    H228711   6.129   3.104   4.201
 9583TIP3   OH228712   2.299   2.523   4.763
 9583TIP3    H128713   2.356   2.469   4.708
 9583TIP3    H228714   2.345   2.528   4.847
 9584TIP3   OH228715   6.610   1.814   1.509
 9584TIP3    H128716   6.697   1.820   1.470
 9584TIP3    H228717   6.606   1.891   1.567
 9585TIP3   OH228718   5.768   4.129   1.966
 9585TIP3    H128719   5.714   4.185   1.910
 9585TIP3    H228720   5.857   4.143   1.935
 9586TIP3   OH228721   0.116   6.444   5.179
 9586TIP3    H128722   0.107   6.497   5.258
 9586TIP3    H228723   0.028   6.444   5.140
 9587TIP3   OH228724   1.349   3.006   1.642
 9587TIP3    H128725   1.324   3.059   1.718
 9587TIP3    H228726   1.414   2.944   1.676
 9588TIP3   OH228727   6.532   5.109   5.464
 9588TIP3    H128728   6.613   5.062   5.446
 9588TIP3    H228729   6.532   5.119   5.560
 9589TIP3   OH228730   2.471   3.416   0.424
 9589TIP3    H128731   2.542   3.434   0.486
 9589TIP3    H228732   2.392   3.449   0.468
 9590TIP3   OH228733   2.724   1.997   3.641
 9590TIP3    H128734   2.695   1.988   3.732
 9590TIP3    H228735   2.696   2.085   3.616
 9591TIP3   OH228736   1.687   3.630   5.263
 9591TIP3    H128737   1.738   3.581   5.198
 9591TIP3    H228738   1.665   3.712   5.219
 9592TIP3   OH228739   3.339   5.754   5.333
 9592TIP3    H128740   3.424   5.776   5.294
 9592TIP3    H228741   3.344   5.785   5.423
 9593TIP3   OH228742   2.650   1.994   5.587
 9593TIP3    H128743   2.611   2.016   5.502
 9593TIP3    H228744   2.703   1.916   5.568
 9594TIP3   OH228745   1.039   1.161   1.320
 9594TIP3    H128746   1.014   1.253   1.327
 9594TIP3    H228747   1.132   1.159   1.342
 9595TIP3   OH228748   3.127   5.983   2.104
 9595TIP3    H128749   3.204   5.989   2.047
 9595TIP3    H228750   3.116   5.889   2.121
 9596TIP3   OH228751   5.626   1.361   0.333
 9596TIP3    H128752   5.587   1.353   0.420
 9596TIP3    H228753   5.716   1.331   0.344
 9597TIP3   OH228754   1.903   4.488   0.625
 9597TIP3    H128755   1.882   4.463   0.535
 9597TIP3    H228756   1.834   4.449   0.678
 9598TIP3   OH228757   5.608   2.978   2.728
 9598TIP3    H128758   5.696   2.999   2.758
 9598TIP3    H228759   5.618   2.956   2.636
 9599TIP3   OH228760   4.011   4.204   1.671
 9599TIP3    H128761   4.003   4.136   1.604
 9599TIP3    H228762   3.929   4.253   1.665
 9600TIP3   OH228763   3.245   4.304   5.817
 9600TIP3    H128764   3.198   4.328   5.738
 9600TIP3    H228765   3.336   4.331   5.800
 9601TIP3   OH228766   1.679   4.515   4.003
 9601TIP3    H128767   1.593   4.506   3.964
 9601TIP3    H228768   1.666   4.573   4.079
 9602TIP3   OH228769   3.966   2.634   4.160
 9602TIP3    H128770   3.956   2.650   4.254
 9602TIP3    H228771   4.012   2.711   4.127
 9603TIP3   OH228772   3.970   5.455   2.664
 9603TIP3    H128773   3.948   5.364   2.646
 9603TIP3    H228774   3.957   5.500   2.581
 9604TIP3   OH228775   4.194   3.221   5.254
 9604TIP3    H128776   4.216   3.256   5.341
 9604TIP3    H228777   4.242   3.139   5.248
 9605TIP3   OH228778   3.909   1.154   3.750
 9605TIP3    H128779   3.885   1.063   3.766
 9605TIP3    H228780   3.827   1.197   3.727
 9606TIP3   OH228781   1.812   1.000   0.891
 9606TIP3    H128782   1.716   1.003   0.897
 9606TIP3    H228783   1.842   1.063   0.955
 9607TIP3   OH228784   4.145   6.096   2.573
 9607TIP3    H128785   4.061   6.134   2.601
 9607TIP3    H228786   4.161   6.133   2.486
 9608TIP3   OH228787   2.258   4.314   3.440
 9608TIP3    H128788   2.235   4.287   3.351
 9608TIP3    H228789   2.180   4.294   3.492
 9609TIP3   OH228790   4.274   1.234   0.662
 9609TIP3    H128791   4.327   1.276   0.594
 9609TIP3    H228792   4.199   1.198   0.615
 9610TIP3   OH228793   0.631   5.444   2.452
 9610TIP3    H128794   0.578   5.524   2.459
 9610TIP3    H228795   0.671   5.435   2.539
 9611TIP3   OH228796   1.732   2.094   1.968
 9611TIP3    H128797   1.721   2.134   1.882
 9611TIP3    H228798   1.730   2.167   2.029
 9612TIP3   OH228799   0.304  -0.004   3.483
 9612TIP3    H128800   0.322   0.049   3.405
 9612TIP3    H228801   0.256  -0.079   3.450
 9613TIP3   OH228802   3.771   6.178   2.653
 9613TIP3    H128803   3.730   6.258   2.686
 9613TIP3    H228804   3.766   6.186   2.557
 9614TIP3   OH228805   3.687   5.356   2.617
 9614TIP3    H128806   3.714   5.285   2.559
 9614TIP3    H228807   3.647   5.312   2.692
 9615TIP3   OH228808   5.909   6.758   0.846
 9615TIP3    H128809   5.970   6.717   0.785
 9615TIP3    H228810   5.963   6.822   0.894
 9616TIP3   OH228811   7.191   2.999   4.441
 9616TIP3    H128812   7.155   3.062   4.503
 9616TIP3    H228813   7.159   3.028   4.356
 9617TIP3   OH228814   6.986   6.323   2.206
 9617TIP3    H128815   7.074   6.295   2.231
 9617TIP3    H228816   6.929   6.250   2.227
 9618TIP3   OH228817   5.849   0.997   3.268
 9618TIP3    H128818   5.773   0.940   3.256
 9618TIP3    H228819   5.921   0.951   3.226
 9619TIP3   OH228820   7.158   0.147   3.328
 9619TIP3    H128821   7.123   0.203   3.396
 9619TIP3    H228822   7.225   0.094   3.372
 9620TIP3   OH228823   6.711   6.726   0.589
 9620TIP3    H128824   6.688   6.758   0.677
 9620TIP3    H228825   6.652   6.652   0.575
 9621TIP3   OH228826   1.272   2.197   3.979
 9621TIP3    H128827   1.197   2.137   3.983
 9621TIP3    H228828   1.246   2.271   4.033
 9622TIP3   OH228829   5.065   1.105   0.528
 9622TIP3    H128830   5.144   1.091   0.476
 9622TIP3    H228831   5.026   1.184   0.491
 9623TIP3   OH228832   5.403   5.376   3.893
 9623TIP3    H128833   5.417   5.469   3.912
 9623TIP3    H228834   5.350   5.344   3.967
 9624TIP3   OH228835   2.776   5.025   0.434
 9624TIP3    H128836   2.804   5.114   0.412
 9624TIP3    H228837   2.742   5.033   0.523
 9625TIP3   OH228838   5.566   5.332   1.220
 9625TIP3    H128839   5.566   5.402   1.285
 9625TIP3    H228840   5.561   5.251   1.272
 9626TIP3   OH228841   3.146   4.615   5.194
 9626TIP3    H128842   3.105   4.560   5.260
 9626TIP3    H228843   3.231   4.639   5.231
 9627TIP3   OH228844   2.754   0.427   4.231
 9627TIP3    H128845   2.679   0.379   4.196
 9627TIP3    H228846   2.804   0.362   4.279
 9628TIP3   OH228847   0.791   1.751   5.324
 9628TIP3    H128848   0.840   1.693   5.382
 9628TIP3    H228849   0.812   1.721   5.236
 9629TIP3   OH228850   1.422   0.509   5.270
 9629TIP3    H128851   1.518   0.512   5.274
 9629TIP3    H228852   1.403   0.480   5.181
 9630TIP3   OH228853   5.034   3.926   2.741
 9630TIP3    H128854   4.950   3.972   2.744
 9630TIP3    H228855   5.043   3.886   2.827
 9631TIP3   OH228856   0.584   6.633   1.446
 9631TIP3    H128857   0.509   6.668   1.398
 9631TIP3    H228858   0.646   6.706   1.449
 9632TIP3   OH228859   5.772   1.356   4.154
 9632TIP3    H128860   5.812   1.278   4.191
 9632TIP3    H228861   5.808   1.362   4.066
 9633TIP3   OH228862   5.184   0.307   0.955
 9633TIP3    H128863   5.170   0.323   0.861
 9633TIP3    H228864   5.183   0.394   0.994
 9634TIP3   OH228865   1.945   0.338   3.563
 9634TIP3    H128866   1.995   0.283   3.623
 9634TIP3    H228867   2.008   0.402   3.531
 9635TIP3   OH228868   6.084   6.754   0.445
 9635TIP3    H128869   6.143   6.828   0.429
 9635TIP3    H228870   6.016   6.762   0.379
 9636TIP3   OH228871   2.308   1.496   4.386
 9636TIP3    H128872   2.247   1.491   4.460
 9636TIP3    H228873   2.394   1.507   4.426
 9637TIP3   OH228874   0.122   2.846   0.611
 9637TIP3    H128875   0.183   2.861   0.539
 9637TIP3    H228876   0.079   2.931   0.624
 9638TIP3   OH228877   7.016   4.023   0.160
 9638TIP3    H128878   7.094   4.059   0.119
 9638TIP3    H228879   6.948   4.028   0.093
 9639TIP3   OH228880   4.929   2.916   5.718
 9639TIP3    H128881   4.947   3.005   5.749
 9639TIP3    H228882   4.850   2.926   5.664
 9640TIP3   OH228883   6.523   3.451   4.026
 9640TIP3    H128884   6.604   3.451   3.975
 9640TIP3    H228885   6.517   3.540   4.062
 9641TIP3   OH228886   2.386   1.830   3.992
 9641TIP3    H128887   2.383   1.743   4.032
 9641TIP3    H228888   2.422   1.815   3.905
 9642TIP3   OH228889   5.534   5.814   3.269
 9642TIP3    H128890   5.529   5.901   3.230
 9642TIP3    H228891   5.579   5.828   3.353
 9643TIP3   OH228892   4.310   4.783   3.030
 9643TIP3    H128893   4.331   4.717   2.964
 9643TIP3    H228894   4.232   4.749   3.073
 9644TIP3   OH228895   0.617   0.853   2.009
 9644TIP3    H128896   0.529   0.844   1.972
 9644TIP3    H228897   0.606   0.834   2.102
 9645TIP3   OH228898   5.569   0.690   0.890
 9645TIP3    H128899   5.616   0.608   0.876
 9645TIP3    H228900   5.477   0.664   0.892
 9646TIP3   OH228901   2.658   5.138   4.395
 9646TIP3    H128902   2.583   5.184   4.434
 9646TIP3    H228903   2.683   5.192   4.320
 9647TIP3   OH228904   6.910   2.149   0.605
 9647TIP3    H128905   6.854   2.145   0.683
 9647TIP3    H228906   6.922   2.243   0.589
 9648TIP3   OH228907   3.236   5.035   0.420
 9648TIP3    H128908   3.293   5.101   0.380
 9648TIP3    H228909   3.194   5.080   0.493
 9649TIP3   OH228910   0.377   2.494   5.718
 9649TIP3    H128911   0.426   2.513   5.798
 9649TIP3    H228912   0.287   2.521   5.738
 9650TIP3   OH228913   5.387   6.364   0.754
 9650TIP3    H128914   5.398   6.450   0.715
 9650TIP3    H228915   5.299   6.337   0.729
 9651TIP3   OH228916   2.466   5.496   1.060
 9651TIP3    H128917   2.542   5.519   1.006
 9651TIP3    H228918   2.466   5.401   1.063
 9652TIP3   OH228919   2.928   3.442   5.841
 9652TIP3    H128920   2.888   3.505   5.900
 9652TIP3    H228921   2.858   3.419   5.780
 9653TIP3   OH228922   2.750   4.474   1.650
 9653TIP3    H128923   2.788   4.387   1.633
 9653TIP3    H228924   2.812   4.535   1.611
 9654TIP3   OH228925   1.779   0.870   4.341
 9654TIP3    H128926   1.858   0.912   4.376
 9654TIP3    H228927   1.717   0.871   4.413
 9655TIP3   OH228928   2.291   5.921   2.257
 9655TIP3    H128929   2.378   5.881   2.263
 9655TIP3    H228930   2.255   5.888   2.174
 9656TIP3   OH228931   4.489   2.262   4.269
 9656TIP3    H128932   4.545   2.254   4.347
 9656TIP3    H228933   4.422   2.325   4.295
 9657TIP3   OH228934   5.961   2.939   5.473
 9657TIP3    H128935   6.055   2.919   5.476
 9657TIP3    H228936   5.954   3.028   5.508
 9658TIP3   OH228937   5.776   4.822   4.952
 9658TIP3    H128938   5.792   4.916   4.952
 9658TIP3    H228939   5.863   4.783   4.946
 9659TIP3   OH228940   5.250   1.282   2.905
 9659TIP3    H128941   5.219   1.373   2.910
 9659TIP3    H228942   5.341   1.286   2.931
 9660TIP3   OH228943   4.208   0.890   1.019
 9660TIP3    H128944   4.219   0.828   1.091
 9660TIP3    H228945   4.284   0.875   0.963
 9661TIP3   OH228946   3.773   4.949   4.185
 9661TIP3    H128947   3.865   4.947   4.210
 9661TIP3    H228948   3.727   4.980   4.264
 9662TIP3   OH228949   4.010   1.741   4.501
 9662TIP3    H128950   3.983   1.829   4.475
 9662TIP3    H228951   4.101   1.734   4.473
 9663TIP3   OH228952   1.655   0.185   1.135
 9663TIP3    H128953   1.604   0.211   1.058
 9663TIP3    H228954   1.635   0.253   1.200
 9664TIP3   OH228955   1.992   5.951   0.451
 9664TIP3    H128956   2.040   5.881   0.407
 9664TIP3    H228957   1.939   5.906   0.516
 9665TIP3   OH228958   4.266   4.594   2.252
 9665TIP3    H128959   4.311   4.644   2.320
 9665TIP3    H228960   4.179   4.577   2.289
 9666TIP3   OH228961   1.797   0.362   4.180
 9666TIP3    H128962   1.753   0.297   4.125
 9666TIP3    H228963   1.849   0.413   4.119
 9667TIP3   OH228964   1.555   1.003   4.495
 9667TIP3    H128965   1.475   1.044   4.528
 9667TIP3    H228966   1.601   1.074   4.450
 9668TIP3   OH228967   0.537   0.500   0.292
 9668TIP3    H128968   0.560   0.572   0.350
 9668TIP3    H228969   0.448   0.476   0.317
 9669TIP3   OH228970   2.552   4.675   4.247
 9669TIP3    H128971   2.605   4.755   4.253
 9669TIP3    H228972   2.463   4.704   4.266
 9670TIP3   OH228973   4.473   6.137   5.589
 9670TIP3    H128974   4.413   6.110   5.659
 9670TIP3    H228975   4.533   6.198   5.631
 9671TIP3   OH228976   6.955   5.835   4.352
 9671TIP3    H128977   7.033   5.870   4.396
 9671TIP3    H228978   6.984   5.819   4.262
 9672TIP3   OH228979   1.922   3.878   1.061
 9672TIP3    H128980   1.901   3.798   1.108
 9672TIP3    H228981   1.837   3.913   1.034
 9673TIP3   OH228982   4.168   3.789   1.940
 9673TIP3    H128983   4.170   3.743   2.024
 9673TIP3    H228984   4.211   3.872   1.958
 9674TIP3   OH228985   3.968   2.284   3.639
 9674TIP3    H128986   4.056   2.295   3.677
 9674TIP3    H228987   3.985   2.263   3.547
 9675TIP3   OH228988   1.074   2.674   5.753
 9675TIP3    H128989   1.016   2.621   5.808
 9675TIP3    H228990   1.124   2.727   5.815
 9676TIP3   OH228991   4.278   2.990   3.149
 9676TIP3    H128992   4.286   3.081   3.176
 9676TIP3    H228993   4.329   2.941   3.213
 9677TIP3   OH228994   7.055   5.852   2.176
 9677TIP3    H128995   7.010   5.788   2.121
 9677TIP3    H228996   7.051   5.934   2.127
 9678TIP3   OH228997   5.513   6.520   1.060
 9678TIP3    H128998   5.593   6.572   1.066
 9678TIP3    H228999   5.540   6.431   1.079
 9679TIP3   OH229000   2.115   3.437   1.952
 9679TIP3    H129001   2.130   3.470   1.863
 9679TIP3    H229002   2.185   3.373   1.965
 9680TIP3   OH229003   2.596   4.627   0.802
 9680TIP3    H129004   2.650   4.587   0.735
 9680TIP3    H229005   2.658   4.660   0.867
 9681TIP3   OH229006   1.304   5.444   5.763
 9681TIP3    H129007   1.385   5.458   5.715
 9681TIP3    H229008   1.237   5.486   5.710
 9682TIP3   OH229009   4.320   1.098   4.702
 9682TIP3    H129010   4.265   1.095   4.780
 9682TIP3    H229011   4.386   1.029   4.716
 9683TIP3   OH229012   6.412   5.685   0.904
 9683TIP3    H129013   6.416   5.621   0.833
 9683TIP3    H229014   6.412   5.631   0.984
 9684TIP3   OH229015   3.952   3.734   1.036
 9684TIP3    H129016   4.006   3.694   1.104
 9684TIP3    H229017   3.872   3.761   1.081
 9685TIP3   OH229018   6.464   4.953   3.116
 9685TIP3    H129019   6.419   4.996   3.043
 9685TIP3    H229020   6.462   5.018   3.186
 9686TIP3   OH229021   4.814   1.709   1.870
 9686TIP3    H129022   4.806   1.712   1.965
 9686TIP3    H229023   4.908   1.715   1.854
 9687TIP3   OH229024   3.863   3.454   3.378
 9687TIP3    H129025   3.823   3.470   3.463
 9687TIP3    H229026   3.795   3.476   3.314
 9688TIP3   OH229027   3.162   3.221   3.837
 9688TIP3    H129028   3.088   3.168   3.868
 9688TIP3    H229029   3.205   3.166   3.772
 9689TIP3   OH229030   0.373   2.166   5.027
 9689TIP3    H129031   0.409   2.251   5.001
 9689TIP3    H229032   0.295   2.188   5.077
 9690TIP3   OH229033   5.209   5.327   2.201
 9690TIP3    H129034   5.246   5.404   2.243
 9690TIP3    H229035   5.162   5.361   2.125
 9691TIP3   OH229036   4.271   1.208   1.341
 9691TIP3    H129037   4.254   1.161   1.423
 9691TIP3    H229038   4.277   1.300   1.366
 9692TIP3   OH229039   3.334   1.222   1.982
 9692TIP3    H129040   3.371   1.221   2.070
 9692TIP3    H229041   3.409   1.233   1.924
 9693TIP3   OH229042   1.186   5.462   0.476
 9693TIP3    H129043   1.176   5.461   0.381
 9693TIP3    H229044   1.280   5.474   0.490
 9694TIP3   OH229045   2.070   0.271   2.131
 9694TIP3    H129046   1.984   0.238   2.155
 9694TIP3    H229047   2.128   0.196   2.138
 9695TIP3   OH229048   6.413   6.578   2.427
 9695TIP3    H129049   6.507   6.585   2.407
 9695TIP3    H229050   6.381   6.668   2.415
 9696TIP3   OH229051   1.560   4.726   0.295
 9696TIP3    H129052   1.640   4.690   0.257
 9696TIP3    H229053   1.591   4.796   0.353
 9697TIP3   OH229054   0.025   6.020   5.115
 9697TIP3    H129055   0.064   6.098   5.075
 9697TIP3    H229056   0.031   5.953   5.047
 9698TIP3   OH229057   0.492   2.414   5.038
 9698TIP3    H129058   0.581   2.411   5.001
 9698TIP3    H229059   0.505   2.426   5.132
 9699TIP3   OH229060   0.763   4.051   0.889
 9699TIP3    H129061   0.676   4.036   0.925
 9699TIP3    H229062   0.806   3.966   0.895
 9700TIP3   OH229063   2.285   2.051   1.478
 9700TIP3    H129064   2.299   1.957   1.477
 9700TIP3    H229065   2.301   2.077   1.569
 9701TIP3   OH229066   1.357   5.363   0.014
 9701TIP3    H129067   1.400   5.279   0.035
 9701TIP3    H229068   1.319   5.349  -0.072
 9702TIP3   OH229069   6.283   3.622   5.643
 9702TIP3    H129070   6.201   3.663   5.617
 9702TIP3    H229071   6.276   3.612   5.738
 9703TIP3   OH229072   2.406   5.670   0.269
 9703TIP3    H129073   2.405   5.578   0.298
 9703TIP3    H229074   2.386   5.666   0.175
 9704TIP3   OH229075   3.534   2.880   4.805
 9704TIP3    H129076   3.539   2.941   4.879
 9704TIP3    H229077   3.584   2.804   4.834
 9705TIP3   OH229078   2.856   4.990   3.049
 9705TIP3    H129079   2.765   5.000   3.077
 9705TIP3    H229080   2.851   4.938   2.969
 9706TIP3   OH229081   0.335   5.214   5.047
 9706TIP3    H129082   0.347   5.146   5.113
 9706TIP3    H229083   0.243   5.240   5.056
 9707TIP3   OH229084   6.845   2.562   1.225
 9707TIP3    H129085   6.821   2.558   1.132
 9707TIP3    H229086   6.856   2.655   1.244
 9708TIP3   OH229087   6.116   4.269   2.399
 9708TIP3    H129088   6.208   4.241   2.400
 9708TIP3    H229089   6.108   4.321   2.319
 9709TIP3   OH229090   1.667   2.309   4.648
 9709TIP3    H129091   1.679   2.347   4.561
 9709TIP3    H229092   1.572   2.307   4.660
 9710TIP3   OH229093   2.645   0.433   5.776
 9710TIP3    H129094   2.660   0.458   5.867
 9710TIP3    H229095   2.563   0.384   5.777
 9711TIP3   OH229096   0.576   2.398   1.175
 9711TIP3    H129097   0.642   2.334   1.149
 9711TIP3    H229098   0.627   2.473   1.207
 9712TIP3   OH229099   2.975   0.119   3.967
 9712TIP3    H129100   2.922   0.039   3.969
 9712TIP3    H229101   2.911   0.190   3.968
 9713TIP3   OH229102   5.791   1.670   2.341
 9713TIP3    H129103   5.774   1.629   2.256
 9713TIP3    H229104   5.723   1.635   2.398
 9714TIP3   OH229105   6.171   0.939   0.570
 9714TIP3    H129106   6.132   0.918   0.485
 9714TIP3    H229107   6.256   0.896   0.569
 9715TIP3   OH229108   0.542   3.196   4.590
 9715TIP3    H129109   0.568   3.220   4.679
 9715TIP3    H229110   0.451   3.226   4.584
 9716TIP3   OH229111   0.369   6.419   3.519
 9716TIP3    H129112   0.445   6.394   3.571
 9716TIP3    H229113   0.394   6.398   3.429
 9717TIP3   OH229114   1.576   5.134   0.607
 9717TIP3    H129115   1.635   5.208   0.594
 9717TIP3    H229116   1.629   5.068   0.652
 9718TIP3   OH229117   5.030   0.119   4.681
 9718TIP3    H129118   4.989   0.060   4.619
 9718TIP3    H229119   4.961   0.140   4.744
 9719TIP3   OH229120   6.974   1.993   2.660
 9719TIP3    H129121   7.028   1.999   2.739
 9719TIP3    H229122   7.036   2.004   2.588
 9720TIP3   OH229123   6.636   3.441   0.388
 9720TIP3    H129124   6.564   3.460   0.328
 9720TIP3    H229125   6.611   3.359   0.431
 9721TIP3   OH229126   5.249   3.753   1.535
 9721TIP3    H129127   5.227   3.766   1.628
 9721TIP3    H229128   5.201   3.822   1.490
 9722TIP3   OH229129   2.971   4.699   3.833
 9722TIP3    H129130   2.939   4.700   3.742
 9722TIP3    H229131   2.901   4.741   3.883
 9723TIP3   OH229132   0.048   3.767   5.599
 9723TIP3    H129133   0.050   3.752   5.694
 9723TIP3    H229134  -0.010   3.698   5.566
 9724TIP3   OH229135   3.468   1.396   2.573
 9724TIP3    H129136   3.488   1.451   2.649
 9724TIP3    H229137   3.440   1.459   2.506
 9725TIP3   OH229138   5.095   2.174   0.847
 9725TIP3    H129139   5.021   2.219   0.808
 9725TIP3    H229140   5.066   2.083   0.856
 9726TIP3   OH229141   2.503   3.901   3.533
 9726TIP3    H129142   2.585   3.935   3.498
 9726TIP3    H229143   2.436   3.961   3.499
 9727TIP3   OH229144   0.419   6.330   4.950
 9727TIP3    H129145   0.499   6.283   4.975
 9727TIP3    H229146   0.451   6.413   4.914
 9728TIP3   OH229147   3.906   0.924   1.102
 9728TIP3    H129148   3.845   0.887   1.038
 9728TIP3    H229149   3.986   0.873   1.092
 9729TIP3   OH229150   0.465   1.791   1.180
 9729TIP3    H129151   0.533   1.854   1.155
 9729TIP3    H229152   0.421   1.768   1.099
 9730TIP3   OH229153   2.698   1.054   3.050
 9730TIP3    H129154   2.691   1.052   2.955
 9730TIP3    H229155   2.757   0.981   3.071
 9731TIP3   OH229156   7.134   2.425   4.703
 9731TIP3    H129157   7.217   2.438   4.656
 9731TIP3    H229158   7.153   2.453   4.792
 9732TIP3   OH229159   4.658   1.579   5.620
 9732TIP3    H129160   4.697   1.566   5.533
 9732TIP3    H229161   4.584   1.519   5.622
 9733TIP3   OH229162   3.990   3.799   5.858
 9733TIP3    H129163   3.957   3.718   5.818
 9733TIP3    H229164   4.052   3.770   5.924
 9734TIP3   OH229165   1.545   3.216   1.987
 9734TIP3    H129166   1.591   3.137   1.956
 9734TIP3    H229167   1.456   3.206   1.954
 9735TIP3   OH229168   0.668   5.015   3.575
 9735TIP3    H129169   0.740   5.000   3.514
 9735TIP3    H229170   0.654   4.930   3.616
 9736TIP3   OH229171   5.883   4.494   5.148
 9736TIP3    H129172   5.923   4.408   5.162
 9736TIP3    H229173   5.833   4.484   5.067
 9737TIP3   OH229174   4.613   1.780   0.812
 9737TIP3    H129175   4.596   1.686   0.818
 9737TIP3    H229176   4.540   1.815   0.761
 9738TIP3   OH229177   5.900   2.555   1.463
 9738TIP3    H129178   5.844   2.605   1.523
 9738TIP3    H229179   5.978   2.610   1.451
 9739TIP3   OH229180   1.000   2.437   0.953
 9739TIP3    H129181   1.016   2.424   1.047
 9739TIP3    H229182   0.984   2.349   0.919
 9740TIP3   OH229183   6.908   1.652  -0.016
 9740TIP3    H129184   6.972   1.705   0.032
 9740TIP3    H229185   6.826   1.664   0.033
 9741TIP3   OH229186   1.283   0.471   4.096
 9741TIP3    H129187   1.235   0.501   4.019
 9741TIP3    H229188   1.273   0.376   4.096
 9742TIP3   OH229189   3.002   6.299   0.505
 9742TIP3    H129190   3.092   6.269   0.517
 9742TIP3    H229191   2.984   6.283   0.412
 9743TIP3   OH229192   0.214   5.731   4.518
 9743TIP3    H129193   0.189   5.643   4.546
 9743TIP3    H229194   0.214   5.783   4.598
 9744TIP3   OH229195   5.886   0.053   5.311
 9744TIP3    H129196   5.911   0.027   5.223
 9744TIP3    H229197   5.795   0.081   5.303
 9745TIP3   OH229198   5.509   1.286   4.688
 9745TIP3    H129199   5.449   1.334   4.631
 9745TIP3    H229200   5.482   1.195   4.680
 9746TIP3   OH229201   1.882   5.914   0.124
 9746TIP3    H129202   1.886   5.996   0.172
 9746TIP3    H229203   1.968   5.873   0.138
 9747TIP3   OH229204   5.907   3.902   4.215
 9747TIP3    H129205   5.969   3.934   4.280
 9747TIP3    H229206   5.832   3.873   4.266
 9748TIP3   OH229207   3.143   2.492   0.998
 9748TIP3    H129208   3.219   2.435   0.987
 9748TIP3    H229209   3.173   2.578   0.968
 9749TIP3   OH229210   0.415   1.881   1.838
 9749TIP3    H129211   0.334   1.902   1.886
 9749TIP3    H229212   0.415   1.786   1.833
   7.20715   6.79498   5.88461   0.00000   0.00000  -2.40239   0.00000  -2.40239  -3.39749
