Title
29212
    1ASP      N    1   2.500   2.156   4.240  0.0085  0.1224  0.6404
    1ASP    HT1    2   2.593   2.184   4.203  0.0272  1.3896  1.5614
    1ASP    HT2    3   2.509   2.061   4.282  2.8661 -0.8731 -1.8493
    1ASP    HT3    4   2.462   2.225   4.309 -1.6943  1.1070 -1.1778
    1ASP     CA    5   2.391   2.140   4.135  1.1461 -0.6939 -0.4492
    1ASP     HA    6   2.419   2.059   4.069  3.0538 -0.2183 -0.2844
    1ASP     CB    7   2.256   2.098   4.205  0.2099 -0.2856 -0.5752
    1ASP    HB1    8   2.210   2.175   4.271  0.4226 -0.2392 -0.4803
    1ASP    HB2    9   2.292   2.005   4.253 -1.7071 -0.1788  1.2342
    1ASP     CG   10   2.148   2.054   4.110 -0.4600 -0.0077 -0.2606
    1ASP    OD1   11   2.188   2.024   3.992 -0.2197  0.2552  0.5516
    1ASP    OD2   12   2.025   2.049   4.143 -0.3296  0.0789 -0.5595
    1ASP      C   13   2.373   2.267   4.043  0.5025  0.2158  0.2300
    1ASP      O   14   2.453   2.290   3.951  0.6976  0.0383 -0.5932
    2GLY      N   15   2.272   2.352   4.065  0.1402 -0.4225 -0.7958
    2GLY     HN   16   2.208   2.342   4.141  0.3041 -0.5485 -0.6741
    2GLY     CA   17   2.266   2.475   4.001 -0.0324  0.1262  0.3693
    2GLY    HA1   18   2.178   2.522   4.042 -0.8084  0.4362 -1.5401
    2GLY    HA2   19   2.248   2.457   3.896 -1.1292 -0.4311  0.6419
    2GLY      C   20   2.385   2.575   4.011 -0.5114 -0.5212  0.4750
    2GLY      O   21   2.489   2.556   4.074  0.0444 -0.2403 -0.1436
    3ASP      N   22   2.375   2.689   3.937  0.1763 -0.4160  0.0380
    3ASP     HN   23   2.290   2.707   3.887 -0.2681  2.1625  1.5497
    3ASP     CA   24   2.479   2.784   3.918  0.1533  0.3390 -0.0203
    3ASP     HA   25   2.571   2.737   3.886 -0.5572  0.0137 -1.7243
    3ASP     CB   26   2.434   2.890   3.815 -0.4502 -0.6990  0.2489
    3ASP    HB1   27   2.502   2.977   3.823  0.0183 -1.0379 -0.0004
    3ASP    HB2   28   2.337   2.929   3.853 -0.5760 -0.2993 -0.4627
    3ASP     CG   29   2.436   2.851   3.665 -0.2862  0.4152 -0.1740
    3ASP    OD1   30   2.513   2.758   3.631  0.2653  0.9271 -0.4204
    3ASP    OD2   31   2.373   2.922   3.588  0.5975 -0.6676  0.4978
    3ASP      C   32   2.525   2.857   4.053 -0.0942  0.1683 -0.6750
    3ASP      O   33   2.436   2.877   4.143 -0.0548 -0.2347  0.1986
    4GLY      N   34   2.658   2.893   4.077  0.7223  0.1425  0.5879
    4GLY     HN   35   2.722   2.900   4.001  1.1554  2.0614  1.0545
    4GLY     CA   36   2.711   2.943   4.203  0.3343  0.4205 -0.7633
    4GLY    HA1   37   2.816   2.922   4.197  0.1835 -0.3179 -0.9356
    4GLY    HA2   38   2.659   2.891   4.282  2.0696 -1.7494 -0.9608
    4GLY      C   39   2.705   3.093   4.205  0.0782  0.1222  0.4652
    4GLY      O   40   2.675   3.159   4.100  0.7751  0.5383 -0.7209
    5PRO      N   41   2.723   3.160   4.319  0.4483  0.0020  0.2336
    5PRO     CD   42   2.722   3.089   4.445 -0.3783  0.4500  0.2207
    5PRO    HD1   43   2.826   3.063   4.476  0.0058  3.5575  1.8850
    5PRO    HD2   44   2.651   3.004   4.458  2.2452 -1.8077  0.8232
    5PRO     CA   45   2.722   3.304   4.341 -0.1421  0.1988 -0.0265
    5PRO     HA   46   2.628   3.346   4.309  0.7480 -0.3108 -3.8070
    5PRO     CB   47   2.749   3.318   4.493 -0.0195  0.4249 -0.3765
    5PRO    HB1   48   2.698   3.407   4.535  1.3368  0.4751  1.2277
    5PRO    HB2   49   2.856   3.325   4.521 -0.2627  0.8891  0.4595
    5PRO     CG   50   2.683   3.190   4.547 -0.3142  0.4925 -0.5271
    5PRO    HG1   51   2.704   3.167   4.653 -0.9572 -0.0898 -0.5211
    5PRO    HG2   52   2.573   3.204   4.538 -0.5360 -1.2131 -0.7731
    5PRO      C   53   2.825   3.369   4.251 -0.6062  0.2128 -0.4235
    5PRO      O   54   2.923   3.302   4.220  0.5261  0.3033  0.9231
    6GLY      N   55   2.815   3.498   4.218  0.4041  0.3549 -0.5722
    6GLY     HN   56   2.738   3.551   4.253  0.8327  1.9071 -1.8521
    6GLY     CA   57   2.924   3.564   4.155 -0.6514 -0.8595  0.2553
    6GLY    HA1   58   2.892   3.636   4.081 -2.4549 -1.4687  0.3980
    6GLY    HA2   59   2.984   3.485   4.113 -0.7049 -0.3622 -0.7972
    6GLY      C   60   3.017   3.640   4.261  0.6620  0.3867 -0.0664
    6GLY      O   61   3.011   3.609   4.383  0.0409 -0.1133 -0.2051
    7ASP      N   62   3.105   3.728   4.214 -0.0208 -0.4618 -0.2690
    7ASP     HN   63   3.108   3.751   4.117  1.2667  1.5954  0.2086
    7ASP     CA   64   3.197   3.806   4.292  0.7740 -0.2869 -0.1048
    7ASP     HA   65   3.250   3.739   4.357  1.4791  0.0994 -0.2674
    7ASP     CB   66   3.305   3.862   4.194  0.1916  0.1200  0.7486
    7ASP    HB1   67   3.390   3.907   4.251  1.5029 -1.0512 -0.2045
    7ASP    HB2   68   3.258   3.946   4.138  0.8050  0.3918  0.6236
    7ASP     CG   69   3.364   3.761   4.096 -0.1740  0.6089  0.3243
    7ASP    OD1   70   3.431   3.809   4.000  0.5000 -0.1374  0.1377
    7ASP    OD2   71   3.354   3.638   4.109  0.2559  0.2381 -0.6814
    7ASP      C   72   3.139   3.916   4.387 -0.1697  0.6904 -0.1050
    7ASP      O   73   3.032   3.966   4.359 -0.5489 -0.1264 -0.1084
    8PRO      N   74   3.211   3.963   4.496  0.1247  0.0890  0.4240
    8PRO     CD   75   3.346   3.917   4.537 -0.1038 -0.0568 -0.0396
    8PRO    HD1   76   3.404   3.868   4.457 -0.5362 -0.2836 -0.2198
    8PRO    HD2   77   3.329   3.845   4.620 -1.5699  1.2224  0.8434
    8PRO     CA   78   3.193   4.104   4.538  0.1998 -0.3987  0.0437
    8PRO     HA   79   3.092   4.117   4.574  0.3375 -0.4676  0.4645
    8PRO     CB   80   3.297   4.122   4.654  0.3420 -0.3531  0.9883
    8PRO    HB1   81   3.264   4.067   4.744  2.8794  1.3847  3.1400
    8PRO    HB2   82   3.328   4.227   4.674 -1.1393  0.5635 -1.1167
    8PRO     CG   83   3.416   4.047   4.596  0.7108  0.5931  0.2968
    8PRO    HG1   84   3.461   4.106   4.514  0.4118  0.7250  0.2271
    8PRO    HG2   85   3.480   4.038   4.687  0.5163  0.4983  0.4251
    8PRO      C   86   3.209   4.201   4.426  0.6059  0.2592 -0.5549
    8PRO      O   87   3.281   4.183   4.332 -0.1919  0.0966  0.6031
    9GLY      N   88   3.140   4.314   4.435 -0.1293  0.2081 -0.1418
    9GLY     HN   89   3.098   4.330   4.524  0.8189 -1.1144  0.5713
    9GLY     CA   90   3.150   4.422   4.335 -0.5515  0.1363 -0.6212
    9GLY    HA1   91   3.062   4.485   4.343 -1.3718 -1.0766  0.4497
    9GLY    HA2   92   3.153   4.377   4.237  1.6308  0.3519 -0.6975
    9GLY      C   93   3.275   4.512   4.344 -0.3606  0.2843  0.0747
    9GLY      O   94   3.377   4.497   4.414 -1.6400 -0.1710  0.0618
   10ASP      N   95   3.272   4.624   4.261  0.0628  0.8896 -0.1312
   10ASP     HN   96   3.205   4.613   4.188  0.7541  0.2889 -0.6946
   10ASP     CA   97   3.365   4.736   4.264  0.3454  1.0062 -0.0275
   10ASP     HA   98   3.462   4.693   4.280  0.1354  0.0311 -1.2563
   10ASP     CB   99   3.360   4.826   4.132 -0.2124  0.0683  0.4683
   10ASP    HB1  100   3.428   4.909   4.161 -0.9480 -0.0870  2.7815
   10ASP    HB2  101   3.257   4.865   4.120 -0.6871 -1.4566 -0.8527
   10ASP     CG  102   3.409   4.763   4.004 -0.2190 -0.0325  0.2858
   10ASP    OD1  103   3.391   4.641   3.987  0.0648 -0.3583 -0.0347
   10ASP    OD2  104   3.444   4.843   3.914 -0.7825  0.1295  1.0975
   10ASP      C  105   3.338   4.814   4.392  0.1508  0.5327 -0.9145
   10ASP      O  106   3.252   4.773   4.475 -0.1083 -0.3920 -0.1578
   11GLY      N  107   3.418   4.920   4.427  0.3276  0.0306  0.1863
   11GLY     HN  108   3.491   4.952   4.368  0.4053  1.1022  0.8388
   11GLY     CA  109   3.411   5.001   4.546  0.1624 -0.3481 -0.3836
   11GLY    HA1  110   3.499   5.062   4.533  0.9782 -1.7184 -1.5947
   11GLY    HA2  111   3.424   4.936   4.631 -0.1846 -0.2609 -0.2620
   11GLY      C  112   3.298   5.096   4.561  0.5071 -0.2443  0.3883
   11GLY    OT1  113   3.244   5.145   4.455 -0.1447  0.4934 -0.3593
   11GLY    OT2  114   3.261   5.132   4.678  0.3257  0.1621  0.3686
   12SOD    SOD  115   5.379   1.290   1.695 -0.7033 -0.2895 -0.3735
   13SOD    SOD  116   7.090   5.099   5.103 -0.7907  0.2182  0.6322
   14SOD    SOD  117   3.945   1.560   2.503  0.1012 -0.1379  0.1346
   15SOD    SOD  118   2.144   0.290   4.476 -0.0540 -0.2630  0.4128
   16SOD    SOD  119   5.839   1.255   4.955  0.0452 -0.1971 -0.0013
   17SOD    SOD  120   5.420   6.410   1.819  0.3263 -0.7170  0.0314
   18SOD    SOD  121   5.867   4.305   3.110 -0.4921 -0.0880 -0.2437
   19SOD    SOD  122   3.410   5.035   1.017 -0.6012 -0.5293 -0.3568
   20SOD    SOD  123   0.021   0.800   4.294  0.4994  0.3972 -0.1246
   21SOD    SOD  124   5.826   6.118   1.496 -0.1732 -0.4343  0.4123
   22SOD    SOD  125   1.512   6.369   4.161  0.0429  0.8297 -0.1135
   23SOD    SOD  126   3.237   5.570   4.644  0.3605 -0.0375 -0.7699
   24SOD    SOD  127   4.063   0.500   1.285  0.3250 -0.5161  0.6360
   25SOD    SOD  128   2.892   0.012   4.100  0.4233 -0.2184 -0.0781
   26SOD    SOD  129   2.887   3.410   2.925 -0.1103 -0.9984 -0.2549
   27SOD    SOD  130   2.589   1.664   5.762 -0.0436  0.2618 -0.3538
   28SOD    SOD  131   0.204   2.946   4.442  0.2251 -0.1217 -0.1329
   29SOD    SOD  132   5.424   3.907   0.927  0.2437  0.4794  0.2801
   30SOD    SOD  133   4.585   0.582   0.468 -0.1941  0.4047  0.1823
   31SOD    SOD  134   1.745   6.296   1.583 -0.3601 -0.3062  0.1890
   32SOD    SOD  135   6.867   5.961   0.772  0.3564  0.0740 -0.2140
   33SOD    SOD  136   0.023   0.902   0.417 -0.2190 -0.3721  0.0942
   34SOD    SOD  137   2.368   2.008   2.683 -0.5499  0.0143 -0.1875
   35SOD    SOD  138   4.263   4.496   4.206  0.3771 -0.2197  0.0497
   36SOD    SOD  139   5.569   4.208   5.058 -0.0933 -0.0789  0.0837
   37SOD    SOD  140   1.520   1.243   3.734 -0.2450  0.1263 -0.3958
   38SOD    SOD  141   1.495   4.823   1.919 -0.3566 -0.2921  0.1711
   39SOD    SOD  142   0.352   1.013   4.739  0.2688  0.1087  0.0363
   40SOD    SOD  143   3.376   5.279   2.109 -0.0575 -0.0841 -0.0793
   41SOD    SOD  144   4.279   1.272   5.120 -0.1062  0.2474 -0.3300
   42SOD    SOD  145   2.120   3.943   2.396  0.2479  0.1276  0.2425
   43CLA    CLA  146   5.701   1.028   5.020  0.1697 -0.0822 -0.3672
   44CLA    CLA  147   2.915   1.745   5.118  0.1819 -0.0947 -0.0258
   45CLA    CLA  148   5.338   4.977   0.062  0.1890 -0.4915  0.1108
   46CLA    CLA  149   5.049   4.878   2.035 -0.5927 -0.2692 -0.0441
   47CLA    CLA  150   6.066   3.767   4.295 -0.1874 -0.5118  0.0644
   48CLA    CLA  151   2.382   1.467   2.559 -0.0428 -0.0326  0.2830
   49CLA    CLA  152   1.218   0.798   4.610  0.1829 -0.3034  0.4807
   50CLA    CLA  153   6.695   0.941   5.633  0.1842 -0.1240  0.1964
   51CLA    CLA  154   0.698   2.646   5.876 -0.2588  0.3601 -0.4582
   52CLA    CLA  155   2.007   5.480   4.171  0.1449 -0.1284  0.0248
   53CLA    CLA  156   5.492   4.398   1.061  0.0606  0.1875 -0.1055
   54CLA    CLA  157   7.173   4.711   3.929  0.0860  0.2582  0.1168
   55CLA    CLA  158   2.663   4.305   1.929 -0.3930 -0.0786  0.0802
   56CLA    CLA  159   4.892   1.549   3.710 -0.0077 -0.2226 -0.3581
   57CLA    CLA  160   0.237   3.541   4.831 -0.0809  0.0145  0.0741
   58CLA    CLA  161   7.022   5.199   0.205  0.1055  0.1729 -0.2834
   59CLA    CLA  162   6.555   5.812   2.548  0.2533 -0.3554  0.0877
   60CLA    CLA  163   3.118   5.559   2.597  0.1579 -0.1666 -0.3045
   61CLA    CLA  164   3.838   6.017   0.069  0.2430  0.1837  0.2610
   62CLA    CLA  165   2.127   3.226   0.986 -0.0049 -0.0086  0.4518
   63CLA    CLA  166   0.235   2.856   0.523 -0.1777  0.1904 -0.0547
   64CLA    CLA  167   3.815   1.650   2.978 -0.1493 -0.3194 -0.0027
   65CLA    CLA  168   0.517   0.473   3.425  0.4808  0.3470  0.2093
   66CLA    CLA  169   0.585   6.332   0.370 -0.2291 -0.0966 -0.2432
   67CLA    CLA  170   4.841   4.690   3.467 -0.0280  0.2197  0.0086
   68CLA    CLA  171   5.886   6.208   3.722 -0.0739  0.2014 -0.1504
   69CLA    CLA  172   4.402   1.934   2.264  0.1280 -0.2822 -0.0205
   70TIP3   OH2  173   3.115   3.740   5.726  0.4970 -0.2432 -0.2962
   70TIP3    H1  174   3.149   3.824   5.757  0.0039 -0.0006 -0.3968
   70TIP3    H2  175   3.027   3.735   5.764  1.2125 -1.5864  1.2964
   71TIP3   OH2  176   3.702   4.226   3.852  0.0599 -0.3023 -0.2318
   71TIP3    H1  177   3.662   4.303   3.892  0.2680 -0.6522  0.6824
   71TIP3    H2  178   3.655   4.152   3.891 -0.4245 -0.6408 -1.4100
   72TIP3   OH2  179   2.207   4.629   5.663 -0.2667  0.6895 -0.3728
   72TIP3    H1  180   2.173   4.541   5.673 -0.7764  0.9189 -0.0106
   72TIP3    H2  181   2.145   4.672   5.603  0.5572  0.5013 -1.3850
   73TIP3   OH2  182   4.218   2.062   1.170  0.3698 -0.1043 -0.2542
   73TIP3    H1  183   4.234   2.146   1.127 -0.1679  0.2263  0.1822
   73TIP3    H2  184   4.154   2.018   1.114 -0.3991  0.3643  0.2395
   74TIP3   OH2  185   0.297   3.016   4.635 -0.7677 -0.3978 -0.5293
   74TIP3    H1  186   0.237   3.074   4.680 -0.4633  0.0406 -0.6842
   74TIP3    H2  187   0.375   3.069   4.619 -0.8822 -0.5351 -1.5986
   75TIP3   OH2  188   1.358   1.071   5.010  0.3810  0.3398 -0.3168
   75TIP3    H1  189   1.382   1.037   4.924 -0.7266 -0.6068 -0.2790
   75TIP3    H2  190   1.305   1.148   4.991 -2.8964 -1.8118 -0.6913
   76TIP3   OH2  191   6.626   6.577   2.930  0.2312  0.1318  0.1581
   76TIP3    H1  192   6.631   6.659   2.978  0.8354  0.6682 -0.8045
   76TIP3    H2  193   6.706   6.574   2.877  1.3498 -2.1172  1.7952
   77TIP3   OH2  194   6.038   4.999   4.600 -0.6594 -0.1426  0.0056
   77TIP3    H1  195   5.980   4.978   4.526 -1.1882 -0.1034  0.4071
   77TIP3    H2  196   6.103   5.059   4.562 -1.7911  1.0659 -0.1072
   78TIP3   OH2  197   4.899   2.543   1.243 -0.4053  0.3623 -0.1411
   78TIP3    H1  198   4.902   2.589   1.327 -2.7427 -0.7170  0.6043
   78TIP3    H2  199   4.963   2.472   1.252 -0.0846  0.7169  0.4231
   79TIP3   OH2  200   2.186   6.786   3.019  0.5202 -0.0835  0.3679
   79TIP3    H1  201   2.267   6.735   3.029 -0.4135 -1.5804  0.6987
   79TIP3    H2  202   2.211   6.861   2.966  2.2372 -0.2351  0.8994
   80TIP3   OH2  203   0.793   4.155   3.219 -0.7863  0.1838 -0.0974
   80TIP3    H1  204   0.844   4.074   3.216 -1.2659 -0.0898 -2.1892
   80TIP3    H2  205   0.718   4.134   3.275 -1.4080 -1.1641 -1.3771
   81TIP3   OH2  206   0.030   1.337   0.440  0.0178 -0.3799 -0.9214
   81TIP3    H1  207   0.045   1.287   0.521  0.6543 -0.3450 -1.0178
   81TIP3    H2  208  -0.045   1.293   0.399 -0.1632 -0.5402 -0.4279
   82TIP3   OH2  209   0.301   4.908   3.319  0.0988 -0.6715  0.8767
   82TIP3    H1  210   0.373   4.924   3.380  0.1609 -0.7953  0.8355
   82TIP3    H2  211   0.233   4.867   3.372  0.0207 -0.4671  0.9364
   83TIP3   OH2  212   6.917   4.235   2.681 -0.6326  0.2482 -0.3698
   83TIP3    H1  213   6.875   4.150   2.665 -0.5872  0.3973 -1.3075
   83TIP3    H2  214   6.988   4.215   2.742 -2.2667  0.0464  1.5695
   84TIP3   OH2  215   2.810   5.295   4.164  0.7764 -0.4227 -0.2600
   84TIP3    H1  216   2.775   5.218   4.208 -1.2684  1.2788  1.3118
   84TIP3    H2  217   2.875   5.330   4.224 -1.3222  1.3552  1.1171
   85TIP3   OH2  218   5.133   5.906   3.934 -0.0438  0.1231 -0.1497
   85TIP3    H1  219   5.131   5.825   3.883  0.9401  0.4528 -0.7379
   85TIP3    H2  220   5.078   5.888   4.011  0.2575 -1.1255 -0.2133
   86TIP3   OH2  221   6.601   2.563   2.247 -0.0350 -0.1080  0.2129
   86TIP3    H1  222   6.665   2.536   2.313 -0.0722 -0.2978  0.1723
   86TIP3    H2  223   6.640   2.640   2.206  0.1904 -0.2526  0.1560
   87TIP3   OH2  224   5.455   0.029   2.097 -0.1601 -0.5594  0.1490
   87TIP3    H1  225   5.457  -0.049   2.152 -0.3027 -1.2216 -0.7599
   87TIP3    H2  226   5.377   0.076   2.125  0.5474 -0.1478  1.4852
   88TIP3   OH2  227   1.926   1.246   2.671  0.6803 -0.6589  0.3106
   88TIP3    H1  228   1.975   1.274   2.594 -2.2333 -0.1843 -1.5187
   88TIP3    H2  229   1.856   1.310   2.680 -2.4483 -3.7459 -0.1675
   89TIP3   OH2  230   3.555   0.121   3.365 -0.2053  0.1842 -0.0549
   89TIP3    H1  231   3.535   0.055   3.298  1.9806 -0.4881 -0.1215
   89TIP3    H2  232   3.537   0.077   3.448  0.7228 -0.3241 -0.1137
   90TIP3   OH2  233   6.823   2.432   2.410  0.1648 -0.2021 -0.1395
   90TIP3    H1  234   6.862   2.519   2.421  1.8377 -1.0448  1.0508
   90TIP3    H2  235   6.872   2.393   2.337 -2.8254  0.9684 -3.0355
   91TIP3   OH2  236   0.125   5.569   1.709 -0.5108 -0.0802 -0.3558
   91TIP3    H1  237   0.133   5.632   1.638 -0.1474  0.5938  0.2720
   91TIP3    H2  238   0.104   5.621   1.786  1.0264 -0.5482  0.4427
   92TIP3   OH2  239   0.635   5.032   0.877  0.2039 -0.1664  0.2920
   92TIP3    H1  240   0.690   4.982   0.936 -1.5716 -2.6098  0.0614
   92TIP3    H2  241   0.614   4.971   0.806 -2.9141  0.4964  0.4932
   93TIP3   OH2  242   0.203   4.333   1.793 -0.6309 -0.5176  0.2452
   93TIP3    H1  243   0.166   4.266   1.735 -0.4259  0.4040 -1.0009
   93TIP3    H2  244   0.257   4.387   1.735 -0.2420  0.3102  1.3557
   94TIP3   OH2  245   3.031   5.793   2.239  0.3809  0.2884  0.5978
   94TIP3    H1  246   3.033   5.863   2.304  0.3974  1.1955 -0.3463
   94TIP3    H2  247   2.953   5.743   2.260  1.1130 -0.2563  2.1354
   95TIP3   OH2  248   5.518   1.002   5.291 -0.5632 -0.3808 -0.5598
   95TIP3    H1  249   5.431   1.008   5.253 -0.2530  0.9804 -1.1031
   95TIP3    H2  250   5.576   1.042   5.226  0.3094 -0.2041  0.2918
   96TIP3   OH2  251   6.281   1.697   2.536 -0.6614  0.6317 -0.3420
   96TIP3    H1  252   6.241   1.638   2.473 -1.4298 -1.5665  2.0004
   96TIP3    H2  253   6.209   1.750   2.569 -0.6555  0.3989  0.0560
   97TIP3   OH2  254   2.780   2.330   0.862  0.4031  0.0549  0.1245
   97TIP3    H1  255   2.813   2.261   0.920 -0.1580 -0.2680  0.0606
   97TIP3    H2  256   2.787   2.410   0.915  0.3017 -0.1711  0.4857
   98TIP3   OH2  257   0.232   0.768   0.887  0.3521 -0.2061 -0.2731
   98TIP3    H1  258   0.270   0.799   0.969 -0.8510 -1.6783  0.9000
   98TIP3    H2  259   0.234   0.672   0.894 -0.3265 -0.3536 -1.7086
   99TIP3   OH2  260   1.549   5.871   3.114 -1.0092  0.0662 -0.0175
   99TIP3    H1  261   1.511   5.854   3.028  0.7498  0.9314 -1.0151
   99TIP3    H2  262   1.566   5.966   3.114  1.6257 -0.3371  0.1061
  100TIP3   OH2  263   5.717   2.155   4.178 -0.3075  0.4249  0.5252
  100TIP3    H1  264   5.704   2.062   4.158 -0.3784  0.6172 -0.3791
  100TIP3    H2  265   5.801   2.158   4.225 -0.2604 -0.0880  0.4761
  101TIP3   OH2  266   6.569   4.230   4.148  0.1757 -0.4343 -0.1232
  101TIP3    H1  267   6.652   4.276   4.136 -0.1024 -0.2809 -1.8525
  101TIP3    H2  268   6.587   4.140   4.121 -0.3177 -0.2757 -1.0426
  102TIP3   OH2  269   6.745   4.732   0.126 -0.5849  0.2738  0.8032
  102TIP3    H1  270   6.749   4.827   0.135  0.2260  0.2168  1.1438
  102TIP3    H2  271   6.661   4.715   0.084  0.4002  1.3441 -1.8078
  103TIP3   OH2  272   4.828   3.131   5.779  0.9065 -0.4209  0.2729
  103TIP3    H1  273   4.891   3.145   5.850  1.8052 -2.1044 -0.1244
  103TIP3    H2  274   4.779   3.053   5.805 -0.2852  0.2249  0.0506
  104TIP3   OH2  275   1.163   5.285   5.314 -0.0553  0.4579 -0.0801
  104TIP3    H1  276   1.124   5.300   5.400 -0.9279 -0.3011 -0.3299
  104TIP3    H2  277   1.165   5.190   5.304 -0.9120  0.5367 -1.3035
  105TIP3   OH2  278   1.081   2.015   2.548  0.0908 -0.7176 -0.6334
  105TIP3    H1  279   1.087   2.048   2.637  0.7747 -0.2347 -0.8538
  105TIP3    H2  280   1.126   1.931   2.551  2.0606  0.2668 -0.9816
  106TIP3   OH2  281   4.709   0.719   5.844 -0.1306  0.2427  0.1865
  106TIP3    H1  282   4.669   0.684   5.923  2.2052 -2.0659  0.4857
  106TIP3    H2  283   4.772   0.784   5.875  0.7899 -0.6669  0.2926
  107TIP3   OH2  284   4.601   2.540   0.710 -0.1176  0.8245  0.4267
  107TIP3    H1  285   4.674   2.586   0.753  0.5643 -0.3934  0.6244
  107TIP3    H2  286   4.524   2.592   0.733  0.4680  1.2400  1.5897
  108TIP3   OH2  287   5.752   1.845   3.294 -0.2016 -0.3474 -0.4294
  108TIP3    H1  288   5.670   1.885   3.323  0.6542  2.8219 -1.8735
  108TIP3    H2  289   5.735   1.817   3.205  0.1706  0.0238 -0.6220
  109TIP3   OH2  290   3.262   0.958   3.660 -0.4366 -0.1779 -0.2225
  109TIP3    H1  291   3.204   0.956   3.736 -0.0811  1.1734  0.1130
  109TIP3    H2  292   3.298   1.047   3.660  2.4608 -1.2668  0.1659
  110TIP3   OH2  293   1.218   4.483   2.308  0.1007  0.0942  0.2247
  110TIP3    H1  294   1.198   4.395   2.339 -1.7796  1.0378  1.9376
  110TIP3    H2  295   1.137   4.513   2.267  1.5764  0.0487 -3.0700
  111TIP3   OH2  296   2.902   6.607   5.835 -0.0665  0.0368 -0.0789
  111TIP3    H1  297   2.940   6.543   5.775 -0.7450 -0.4139 -0.0412
  111TIP3    H2  298   2.967   6.617   5.904  0.3035 -0.1583 -0.3917
  112TIP3   OH2  299   6.501   0.427   1.802 -0.8062 -0.1511  0.1707
  112TIP3    H1  300   6.468   0.498   1.746 -0.1364 -0.3480 -0.4811
  112TIP3    H2  301   6.548   0.369   1.743  0.1411 -0.2349  0.9822
  113TIP3   OH2  302   3.168   5.474   0.670  0.2630  0.0956  0.3412
  113TIP3    H1  303   3.258   5.451   0.647  0.5378  1.0773  0.3869
  113TIP3    H2  304   3.170   5.484   0.765  0.1758  0.3984  0.3117
  114TIP3   OH2  305   5.686   3.310   4.987  0.7730  0.5604 -0.0613
  114TIP3    H1  306   5.718   3.224   5.016  0.7139 -0.0276 -1.6415
  114TIP3    H2  307   5.621   3.335   5.053 -0.2648 -1.2884 -0.3131
  115TIP3   OH2  308   5.361   1.182   1.194 -0.0317  0.3936 -0.1853
  115TIP3    H1  309   5.363   1.277   1.184 -0.0312  0.5998  1.4957
  115TIP3    H2  310   5.443   1.161   1.239 -0.4955 -0.2719  0.3748
  116TIP3   OH2  311   4.970   5.612   4.302 -0.5350  0.4688  0.0330
  116TIP3    H1  312   5.008   5.528   4.327 -0.1543  0.6001 -0.0845
  116TIP3    H2  313   4.881   5.610   4.336 -0.7231 -0.2182 -0.4831
  117TIP3   OH2  314   0.448   5.823   5.106  0.1428 -0.1280  0.1776
  117TIP3    H1  315   0.514   5.756   5.091  0.6304  0.4918 -0.5221
  117TIP3    H2  316   0.468   5.859   5.192  0.3218 -0.3775  0.2403
  118TIP3   OH2  317   4.418   5.977   1.374 -0.1586  0.5636 -0.1516
  118TIP3    H1  318   4.482   5.918   1.413 -1.4314 -2.5469 -2.3294
  118TIP3    H2  319   4.371   6.015   1.448 -0.0920 -2.2259  1.4786
  119TIP3   OH2  320   0.897   1.369   1.891 -0.1631 -0.9212 -0.3359
  119TIP3    H1  321   0.950   1.345   1.815  1.3877  0.8565  0.0888
  119TIP3    H2  322   0.951   1.346   1.966  0.4353  1.5545  0.1041
  120TIP3   OH2  323   5.412   3.819   2.350 -0.3298 -0.4020  0.5962
  120TIP3    H1  324   5.394   3.910   2.327 -0.5506 -0.2493  1.3479
  120TIP3    H2  325   5.426   3.775   2.266 -1.3390  0.0885  0.1611
  121TIP3   OH2  326   3.756   3.260   1.246 -0.3314  0.0431 -0.4804
  121TIP3    H1  327   3.815   3.208   1.192 -0.0806 -1.5204  1.2316
  121TIP3    H2  328   3.668   3.232   1.219 -0.2035 -1.5936  0.6254
  122TIP3   OH2  329   3.100   0.141   1.524  0.1803  0.4886  0.1793
  122TIP3    H1  330   3.043   0.087   1.468  0.3710  0.9654 -0.4910
  122TIP3    H2  331   3.075   0.231   1.504  1.4277  0.7276 -0.4312
  123TIP3   OH2  332   2.298   0.351   3.567 -0.4361 -0.8465 -0.6883
  123TIP3    H1  333   2.322   0.429   3.617 -0.9394  0.3206 -2.2006
  123TIP3    H2  334   2.339   0.365   3.481 -3.7531 -0.2941 -2.3240
  124TIP3   OH2  335   1.075   5.763   2.681  0.1280  0.6211 -0.3594
  124TIP3    H1  336   1.072   5.844   2.732  1.6589 -0.0790  0.9489
  124TIP3    H2  337   1.090   5.792   2.591  1.2358  1.8077  0.1672
  125TIP3   OH2  338   6.043   2.233   2.561  0.1783  0.2732 -0.5002
  125TIP3    H1  339   5.959   2.209   2.522 -0.3120  0.4327  0.4304
  125TIP3    H2  340   6.093   2.272   2.489  0.4842 -2.1686 -1.7415
  126TIP3   OH2  341   2.440   0.608   4.664  0.4143  0.3802 -0.3723
  126TIP3    H1  342   2.392   0.642   4.588 -0.8175  2.2288  1.1147
  126TIP3    H2  343   2.507   0.551   4.627  0.8194  2.3287 -2.9593
  127TIP3   OH2  344   5.903   2.156   4.678 -0.0829 -0.0029  0.2626
  127TIP3    H1  345   5.824   2.137   4.628  0.0261  0.3423 -0.0513
  127TIP3    H2  346   5.966   2.185   4.612  0.1905  0.0705  0.5543
  128TIP3   OH2  347   3.864   1.491   3.245  0.1570 -0.6290  0.7279
  128TIP3    H1  348   3.873   1.405   3.204 -1.2191 -0.0014 -0.9941
  128TIP3    H2  349   3.845   1.550   3.172  1.0575  1.1517  1.8754
  129TIP3   OH2  350   3.035   5.216   3.007  0.2221  0.1896  0.1022
  129TIP3    H1  351   2.963   5.171   3.052  0.0686  0.1052 -0.2226
  129TIP3    H2  352   3.082   5.262   3.076  0.2724 -0.3274  0.4091
  130TIP3   OH2  353   3.901   0.746   2.456  0.3187  0.1488  0.4304
  130TIP3    H1  354   3.903   0.840   2.475 -0.8598 -0.0173  1.5140
  130TIP3    H2  355   3.956   0.706   2.523  0.4481  0.0137  0.2479
  131TIP3   OH2  356   5.329   1.497   3.421  0.2945 -0.1295 -0.4922
  131TIP3    H1  357   5.287   1.504   3.336  0.0727 -0.9507 -0.4566
  131TIP3    H2  358   5.257   1.505   3.484  0.3620 -0.2813 -0.3970
  132TIP3   OH2  359   2.646   4.199   0.460 -0.5711  0.6664  0.1391
  132TIP3    H1  360   2.695   4.228   0.383  0.3909  0.3324  0.6125
  132TIP3    H2  361   2.618   4.110   0.437 -0.1837  0.5226  0.2152
  133TIP3   OH2  362   4.981   3.793   0.512  0.2199  0.4103 -0.4337
  133TIP3    H1  363   5.062   3.841   0.530 -0.2552  0.6141  1.3356
  133TIP3    H2  364   4.941   3.841   0.439 -0.3776  3.0000  1.4224
  134TIP3   OH2  365   5.632   6.478   3.291  0.8068  0.2438  0.5352
  134TIP3    H1  366   5.558   6.426   3.262  2.3726 -1.0708 -1.3872
  134TIP3    H2  367   5.626   6.478   3.387 -2.7064  1.8968  0.4468
  135TIP3   OH2  368   2.875   5.021   3.112 -0.3124  0.4294 -0.3018
  135TIP3    H1  369   2.847   4.949   3.169 -1.2098  0.9325 -0.0828
  135TIP3    H2  370   2.843   4.997   3.025 -1.2448  0.8877 -0.0965
  136TIP3   OH2  371   3.221   6.610   2.228 -0.4052 -0.4878 -0.0341
  136TIP3    H1  372   3.298   6.559   2.256  0.3782 -0.0948 -1.3731
  136TIP3    H2  373   3.221   6.686   2.285 -1.0499 -1.5011  1.3767
  137TIP3   OH2  374   4.721   5.022   4.423 -0.5666  0.2675  0.0411
  137TIP3    H1  375   4.680   5.023   4.509 -0.7100  0.2467 -0.0256
  137TIP3    H2  376   4.796   5.080   4.431  0.1994 -0.7512  0.5550
  138TIP3   OH2  377   3.998   0.147   0.993 -0.1882  0.5176  0.3050
  138TIP3    H1  378   4.027   0.056   0.990 -3.2019 -0.5364 -0.1562
  138TIP3    H2  379   4.004   0.177   0.903  1.7784  1.1706  0.6168
  139TIP3   OH2  380   6.093   5.452   0.322  0.6706  0.3277 -0.1174
  139TIP3    H1  381   6.078   5.542   0.351 -0.3709  0.0539  0.2568
  139TIP3    H2  382   6.134   5.409   0.397 -0.7651 -0.0239  0.5206
  140TIP3   OH2  383   2.450   6.609   4.524 -0.7641  0.6520 -0.6344
  140TIP3    H1  384   2.470   6.540   4.588 -4.3579  0.2430  0.2754
  140TIP3    H2  385   2.491   6.687   4.560  0.4438 -0.3038  0.1663
  141TIP3   OH2  386   4.926   3.209   0.722  0.1926 -0.3349 -0.2433
  141TIP3    H1  387   4.955   3.120   0.743  1.0406  0.0420  0.2105
  141TIP3    H2  388   4.908   3.207   0.628  2.4364 -0.3928 -0.7169
  142TIP3   OH2  389   5.514   2.825   1.431 -0.4890 -0.1619 -0.1091
  142TIP3    H1  390   5.591   2.770   1.446 -1.0217 -1.2086 -0.9879
  142TIP3    H2  391   5.509   2.881   1.508  0.9912 -0.2548  0.0844
  143TIP3   OH2  392   3.071   3.299   1.693 -0.0699 -0.6270  0.2216
  143TIP3    H1  393   3.134   3.227   1.696  0.5405 -0.0764  1.5667
  143TIP3    H2  394   3.045   3.305   1.601  2.1048 -0.6623 -0.4458
  144TIP3   OH2  395   4.531   0.422   1.422  0.7477  0.2698  0.3637
  144TIP3    H1  396   4.624   0.440   1.435  0.9754  1.1211 -2.0257
  144TIP3    H2  397   4.526   0.376   1.338 -0.9323 -0.5241  0.8439
  145TIP3   OH2  398   3.899   0.490   1.443  0.4916 -0.2313  0.2622
  145TIP3    H1  399   3.829   0.550   1.417  0.8860 -0.6425 -1.8861
  145TIP3    H2  400   3.884   0.475   1.537 -0.6077  1.8711  0.4810
  146TIP3   OH2  401   2.744   4.588   1.140  0.3084  0.2322  0.7566
  146TIP3    H1  402   2.830   4.545   1.138  0.0756 -0.2137 -0.1819
  146TIP3    H2  403   2.742   4.642   1.061 -0.5484 -0.3189  0.3887
  147TIP3   OH2  404   3.072   1.230   3.716  0.1491 -0.1859 -0.0604
  147TIP3    H1  405   3.028   1.226   3.631  0.1471  0.9438 -0.1315
  147TIP3    H2  406   3.004   1.204   3.779 -0.7806  1.7986 -0.1436
  148TIP3   OH2  407   3.396   2.091   2.873 -0.3021 -0.0415 -0.9659
  148TIP3    H1  408   3.356   2.125   2.793 -2.6715  0.1246  0.2180
  148TIP3    H2  409   3.323   2.064   2.928  1.1395  1.2008  1.7761
  149TIP3   OH2  410   1.591   3.588   2.737  0.1802 -0.0494 -0.3148
  149TIP3    H1  411   1.677   3.546   2.725 -0.0547 -0.3738 -0.9711
  149TIP3    H2  412   1.533   3.541   2.676 -0.9018 -1.0702  1.4254
  150TIP3   OH2  413   5.480   5.585   1.695 -0.1267 -0.8493 -0.6324
  150TIP3    H1  414   5.521   5.600   1.610 -0.0843 -0.6833 -0.5831
  150TIP3    H2  415   5.410   5.521   1.677  1.4600 -2.7567 -0.3505
  151TIP3   OH2  416   6.305   0.995   0.464 -0.4327 -0.2521  0.1207
  151TIP3    H1  417   6.287   1.006   0.370 -1.5201  1.5598  0.5017
  151TIP3    H2  418   6.344   1.078   0.491  2.6731 -1.7544  0.7320
  152TIP3   OH2  419   6.531   0.088   0.624  0.3689  0.0618 -0.4817
  152TIP3    H1  420   6.556   0.028   0.553 -0.8915 -0.5500 -0.4493
  152TIP3    H2  421   6.604   0.148   0.632  2.0337 -1.9333 -0.0102
  153TIP3   OH2  422   3.618   5.303   2.109  0.0131 -0.4416  0.2468
  153TIP3    H1  423   3.642   5.395   2.102 -1.6640  0.1249  1.1932
  153TIP3    H2  424   3.699   5.255   2.095  0.9277  1.1758 -0.2299
  154TIP3   OH2  425   0.096   1.269   4.507 -0.3105 -0.1482  0.1645
  154TIP3    H1  426   0.016   1.279   4.455 -1.0826  0.1239  1.3683
  154TIP3    H2  427   0.151   1.342   4.480 -0.8129  0.1479 -0.0796
  155TIP3   OH2  428   3.275   4.580   4.824 -0.4178 -0.0419 -0.5968
  155TIP3    H1  429   3.287   4.582   4.919 -2.4165 -0.2894 -0.3112
  155TIP3    H2  430   3.264   4.672   4.799 -0.5229 -0.0289 -0.5035
  156TIP3   OH2  431   1.734   3.138   2.329 -0.2662  0.2038  0.9084
  156TIP3    H1  432   1.686   3.106   2.405  0.3495  1.3724  1.8176
  156TIP3    H2  433   1.803   3.194   2.365  0.4298  0.2879 -0.4745
  157TIP3   OH2  434   0.221   6.403   3.871  0.1260  0.2287 -0.2046
  157TIP3    H1  435   0.176   6.485   3.890 -0.0273 -0.1714  1.3056
  157TIP3    H2  436   0.248   6.370   3.957 -1.0494 -2.0180 -0.6136
  158TIP3   OH2  437   6.405   1.010   1.750 -0.6330 -0.3569  0.5913
  158TIP3    H1  438   6.319   1.033   1.716 -0.0522 -1.0888 -1.5832
  158TIP3    H2  439   6.387   0.963   1.831 -2.1830  0.7921  0.9582
  159TIP3   OH2  440   0.557   4.563   3.505 -0.4620  0.9145  0.1565
  159TIP3    H1  441   0.610   4.632   3.546  0.8484 -0.7255  1.3941
  159TIP3    H2  442   0.514   4.606   3.431  0.2893  3.0372  0.8726
  160TIP3   OH2  443   3.190   2.235   0.225  0.6575 -0.0909  1.1313
  160TIP3    H1  444   3.195   2.330   0.239  0.3866  0.0824  0.1477
  160TIP3    H2  445   3.096   2.217   0.217  0.7844 -0.0972 -0.7648
  161TIP3   OH2  446   6.950   2.336   5.418  0.2229 -0.6644  0.1864
  161TIP3    H1  447   6.914   2.424   5.412 -0.7950 -1.0969 -0.3813
  161TIP3    H2  448   6.874   2.280   5.435  1.1759 -1.1562  3.4898
  162TIP3   OH2  449   2.975   2.288   1.247 -0.0066 -0.8874 -0.1071
  162TIP3    H1  450   2.989   2.379   1.272  0.2511 -0.8693 -0.3163
  162TIP3    H2  451   2.955   2.244   1.330 -0.1209 -0.6453 -0.0034
  163TIP3   OH2  452   4.279   5.171   0.188 -0.1125 -0.4180  0.7283
  163TIP3    H1  453   4.205   5.178   0.128 -0.4661 -0.5067  1.1487
  163TIP3    H2  454   4.339   5.111   0.144  0.3640  0.7494 -0.2640
  164TIP3   OH2  455   1.952   0.966   1.282 -0.6954  0.5120 -0.4481
  164TIP3    H1  456   1.893   0.992   1.352  0.9480 -0.4628  1.3957
  164TIP3    H2  457   1.936   0.873   1.270 -0.1919  0.4446 -0.6105
  165TIP3   OH2  458   4.715   6.675   1.283 -0.4602  0.1651  0.0536
  165TIP3    H1  459   4.736   6.766   1.306  1.3348 -0.2092  0.0290
  165TIP3    H2  460   4.769   6.656   1.207 -0.5047 -1.0491  0.3025
  166TIP3   OH2  461   1.648   3.461   2.420  0.3669 -0.3623 -0.5131
  166TIP3    H1  462   1.586   3.484   2.351 -0.5578 -2.6932 -0.5328
  166TIP3    H2  463   1.661   3.367   2.411  1.3906 -0.4813  1.5373
  167TIP3   OH2  464   1.155   5.611   4.373  0.9453  0.4954  0.6853
  167TIP3    H1  465   1.212   5.587   4.446  0.5149 -1.4420  0.4354
  167TIP3    H2  466   1.068   5.583   4.400  0.8386 -0.6071 -0.6974
  168TIP3   OH2  467   4.810   0.276   0.125 -0.1359 -0.3234 -0.5102
  168TIP3    H1  468   4.873   0.304   0.192 -0.4018 -0.1522 -0.3282
  168TIP3    H2  469   4.853   0.297   0.042 -0.9033  2.0526 -0.4011
  169TIP3   OH2  470   4.727   4.500   2.069 -0.6679 -0.2798 -0.1481
  169TIP3    H1  471   4.740   4.539   2.156 -0.4827  2.0310 -1.1456
  169TIP3    H2  472   4.791   4.544   2.013 -0.6600 -1.8499 -1.4647
  170TIP3   OH2  473   6.445   1.290   5.434  0.4024  0.0111 -0.0889
  170TIP3    H1  474   6.493   1.351   5.489  1.6270 -1.0683  0.0857
  170TIP3    H2  475   6.357   1.328   5.426  1.5254  2.5505 -1.2361
  171TIP3   OH2  476   6.585   3.964   4.058  0.1488 -0.3976  0.0082
  171TIP3    H1  477   6.620   3.875   4.048  1.4010 -0.0435  0.9265
  171TIP3    H2  478   6.508   3.953   4.113 -0.2931 -1.0231 -0.7163
  172TIP3   OH2  479   4.612   1.237   2.492 -0.5546 -0.4268  0.3723
  172TIP3    H1  480   4.526   1.279   2.484  0.2739  1.6184  1.5028
  172TIP3    H2  481   4.637   1.216   2.403 -1.4560  0.5948 -0.1440
  173TIP3   OH2  482   5.750   1.244   2.645  0.1875  0.2754 -0.0335
  173TIP3    H1  483   5.722   1.241   2.736  0.4757  0.6207  0.0678
  173TIP3    H2  484   5.678   1.288   2.599 -0.3588 -0.6906 -0.1323
  174TIP3   OH2  485   0.550   5.456   2.169 -0.6179 -0.3834 -0.2348
  174TIP3    H1  486   0.575   5.545   2.142  1.3481 -1.3043 -1.6737
  174TIP3    H2  487   0.488   5.427   2.102 -0.4044 -0.4815 -0.3922
  175TIP3   OH2  488   5.362   4.023   1.555  0.0924  0.2791  0.0219
  175TIP3    H1  489   5.332   4.090   1.493  0.3525  0.9830  0.6357
  175TIP3    H2  490   5.452   4.049   1.576 -0.3454  0.6970  1.5200
  176TIP3   OH2  491   1.070   0.102   5.648  0.3676 -0.8008  0.2097
  176TIP3    H1  492   1.162   0.081   5.659  0.9353  0.5997 -1.3324
  176TIP3    H2  493   1.024   0.021   5.669  1.8468 -1.2274  2.0383
  177TIP3   OH2  494   3.954   2.216   5.264  0.0542  0.2336 -0.0054
  177TIP3    H1  495   3.872   2.208   5.312  0.2795 -0.2644  0.2973
  177TIP3    H2  496   4.016   2.161   5.311  0.4382  0.2181 -0.5132
  178TIP3   OH2  497   7.050   1.950   2.078  0.2673  0.2971 -0.0676
  178TIP3    H1  498   7.094   1.869   2.052 -1.2504 -0.1854 -1.3130
  178TIP3    H2  499   6.958   1.925   2.085 -0.0801  1.7010  0.5197
  179TIP3   OH2  500   1.547   5.838   0.029  0.0844 -0.2378  0.2493
  179TIP3    H1  501   1.630   5.802  -0.002 -0.0662  0.9773 -1.7418
  179TIP3    H2  502   1.542   5.811   0.121  2.8293 -0.0599  0.5390
  180TIP3   OH2  503   3.142   3.716   0.910 -0.0067  0.3777  0.3131
  180TIP3    H1  504   3.151   3.621   0.901  2.9304  0.6754 -1.0216
  180TIP3    H2  505   3.180   3.736   0.995  0.6231  0.4623  0.0172
  181TIP3   OH2  506   4.998   5.162   4.924 -0.2470  0.5798  0.7355
  181TIP3    H1  507   5.074   5.115   4.957 -0.5056  0.7704  1.6104
  181TIP3    H2  508   4.982   5.231   4.988 -1.4305  0.2736  0.7900
  182TIP3   OH2  509   1.671   5.545   0.636  0.0406  0.1132 -0.0143
  182TIP3    H1  510   1.583   5.510   0.653 -0.1858  0.0727 -1.2110
  182TIP3    H2  511   1.673   5.561   0.542  2.3251 -2.8054 -0.6327
  183TIP3   OH2  512   6.979   3.641   5.063 -0.7134  0.1609  0.1775
  183TIP3    H1  513   7.009   3.623   4.974  0.5340 -1.5385  0.8851
  183TIP3    H2  514   7.044   3.700   5.099 -0.9998  0.5251  0.1061
  184TIP3   OH2  515   4.361   6.198   2.034 -0.0130 -0.2986  0.1428
  184TIP3    H1  516   4.287   6.143   2.058 -1.4685  1.8994  1.0189
  184TIP3    H2  517   4.362   6.267   2.101  2.2018  0.3260 -0.4438
  185TIP3   OH2  518   0.470   0.839   4.158 -0.2167 -0.6583 -0.7694
  185TIP3    H1  519   0.555   0.800   4.137  0.0870 -1.1237  1.1213
  185TIP3    H2  520   0.487   0.933   4.165  0.3935 -0.8515  0.5946
  186TIP3   OH2  521   6.074   2.920   0.707 -0.0618 -0.4308  0.8833
  186TIP3    H1  522   6.001   2.978   0.732 -0.6335 -0.7612  0.0189
  186TIP3    H2  523   6.151   2.977   0.710 -0.3834 -0.0236  1.6152
  187TIP3   OH2  524   6.471   5.311   4.488  0.0134  0.2142 -0.0558
  187TIP3    H1  525   6.552   5.345   4.527  0.0582 -0.5771  0.5819
  187TIP3    H2  526   6.405   5.377   4.509 -0.2184 -0.6813  2.4607
  188TIP3   OH2  527   6.841   1.457   1.582 -0.0482 -0.3423  0.6284
  188TIP3    H1  528   6.789   1.415   1.514 -0.8503  0.0370  0.9915
  188TIP3    H2  529   6.925   1.411   1.581 -0.4518 -1.0734  0.1508
  189TIP3   OH2  530   0.173   1.381   1.844  0.4727  0.4459 -0.3740
  189TIP3    H1  531   0.105   1.386   1.912  1.0040  1.6768  0.0848
  189TIP3    H2  532   0.129   1.338   1.770 -0.4297  0.0613  0.3605
  190TIP3   OH2  533   4.138   5.653   5.466  0.0965 -0.8316  0.2269
  190TIP3    H1  534   4.107   5.596   5.537  0.0539  1.3009  2.0450
  190TIP3    H2  535   4.153   5.738   5.508  1.5113  0.1563 -2.0565
  191TIP3   OH2  536   5.800   4.665   0.013  0.0006 -0.5644 -0.6009
  191TIP3    H1  537   5.751   4.727   0.067 -1.1918 -1.5576 -0.4946
  191TIP3    H2  538   5.807   4.586   0.067  1.4222 -0.5887 -0.7663
  192TIP3   OH2  539   4.445   1.956   4.423  0.5907 -0.5408 -0.2066
  192TIP3    H1  540   4.535   1.960   4.391  0.1353 -0.4666 -1.5496
  192TIP3    H2  541   4.395   2.005   4.358 -0.3156  0.0896  0.9354
  193TIP3   OH2  542   1.712   0.437   4.880 -0.3899 -0.2119  0.1533
  193TIP3    H1  543   1.747   0.509   4.827  0.9578 -0.7987  0.2158
  193TIP3    H2  544   1.737   0.358   4.832  0.6579 -0.7405  1.5326
  194TIP3   OH2  545   1.464   2.060   4.450  0.5169  0.2304  0.0493
  194TIP3    H1  546   1.489   2.120   4.520 -1.8712  3.0547 -1.3017
  194TIP3    H2  547   1.372   2.039   4.469  0.2020  0.0397 -1.5491
  195TIP3   OH2  548   6.385   4.443   2.570  0.1222 -0.5128  0.1340
  195TIP3    H1  549   6.462   4.387   2.579 -0.0576 -0.5579  1.6540
  195TIP3    H2  550   6.364   4.440   2.477  1.7947 -0.7099 -0.2641
  196TIP3   OH2  551   6.659   0.701   0.904  0.0245  0.1353 -0.4131
  196TIP3    H1  552   6.709   0.709   0.985  0.1695 -0.1803 -0.4704
  196TIP3    H2  553   6.646   0.791   0.875  2.1389  0.1832 -1.3775
  197TIP3   OH2  554   1.057   5.448   3.488  0.4389  0.3169 -0.4220
  197TIP3    H1  555   1.141   5.406   3.471  0.4527  1.0743 -2.5281
  197TIP3    H2  556   1.054   5.522   3.427 -1.2768  0.9929  0.3979
  198TIP3   OH2  557   0.121   5.279   1.872 -0.9354 -0.4219  0.0488
  198TIP3    H1  558   0.188   5.286   1.804  0.1073 -0.4249  1.0524
  198TIP3    H2  559   0.049   5.334   1.840 -0.5295 -0.5403 -1.1210
  199TIP3   OH2  560   4.604   6.613   4.132  0.0570  0.0799  0.1641
  199TIP3    H1  561   4.648   6.686   4.176  0.3464 -0.7034  1.1841
  199TIP3    H2  562   4.675   6.559   4.099 -0.1089  1.3912 -2.6344
  200TIP3   OH2  563   3.809   1.627   1.344  0.1428  0.8240  0.5615
  200TIP3    H1  564   3.772   1.558   1.288  0.1744  0.3313  1.1358
  200TIP3    H2  565   3.781   1.603   1.432  3.6947 -0.9021  1.3930
  201TIP3   OH2  566   1.746   1.240   0.852 -0.7706  0.6556  0.2117
  201TIP3    H1  567   1.732   1.146   0.860  1.4019  0.2858  0.2583
  201TIP3    H2  568   1.662   1.275   0.824 -0.7881 -1.7259 -3.2675
  202TIP3   OH2  569   2.566   0.810   5.526 -0.1497  0.2093  0.1392
  202TIP3    H1  570   2.543   0.875   5.459  2.3328  0.2267 -0.8445
  202TIP3    H2  571   2.526   0.843   5.607 -1.9080  1.0366 -1.0048
  203TIP3   OH2  572   0.821   1.015   1.991 -0.5171 -0.1575 -0.0639
  203TIP3    H1  573   0.837   1.002   2.084 -0.0901  1.0801  0.0631
  203TIP3    H2  574   0.907   1.036   1.954 -0.8715  0.5943 -0.4969
  204TIP3   OH2  575   2.198   3.701   2.240  0.0609 -0.0626  0.3361
  204TIP3    H1  576   2.239   3.635   2.296  0.1633 -0.9560 -0.7570
  204TIP3    H2  577   2.105   3.679   2.243  0.1376 -0.4934 -0.3180
  205TIP3   OH2  578   7.178   6.643   5.313  0.0611 -0.6134 -0.1199
  205TIP3    H1  579   7.209   6.557   5.283 -0.5126 -1.0271  0.4354
  205TIP3    H2  580   7.140   6.683   5.235  0.8995 -0.5910 -0.5310
  206TIP3   OH2  581   2.513   1.089   0.465  0.1730 -0.1758 -0.0597
  206TIP3    H1  582   2.545   1.005   0.431  0.6784 -0.5816  1.3197
  206TIP3    H2  583   2.565   1.102   0.545 -0.9418  0.7237  0.5310
  207TIP3   OH2  584   2.349   3.863   0.991  0.1879  0.0864 -0.5581
  207TIP3    H1  585   2.278   3.895   1.046  0.3813  0.1256 -0.3293
  207TIP3    H2  586   2.371   3.937   0.934 -0.2390 -0.0615 -0.9267
  208TIP3   OH2  587   5.806   4.260   4.303 -0.3530  0.1096  0.0938
  208TIP3    H1  588   5.827   4.172   4.332  0.8390 -0.0084 -1.0296
  208TIP3    H2  589   5.890   4.296   4.274 -0.9030  1.4459  0.0910
  209TIP3   OH2  590   5.830   5.705   2.628 -0.4273 -0.2562  0.2636
  209TIP3    H1  591   5.842   5.784   2.681  0.0723 -0.1618  0.0207
  209TIP3    H2  592   5.766   5.653   2.676  0.4123 -0.4175  1.2550
  210TIP3   OH2  593   2.941   1.632   2.864  0.4873 -0.4758  0.3181
  210TIP3    H1  594   2.847   1.626   2.879  0.6108 -0.5246  1.1086
  210TIP3    H2  595   2.969   1.541   2.852  0.5643 -0.5426  0.9557
  211TIP3   OH2  596   1.148   3.950   5.640  0.4378  0.1410  0.3998
  211TIP3    H1  597   1.223   3.992   5.684 -0.8261  2.2955  0.6707
  211TIP3    H2  598   1.107   4.021   5.591 -2.2637 -0.5748  1.4376
  212TIP3   OH2  599   3.281   0.381   2.909 -0.1481  0.7379 -0.1775
  212TIP3    H1  600   3.197   0.337   2.915 -1.2265  2.0660 -3.4128
  212TIP3    H2  601   3.290   0.427   2.992 -1.3954 -1.3532  1.2095
  213TIP3   OH2  602   0.091   0.942   1.426  0.0885 -0.1424 -0.5978
  213TIP3    H1  603   0.166   0.993   1.455  0.7139 -1.3096 -0.1114
  213TIP3    H2  604   0.073   0.973   1.337  0.3828  0.9748 -0.2824
  214TIP3   OH2  605   2.666   3.556   5.019  0.2775 -0.4860 -0.4605
  214TIP3    H1  606   2.608   3.629   4.997  1.0197  0.2390 -0.0351
  214TIP3    H2  607   2.606   3.485   5.043 -0.4420  0.0839 -0.5398
  215TIP3   OH2  608   6.427   1.529   2.687 -0.0283  0.2022  0.1730
  215TIP3    H1  609   6.394   1.581   2.614  1.1959 -0.5429 -0.9637
  215TIP3    H2  610   6.355   1.526   2.750 -1.8228 -0.6571 -1.8195
  216TIP3   OH2  611   7.078   4.164   3.858  0.5152 -0.3414  0.5827
  216TIP3    H1  612   7.142   4.146   3.927  0.1199  1.2800  1.4393
  216TIP3    H2  613   7.008   4.100   3.873  0.8111 -0.5367  1.1864
  217TIP3   OH2  614   0.981   2.193   5.171  0.3802  0.3952  0.1738
  217TIP3    H1  615   0.915   2.163   5.109  1.6733 -1.1022 -0.5485
  217TIP3    H2  616   0.967   2.288   5.178 -1.3171  0.2236 -0.5364
  218TIP3   OH2  617   3.965   5.212   3.386  0.0688 -0.4450 -0.1209
  218TIP3    H1  618   4.023   5.215   3.462 -0.1256 -0.3373  0.0243
  218TIP3    H2  619   3.879   5.189   3.422  0.1130 -1.0431 -0.3909
  219TIP3   OH2  620   6.739   4.598   0.842  0.1150 -0.5295  0.2437
  219TIP3    H1  621   6.658   4.586   0.893  0.1871  1.0083  0.7873
  219TIP3    H2  622   6.735   4.690   0.813  0.7373 -0.9921 -1.4039
  220TIP3   OH2  623   6.677   5.870   0.356  1.0402 -0.4252  0.5737
  220TIP3    H1  624   6.603   5.822   0.321 -0.8508  1.0489  2.2556
  220TIP3    H2  625   6.727   5.899   0.280  0.1365 -1.7901 -0.5740
  221TIP3   OH2  626   4.661   3.135   1.897  0.4965 -0.6977 -0.1418
  221TIP3    H1  627   4.741   3.156   1.947 -0.5690  0.1251  1.3153
  221TIP3    H2  628   4.595   3.120   1.965 -1.4630  2.1601 -1.2459
  222TIP3   OH2  629   0.066   4.886   1.796  0.1618  0.0270 -0.0826
  222TIP3    H1  630   0.074   4.800   1.835  0.4740  0.0999  0.0130
  222TIP3    H2  631   0.036   4.943   1.867  1.4590  0.3152  0.2482
  223TIP3   OH2  632   0.816   1.711   4.305  0.0058  0.3480 -0.2644
  223TIP3    H1  633   0.768   1.692   4.385 -0.0138 -0.3214 -0.4290
  223TIP3    H2  634   0.894   1.656   4.310 -0.0800  0.1773 -0.7849
  224TIP3   OH2  635   0.128   4.115   1.646 -0.2532 -0.4243  0.1044
  224TIP3    H1  636   0.075   4.113   1.566 -0.0949 -1.7120  0.0069
  224TIP3    H2  637   0.208   4.068   1.621  0.7354  1.0286  0.3973
  225TIP3   OH2  638   1.501   1.800   2.694  0.2562  0.7008 -0.3427
  225TIP3    H1  639   1.547   1.880   2.718 -1.5616  1.1557  2.0532
  225TIP3    H2  640   1.408   1.822   2.704 -0.3754 -1.1655 -1.5416
  226TIP3   OH2  641   1.518   3.308   0.586 -0.0637 -1.1698  0.0663
  226TIP3    H1  642   1.498   3.307   0.493 -1.6616 -0.7874  0.3744
  226TIP3    H2  643   1.473   3.232   0.622 -1.8164  0.1771  0.9121
  227TIP3   OH2  644   7.019   6.312   0.872 -0.0725 -0.2253 -0.2756
  227TIP3    H1  645   7.054   6.290   0.786  1.1075 -0.2659  0.1871
  227TIP3    H2  646   6.990   6.228   0.909 -1.5397 -0.0711 -1.0146
  228TIP3   OH2  647   5.514   5.243   0.641  0.0780 -0.1426  0.4184
  228TIP3    H1  648   5.541   5.328   0.676  0.9265 -0.3931  0.4045
  228TIP3    H2  649   5.524   5.182   0.714 -0.9389 -0.1691  0.5519
  229TIP3   OH2  650   5.672   1.341   3.150  0.0779  0.1544 -0.5536
  229TIP3    H1  651   5.749   1.296   3.185 -0.1962 -0.4712 -0.7408
  229TIP3    H2  652   5.662   1.305   3.062  1.4533  2.5415 -1.7828
  230TIP3   OH2  653   6.437   1.004   2.820 -0.5247  0.1601  0.4965
  230TIP3    H1  654   6.495   1.023   2.746 -1.6566  2.0417  0.0322
  230TIP3    H2  655   6.433   1.085   2.869 -2.9781  0.2046  0.3233
  231TIP3   OH2  656   5.256   0.548   0.147  0.3112  0.5749 -0.7295
  231TIP3    H1  657   5.350   0.551   0.128  0.3551  2.0280 -0.4331
  231TIP3    H2  658   5.216   0.511   0.069  1.3420 -2.8353  0.1751
  232TIP3   OH2  659   1.335   6.666   5.417 -0.0732  0.2523 -0.1831
  232TIP3    H1  660   1.341   6.709   5.331  0.2455 -0.4733 -0.5355
  232TIP3    H2  661   1.247   6.630   5.419  0.3976 -1.0013 -0.8446
  233TIP3   OH2  662   5.470   0.111   1.211 -0.0030  0.3475 -0.2228
  233TIP3    H1  663   5.475   0.034   1.153  0.3563  0.1946  0.0056
  233TIP3    H2  664   5.442   0.075   1.295 -1.5577  0.7127 -0.5580
  234TIP3   OH2  665   2.473   3.518   1.902  0.1285 -0.3141  0.6426
  234TIP3    H1  666   2.548   3.481   1.855 -0.2096 -2.0824  1.4054
  234TIP3    H2  667   2.442   3.447   1.958 -1.6322  0.6288  0.9561
  235TIP3   OH2  668   6.237   2.025   2.585  0.2750 -0.0632  0.3504
  235TIP3    H1  669   6.191   2.106   2.607  2.2824  1.0730  0.5725
  235TIP3    H2  670   6.175   1.976   2.531 -1.3599  1.1528  1.0652
  236TIP3   OH2  671   2.237   5.768   1.302 -0.2279 -0.1198  0.4241
  236TIP3    H1  672   2.280   5.811   1.228  0.6335  0.7440  1.3769
  236TIP3    H2  673   2.169   5.829   1.330 -1.6987 -1.1993 -0.6759
  237TIP3   OH2  674   2.428   3.418   5.063 -0.2456  0.0044 -0.3194
  237TIP3    H1  675   2.389   3.350   5.119 -1.2483 -0.2274 -1.2701
  237TIP3    H2  676   2.448   3.373   4.981  1.6818  0.2210 -0.0333
  238TIP3   OH2  677   6.795   1.026   3.722 -0.0909 -0.0374 -0.2280
  238TIP3    H1  678   6.763   0.937   3.736  1.9006 -0.4539  2.3955
  238TIP3    H2  679   6.885   1.016   3.691 -0.3087  1.1096 -1.3517
  239TIP3   OH2  680   3.609   1.148   1.039  0.8404 -0.4393  0.0576
  239TIP3    H1  681   3.612   1.200   0.958  0.5355 -3.0189 -1.7274
  239TIP3    H2  682   3.699   1.148   1.071  1.1692 -0.2121 -0.8532
  240TIP3   OH2  683   4.030   2.531   4.594 -0.0217  0.2649  0.3765
  240TIP3    H1  684   3.975   2.481   4.533  0.1092 -0.4485  0.8286
  240TIP3    H2  685   4.102   2.563   4.539 -0.6231  0.7956 -0.1190
  241TIP3   OH2  686   4.463   3.263   3.197 -0.0221 -0.1074  0.0684
  241TIP3    H1  687   4.524   3.192   3.217 -1.2864 -0.9898  0.9662
  241TIP3    H2  688   4.485   3.333   3.259 -0.2591 -0.6388  0.7672
  242TIP3   OH2  689   5.485   0.635   2.016  0.0708 -0.2983 -0.1786
  242TIP3    H1  690   5.513   0.589   1.937  2.2153  0.4063  0.0807
  242TIP3    H2  691   5.465   0.724   1.986 -2.6080 -0.9233 -0.4421
  243TIP3   OH2  692   2.855   2.634   5.066  0.2026  0.3573  0.3639
  243TIP3    H1  693   2.809   2.564   5.114  2.1883 -0.8587  0.5984
  243TIP3    H2  694   2.916   2.671   5.131  1.4645  0.0869 -0.6312
  244TIP3   OH2  695   0.442   4.491   4.432 -0.2234  0.8591 -0.0687
  244TIP3    H1  696   0.407   4.576   4.406  0.7009  1.2804  0.0121
  244TIP3    H2  697   0.424   4.433   4.357 -0.5659  1.2017 -0.2543
  245TIP3   OH2  698   1.206   0.009   3.132 -1.1483 -0.3773 -0.4079
  245TIP3    H1  699   1.172  -0.072   3.171 -0.4869  1.1356  3.8722
  245TIP3    H2  700   1.128   0.063   3.117 -1.3812 -0.7423 -0.5104
  246TIP3   OH2  701   3.973   6.101   1.716 -0.3833  0.2437  0.2592
  246TIP3    H1  702   4.007   6.019   1.681  0.0102  0.4949  0.0465
  246TIP3    H2  703   4.050   6.146   1.751 -0.5588  0.6418  0.1341
  247TIP3   OH2  704   3.287   5.409   1.277  0.6550 -0.1330 -0.0860
  247TIP3    H1  705   3.330   5.378   1.357 -2.5585 -0.3374  1.7410
  247TIP3    H2  706   3.237   5.486   1.306 -0.6615 -0.2644 -1.8783
  248TIP3   OH2  707   2.555   4.167   4.994  0.3021 -0.2137 -0.3212
  248TIP3    H1  708   2.640   4.209   4.983 -0.8804  2.1836 -1.0721
  248TIP3    H2  709   2.516   4.212   5.069 -1.3631  0.7567 -1.6899
  249TIP3   OH2  710   4.865   6.527   2.264  0.6365 -0.3376  0.4095
  249TIP3    H1  711   4.812   6.489   2.194  0.8827 -0.7538  0.4454
  249TIP3    H2  712   4.805   6.585   2.311  0.5069  0.0401 -0.2216
  250TIP3   OH2  713   6.667   6.592   5.093  1.0511 -0.2213  0.4005
  250TIP3    H1  714   6.644   6.549   5.176  1.7308  0.1635  0.8002
  250TIP3    H2  715   6.622   6.676   5.096 -0.0612 -0.7736 -0.2612
  251TIP3   OH2  716   3.731   6.025   0.739  0.2382  0.3073 -0.4415
  251TIP3    H1  717   3.757   5.942   0.698  1.2488 -0.6357  1.8971
  251TIP3    H2  718   3.812   6.076   0.744 -0.3488  1.4209 -1.7088
  252TIP3   OH2  719   0.591   1.696   2.404 -0.0438  0.1630 -0.2871
  252TIP3    H1  720   0.518   1.754   2.379 -0.6743 -0.9072 -0.9974
  252TIP3    H2  721   0.548   1.618   2.439  0.8072  0.2509  1.0054
  253TIP3   OH2  722   1.939   5.055   3.233  0.2053  0.2132  0.1728
  253TIP3    H1  723   2.026   5.060   3.192  1.6397  0.8666  3.0362
  253TIP3    H2  724   1.942   5.120   3.303 -1.8020 -1.2802  1.7692
  254TIP3   OH2  725   4.518   2.371   1.508 -0.0564 -0.0368 -0.2659
  254TIP3    H1  726   4.560   2.309   1.448 -0.7075  0.9901 -1.8490
  254TIP3    H2  727   4.424   2.358   1.496 -0.2131  1.2687 -0.6913
  255TIP3   OH2  728   4.672   5.563   5.357  0.1676  0.5498 -0.1443
  255TIP3    H1  729   4.760   5.598   5.341  0.8361 -1.0125 -0.0718
  255TIP3    H2  730   4.682   5.468   5.347 -1.7676  0.4246 -1.2819
  256TIP3   OH2  731   1.153   5.970   0.568 -0.0512 -0.0768 -0.5755
  256TIP3    H1  732   1.129   5.947   0.478  1.1349 -0.5874 -0.7808
  256TIP3    H2  733   1.093   6.041   0.591  0.2197  0.6944 -2.0959
  257TIP3   OH2  734   5.175   0.428   0.877 -0.1757 -0.9662  0.1265
  257TIP3    H1  735   5.269   0.413   0.868  0.3717  0.4510  2.5282
  257TIP3    H2  736   5.152   0.387   0.960 -1.3001  0.1591  0.4117
  258TIP3   OH2  737   2.253   2.474   2.548 -0.0686  0.6160  0.5033
  258TIP3    H1  738   2.299   2.517   2.476  0.6677 -0.6758  0.1559
  258TIP3    H2  739   2.298   2.505   2.627  0.1120  0.8875  0.2950
  259TIP3   OH2  740   3.003   5.107   4.754 -0.3702  0.1291 -0.2536
  259TIP3    H1  741   3.097   5.098   4.734 -0.3489 -1.5315  0.4097
  259TIP3    H2  742   2.960   5.082   4.672 -0.2694  2.0955 -0.9590
  260TIP3   OH2  743   1.175   1.008   3.861  0.4397  0.0687 -0.2164
  260TIP3    H1  744   1.168   1.034   3.769 -1.5184 -0.6583 -0.3338
  260TIP3    H2  745   1.084   1.003   3.891  0.9948 -0.7569  1.4511
  261TIP3   OH2  746   5.718   1.950   2.589  0.4627 -0.4873  0.5791
  261TIP3    H1  747   5.643   1.897   2.617  1.4116 -1.0932  2.0763
  261TIP3    H2  748   5.705   2.034   2.633  0.1520 -0.2343  0.0213
  262TIP3   OH2  749   4.868   6.401   0.614  0.2923  0.0704 -0.3387
  262TIP3    H1  750   4.823   6.316   0.615  0.0223  0.2136  0.1766
  262TIP3    H2  751   4.881   6.420   0.522  0.3840 -0.5482 -0.4595
  263TIP3   OH2  752   4.050   5.025   2.402  0.1408  0.1068  0.0200
  263TIP3    H1  753   4.018   4.942   2.436 -0.7873  0.7736  0.8211
  263TIP3    H2  754   3.985   5.089   2.430 -0.0299  0.8794 -1.9886
  264TIP3   OH2  755   0.278   3.052   0.049 -0.1994 -0.3535 -0.0240
  264TIP3    H1  756   0.320   3.048   0.135  0.0276 -1.3873 -0.1721
  264TIP3    H2  757   0.341   3.101  -0.005 -0.4812  0.5653  0.4628
  265TIP3   OH2  758   3.668  -0.008   0.481 -0.1636 -0.2384  0.0734
  265TIP3    H1  759   3.743   0.046   0.509  0.1943  0.0925 -1.4357
  265TIP3    H2  760   3.626  -0.033   0.563  1.3367 -0.0550  0.9554
  266TIP3   OH2  761   0.960   0.900   3.492  0.3789 -0.0962  0.0088
  266TIP3    H1  762   1.026   0.964   3.517 -0.9324  1.9247 -1.3972
  266TIP3    H2  763   0.892   0.908   3.560  0.2853 -0.1041 -0.0830
  267TIP3   OH2  764   2.640   3.340   3.919  0.3423  0.1141 -0.3484
  267TIP3    H1  765   2.661   3.258   3.963  1.5259  0.0992 -0.9178
  267TIP3    H2  766   2.594   3.391   3.986  0.8507 -0.4606  0.4625
  268TIP3   OH2  767   0.342   2.000   5.219  0.0001  0.2300  0.0270
  268TIP3    H1  768   0.246   1.997   5.226 -0.0722 -1.7027 -0.9291
  268TIP3    H2  769   0.372   1.975   5.307 -0.3563  1.0513  0.3934
  269TIP3   OH2  770   2.974   0.897   4.116 -0.4233 -0.3867 -0.3085
  269TIP3    H1  771   3.063   0.917   4.087 -0.4464 -1.9578 -1.5866
  269TIP3    H2  772   2.976   0.804   4.137 -1.5217 -0.2157  0.6482
  270TIP3   OH2  773   2.676   0.984   1.493 -0.0863  0.5179 -0.2579
  270TIP3    H1  774   2.656   0.988   1.586  1.0750 -1.9124  0.1845
  270TIP3    H2  775   2.615   1.045   1.452 -0.8294  1.4076  2.0448
  271TIP3   OH2  776   2.330   0.228   0.965 -0.1278  0.1675  0.2772
  271TIP3    H1  777   2.373   0.146   0.940  0.1382  0.6588 -0.8889
  271TIP3    H2  778   2.382   0.259   1.040 -0.6596 -1.0660  1.2114
  272TIP3   OH2  779   2.327   2.847   0.620 -0.2285  1.0232  0.0275
  272TIP3    H1  780   2.346   2.936   0.588  1.4974  0.6710 -0.0113
  272TIP3    H2  781   2.278   2.861   0.701  1.3898  2.0983  0.8864
  273TIP3   OH2  782   4.409   1.630   4.012 -0.4739 -0.6438  0.3944
  273TIP3    H1  783   4.345   1.633   3.941 -0.3188  0.1066  0.2778
  273TIP3    H2  784   4.452   1.716   4.010  1.6553 -1.6710 -0.5321
  274TIP3   OH2  785   4.285   6.070   5.795 -0.0661  0.4791 -0.5000
  274TIP3    H1  786   4.281   6.073   5.891 -0.7785  1.2344 -0.5442
  274TIP3    H2  787   4.378   6.072   5.775  0.0815  0.5794  0.1757
  275TIP3   OH2  788   6.459   4.196   2.328 -0.4237 -0.3416  0.0473
  275TIP3    H1  789   6.526   4.235   2.384 -1.1892 -0.3086  0.9695
  275TIP3    H2  790   6.493   4.206   2.239  0.2847  0.6848  0.4121
  276TIP3   OH2  791   7.167   0.179   3.439  0.2504 -0.0195 -0.2234
  276TIP3    H1  792   7.225   0.151   3.510 -0.3824  1.4550  0.9191
  276TIP3    H2  793   7.224   0.185   3.363  0.9481 -1.6382  0.1200
  277TIP3   OH2  794   7.157   0.202   2.921  0.4163 -0.1320 -0.4249
  277TIP3    H1  795   7.203   0.270   2.872  2.3971 -0.3511  1.0387
  277TIP3    H2  796   7.223   0.164   2.979 -1.5160 -0.7038  1.5551
  278TIP3   OH2  797   3.116   0.510   5.277  0.3572  0.0061 -0.2549
  278TIP3    H1  798   3.146   0.554   5.357 -2.1369 -0.1128  0.8404
  278TIP3    H2  799   3.034   0.467   5.303 -0.5123 -0.0760 -2.8928
  279TIP3   OH2  800   6.805   6.758   4.896 -0.3597  0.5602 -0.2104
  279TIP3    H1  801   6.721   6.794   4.923 -2.0462 -2.0985 -1.4398
  279TIP3    H2  802   6.857   6.754   4.976 -1.5596  1.8391  0.6663
  280TIP3   OH2  803   4.218   5.458   1.958  0.0630  0.1538 -0.0476
  280TIP3    H1  804   4.233   5.532   1.899  1.6374 -0.1322 -0.0409
  280TIP3    H2  805   4.304   5.441   1.997 -0.0855 -2.2072 -0.6519
  281TIP3   OH2  806   2.725   4.884   4.689  0.0555 -0.5795  0.4780
  281TIP3    H1  807   2.776   4.858   4.766 -0.7387 -0.6082  1.0161
  281TIP3    H2  808   2.669   4.954   4.721 -0.6056 -0.8990  0.0387
  282TIP3   OH2  809   1.360   0.778   0.707 -0.2539 -0.0786  0.3843
  282TIP3    H1  810   1.403   0.862   0.690 -1.6084  0.2965 -1.4295
  282TIP3    H2  811   1.428   0.712   0.691 -0.2082  0.5080 -2.1468
  283TIP3   OH2  812   4.675   3.204   2.355  0.0953  0.0367  0.1507
  283TIP3    H1  813   4.610   3.274   2.348 -1.3107 -1.0681  1.5477
  283TIP3    H2  814   4.687   3.191   2.449  1.6789 -0.4177 -0.0782
  284TIP3   OH2  815   3.247   6.644   2.634  0.6172 -0.5675 -0.4238
  284TIP3    H1  816   3.340   6.642   2.613  0.7543  0.4869  0.0408
  284TIP3    H2  817   3.239   6.592   2.714  1.0452  0.5502  0.3639
  285TIP3   OH2  818   1.039   1.318   5.163  0.2005 -0.3203 -0.0537
  285TIP3    H1  819   1.065   1.355   5.247  1.2874  0.6797 -0.7856
  285TIP3    H2  820   0.955   1.275   5.180 -0.8899  2.0363  0.9981
  286TIP3   OH2  821   4.968   0.954   5.126  0.0649  0.1049 -0.2522
  286TIP3    H1  822   4.911   0.899   5.073 -1.2114 -1.6939  2.7410
  286TIP3    H2  823   4.919   1.036   5.137  0.2158  0.3860 -1.5042
  287TIP3   OH2  824   0.034   6.423   4.438 -0.2358 -0.0795  1.0088
  287TIP3    H1  825   0.086   6.352   4.401 -1.5583 -0.2139 -0.7218
  287TIP3    H2  826   0.099   6.479   4.482  1.4589 -0.0064 -1.3950
  288TIP3   OH2  827   4.638   6.745   3.117  0.3288  0.0901  0.1029
  288TIP3    H1  828   4.713   6.736   3.176 -0.4203 -1.4893  0.8680
  288TIP3    H2  829   4.573   6.793   3.168  1.4036  3.2220 -1.2118
  289TIP3   OH2  830   1.438   5.426   3.959  0.3221  0.0279 -0.2974
  289TIP3    H1  831   1.516   5.404   3.908 -0.0781 -0.1211 -0.8596
  289TIP3    H2  832   1.365   5.401   3.903 -0.1403  0.9782 -0.1450
  290TIP3   OH2  833   5.569   2.773   0.030  0.1409 -0.0801 -0.2273
  290TIP3    H1  834   5.474   2.763   0.021  0.4151 -2.5218 -1.3364
  290TIP3    H2  835   5.594   2.835  -0.038 -0.4134 -1.5405 -1.8585
  291TIP3   OH2  836   6.023   0.760   0.073 -0.2141  0.6747  0.4271
  291TIP3    H1  837   5.947   0.812   0.045 -0.5870 -0.4435 -0.7516
  291TIP3    H2  838   6.050   0.712  -0.006  0.8815  0.0213  1.1642
  292TIP3   OH2  839   5.526   5.032   4.277 -0.1664 -0.0601 -0.2908
  292TIP3    H1  840   5.580   4.963   4.240 -0.6426 -1.8592  2.0841
  292TIP3    H2  841   5.452   5.041   4.216  1.3803  0.5262 -2.1595
  293TIP3   OH2  842   3.801   0.153   1.404 -0.5751  0.1614 -0.3318
  293TIP3    H1  843   3.877   0.172   1.459 -0.1128  0.3727 -1.0313
  293TIP3    H2  844   3.737   0.222   1.426 -0.8495 -0.4145  0.7553
  294TIP3   OH2  845   4.055   0.443   0.239  0.1179  0.0211  0.1139
  294TIP3    H1  846   3.979   0.394   0.208  0.6481 -1.9802  1.7268
  294TIP3    H2  847   4.044   0.449   0.333  2.2968 -1.0328  0.5064
  295TIP3   OH2  848   6.200   4.542   4.984 -0.2881 -0.5502 -0.3291
  295TIP3    H1  849   6.125   4.498   5.025  0.3116 -1.1375  0.1481
  295TIP3    H2  850   6.247   4.473   4.938  0.9673 -0.5466  0.8774
  296TIP3   OH2  851   0.571   0.875   2.754  0.0814  0.1563  0.2427
  296TIP3    H1  852   0.666   0.868   2.767  0.0352 -1.4121 -0.1460
  296TIP3    H2  853   0.535   0.799   2.799 -0.9289  0.2905 -0.3250
  297TIP3   OH2  854   5.002   2.983   5.187 -0.8436  0.7600  0.0121
  297TIP3    H1  855   4.995   3.015   5.097  1.5313 -0.6506 -0.7657
  297TIP3    H2  856   5.039   3.056   5.236 -0.7497  1.0435 -0.4840
  298TIP3   OH2  857   4.255   5.175   2.019 -0.1376 -0.7454 -0.3238
  298TIP3    H1  858   4.234   5.227   1.941 -1.1046 -0.7306 -0.0692
  298TIP3    H2  859   4.337   5.213   2.051 -0.3852  0.0766 -0.6211
  299TIP3   OH2  860   5.092   5.896   1.635  0.0884  0.2929  0.0747
  299TIP3    H1  861   5.160   5.947   1.679  0.6036 -0.7941  0.5925
  299TIP3    H2  862   5.120   5.890   1.544  0.7607 -0.2574  0.3138
  300TIP3   OH2  863   3.918   4.376   4.778 -0.3217 -0.1038 -0.1184
  300TIP3    H1  864   3.976   4.390   4.852 -1.3325  1.4607  0.4422
  300TIP3    H2  865   3.943   4.443   4.714 -2.2851  1.5295  0.6913
  301TIP3   OH2  866   4.057   2.907   0.209  0.1676 -0.2690  0.0377
  301TIP3    H1  867   4.103   2.978   0.164 -0.5460 -1.2283 -2.3623
  301TIP3    H2  868   4.072   2.830   0.155 -1.5589 -1.3112  0.9439
  302TIP3   OH2  869   0.220   0.310   3.357  0.2910 -0.0297  0.2144
  302TIP3    H1  870   0.169   0.364   3.296  0.1647 -1.1164 -0.6917
  302TIP3    H2  871   0.297   0.363   3.377 -0.3506  0.9225  0.2134
  303TIP3   OH2  872   0.226   0.038   5.487 -0.3541 -0.3511 -0.4758
  303TIP3    H1  873   0.266   0.045   5.573  1.3485 -0.9581 -1.1826
  303TIP3    H2  874   0.173   0.117   5.479 -0.0096  0.0394  0.8592
  304TIP3   OH2  875   3.789   0.846   3.303 -0.0348  0.0596 -0.1744
  304TIP3    H1  876   3.701   0.874   3.326 -0.9807 -2.2469 -0.7810
  304TIP3    H2  877   3.825   0.810   3.385  0.3293  0.8602  0.0343
  305TIP3   OH2  878   6.039   1.776   2.757 -0.5484 -0.0261  0.4080
  305TIP3    H1  879   5.986   1.700   2.736 -1.2539  0.5951 -0.1577
  305TIP3    H2  880   6.030   1.833   2.680  0.2171  0.4845  0.6813
  306TIP3   OH2  881   0.513   2.502   2.463  0.3791 -0.2536 -0.1456
  306TIP3    H1  882   0.579   2.435   2.479 -0.5905 -1.2061 -0.0140
  306TIP3    H2  883   0.459   2.467   2.393  0.2099  0.6616 -0.4843
  307TIP3   OH2  884   3.650   6.304   2.080 -0.0390  0.3388 -0.0548
  307TIP3    H1  885   3.564   6.328   2.047 -0.2860 -0.4629 -0.0092
  307TIP3    H2  886   3.645   6.209   2.093  0.7264  0.3429  0.3025
  308TIP3   OH2  887   0.812   2.151   1.218 -0.0060  0.3377  0.2328
  308TIP3    H1  888   0.875   2.174   1.287  0.2844 -0.0397  0.0952
  308TIP3    H2  889   0.766   2.075   1.252 -0.3561  0.5784  0.3081
  309TIP3   OH2  890   5.482   0.719   5.725 -0.2380 -0.5368  0.4596
  309TIP3    H1  891   5.404   0.680   5.686 -0.0776 -1.8349  1.3972
  309TIP3    H2  892   5.496   0.670   5.806  1.4211 -0.1718  0.4250
  310TIP3   OH2  893   0.105   0.755   2.818  0.0995  0.2193 -0.4155
  310TIP3    H1  894   0.048   0.681   2.839  0.8302 -0.7311 -1.6390
  310TIP3    H2  895   0.193   0.720   2.826  0.4640  1.0603 -0.6746
  311TIP3   OH2  896   5.744   6.636   2.636  0.7312 -0.3958 -0.6231
  311TIP3    H1  897   5.827   6.589   2.650  0.5075 -0.9361 -1.0909
  311TIP3    H2  898   5.679   6.582   2.682  0.8659  0.9131  1.2223
  312TIP3   OH2  899   4.273   5.983   5.108 -0.5615  0.1382 -0.0219
  312TIP3    H1  900   4.341   5.919   5.131 -0.2303  1.3436  2.7301
  312TIP3    H2  901   4.192   5.932   5.108  0.1757 -1.2774 -3.0958
  313TIP3   OH2  902   5.317   4.505   0.201  0.0493  0.0726  0.5134
  313TIP3    H1  903   5.385   4.572   0.204 -0.9144  1.0715  0.5483
  313TIP3    H2  904   5.342   4.448   0.128 -0.2503  1.7307 -0.9542
  314TIP3   OH2  905   2.194   0.698   1.331  0.1423  0.9080  0.5202
  314TIP3    H1  906   2.224   0.670   1.418  0.8124 -4.0360 -0.9770
  314TIP3    H2  907   2.099   0.693   1.335  0.1009 -4.3634 -0.0085
  315TIP3   OH2  908   4.063   4.866   4.919 -0.2926  0.0016  0.3603
  315TIP3    H1  909   4.074   4.958   4.895  2.8952 -0.4736 -0.5412
  315TIP3    H2  910   4.001   4.832   4.855 -0.9162  1.3449  0.2113
  316TIP3   OH2  911   0.410   2.783   5.525 -0.5056 -0.6303  0.0728
  316TIP3    H1  912   0.493   2.745   5.553  0.1749  0.6062 -0.1991
  316TIP3    H2  913   0.364   2.710   5.482  1.3734 -0.8648 -1.7328
  317TIP3   OH2  914   3.969   5.114   1.385 -0.2396  0.1119 -0.3407
  317TIP3    H1  915   3.995   5.172   1.457  1.2773  0.5735 -1.2100
  317TIP3    H2  916   4.044   5.056   1.372 -0.7808 -0.4530 -1.0811
  318TIP3   OH2  917   3.979   6.411   5.512  0.1542 -0.1239 -0.2644
  318TIP3    H1  918   4.005   6.503   5.506 -1.6477  0.4187 -0.4331
  318TIP3    H2  919   3.994   6.388   5.604  2.0702 -0.1674 -0.5500
  319TIP3   OH2  920   6.796   3.043   5.761 -0.1548  0.1556 -0.3815
  319TIP3    H1  921   6.753   3.066   5.844  2.5578  0.2053  1.1157
  319TIP3    H2  922   6.872   3.101   5.756 -0.2537  0.1893 -2.9882
  320TIP3   OH2  923   6.826   2.906   5.018  0.2093  0.1419 -0.3890
  320TIP3    H1  924   6.733   2.930   5.010  0.6219  1.7822 -0.7862
  320TIP3    H2  925   6.854   2.945   5.101  0.3621 -1.0999  0.1675
  321TIP3   OH2  926   4.089   5.313   1.566 -0.2323 -0.1965  0.3281
  321TIP3    H1  927   4.137   5.391   1.541 -0.5665  0.1419  0.7292
  321TIP3    H2  928   4.013   5.346   1.614 -1.4571 -0.6455 -1.2205
  322TIP3   OH2  929   3.452   5.033   2.577 -0.8156 -0.0496 -0.0398
  322TIP3    H1  930   3.467   5.066   2.665 -0.8130  0.1897 -0.1295
  322TIP3    H2  931   3.396   4.957   2.589  0.5081 -1.0102  0.3228
  323TIP3   OH2  932   4.292   0.806   1.834  0.4792  0.8889 -0.2896
  323TIP3    H1  933   4.305   0.751   1.756 -0.0889  0.3187  0.0060
  323TIP3    H2  934   4.264   0.890   1.799 -0.9908  0.2777 -0.6776
  324TIP3   OH2  935   5.713   0.579   0.859  0.0619  0.1183 -0.1494
  324TIP3    H1  936   5.771   0.645   0.821 -0.9876  1.3527  0.2713
  324TIP3    H2  937   5.643   0.631   0.900 -1.3942 -1.2801 -0.7443
  325TIP3   OH2  938   2.075   3.554   5.765 -0.2464 -0.3589  0.7130
  325TIP3    H1  939   2.090   3.643   5.735 -0.4575 -0.2590  0.8983
  325TIP3    H2  940   2.157   3.508   5.746  0.1219  0.0552  1.2798
  326TIP3   OH2  941   0.210   6.393   2.135  0.2427 -0.3553  0.4462
  326TIP3    H1  942   0.241   6.424   2.050 -0.7897 -0.0519  0.1726
  326TIP3    H2  943   0.265   6.317   2.154 -0.8704 -1.7353 -1.4828
  327TIP3   OH2  944   7.076   1.502   0.254  0.2666  0.4325 -0.0064
  327TIP3    H1  945   7.067   1.592   0.286  0.0374  0.1113  0.8366
  327TIP3    H2  946   7.136   1.460   0.316  0.5437  0.0560 -0.5188
  328TIP3   OH2  947   1.170   1.152   2.566  0.1520 -0.2283  0.5865
  328TIP3    H1  948   1.183   1.062   2.536 -0.5450 -0.0079 -0.4507
  328TIP3    H2  949   1.151   1.201   2.486  2.0289  1.1644  0.9253
  329TIP3   OH2  950   2.481   3.255   4.854 -0.4910  0.2467  0.0646
  329TIP3    H1  951   2.439   3.170   4.864 -0.7094  0.4235  0.6838
  329TIP3    H2  952   2.449   3.289   4.770 -0.4215 -0.2669 -0.1700
  330TIP3   OH2  953   3.223   3.648   5.110  0.6029  0.0941  0.1735
  330TIP3    H1  954   3.199   3.646   5.017  0.7261 -1.9142  0.1312
  330TIP3    H2  955   3.139   3.645   5.157  0.5293 -2.4484  0.0466
  331TIP3   OH2  956   6.178   4.499   2.048 -0.5100  0.1303  0.3098
  331TIP3    H1  957   6.215   4.542   1.971 -2.5610  0.3309 -0.6327
  331TIP3    H2  958   6.162   4.409   2.020 -0.3300 -0.0726  0.8434
  332TIP3   OH2  959   2.853   6.007   3.380  0.3299 -0.4756 -0.0671
  332TIP3    H1  960   2.841   5.949   3.306  1.5862  0.1881 -0.8268
  332TIP3    H2  961   2.802   6.086   3.358 -2.1294 -1.5440  1.3695
  333TIP3   OH2  962   3.345   3.012   1.173  0.5121  0.2161 -0.0801
  333TIP3    H1  963   3.383   2.974   1.093  0.5221  0.1964 -0.0660
  333TIP3    H2  964   3.385   2.962   1.244  0.7202  0.4230 -0.0493
  334TIP3   OH2  965   3.557   0.733   5.645  0.2762 -0.1172 -0.1116
  334TIP3    H1  966   3.518   0.818   5.663 -0.0242 -0.2300 -0.2150
  334TIP3    H2  967   3.543   0.682   5.725 -0.5498 -0.4319 -0.4386
  335TIP3   OH2  968   4.134   2.993   5.593  0.1553 -0.3910  0.1533
  335TIP3    H1  969   4.039   2.985   5.583  0.2162 -0.7205 -0.1791
  335TIP3    H2  970   4.161   3.049   5.520  0.2755 -0.6855 -0.0290
  336TIP3   OH2  971   0.380   1.153   3.598  0.1766  0.0208  0.0063
  336TIP3    H1  972   0.445   1.220   3.575 -1.2081  1.7767  0.9897
  336TIP3    H2  973   0.333   1.136   3.516  0.1755  0.6515 -0.1238
  337TIP3   OH2  974   1.994   6.028   3.596  0.3724  0.1517  0.3793
  337TIP3    H1  975   1.962   5.940   3.615 -1.2176  0.3116 -1.3503
  337TIP3    H2  976   1.991   6.035   3.501  1.5650  1.6970  0.4170
  338TIP3   OH2  977   0.680   5.552   0.026  0.4093 -0.0401 -0.2588
  338TIP3    H1  978   0.750   5.576   0.087 -0.8834  0.6680  0.9997
  338TIP3    H2  979   0.678   5.456   0.028  1.4242 -0.0740 -0.4271
  339TIP3   OH2  980   2.802   6.751   5.612  0.4531  0.6014  0.4421
  339TIP3    H1  981   2.801   6.728   5.705 -1.0474  0.9385  0.5381
  339TIP3    H2  982   2.777   6.670   5.567  0.1128  0.7111  0.4257
  340TIP3   OH2  983   5.828   6.627   0.202 -0.3280  0.0601  0.3977
  340TIP3    H1  984   5.746   6.637   0.250 -0.0670  0.1618  0.8210
  340TIP3    H2  985   5.893   6.605   0.269 -0.0241 -0.1016  0.0542
  341TIP3   OH2  986   2.757   4.070   5.296  0.1361 -0.2704  0.2206
  341TIP3    H1  987   2.773   4.138   5.231 -0.4066 -0.2506  0.1053
  341TIP3    H2  988   2.830   4.078   5.358  0.7501 -0.3930 -0.4644
  342TIP3   OH2  989   5.211   1.062   5.567  0.2892 -0.9214  0.3348
  342TIP3    H1  990   5.236   1.152   5.543 -1.6772 -0.0780  1.1991
  342TIP3    H2  991   5.197   1.018   5.484 -0.9670  0.2875 -0.1398
  343TIP3   OH2  992   5.576   1.818   4.441 -0.0717 -0.0410 -0.1976
  343TIP3    H1  993   5.514   1.817   4.368 -1.5023  0.9629  0.9478
  343TIP3    H2  994   5.649   1.764   4.411 -1.4128 -1.1427 -1.6549
  344TIP3   OH2  995   0.770   3.257   4.558  0.0145 -0.1651 -0.4903
  344TIP3    H1  996   0.742   3.349   4.551  1.7905  0.3273 -1.7952
  344TIP3    H2  997   0.824   3.254   4.637  0.8999  0.2069 -1.0660
  345TIP3   OH2  998   3.931   6.401   2.694 -0.4122 -0.6789 -0.9114
  345TIP3    H1  999   3.941   6.351   2.614  0.7299 -0.6664 -0.7921
  345TIP3    H2 1000   4.004   6.373   2.750 -0.4611  0.2110 -0.3696
  346TIP3   OH2 1001   2.146   1.769   4.017  0.1419 -0.2741 -0.1452
  346TIP3    H1 1002   2.134   1.754   4.111  1.5827 -0.2710  0.0685
  346TIP3    H2 1003   2.165   1.862   4.010  3.3784 -0.8084  0.0201
  347TIP3   OH2 1004   5.607   6.576   0.904 -0.5661 -0.0806  0.1803
  347TIP3    H1 1005   5.677   6.638   0.883  0.8132 -1.8600 -0.6886
  347TIP3    H2 1006   5.530   6.613   0.862  0.1426  1.1902 -0.0607
  348TIP3   OH2 1007   4.570   3.031   1.011 -0.3026 -0.6243 -0.3843
  348TIP3    H1 1008   4.561   3.078   1.094  0.9778 -1.2067  0.1245
  348TIP3    H2 1009   4.637   3.081   0.963  1.2441 -1.9715  0.2592
  349TIP3   OH2 1010   1.560   0.846   3.344 -0.4070  0.9766 -0.6107
  349TIP3    H1 1011   1.652   0.819   3.351 -0.6926  0.1110 -0.1186
  349TIP3    H2 1012   1.548   0.867   3.251  0.2569  0.9738 -0.7004
  350TIP3   OH2 1013   3.575   6.057   1.992 -0.0595  0.4462 -0.1542
  350TIP3    H1 1014   3.508   6.019   1.935 -0.4301  0.5540  0.2029
  350TIP3    H2 1015   3.658   6.026   1.956 -0.3402 -0.4247 -0.0682
  351TIP3   OH2 1016   0.265   5.271   3.438 -0.2132 -0.5801 -0.2867
  351TIP3    H1 1017   0.255   5.334   3.510 -0.2200  0.8606 -1.5151
  351TIP3    H2 1018   0.301   5.193   3.480  1.0622  0.6747  1.0883
  352TIP3   OH2 1019   2.997   5.354   5.611  0.0851 -0.6500 -0.0347
  352TIP3    H1 1020   3.024   5.445   5.619  0.0665 -0.7046  0.7159
  352TIP3    H2 1021   3.055   5.318   5.543  0.1536 -0.1075 -0.2689
  353TIP3   OH2 1022   0.666   5.012   3.285 -0.3417 -0.8535  0.5658
  353TIP3    H1 1023   0.627   5.047   3.365  1.0871 -0.5267  1.1542
  353TIP3    H2 1024   0.597   5.019   3.219 -1.1764 -0.0612  1.4926
  354TIP3   OH2 1025   2.682   1.264   1.860  0.1742 -0.5304  0.5298
  354TIP3    H1 1026   2.737   1.203   1.910  1.6440  0.5083  0.2524
  354TIP3    H2 1027   2.649   1.325   1.926  2.3631  1.0256  0.2892
  355TIP3   OH2 1028   7.013   1.858   0.952 -0.1983  0.1408  0.0112
  355TIP3    H1 1029   6.967   1.938   0.978  0.2074  0.0831  0.9480
  355TIP3    H2 1030   6.981   1.840   0.864 -1.0288  0.7950  0.1631
  356TIP3   OH2 1031   4.037   2.515   0.310  0.0130 -0.5762 -0.2783
  356TIP3    H1 1032   4.043   2.546   0.220  0.7054  0.8954  0.2437
  356TIP3    H2 1033   4.075   2.427   0.308 -0.5127 -0.7977 -1.5122
  357TIP3   OH2 1034   2.514   5.890   1.778  0.0537 -0.1664  0.6744
  357TIP3    H1 1035   2.554   5.926   1.699 -0.1766  0.1671  0.7065
  357TIP3    H2 1036   2.425   5.927   1.778  0.4122  0.7299  1.6760
  358TIP3   OH2 1037   0.943   6.394   1.252  0.5324 -0.6510  0.4186
  358TIP3    H1 1038   0.864   6.429   1.295  0.5872 -1.1070  0.8974
  358TIP3    H2 1039   0.911   6.352   1.173  0.5437  1.2113 -0.6470
  359TIP3   OH2 1040   5.864   5.202   0.783  0.9685  0.4942  0.2769
  359TIP3    H1 1041   5.902   5.288   0.767 -1.1958  1.5631  0.4841
  359TIP3    H2 1042   5.773   5.220   0.806  0.3447 -1.8843 -0.0366
  360TIP3   OH2 1043   0.622   5.050   3.786 -0.0459  0.1906  0.3126
  360TIP3    H1 1044   0.703   5.100   3.778  0.0071  0.3523  1.7043
  360TIP3    H2 1045   0.651   4.958   3.784 -0.0180  0.2046 -0.8987
  361TIP3   OH2 1046   1.704   1.316   1.602 -0.3297  0.7176 -0.9294
  361TIP3    H1 1047   1.674   1.332   1.691  1.2704  0.5447 -0.3370
  361TIP3    H2 1048   1.769   1.385   1.586  0.1029  0.1633 -1.6094
  362TIP3   OH2 1049   6.576   2.743   2.693 -0.2223 -0.0478 -0.3158
  362TIP3    H1 1050   6.565   2.703   2.607  0.2060  0.6130 -0.6927
  362TIP3    H2 1051   6.639   2.687   2.737 -0.1928 -0.2089 -0.5598
  363TIP3   OH2 1052   0.187   4.881   2.840  0.4876  0.6315  0.2203
  363TIP3    H1 1053   0.126   4.954   2.839  3.2068  3.1375  1.4099
  363TIP3    H2 1054   0.210   4.867   2.748 -1.2138  0.1409 -0.1665
  364TIP3   OH2 1055   0.660   6.454   4.540 -0.1881 -0.5420  0.1942
  364TIP3    H1 1056   0.609   6.377   4.566 -0.2516 -0.8163 -0.7089
  364TIP3    H2 1057   0.658   6.453   4.444 -0.1417  0.5574  0.1663
  365TIP3   OH2 1058   6.711   4.058   2.138  0.5287 -0.3328  0.5115
  365TIP3    H1 1059   6.792   4.100   2.164  0.5180  1.2610 -1.7125
  365TIP3    H2 1060   6.708   4.069   2.043 -2.6981  0.4635  0.5976
  366TIP3   OH2 1061   6.494   4.753   2.211 -0.2462  0.4689 -0.0539
  366TIP3    H1 1062   6.559   4.682   2.215 -0.4201 -0.2557 -4.6317
  366TIP3    H2 1063   6.531   4.821   2.268  2.2061 -1.5613  1.0463
  367TIP3   OH2 1064   1.212   5.091   1.175  0.3617  0.0680 -0.4960
  367TIP3    H1 1065   1.272   5.044   1.117 -0.3241 -0.9712 -0.3775
  367TIP3    H2 1066   1.126   5.082   1.134  0.1132  0.6324 -0.1066
  368TIP3   OH2 1067   1.713   3.701   4.081  0.0121 -0.4715  0.0464
  368TIP3    H1 1068   1.767   3.662   4.011  1.4590 -2.1671  1.9668
  368TIP3    H2 1069   1.711   3.634   4.149 -0.8499  1.3255  1.8826
  369TIP3   OH2 1070   5.171   2.950   5.496  0.5568 -0.3244  0.2034
  369TIP3    H1 1071   5.106   2.958   5.566 -0.7325  0.6723 -1.0368
  369TIP3    H2 1072   5.158   2.862   5.461 -0.6471  0.0865 -0.4637
  370TIP3   OH2 1073   3.890   0.339   4.173  0.3921  0.3203 -0.3672
  370TIP3    H1 1074   3.883   0.419   4.121 -0.5777  0.5956  0.1647
  370TIP3    H2 1075   3.838   0.275   4.124  0.4335  0.2604 -0.3322
  371TIP3   OH2 1076   3.235   2.244   0.660 -0.2613  0.3203  0.0497
  371TIP3    H1 1077   3.310   2.208   0.707 -0.5725 -0.3841  0.0298
  371TIP3    H2 1078   3.181   2.285   0.728 -0.6846 -0.6504  0.3194
  372TIP3   OH2 1079   4.351   4.924   2.070  0.2692 -0.6829  0.3615
  372TIP3    H1 1080   4.411   4.912   1.997  0.3057 -0.5813  0.3745
  372TIP3    H2 1081   4.325   5.016   2.065  2.3454  0.0740  2.0446
  373TIP3   OH2 1082   3.338   0.928   4.672  0.4633  0.3510 -0.6919
  373TIP3    H1 1083   3.249   0.951   4.648  0.2904 -0.2475 -0.6563
  373TIP3    H2 1084   3.390   0.942   4.593  0.2272  0.1407 -0.8857
  374TIP3   OH2 1085   6.379   2.003   0.154 -0.3925  0.0845 -0.2058
  374TIP3    H1 1086   6.469   1.994   0.185 -0.6215 -0.1408  0.4031
  374TIP3    H2 1087   6.351   2.089   0.186 -0.2210  0.3908 -0.8562
  375TIP3   OH2 1088   3.884   3.038   0.405  0.5868  0.2176 -0.6540
  375TIP3    H1 1089   3.946   2.998   0.343 -0.2791 -1.0558 -0.7403
  375TIP3    H2 1090   3.864   2.969   0.467 -0.8254  0.5603 -0.6869
  376TIP3   OH2 1091   3.147   4.545   3.962  0.1813 -0.5711 -0.2569
  376TIP3    H1 1092   3.141   4.449   3.960  0.8187 -0.6331  0.4934
  376TIP3    H2 1093   3.240   4.563   3.976 -0.3383  0.0485  3.7282
  377TIP3   OH2 1094   1.663   2.163   0.526  0.1709 -0.3095  0.1005
  377TIP3    H1 1095   1.641   2.071   0.541 -1.1095 -0.1100 -0.5117
  377TIP3    H2 1096   1.718   2.186   0.601 -1.3095 -0.9625  1.4295
  378TIP3   OH2 1097   1.198   3.750   5.437  0.2398  0.3360  0.6092
  378TIP3    H1 1098   1.174   3.826   5.491 -0.1304  0.9467 -0.3767
  378TIP3    H2 1099   1.284   3.772   5.403 -1.0437  1.7521 -2.0580
  379TIP3   OH2 1100   1.746   5.571   0.368  0.3665 -0.5233 -0.3474
  379TIP3    H1 1101   1.768   5.481   0.392 -0.6279 -0.4179  1.0991
  379TIP3    H2 1102   1.742   5.570   0.272 -0.6028 -2.2627 -0.3210
  380TIP3   OH2 1103   6.143   0.514   3.463  0.0806  0.7860 -0.0158
  380TIP3    H1 1104   6.194   0.524   3.383 -1.5222  0.3104 -1.1634
  380TIP3    H2 1105   6.061   0.474   3.434  0.2577 -1.3847  2.1578
  381TIP3   OH2 1106   5.716   2.842   4.178 -0.4689 -0.4197  0.2393
  381TIP3    H1 1107   5.688   2.753   4.202 -2.0549  0.1023  0.4233
  381TIP3    H2 1108   5.637   2.884   4.146  0.3630  0.8071 -0.2549
  382TIP3   OH2 1109   4.908   2.691   4.142  0.1204 -0.5654  0.1632
  382TIP3    H1 1110   4.898   2.760   4.077 -1.7965 -1.6716 -0.8154
  382TIP3    H2 1111   4.975   2.633   4.105 -0.9525 -1.1847 -0.8817
  383TIP3   OH2 1112   4.895   6.332   2.956 -0.0125  0.4494  0.4282
  383TIP3    H1 1113   4.887   6.281   3.036  1.1455  0.8544  0.8315
  383TIP3    H2 1114   4.963   6.286   2.906 -0.2803  0.5587 -0.0391
  384TIP3   OH2 1115   6.594   6.426   5.859  0.2411 -0.4636  0.3023
  384TIP3    H1 1116   6.679   6.461   5.832  0.6618 -1.8874 -0.2966
  384TIP3    H2 1117   6.534   6.500   5.848  1.2240  0.3001 -0.1634
  385TIP3   OH2 1118   3.002   0.332   1.881 -0.3507  0.0960  0.0432
  385TIP3    H1 1119   3.062   0.283   1.825 -0.1001 -0.3592  0.7005
  385TIP3    H2 1120   3.016   0.297   1.968 -1.1013  0.4497  0.3168
  386TIP3   OH2 1121   6.190   4.647   4.422  0.3233 -0.1010 -0.2421
  386TIP3    H1 1122   6.178   4.621   4.331  1.4141 -1.3210 -0.0652
  386TIP3    H2 1123   6.123   4.713   4.437 -0.8606 -0.9625 -1.4981
  387TIP3   OH2 1124   6.406   3.696   0.552 -0.8666 -0.1496 -0.1057
  387TIP3    H1 1125   6.372   3.609   0.568  0.4797 -0.7660 -0.4560
  387TIP3    H2 1126   6.396   3.741   0.636  0.9960 -1.5734  0.9664
  388TIP3   OH2 1127   2.142   3.282   0.345  0.1237 -0.1684 -0.1513
  388TIP3    H1 1128   2.104   3.368   0.324  1.6293  0.0290 -2.3737
  388TIP3    H2 1129   2.181   3.294   0.432 -2.5126  0.3548  1.0761
  389TIP3   OH2 1130   6.020   1.859   4.798 -0.5637  0.6478 -0.1875
  389TIP3    H1 1131   6.061   1.944   4.783 -1.2362  0.7346 -1.6398
  389TIP3    H2 1132   6.093   1.799   4.814  0.3180  0.5662 -3.7853
  390TIP3   OH2 1133   5.260   4.692   3.489 -0.0017  0.1115 -0.4507
  390TIP3    H1 1134   5.312   4.759   3.534 -1.4802  0.2984  1.1071
  390TIP3    H2 1135   5.225   4.737   3.412  0.4105  0.6215 -0.3456
  391TIP3   OH2 1136   2.627   1.378   2.751  0.2462 -0.0648 -0.6240
  391TIP3    H1 1137   2.569   1.317   2.798  1.2007  0.2091  0.9806
  391TIP3    H2 1138   2.567   1.435   2.703 -0.9131  0.5631  1.4321
  392TIP3   OH2 1139   1.726   5.457   2.500 -0.2373  0.5033  0.3159
  392TIP3    H1 1140   1.759   5.377   2.460 -0.8661  0.3231  0.1412
  392TIP3    H2 1141   1.668   5.428   2.569 -0.7081  0.8022  0.0537
  393TIP3   OH2 1142   1.136   4.143   3.144 -0.7896  0.0446 -0.0138
  393TIP3    H1 1143   1.092   4.058   3.145 -1.1478  0.1889  2.0905
  393TIP3    H2 1144   1.091   4.194   3.212  1.4743  0.7811  1.0493
  394TIP3   OH2 1145   2.833   3.091   3.849 -0.4333  0.2877 -0.1609
  394TIP3    H1 1146   2.909   3.033   3.840 -0.2440  0.1768  1.8125
  394TIP3    H2 1147   2.853   3.145   3.925 -2.1613  0.5314  0.1559
  395TIP3   OH2 1148   6.557   0.777   1.469 -0.2798 -0.0644  0.2455
  395TIP3    H1 1149   6.649   0.801   1.476 -0.2924 -0.4643  3.2209
  395TIP3    H2 1150   6.516   0.849   1.422  1.4103  0.4605 -0.4790
  396TIP3   OH2 1151   0.389   3.201   3.161 -0.6977 -0.3139  0.2469
  396TIP3    H1 1152   0.389   3.211   3.256 -2.0496 -0.7643  0.3259
  396TIP3    H2 1153   0.297   3.217   3.136 -0.4961 -0.8490 -0.9025
  397TIP3   OH2 1154   5.944   0.292   3.395  0.2494 -0.2055  0.3432
  397TIP3    H1 1155   5.907   0.346   3.326 -0.5189 -0.0683  0.8505
  397TIP3    H2 1156   6.002   0.231   3.350  0.7261  0.6928 -0.2871
  398TIP3   OH2 1157   2.966   1.530   1.602  0.6862  0.5918  0.1830
  398TIP3    H1 1158   2.923   1.452   1.566  3.0127 -1.0952  0.8639
  398TIP3    H2 1159   2.904   1.562   1.668 -0.6049 -0.2803 -0.5576
  399TIP3   OH2 1160   2.736   3.414   2.260 -0.3263 -0.2353 -0.6631
  399TIP3    H1 1161   2.702   3.383   2.343 -0.0732 -1.2367 -0.9208
  399TIP3    H2 1162   2.716   3.343   2.198  0.2520  0.1185 -1.2683
  400TIP3   OH2 1163   3.880   2.429   2.026 -0.5937 -0.3140 -0.0403
  400TIP3    H1 1164   3.901   2.436   2.119  0.4501 -0.4650 -0.2532
  400TIP3    H2 1165   3.813   2.361   2.021 -1.0995  0.1216  0.6551
  401TIP3   OH2 1166   2.833   5.321   4.720 -0.1060 -0.0752  0.1159
  401TIP3    H1 1167   2.896   5.379   4.677 -0.1859 -0.4510 -0.5291
  401TIP3    H2 1168   2.880   5.238   4.731 -1.1724 -1.1856 -2.6177
  402TIP3   OH2 1169   1.041   5.655   3.087  0.0094 -0.1891 -0.2884
  402TIP3    H1 1170   1.107   5.595   3.124 -0.0369 -0.4103 -0.5600
  402TIP3    H2 1171   0.994   5.601   3.023 -0.7945 -0.1842  0.2902
  403TIP3   OH2 1172   3.051   1.779   4.810  0.1726 -0.2795 -0.4179
  403TIP3    H1 1173   3.085   1.867   4.827 -0.2511  0.2021 -1.9532
  403TIP3    H2 1174   3.025   1.747   4.897 -0.6899  1.5371  0.0451
  404TIP3   OH2 1175   1.285   6.534   3.955  0.1654 -0.5315 -0.2686
  404TIP3    H1 1176   1.311   6.532   3.863 -0.1710  0.0298 -0.3826
  404TIP3    H2 1177   1.302   6.445   3.987  1.9547 -0.2718 -0.4016
  405TIP3   OH2 1178   1.430   4.893   1.703  0.0334  0.2040 -0.0819
  405TIP3    H1 1179   1.507   4.935   1.663 -0.1358 -0.9852 -1.7708
  405TIP3    H2 1180   1.364   4.894   1.634 -2.1483  2.7486  1.8651
  406TIP3   OH2 1181   4.778   5.566   3.524  0.4815 -0.6839 -0.1872
  406TIP3    H1 1182   4.754   5.634   3.588 -1.5803  0.8983 -2.4644
  406TIP3    H2 1183   4.700   5.513   3.515 -0.4175  0.9259 -3.4227
  407TIP3   OH2 1184   4.076   5.719   0.670  0.0942  0.1894 -0.5039
  407TIP3    H1 1185   4.035   5.768   0.599  0.0466  0.1803 -0.4833
  407TIP3    H2 1186   4.045   5.762   0.750  2.2182  1.8587 -0.5069
  408TIP3   OH2 1187   3.974   1.049   3.559  0.0123  0.1149  0.8181
  408TIP3    H1 1188   3.880   1.064   3.559 -0.0760  0.2004 -2.7679
  408TIP3    H2 1189   4.010   1.114   3.500  2.5702  0.8077  2.9099
  409TIP3   OH2 1190   4.725   4.522   3.064  1.1241 -0.3349  0.0691
  409TIP3    H1 1191   4.659   4.483   3.008  0.4062  0.9720 -0.0213
  409TIP3    H2 1192   4.806   4.519   3.012  0.7666 -0.3674 -0.4900
  410TIP3   OH2 1193   2.587   1.154   3.131 -0.6174 -0.1750  0.2185
  410TIP3    H1 1194   2.643   1.230   3.112 -0.5603  0.6307  3.1773
  410TIP3    H2 1195   2.628   1.111   3.206 -2.8625 -0.7050  1.2475
  411TIP3   OH2 1196   3.107   5.663   5.233 -0.4557  0.0926 -0.4114
  411TIP3    H1 1197   3.030   5.716   5.252 -0.0558  0.3482  0.5961
  411TIP3    H2 1198   3.117   5.608   5.311  0.8996  0.7162 -0.1147
  412TIP3   OH2 1199   0.630   5.344   5.296  0.4461  0.4908  0.4379
  412TIP3    H1 1200   0.590   5.395   5.367  0.9594  0.3594  0.8267
  412TIP3    H2 1201   0.714   5.389   5.280  1.4116 -0.8439  1.5247
  413TIP3   OH2 1202   4.684   5.912   5.017  0.2652 -0.3494  0.6899
  413TIP3    H1 1203   4.735   5.831   5.011  0.4573 -0.2048  0.3024
  413TIP3    H2 1204   4.747   5.978   5.046  0.5699  0.0535 -0.7916
  414TIP3   OH2 1205   6.592   2.419   1.286  0.5172 -0.0161 -0.1870
  414TIP3    H1 1206   6.566   2.501   1.244 -0.4459  2.0467  3.9185
  414TIP3    H2 1207   6.522   2.357   1.264 -0.4660  1.2644 -0.7617
  415TIP3   OH2 1208   4.011   6.273   2.465 -0.4586 -0.1785  0.4490
  415TIP3    H1 1209   4.086   6.323   2.432 -0.4275  0.1706  1.0368
  415TIP3    H2 1210   3.959   6.254   2.387 -0.1602  0.2470  0.1388
  416TIP3   OH2 1211   0.546   1.031   1.735 -0.1747 -0.1869 -0.4187
  416TIP3    H1 1212   0.566   0.971   1.806 -0.4548 -0.4346 -0.5432
  416TIP3    H2 1213   0.568   1.117   1.769 -1.3629 -0.1808  0.3843
  417TIP3   OH2 1214   4.690   0.671   2.865  0.1530 -0.3095  0.5616
  417TIP3    H1 1215   4.692   0.688   2.959 -1.0900 -0.4614  0.6404
  417TIP3    H2 1216   4.697   0.576   2.858  1.6824 -0.2053  0.4084
  418TIP3   OH2 1217   6.544   2.227   4.826 -0.1606  0.0539 -0.6292
  418TIP3    H1 1218   6.513   2.191   4.743  0.3258 -0.4698 -0.5883
  418TIP3    H2 1219   6.512   2.167   4.892 -0.5145  0.4501 -0.4336
  419TIP3   OH2 1220   4.493   3.104   4.998  0.3090 -1.1585 -0.0429
  419TIP3    H1 1221   4.452   3.094   4.912  1.5828  0.9371 -0.9688
  419TIP3    H2 1222   4.432   3.159   5.048  2.1805  2.9208 -1.7890
  420TIP3   OH2 1223   5.007   5.257   4.108 -0.1970  0.4826  0.3871
  420TIP3    H1 1224   4.962   5.330   4.067  1.3250  0.6816 -1.0483
  420TIP3    H2 1225   5.094   5.257   4.067 -0.1307 -2.0961  0.3763
  421TIP3   OH2 1226   4.186   6.293   0.654 -0.1640  0.2751  0.1864
  421TIP3    H1 1227   4.144   6.375   0.630  2.3076  1.6442  0.2978
  421TIP3    H2 1228   4.219   6.257   0.572  0.6407  0.5006  0.4055
  422TIP3   OH2 1229   1.267   1.412   1.836 -0.0388  0.6197 -0.3750
  422TIP3    H1 1230   1.234   1.366   1.759 -2.4121  0.8301  0.4089
  422TIP3    H2 1231   1.234   1.502   1.826 -1.3325  0.3891  1.3344
  423TIP3   OH2 1232   5.725   3.900   3.248 -0.2981  0.4739 -0.1647
  423TIP3    H1 1233   5.675   3.847   3.186 -1.1320  1.9310 -0.7829
  423TIP3    H2 1234   5.787   3.949   3.193  1.1267 -0.5065  0.4877
  424TIP3   OH2 1235   5.752   1.381   1.281 -0.3534 -0.3024  0.1240
  424TIP3    H1 1236   5.682   1.444   1.296  2.2547  2.6064  1.2649
  424TIP3    H2 1237   5.756   1.330   1.362 -0.5802  0.1295  0.4108
  425TIP3   OH2 1238   6.705   1.979   3.934  0.2141  0.3562  0.1177
  425TIP3    H1 1239   6.744   2.002   4.019 -0.7229  2.6343  0.0042
  425TIP3    H2 1240   6.767   2.013   3.869  0.5053 -0.6078 -0.1203
  426TIP3   OH2 1241   5.768   4.452   3.445  0.3424 -0.3351  0.4757
  426TIP3    H1 1242   5.829   4.476   3.514  0.1014  0.1303  0.5266
  426TIP3    H2 1243   5.681   4.471   3.481  0.2299  0.1636 -0.0475
  427TIP3   OH2 1244   6.033   5.190   5.526 -0.7052 -0.4988  0.1336
  427TIP3    H1 1245   6.036   5.242   5.606 -0.4799 -0.1154 -0.1215
  427TIP3    H2 1246   6.046   5.100   5.555  0.5271 -0.2510  0.4174
  428TIP3   OH2 1247   2.015   1.305   0.290  0.1452  0.2493 -0.0455
  428TIP3    H1 1248   1.971   1.228   0.255 -0.5855  0.3859  0.5336
  428TIP3    H2 1249   2.064   1.341   0.216 -0.3388 -0.1857 -0.5872
  429TIP3   OH2 1250   1.537   4.122   3.594  0.0139  0.1902 -0.0172
  429TIP3    H1 1251   1.568   4.076   3.516  1.1700 -0.4940  0.8250
  429TIP3    H2 1252   1.571   4.211   3.583 -0.5373  0.3239 -0.6898
  430TIP3   OH2 1253   4.971   4.511   1.635 -0.3682  0.2336  0.1066
  430TIP3    H1 1254   4.943   4.429   1.595 -1.3782  0.3495  0.5634
  430TIP3    H2 1255   4.916   4.578   1.595 -2.5463  0.1853  2.7323
  431TIP3   OH2 1256   1.524   2.998   4.868 -0.1600 -0.0740  0.0137
  431TIP3    H1 1257   1.461   3.045   4.923  1.2274  0.4896  1.1935
  431TIP3    H2 1258   1.597   2.980   4.927  1.2278  0.1868 -1.5660
  432TIP3   OH2 1259   1.098   2.832   2.283 -0.1234  0.3305 -0.1552
  432TIP3    H1 1260   1.174   2.888   2.299 -0.3921  0.6528  0.0070
  432TIP3    H2 1261   1.129   2.766   2.221  0.7848 -0.5904  1.2124
  433TIP3   OH2 1262   4.989   5.427   0.856  0.0282 -0.0925 -0.0348
  433TIP3    H1 1263   4.951   5.359   0.801  0.1431 -1.3482  1.3627
  433TIP3    H2 1264   4.926   5.440   0.927  0.6068  0.2975  0.4286
  434TIP3   OH2 1265   0.227   4.276   5.156  0.2496 -0.0116  0.0003
  434TIP3    H1 1266   0.272   4.202   5.196  1.3730  0.3004 -0.6404
  434TIP3    H2 1267   0.199   4.330   5.230 -0.1019 -0.7969  0.4515
  435TIP3   OH2 1268   3.279   3.434   5.303  0.2515 -0.1923 -0.4989
  435TIP3    H1 1269   3.307   3.501   5.240 -0.0424 -0.4356 -0.8938
  435TIP3    H2 1270   3.288   3.476   5.389  0.3144  0.2656 -0.7288
  436TIP3   OH2 1271   6.403   2.371   2.597  0.3419 -0.3248 -0.1377
  436TIP3    H1 1272   6.487   2.326   2.592  1.4547  1.1309  2.7422
  436TIP3    H2 1273   6.339   2.302   2.613  1.2195 -1.2986 -0.7218
  437TIP3   OH2 1274   5.301   4.515   1.923  0.5372  0.3703  0.2254
  437TIP3    H1 1275   5.325   4.605   1.940 -0.0508  0.6543 -0.3974
  437TIP3    H2 1276   5.373   4.463   1.958  1.7271  1.1490 -1.0026
  438TIP3   OH2 1277   1.990   0.380   1.970 -0.5049  0.0343  0.4445
  438TIP3    H1 1278   1.987   0.449   1.905 -0.5681 -0.3248  0.0662
  438TIP3    H2 1279   1.913   0.396   2.026 -0.6921  0.0862  0.1731
  439TIP3   OH2 1280   1.634   1.482   4.149  0.0612  0.4750 -0.1844
  439TIP3    H1 1281   1.546   1.481   4.188 -0.3202  0.0944 -1.0347
  439TIP3    H2 1282   1.624   1.435   4.066  0.7693  1.5913 -0.9354
  440TIP3   OH2 1283   4.802   2.740   0.782 -0.0020 -0.6041 -0.0959
  440TIP3    H1 1284   4.794   2.739   0.877  0.5153  0.1442 -0.0310
  440TIP3    H2 1285   4.879   2.794   0.765  1.1597 -2.4404 -0.8723
  441TIP3   OH2 1286   1.609   2.747   5.730 -0.4423 -0.6631  0.1626
  441TIP3    H1 1287   1.581   2.702   5.809 -1.8393 -0.0728  0.0332
  441TIP3    H2 1288   1.702   2.765   5.744 -0.7337 -0.3094  1.7776
  442TIP3   OH2 1289   6.335   3.163   3.737 -0.4028  0.2923 -0.4435
  442TIP3    H1 1290   6.300   3.131   3.654  0.4306  1.2714 -1.1809
  442TIP3    H2 1291   6.426   3.135   3.737 -0.5124 -0.1016  0.3651
  443TIP3   OH2 1292   5.226   3.967   4.921 -0.8128  0.3599  0.8283
  443TIP3    H1 1293   5.215   4.029   4.849  1.6184  1.2331  1.1173
  443TIP3    H2 1294   5.215   3.881   4.881  1.5616  0.7670 -0.8932
  444TIP3   OH2 1295   4.384   1.400   2.575 -0.5355 -0.3382 -0.3315
  444TIP3    H1 1296   4.318   1.376   2.640 -1.7520 -1.5704 -1.9334
  444TIP3    H2 1297   4.455   1.439   2.626 -1.7471 -0.5549  1.6321
  445TIP3   OH2 1298   3.976   3.926   0.368  0.0609  0.7972  0.6648
  445TIP3    H1 1299   4.040   3.905   0.435  1.0567  1.2243 -0.1234
  445TIP3    H2 1300   4.008   3.881   0.289  0.7310  2.8948 -0.3410
  446TIP3   OH2 1301   6.656   3.246   1.912 -0.2762 -0.1417  0.2961
  446TIP3    H1 1302   6.678   3.340   1.913 -0.6639 -0.0089 -1.1480
  446TIP3    H2 1303   6.641   3.227   1.820  2.7327 -2.3242  0.1270
  447TIP3   OH2 1304   2.986   6.040   5.543  0.4666  0.3042  0.3039
  447TIP3    H1 1305   2.956   6.067   5.630  1.0965  0.7214  0.3985
  447TIP3    H2 1306   3.082   6.040   5.550  0.5074 -0.1606 -0.2415
  448TIP3   OH2 1307   1.173   6.142   3.431 -0.6591  0.0228 -0.0956
  448TIP3    H1 1308   1.131   6.225   3.450 -0.0655 -0.0433  1.7215
  448TIP3    H2 1309   1.242   6.134   3.497  0.6916 -0.9439 -1.5288
  449TIP3   OH2 1310   4.308   4.000   5.860  0.0668 -0.0921  0.3957
  449TIP3    H1 1311   4.354   4.001   5.776 -0.5427  3.0460 -0.0208
  449TIP3    H2 1312   4.375   3.981   5.925  0.5308 -2.6974 -0.7183
  450TIP3   OH2 1313   6.266   1.437   1.210  0.0713  0.4394 -0.8567
  450TIP3    H1 1314   6.354   1.473   1.204 -0.1202  1.2593  0.6457
  450TIP3    H2 1315   6.236   1.462   1.298 -0.7388 -1.9570 -0.3711
  451TIP3   OH2 1316   2.594   0.554   4.920 -0.1340  0.3938  0.0603
  451TIP3    H1 1317   2.518   0.537   4.864 -0.5252  4.4440 -0.9480
  451TIP3    H2 1318   2.563   0.616   4.986  1.5539 -0.4138  1.7085
  452TIP3   OH2 1319   4.796   2.421   5.510 -0.7314 -0.3373  0.3115
  452TIP3    H1 1320   4.879   2.374   5.515 -0.3362  0.4679  1.8815
  452TIP3    H2 1321   4.779   2.449   5.600 -2.2116  0.3703 -0.1586
  453TIP3   OH2 1322   5.992   2.294   1.420  0.0637 -0.0445 -0.4626
  453TIP3    H1 1323   5.936   2.227   1.460 -0.3602  1.5918  1.8937
  453TIP3    H2 1324   6.055   2.317   1.488  0.6531  1.4500 -1.4583
  454TIP3   OH2 1325   1.349   5.415   4.228 -0.5569  0.0384  0.3125
  454TIP3    H1 1326   1.383   5.379   4.146 -0.5878  0.7358 -0.0164
  454TIP3    H2 1327   1.290   5.485   4.201 -1.3835 -0.4044  0.9080
  455TIP3   OH2 1328   7.210   5.339   2.587  0.0823  0.2065 -0.3035
  455TIP3    H1 1329   7.206   5.407   2.654 -0.4420  1.1268 -1.2524
  455TIP3    H2 1330   7.124   5.340   2.546 -0.1534 -1.4770  0.0701
  456TIP3   OH2 1331   4.439   1.806   5.682  0.7605 -1.0223 -0.3720
  456TIP3    H1 1332   4.347   1.785   5.698  0.8612 -0.9879  0.2820
  456TIP3    H2 1333   4.445   1.819   5.587 -0.0687 -0.2096 -0.3228
  457TIP3   OH2 1334   4.503   6.168   5.292  0.1453  0.0165  0.3670
  457TIP3    H1 1335   4.430   6.133   5.240  1.0927  1.3657 -2.0046
  457TIP3    H2 1336   4.466   6.246   5.334 -0.0091  0.2589 -0.2046
  458TIP3   OH2 1337   5.420   0.227   0.227  0.0149 -0.4953 -0.3590
  458TIP3    H1 1338   5.348   0.167   0.245 -0.4226  0.0401 -0.2992
  458TIP3    H2 1339   5.407   0.252   0.135 -0.8274  0.8618  0.1170
  459TIP3   OH2 1340   4.811   6.113   0.423  0.3672 -0.5384  0.3715
  459TIP3    H1 1341   4.790   6.040   0.480 -0.2080 -0.8571 -0.2247
  459TIP3    H2 1342   4.733   6.123   0.368  1.3679 -1.0564 -1.2033
  460TIP3   OH2 1343   5.449   3.529   0.058 -0.0341  0.0672  0.1724
  460TIP3    H1 1344   5.420   3.590   0.126 -1.6152  0.0554 -0.4452
  460TIP3    H2 1345   5.545   3.534   0.060 -0.0933  1.2641  1.2943
  461TIP3   OH2 1346   3.073   2.883   4.882 -0.3260  0.7170 -0.4145
  461TIP3    H1 1347   3.159   2.843   4.870  1.0869  2.8728  1.8275
  461TIP3    H2 1348   3.012   2.808   4.883  1.7099 -1.0355 -0.1454
  462TIP3   OH2 1349   4.528   6.736   4.671 -0.3987 -0.1260 -0.2964
  462TIP3    H1 1350   4.536   6.649   4.633 -0.6895 -0.1237 -0.3645
  462TIP3    H2 1351   4.435   6.745   4.691 -0.0405 -0.7305  1.8597
  463TIP3   OH2 1352   4.733   5.933   0.638 -0.3052 -0.2513  0.5044
  463TIP3    H1 1353   4.642   5.936   0.607 -1.1227 -0.4934  2.6903
  463TIP3    H2 1354   4.739   5.852   0.688  0.8940  0.1556  1.0576
  464TIP3   OH2 1355   1.614   1.026   3.032 -0.3209  0.0680  0.3483
  464TIP3    H1 1356   1.691   1.066   2.992  1.7680 -1.0012  2.9298
  464TIP3    H2 1357   1.613   0.936   2.998 -0.5231  0.1360  0.1772
  465TIP3   OH2 1358   0.655   5.263   4.422 -0.6563  0.3847  0.2110
  465TIP3    H1 1359   0.571   5.239   4.382  0.2000 -0.2022 -1.3339
  465TIP3    H2 1360   0.699   5.180   4.437 -0.4617  0.6707  1.3427
  466TIP3   OH2 1361   4.937   1.139   0.634 -0.0860  0.3014 -0.1789
  466TIP3    H1 1362   4.941   1.230   0.664 -1.1866 -0.0309  1.1081
  466TIP3    H2 1363   4.968   1.141   0.544 -0.3656  1.9963 -0.2602
  467TIP3   OH2 1364   3.178   2.039   4.461  0.6840 -0.1287  0.2376
  467TIP3    H1 1365   3.265   2.060   4.494  1.5824 -1.0528 -1.4377
  467TIP3    H2 1366   3.190   2.029   4.366 -1.8460  2.9831 -0.6046
  468TIP3   OH2 1367   2.738   6.685   2.158  0.3120 -0.5743  0.3636
  468TIP3    H1 1368   2.771   6.628   2.227 -0.2691 -2.6109 -0.9603
  468TIP3    H2 1369   2.704   6.625   2.091 -0.0117  1.3313 -1.2706
  469TIP3   OH2 1370   3.707   6.630   5.086  0.2904 -0.4746  0.2190
  469TIP3    H1 1371   3.802   6.617   5.077  0.0466 -1.7456 -0.8900
  469TIP3    H2 1372   3.676   6.548   5.123 -0.4576 -0.3199 -0.0542
  470TIP3   OH2 1373   1.356   6.058   3.625 -0.1399  0.0362 -0.1876
  470TIP3    H1 1374   1.363   5.976   3.577 -2.2541 -1.5776  2.0224
  470TIP3    H2 1375   1.408   6.043   3.705  1.4958  1.8318 -0.8380
  471TIP3   OH2 1376   0.301   5.377   1.671  0.6884  0.0593 -0.1955
  471TIP3    H1 1377   0.390   5.409   1.655  0.6578  0.2766  0.0621
  471TIP3    H2 1378   0.244   5.451   1.651  0.7108  0.7406  1.9666
  472TIP3   OH2 1379   0.624   1.643   1.103 -0.2234  0.4599  0.2373
  472TIP3    H1 1380   0.682   1.576   1.141 -0.0277 -1.1553 -2.6140
  472TIP3    H2 1381   0.537   1.621   1.137  0.0988 -0.2023  0.6691
  473TIP3   OH2 1382   6.722   0.784   2.143  0.7821 -0.4070  0.0729
  473TIP3    H1 1383   6.755   0.846   2.209  0.9610 -1.4590  1.0099
  473TIP3    H2 1384   6.642   0.748   2.182  0.1478 -0.0676 -0.8857
  474TIP3   OH2 1385   4.717   0.145   4.336 -0.4665  0.1181 -0.2761
  474TIP3    H1 1386   4.776   0.070   4.330 -1.2664 -0.4167 -3.4670
  474TIP3    H2 1387   4.742   0.201   4.263 -2.1691  1.2049 -0.0743
  475TIP3   OH2 1388   0.654   1.350   5.766  0.2742 -0.1521  0.1443
  475TIP3    H1 1389   0.740   1.342   5.807 -0.5188  0.2138  1.9791
  475TIP3    H2 1390   0.595   1.373   5.838 -1.4413 -0.8049 -0.9862
  476TIP3   OH2 1391   6.200   3.117   4.002 -0.5865  0.5287 -0.1900
  476TIP3    H1 1392   6.209   3.168   3.922 -1.8085 -0.2744 -0.8828
  476TIP3    H2 1393   6.109   3.087   4.001 -0.3164 -0.4204  0.9316
  477TIP3   OH2 1394   1.130   2.896   5.395 -0.3342 -0.1529  0.2853
  477TIP3    H1 1395   1.200   2.951   5.362 -0.4220  0.0758  0.4806
  477TIP3    H2 1396   1.173   2.813   5.417  0.1413  0.4384  1.7245
  478TIP3   OH2 1397   4.817   1.925   4.188  0.0457 -0.1935  0.6657
  478TIP3    H1 1398   4.850   1.894   4.272 -0.6653  0.8120  1.3420
  478TIP3    H2 1399   4.854   2.013   4.178  0.3763 -0.4170 -0.2350
  479TIP3   OH2 1400   2.717   0.908   1.756  0.1207  0.3207  0.1523
  479TIP3    H1 1401   2.805   0.917   1.793 -0.3378 -1.5052  1.8636
  479TIP3    H2 1402   2.710   0.815   1.735 -1.9271  0.0921  1.5838
  480TIP3   OH2 1403   2.637   0.114   3.303 -0.1397 -0.3604  0.2849
  480TIP3    H1 1404   2.578   0.187   3.323  0.0005  0.5359 -2.2444
  480TIP3    H2 1405   2.582   0.036   3.314 -1.6816  0.4067 -1.2838
  481TIP3   OH2 1406   1.005   3.363   1.786 -0.4483  0.1703 -0.8225
  481TIP3    H1 1407   1.063   3.312   1.728  0.3959 -0.9099  0.8860
  481TIP3    H2 1408   1.046   3.450   1.790  0.7202 -0.3862 -0.1609
  482TIP3   OH2 1409   2.173   6.228   5.089 -0.1873  0.3905 -0.1778
  482TIP3    H1 1410   2.096   6.260   5.043 -0.3647 -0.1513 -0.2596
  482TIP3    H2 1411   2.138   6.174   5.160  0.1082  0.4650  0.0284
  483TIP3   OH2 1412   0.220   1.221   2.766  0.4804 -0.1099 -0.5432
  483TIP3    H1 1413   0.264   1.295   2.808  0.0129  0.0586 -0.3435
  483TIP3    H2 1414   0.278   1.196   2.694  0.6702  0.4147 -0.5775
  484TIP3   OH2 1415   0.184   0.364   2.840  0.2973 -0.3180 -0.0483
  484TIP3    H1 1416   0.271   0.363   2.881  0.0928  0.8519  0.4427
  484TIP3    H2 1417   0.198   0.408   2.756 -0.0080  0.8141  0.4877
  485TIP3   OH2 1418   6.178   6.164   2.088  0.8241  1.0691  0.0826
  485TIP3    H1 1419   6.270   6.186   2.105  1.0871 -1.2418  2.3420
  485TIP3    H2 1420   6.132   6.193   2.167  0.2255 -0.7409  0.4593
  486TIP3   OH2 1421   3.191   0.646   4.075  0.0253  0.0163  0.6215
  486TIP3    H1 1422   3.161   0.563   4.112  1.3123 -0.4311  0.7141
  486TIP3    H2 1423   3.257   0.677   4.137 -0.8614  1.4394  0.9069
  487TIP3   OH2 1424   4.278   5.667   3.165 -0.1915  0.0022  0.1826
  487TIP3    H1 1425   4.191   5.683   3.130 -0.5079  1.8877  1.6449
  487TIP3    H2 1426   4.337   5.686   3.092 -0.9545 -2.0231 -1.0517
  488TIP3   OH2 1427   5.686   0.886   5.711 -0.6166 -0.3237 -0.3657
  488TIP3    H1 1428   5.700   0.915   5.801  1.0719  0.4076 -0.8143
  488TIP3    H2 1429   5.619   0.819   5.717  1.0489 -1.9290  1.7571
  489TIP3   OH2 1430   0.502   2.243   5.386 -0.1575  0.1385  0.3984
  489TIP3    H1 1431   0.485   2.294   5.465 -2.1270  0.1493  0.0284
  489TIP3    H2 1432   0.469   2.155   5.406 -0.7205  0.1536 -0.4141
  490TIP3   OH2 1433   2.376   5.595   1.756  0.1414  0.0482  0.2641
  490TIP3    H1 1434   2.427   5.673   1.777 -0.3120  0.5367 -0.3922
  490TIP3    H2 1435   2.332   5.616   1.674 -1.6919 -0.0456  1.1537
  491TIP3   OH2 1436   5.872   2.970   5.581  0.3222 -0.2900 -0.7741
  491TIP3    H1 1437   5.834   2.900   5.528 -0.4202 -1.1928  0.8591
  491TIP3    H2 1438   5.887   2.930   5.667 -1.0869  1.7865  0.5507
  492TIP3   OH2 1439   0.639   2.122   3.131  0.1134  0.5090 -0.0454
  492TIP3    H1 1440   0.669   2.081   3.212 -1.7054  0.2481  0.5204
  492TIP3    H2 1441   0.579   2.191   3.159  0.8926  1.6798 -1.1161
  493TIP3   OH2 1442   2.565   6.090   0.753 -0.2278 -0.3589  0.1477
  493TIP3    H1 1443   2.554   6.068   0.846 -0.2835  1.6683  0.6669
  493TIP3    H2 1444   2.644   6.042   0.727  0.6449  0.1699  1.6651
  494TIP3   OH2 1445   2.539   0.567   1.163 -0.1706 -0.0371  0.4991
  494TIP3    H1 1446   2.573   0.603   1.245 -1.2936  1.7537  0.2558
  494TIP3    H2 1447   2.614   0.567   1.104 -0.3196  3.3309  0.1148
  495TIP3   OH2 1448   5.464   5.516   4.429 -0.4186  0.6546 -0.0504
  495TIP3    H1 1449   5.517   5.593   4.406  1.9535 -1.3594 -1.9845
  495TIP3    H2 1450   5.492   5.449   4.367 -2.0887 -1.9152  1.7737
  496TIP3   OH2 1451   5.615   6.030   1.559 -0.1163  0.3876 -0.3032
  496TIP3    H1 1452   5.591   5.954   1.613 -0.3020  0.6084 -0.0727
  496TIP3    H2 1453   5.542   6.040   1.498 -1.4192  2.0177  1.4147
  497TIP3   OH2 1454   5.109   2.047   2.910 -0.4951 -0.2613 -0.7313
  497TIP3    H1 1455   5.118   1.971   2.853  1.1831  0.4610 -1.4826
  497TIP3    H2 1456   5.060   2.111   2.858  1.0402  0.3994 -1.4083
  498TIP3   OH2 1457   1.559   6.277   3.726  0.4467 -0.6269 -0.2355
  498TIP3    H1 1458   1.527   6.320   3.647  0.3084  0.6068  0.4795
  498TIP3    H2 1459   1.627   6.217   3.694 -0.3278 -0.9251 -1.3989
  499TIP3   OH2 1460   2.218   4.236   1.232 -0.2488  0.1012  0.2725
  499TIP3    H1 1461   2.298   4.185   1.219 -1.1412 -0.9373 -1.5447
  499TIP3    H2 1462   2.152   4.172   1.259 -0.9448  0.5980 -0.2055
  500TIP3   OH2 1463   0.680   3.498   5.207  0.5225 -0.2670 -0.4365
  500TIP3    H1 1464   0.690   3.418   5.259 -2.8232 -1.7543 -1.7703
  500TIP3    H2 1465   0.704   3.471   5.118  1.1089  0.7661 -0.6060
  501TIP3   OH2 1466   2.068   1.447   2.163 -0.2058 -0.1745  0.0923
  501TIP3    H1 1467   2.159   1.466   2.184  0.6916 -0.5301 -2.9623
  501TIP3    H2 1468   2.022   1.530   2.177  0.9195  0.4464  0.1791
  502TIP3   OH2 1469   0.316   6.531   2.518 -0.0292  0.7493 -0.0258
  502TIP3    H1 1470   0.230   6.572   2.519 -0.8457 -0.8688 -0.5036
  502TIP3    H2 1471   0.298   6.437   2.519  1.7574  0.3116  2.5197
  503TIP3   OH2 1472   2.505   3.189   0.785  0.1755 -0.4552 -0.3410
  503TIP3    H1 1473   2.513   3.150   0.872 -1.2696 -1.7789 -0.7467
  503TIP3    H2 1474   2.524   3.282   0.798  1.0155 -0.8111  1.1762
  504TIP3   OH2 1475   4.150   2.659   0.082  0.1749  0.3785  0.4925
  504TIP3    H1 1476   4.116   2.663  -0.008 -0.7250  0.8311  0.8375
  504TIP3    H2 1477   4.245   2.654   0.072  0.1310  1.1477 -0.4790
  505TIP3   OH2 1478   3.145   6.330   0.827 -0.0939 -0.2848  0.1934
  505TIP3    H1 1479   3.135   6.275   0.905 -0.2034  0.4284  0.6990
  505TIP3    H2 1480   3.104   6.280   0.757 -0.2865 -0.8016  0.6655
  506TIP3   OH2 1481   3.296   3.084   0.523  0.0661  0.3199 -0.1181
  506TIP3    H1 1482   3.298   3.177   0.547 -1.0860  0.1329  0.7625
  506TIP3    H2 1483   3.359   3.077   0.451  0.0236  1.8193 -0.3323
  507TIP3   OH2 1484   0.879   2.376   0.743 -0.2687 -0.3407  0.0386
  507TIP3    H1 1485   0.897   2.358   0.651 -0.2610 -3.1619  0.4823
  507TIP3    H2 1486   0.884   2.290   0.785 -1.8503  0.6177  2.4027
  508TIP3   OH2 1487   1.855   5.432   4.729  0.3884 -0.3271  1.2329
  508TIP3    H1 1488   1.764   5.426   4.700  0.1964  2.9501  0.7510
  508TIP3    H2 1489   1.905   5.395   4.656 -0.5046 -0.2423  0.5508
  509TIP3   OH2 1490   2.301   2.531   3.029 -0.0746 -0.1231  0.3109
  509TIP3    H1 1491   2.240   2.599   3.002 -0.1189 -0.0114  0.6952
  509TIP3    H2 1492   2.264   2.495   3.110  1.3274  1.2336  1.6184
  510TIP3   OH2 1493   3.594   6.733   0.819 -0.3090  0.0690  0.5461
  510TIP3    H1 1494   3.635   6.806   0.865 -0.1764 -0.3037  1.0269
  510TIP3    H2 1495   3.614   6.748   0.727 -1.0589  1.1301  0.5332
  511TIP3   OH2 1496   4.169   6.622   1.603 -0.0063 -0.4608 -0.3179
  511TIP3    H1 1497   4.179   6.590   1.513  1.3242 -0.0315 -0.3454
  511TIP3    H2 1498   4.244   6.585   1.650 -1.1573 -1.4017  0.8551
  512TIP3   OH2 1499   4.029   5.865   0.911  0.3731  0.3468  0.3326
  512TIP3    H1 1500   3.976   5.878   0.989 -0.1906  0.8218 -0.1206
  512TIP3    H2 1501   4.106   5.817   0.942  0.2757  0.7421  1.2213
  513TIP3   OH2 1502   5.797   6.170   3.038 -0.2965  0.0742  0.9321
  513TIP3    H1 1503   5.860   6.226   3.083  1.3543 -1.2284  0.3928
  513TIP3    H2 1504   5.841   6.084   3.033 -1.6013 -0.5674 -0.5720
  514TIP3   OH2 1505   3.554   1.458   3.555 -0.8707  0.4005  0.1491
  514TIP3    H1 1506   3.483   1.426   3.500 -0.3224 -1.9079  0.6889
  514TIP3    H2 1507   3.531   1.430   3.644 -1.5782  3.7864  1.1691
  515TIP3   OH2 1508   5.897   1.176   3.288 -0.3861  0.0220 -0.0808
  515TIP3    H1 1509   5.882   1.145   3.377 -3.4938 -0.9047 -0.8327
  515TIP3    H2 1510   5.906   1.096   3.236 -0.9172  0.4978 -0.9196
  516TIP3   OH2 1511   5.832   4.626   0.699 -0.0285  0.3936  0.3968
  516TIP3    H1 1512   5.804   4.578   0.777 -1.4711 -0.9895 -0.8972
  516TIP3    H2 1513   5.914   4.585   0.673 -0.1977  0.0088  0.4684
  517TIP3   OH2 1514   3.595   5.027   3.275  0.2025  0.5573 -0.2376
  517TIP3    H1 1515   3.648   5.089   3.325  1.0252 -1.3546  1.4380
  517TIP3    H2 1516   3.582   4.954   3.335  0.2836 -1.4129 -2.4822
  518TIP3   OH2 1517   0.723   1.811   3.818 -0.3096  0.1416 -0.6710
  518TIP3    H1 1518   0.819   1.804   3.819 -0.3719 -1.3216 -1.4280
  518TIP3    H2 1519   0.703   1.861   3.739 -0.1358  1.9342  0.3773
  519TIP3   OH2 1520   2.998   0.522   0.409 -0.5898  0.2048  0.2630
  519TIP3    H1 1521   2.943   0.597   0.434 -2.6039 -0.6571 -1.2975
  519TIP3    H2 1522   2.950   0.445   0.439  0.3239 -0.5457 -0.1344
  520TIP3   OH2 1523   2.257   2.656   4.930  0.3254  0.0796 -0.3352
  520TIP3    H1 1524   2.242   2.663   4.836 -0.3321 -1.8523 -0.4121
  520TIP3    H2 1525   2.172   2.629   4.966  0.5394  0.9179  0.8325
  521TIP3   OH2 1526   6.333   6.363   1.823 -0.6595  0.2140  0.2018
  521TIP3    H1 1527   6.257   6.379   1.879 -0.2438  0.9851  0.5614
  521TIP3    H2 1528   6.300   6.306   1.754 -1.2844 -0.3982  0.9893
  522TIP3   OH2 1529   3.088   6.495   4.530  0.4115  0.1465  0.4201
  522TIP3    H1 1530   3.180   6.518   4.543  0.7088 -1.2633  0.9647
  522TIP3    H2 1531   3.090   6.404   4.500 -0.7304  0.6622 -1.3496
  523TIP3   OH2 1532   5.694   2.124   1.944  0.9707 -0.5584 -0.4458
  523TIP3    H1 1533   5.704   2.205   1.994  0.8594 -0.7237 -0.1502
  523TIP3    H2 1534   5.602   2.102   1.953  0.6749  0.0623 -1.7601
  524TIP3   OH2 1535   5.083   2.512   2.167 -0.1335 -0.3563  0.0257
  524TIP3    H1 1536   5.064   2.472   2.083  0.2009  0.8165 -0.6365
  524TIP3    H2 1537   5.112   2.440   2.223  1.0278 -0.9501 -1.2900
  525TIP3   OH2 1538   6.550   1.211   1.191 -0.2438  0.5134  0.2300
  525TIP3    H1 1539   6.620   1.251   1.243  0.5258  1.6765 -1.5661
  525TIP3    H2 1540   6.534   1.274   1.121 -0.6732 -1.2804 -1.3809
  526TIP3   OH2 1541   2.162   4.491   1.730  0.2661 -0.3519  0.1734
  526TIP3    H1 1542   2.213   4.441   1.666  0.6258 -0.3762  0.4761
  526TIP3    H2 1543   2.226   4.546   1.774  0.4432 -1.9488  2.0805
  527TIP3   OH2 1544   5.751   3.271   3.933  0.7035 -0.1219  0.1680
  527TIP3    H1 1545   5.765   3.205   3.865  0.6772 -1.0021  0.9958
  527TIP3    H2 1546   5.657   3.264   3.953  0.6629  0.3071  0.1231
  528TIP3   OH2 1547   3.460   5.681   3.714  0.2285 -0.4246  0.6567
  528TIP3    H1 1548   3.486   5.765   3.677  1.6458 -1.2880 -0.4031
  528TIP3    H2 1549   3.420   5.703   3.798 -3.1086  1.6034 -1.2631
  529TIP3   OH2 1550   4.228   5.160   5.298 -0.2623 -0.0087  0.3115
  529TIP3    H1 1551   4.188   5.074   5.313 -0.0200 -0.2378 -0.3443
  529TIP3    H2 1552   4.188   5.216   5.364 -0.9618 -0.4548  0.2793
  530TIP3   OH2 1553   1.950   5.591   1.354  0.0893 -0.6302  0.4846
  530TIP3    H1 1554   1.903   5.626   1.279 -0.0277 -0.1351  0.7839
  530TIP3    H2 1555   2.017   5.534   1.316  0.1300 -0.2638 -0.0035
  531TIP3   OH2 1556   4.397   2.231   2.346 -0.0387  0.2404 -0.3094
  531TIP3    H1 1557   4.414   2.290   2.272 -1.4690 -0.2183 -1.0245
  531TIP3    H2 1558   4.395   2.144   2.308 -0.4792 -0.0325  0.3200
  532TIP3   OH2 1559   6.732   5.333   5.201 -0.3839  0.4727  0.2722
  532TIP3    H1 1560   6.670   5.375   5.261 -0.6397 -1.0183  1.0802
  532TIP3    H2 1561   6.692   5.344   5.115 -1.3361  0.3291  0.6793
  533TIP3   OH2 1562   6.360   1.472   2.161  0.1093  0.0465  0.2107
  533TIP3    H1 1563   6.374   1.422   2.242 -1.8695 -1.0733 -0.0696
  533TIP3    H2 1564   6.341   1.405   2.095  0.5878  1.0081 -0.9247
  534TIP3   OH2 1565   5.184   4.663   4.162 -0.5116  0.3088 -0.1363
  534TIP3    H1 1566   5.126   4.599   4.203 -1.7645  1.2488 -0.3628
  534TIP3    H2 1567   5.246   4.686   4.231  0.3334 -1.5344 -0.2303
  535TIP3   OH2 1568   3.216   0.365   5.055  0.6346 -0.8474  0.2708
  535TIP3    H1 1569   3.144   0.342   4.997  1.2146 -2.8278  0.2484
  535TIP3    H2 1570   3.174   0.410   5.128 -0.2997  0.2136 -0.8793
  536TIP3   OH2 1571   7.059   3.390   1.226 -0.1970  0.2105 -0.0459
  536TIP3    H1 1572   6.995   3.421   1.162  0.2325  1.2544  0.0175
  536TIP3    H2 1573   7.013   3.321   1.274 -1.1738  0.7276 -0.2086
  537TIP3   OH2 1574   4.197   2.720   2.742 -0.0578 -0.1116  0.1104
  537TIP3    H1 1575   4.112   2.675   2.737 -0.5123  0.8519 -1.5440
  537TIP3    H2 1576   4.245   2.689   2.665  0.6645  0.2140  0.4209
  538TIP3   OH2 1577   6.986   2.153   4.688 -0.2873 -0.0145  0.2139
  538TIP3    H1 1578   7.022   2.182   4.604 -0.5472 -0.9657 -0.2420
  538TIP3    H2 1579   6.904   2.202   4.697  0.0886  0.6163  0.2615
  539TIP3   OH2 1580   1.002   0.760   2.087  0.1478 -1.0000 -0.1320
  539TIP3    H1 1581   0.994   0.687   2.025 -0.6652  1.4417 -3.1007
  539TIP3    H2 1582   0.930   0.746   2.149 -0.0900 -2.5868 -0.7104
  540TIP3   OH2 1583   0.873   5.405   4.488  0.2990  0.6202 -0.3090
  540TIP3    H1 1584   0.871   5.498   4.466 -1.1145  0.9485  1.0868
  540TIP3    H2 1585   0.782   5.376   4.480  0.2685 -0.0052  1.7667
  541TIP3   OH2 1586   1.848   1.603   2.534  0.1531 -0.7570  0.2017
  541TIP3    H1 1587   1.836   1.696   2.518 -0.1003 -0.8727 -0.3240
  541TIP3    H2 1588   1.929   1.597   2.585 -0.3528 -0.1863  1.0852
  542TIP3   OH2 1589   7.113   4.317   3.140  0.0800  0.1885 -0.4806
  542TIP3    H1 1590   7.073   4.402   3.159 -0.2860 -0.1454  0.2693
  542TIP3    H2 1591   7.201   4.322   3.177 -0.7621 -0.6042  1.7913
  543TIP3   OH2 1592   1.421   4.328   1.585 -0.5595 -0.1282  0.1500
  543TIP3    H1 1593   1.450   4.385   1.655 -1.6780  0.1191  0.4346
  543TIP3    H2 1594   1.379   4.254   1.630 -0.9460 -0.1523 -0.2414
  544TIP3   OH2 1595   0.817   3.629   5.601 -0.8859 -0.0652  0.4299
  544TIP3    H1 1596   0.837   3.723   5.605  0.5032 -0.0858 -2.9689
  544TIP3    H2 1597   0.863   3.591   5.676 -0.1533  1.7365  0.9465
  545TIP3   OH2 1598   2.618   2.658   2.536  0.1339  0.0278  0.0109
  545TIP3    H1 1599   2.631   2.617   2.622  2.0649 -0.3219 -0.4199
  545TIP3    H2 1600   2.542   2.715   2.549  0.4997  0.1307  2.0090
  546TIP3   OH2 1601   5.440   0.924   0.796  0.5845  0.4229 -0.1526
  546TIP3    H1 1602   5.475   0.995   0.850  0.9011 -0.6279  1.0518
  546TIP3    H2 1603   5.452   0.845   0.848 -0.3121 -0.4556 -1.2173
  547TIP3   OH2 1604   3.797   1.079   1.557 -0.4998  0.2395  0.0976
  547TIP3    H1 1605   3.722   1.133   1.532 -0.9032  0.6602  2.0213
  547TIP3    H2 1606   3.872   1.139   1.554 -0.1362 -0.2316 -2.0303
  548TIP3   OH2 1607   0.501   2.096   4.761  0.0892 -0.5953  0.7654
  548TIP3    H1 1608   0.437   2.117   4.829  0.9884  2.1809  0.8891
  548TIP3    H2 1609   0.512   2.178   4.712  2.7020 -1.2646  0.0582
  549TIP3   OH2 1610   5.054   4.963   4.114  0.2579  0.3643 -0.3590
  549TIP3    H1 1611   5.035   4.894   4.049  0.2836  0.9880 -1.0402
  549TIP3    H2 1612   4.991   4.947   4.184  1.2664 -1.3056  0.2462
  550TIP3   OH2 1613   1.268   1.325   1.578 -0.0116  0.0389 -0.5544
  550TIP3    H1 1614   1.275   1.334   1.483  2.7243  0.4220 -0.4158
  550TIP3    H2 1615   1.314   1.243   1.598  0.7247  0.6878  0.5203
  551TIP3   OH2 1616   1.854   2.824   2.175  0.0071  0.0873  0.2654
  551TIP3    H1 1617   1.859   2.742   2.126 -3.1237 -0.7637  1.1402
  551TIP3    H2 1618   1.824   2.888   2.111 -0.7176 -0.2198  0.2937
  552TIP3   OH2 1619   7.118   6.054   3.946  0.4555  0.3994  0.1769
  552TIP3    H1 1620   7.177   6.068   3.872 -0.2077  1.0157 -0.2478
  552TIP3    H2 1621   7.050   5.996   3.912 -0.2480  1.2607  0.0659
  553TIP3   OH2 1622   6.322   1.640   3.763 -0.2147 -0.1968  0.5060
  553TIP3    H1 1623   6.375   1.684   3.830  0.6146 -0.4500  0.0303
  553TIP3    H2 1624   6.380   1.573   3.727 -0.7095 -0.1744 -0.3491
  554TIP3   OH2 1625   0.055   4.433   5.462  0.2781  0.5996 -0.0556
  554TIP3    H1 1626   0.029   4.439   5.553 -1.3595 -0.9490 -0.3660
  554TIP3    H2 1627   0.050   4.523   5.429  3.0868  1.5958  1.8567
  555TIP3   OH2 1628   2.616   5.459   2.105  0.4146  0.2790  0.0964
  555TIP3    H1 1629   2.639   5.511   2.028 -0.2782  2.3565  1.2192
  555TIP3    H2 1630   2.698   5.416   2.130  0.7084 -0.2458 -1.6082
  556TIP3   OH2 1631   1.051   1.085   1.805  0.0244 -0.0635  0.8649
  556TIP3    H1 1632   1.054   0.990   1.795 -0.2990 -0.1895  1.8983
  556TIP3    H2 1633   1.031   1.118   1.717 -0.9641 -1.0091  0.7139
  557TIP3   OH2 1634   6.251   3.872   1.010 -0.1384 -0.5801  0.7883
  557TIP3    H1 1635   6.338   3.910   1.019  0.2431 -1.6927  2.0471
  557TIP3    H2 1636   6.205   3.895   1.090 -1.0939  0.1699  0.0516
  558TIP3   OH2 1637   2.094   3.140   4.664  0.4404  0.1998 -0.4274
  558TIP3    H1 1638   2.146   3.060   4.654  0.9005  0.5307 -0.7015
  558TIP3    H2 1639   2.022   3.129   4.602  0.3684 -0.1018 -0.2972
  559TIP3   OH2 1640   1.913   3.945   4.796 -1.0057  0.0721  0.0348
  559TIP3    H1 1641   1.921   3.868   4.852 -2.7414 -0.6496 -0.6253
  559TIP3    H2 1642   1.998   3.988   4.801 -0.2787 -1.4124  1.1097
  560TIP3   OH2 1643   1.185   5.982   3.874  0.1654 -0.2955  0.8104
  560TIP3    H1 1644   1.143   5.901   3.847  1.4919 -0.7512 -0.0027
  560TIP3    H2 1645   1.274   5.956   3.898  0.3132  0.7728  1.5116
  561TIP3   OH2 1646   3.218   2.804   2.930  0.0909  0.0631  0.2967
  561TIP3    H1 1647   3.137   2.852   2.942 -0.8844 -1.7687  1.5096
  561TIP3    H2 1648   3.242   2.775   3.018  2.3428  0.9237  0.0421
  562TIP3   OH2 1649   5.847   6.529   0.629 -0.1813  0.2706  0.1644
  562TIP3    H1 1650   5.800   6.599   0.675 -0.5831 -1.1021  1.9572
  562TIP3    H2 1651   5.937   6.560   0.624 -0.5707  1.4240 -0.1839
  563TIP3   OH2 1652   2.563   5.294   5.883 -0.5903  0.2946  0.5360
  563TIP3    H1 1653   2.485   5.305   5.938 -0.6661  0.1869  0.4516
  563TIP3    H2 1654   2.537   5.229   5.818 -0.4021  0.1990  0.5559
  564TIP3   OH2 1655   5.181   5.279   5.593 -0.5740  0.5168  0.6489
  564TIP3    H1 1656   5.195   5.184   5.596  1.5470  0.7845  0.7763
  564TIP3    H2 1657   5.267   5.317   5.613 -1.3319  2.4760  0.4429
  565TIP3   OH2 1658   2.032   2.267   2.479  0.0364 -0.2853 -0.9952
  565TIP3    H1 1659   2.023   2.285   2.572  3.1698 -1.5493 -0.3259
  565TIP3    H2 1660   2.005   2.348   2.435  0.0959  0.9047  1.0664
  566TIP3   OH2 1661   6.634   4.466   2.407 -0.1842  0.6872  0.1130
  566TIP3    H1 1662   6.719   4.429   2.432 -0.4524  0.0757  0.1347
  566TIP3    H2 1663   6.641   4.477   2.312  0.0669  1.0219  0.1693
  567TIP3   OH2 1664   1.326   6.389   2.905  0.7169  0.4712 -0.1573
  567TIP3    H1 1665   1.301   6.390   2.813 -0.9676 -2.8868  0.1360
  567TIP3    H2 1666   1.405   6.335   2.908  0.7284  0.5085  0.3657
  568TIP3   OH2 1667   5.943   0.552   3.240 -0.1814 -0.2510 -0.2744
  568TIP3    H1 1668   5.853   0.566   3.211  0.1296  0.0184 -1.1694
  568TIP3    H2 1669   5.990   0.631   3.212 -0.3649  1.4096  3.5402
  569TIP3   OH2 1670   4.447   3.067   0.639  0.2575 -0.2862 -0.0952
  569TIP3    H1 1671   4.394   2.998   0.678  0.4683 -1.2894 -1.5353
  569TIP3    H2 1672   4.527   3.023   0.611  0.3387  0.5018 -1.1551
  570TIP3   OH2 1673   3.368   0.243   1.254  0.0290 -0.2898 -0.6961
  570TIP3    H1 1674   3.435   0.310   1.263 -0.8736  0.4971  0.5804
  570TIP3    H2 1675   3.287   0.292   1.238 -1.0420 -0.8238  2.3607
  571TIP3   OH2 1676   2.925   1.071   3.902 -0.2708 -0.3743 -0.4098
  571TIP3    H1 1677   2.897   1.040   3.988  2.8940  0.7885  1.1990
  571TIP3    H2 1678   2.947   0.991   3.854 -1.9570 -1.0310 -0.1649
  572TIP3   OH2 1679   2.040   0.723   3.534 -0.1483  0.2221 -0.2627
  572TIP3    H1 1680   2.115   0.780   3.555  0.3206  0.2504 -1.9134
  572TIP3    H2 1681   2.022   0.677   3.616  1.9876 -0.1127  0.0837
  573TIP3   OH2 1682   4.516   0.647   5.266 -0.3301  0.2982 -0.2641
  573TIP3    H1 1683   4.584   0.612   5.323  0.3849  1.3744 -0.4284
  573TIP3    H2 1684   4.471   0.569   5.233 -0.7123 -0.3578  1.6610
  574TIP3   OH2 1685   3.244   3.615   4.797 -0.5258  0.2089 -0.5047
  574TIP3    H1 1686   3.177   3.565   4.749 -3.3962  2.5589  0.7164
  574TIP3    H2 1687   3.205   3.702   4.809  1.4504  0.8010  2.9971
  575TIP3   OH2 1688   0.539   4.238   0.507  0.0202  0.2114  0.3726
  575TIP3    H1 1689   0.517   4.255   0.416 -2.2708 -0.9711  0.6230
  575TIP3    H2 1690   0.496   4.309   0.556  2.6095  1.8159  0.5202
  576TIP3   OH2 1691   3.785   2.838   0.611 -0.8408 -0.1144 -0.5779
  576TIP3    H1 1692   3.694   2.810   0.601 -1.9937  2.3833  1.6482
  576TIP3    H2 1693   3.832   2.759   0.638 -2.4038 -1.3558 -1.3684
  577TIP3   OH2 1694   4.607   1.487   2.018  0.4282 -0.1712  0.3627
  577TIP3    H1 1695   4.625   1.493   2.112  1.4059 -0.6315  0.2208
  577TIP3    H2 1696   4.553   1.409   2.008  1.9993 -1.3104  0.3512
  578TIP3   OH2 1697   0.209   1.547   4.695 -1.1612  0.4399 -0.7419
  578TIP3    H1 1698   0.229   1.530   4.603  1.6389 -1.8490  0.1079
  578TIP3    H2 1699   0.265   1.621   4.719 -0.8334  0.1492 -0.5919
  579TIP3   OH2 1700   3.704   5.226   3.471  0.1452  0.1516  0.3542
  579TIP3    H1 1701   3.669   5.221   3.560  0.1824 -1.0312  0.3247
  579TIP3    H2 1702   3.658   5.299   3.430 -1.0862 -0.3492  0.8231
  580TIP3   OH2 1703   2.831   4.262   1.642  0.0189  0.4388 -0.5303
  580TIP3    H1 1704   2.777   4.278   1.720 -1.7676 -0.5615 -1.5128
  580TIP3    H2 1705   2.877   4.180   1.661  1.5067  1.4470  0.4327
  581TIP3   OH2 1706   2.095   0.758   2.050 -0.1698 -0.0193 -0.0212
  581TIP3    H1 1707   2.049   0.710   1.981  1.3756 -0.4293 -0.7979
  581TIP3    H2 1708   2.061   0.721   2.131 -0.5583 -0.9328 -0.5838
  582TIP3   OH2 1709   2.920   5.608   4.043 -0.5720  0.1370  0.3147
  582TIP3    H1 1710   2.862   5.642   4.111  0.1413 -0.1938  1.1018
  582TIP3    H2 1711   2.865   5.551   3.990 -1.0914  0.2624  0.7178
  583TIP3   OH2 1712   4.543   1.960   1.013  0.2355 -0.6923 -0.3600
  583TIP3    H1 1713   4.462   1.930   0.972  0.4951  1.5474 -2.7099
  583TIP3    H2 1714   4.536   2.056   1.013  2.9677 -0.4104 -0.8815
  584TIP3   OH2 1715   3.786   3.729   5.830  0.5365  0.2999 -0.3570
  584TIP3    H1 1716   3.848   3.667   5.869 -1.2193  0.5268  3.1935
  584TIP3    H2 1717   3.755   3.685   5.751  2.9724 -1.0986 -0.6267
  585TIP3   OH2 1718   1.131   6.096   4.116  0.3476 -0.4564  0.1707
  585TIP3    H1 1719   1.208   6.039   4.125  0.2288 -0.6886 -0.2266
  585TIP3    H2 1720   1.091   6.068   4.034  0.3138  0.2345 -0.0566
  586TIP3   OH2 1721   5.530   6.100   2.952  0.2923 -0.5941 -0.3185
  586TIP3    H1 1722   5.506   6.036   3.019  0.3454  0.2111  0.4979
  586TIP3    H2 1723   5.587   6.162   2.997 -0.0904  0.2599 -0.9631
  587TIP3   OH2 1724   2.038   2.267   1.447 -0.2210  0.6986  0.3580
  587TIP3    H1 1725   1.974   2.336   1.466 -2.1116 -0.4244 -1.4286
  587TIP3    H2 1726   1.988   2.201   1.399  1.9345 -1.0744  0.3813
  588TIP3   OH2 1727   3.145   4.148   4.928  0.4129 -0.0052  0.5435
  588TIP3    H1 1728   3.194   4.194   4.996 -0.2103 -0.1100  1.0708
  588TIP3    H2 1729   3.108   4.218   4.874  0.1427  0.1034  0.8638
  589TIP3   OH2 1730   0.036   2.071   3.436 -0.0705 -0.3060  0.2770
  589TIP3    H1 1731  -0.052   2.034   3.443  0.3480 -1.2683  0.5731
  589TIP3    H2 1732   0.082   2.013   3.375  0.7632 -0.6221  1.1864
  590TIP3   OH2 1733   1.708   0.803   3.652 -0.1678 -0.1773  0.5183
  590TIP3    H1 1734   1.767   0.874   3.677 -0.6076  0.8866 -1.3392
  590TIP3    H2 1735   1.741   0.772   3.568 -0.8826 -1.1511  0.5842
  591TIP3   OH2 1736   4.100   6.137   2.008  0.4654  0.4460 -0.6839
  591TIP3    H1 1737   4.055   6.221   2.002  1.1649  0.7736 -1.7351
  591TIP3    H2 1738   4.032   6.072   1.994 -0.2293  0.7878  0.9470
  592TIP3   OH2 1739   1.209   0.397   1.372 -0.2509  0.4922  0.2710
  592TIP3    H1 1740   1.261   0.404   1.453  2.1921  2.6635 -1.3394
  592TIP3    H2 1741   1.232   0.310   1.338  0.3902  0.4222  0.8345
  593TIP3   OH2 1742   0.198   6.458   0.809 -0.0725 -0.3603  0.4874
  593TIP3    H1 1743   0.290   6.474   0.829 -0.3620 -0.3926  1.9579
  593TIP3    H2 1744   0.193   6.466   0.713  1.0454  1.6508  0.5412
  594TIP3   OH2 1745   6.519   0.750   2.822  0.4674  0.0335 -0.0482
  594TIP3    H1 1746   6.470   0.830   2.799 -2.2203 -1.6687 -0.7025
  594TIP3    H2 1747   6.458   0.700   2.877  0.3545 -3.3522 -2.9307
  595TIP3   OH2 1748   5.564   5.052   1.870 -0.2172 -0.0994 -0.0579
  595TIP3    H1 1749   5.486   4.997   1.875 -0.8872  0.8433  0.0424
  595TIP3    H2 1750   5.550   5.120   1.935  1.3928 -0.7617  1.0416
  596TIP3   OH2 1751   6.251   0.771   5.490  0.0842 -0.4371  0.3081
  596TIP3    H1 1752   6.274   0.704   5.425  0.4984  0.1022 -0.1123
  596TIP3    H2 1753   6.266   0.728   5.574 -1.7833 -1.6189  0.1003
  597TIP3   OH2 1754   1.966   3.163   4.892  0.4307  0.6274 -0.4541
  597TIP3    H1 1755   2.029   3.134   4.825  1.5235  1.7150  0.0663
  597TIP3    H2 1756   1.953   3.085   4.946  0.0087 -0.0916 -1.5369
  598TIP3   OH2 1757   0.114   0.867   0.633 -0.4452 -0.0356 -0.0336
  598TIP3    H1 1758   0.148   0.906   0.713 -0.2919  0.0362 -0.1334
  598TIP3    H2 1759   0.179   0.801   0.608  0.6172  1.4120 -1.2785
  599TIP3   OH2 1760   3.624   1.681   3.720 -0.1358  0.2994  0.2195
  599TIP3    H1 1761   3.538   1.682   3.763 -0.9096  0.4243 -1.2849
  599TIP3    H2 1762   3.620   1.605   3.662  0.7013  0.4366 -0.0230
  600TIP3   OH2 1763   6.929   2.775   0.400  0.5959 -0.3756 -0.0540
  600TIP3    H1 1764   7.002   2.834   0.419  0.6072 -0.4145  0.0228
  600TIP3    H2 1765   6.970   2.689   0.385  0.5336 -0.4818  0.3767
  601TIP3   OH2 1766   0.561   3.085   4.929  0.3152  0.0154 -0.1678
  601TIP3    H1 1767   0.623   3.021   4.963  0.2032 -0.4215 -0.7657
  601TIP3    H2 1768   0.477   3.060   4.968  0.8636  2.1769  2.7950
  602TIP3   OH2 1769   5.817   6.556   4.348  0.2511 -0.3664  0.7519
  602TIP3    H1 1770   5.835   6.515   4.433  2.0225  1.0301  1.1123
  602TIP3    H2 1771   5.890   6.527   4.292  0.0704  0.1580  0.2406
  603TIP3   OH2 1772   7.119   6.377   3.216  0.0863  0.5934 -0.0475
  603TIP3    H1 1773   7.136   6.307   3.153  0.5329 -1.0857  1.8635
  603TIP3    H2 1774   7.199   6.430   3.215  1.3019 -1.0960  1.1156
  604TIP3   OH2 1775   1.151   6.687   1.557  0.0194 -0.0665  0.4017
  604TIP3    H1 1776   1.086   6.726   1.499  2.1487  0.6794 -1.6199
  604TIP3    H2 1777   1.178   6.606   1.512  0.3405 -0.4791  1.3099
  605TIP3   OH2 1778   1.677   4.964   1.005 -0.4525 -0.6024 -0.0493
  605TIP3    H1 1779   1.767   4.948   1.034 -0.9721 -1.9521  0.9485
  605TIP3    H2 1780   1.665   4.903   0.932 -0.6382 -0.6396  0.0122
  606TIP3   OH2 1781   4.693   3.662   1.427  0.2340  0.5523 -0.1539
  606TIP3    H1 1782   4.738   3.743   1.401  0.2479  0.6285  0.1030
  606TIP3    H2 1783   4.660   3.625   1.345  1.1065  0.2944 -0.4007
  607TIP3   OH2 1784   5.068   1.806   2.795 -0.5028  0.0725 -0.3848
  607TIP3    H1 1785   5.086   1.734   2.855 -1.8592  0.5018  0.5736
  607TIP3    H2 1786   5.103   1.776   2.711  0.2967 -1.0638  0.3273
  608TIP3   OH2 1787   0.885   4.247   5.222 -0.3526  0.0932 -0.1284
  608TIP3    H1 1788   0.861   4.340   5.226 -1.7863 -0.2817  0.5553
  608TIP3    H2 1789   0.943   4.241   5.145  0.2781  1.6417  0.1702
  609TIP3   OH2 1790   0.008   3.948   1.831  0.4362  0.2089 -0.2106
  609TIP3    H1 1791   0.074   3.988   1.887  0.0498  1.5047 -0.6441
  609TIP3    H2 1792   0.000   4.008   1.756 -1.2179  0.0964 -0.1682
  610TIP3   OH2 1793   3.788   2.958   4.785  0.3812  0.2344 -0.0501
  610TIP3    H1 1794   3.746   2.946   4.700  0.6990  0.7794 -0.2906
  610TIP3    H2 1795   3.716   2.953   4.848  0.2781 -1.1991 -0.2558
  611TIP3   OH2 1796   5.367   0.962   5.794 -0.2308 -0.0042  0.0834
  611TIP3    H1 1797   5.405   0.885   5.751 -0.0530  0.8497 -1.3675
  611TIP3    H2 1798   5.296   0.990   5.736 -1.7150 -0.3103  1.6755
  612TIP3   OH2 1799   6.175   1.622   1.443  0.0529  0.3876 -0.2485
  612TIP3    H1 1800   6.087   1.595   1.469  0.4084 -0.9018 -0.2823
  612TIP3    H2 1801   6.172   1.717   1.443 -0.6571  0.4279  2.0929
  613TIP3   OH2 1802   6.114   2.856   4.426 -0.2449 -0.3382  0.1757
  613TIP3    H1 1803   6.033   2.822   4.465 -0.0387 -0.5345  0.4409
  613TIP3    H2 1804   6.087   2.893   4.343 -0.2672 -2.6635 -0.9463
  614TIP3   OH2 1805   4.921   0.965   5.431  0.2915  0.1136 -0.2055
  614TIP3    H1 1806   4.845   0.973   5.488 -0.0508 -0.2748 -0.6047
  614TIP3    H2 1807   4.904   1.026   5.359  0.2115 -0.1927 -0.4500
  615TIP3   OH2 1808   4.644   4.890   2.910 -0.1409  0.1658 -0.1287
  615TIP3    H1 1809   4.680   4.931   2.989 -0.0948 -1.4711  0.7630
  615TIP3    H2 1810   4.718   4.886   2.849  0.5801 -0.9037  0.7604
  616TIP3   OH2 1811   4.592   4.108   2.293 -0.9884  0.3272 -0.1248
  616TIP3    H1 1812   4.546   4.027   2.272 -1.0055  0.3206 -0.0595
  616TIP3    H2 1813   4.546   4.175   2.242 -2.3492  0.6568  1.4502
  617TIP3   OH2 1814   2.906   2.273   0.270 -0.0197 -0.1462 -0.0713
  617TIP3    H1 1815   2.931   2.359   0.236  0.8085 -0.7341 -1.0187
  617TIP3    H2 1816   2.896   2.286   0.364  0.6992  0.8618 -0.1218
  618TIP3   OH2 1817   1.194   2.128   0.777 -0.5879  0.1223 -0.1296
  618TIP3    H1 1818   1.284   2.148   0.802 -0.9005  0.6043  0.6644
  618TIP3    H2 1819   1.184   2.167   0.691  0.0443 -0.1738 -0.3408
  619TIP3   OH2 1820   1.150   1.288   4.284  0.0965 -0.1266  0.0788
  619TIP3    H1 1821   1.058   1.274   4.304  0.5254 -0.2100  2.1751
  619TIP3    H2 1822   1.187   1.200   4.281  0.2054 -0.0705 -0.3343
  620TIP3   OH2 1823   1.837   4.897   5.763 -0.3070  0.1610  0.4892
  620TIP3    H1 1824   1.868   4.848   5.687 -0.9093  0.6292 -0.0723
  620TIP3    H2 1825   1.865   4.845   5.838 -1.4140 -1.3679 -0.0929
  621TIP3   OH2 1826   4.183   0.080   2.738  0.3268  0.0685 -0.3376
  621TIP3    H1 1827   4.218   0.040   2.659  0.6020 -0.7276  0.1736
  621TIP3    H2 1828   4.249   0.145   2.764  0.4760 -0.0297 -0.4758
  622TIP3   OH2 1829   2.302   6.715   5.431 -0.0771 -0.1489  0.2305
  622TIP3    H1 1830   2.264   6.782   5.488  1.9814 -0.1882  1.7787
  622TIP3    H2 1831   2.284   6.632   5.477  2.0051 -0.1423  1.1818
  623TIP3   OH2 1832   4.106   2.609   0.721  0.8155  1.1082  0.5392
  623TIP3    H1 1833   4.112   2.548   0.647 -1.1436  0.5172  0.8126
  623TIP3    H2 1834   4.100   2.695   0.681  0.4174  0.8489  0.0356
  624TIP3   OH2 1835   0.889   2.330   4.686 -0.2681  0.1992 -0.1386
  624TIP3    H1 1836   0.967   2.314   4.739 -0.5200 -0.3650  0.0752
  624TIP3    H2 1837   0.881   2.425   4.682  0.0877  0.2529  0.3466
  625TIP3   OH2 1838   5.239   2.325   3.185  0.2910  0.2874  0.3953
  625TIP3    H1 1839   5.167   2.380   3.218 -1.0093 -2.6018  2.8221
  625TIP3    H2 1840   5.316   2.358   3.231  0.4757  2.7141 -1.4196
  626TIP3   OH2 1841   6.258   4.092   1.229  0.4873  0.0973  0.2500
  626TIP3    H1 1842   6.319   4.047   1.288 -0.6659  0.2676  1.6295
  626TIP3    H2 1843   6.180   4.106   1.282 -0.2998  1.0024 -1.0972
  627TIP3   OH2 1844   0.985   2.644   1.522  0.2978 -0.5293  0.1664
  627TIP3    H1 1845   0.935   2.582   1.469 -0.0054  0.2779 -0.5045
  627TIP3    H2 1846   0.934   2.652   1.603  0.2544 -1.0383  0.1895
  628TIP3   OH2 1847   1.037   4.280   3.362 -0.0835 -0.1867  0.0539
  628TIP3    H1 1848   0.964   4.342   3.363  0.2615  0.2976  2.5812
  628TIP3    H2 1849   1.007   4.207   3.417 -0.2917 -2.1287 -2.4548
  629TIP3   OH2 1850   6.638   6.192   1.899  0.9507 -0.6043  0.2456
  629TIP3    H1 1851   6.733   6.187   1.908  0.9296 -2.2306 -0.2421
  629TIP3    H2 1852   6.621   6.286   1.887  2.5738 -0.3783 -0.6050
  630TIP3   OH2 1853   4.914   6.227   5.830 -0.4940 -0.5088  0.0932
  630TIP3    H1 1854   4.887   6.243   5.921 -1.1948 -0.6328 -0.0871
  630TIP3    H2 1855   4.889   6.136   5.813 -0.6366 -0.3971 -0.3100
  631TIP3   OH2 1856   1.422   2.691   4.443  0.2606 -0.3121  0.5181
  631TIP3    H1 1857   1.329   2.702   4.423  0.5332 -0.3590 -0.8854
  631TIP3    H2 1858   1.430   2.715   4.535 -1.1470 -0.3581  0.6690
  632TIP3   OH2 1859   1.832   5.856   0.385 -0.1196 -0.2363 -0.2351
  632TIP3    H1 1860   1.902   5.822   0.440  0.9564 -0.7688 -1.8529
  632TIP3    H2 1861   1.776   5.780   0.369  0.2542 -0.3867 -0.8596
  633TIP3   OH2 1862   6.300   1.551   4.720 -0.2740  0.4694  0.2112
  633TIP3    H1 1863   6.350   1.510   4.649 -0.8975 -0.1751  0.1314
  633TIP3    H2 1864   6.227   1.491   4.735  0.2048  0.2372  1.8497
  634TIP3   OH2 1865   2.059   6.454   1.247 -0.2470  0.3928 -0.2092
  634TIP3    H1 1866   2.045   6.374   1.196  0.8049 -0.8946  1.4071
  634TIP3    H2 1867   2.112   6.510   1.190 -2.4233  0.7373 -2.0442
  635TIP3   OH2 1868   3.428   2.880   2.765 -0.8288  0.0612  0.2231
  635TIP3    H1 1869   3.460   2.952   2.820 -2.2858 -0.4910  1.8778
  635TIP3    H2 1870   3.360   2.838   2.817 -0.6064 -2.0178 -1.0567
  636TIP3   OH2 1871   7.035   4.207   0.994 -0.5385  0.6422  0.1396
  636TIP3    H1 1872   6.975   4.218   0.920 -0.9052 -0.0686  0.3135
  636TIP3    H2 1873   7.120   4.238   0.962 -0.2971 -1.1942 -1.1679
  637TIP3   OH2 1874   3.854   6.533   4.472 -0.2197  0.1156 -0.2383
  637TIP3    H1 1875   3.902   6.470   4.418 -2.3842 -1.7235 -0.2160
  637TIP3    H2 1876   3.810   6.590   4.409 -0.1623  0.0402 -0.3471
  638TIP3   OH2 1877   6.037   4.010   4.069  0.7584  0.5518 -0.6572
  638TIP3    H1 1878   6.124   4.028   4.034  2.0799 -0.1439  1.9733
  638TIP3    H2 1879   6.049   3.932   4.123 -2.0114 -0.8514 -1.8671
  639TIP3   OH2 1880   6.309   3.996   2.734  0.4659  0.3635 -0.0293
  639TIP3    H1 1881   6.311   4.038   2.648 -1.4875 -0.6712 -0.6237
  639TIP3    H2 1882   6.243   3.927   2.726 -1.2561  1.5096  2.8858
  640TIP3   OH2 1883   5.410   6.011   2.201 -0.0955  0.1423 -0.2799
  640TIP3    H1 1884   5.441   6.054   2.281  1.7066 -0.2269 -0.7140
  640TIP3    H2 1885   5.336   6.064   2.173  0.3648  1.3624  0.6714
  641TIP3   OH2 1886   3.888   3.751   3.455  0.0864 -0.0958 -0.4358
  641TIP3    H1 1887   3.933   3.733   3.373  0.1458  0.6706 -0.5815
  641TIP3    H2 1888   3.838   3.672   3.473  2.2195 -1.3564  0.2315
  642TIP3   OH2 1889   3.730   3.024   1.414  0.1320  0.1937 -0.1428
  642TIP3    H1 1890   3.770   3.098   1.369  1.9603 -1.0617 -0.6897
  642TIP3    H2 1891   3.770   2.947   1.374 -1.2400 -1.0892  0.8412
  643TIP3   OH2 1892   1.953   0.908   0.011  0.5752  0.1835 -0.8378
  643TIP3    H1 1893   1.862   0.878   0.002  0.3025  0.5343  0.5737
  643TIP3    H2 1894   1.965   0.921   0.105  1.8626  0.8605 -1.0752
  644TIP3   OH2 1895   5.242   0.996   3.888  0.6642 -0.1242 -0.3429
  644TIP3    H1 1896   5.273   0.929   3.949 -0.4768  0.8617  1.4237
  644TIP3    H2 1897   5.195   0.947   3.821 -1.6663 -1.0995  1.8291
  645TIP3   OH2 1898   1.517   1.314   4.818  0.4909 -0.6009 -0.2335
  645TIP3    H1 1899   1.582   1.280   4.880  1.3612 -1.0270 -1.3302
  645TIP3    H2 1900   1.433   1.304   4.862  1.2584  1.4940  1.9322
  646TIP3   OH2 1901   7.228   5.833   3.082  0.3641  0.4168 -0.2503
  646TIP3    H1 1902   7.139   5.836   3.047  0.0454  2.6837  0.5835
  646TIP3    H2 1903   7.231   5.905   3.145  2.2954 -0.6584  0.9799
  647TIP3   OH2 1904   5.695   3.764   1.441 -0.6221  0.0910  0.4242
  647TIP3    H1 1905   5.609   3.736   1.473 -0.2789 -0.6362  0.7504
  647TIP3    H2 1906   5.737   3.804   1.517 -0.8490  0.8953  0.1369
  648TIP3   OH2 1907   5.761   3.024   0.303  0.1005 -0.0453 -0.3943
  648TIP3    H1 1908   5.767   3.069   0.387 -0.4143 -0.0393 -0.3629
  648TIP3    H2 1909   5.816   3.077   0.244  0.6365 -0.1690 -0.0165
  649TIP3   OH2 1910   2.672   3.663   0.102  0.4395  0.7818  0.6955
  649TIP3    H1 1911   2.746   3.618   0.060  0.2022 -0.0546  1.1436
  649TIP3    H2 1912   2.705   3.687   0.189  0.0560 -0.0104  1.0745
  650TIP3   OH2 1913   2.843   0.279   1.653  0.5073  0.1746  0.5279
  650TIP3    H1 1914   2.762   0.329   1.638 -1.0495 -2.0530  0.8812
  650TIP3    H2 1915   2.867   0.299   1.743 -0.6939 -0.4774  1.0161
  651TIP3   OH2 1916   4.043   0.747   0.486 -0.1682 -0.1328 -0.1388
  651TIP3    H1 1917   4.020   0.751   0.579  0.8156  0.3838  0.0930
  651TIP3    H2 1918   4.062   0.654   0.470  1.4179  0.0228  0.6353
  652TIP3   OH2 1919   6.988   5.149   2.098  0.8028 -0.1814  0.0303
  652TIP3    H1 1920   6.977   5.224   2.157 -1.5769  0.5970 -1.2742
  652TIP3    H2 1921   6.940   5.078   2.141  2.4099 -0.8077  0.8864
  653TIP3   OH2 1922   2.892   5.075   2.699  0.0343 -0.0584 -0.0356
  653TIP3    H1 1923   2.984   5.094   2.720 -0.2923  0.2844  1.1906
  653TIP3    H2 1924   2.892   5.057   2.605  1.2411  0.6710 -0.1988
  654TIP3   OH2 1925   2.357   3.797   1.293 -0.1291  0.1498  0.7098
  654TIP3    H1 1926   2.349   3.848   1.374 -1.5600  0.4026  0.4312
  654TIP3    H2 1927   2.269   3.764   1.276  0.8461 -3.0770  1.2672
  655TIP3   OH2 1928   4.983   3.521   3.589 -0.9206 -0.6867  0.8226
  655TIP3    H1 1929   4.897   3.562   3.579 -1.2322 -1.5324 -0.1702
  655TIP3    H2 1930   4.966   3.441   3.637 -0.7177 -0.9248  0.5048
  656TIP3   OH2 1931   5.117   5.549   0.025 -0.3009  0.3267 -0.8321
  656TIP3    H1 1932   5.154   5.493   0.093 -0.5993  0.0514 -0.8967
  656TIP3    H2 1933   5.163   5.523  -0.055 -1.1719 -0.5533 -1.0590
  657TIP3   OH2 1934   3.584   2.526   3.030  0.1417  0.0057 -0.2530
  657TIP3    H1 1935   3.554   2.556   2.944 -0.9003 -2.1338 -0.6799
  657TIP3    H2 1936   3.677   2.549   3.031  0.3544 -0.5762 -2.2622
  658TIP3   OH2 1937   1.843   5.601   5.368  0.2106  0.2440 -0.1191
  658TIP3    H1 1938   1.754   5.626   5.343  0.1879 -0.2743 -0.5672
  658TIP3    H2 1939   1.847   5.619   5.462 -0.6028 -0.3978  0.0577
  659TIP3   OH2 1940   1.046   6.759   3.557  0.6571  0.6960  0.3600
  659TIP3    H1 1941   0.980   6.804   3.610  0.1368  2.2189 -1.4742
  659TIP3    H2 1942   1.034   6.666   3.579 -4.9257  0.2554 -2.6302
  660TIP3   OH2 1943   5.722   4.344   2.672  0.1224 -0.1544  0.2595
  660TIP3    H1 1944   5.718   4.368   2.764  0.6304  1.0340 -0.0011
  660TIP3    H2 1945   5.788   4.275   2.667  0.2244 -0.0915  0.7593
  661TIP3   OH2 1946   3.928   2.007   0.202  0.6199 -0.3121  0.0089
  661TIP3    H1 1947   3.897   2.084   0.153  1.9142  0.9741  1.1075
  661TIP3    H2 1948   3.852   1.949   0.206  0.0903  0.1247 -2.3281
  662TIP3   OH2 1949   6.420   6.310   4.204  0.3829  0.6636 -0.1333
  662TIP3    H1 1950   6.510   6.326   4.231 -0.0532  2.9311  0.1855
  662TIP3    H2 1951   6.380   6.397   4.199 -1.9384 -0.2920  0.2414
  663TIP3   OH2 1952   2.630   5.012   2.118 -0.1154  0.0781 -0.1761
  663TIP3    H1 1953   2.663   5.003   2.029  0.9129  0.9787  0.0870
  663TIP3    H2 1954   2.632   4.924   2.154  2.4698  0.1302 -0.0423
  664TIP3   OH2 1955   1.652   3.578   3.278  0.0255  0.1589 -0.0840
  664TIP3    H1 1956   1.578   3.607   3.333 -0.9129  0.0946 -1.2836
  664TIP3    H2 1957   1.704   3.522   3.336 -0.5875  0.6055  0.9338
  665TIP3   OH2 1958   6.555   4.573   5.062  0.5257  0.3407  0.5036
  665TIP3    H1 1959   6.467   4.570   5.099  0.6266 -0.3302  0.7063
  665TIP3    H2 1960   6.566   4.663   5.031  0.5272  0.9995  2.3177
  666TIP3   OH2 1961   1.687   4.578   5.623 -0.3295  0.2517  0.0574
  666TIP3    H1 1962   1.624   4.508   5.606 -0.4804  0.0741  1.2771
  666TIP3    H2 1963   1.723   4.557   5.709 -0.3257  1.6366  0.4142
  667TIP3   OH2 1964   1.402   0.958   2.696 -0.0045  0.1425  0.4130
  667TIP3    H1 1965   1.391   0.944   2.602 -2.1633  1.2943  0.4353
  667TIP3    H2 1966   1.496   0.949   2.711  0.3949  0.0094 -1.8664
  668TIP3   OH2 1967   6.757   6.122   3.009 -0.0469  0.1320  0.3405
  668TIP3    H1 1968   6.695   6.062   2.968 -1.3628  1.8391 -0.2713
  668TIP3    H2 1969   6.708   6.202   3.023  0.7476  0.1496  3.9829
  669TIP3   OH2 1970   0.479   1.632   0.018 -0.0001  0.1956  0.2443
  669TIP3    H1 1971   0.498   1.692   0.090  1.6669 -0.3107  0.2627
  669TIP3    H2 1972   0.503   1.545   0.052 -1.4726 -0.3825 -0.1106
  670TIP3   OH2 1973   0.868   3.232   2.000 -0.0066 -0.2761  0.2008
  670TIP3    H1 1974   0.924   3.168   2.044 -0.6274  0.7109  2.5580
  670TIP3    H2 1975   0.926   3.274   1.936  0.8433 -1.9751 -0.2118
  671TIP3   OH2 1976   2.681   3.986   2.229  0.0198  0.2864  0.4183
  671TIP3    H1 1977   2.599   3.936   2.227 -0.6630  1.4017 -0.5648
  671TIP3    H2 1978   2.734   3.948   2.159  0.6804 -0.9062  1.5024
  672TIP3   OH2 1979   0.405   3.970   0.676  0.1057  0.1460  0.5642
  672TIP3    H1 1980   0.482   3.958   0.621  0.1483  0.5262  0.5345
  672TIP3    H2 1981   0.353   3.891   0.663 -1.2657  1.3655 -2.2092
  673TIP3   OH2 1982   1.883   2.705   5.199 -0.3987  0.0428  0.0886
  673TIP3    H1 1983   1.872   2.706   5.294 -1.1019 -0.7584  0.0337
  673TIP3    H2 1984   1.892   2.612   5.177 -1.2644  0.1362 -0.7308
  674TIP3   OH2 1985   0.461   2.697   2.934  0.2861 -0.0957  0.1241
  674TIP3    H1 1986   0.395   2.651   2.985 -0.4425  0.4235 -0.3369
  674TIP3    H2 1987   0.475   2.780   2.981 -2.0813  1.4565 -1.6381
  675TIP3   OH2 1988   2.106   2.972   2.284 -0.4824  0.3672  0.2355
  675TIP3    H1 1989   2.019   2.938   2.263 -0.3004  0.0858 -0.0768
  675TIP3    H2 1990   2.123   3.038   2.217  0.7269 -1.5818 -1.5136
  676TIP3   OH2 1991   1.982   2.028   0.558 -0.2456  0.0504 -0.3560
  676TIP3    H1 1992   2.031   2.110   0.558 -1.7449  0.9951 -0.6152
  676TIP3    H2 1993   1.945   2.023   0.646  0.0790 -0.4839 -0.2545
  677TIP3   OH2 1994   2.312   6.045   2.842 -0.3060  0.2815  0.1938
  677TIP3    H1 1995   2.232   6.069   2.796 -0.7387  1.2263  1.3798
  677TIP3    H2 1996   2.326   5.953   2.821 -1.5368  0.1908 -0.2680
  678TIP3   OH2 1997   1.329   4.967   2.365  0.0051 -0.3275  0.3245
  678TIP3    H1 1998   1.298   5.031   2.300 -0.5376 -1.1269 -0.2264
  678TIP3    H2 1999   1.366   5.020   2.435  1.3027  0.5638 -0.9709
  679TIP3   OH2 2000   2.376   2.961   2.201  0.5577 -0.4805  0.2176
  679TIP3    H1 2001   2.417   3.036   2.243 -0.8727  1.1646 -1.1893
  679TIP3    H2 2002   2.300   2.941   2.256  1.6381 -1.8215  1.3234
  680TIP3   OH2 2003   6.769   2.172   0.304 -0.0545 -0.1346  0.3651
  680TIP3    H1 2004   6.739   2.261   0.285  0.7164 -0.2058 -1.4794
  680TIP3    H2 2005   6.762   2.163   0.399  3.0279  3.0939  1.1107
  681TIP3   OH2 2006   4.073   0.069   2.382  0.9085 -0.4251 -0.2875
  681TIP3    H1 2007   4.045   0.141   2.438 -1.5311 -0.3019 -1.5643
  681TIP3    H2 2008   4.054  -0.010   2.433  2.0092 -0.2550  0.4246
  682TIP3   OH2 2009   4.716   6.571   5.044 -0.0152  0.1427  0.5813
  682TIP3    H1 2010   4.713   6.645   4.984 -0.4275 -1.8733 -2.0595
  682TIP3    H2 2011   4.625   6.545   5.055  0.2632 -1.4938 -0.6365
  683TIP3   OH2 2012   4.970   3.635   5.180 -0.1903 -0.2673 -0.2821
  683TIP3    H1 2013   4.995   3.582   5.256 -0.0539 -0.9510 -0.7917
  683TIP3    H2 2014   4.957   3.571   5.110  0.9264  0.4426 -1.1706
  684TIP3   OH2 2015   3.826   5.798   3.980 -0.7230  0.2510 -0.6147
  684TIP3    H1 2016   3.736   5.765   3.976 -1.1381  1.4192 -1.5123
  684TIP3    H2 2017   3.827   5.855   4.057 -0.9421  0.7309 -0.9598
  685TIP3   OH2 2018   3.351   2.338   3.849  0.4862 -0.0880  0.8712
  685TIP3    H1 2019   3.342   2.287   3.769  0.0703  1.3601 -0.0541
  685TIP3    H2 2020   3.384   2.276   3.914  2.6656 -0.9109 -0.8833
  686TIP3   OH2 2021   7.004   4.798   1.741  0.4202  0.0971 -0.2821
  686TIP3    H1 2022   7.012   4.888   1.711 -1.8237  0.9236  1.3178
  686TIP3    H2 2023   7.058   4.795   1.820  2.0433 -0.5713 -1.3623
  687TIP3   OH2 2024   4.336   6.101   2.513 -0.4705  0.5931  0.0807
  687TIP3    H1 2025   4.426   6.103   2.480 -0.3324  0.0194  0.4168
  687TIP3    H2 2026   4.345   6.107   2.608 -0.8844  2.6391  0.0336
  688TIP3   OH2 2027   1.543   2.679   5.093  0.3173 -0.4988 -0.1929
  688TIP3    H1 2028   1.618   2.619   5.098  2.7423  2.3414  0.9218
  688TIP3    H2 2029   1.519   2.680   5.001  1.1409 -2.0420 -0.4607
  689TIP3   OH2 2030   3.542   0.742   4.688 -0.3831  0.1099 -0.2014
  689TIP3    H1 2031   3.470   0.803   4.701  0.7598  1.4202  0.2322
  689TIP3    H2 2032   3.613   0.777   4.742  0.9986 -0.3806 -1.6331
  690TIP3   OH2 2033   5.834   0.375   0.957  0.0367  0.0580 -0.1211
  690TIP3    H1 2034   5.881   0.359   0.875 -0.3151  0.3245 -0.3750
  690TIP3    H2 2035   5.780   0.452   0.939  0.8367  0.8387  0.7211
  691TIP3   OH2 2036   3.740   3.040   4.037  0.3660  0.0930  0.2022
  691TIP3    H1 2037   3.673   3.107   4.025 -0.0955 -0.3185  0.4459
  691TIP3    H2 2038   3.733   2.984   3.959  0.3237 -0.0326  0.2944
  692TIP3   OH2 2039   6.251   3.104   0.124 -0.1410  0.3329 -0.4079
  692TIP3    H1 2040   6.208   3.089   0.040 -1.9793  3.0833 -0.0841
  692TIP3    H2 2041   6.182   3.093   0.189  0.0944  2.6636  0.3225
  693TIP3   OH2 2042   2.275   6.721   1.685 -0.5314  0.0856  0.8582
  693TIP3    H1 2043   2.363   6.708   1.721 -0.6266  0.1871  1.1298
  693TIP3    H2 2044   2.275   6.811   1.655  0.4949 -0.7772 -2.0371
  694TIP3   OH2 2045   6.689   1.237   3.904  0.2057  0.0801 -0.1028
  694TIP3    H1 2046   6.710   1.311   3.848  2.7807 -0.3404  0.2039
  694TIP3    H2 2047   6.731   1.162   3.862 -1.3130 -1.0020  0.2389
  695TIP3   OH2 2048   2.569   4.559   5.067  0.4301 -0.0643 -0.1622
  695TIP3    H1 2049   2.663   4.570   5.078  0.6340 -0.2857 -1.4830
  695TIP3    H2 2050   2.555   4.566   4.972 -0.5945 -2.1930 -0.2173
  696TIP3   OH2 2051   4.326   4.727   1.669 -0.3609 -0.2443 -0.7436
  696TIP3    H1 2052   4.379   4.806   1.681 -1.2875  0.2784  0.0087
  696TIP3    H2 2053   4.242   4.748   1.709 -0.9270 -1.2975 -1.3344
  697TIP3   OH2 2054   6.707   6.135   1.281  0.0478 -0.3606  0.5194
  697TIP3    H1 2055   6.650   6.188   1.336  0.0451  0.0441  0.1354
  697TIP3    H2 2056   6.652   6.110   1.207  0.9837  2.0928 -1.1406
  698TIP3   OH2 2057   6.445   6.068   4.450 -0.1127 -0.0664 -0.5157
  698TIP3    H1 2058   6.351   6.053   4.444 -0.0832 -0.6801  0.4400
  698TIP3    H2 2059   6.484   5.994   4.404 -0.0886 -0.0918 -0.4548
  699TIP3   OH2 2060   1.598   4.796   0.818  0.8100  0.1021  0.6377
  699TIP3    H1 2061   1.538   4.844   0.762  0.8293  0.0917  0.6079
  699TIP3    H2 2062   1.595   4.706   0.784 -1.3609 -0.5912  2.3903
  700TIP3   OH2 2063   0.712   3.597   3.768  0.4361  0.4525 -0.0213
  700TIP3    H1 2064   0.782   3.657   3.794 -0.9354  0.9611  2.8447
  700TIP3    H2 2065   0.689   3.551   3.848 -1.6569 -0.6138 -1.1591
  701TIP3   OH2 2066   6.728   0.640   4.997 -0.2729 -0.4197  0.5461
  701TIP3    H1 2067   6.758   0.703   4.932  1.4044  0.5765  2.1960
  701TIP3    H2 2068   6.694   0.693   5.069 -1.5743 -1.4805  0.7639
  702TIP3   OH2 2069   3.732   1.889   1.624 -0.4601  0.1403 -0.5598
  702TIP3    H1 2070   3.769   1.842   1.699 -0.9030 -1.6112 -1.3857
  702TIP3    H2 2071   3.762   1.979   1.636 -0.2863 -0.1370  1.5571
  703TIP3   OH2 2072   0.326   6.337   1.205  0.1610 -0.3605  0.0358
  703TIP3    H1 2073   0.250   6.282   1.224 -0.0387  0.1498  0.7618
  703TIP3    H2 2074   0.351   6.314   1.115  0.3998 -2.0062  0.4872
  704TIP3   OH2 2075   1.529   5.427   4.410  0.7388 -0.0288  0.0695
  704TIP3    H1 2076   1.595   5.437   4.341  2.1018 -0.8795  1.2166
  704TIP3    H2 2077   1.453   5.390   4.365  0.4925  2.1815 -1.5375
  705TIP3   OH2 2078   2.324   3.164   5.164 -0.1417 -0.9276 -0.3822
  705TIP3    H1 2079   2.394   3.135   5.223 -0.3121 -0.3843  0.1065
  705TIP3    H2 2080   2.277   3.084   5.141 -0.4927 -1.0818  0.7865
  706TIP3   OH2 2081   3.318   4.994   4.989  0.3564  0.1779 -0.3418
  706TIP3    H1 2082   3.347   4.904   4.975  0.2080  0.2668 -1.2917
  706TIP3    H2 2083   3.331   5.010   5.083 -1.8223 -1.6173  0.3724
  707TIP3   OH2 2084   2.355   4.903   0.819  0.3973 -0.3900  0.7166
  707TIP3    H1 2085   2.354   4.949   0.735  3.6781 -1.4241 -0.0479
  707TIP3    H2 2086   2.266   4.911   0.852 -0.2610  2.6707 -1.3970
  708TIP3   OH2 2087   5.449   0.169   4.896  0.2908  0.0707  0.2054
  708TIP3    H1 2088   5.429   0.263   4.903  0.9978  0.2645 -0.2479
  708TIP3    H2 2089   5.535   0.160   4.937  0.2977 -0.3493  0.1027
  709TIP3   OH2 2090   2.539   5.804   4.877 -0.1420  0.4272 -0.1178
  709TIP3    H1 2091   2.513   5.895   4.882 -1.3300  0.0879  0.0681
  709TIP3    H2 2092   2.529   5.771   4.966 -0.8353 -0.1697 -0.4038
  710TIP3   OH2 2093   4.994   1.212   0.354  0.3359  0.7316  0.7762
  710TIP3    H1 2094   4.922   1.200   0.291 -0.6666  0.8214  1.8730
  710TIP3    H2 2095   4.993   1.306   0.373  1.2710  0.8700  0.2175
  711TIP3   OH2 2096   6.433   3.261   4.770  0.2945 -0.5187 -0.2432
  711TIP3    H1 2097   6.396   3.325   4.831  1.6232 -1.4717  1.6758
  711TIP3    H2 2098   6.414   3.296   4.684 -1.7282  0.8773  0.7039
  712TIP3   OH2 2099   5.223   1.673   4.515  0.0417 -0.2356 -0.0193
  712TIP3    H1 2100   5.231   1.582   4.543  1.3250  0.2726  1.3991
  712TIP3    H2 2101   5.274   1.722   4.580  1.8247  1.1954 -2.3432
  713TIP3   OH2 2102   6.739   5.571   1.501 -0.0719 -0.2388  0.4887
  713TIP3    H1 2103   6.696   5.656   1.492 -0.8821 -0.5955  0.8275
  713TIP3    H2 2104   6.828   5.584   1.469 -1.3646 -0.2881 -3.6249
  714TIP3   OH2 2105   2.646   4.867   5.242 -0.2252 -0.1917 -0.0988
  714TIP3    H1 2106   2.555   4.843   5.260 -0.4272  0.2856 -0.4697
  714TIP3    H2 2107   2.689   4.861   5.327 -0.8724  0.7469  0.3141
  715TIP3   OH2 2108   5.149   2.075   1.846 -0.0835  0.4559 -0.1361
  715TIP3    H1 2109   5.080   2.104   1.905 -0.6542  1.6023 -1.3247
  715TIP3    H2 2110   5.171   2.153   1.794 -0.2005 -0.7098 -2.0189
  716TIP3   OH2 2111   5.057   5.213   1.055 -0.5044 -0.6627 -0.3890
  716TIP3    H1 2112   5.058   5.121   1.029 -1.6390 -0.1972 -2.2537
  716TIP3    H2 2113   5.010   5.257   0.985  1.3439  1.5921 -0.3379
  717TIP3   OH2 2114   6.784   6.226   2.302  0.3541 -0.3411 -0.4469
  717TIP3    H1 2115   6.733   6.304   2.324  1.4156  0.1552  0.3693
  717TIP3    H2 2116   6.723   6.154   2.313  0.0464  0.1489  1.5079
  718TIP3   OH2 2117   0.832   1.764   2.087 -0.0357 -0.2582 -0.3621
  718TIP3    H1 2118   0.865   1.751   1.998  0.3621 -3.1812  0.1181
  718TIP3    H2 2119   0.882   1.703   2.141 -2.1043 -0.4883  1.4281
  719TIP3   OH2 2120   0.439   3.978   2.493 -0.8736 -0.3163 -0.1928
  719TIP3    H1 2121   0.532   3.954   2.499 -1.1244 -2.2121 -2.2654
  719TIP3    H2 2122   0.439   4.073   2.486  0.9474 -0.2892 -0.4151
  720TIP3   OH2 2123   2.947   5.159   1.963  0.3130  0.3038  0.0581
  720TIP3    H1 2124   3.038   5.176   1.940  0.4765 -0.7406 -0.0958
  720TIP3    H2 2125   2.938   5.064   1.959 -0.7372  0.3809  0.2521
  721TIP3   OH2 2126   1.030   2.332   4.244  0.4856  0.0482  0.6933
  721TIP3    H1 2127   0.977   2.379   4.180  1.3142 -0.3458 -0.3049
  721TIP3    H2 2128   1.030   2.388   4.322 -1.7729 -0.1514  0.9046
  722TIP3   OH2 2129   0.761   3.762   2.135  0.1220  1.0334 -0.0578
  722TIP3    H1 2130   0.804   3.740   2.217  1.4115  1.4039 -0.6064
  722TIP3    H2 2131   0.681   3.808   2.161 -0.2064 -0.0750  0.9957
  723TIP3   OH2 2132   6.349   3.653   1.697  0.8429 -0.8518 -0.1794
  723TIP3    H1 2133   6.324   3.642   1.788 -0.0814 -1.8574 -0.5286
  723TIP3    H2 2134   6.359   3.563   1.663  0.8243 -0.5058 -1.1510
  724TIP3   OH2 2135   4.660   3.563   5.229 -0.2323 -0.4702 -0.1994
  724TIP3    H1 2136   4.633   3.644   5.271 -0.9852 -0.0787 -1.4020
  724TIP3    H2 2137   4.752   3.576   5.208 -0.2287 -0.1184  0.0315
  725TIP3   OH2 2138   0.383   4.773   4.718  0.1222  0.2525  0.0778
  725TIP3    H1 2139   0.357   4.768   4.626 -0.6492 -0.2861  0.3140
  725TIP3    H2 2140   0.309   4.736   4.766 -0.3237  2.2645  1.0541
  726TIP3   OH2 2141   1.545   2.157   5.355 -0.6322 -0.9467  0.3003
  726TIP3    H1 2142   1.513   2.236   5.400  0.5391  0.2631 -0.8753
  726TIP3    H2 2143   1.627   2.136   5.399  0.4653  0.1805 -1.0916
  727TIP3   OH2 2144   3.310   0.050   4.559  0.0741  0.3542  0.4338
  727TIP3    H1 2145   3.322   0.127   4.614 -0.2811  1.3373 -0.8219
  727TIP3    H2 2146   3.299  -0.022   4.621 -0.9012  1.5080  1.6618
  728TIP3   OH2 2147   3.023   2.007   1.767  0.4005 -0.0155 -0.0074
  728TIP3    H1 2148   3.039   1.945   1.695  0.5412  2.3274 -2.1101
  728TIP3    H2 2149   3.106   2.053   1.778  0.2178  0.0150  1.3213
  729TIP3   OH2 2150   1.781   4.577   3.778  0.0420  0.8673  0.2848
  729TIP3    H1 2151   1.756   4.625   3.699  2.9560  1.5739 -0.3050
  729TIP3    H2 2152   1.857   4.525   3.752 -0.8439 -1.4027  1.8581
  730TIP3   OH2 2153   2.547   2.198   4.941 -0.9514 -0.3195 -0.4023
  730TIP3    H1 2154   2.495   2.278   4.934  2.0181  1.9816  1.4517
  730TIP3    H2 2155   2.593   2.193   4.857 -0.3432  0.5734 -0.1379
  731TIP3   OH2 2156   1.214   4.413   2.732 -0.0067 -0.0869  0.3676
  731TIP3    H1 2157   1.304   4.443   2.723  0.3682 -0.8497  1.3244
  731TIP3    H2 2158   1.164   4.491   2.756  0.5843  0.1613  0.8115
  732TIP3   OH2 2159   2.143   2.896   1.867 -0.2660 -0.0968  0.0340
  732TIP3    H1 2160   2.174   2.905   1.777  0.0708 -0.4959  0.1081
  732TIP3    H2 2161   2.167   2.807   1.892  0.5880  0.3527  0.8800
  733TIP3   OH2 2162   2.766   5.757   1.958  0.3750 -0.6987  0.1770
  733TIP3    H1 2163   2.805   5.832   1.914  1.2751 -1.4110 -0.2631
  733TIP3    H2 2164   2.737   5.791   2.043 -1.6078  0.7544 -0.9965
  734TIP3   OH2 2165   6.403   5.573   3.207 -0.3014 -0.2239  0.0223
  734TIP3    H1 2166   6.391   5.581   3.113 -1.2595 -1.0321  0.0509
  734TIP3    H2 2167   6.433   5.483   3.220  0.2554  0.0165  0.4627
  735TIP3   OH2 2168   3.983   0.274   2.862 -0.5432 -0.0143  0.0668
  735TIP3    H1 2169   4.032   0.217   2.803  1.2947  1.7161 -0.1893
  735TIP3    H2 2170   3.997   0.236   2.949  0.1133 -0.3182 -0.1654
  736TIP3   OH2 2171   4.852   3.818   4.624  0.0505 -0.5144 -0.2136
  736TIP3    H1 2172   4.776   3.873   4.607  0.8313  0.4773 -0.6199
  736TIP3    H2 2173   4.855   3.758   4.550 -0.6846 -0.9729  0.1201
  737TIP3   OH2 2174   0.277   6.193   0.113 -0.8445 -0.1257  0.0127
  737TIP3    H1 2175   0.245   6.213   0.025  0.3776 -0.2396 -0.4869
  737TIP3    H2 2176   0.289   6.098   0.113 -1.0387 -0.1508  0.3796
  738TIP3   OH2 2177   0.523   5.292   1.028 -0.4166  0.0997  0.2879
  738TIP3    H1 2178   0.494   5.256   1.112  0.6996 -0.6232  0.3828
  738TIP3    H2 2179   0.464   5.252   0.964 -1.8996  1.3970  0.7924
  739TIP3   OH2 2180   6.881   0.577   5.297  0.2913  0.4873 -0.9991
  739TIP3    H1 2181   6.818   0.515   5.334  0.6243  0.9146  0.3550
  739TIP3    H2 2182   6.828   0.645   5.256 -0.1186  0.5909 -0.3013
  740TIP3   OH2 2183   1.643   1.918   3.545  0.2143 -0.4044 -0.4059
  740TIP3    H1 2184   1.664   2.010   3.561  1.1940 -0.6098 -0.4549
  740TIP3    H2 2185   1.705   1.889   3.479 -0.6997 -0.8651 -1.0957
  741TIP3   OH2 2186   3.762   3.911   4.534  0.3569 -0.3092  0.0125
  741TIP3    H1 2187   3.779   3.949   4.620  0.3791 -0.6884  0.1770
  741TIP3    H2 2188   3.705   3.836   4.552  0.2196 -0.2859 -0.3229
  742TIP3   OH2 2189   1.683   1.562   3.777  0.2070  0.6481 -0.2719
  742TIP3    H1 2190   1.657   1.611   3.855 -1.4732 -2.0928  1.0465
  742TIP3    H2 2191   1.623   1.592   3.709 -0.2410  0.9972  0.2694
  743TIP3   OH2 2192   2.129   0.352   0.294 -0.4447  0.8151  0.4262
  743TIP3    H1 2193   2.170   0.363   0.380  1.2671 -1.1180 -0.0514
  743TIP3    H2 2194   2.176   0.279   0.254 -0.0544  2.6635 -2.8536
  744TIP3   OH2 2195   6.052   1.076   2.005 -0.8222  0.9851 -0.0694
  744TIP3    H1 2196   6.091   1.016   1.942  2.8491  2.1199  0.8527
  744TIP3    H2 2197   6.020   1.020   2.076 -1.7121 -0.0719 -1.2672
  745TIP3   OH2 2198   5.254   0.258   2.682  0.4602  0.5679 -0.0003
  745TIP3    H1 2199   5.328   0.201   2.661  1.0121  1.0640  0.5803
  745TIP3    H2 2200   5.194   0.202   2.731 -1.3201 -0.9331 -3.5015
  746TIP3   OH2 2201   0.099   5.946   4.409  0.0530  0.3869  1.0364
  746TIP3    H1 2202   0.079   5.900   4.490 -1.4246  1.0930  1.1000
  746TIP3    H2 2203   0.026   5.925   4.351  0.1664  1.3407  0.5222
  747TIP3   OH2 2204   1.612   2.819   2.499  0.5950  0.2791 -0.0067
  747TIP3    H1 2205   1.706   2.822   2.478  0.7275  0.8751  0.6655
  747TIP3    H2 2206   1.573   2.772   2.424  1.4793 -0.3675 -0.0849
  748TIP3   OH2 2207   4.314   0.164   1.871  0.4470 -0.2512  0.6684
  748TIP3    H1 2208   4.304   0.222   1.795 -1.9706  0.9776  1.8145
  748TIP3    H2 2209   4.406   0.172   1.895  0.8711  0.6470 -1.1231
  749TIP3   OH2 2210   4.070   0.590   1.966  0.3141  0.2483  0.8092
  749TIP3    H1 2211   4.085   0.684   1.960  2.3871  0.1615  3.1869
  749TIP3    H2 2212   4.018   0.579   2.045  1.8713 -0.7077  1.7384
  750TIP3   OH2 2213   3.225   0.087   3.681  0.3591 -0.0061 -0.4614
  750TIP3    H1 2214   3.171   0.147   3.630 -0.4431 -0.6881 -0.4423
  750TIP3    H2 2215   3.244   0.135   3.761 -0.3102  0.2138 -0.4236
  751TIP3   OH2 2216   6.438   1.145   4.029  0.3431  0.4246 -0.3187
  751TIP3    H1 2217   6.507   1.166   3.967  0.4665  2.0114  0.3038
  751TIP3    H2 2218   6.378   1.219   4.025 -0.0801  0.1720  0.8447
  752TIP3   OH2 2219   0.958   3.106   5.792  0.5962  0.0379  0.3102
  752TIP3    H1 2220   0.899   3.032   5.806 -1.8838  1.5251 -1.4129
  752TIP3    H2 2221   1.015   3.079   5.720  1.7831 -1.2338  1.6665
  753TIP3   OH2 2222   1.131   0.431   5.710 -0.0340 -0.3669  0.8184
  753TIP3    H1 2223   1.168   0.365   5.769 -0.4813 -0.5166  0.9401
  753TIP3    H2 2224   1.199   0.446   5.644  0.1806 -0.7441  0.9510
  754TIP3   OH2 2225   5.229   3.239   4.710 -0.8877  0.4543 -0.0026
  754TIP3    H1 2226   5.245   3.189   4.630 -1.4573 -0.5252  0.4743
  754TIP3    H2 2227   5.145   3.282   4.693 -1.1777 -0.0241  0.1827
  755TIP3   OH2 2228   5.053   3.871   2.434 -0.0920  0.7129 -0.2229
  755TIP3    H1 2229   5.009   3.927   2.498 -1.7761  0.4368 -1.1047
  755TIP3    H2 2230   4.998   3.873   2.357  0.1877 -1.5280 -0.5630
  756TIP3   OH2 2231   4.465   5.458   2.087 -0.6257 -0.0779  0.0044
  756TIP3    H1 2232   4.478   5.364   2.099  1.4063  0.1274 -0.2902
  756TIP3    H2 2233   4.514   5.498   2.160  2.6998  0.8391 -2.4903
  757TIP3   OH2 2234   5.550   4.348   2.465 -0.1669  0.0985  0.6297
  757TIP3    H1 2235   5.478   4.402   2.497  0.0137  1.0727 -0.5600
  757TIP3    H2 2236   5.613   4.347   2.537 -0.0709  1.6908  0.5921
  758TIP3   OH2 2237   3.212   5.834   2.042  0.3197  0.4334 -0.2149
  758TIP3    H1 2238   3.281   5.878   2.092  0.1873  0.5682 -0.1513
  758TIP3    H2 2239   3.144   5.816   2.107 -0.6646  2.2531 -0.6747
  759TIP3   OH2 2240   0.493   3.832   5.627  0.4083  0.3290  0.0588
  759TIP3    H1 2241   0.427   3.881   5.675  0.0199 -0.7519  0.6798
  759TIP3    H2 2242   0.454   3.817   5.541 -0.1908 -0.3362  0.4362
  760TIP3   OH2 2243   4.313   5.031   5.060  0.1197  0.7992 -0.1334
  760TIP3    H1 2244   4.294   5.095   5.129  0.1028 -0.1058  0.7282
  760TIP3    H2 2245   4.279   4.948   5.095  1.5555  0.0158 -0.5286
  761TIP3   OH2 2246   0.590   6.209   5.068  0.6484  0.4094 -0.5053
  761TIP3    H1 2247   0.603   6.178   5.158 -0.0301  0.4801 -0.3752
  761TIP3    H2 2248   0.546   6.294   5.079 -1.1519 -0.4133 -0.9134
  762TIP3   OH2 2249   3.447   2.902   5.339 -0.2604 -0.1661  0.3025
  762TIP3    H1 2250   3.446   2.922   5.246  0.7925  0.5193  0.4143
  762TIP3    H2 2251   3.443   2.988   5.382  2.7530 -0.1617  0.8155
  763TIP3   OH2 2252   0.934   1.095   3.070 -0.1442  0.6216  0.4477
  763TIP3    H1 2253   0.945   1.180   3.113 -2.3009  1.1110  0.1794
  763TIP3    H2 2254   0.902   1.038   3.139 -0.1224  0.4286  0.2974
  764TIP3   OH2 2255   4.132   4.306   4.127 -0.1203  0.8933  0.3623
  764TIP3    H1 2256   4.075   4.244   4.172  0.7250 -0.6040 -0.5281
  764TIP3    H2 2257   4.109   4.297   4.035  0.2315  1.6844  0.1916
  765TIP3   OH2 2258   6.300   5.104   0.650  0.3863  0.0606  0.5910
  765TIP3    H1 2259   6.302   5.026   0.704  0.1950 -0.9841 -0.8337
  765TIP3    H2 2260   6.391   5.121   0.628  0.4526  0.4122  1.1238
  766TIP3   OH2 2261   7.074   1.469  -0.015 -0.0732 -0.2042 -0.6638
  766TIP3    H1 2262   7.081   1.478   0.080  3.2813  1.3449 -0.8984
  766TIP3    H2 2263   7.075   1.375  -0.030 -0.2508 -0.4720  0.8143
  767TIP3   OH2 2264   2.768   3.668   5.411  0.0477 -0.3633  0.4559
  767TIP3    H1 2265   2.840   3.731   5.415 -0.0093 -0.3026  0.5312
  767TIP3    H2 2266   2.777   3.616   5.490  0.8637 -1.2998 -0.2235
  768TIP3   OH2 2267   1.614   5.723   0.955  0.0015 -0.8453  0.1836
  768TIP3    H1 2268   1.637   5.800   0.903 -0.7923 -1.0329 -0.4615
  768TIP3    H2 2269   1.685   5.661   0.938  1.3249  0.1648  1.7012
  769TIP3   OH2 2270   4.757   0.429   0.381  0.2322  0.4085 -0.0086
  769TIP3    H1 2271   4.831   0.426   0.321 -0.5741 -0.2530 -1.0095
  769TIP3    H2 2272   4.768   0.353   0.438  0.1348  0.1145 -0.3836
  770TIP3   OH2 2273   5.950   4.878   5.611 -0.0929 -0.6085  0.0452
  770TIP3    H1 2274   5.871   4.857   5.660  1.3767 -0.6653  2.5549
  770TIP3    H2 2275   5.946   4.820   5.534 -1.5859 -1.9323  1.0505
  771TIP3   OH2 2276   6.917   2.649   3.767  0.4550 -0.4040  0.3295
  771TIP3    H1 2277   6.914   2.556   3.746  0.1329 -1.1920  3.4961
  771TIP3    H2 2278   6.835   2.684   3.732  0.1243 -1.4960 -0.0263
  772TIP3   OH2 2279   5.069   6.678   1.833  0.0683  0.3363  0.1047
  772TIP3    H1 2280   4.980   6.711   1.839  0.2595  0.9754 -0.4542
  772TIP3    H2 2281   5.118   6.729   1.898  0.5118  1.7097 -1.2494
  773TIP3   OH2 2282   4.015   6.587   1.172  0.2534 -0.0151 -0.4112
  773TIP3    H1 2283   3.989   6.503   1.134 -1.8775  0.5295 -0.2722
  773TIP3    H2 2284   4.072   6.564   1.245 -0.5626 -1.3700 -0.1613
  774TIP3   OH2 2285   1.765   5.105   3.685 -0.0343 -0.1387 -0.2274
  774TIP3    H1 2286   1.774   5.019   3.728  0.1794  0.8143  1.7592
  774TIP3    H2 2287   1.853   5.125   3.654  0.2300 -0.0574  0.5388
  775TIP3   OH2 2288   3.090   3.513   3.787 -0.1330  0.2959  0.0071
  775TIP3    H1 2289   3.151   3.468   3.845 -0.0061 -0.4673 -0.7025
  775TIP3    H2 2290   3.142   3.583   3.747  0.1215  0.0229 -0.1446
  776TIP3   OH2 2291   3.302   5.801   0.069 -0.0863  0.6827  0.4036
  776TIP3    H1 2292   3.252   5.880   0.046 -1.3919  0.7171  3.0143
  776TIP3    H2 2293   3.348   5.824   0.149  2.0007 -0.2767 -0.4500
  777TIP3   OH2 2294   7.155   4.183   3.583 -0.4398 -0.0618  0.0235
  777TIP3    H1 2295   7.179   4.177   3.675  0.3047 -0.1359 -0.1734
  777TIP3    H2 2296   7.062   4.159   3.581 -0.0826 -1.6515  0.5588
  778TIP3   OH2 2297   3.711   3.675   4.262  0.3470 -0.5173 -0.3403
  778TIP3    H1 2298   3.795   3.638   4.290  0.1774 -1.1877 -0.6999
  778TIP3    H2 2299   3.683   3.619   4.190 -1.4878 -1.6521  1.1875
  779TIP3   OH2 2300   0.241   6.762   1.512 -0.1815 -0.7937  0.3300
  779TIP3    H1 2301   0.185   6.692   1.478 -2.3989  1.0851 -0.1706
  779TIP3    H2 2302   0.231   6.757   1.607 -0.8602 -0.7694  0.2656
  780TIP3   OH2 2303   0.867   2.515   4.089 -0.2662  0.0135 -0.6088
  780TIP3    H1 2304   0.799   2.579   4.064 -0.9869 -0.5629 -0.1635
  780TIP3    H2 2305   0.941   2.536   4.032 -0.2206  1.7036  0.0079
  781TIP3   OH2 2306   1.556   4.538   0.404  0.1163  0.7028  0.0207
  781TIP3    H1 2307   1.462   4.523   0.391  0.2677  0.7157 -1.1488
  781TIP3    H2 2308   1.598   4.462   0.363  0.6430  1.0886 -0.1526
  782TIP3   OH2 2309   1.881   0.352   5.470 -0.1488 -0.5431  0.0018
  782TIP3    H1 2310   1.846   0.406   5.399  0.1364 -0.0956  0.1934
  782TIP3    H2 2311   1.895   0.266   5.431 -0.6585 -0.4932 -0.2949
  783TIP3   OH2 2312   0.112   5.166   5.185 -0.2448  0.2123 -0.8670
  783TIP3    H1 2313   0.081   5.135   5.270  0.3327 -0.0039 -0.7345
  783TIP3    H2 2314   0.191   5.216   5.204  0.4235 -0.6243 -1.3564
  784TIP3   OH2 2315   1.828   5.227   1.891  0.4553  0.2840 -0.3566
  784TIP3    H1 2316   1.835   5.164   1.819  1.3827 -0.5391  0.4123
  784TIP3    H2 2317   1.914   5.269   1.894 -0.4083  2.2871 -1.4173
  785TIP3   OH2 2318   6.864   6.222   2.717  0.2965  0.3224 -0.2246
  785TIP3    H1 2319   6.871   6.156   2.649  0.3053  0.4411 -0.3381
  785TIP3    H2 2320   6.770   6.231   2.733  0.2072  1.3329 -1.2332
  786TIP3   OH2 2321   5.861   6.562   1.908  0.0741  0.1007  0.4327
  786TIP3    H1 2322   5.798   6.633   1.892  0.0323  0.3534  1.6103
  786TIP3    H2 2323   5.807   6.489   1.939  0.3661  0.4507  1.8509
  787TIP3   OH2 2324   2.766   4.854   2.843 -0.5600  0.3324 -0.0416
  787TIP3    H1 2325   2.749   4.918   2.774 -1.1730 -0.8348 -1.0045
  787TIP3    H2 2326   2.704   4.784   2.827 -0.3931 -0.1895  1.4344
  788TIP3   OH2 2327   7.169   1.457   2.318  0.2854  0.6494  0.3203
  788TIP3    H1 2328   7.234   1.509   2.365  0.3203 -0.5995  1.7192
  788TIP3    H2 2329   7.085   1.489   2.348  0.2878  0.6617  0.3139
  789TIP3   OH2 2330   6.481   5.466   4.242 -0.6214  0.1083  0.5040
  789TIP3    H1 2331   6.388   5.476   4.219 -0.3123  1.4848 -0.2834
  789TIP3    H2 2332   6.480   5.436   4.332 -1.8438 -0.5010  0.3167
  790TIP3   OH2 2333   2.813   4.389   5.520 -0.3185  0.2792 -0.2731
  790TIP3    H1 2334   2.814   4.421   5.430 -0.8387 -0.7836 -0.6810
  790TIP3    H2 2335   2.903   4.401   5.552  0.0823 -0.1467 -1.2308
  791TIP3   OH2 2336   5.998   5.530   4.373 -0.2767  0.1823 -0.0126
  791TIP3    H1 2337   5.931   5.464   4.357 -0.1964  0.4259 -1.5300
  791TIP3    H2 2338   6.009   5.531   4.468 -2.2267 -0.0537  0.2618
  792TIP3   OH2 2339   4.183   0.194   4.204  0.3957  0.0235 -0.4286
  792TIP3    H1 2340   4.106   0.249   4.187 -0.8457 -1.4868  0.1158
  792TIP3    H2 2341   4.189   0.138   4.127  0.2573 -0.6299  0.0326
  793TIP3   OH2 2342   6.746   0.511   3.499 -0.0980 -0.2002 -0.1194
  793TIP3    H1 2343   6.720   0.566   3.424  0.1000  0.6620  0.4279
  793TIP3    H2 2344   6.708   0.425   3.480 -0.7799  0.2376 -0.7981
  794TIP3   OH2 2345   1.444   0.345   2.367  0.0941 -0.1078  0.0423
  794TIP3    H1 2346   1.533   0.377   2.386 -0.2173  0.6102  0.3037
  794TIP3    H2 2347   1.392   0.375   2.441 -0.6309  0.5996 -0.7328
  795TIP3   OH2 2348   3.805   6.207   2.856  0.0664  0.5809  0.1460
  795TIP3    H1 2349   3.874   6.143   2.839  1.3130  1.8827  0.0892
  795TIP3    H2 2350   3.822   6.278   2.794  0.2460  2.0801  1.8309
  796TIP3   OH2 2351   4.025   3.973   0.061  0.2436 -0.0977 -0.3272
  796TIP3    H1 2352   3.992   4.036   0.124  1.9318  0.6331 -0.1198
  796TIP3    H2 2353   4.097   4.019   0.016  0.9576 -1.5658 -0.7658
  797TIP3   OH2 2354   6.831   5.989   2.572 -0.5475  0.0914  0.3681
  797TIP3    H1 2355   6.753   5.935   2.567 -0.4797  0.0517 -0.2927
  797TIP3    H2 2356   6.851   6.013   2.481 -0.0822  0.5122  0.5724
  798TIP3   OH2 2357   3.446   0.814   5.171 -0.1518  0.6556 -0.3528
  798TIP3    H1 2358   3.383   0.855   5.112  0.8538 -0.0287 -1.9705
  798TIP3    H2 2359   3.439   0.720   5.151 -0.1798  0.3383  1.0412
  799TIP3   OH2 2360   2.418   3.504   0.159  0.1937 -0.2131  0.4165
  799TIP3    H1 2361   2.492   3.552   0.122 -1.3373  1.8857 -0.0957
  799TIP3    H2 2362   2.458   3.429   0.203  2.4159 -0.5385 -1.9295
  800TIP3   OH2 2363   6.657   4.612   1.314  0.4660  0.3445 -0.0708
  800TIP3    H1 2364   6.662   4.524   1.278 -1.5048  0.4941 -0.8853
  800TIP3    H2 2365   6.668   4.600   1.408 -1.3274 -1.0465  0.0362
  801TIP3   OH2 2366   2.042   5.405   5.579  0.1350 -0.1572  0.5763
  801TIP3    H1 2367   1.989   5.430   5.655 -0.0226 -1.0529  0.7762
  801TIP3    H2 2368   2.038   5.309   5.578  2.6168 -0.3137  1.1978
  802TIP3   OH2 2369   1.932   6.414   3.036 -0.1344 -0.2154 -0.0276
  802TIP3    H1 2370   1.959   6.506   3.039 -0.6672 -0.0339 -0.6153
  802TIP3    H2 2371   1.914   6.391   3.127 -0.7239  0.4907  0.0410
  803TIP3   OH2 2372   1.186   4.210   2.368  0.0298 -0.0962 -0.3750
  803TIP3    H1 2373   1.142   4.142   2.317 -2.3746  0.7878  0.3539
  803TIP3    H2 2374   1.266   4.169   2.400 -0.8260 -2.2289 -0.8164
  804TIP3   OH2 2375   0.443   5.894   1.753  0.0306  0.3743 -0.1433
  804TIP3    H1 2376   0.530   5.857   1.768 -0.5137 -2.5293 -3.0017
  804TIP3    H2 2377   0.402   5.895   1.840  1.7045 -1.6821  0.7577
  805TIP3   OH2 2378   5.695   3.565   2.849 -0.4544 -0.3493  0.1678
  805TIP3    H1 2379   5.774   3.594   2.803 -0.8960  1.4704  0.4819
  805TIP3    H2 2380   5.627   3.562   2.781 -0.9699  1.7882  0.5006
  806TIP3   OH2 2381   2.444   0.308   1.196  0.0659  0.5974  0.2760
  806TIP3    H1 2382   2.473   0.399   1.182 -0.9914  1.0280  0.7868
  806TIP3    H2 2383   2.521   0.264   1.232  0.5489  1.3247  0.1652
  807TIP3   OH2 2384   0.762   2.897   3.001  0.2845 -0.6055  0.5053
  807TIP3    H1 2385   0.803   2.975   2.964 -0.0642  0.1716  1.7012
  807TIP3    H2 2386   0.765   2.832   2.930  0.3076  0.5821 -0.6212
  808TIP3   OH2 2387   1.457   4.472   2.456 -0.2688  0.2278  0.0002
  808TIP3    H1 2388   1.365   4.452   2.474 -0.4137  1.4040  0.6691
  808TIP3    H2 2389   1.461   4.482   2.361 -1.0001  0.9130  0.0309
  809TIP3   OH2 2390   4.449   4.536   4.069 -0.0843  0.0542  0.0426
  809TIP3    H1 2391   4.448   4.592   3.992 -0.3813  0.7569  0.5475
  809TIP3    H2 2392   4.540   4.536   4.098  0.0606 -0.3432 -0.3922
  810TIP3   OH2 2393   0.635   1.790   1.547  0.2256 -0.7572  0.3029
  810TIP3    H1 2394   0.694   1.841   1.603  0.6496 -0.6094 -0.2652
  810TIP3    H2 2395   0.651   1.824   1.459 -1.3549 -0.1140  0.2415
  811TIP3   OH2 2396   6.988   0.457   0.567  0.4814  0.0263  0.0495
  811TIP3    H1 2397   6.943   0.471   0.484 -1.2649 -0.6097  0.8369
  811TIP3    H2 2398   6.974   0.539   0.616 -2.5099 -1.1309  1.4190
  812TIP3   OH2 2399   3.356   1.901   0.558  0.2120 -0.2658  0.1678
  812TIP3    H1 2400   3.337   1.985   0.601  0.9947 -0.5510  1.1079
  812TIP3    H2 2401   3.450   1.904   0.542  0.2921 -1.0707  0.4554
  813TIP3   OH2 2402   1.504   1.666   2.160  0.2770  0.0063 -0.0938
  813TIP3    H1 2403   1.423   1.618   2.173  1.8245 -2.2253  2.3480
  813TIP3    H2 2404   1.507   1.729   2.232  0.9604 -0.3336  0.1843
  814TIP3   OH2 2405   0.690   1.633   4.633 -0.2652 -0.2581 -0.2781
  814TIP3    H1 2406   0.720   1.716   4.671  0.2947 -1.1803  1.3556
  814TIP3    H2 2407   0.655   1.584   4.707 -0.7811 -1.4255 -1.2637
  815TIP3   OH2 2408   3.056   4.217   0.053 -0.2448  0.2948  0.1734
  815TIP3    H1 2409   3.009   4.300   0.047 -1.4239 -0.2233  1.5401
  815TIP3    H2 2410   3.111   4.226   0.130  0.8771  0.3820 -0.6190
  816TIP3   OH2 2411   5.722   1.248   5.399 -0.3164  0.1304 -0.6126
  816TIP3    H1 2412   5.808   1.234   5.438 -1.3280  0.0457  1.7824
  816TIP3    H2 2413   5.664   1.186   5.444 -1.8977  1.1454 -1.1462
  817TIP3   OH2 2414   0.618   0.030   1.721  0.5091  0.8790  0.0802
  817TIP3    H1 2415   0.555   0.028   1.650 -0.1979  1.3735  0.6749
  817TIP3    H2 2416   0.703   0.019   1.679  0.0745  0.8362 -0.7968
  818TIP3   OH2 2417   5.276   2.561   2.494 -0.3173 -0.4036  0.5743
  818TIP3    H1 2418   5.307   2.497   2.558 -1.6262 -0.4192  1.2178
  818TIP3    H2 2419   5.232   2.628   2.546 -0.9541 -0.1542 -0.2695
  819TIP3   OH2 2420   2.017   1.358   4.998 -0.3697 -0.2338 -0.3728
  819TIP3    H1 2421   1.941   1.352   5.055 -0.2767 -3.0314 -0.4287
  819TIP3    H2 2422   2.082   1.301   5.039  0.7891  0.1104 -1.6664
  820TIP3   OH2 2423   2.929   1.921   2.931  0.2925  0.0851  0.1034
  820TIP3    H1 2424   2.886   2.006   2.918 -0.4563 -0.3115 -0.0507
  820TIP3    H2 2425   2.867   1.857   2.896  1.5147 -0.4236 -1.2404
  821TIP3   OH2 2426   3.646   5.199   5.656  0.5740  0.1203 -0.6663
  821TIP3    H1 2427   3.554   5.221   5.668  0.6903  0.8426 -1.0566
  821TIP3    H2 2428   3.694   5.272   5.695  1.0116 -0.7777  0.5654
  822TIP3   OH2 2429   5.587   6.757   3.284 -0.2818 -0.0304  0.0929
  822TIP3    H1 2430   5.623   6.670   3.268  0.8058  0.4969 -0.4102
  822TIP3    H2 2431   5.612   6.778   3.374 -2.7468 -1.2494  1.1560
  823TIP3   OH2 2432   1.250   5.001   1.504 -0.2199  0.1649  0.5927
  823TIP3    H1 2433   1.224   5.065   1.570  1.3072  1.1811  0.2579
  823TIP3    H2 2434   1.243   5.048   1.421 -0.7961 -0.6686  0.1663
  824TIP3   OH2 2435   3.698   5.391   4.070 -0.6582 -0.1912  0.1152
  824TIP3    H1 2436   3.670   5.372   4.159  0.0760 -1.7606  0.0428
  824TIP3    H2 2437   3.785   5.429   4.080  0.8080 -3.2355  0.0109
  825TIP3   OH2 2438   5.554   5.191   5.023 -0.1098  0.2373 -0.1092
  825TIP3    H1 2439   5.505   5.257   5.072 -0.4282 -0.2642  0.2566
  825TIP3    H2 2440   5.627   5.168   5.081  0.1244  0.4158 -0.3273
  826TIP3   OH2 2441   3.853   2.710   0.330  0.0062 -0.2514  0.0792
  826TIP3    H1 2442   3.875   2.619   0.352  1.2409 -0.0381 -0.1677
  826TIP3    H2 2443   3.908   2.729   0.254 -1.3832  0.2194 -0.8281
  827TIP3   OH2 2444   4.578   5.087   3.412  0.2471  0.5592 -0.3877
  827TIP3    H1 2445   4.529   5.031   3.352  0.5190  0.4501 -0.5132
  827TIP3    H2 2446   4.538   5.174   3.402  1.8242  1.1127 -2.5657
  828TIP3   OH2 2447   1.643   3.669   0.497 -0.6754 -0.1614 -0.4712
  828TIP3    H1 2448   1.703   3.709   0.435 -0.2155 -1.6671 -1.0387
  828TIP3    H2 2449   1.699   3.632   0.564 -0.8516 -2.4444 -1.5120
  829TIP3   OH2 2450   2.576   4.600   2.064 -0.1540 -0.3585 -0.3529
  829TIP3    H1 2451   2.611   4.527   2.013  4.0815  1.2904 -0.2383
  829TIP3    H2 2452   2.602   4.581   2.154 -0.2636  0.6181 -0.1050
  830TIP3   OH2 2453   6.676   5.333   1.900 -0.2800 -0.4061 -0.0157
  830TIP3    H1 2454   6.689   5.263   1.963  0.7191  0.3150  0.6127
  830TIP3    H2 2455   6.761   5.342   1.856 -0.4754  0.2195 -0.2757
  831TIP3   OH2 2456   6.190   6.411   0.938  0.7017  0.2872 -0.3551
  831TIP3    H1 2457   6.125   6.347   0.909  0.9410 -0.1268  0.0240
  831TIP3    H2 2458   6.180   6.416   1.033  1.3073  0.1278 -0.2774
  832TIP3   OH2 2459   2.586   0.957   3.327  0.1383  0.5944 -0.1540
  832TIP3    H1 2460   2.547   1.012   3.395 -0.4167  2.2427 -1.7009
  832TIP3    H2 2461   2.572   0.867   3.357 -0.8698  1.2408  1.4539
  833TIP3   OH2 2462   0.731   0.688   3.170 -0.9564  0.7122  0.0021
  833TIP3    H1 2463   0.638   0.705   3.153 -1.0285 -0.5872 -1.0253
  833TIP3    H2 2464   0.734   0.597   3.198 -0.0255  0.8724  0.4777
  834TIP3   OH2 2465   5.469   5.985   5.168 -0.3049 -0.4343 -0.1805
  834TIP3    H1 2466   5.522   6.001   5.090 -0.9025  0.1315 -0.4810
  834TIP3    H2 2467   5.525   5.931   5.224  0.4685 -0.1027 -0.6171
  835TIP3   OH2 2468   5.977   2.658   0.807  0.2320  0.4089 -0.6454
  835TIP3    H1 2469   6.001   2.744   0.774  0.2441  1.2529  1.4319
  835TIP3    H2 2470   5.895   2.672   0.854 -0.8070 -1.1134 -1.8880
  836TIP3   OH2 2471   3.218   1.983   0.033  0.4660  0.4001 -0.2057
  836TIP3    H1 2472   3.193   2.055  -0.024 -1.2366  0.8080  0.9439
  836TIP3    H2 2473   3.269   2.023   0.103 -1.7279  0.8639  1.2531
  837TIP3   OH2 2474   6.428   3.245   0.325 -0.1026  0.1245 -0.0598
  837TIP3    H1 2475   6.398   3.164   0.366  0.3844  0.8854  1.8922
  837TIP3    H2 2476   6.359   3.266   0.262 -1.2426 -0.7311  0.8528
  838TIP3   OH2 2477   5.951   2.468   3.402 -0.2252 -0.3855 -0.5043
  838TIP3    H1 2478   5.985   2.380   3.416  0.9299  0.4454  3.0298
  838TIP3    H2 2479   6.006   2.505   3.333  2.0694 -1.1522  0.8148
  839TIP3   OH2 2480   3.492   3.498   3.947 -0.4046  0.0670 -0.6111
  839TIP3    H1 2481   3.480   3.574   4.003  0.1771  0.8786 -1.5468
  839TIP3    H2 2482   3.404   3.463   3.934 -0.5180 -0.3446  1.0411
  840TIP3   OH2 2483   6.266   4.889   2.575  0.5652 -0.5624 -0.6016
  840TIP3    H1 2484   6.319   4.811   2.586 -0.4978 -1.3261 -0.7451
  840TIP3    H2 2485   6.232   4.882   2.485 -2.6261 -1.9750  0.5734
  841TIP3   OH2 2486   3.994   3.431   3.221 -0.1860  0.1895 -0.8342
  841TIP3    H1 2487   3.986   3.406   3.129 -1.7857 -0.0526 -0.6492
  841TIP3    H2 2488   3.971   3.524   3.223 -1.6947 -0.1624 -0.4956
  842TIP3   OH2 2489   1.961   6.554   5.404 -0.2822  0.4198  0.3285
  842TIP3    H1 2490   2.002   6.475   5.441 -1.2277  0.0728  0.6711
  842TIP3    H2 2491   2.035   6.610   5.381  0.4461 -0.9137 -0.7300
  843TIP3   OH2 2492   5.807   2.177   2.401  0.0314 -0.2146  0.2030
  843TIP3    H1 2493   5.779   2.140   2.485 -2.4305  0.2452 -0.3450
  843TIP3    H2 2494   5.823   2.100   2.345  1.3693 -0.5127  0.9546
  844TIP3   OH2 2495   0.788   0.376   5.324  0.0111 -0.0030  0.2723
  844TIP3    H1 2496   0.736   0.317   5.271  0.4964 -0.0283 -0.1846
  844TIP3    H2 2497   0.866   0.324   5.348  0.5760  0.5263 -0.3681
  845TIP3   OH2 2498   2.580   3.811   2.785 -0.7533  1.0151 -0.8824
  845TIP3    H1 2499   2.503   3.865   2.802 -0.8669  0.5862  0.0943
  845TIP3    H2 2500   2.654   3.868   2.804 -0.8742  0.8211  0.2791
  846TIP3   OH2 2501   4.305   6.686   5.344 -0.2197 -0.4492  0.3393
  846TIP3    H1 2502   4.348   6.673   5.428  0.8975 -2.3256 -0.4621
  846TIP3    H2 2503   4.376   6.710   5.284 -0.4793 -2.1712 -0.7132
  847TIP3   OH2 2504   0.286   6.721   5.238 -0.0277  0.1231  0.0119
  847TIP3    H1 2505   0.372   6.680   5.242 -0.3974 -0.5578  3.2068
  847TIP3    H2 2506   0.227   6.651   5.208  0.0580 -0.3782  0.9832
  848TIP3   OH2 2507   1.041   2.665   4.283  0.4979 -0.1433  0.0531
  848TIP3    H1 2508   1.034   2.604   4.357  1.6839 -0.0548  0.2533
  848TIP3    H2 2509   0.974   2.636   4.221 -1.2798  0.4179  1.6007
  849TIP3   OH2 2510   0.916   2.744   3.156 -0.0925  0.5509 -0.0969
  849TIP3    H1 2511   0.871   2.813   3.107  0.2448  0.3201 -0.7522
  849TIP3    H2 2512   0.906   2.666   3.100 -0.6487  0.0158  0.7295
  850TIP3   OH2 2513   2.837   2.471   2.755  0.1768  0.2467 -0.3656
  850TIP3    H1 2514   2.886   2.475   2.837 -1.3269  0.5374  0.5545
  850TIP3    H2 2515   2.903   2.451   2.689  1.8126  2.1997  0.5618
  851TIP3   OH2 2516   1.353   6.422   0.624 -0.8117  0.1740 -0.1318
  851TIP3    H1 2517   1.323   6.484   0.691 -0.6897  1.0341 -0.8541
  851TIP3    H2 2518   1.427   6.466   0.581 -0.6604 -0.5127 -0.5997
  852TIP3   OH2 2519   6.394   0.490   3.618  0.5111 -0.2655  0.3976
  852TIP3    H1 2520   6.323   0.486   3.554  2.0943  3.6686 -1.9882
  852TIP3    H2 2521   6.436   0.404   3.614 -0.4413 -0.6929 -2.7922
  853TIP3   OH2 2522   4.701   5.145   4.864  0.0956 -0.4964 -0.3211
  853TIP3    H1 2523   4.690   5.240   4.862  0.2509 -0.3381  2.3302
  853TIP3    H2 2524   4.793   5.131   4.888 -0.0065 -1.2997 -0.3531
  854TIP3   OH2 2525   2.194   0.095   4.365 -0.6218  0.4468  0.2459
  854TIP3    H1 2526   2.144   0.017   4.342  0.1321 -0.4638  1.5369
  854TIP3    H2 2527   2.285   0.069   4.353 -0.3230  0.7950  1.6061
  855TIP3   OH2 2528   3.062   0.743   3.530  0.5783 -0.1400 -0.2231
  855TIP3    H1 2529   3.035   0.656   3.558 -0.2217 -0.1494 -0.9699
  855TIP3    H2 2530   3.062   0.739   3.434  4.3933 -0.4499 -0.3628
  856TIP3   OH2 2531   1.373   3.074   4.229 -0.5496 -0.1172  0.5886
  856TIP3    H1 2532   1.439   3.053   4.294  0.2288 -1.4674 -0.5600
  856TIP3    H2 2533   1.319   2.995   4.224 -0.7820  0.0789 -0.1711
  857TIP3   OH2 2534   4.218   5.216   2.301  0.0110  0.2972 -0.1058
  857TIP3    H1 2535   4.164   5.156   2.352  1.6096 -1.3394 -0.2554
  857TIP3    H2 2536   4.230   5.173   2.216 -0.8601  2.0105 -1.1763
  858TIP3   OH2 2537   4.498   3.490   0.376 -0.3309 -0.6092  0.1224
  858TIP3    H1 2538   4.414   3.448   0.396  0.0277 -0.5633  1.9042
  858TIP3    H2 2539   4.523   3.534   0.457  1.3783 -0.5446 -0.3874
  859TIP3   OH2 2540   4.609   0.174   3.873  0.1609  0.4615  0.2565
  859TIP3    H1 2541   4.543   0.184   3.804 -0.2633  2.2112  0.8704
  859TIP3    H2 2542   4.559   0.166   3.954  0.6641 -1.4883  0.4234
  860TIP3   OH2 2543   3.324   5.389   4.762 -0.2481  0.1091  0.1062
  860TIP3    H1 2544   3.362   5.402   4.848  1.1367  2.8431 -0.7926
  860TIP3    H2 2545   3.311   5.294   4.755  2.3657 -0.4962  2.1524
  861TIP3   OH2 2546   0.723   0.073   5.533  0.2297  0.0037  0.2432
  861TIP3    H1 2547   0.810   0.105   5.557  0.3830 -0.1960 -0.0312
  861TIP3    H2 2548   0.703   0.007   5.599  0.1290  0.3076  0.5173
  862TIP3   OH2 2549   1.191   5.112   1.774 -0.0107  0.2790  0.7490
  862TIP3    H1 2550   1.130   5.184   1.760 -0.0240  0.1864  0.3031
  862TIP3    H2 2551   1.252   5.145   1.840  0.6242  1.1160 -0.2075
  863TIP3   OH2 2552   4.410   3.417   5.311 -0.0966  0.3799 -0.5039
  863TIP3    H1 2553   4.435   3.354   5.379 -0.5660  3.3325  2.6324
  863TIP3    H2 2554   4.493   3.439   5.268  0.4566 -0.4012  0.1296
  864TIP3   OH2 2555   7.206   4.918   5.709 -0.7423 -0.7028  0.2235
  864TIP3    H1 2556   7.158   4.898   5.789 -0.4468 -0.8779  0.3566
  864TIP3    H2 2557   7.242   4.834   5.680  0.3160 -0.4103  0.6614
  865TIP3   OH2 2558   3.064   6.108   5.044  0.0818  0.2732 -0.0294
  865TIP3    H1 2559   3.089   6.121   4.952  0.8182  0.7052  0.2237
  865TIP3    H2 2560   3.146   6.117   5.092 -0.4599  1.0400  0.7642
  866TIP3   OH2 2561   6.645   2.452   0.357 -0.4974 -0.0951 -0.5349
  866TIP3    H1 2562   6.559   2.495   0.356 -0.7703 -0.6351 -0.4054
  866TIP3    H2 2563   6.687   2.482   0.276 -0.7000  0.3847 -0.4660
  867TIP3   OH2 2564   3.527   3.613   3.484  0.6198  0.3937 -0.0158
  867TIP3    H1 2565   3.523   3.598   3.389  0.6039 -1.6505  0.2678
  867TIP3    H2 2566   3.496   3.703   3.495 -2.6028 -0.3607 -1.6854
  868TIP3   OH2 2567   6.097   1.311   3.089 -0.0761  0.4267  0.2359
  868TIP3    H1 2568   6.070   1.396   3.124  0.1076 -0.2913  2.2901
  868TIP3    H2 2569   6.045   1.248   3.139  0.6191 -0.7074 -0.4364
  869TIP3   OH2 2570   4.483   4.294   3.412  0.2814  0.0176 -0.1698
  869TIP3    H1 2571   4.565   4.324   3.371  1.0613 -0.3806  1.0268
  869TIP3    H2 2572   4.423   4.367   3.400  1.7481  1.6245  1.5452
  870TIP3   OH2 2573   3.393   3.808   0.384 -0.6591 -0.2074  0.0009
  870TIP3    H1 2574   3.477   3.853   0.394 -0.6795 -0.2203  0.2470
  870TIP3    H2 2575   3.402   3.757   0.303 -0.3992 -0.2733  0.0697
  871TIP3   OH2 2576   1.521   0.349   3.373 -0.1640  0.2318 -0.5401
  871TIP3    H1 2577   1.465   0.389   3.439 -0.8027 -1.6361  0.1051
  871TIP3    H2 2578   1.478   0.266   3.351  1.9817 -0.9658 -0.5031
  872TIP3   OH2 2579   0.862   2.215   5.667  0.4061 -0.2321  0.6383
  872TIP3    H1 2580   0.852   2.296   5.619 -0.2551 -0.2684  0.7097
  872TIP3    H2 2581   0.938   2.229   5.723 -0.5807  0.8900  1.7430
  873TIP3   OH2 2582   4.688   5.829   2.827  0.7308  0.3115  0.1095
  873TIP3    H1 2583   4.646   5.891   2.887 -1.4864  0.8370 -1.8469
  873TIP3    H2 2584   4.687   5.873   2.742  1.2863 -1.4668 -0.8661
  874TIP3   OH2 2585   0.445   1.956   5.497  0.4964  0.5453  0.0756
  874TIP3    H1 2586   0.514   1.978   5.561 -0.1654 -0.1837  1.0577
  874TIP3    H2 2587   0.367   1.941   5.550 -0.1576  0.2543 -0.9485
  875TIP3   OH2 2588   1.180   6.166   2.998  0.1980 -0.2503  0.1880
  875TIP3    H1 2589   1.232   6.121   3.065 -0.1668  0.1976  0.7791
  875TIP3    H2 2590   1.230   6.245   2.979  0.1235 -0.2017  0.1937
  876TIP3   OH2 2591   2.545   6.661   1.024 -0.7535 -0.4259  0.0256
  876TIP3    H1 2592   2.517   6.742   0.980 -0.8183 -0.9263 -0.8792
  876TIP3    H2 2593   2.629   6.684   1.064 -1.7976  0.7063  1.6563
  877TIP3   OH2 2594   7.202   2.674   2.418 -0.0928  0.2007 -0.4101
  877TIP3    H1 2595   7.107   2.671   2.412 -0.1587 -2.3200  0.5612
  877TIP3    H2 2596   7.232   2.662   2.328 -0.7096  0.1192 -0.6087
  878TIP3   OH2 2597   3.369   4.294   1.178  0.5782 -0.1510  0.0166
  878TIP3    H1 2598   3.342   4.288   1.086  1.8169 -1.8134 -0.2827
  878TIP3    H2 2599   3.453   4.248   1.181  0.2624 -0.6744  2.1032
  879TIP3   OH2 2600   6.126   5.801   1.030 -0.0319 -0.0972  0.1362
  879TIP3    H1 2601   6.196   5.736   1.033  0.5602  0.5372  0.2398
  879TIP3    H2 2602   6.125   5.839   1.118 -0.8004 -0.4101  0.2659
  880TIP3   OH2 2603   0.671   6.428   4.271  0.1663 -0.6046  0.3730
  880TIP3    H1 2604   0.635   6.358   4.217  1.8447 -1.1676 -0.0886
  880TIP3    H2 2605   0.766   6.417   4.264  0.4599  1.1044  1.1062
  881TIP3   OH2 2606   5.082   0.492   1.636  0.0037  0.0015 -0.0592
  881TIP3    H1 2607   5.001   0.532   1.606 -0.0296  1.5447  1.9492
  881TIP3    H2 2608   5.070   0.480   1.730  1.7844 -0.5294  0.1314
  882TIP3   OH2 2609   0.248   2.303   5.800 -0.4714 -0.3995  0.4731
  882TIP3    H1 2610   0.255   2.398   5.807  0.2150 -0.4894  1.0993
  882TIP3    H2 2611   0.225   2.274   5.888  0.7788 -0.9297  0.6412
  883TIP3   OH2 2612   4.115   0.665   0.099 -0.3217  0.2162 -0.7630
  883TIP3    H1 2613   4.103   0.742   0.155  0.8158 -0.2235  0.1221
  883TIP3    H2 2614   4.054   0.600   0.135  0.1433  0.0560 -0.2507
  884TIP3   OH2 2615   5.181   3.025   2.036  0.0694 -0.2706  0.1385
  884TIP3    H1 2616   5.212   3.091   1.974  1.4324 -1.2520 -0.2833
  884TIP3    H2 2617   5.243   3.029   2.109 -0.1960 -0.6470  0.3886
  885TIP3   OH2 2618   1.744   2.904   5.025  0.0098 -0.2776 -0.1099
  885TIP3    H1 2619   1.780   2.866   4.945 -1.2219 -2.7470  0.4045
  885TIP3    H2 2620   1.761   2.838   5.092  1.9877  2.1741  2.0074
  886TIP3   OH2 2621   2.498   6.613   3.272 -0.9670 -0.1477  0.2768
  886TIP3    H1 2622   2.505   6.569   3.187 -0.0912  0.6874 -0.1036
  886TIP3    H2 2623   2.408   6.598   3.300 -0.8731 -1.6227 -0.1376
  887TIP3   OH2 2624   6.003   6.455   4.693 -0.3788  0.2654 -0.3084
  887TIP3    H1 2625   6.068   6.468   4.761  0.0728  1.2250 -0.9034
  887TIP3    H2 2626   6.044   6.393   4.632  0.1561  1.1699 -0.8869
  888TIP3   OH2 2627   0.402   3.715   2.380 -0.1804 -0.3407 -0.8619
  888TIP3    H1 2628   0.381   3.702   2.472 -1.9820 -1.3135 -1.3561
  888TIP3    H2 2629   0.429   3.807   2.374  0.0028 -0.2791  0.6378
  889TIP3   OH2 2630   6.587   2.166   0.786  0.5253 -0.1930 -0.5398
  889TIP3    H1 2631   6.558   2.240   0.734  0.1057  0.4266  0.5552
  889TIP3    H2 2632   6.682   2.162   0.771  0.6341  0.8979 -0.1876
  890TIP3   OH2 2633   2.085   6.138   2.366  0.4819 -0.2433  0.2267
  890TIP3    H1 2634   2.150   6.128   2.296  0.1435 -0.5621 -0.0466
  890TIP3    H2 2635   2.023   6.203   2.333  0.2638 -0.4711  0.1885
  891TIP3   OH2 2636   0.523   0.537   2.648  0.4220  0.0328  0.1193
  891TIP3    H1 2637   0.577   0.543   2.726 -0.1467 -3.2225  0.9188
  891TIP3    H2 2638   0.449   0.595   2.665  2.2148  2.4676  0.1502
  892TIP3   OH2 2639   1.795   1.888   1.486  0.3414 -0.1278 -0.7930
  892TIP3    H1 2640   1.769   1.924   1.571 -3.0976 -0.9767 -1.3319
  892TIP3    H2 2641   1.789   1.962   1.426 -0.4151 -0.1976 -0.8138
  893TIP3   OH2 2642   7.181   2.737   3.864  0.4516 -0.2852  0.6758
  893TIP3    H1 2643   7.170   2.771   3.775  0.5315  0.0675  0.7955
  893TIP3    H2 2644   7.094   2.709   3.890  0.0271  1.3378  1.1642
  894TIP3   OH2 2645   1.476   1.481   3.116 -0.0733 -0.4891  0.0033
  894TIP3    H1 2646   1.514   1.496   3.030 -0.6935 -1.7715 -0.5122
  894TIP3    H2 2647   1.526   1.539   3.174  0.7088 -0.0002 -1.1149
  895TIP3   OH2 2648   5.924   4.268   2.065  0.0757 -0.3502 -0.2904
  895TIP3    H1 2649   5.844   4.226   2.096  1.1219 -1.6294  0.7599
  895TIP3    H2 2650   5.913   4.360   2.089 -0.4875 -0.7571  1.1226
  896TIP3   OH2 2651   6.180   2.594   3.687 -0.2241 -0.0172  0.2388
  896TIP3    H1 2652   6.189   2.504   3.656 -1.5959  0.2708 -1.1158
  896TIP3    H2 2653   6.219   2.647   3.618  3.4180  0.3958  2.3673
  897TIP3   OH2 2654   4.775   0.224   1.171  0.4037  0.4239  0.0656
  897TIP3    H1 2655   4.738   0.157   1.228 -1.7156  2.2757  1.0446
  897TIP3    H2 2656   4.728   0.216   1.089 -0.4167  1.1343  0.4435
  898TIP3   OH2 2657   5.778   1.623   0.501 -0.1979 -0.1223 -0.5481
  898TIP3    H1 2658   5.759   1.548   0.446  0.6054 -1.7240  1.2420
  898TIP3    H2 2659   5.711   1.688   0.478 -2.4373 -2.2752 -0.5017
  899TIP3   OH2 2660   4.122   1.142   0.801  0.5526  0.8225 -0.3518
  899TIP3    H1 2661   4.096   1.234   0.791  1.7296  1.1860 -0.3164
  899TIP3    H2 2662   4.069   1.110   0.874 -0.8027  1.0824 -1.1812
  900TIP3   OH2 2663   4.146   2.253   0.156 -0.1865 -0.8101  0.9766
  900TIP3    H1 2664   4.233   2.251   0.196 -0.3602  0.8017  1.5377
  900TIP3    H2 2665   4.157   2.210   0.072  1.5546  0.7536  0.3335
  901TIP3   OH2 2666   1.735   2.548   0.641 -0.5394 -0.7504 -0.0329
  901TIP3    H1 2667   1.808   2.610   0.633  0.0855 -1.2276  1.5877
  901TIP3    H2 2668   1.680   2.566   0.564  0.4805  0.6631 -0.4810
  902TIP3   OH2 2669   4.895   1.816   3.508 -0.4365 -0.1961  0.1081
  902TIP3    H1 2670   4.843   1.889   3.542 -0.8678 -0.9003  0.9688
  902TIP3    H2 2671   4.911   1.760   3.584  1.1128 -0.2861 -0.2448
  903TIP3   OH2 2672   4.425   5.126   1.238 -0.2941 -0.3439  0.1044
  903TIP3    H1 2673   4.473   5.182   1.177  0.6253  1.8951  2.6700
  903TIP3    H2 2674   4.458   5.038   1.220 -0.2811  0.1337 -2.7250
  904TIP3   OH2 2675   5.280   6.722   1.497  0.0089  0.2936 -0.1847
  904TIP3    H1 2676   5.216   6.794   1.493 -1.7021 -1.1353  0.3540
  904TIP3    H2 2677   5.259   6.667   1.422  1.7837  0.6780 -1.0164
  905TIP3   OH2 2678   6.708   0.529   1.364  0.1386 -0.3527 -0.6260
  905TIP3    H1 2679   6.621   0.493   1.346  0.1648 -1.0008  0.4377
  905TIP3    H2 2680   6.709   0.543   1.459  0.4624  1.6480 -0.8880
  906TIP3   OH2 2681   5.718   6.312   0.894 -0.5830  0.0266 -0.8310
  906TIP3    H1 2682   5.693   6.393   0.848  1.0014  0.5403 -0.8430
  906TIP3    H2 2683   5.726   6.338   0.986 -0.8238 -0.3155 -0.7084
  907TIP3   OH2 2684   3.527   3.493   2.063  0.0890  0.6874 -0.6579
  907TIP3    H1 2685   3.559   3.406   2.084  0.2685  0.9024 -0.0233
  907TIP3    H2 2686   3.548   3.505   1.970 -1.0383 -0.4149 -1.0836
  908TIP3   OH2 2687   0.580   2.567   0.337 -0.1118 -0.2575  1.1958
  908TIP3    H1 2688   0.578   2.622   0.258  0.0842 -0.2139  1.2208
  908TIP3    H2 2689   0.580   2.630   0.410  3.0308 -0.1505  1.2393
  909TIP3   OH2 2690   2.623   0.201   1.391  0.0989  0.0538 -0.8449
  909TIP3    H1 2691   2.656   0.123   1.436  1.6452  1.9188  1.4648
  909TIP3    H2 2692   2.552   0.232   1.447 -0.6639  0.1862 -1.8730
  910TIP3   OH2 2693   0.814   1.296   5.329  0.3950  0.0729 -0.7607
  910TIP3    H1 2694   0.826   1.370   5.388  0.9486 -0.1810 -0.5521
  910TIP3    H2 2695   0.746   1.242   5.370  0.8225 -0.1356 -0.3207
  911TIP3   OH2 2696   6.226   1.375   0.301 -0.5554  0.2796  0.1749
  911TIP3    H1 2697   6.136   1.401   0.282 -0.9731 -1.0443  0.2808
  911TIP3    H2 2698   6.252   1.323   0.226 -0.2648 -0.2745  0.6551
  912TIP3   OH2 2699   0.392   3.021   1.197 -0.1494 -0.7560  0.4603
  912TIP3    H1 2700   0.456   2.964   1.153 -1.0501 -0.9797 -0.6313
  912TIP3    H2 2701   0.307   2.981   1.175 -0.7185  0.1941  0.8960
  913TIP3   OH2 2702   6.300   5.821   4.113 -0.4096  0.5364  0.1312
  913TIP3    H1 2703   6.298   5.905   4.067 -0.6897  1.0344  1.0275
  913TIP3    H2 2704   6.225   5.824   4.172 -0.9769 -0.7427 -0.4858
  914TIP3   OH2 2705   0.464   1.363   0.145  0.3639  0.3102 -0.3369
  914TIP3    H1 2706   0.387   1.334   0.193  0.9467 -0.0552  0.4019
  914TIP3    H2 2707   0.521   1.401   0.211  0.3641  1.5698 -1.0396
  915TIP3   OH2 2708   4.024   2.459   2.614 -0.1213 -0.2558  0.5032
  915TIP3    H1 2709   3.969   2.445   2.691 -0.2488 -0.2498  0.4148
  915TIP3    H2 2710   4.036   2.372   2.577 -0.4058 -0.2085  0.2972
  916TIP3   OH2 2711   6.729   4.157   5.077 -0.1725  0.2230  0.3865
  916TIP3    H1 2712   6.706   4.218   5.007 -0.8278 -0.7162 -0.2294
  916TIP3    H2 2713   6.647   4.141   5.124  0.0013 -0.1740  0.5587
  917TIP3   OH2 2714   3.948   5.960   4.714 -0.0053 -0.0982 -0.4761
  917TIP3    H1 2715   3.943   6.056   4.710  0.3825 -0.0684 -0.2861
  917TIP3    H2 2716   3.922   5.939   4.803 -1.0594 -0.2407 -0.8042
  918TIP3   OH2 2717   6.235   4.318   5.261 -0.0180 -0.2071 -0.3546
  918TIP3    H1 2718   6.203   4.273   5.339 -0.7033 -0.4964 -0.7901
  918TIP3    H2 2719   6.172   4.296   5.193  1.5546 -1.4747 -1.4744
  919TIP3   OH2 2720   3.288   1.214   0.669  1.1821  0.0084 -0.0801
  919TIP3    H1 2721   3.373   1.256   0.657  0.1941  2.0243 -0.4133
  919TIP3    H2 2722   3.238   1.276   0.723  0.0649 -1.3454  0.4957
  920TIP3   OH2 2723   6.729   3.635   5.703  0.6308 -0.3227 -0.0985
  920TIP3    H1 2724   6.764   3.683   5.778 -1.9998 -0.0039  1.0139
  920TIP3    H2 2725   6.781   3.554   5.701  2.1013  0.5446  0.7774
  921TIP3   OH2 2726   3.690   5.286   4.341 -0.3555 -0.2139  0.1980
  921TIP3    H1 2727   3.640   5.309   4.420  0.3117  1.0663  0.2658
  921TIP3    H2 2728   3.779   5.270   4.373  0.4581  2.4192 -0.4914
  922TIP3   OH2 2729   5.281   5.178   1.544 -0.7978 -0.6338  0.2310
  922TIP3    H1 2730   5.342   5.219   1.483 -1.9917  1.4155  0.3269
  922TIP3    H2 2731   5.312   5.088   1.552  0.9958 -0.2078 -1.2631
  923TIP3   OH2 2732   1.468   4.216   2.230  0.3170 -0.1435 -0.1737
  923TIP3    H1 2733   1.481   4.171   2.313 -0.9455  1.4598  0.9559
  923TIP3    H2 2734   1.549   4.265   2.216  0.4289 -0.1950  0.2778
  924TIP3   OH2 2735   4.242   6.179   3.794 -0.1850 -0.1356 -0.5126
  924TIP3    H1 2736   4.162   6.127   3.799 -0.4057  0.2756  0.3234
  924TIP3    H2 2737   4.297   6.146   3.865  0.4605 -0.5125 -1.1658
  925TIP3   OH2 2738   2.179   4.616   2.397 -0.7042 -0.1083  0.4141
  925TIP3    H1 2739   2.127   4.588   2.472 -2.3900 -0.4256 -0.8081
  925TIP3    H2 2740   2.127   4.590   2.321 -0.1892  2.3188 -0.8534
  926TIP3   OH2 2741   5.108   1.228   3.452 -0.0927  0.1773 -0.5102
  926TIP3    H1 2742   5.059   1.208   3.372  0.1126 -0.0519 -0.5809
  926TIP3    H2 2743   5.095   1.322   3.465 -0.3011  0.1758 -0.6949
  927TIP3   OH2 2744   3.726   1.974   3.624 -0.2028  0.3856  0.4535
  927TIP3    H1 2745   3.810   2.007   3.656  0.8686 -0.5224 -1.2721
  927TIP3    H2 2746   3.719   1.886   3.661 -0.7676  0.7215  1.1762
  928TIP3   OH2 2747   6.788   2.583   5.543  0.2291  0.1236  0.0343
  928TIP3    H1 2748   6.810   2.565   5.634 -0.2727 -1.1426 -0.0781
  928TIP3    H2 2749   6.693   2.589   5.541  0.1965 -0.4778 -0.5080
  929TIP3   OH2 2750   4.461   1.384   5.210  0.2046  0.0013  0.2478
  929TIP3    H1 2751   4.535   1.354   5.263  0.4773 -1.6772 -0.9925
  929TIP3    H2 2752   4.502   1.419   5.131 -0.2960 -0.3756 -0.1793
  930TIP3   OH2 2753   4.227   5.142   2.873  0.0643  0.0983  0.2933
  930TIP3    H1 2754   4.320   5.160   2.862  0.0253 -0.2971 -0.7174
  930TIP3    H2 2755   4.190   5.227   2.900  0.3366  0.9054 -1.6980
  931TIP3   OH2 2756   6.448   3.880   4.688 -0.0755 -0.3498  0.0434
  931TIP3    H1 2757   6.470   3.792   4.717  1.1274 -0.0421  0.0941
  931TIP3    H2 2758   6.439   3.872   4.593  0.6848 -0.4050 -0.0305
  932TIP3   OH2 2759   6.746   0.831   1.709  0.5325  0.0926  0.5418
  932TIP3    H1 2760   6.829   0.873   1.686  0.0814  1.1784  0.8215
  932TIP3    H2 2761   6.680   0.898   1.693 -0.3932 -0.9938 -0.3991
  933TIP3   OH2 2762   4.006   1.812   3.469  0.0128 -0.3741 -0.2963
  933TIP3    H1 2763   3.934   1.762   3.430  0.7414 -2.8595  1.3128
  933TIP3    H2 2764   3.980   1.822   3.561  1.2513 -0.4628  0.0822
  934TIP3   OH2 2765   5.603   6.639   3.751  0.0967 -0.7578 -0.2513
  934TIP3    H1 2766   5.508   6.649   3.752  0.1013 -0.5712 -1.0739
  934TIP3    H2 2767   5.634   6.705   3.688  0.6076 -2.1187 -1.4940
  935TIP3   OH2 2768   5.946   2.031   5.353 -0.2383 -0.0827  0.4622
  935TIP3    H1 2769   5.907   2.095   5.294 -0.6093 -0.4208  0.3323
  935TIP3    H2 2770   5.979   1.962   5.295  0.4562  0.1416  0.5769
  936TIP3   OH2 2771   7.149   5.228   0.723  0.3920 -0.1381  0.2003
  936TIP3    H1 2772   7.242   5.236   0.701  0.2195 -1.0539 -1.0100
  936TIP3    H2 2773   7.148   5.186   0.809  1.0953  0.1008  0.3354
  937TIP3   OH2 2774   3.263   3.370   1.431 -0.3399  0.1984  0.1254
  937TIP3    H1 2775   3.206   3.374   1.354  2.8820 -0.5590 -2.5226
  937TIP3    H2 2776   3.269   3.460   1.462 -0.8711  0.7115 -1.2009
  938TIP3   OH2 2777   5.432   2.129   2.932  0.1972  0.0003  0.1573
  938TIP3    H1 2778   5.350   2.117   2.884 -1.4403  0.5220  2.5848
  938TIP3    H2 2779   5.414   2.203   2.991  2.7028  0.6214  0.2654
  939TIP3   OH2 2780   5.228   1.622   3.214 -0.3847 -0.0665 -0.7274
  939TIP3    H1 2781   5.161   1.628   3.146  0.8626  1.8011 -1.9102
  939TIP3    H2 2782   5.217   1.701   3.266  0.5829  0.0581 -0.6820
  940TIP3   OH2 2783   0.813   5.186   5.475 -0.2998  0.2740 -0.1003
  940TIP3    H1 2784   0.743   5.207   5.412  0.2833  3.2014  0.1071
  940TIP3    H2 2785   0.776   5.208   5.560 -0.8232 -3.0006  0.6663
  941TIP3   OH2 2786   2.372   3.466   4.338  0.2329  0.3237  0.0174
  941TIP3    H1 2787   2.332   3.489   4.422  1.1301  0.7949  0.3295
  941TIP3    H2 2788   2.351   3.374   4.326  1.8220 -0.3334  1.7818
  942TIP3   OH2 2789   0.338   2.696   1.450  0.2606 -0.4613 -0.3145
  942TIP3    H1 2790   0.311   2.656   1.367  1.3771  0.3789 -1.1126
  942TIP3    H2 2791   0.393   2.629   1.492  0.4317 -0.5477 -0.6751
  943TIP3   OH2 2792   6.630   2.284   3.891 -0.5862  0.0122 -0.4863
  943TIP3    H1 2793   6.642   2.229   3.814 -1.6980 -0.5822 -0.2616
  943TIP3    H2 2794   6.536   2.301   3.894 -0.6641 -0.5256  1.0891
  944TIP3   OH2 2795   2.076   1.593   0.053 -0.1575  0.2780  0.1306
  944TIP3    H1 2796   2.129   1.555   0.122  0.2022 -0.5207 -0.5687
  944TIP3    H2 2797   2.036   1.519   0.009  1.8395  0.4924 -2.2899
  945TIP3   OH2 2798   1.157   3.497   5.525 -0.1832 -0.0755  0.2739
  945TIP3    H1 2799   1.209   3.577   5.537 -0.0910 -0.1299  0.2395
  945TIP3    H2 2800   1.101   3.516   5.449 -0.4412  0.1004  0.5078
  946TIP3   OH2 2801   4.769   0.558   1.521  0.1086 -0.0098  0.4683
  946TIP3    H1 2802   4.810   0.547   1.436 -0.3973 -1.7690  0.4177
  946TIP3    H2 2803   4.752   0.652   1.528  3.1544  0.6931  0.0646
  947TIP3   OH2 2804   6.478   1.011   3.479 -0.2292  0.7977 -0.1213
  947TIP3    H1 2805   6.398   0.991   3.431 -0.1080  2.2149 -0.9695
  947TIP3    H2 2806   6.533   0.933   3.467 -0.7548  0.5567 -1.1144
  948TIP3   OH2 2807   0.219   2.534   2.508 -0.1201 -0.5545  0.5212
  948TIP3    H1 2808   0.170   2.586   2.443  1.1055  1.3384  1.0351
  948TIP3    H2 2809   0.292   2.496   2.458 -0.4902 -1.0499  0.3418
  949TIP3   OH2 2810   3.612   3.514   1.809 -0.3248  0.1705 -0.5047
  949TIP3    H1 2811   3.622   3.602   1.774 -0.7143  1.3048  2.0386
  949TIP3    H2 2812   3.530   3.481   1.770  0.6729  0.1875 -2.7823
  950TIP3   OH2 2813   4.394   0.242   5.872 -0.4927 -0.0969  0.0952
  950TIP3    H1 2814   4.486   0.241   5.845 -0.9584  1.7768 -1.7822
  950TIP3    H2 2815   4.352   0.175   5.818 -0.2823 -0.9241  0.9236
  951TIP3   OH2 2816   5.563   1.669   0.191 -0.4196 -0.1347  0.1550
  951TIP3    H1 2817   5.478   1.635   0.162  0.7204 -1.7413 -1.5472
  951TIP3    H2 2818   5.602   1.596   0.239  0.2813  0.3485  0.3290
  952TIP3   OH2 2819   5.400   4.107   3.568 -0.3768 -0.2965  0.1643
  952TIP3    H1 2820   5.417   4.046   3.640 -0.7669  0.7844  1.2033
  952TIP3    H2 2821   5.399   4.052   3.489  2.1672 -1.2199  0.6887
  953TIP3   OH2 2822   1.203   3.189   2.864 -0.1162 -0.6929  0.4536
  953TIP3    H1 2823   1.273   3.243   2.901  0.2702  0.9035 -2.2957
  953TIP3    H2 2824   1.249   3.113   2.827 -0.2850 -1.3473  1.5444
  954TIP3   OH2 2825   7.023   0.837   1.122 -0.1850  0.7302  0.5687
  954TIP3    H1 2826   7.072   0.772   1.172 -0.6396  0.5808  0.8237
  954TIP3    H2 2827   6.932   0.807   1.125 -0.2965  1.0077  0.1049
  955TIP3   OH2 2828   1.047   6.568   3.250  0.1317  0.2435 -0.3867
  955TIP3    H1 2829   1.016   6.653   3.217 -1.0945  0.7775  1.9616
  955TIP3    H2 2830   0.968   6.522   3.276  0.8134 -1.5453 -1.3354
  956TIP3   OH2 2831   0.719   1.735   3.340  0.4609 -0.3944  0.6490
  956TIP3    H1 2832   0.676   1.749   3.255 -0.1084  2.4612  1.2970
  956TIP3    H2 2833   0.660   1.676   3.387  0.9437 -2.2869 -0.9942
  957TIP3   OH2 2834   6.745   4.780   5.643 -0.4678 -0.5536 -0.0048
  957TIP3    H1 2835   6.793   4.726   5.581 -0.6803 -0.1488 -0.5241
  957TIP3    H2 2836   6.683   4.720   5.684 -1.3269 -0.5295 -1.2276
  958TIP3   OH2 2837   2.057   1.584   0.603  0.1509  0.5632  0.3807
  958TIP3    H1 2838   1.993   1.514   0.593 -0.0992  0.9061 -0.4847
  958TIP3    H2 2839   2.138   1.540   0.626 -0.1674  0.0482  0.5282
  959TIP3   OH2 2840   2.412   6.417   4.007 -0.0730  0.5252  0.3000
  959TIP3    H1 2841   2.435   6.335   4.052  0.9211 -0.4674 -1.8747
  959TIP3    H2 2842   2.494   6.467   4.006 -0.7261  1.7037  1.7990
  960TIP3   OH2 2843   5.109   6.752   4.993 -0.0818 -0.1091 -0.9557
  960TIP3    H1 2844   5.043   6.739   4.925 -1.2538 -0.0351  0.1281
  960TIP3    H2 2845   5.162   6.673   4.991 -2.2176 -1.6922  0.2689
  961TIP3   OH2 2846   2.122   5.106   5.481  0.3308 -0.0682 -0.4965
  961TIP3    H1 2847   2.216   5.112   5.469  0.3738 -1.3397 -0.9452
  961TIP3    H2 2848   2.111   5.076   5.572  0.2535  2.2269  0.3140
  962TIP3   OH2 2849   2.067   5.092   4.542 -0.0423  0.3700  0.0964
  962TIP3    H1 2850   1.993   5.048   4.583  0.8703 -0.0958  1.2987
  962TIP3    H2 2851   2.135   5.094   4.610  1.3905 -0.0567 -1.2635
  963TIP3   OH2 2852   3.992   6.124   0.766  0.2233  0.0769 -0.4204
  963TIP3    H1 2853   4.031   6.065   0.831  0.5350  1.1144  0.3531
  963TIP3    H2 2854   4.058   6.193   0.754 -0.4482  0.6667 -0.7534
  964TIP3   OH2 2855   3.701   4.652   3.121 -0.0022 -0.4012  0.3224
  964TIP3    H1 2856   3.657   4.600   3.187 -1.9120 -0.1619 -0.6842
  964TIP3    H2 2857   3.630   4.692   3.071  1.3785  1.4444 -0.2879
  965TIP3   OH2 2858   4.701   5.435   0.920  0.7130 -0.4427 -0.6356
  965TIP3    H1 2859   4.678   5.453   0.829 -1.7669  0.0508 -0.0060
  965TIP3    H2 2860   4.635   5.372   0.949  0.6776  0.3441  1.1283
  966TIP3   OH2 2861   2.760   1.471   3.430 -0.8925 -0.1288  0.3731
  966TIP3    H1 2862   2.786   1.514   3.348 -1.6439 -2.2624 -1.0736
  966TIP3    H2 2863   2.683   1.519   3.459 -0.0236  1.2988  0.4258
  967TIP3   OH2 2864   0.830   2.404   5.459  0.3782  0.0437 -0.0816
  967TIP3    H1 2865   0.888   2.480   5.459  0.2261  0.1629  0.6330
  967TIP3    H2 2866   0.793   2.403   5.370 -0.2824  1.3155  0.1531
  968TIP3   OH2 2867   2.559   6.322   4.251 -0.5835  0.2036  0.1836
  968TIP3    H1 2868   2.612   6.401   4.238 -0.3196 -0.1898 -1.2924
  968TIP3    H2 2869   2.564   6.306   4.345  2.9396 -0.4543  0.0485
  969TIP3   OH2 2870   3.332   5.199   3.595  0.1169  0.0737 -0.2810
  969TIP3    H1 2871   3.246   5.235   3.573  0.7592  0.8573 -1.6628
  969TIP3    H2 2872   3.390   5.275   3.597  0.5900 -0.2679  1.9076
  970TIP3   OH2 2873   2.797   0.020   1.004  0.3299  0.3939  0.5271
  970TIP3    H1 2874   2.757  -0.034   1.072 -1.2728  0.8909  0.0391
  970TIP3    H2 2875   2.805   0.107   1.043  0.3189  0.4483  0.4117
  971TIP3   OH2 2876   6.359   1.917   3.580 -0.0117 -0.2199 -0.3219
  971TIP3    H1 2877   6.386   1.852   3.515 -1.8374 -2.6852  1.1853
  971TIP3    H2 2878   6.265   1.927   3.568  0.0312  1.2347  0.3044
  972TIP3   OH2 2879   6.214   0.183   1.408 -0.3193 -0.3357 -0.3662
  972TIP3    H1 2880   6.283   0.250   1.406 -0.5452  0.1820  2.9582
  972TIP3    H2 2881   6.262   0.100   1.408  0.4042  0.0115  1.4967
  973TIP3   OH2 2882   3.294   2.128   3.667  0.6215 -0.1763  0.0804
  973TIP3    H1 2883   3.370   2.089   3.710 -0.2308 -1.1923  0.7104
  973TIP3    H2 2884   3.323   2.143   3.577  1.4551 -0.9047  0.2085
  974TIP3   OH2 2885   2.748   1.124   2.766  0.1847 -0.3520  1.0822
  974TIP3    H1 2886   2.754   1.206   2.716 -0.5108 -0.7268  0.3729
  974TIP3    H2 2887   2.665   1.131   2.813  0.6483 -0.1780  1.8890
  975TIP3   OH2 2888   6.104   4.822   1.974  0.5744 -0.2258  0.2178
  975TIP3    H1 2889   6.025   4.795   2.022  0.2165 -0.5622 -0.5336
  975TIP3    H2 2890   6.116   4.914   1.997 -2.0037  0.8480 -2.2154
  976TIP3   OH2 2891   5.427   6.657   5.659 -0.9549 -0.8626 -0.5061
  976TIP3    H1 2892   5.341   6.695   5.638 -0.8548 -0.5071 -0.2768
  976TIP3    H2 2893   5.421   6.633   5.751 -0.2371  0.7621 -0.0004
  977TIP3   OH2 2894   0.148   0.655   1.537  0.2411 -0.0372 -0.1018
  977TIP3    H1 2895   0.184   0.725   1.592 -1.5634  1.5860 -0.8894
  977TIP3    H2 2896   0.131   0.697   1.453 -0.3242 -1.6010 -0.8029
  978TIP3   OH2 2897   3.536   4.026   0.575  0.2236  0.0364 -0.3414
  978TIP3    H1 2898   3.576   4.027   0.488  1.8554 -0.1730  0.3842
  978TIP3    H2 2899   3.579   4.098   0.622  0.2341 -0.6154  0.6679
  979TIP3   OH2 2900   2.875   1.735   3.942 -0.4463 -0.1630  0.3317
  979TIP3    H1 2901   2.906   1.825   3.939  0.0761 -0.3683 -1.8015
  979TIP3    H2 2902   2.875   1.713   4.035 -1.3239  2.2548  0.9842
  980TIP3   OH2 2903   6.692   1.871   4.312  0.6516 -0.2929 -0.4183
  980TIP3    H1 2904   6.670   1.945   4.369 -1.4608  1.3554 -3.1173
  980TIP3    H2 2905   6.771   1.898   4.266 -0.0505  0.2778 -1.3144
  981TIP3   OH2 2906   0.237   4.421   3.724  0.3299 -0.1526  0.3660
  981TIP3    H1 2907   0.206   4.441   3.636  4.7755  0.2240 -1.3532
  981TIP3    H2 2908   0.239   4.505   3.769 -0.6693 -0.1528  0.4554
  982TIP3   OH2 2909   2.001   0.980   2.650  0.0119 -0.1054 -1.0772
  982TIP3    H1 2910   2.043   0.986   2.565  1.2775  1.7349 -0.3772
  982TIP3    H2 2911   1.962   1.066   2.665  0.3693 -0.1725  0.4492
  983TIP3   OH2 2912   6.397   5.284   3.622 -0.6923 -0.0987 -0.2609
  983TIP3    H1 2913   6.341   5.229   3.677 -0.6137  0.5836  0.5140
  983TIP3    H2 2914   6.409   5.364   3.673  0.7941 -0.1376 -0.5132
  984TIP3   OH2 2915   6.365   1.721   1.224  0.7351  0.1259  0.6107
  984TIP3    H1 2916   6.339   1.729   1.316  0.6557  0.6206  0.5474
  984TIP3    H2 2917   6.283   1.733   1.175  0.4255 -1.9721  0.5176
  985TIP3   OH2 2918   5.839   1.063   3.816  0.3663 -0.4668  0.1288
  985TIP3    H1 2919   5.783   1.093   3.887  0.6032  1.1945 -0.3456
  985TIP3    H2 2920   5.920   1.113   3.826  0.1572  0.3189 -1.6816
  986TIP3   OH2 2921   0.880   2.439   3.192 -0.0827 -0.0157 -0.8937
  986TIP3    H1 2922   0.879   2.343   3.184 -1.1990  0.0421 -1.7883
  986TIP3    H2 2923   0.862   2.470   3.103 -0.9786  0.9935 -0.3837
  987TIP3   OH2 2924   3.084   1.031   5.149 -0.2265 -0.4261  0.2553
  987TIP3    H1 2925   3.145   1.053   5.219 -0.4693 -0.8267  0.5984
  987TIP3    H2 2926   3.138   0.987   5.083  0.4080  1.7488 -0.7681
  988TIP3   OH2 2927   3.585   4.341   4.381  0.2818 -0.6454  0.4073
  988TIP3    H1 2928   3.510   4.390   4.412  0.5111 -0.9857  1.5470
  988TIP3    H2 2929   3.555   4.299   4.300  0.7376  3.1079 -1.9491
  989TIP3   OH2 2930   5.459   0.425   3.705 -0.1840 -0.1628  0.1507
  989TIP3    H1 2931   5.369   0.444   3.734  0.7249  0.6833  2.7193
  989TIP3    H2 2932   5.475   0.335   3.734 -0.3031 -0.4615 -0.6762
  990TIP3   OH2 2933   0.375   0.628   0.264 -0.1971  0.1244 -0.0078
  990TIP3    H1 2934   0.432   0.679   0.322 -1.2381  1.2955  0.0254
  990TIP3    H2 2935   0.327   0.570   0.324 -1.1170  1.1830  0.3158
  991TIP3   OH2 2936   1.663   6.476   2.936  0.1640  0.2015  0.7754
  991TIP3    H1 2937   1.636   6.440   2.852  0.0540  0.4497  0.7022
  991TIP3    H2 2938   1.754   6.449   2.947  0.2512  0.3683  0.4682
  992TIP3   OH2 2939   2.117   5.727   4.795 -0.4290 -0.5052  0.8790
  992TIP3    H1 2940   2.135   5.651   4.741  2.4958 -0.2714  1.3710
  992TIP3    H2 2941   2.128   5.696   4.885 -2.5567 -0.2364  1.2949
  993TIP3   OH2 2942   7.043   3.174   2.611  0.1005 -0.2026  0.9586
  993TIP3    H1 2943   7.104   3.154   2.540 -0.9918 -0.4087  0.0420
  993TIP3    H2 2944   7.078   3.127   2.687  1.4811  0.3062  0.6629
  994TIP3   OH2 2945   2.079   1.644   5.424  0.3892 -0.5182 -0.2667
  994TIP3    H1 2946   2.025   1.673   5.350 -0.2665 -1.3172 -0.1123
  994TIP3    H2 2947   2.168   1.640   5.389  0.0562 -1.0880 -1.0754
  995TIP3   OH2 2948   4.545   5.468   5.033  0.2873  0.0806 -0.1048
  995TIP3    H1 2949   4.571   5.560   5.041  1.7367 -0.4392  1.9177
  995TIP3    H2 2950   4.583   5.439   4.951 -0.5331  1.3749 -0.9731
  996TIP3   OH2 2951   5.243   6.119   3.750  0.6822 -0.2678 -0.5347
  996TIP3    H1 2952   5.210   6.040   3.791 -1.1283 -0.3797 -2.0458
  996TIP3    H2 2953   5.338   6.116   3.762  0.3647 -0.6866  2.7834
  997TIP3   OH2 2954   5.337   0.196   3.494  0.4200 -0.6018  0.3845
  997TIP3    H1 2955   5.245   0.221   3.498  0.3024 -0.9154 -0.2689
  997TIP3    H2 2956   5.363   0.188   3.586 -0.4557 -1.3811  0.5868
  998TIP3   OH2 2957   0.058   6.106   1.020  0.1424  0.1198  0.4615
  998TIP3    H1 2958  -0.005   6.036   1.006  0.5929 -0.1327 -0.3503
  998TIP3    H2 2959   0.012   6.168   1.077 -1.1274  0.3105 -0.7085
  999TIP3   OH2 2960   6.683   2.879   5.351  0.4436  0.7429 -0.0365
  999TIP3    H1 2961   6.748   2.941   5.318 -0.7692  1.0976 -1.9594
  999TIP3    H2 2962   6.709   2.795   5.313  0.8542  0.4848  0.7915
 1000TIP3   OH2 2963   6.133   4.883   1.129  0.2331 -0.1008 -0.0001
 1000TIP3    H1 2964   6.092   4.810   1.178  1.2796 -0.1217  0.8798
 1000TIP3    H2 2965   6.137   4.954   1.193 -1.8732  1.1719 -1.1925
 1001TIP3   OH2 2966   4.039   5.022   4.249 -0.2364  0.2349 -0.2158
 1001TIP3    H1 2967   4.016   5.024   4.157  0.1657  0.0019 -0.3232
 1001TIP3    H2 2968   4.024   4.931   4.276  1.4805 -0.1742 -0.5380
 1002TIP3   OH2 2969   3.967   4.287   3.900  0.5065 -0.1528  0.0521
 1002TIP3    H1 2970   3.988   4.316   3.811  1.5402 -2.0353 -0.3657
 1002TIP3    H2 2971   3.878   4.252   3.893 -0.7180  2.5696  0.5401
 1003TIP3   OH2 2972   3.435   6.133   5.607 -0.0789 -0.2204 -0.1567
 1003TIP3    H1 2973   3.387   6.052   5.626  1.2149 -0.3939  2.9122
 1003TIP3    H2 2974   3.376   6.203   5.635 -0.9111 -0.0377 -2.1614
 1004TIP3   OH2 2975   0.146   1.657   1.926 -0.1490  0.2560  0.5428
 1004TIP3    H1 2976   0.145   1.571   1.885  1.2536  0.8475 -0.8177
 1004TIP3    H2 2977   0.066   1.700   1.894  0.2735  0.2448 -0.5471
 1005TIP3   OH2 2978   3.210   1.496   4.355  0.8253  0.0703  0.3423
 1005TIP3    H1 2979   3.220   1.568   4.418  3.9752  0.1259 -0.0307
 1005TIP3    H2 2980   3.265   1.426   4.390  0.6509 -0.8257 -1.0888
 1006TIP3   OH2 2981   2.050   2.900   4.978  0.1528 -0.0921 -0.0969
 1006TIP3    H1 2982   2.026   2.872   5.066 -1.3400  0.4687 -0.3043
 1006TIP3    H2 2983   1.977   2.872   4.923  0.1954  1.2007 -0.8473
 1007TIP3   OH2 2984   5.487   1.229   5.033 -0.1807 -0.6637 -0.1984
 1007TIP3    H1 2985   5.416   1.184   4.988  0.4187 -1.3472 -0.4952
 1007TIP3    H2 2986   5.565   1.178   5.010  0.5271  0.5320 -0.5495
 1008TIP3   OH2 2987   6.236   6.449   1.211  0.0257 -0.1550  0.0422
 1008TIP3    H1 2988   6.200   6.525   1.256 -1.0963 -0.9147  0.4857
 1008TIP3    H2 2989   6.239   6.381   1.278  1.0073 -0.5042 -0.3470
 1009TIP3   OH2 2990   0.560   0.329   1.407 -0.0179 -0.2113  0.8875
 1009TIP3    H1 2991   0.640   0.287   1.377  0.4452  1.7736 -0.9456
 1009TIP3    H2 2992   0.490   0.288   1.355  0.2408  0.1743  0.2121
 1010TIP3   OH2 2993   1.646   2.222   2.858  0.2296 -0.1485  0.2066
 1010TIP3    H1 2994   1.557   2.240   2.889  0.4199 -0.2117  0.8081
 1010TIP3    H2 2995   1.636   2.146   2.801 -0.3388  0.8213 -1.0448
 1011TIP3   OH2 2996   1.398   2.173   3.755 -0.1642 -0.0054  0.0593
 1011TIP3    H1 2997   1.393   2.264   3.785 -2.2138  0.9390 -2.7455
 1011TIP3    H2 2998   1.478   2.170   3.703 -0.4773  0.4365 -0.4612
 1012TIP3   OH2 2999   5.579   1.076   1.307  0.7165 -0.2216  0.8750
 1012TIP3    H1 3000   5.635   1.037   1.240  0.4832 -0.8023  1.0126
 1012TIP3    H2 3001   5.639   1.108   1.373  0.9354  0.1000  0.5243
 1013TIP3   OH2 3002   6.338   4.474   3.773  0.0076  0.4388  0.1436
 1013TIP3    H1 3003   6.432   4.457   3.771 -0.0415  0.1881 -0.2382
 1013TIP3    H2 3004   6.299   4.400   3.725 -0.6840 -1.3765  3.2494
 1014TIP3   OH2 3005   2.496   6.059   4.916 -0.0745 -0.0346 -0.5030
 1014TIP3    H1 3006   2.530   6.133   4.966  1.1570  0.1139 -1.5043
 1014TIP3    H2 3007   2.428   6.021   4.972  1.2851  0.0717  1.3164
 1015TIP3   OH2 3008   1.956   6.200   1.634  0.0522  0.1945  0.0577
 1015TIP3    H1 3009   1.953   6.106   1.615 -0.0296  0.2283 -0.0963
 1015TIP3    H2 3010   2.036   6.231   1.592  0.0423  0.2074  0.0481
 1016TIP3   OH2 3011   5.729   4.966   4.791  0.1829  0.2747  0.2387
 1016TIP3    H1 3012   5.824   4.972   4.802  0.2287 -0.5013  0.2677
 1016TIP3    H2 3013   5.706   5.046   4.743  1.0477 -0.2061 -1.0191
 1017TIP3   OH2 3014   5.221   1.710   5.311 -0.0567 -0.1070 -0.4326
 1017TIP3    H1 3015   5.132   1.676   5.300  0.0819 -0.5773 -0.1213
 1017TIP3    H2 3016   5.251   1.728   5.222 -0.0490 -1.0319 -0.6234
 1018TIP3   OH2 3017   1.657   4.529   3.314 -0.1742  0.7585  0.3645
 1018TIP3    H1 3018   1.612   4.606   3.348 -0.9786  0.0884  0.8544
 1018TIP3    H2 3019   1.640   4.460   3.378  0.0355  0.0139 -0.3543
 1019TIP3   OH2 3020   1.371   4.672   5.740  0.3317  0.0302  0.1433
 1019TIP3    H1 3021   1.342   4.659   5.650 -1.6289 -1.1955  0.8977
 1019TIP3    H2 3022   1.313   4.740   5.775 -1.8780 -2.4535  1.6746
 1020TIP3   OH2 3023   2.845   5.499   3.583 -0.4852  0.0200  0.4335
 1020TIP3    H1 3024   2.870   5.529   3.671 -0.3119  0.4535  0.2424
 1020TIP3    H2 3025   2.781   5.430   3.598 -1.6777  1.1878  0.8763
 1021TIP3   OH2 3026   1.379   6.441   1.731  0.2191 -0.1397  0.3983
 1021TIP3    H1 3027   1.310   6.376   1.719 -0.2008  0.5311 -0.9686
 1021TIP3    H2 3028   1.335   6.515   1.774  0.1401  0.1658 -0.1957
 1022TIP3   OH2 3029   6.285   2.431   5.469 -0.2669 -0.7253  0.4801
 1022TIP3    H1 3030   6.306   2.341   5.444  2.3031 -0.1894  0.5027
 1022TIP3    H2 3031   6.241   2.467   5.392 -1.5659 -2.0254  0.5598
 1023TIP3   OH2 3032   6.258   4.253   1.927 -0.0898  0.0629 -0.2847
 1023TIP3    H1 3033   6.344   4.291   1.906 -1.1613  2.1862 -1.0216
 1023TIP3    H2 3034   6.201   4.283   1.857 -1.3100 -1.9626 -0.2263
 1024TIP3   OH2 3035   6.901   1.847   4.685 -0.1817  0.2057 -0.3855
 1024TIP3    H1 3036   6.873   1.938   4.695 -1.6117 -0.3714  1.1265
 1024TIP3    H2 3037   6.974   1.852   4.623 -1.8634  2.0808 -2.3778
 1025TIP3   OH2 3038   3.185   3.631   3.432 -0.1426 -0.2663 -0.4334
 1025TIP3    H1 3039   3.101   3.662   3.466 -0.2971 -0.4886 -0.6117
 1025TIP3    H2 3040   3.242   3.709   3.435  0.1700 -0.5051  1.3401
 1026TIP3   OH2 3041   3.457   2.572   3.884  0.2909 -0.2136 -0.0491
 1026TIP3    H1 3042   3.434   2.598   3.973  1.9665 -1.1072  0.6923
 1026TIP3    H2 3043   3.412   2.488   3.872 -1.0098  0.5400 -0.5580
 1027TIP3   OH2 3044   1.879   5.347   1.084  0.1318  0.0062 -0.2911
 1027TIP3    H1 3045   1.953   5.287   1.098 -0.1217 -0.3146 -0.3280
 1027TIP3    H2 3046   1.819   5.327   1.156  0.2473  0.5293 -0.0444
 1028TIP3   OH2 3047   1.498   5.435   3.103 -0.3501 -0.0163 -0.2956
 1028TIP3    H1 3048   1.553   5.494   3.051 -1.0642  1.4310  0.5467
 1028TIP3    H2 3049   1.561   5.376   3.146  0.6276  1.8541  0.9605
 1029TIP3   OH2 3050   6.617   0.153   2.865  0.3762 -0.3451  0.2514
 1029TIP3    H1 3051   6.629   0.066   2.905 -0.2071 -0.2560  0.6234
 1029TIP3    H2 3052   6.707   0.183   2.848  0.5648 -1.3442 -0.5850
 1030TIP3   OH2 3053   1.671   5.188   0.846 -0.8082  0.1329  0.2537
 1030TIP3    H1 3054   1.605   5.230   0.901 -0.1109  0.1108  1.1178
 1030TIP3    H2 3055   1.696   5.109   0.893 -1.5114 -0.8619 -0.9669
 1031TIP3   OH2 3056   4.514   5.336   1.819  0.4063 -0.0912 -0.1781
 1031TIP3    H1 3057   4.550   5.248   1.806  0.7174 -0.2380  1.4549
 1031TIP3    H2 3058   4.562   5.370   1.895  0.1093  1.3966 -0.6346
 1032TIP3   OH2 3059   3.918   2.817   2.751 -0.6922  0.5157 -0.4521
 1032TIP3    H1 3060   4.009   2.836   2.771 -0.7357 -2.3558  3.7769
 1032TIP3    H2 3061   3.874   2.902   2.756  1.3450  1.6057  0.1175
 1033TIP3   OH2 3062   7.141   1.423   4.236  0.4194 -0.8101  0.8408
 1033TIP3    H1 3063   7.168   1.513   4.224 -1.4016 -0.4805 -1.5642
 1033TIP3    H2 3064   7.104   1.420   4.324 -0.4444  1.0899  0.5785
 1034TIP3   OH2 3065   0.841   3.286   1.010 -0.2738 -0.1072 -0.1246
 1034TIP3    H1 3066   0.761   3.234   1.014 -0.5667  0.2435 -1.1043
 1034TIP3    H2 3067   0.906   3.228   0.970  0.4121 -0.9031  2.0192
 1035TIP3   OH2 3068   4.372   2.263   0.735  0.0755 -0.0489 -0.6107
 1035TIP3    H1 3069   4.405   2.178   0.706  0.5631  0.1959 -0.7900
 1035TIP3    H2 3070   4.447   2.304   0.778  0.0755  0.6065 -1.2243
 1036TIP3   OH2 3071   2.575   2.457   4.696  0.2572 -0.1496  0.3052
 1036TIP3    H1 3072   2.604   2.510   4.770  1.2106  0.3506 -0.4027
 1036TIP3    H2 3073   2.549   2.521   4.629  0.3446 -0.5786 -0.1459
 1037TIP3   OH2 3074   3.066   6.698   1.418 -0.2199  0.2099 -0.1600
 1037TIP3    H1 3075   3.156   6.667   1.417 -0.0915  0.5783  0.0238
 1037TIP3    H2 3076   3.054   6.736   1.505 -1.6566 -3.0733  1.2916
 1038TIP3   OH2 3077   4.860   4.836   5.073 -0.4515  0.2440 -0.0246
 1038TIP3    H1 3078   4.796   4.765   5.084  0.4130 -0.6846 -0.8055
 1038TIP3    H2 3079   4.935   4.794   5.031  0.2717  1.5344 -0.0599
 1039TIP3   OH2 3080   1.560   4.988   3.946  0.1727 -0.4572  0.0206
 1039TIP3    H1 3081   1.569   5.012   4.038  2.2116 -0.4049 -0.1348
 1039TIP3    H2 3082   1.515   4.904   3.947 -2.5089  0.8654  0.8458
 1040TIP3   OH2 3083   2.357   0.261   4.571  0.2070 -0.4339 -0.3762
 1040TIP3    H1 3084   2.434   0.317   4.576  2.4905 -3.3448 -0.4484
 1040TIP3    H2 3085   2.337   0.239   4.662 -1.1221  0.9215 -0.2946
 1041TIP3   OH2 3086   1.335   0.301   2.858 -0.3105  0.3294 -0.2880
 1041TIP3    H1 3087   1.370   0.250   2.931 -0.1232  0.0761 -0.5533
 1041TIP3    H2 3088   1.241   0.309   2.877 -0.3960 -0.3768 -0.3958
 1042TIP3   OH2 3089   6.130   4.084   2.100  0.7738  0.0306 -0.0771
 1042TIP3    H1 3090   6.055   4.134   2.132 -1.0888 -1.3736 -1.8702
 1042TIP3    H2 3091   6.172   4.141   2.036  0.8793  0.6168  0.5123
 1043TIP3   OH2 3092   0.208   2.934   3.851 -0.1517  0.3290 -0.4485
 1043TIP3    H1 3093   0.160   2.855   3.874 -1.7658  1.2989 -0.2954
 1043TIP3    H2 3094   0.236   2.919   3.761  2.5775 -1.7684  0.6228
 1044TIP3   OH2 3095   1.878   1.584   4.027 -0.1846  0.2067 -0.4398
 1044TIP3    H1 3096   1.900   1.492   4.045 -0.6768  0.2232  0.2986
 1044TIP3    H2 3097   1.795   1.598   4.072 -0.1793  0.9824 -0.6573
 1045TIP3   OH2 3098   6.771   3.866   2.347  0.0797  0.3784  0.4289
 1045TIP3    H1 3099   6.855   3.837   2.313 -0.2683  0.5753 -0.6432
 1045TIP3    H2 3100   6.738   3.927   2.281 -0.1177  1.6566  1.6584
 1046TIP3   OH2 3101   2.736   3.003   0.148  0.4771 -0.4470  0.2705
 1046TIP3    H1 3102   2.676   3.026   0.220  0.6973  1.3886 -0.0789
 1046TIP3    H2 3103   2.688   3.026   0.069  1.2572  0.0995 -0.0526
 1047TIP3   OH2 3104   4.352   5.344   3.330 -0.6966 -0.3162 -0.1427
 1047TIP3    H1 3105   4.380   5.341   3.238  4.6020 -0.1962  1.1932
 1047TIP3    H2 3106   4.357   5.436   3.354 -0.7684 -0.5007  0.6109
 1048TIP3   OH2 3107   1.694   5.848   5.054  0.0104 -0.1821 -0.1174
 1048TIP3    H1 3108   1.705   5.788   4.980  0.9984 -0.7923  0.5006
 1048TIP3    H2 3109   1.728   5.932   5.023  0.0668 -0.3354 -0.4713
 1049TIP3   OH2 3110   0.452   1.003  -0.004  0.2671  0.2316 -0.4793
 1049TIP3    H1 3111   0.486   0.991   0.085  0.6622 -0.5679 -0.7321
 1049TIP3    H2 3112   0.457   1.097  -0.019 -1.3523  0.6102  0.9604
 1050TIP3   OH2 3113   6.988   4.538   3.245  0.4779 -0.1880  0.1850
 1050TIP3    H1 3114   6.949   4.612   3.291  1.2633  0.2141  0.2254
 1050TIP3    H2 3115   7.078   4.566   3.227  0.3264 -0.5278 -1.1768
 1051TIP3   OH2 3116   1.618   4.688   1.784 -0.4656  0.3992  0.1231
 1051TIP3    H1 3117   1.711   4.699   1.806 -0.3606  2.0252 -0.9779
 1051TIP3    H2 3118   1.618   4.665   1.691 -1.0651 -3.0659  0.8497
 1052TIP3   OH2 3119   5.966   6.590   2.884 -0.6743 -0.4677  0.2831
 1052TIP3    H1 3120   5.908   6.665   2.887  0.9673  1.0496 -2.2382
 1052TIP3    H2 3121   6.012   6.592   2.968 -2.7437 -0.4945  1.4591
 1053TIP3   OH2 3122   5.753   3.691   4.377  0.2071  0.0495 -0.0355
 1053TIP3    H1 3123   5.739   3.601   4.349 -1.6661  0.6467 -1.2396
 1053TIP3    H2 3124   5.847   3.707   4.364  0.1559 -1.0024 -2.1623
 1054TIP3   OH2 3125   6.476   4.902   1.744 -0.3925  0.1722  0.0450
 1054TIP3    H1 3126   6.444   4.846   1.673  2.9819 -0.0453 -1.5397
 1054TIP3    H2 3127   6.450   4.990   1.720 -0.4078 -0.0488 -0.7581
 1055TIP3   OH2 3128   2.787   4.179   0.704  0.1008  0.3422  0.1832
 1055TIP3    H1 3129   2.774   4.144   0.616 -1.4751 -0.9221  0.8735
 1055TIP3    H2 3130   2.773   4.104   0.762 -2.0284  1.7730  1.6540
 1056TIP3   OH2 3131   1.391   5.143   2.590  0.0691  0.0688 -0.7431
 1056TIP3    H1 3132   1.296   5.151   2.587 -0.0639 -0.3237  1.0660
 1056TIP3    H2 3133   1.420   5.223   2.633  0.6412  0.5271 -1.9513
 1057TIP3   OH2 3134   7.096   4.426   0.643 -0.6006  0.0120 -0.2930
 1057TIP3    H1 3135   7.156   4.370   0.693  0.2669  0.5298 -0.7421
 1057TIP3    H2 3136   7.151   4.470   0.580 -1.2397  1.5569  0.1834
 1058TIP3   OH2 3137   3.258   4.300   5.736 -0.1051  0.1190 -0.2254
 1058TIP3    H1 3138   3.205   4.347   5.672 -0.3659 -0.4787 -0.4548
 1058TIP3    H2 3139   3.219   4.212   5.740  0.8547 -0.3330 -0.4011
 1059TIP3   OH2 3140   3.596   6.253   0.854  0.1075 -0.1610 -0.1713
 1059TIP3    H1 3141   3.618   6.168   0.817  0.9106  0.7067 -1.8292
 1059TIP3    H2 3142   3.547   6.297   0.785  2.1911  1.7597 -0.5617
 1060TIP3   OH2 3143   2.777   2.790   3.701 -0.4077 -0.3770 -0.3316
 1060TIP3    H1 3144   2.685   2.806   3.679 -0.3821  2.1104  0.9169
 1060TIP3    H2 3145   2.827   2.835   3.632 -0.1900 -0.0361  0.0389
 1061TIP3   OH2 3146   4.520   5.136   2.810 -0.2710  0.1283  0.3809
 1061TIP3    H1 3147   4.579   5.067   2.839  2.5839  2.0581 -0.4312
 1061TIP3    H2 3148   4.491   5.108   2.723  0.3832 -0.3430  0.3090
 1062TIP3   OH2 3149   6.268   6.011   0.867 -0.3137 -0.3737  0.0696
 1062TIP3    H1 3150   6.233   5.968   0.945  0.4096  0.0761  0.6502
 1062TIP3    H2 3151   6.345   5.960   0.844  0.8338  0.8489  1.0501
 1063TIP3   OH2 3152   4.170   5.587   1.543  0.0835  0.0624 -0.5989
 1063TIP3    H1 3153   4.105   5.637   1.493  0.0410  0.4978 -0.1097
 1063TIP3    H2 3154   4.251   5.596   1.493  0.2379  1.1877 -0.1675
 1064TIP3   OH2 3155   4.297   1.190   4.413  0.7502  0.0683 -0.0648
 1064TIP3    H1 3156   4.341   1.271   4.386 -1.5213  1.0262 -1.2195
 1064TIP3    H2 3157   4.339   1.166   4.495  3.1514  1.0305 -0.9135
 1065TIP3   OH2 3158   6.220   5.690   5.698 -0.3842 -0.5280  0.0144
 1065TIP3    H1 3159   6.307   5.658   5.675  1.1351  2.8353  0.4847
 1065TIP3    H2 3160   6.216   5.685   5.793  0.2573  1.3542  0.1763
 1066TIP3   OH2 3161   1.399   1.001   4.751 -0.0731 -0.2426 -0.1354
 1066TIP3    H1 3162   1.367   1.081   4.710 -1.0373 -0.4612  0.1691
 1066TIP3    H2 3163   1.371   0.931   4.691  3.3876 -0.1921 -2.0269
 1067TIP3   OH2 3164   2.866   5.997   1.518  0.3863 -0.0623 -0.4338
 1067TIP3    H1 3165   2.817   5.970   1.595  0.5414 -0.1740 -0.3726
 1067TIP3    H2 3166   2.938   6.050   1.552 -1.1437  2.3004 -0.7011
 1068TIP3   OH2 3167   6.234   2.520   1.380 -0.5326 -0.6546 -0.2704
 1068TIP3    H1 3168   6.174   2.507   1.306 -2.5201 -0.2621  1.1619
 1068TIP3    H2 3169   6.250   2.614   1.382 -0.9184 -0.5878  0.0653
 1069TIP3   OH2 3170   5.420   6.326   3.674  0.1510 -0.2421  0.1890
 1069TIP3    H1 3171   5.501   6.348   3.629  0.5651 -1.1766  0.4578
 1069TIP3    H2 3172   5.354   6.322   3.605  0.3274  0.5120 -0.0336
 1070TIP3   OH2 3173   5.873   3.975   1.991  0.1293  0.2176  0.0196
 1070TIP3    H1 3174   5.864   3.912   2.062 -0.6137  0.3751  0.0718
 1070TIP3    H2 3175   5.968   3.982   1.977  0.2347 -2.4004 -1.2979
 1071TIP3   OH2 3176   3.833   2.469   4.377 -0.2659 -0.2335  0.2826
 1071TIP3    H1 3177   3.786   2.452   4.295  1.2507 -1.3504 -0.4142
 1071TIP3    H2 3178   3.811   2.560   4.399  0.1588  0.4758 -1.9842
 1072TIP3   OH2 3179   5.353   6.511   5.088  0.1070  0.1099 -0.3800
 1072TIP3    H1 3180   5.277   6.459   5.063  0.1858 -0.8918  1.3298
 1072TIP3    H2 3181   5.353   6.509   5.184  0.1595  3.2084 -0.1947
 1073TIP3   OH2 3182   0.144   2.860   2.190 -0.7247 -0.1848 -0.0164
 1073TIP3    H1 3183   0.211   2.861   2.122  0.2765 -0.9315  0.9375
 1073TIP3    H2 3184   0.121   2.767   2.200 -1.0981 -0.0465  0.4370
 1074TIP3   OH2 3185   0.635   0.872   1.443  0.3124  0.1397 -0.6636
 1074TIP3    H1 3186   0.686   0.827   1.511 -0.0908 -0.6350 -0.8586
 1074TIP3    H2 3187   0.557   0.904   1.488 -0.0620 -0.5659 -0.7893
 1075TIP3   OH2 3188   5.707   0.176   4.996 -1.2402  0.3408  0.5289
 1075TIP3    H1 3189   5.722   0.193   5.090 -1.3362 -2.2999  1.1029
 1075TIP3    H2 3190   5.758   0.243   4.952  0.4413  0.4881  2.4989
 1076TIP3   OH2 3191   3.072   4.619   1.706 -0.2338  0.3412 -0.2102
 1076TIP3    H1 3192   3.149   4.561   1.712 -1.5821 -1.5611 -0.3237
 1076TIP3    H2 3193   3.025   4.588   1.628 -1.8658  0.4950  0.6794
 1077TIP3   OH2 3194   3.835   0.513   4.632  0.5779  0.0555 -0.1348
 1077TIP3    H1 3195   3.887   0.590   4.652  0.4990  0.5856 -1.8523
 1077TIP3    H2 3196   3.763   0.545   4.578 -1.6099 -0.6516  2.1305
 1078TIP3   OH2 3197   3.360   2.594   4.572 -0.1979 -0.4602 -0.4794
 1078TIP3    H1 3198   3.348   2.689   4.565  0.5403 -0.2970  0.2767
 1078TIP3    H2 3199   3.273   2.557   4.557 -0.6060  0.3710 -0.1903
 1079TIP3   OH2 3200   2.476   4.154   3.829  0.0768 -0.2251  0.3766
 1079TIP3    H1 3201   2.523   4.204   3.763 -0.8258  2.2257  1.4445
 1079TIP3    H2 3202   2.514   4.183   3.912 -1.4862 -0.2078  1.1171
 1080TIP3   OH2 3203   6.276   6.685   5.504 -0.1785 -0.1373 -0.4646
 1080TIP3    H1 3204   6.303   6.773   5.477  0.9943 -0.2319  0.2975
 1080TIP3    H2 3205   6.212   6.701   5.574 -0.9728  0.0927 -1.2232
 1081TIP3   OH2 3206   5.196   3.169   2.788 -0.0965 -0.4934  0.1658
 1081TIP3    H1 3207   5.254   3.153   2.863 -0.0216  2.1266  0.7680
 1081TIP3    H2 3208   5.233   3.117   2.717  0.6716 -1.9242  1.5691
 1082TIP3   OH2 3209   0.043   4.118   4.049  0.2102  0.3394  0.0449
 1082TIP3    H1 3210   0.106   4.147   3.983 -0.8200  2.2996 -0.1554
 1082TIP3    H2 3211   0.095   4.070   4.113  1.5307  0.0129 -1.2211
 1083TIP3   OH2 3212   5.510   4.045   1.101  0.3214  0.0767  0.2831
 1083TIP3    H1 3213   5.500   4.140   1.091 -1.4876 -0.0458  0.5288
 1083TIP3    H2 3214   5.536   4.033   1.192  0.1341  0.3161  0.3702
 1084TIP3   OH2 3215   3.941   5.495   2.710 -0.0755  0.0276 -0.7602
 1084TIP3    H1 3216   4.002   5.565   2.734  0.6842 -0.4061 -1.3610
 1084TIP3    H2 3217   3.873   5.539   2.660  0.2227  0.3945 -0.8530
 1085TIP3   OH2 3218   6.141   6.031   4.388 -0.0647  0.2145 -0.2689
 1085TIP3    H1 3219   6.109   5.942   4.377  1.3373 -0.1717 -1.3879
 1085TIP3    H2 3220   6.090   6.083   4.326 -0.6517  0.1412  0.1476
 1086TIP3   OH2 3221   3.627   5.528   0.729  0.0038  0.2208  0.2364
 1086TIP3    H1 3222   3.570   5.596   0.692 -0.9957  0.0604  1.4137
 1086TIP3    H2 3223   3.701   5.524   0.669  0.1506  2.4276  0.1938
 1087TIP3   OH2 3224   4.706   3.192   1.199 -0.2205  0.2802  0.0223
 1087TIP3    H1 3225   4.698   3.143   1.281  0.3516  0.4760  0.1997
 1087TIP3    H2 3226   4.783   3.248   1.212 -0.5539  0.8362 -0.3759
 1088TIP3   OH2 3227   7.173   3.891   4.954  0.2262 -0.1333  0.0011
 1088TIP3    H1 3228   7.252   3.944   4.950 -0.2351  0.4890 -2.0251
 1088TIP3    H2 3229   7.107   3.948   4.993  0.4450 -0.2389  0.5411
 1089TIP3   OH2 3230   5.937   6.259   5.118  0.0780 -0.4696 -0.3101
 1089TIP3    H1 3231   5.860   6.290   5.070 -0.3274 -1.6521 -0.4552
 1089TIP3    H2 3232   5.999   6.235   5.049  0.8162  1.0045 -0.1920
 1090TIP3   OH2 3233   2.812   2.119   2.200  0.1440 -0.4709 -0.5540
 1090TIP3    H1 3234   2.877   2.171   2.154  0.5721 -0.3578  0.1668
 1090TIP3    H2 3235   2.858   2.038   2.224  0.3049  0.0025  0.7822
 1091TIP3   OH2 3236   1.508   2.897   1.011 -0.2548 -0.3877  0.8017
 1091TIP3    H1 3237   1.446   2.919   1.080  0.5053  0.3665  1.2664
 1091TIP3    H2 3238   1.517   2.977   0.959 -0.1441 -0.6792  0.3653
 1092TIP3   OH2 3239   0.012   5.610   0.830 -0.0589 -0.5022 -0.1910
 1092TIP3    H1 3240   0.083   5.633   0.890 -0.2035 -0.3282 -0.0834
 1092TIP3    H2 3241   0.032   5.658   0.750  0.0595 -0.6229 -0.2338
 1093TIP3   OH2 3242   5.098   0.167   4.052 -0.6369  0.0734 -0.2568
 1093TIP3    H1 3243   5.063   0.132   4.133 -0.0034 -1.4152 -0.5997
 1093TIP3    H2 3244   5.183   0.204   4.076  0.5144 -2.2392 -0.5635
 1094TIP3   OH2 3245   5.963   1.337   0.169  0.0818 -0.0441 -0.2880
 1094TIP3    H1 3246   5.926   1.282   0.101  0.7434  0.0177 -0.7102
 1094TIP3    H2 3247   5.961   1.426   0.133  0.6160 -0.0380 -0.3225
 1095TIP3   OH2 3248   2.763   2.713   1.632  0.7578  0.1386  0.2630
 1095TIP3    H1 3249   2.698   2.752   1.573  1.9253  0.2028 -1.0328
 1095TIP3    H2 3250   2.847   2.738   1.594  1.5434 -0.3869  1.6098
 1096TIP3   OH2 3251   0.142   6.512   5.132 -0.1977  0.0291 -0.2918
 1096TIP3    H1 3252   0.095   6.429   5.139  0.4793 -0.3185  0.1553
 1096TIP3    H2 3253   0.200   6.501   5.057  0.1683 -0.0418 -0.0005
 1097TIP3   OH2 3254   7.102   5.518   4.453 -0.0227  0.0902 -0.4589
 1097TIP3    H1 3255   7.144   5.436   4.427  1.2892  0.4583  0.3762
 1097TIP3    H2 3256   7.165   5.559   4.514 -0.0675  2.2805 -1.7668
 1098TIP3   OH2 3257   7.123   4.099   0.613 -0.8194 -0.1852  0.6097
 1098TIP3    H1 3258   7.125   4.075   0.521  0.7612 -0.0426  0.5826
 1098TIP3    H2 3259   7.150   4.019   0.659 -1.1850 -0.1327  0.9200
 1099TIP3   OH2 3260   5.048   6.572   5.389 -0.5672  0.1571 -0.0492
 1099TIP3    H1 3261   4.994   6.530   5.322  0.8665 -0.0577 -1.1171
 1099TIP3    H2 3262   5.011   6.660   5.398 -1.1507 -0.0171 -0.6738
 1100TIP3   OH2 3263   1.611   4.370   1.030 -0.0515  0.0586  0.0931
 1100TIP3    H1 3264   1.572   4.456   1.050  0.5153  0.5641 -0.8939
 1100TIP3    H2 3265   1.657   4.346   1.111 -2.5139 -0.6522  1.3535
 1101TIP3   OH2 3266   5.771   1.678   4.120  0.5751 -0.2132 -0.0625
 1101TIP3    H1 3267   5.820   1.709   4.196  1.0795  1.2122 -0.9364
 1101TIP3    H2 3268   5.828   1.612   4.080  0.8315 -0.1109  0.1327
 1102TIP3   OH2 3269   0.819   4.927   4.962 -0.0516 -0.0357  0.1629
 1102TIP3    H1 3270   0.827   4.853   4.902  0.4496  1.6023 -1.9162
 1102TIP3    H2 3271   0.740   4.973   4.934 -0.6334  0.0094  1.7391
 1103TIP3   OH2 3272   3.184   4.934   5.377  0.3898 -0.1708  0.4442
 1103TIP3    H1 3273   3.109   4.988   5.352  0.9108  0.9782  1.2371
 1103TIP3    H2 3274   3.252   4.957   5.314  0.4393 -0.3598  0.4270
 1104TIP3   OH2 3275   2.324   4.515   3.653  0.0551  0.2400  0.4077
 1104TIP3    H1 3276   2.269   4.580   3.610 -0.9329  0.0915  1.3841
 1104TIP3    H2 3277   2.352   4.556   3.735  2.2546  0.6777 -0.4954
 1105TIP3   OH2 3278   0.252   6.568   3.401 -0.2940  0.2206 -0.3532
 1105TIP3    H1 3279   0.315   6.592   3.469  1.3490  0.5167 -1.9354
 1105TIP3    H2 3280   0.169   6.604   3.433  0.1739 -0.6211  2.0224
 1106TIP3   OH2 3281   2.999   0.383   0.797  0.2687  0.7146 -0.3607
 1106TIP3    H1 3282   3.029   0.317   0.735 -0.8379  1.2113 -1.4704
 1106TIP3    H2 3283   2.947   0.334   0.861  1.2770  0.2239  0.1016
 1107TIP3   OH2 3284   3.352   5.154   5.744  0.4545 -0.4725 -0.0207
 1107TIP3    H1 3285   3.264   5.171   5.710  0.1143 -0.2420  0.9317
 1107TIP3    H2 3286   3.368   5.226   5.806  0.4059 -1.7193  1.4884
 1108TIP3   OH2 3287   6.309   0.980   1.063 -0.1675 -0.1425  0.2691
 1108TIP3    H1 3288   6.278   0.926   0.990  0.2495 -0.3433  0.2405
 1108TIP3    H2 3289   6.400   0.955   1.075 -0.1286  0.1571  0.6211
 1109TIP3   OH2 3290   3.330   3.399   0.498  0.4997 -0.0840  0.0214
 1109TIP3    H1 3291   3.342   3.414   0.404 -2.1960 -0.2323 -0.4306
 1109TIP3    H2 3292   3.391   3.460   0.540 -0.0554  1.8760 -1.8254
 1110TIP3   OH2 3293   1.801   0.115   2.775 -0.4829  0.4340  0.3113
 1110TIP3    H1 3294   1.887   0.145   2.747 -0.5509  0.7674  0.4533
 1110TIP3    H2 3295   1.811   0.096   2.869  0.5336 -3.4844 -0.4249
 1111TIP3   OH2 3296   6.762   1.781   1.540 -0.0231 -0.1073  0.3322
 1111TIP3    H1 3297   6.756   1.747   1.451  0.3465  1.7764 -0.4706
 1111TIP3    H2 3298   6.839   1.839   1.538  0.4512 -0.6215  2.0978
 1112TIP3   OH2 3299   6.064   5.472   0.744  0.3686 -0.0991 -0.1795
 1112TIP3    H1 3300   6.035   5.562   0.757 -2.5112 -1.1011  1.1555
 1112TIP3    H2 3301   6.104   5.446   0.827 -0.2286 -0.4946 -0.0053
 1113TIP3   OH2 3302   3.568   2.976   2.090 -1.3334 -0.5279  0.6611
 1113TIP3    H1 3303   3.593   3.048   2.147 -0.7578  0.2399 -0.5126
 1113TIP3    H2 3304   3.632   2.907   2.107 -0.8828 -0.1251  0.6057
 1114TIP3   OH2 3305   0.285   6.637   1.202 -0.7386  0.1934  0.5014
 1114TIP3    H1 3306   0.304   6.544   1.198  0.9087  0.4647  0.9929
 1114TIP3    H2 3307   0.190   6.643   1.196 -0.7648 -1.3064 -2.8670
 1115TIP3   OH2 3308   3.525   6.037   1.610  0.0033  0.0973 -0.2073
 1115TIP3    H1 3309   3.552   5.972   1.546  0.7828 -0.3748  0.5676
 1115TIP3    H2 3310   3.480   5.986   1.678  0.4639  0.3860  0.3198
 1116TIP3   OH2 3311   3.533   1.717   2.393 -0.5127  0.1877 -0.0797
 1116TIP3    H1 3312   3.489   1.687   2.472 -0.6649  1.5612  0.3964
 1116TIP3    H2 3313   3.587   1.791   2.423 -0.1323  0.3648 -1.1578
 1117TIP3   OH2 3314   4.225   0.736   4.985 -0.4990 -0.5188 -0.5345
 1117TIP3    H1 3315   4.218   0.642   4.971  0.6784 -0.5156 -1.3171
 1117TIP3    H2 3316   4.298   0.763   4.929 -1.8499  1.1246 -1.6042
 1118TIP3   OH2 3317   3.442   4.550   0.333 -0.2791  0.0886 -0.1811
 1118TIP3    H1 3318   3.404   4.539   0.246 -0.8913  0.9544 -0.0330
 1118TIP3    H2 3319   3.536   4.537   0.319 -0.5440 -1.6168 -0.6262
 1119TIP3   OH2 3320   2.251   4.712   3.473 -0.5459 -0.2387 -0.0159
 1119TIP3    H1 3321   2.303   4.788   3.446 -1.0394  0.2569  0.4068
 1119TIP3    H2 3322   2.202   4.687   3.395  0.1204 -0.5403 -0.3402
 1120TIP3   OH2 3323   5.546   5.262   4.768  0.0885 -0.2333 -0.3503
 1120TIP3    H1 3324   5.560   5.233   4.858 -0.7828  0.2694 -0.0380
 1120TIP3    H2 3325   5.450   5.270   4.760  0.2345  1.6015 -0.7042
 1121TIP3   OH2 3326   0.146   2.806   0.003 -0.2832  0.6594  0.3666
 1121TIP3    H1 3327   0.188   2.892   0.002 -0.9986  1.1139  3.0073
 1121TIP3    H2 3328   0.164   2.771   0.090  0.8307 -2.3669 -0.9133
 1122TIP3   OH2 3329   7.129   3.743   1.992  0.0310 -0.1247 -0.4468
 1122TIP3    H1 3330   7.147   3.815   1.932  0.9542 -0.7746 -0.9873
 1122TIP3    H2 3331   7.215   3.704   2.009 -0.3556 -0.6179  0.4532
 1123TIP3   OH2 3332   1.040   5.612   5.750  0.5989  0.0090  0.1064
 1123TIP3    H1 3333   0.962   5.652   5.788 -0.4047 -0.3259 -1.4895
 1123TIP3    H2 3334   1.047   5.527   5.793  0.5301  0.3489  0.7987
 1124TIP3   OH2 3335   7.082   0.683   1.630  0.1314 -0.0147  0.1427
 1124TIP3    H1 3336   7.089   0.640   1.715  0.3739  0.0727  0.1689
 1124TIP3    H2 3337   7.173   0.688   1.598  0.1060  0.4585  0.1325
 1125TIP3   OH2 3338   2.924   6.389   4.773  0.8521  0.2270  0.0327
 1125TIP3    H1 3339   2.976   6.417   4.697  0.0198  1.9063  0.0155
 1125TIP3    H2 3340   2.894   6.301   4.750  1.8502  0.1124 -0.9205
 1126TIP3   OH2 3341   4.238   6.500   1.855  0.2585 -0.0018 -0.0766
 1126TIP3    H1 3342   4.323   6.499   1.899 -0.4941  0.5417  1.4606
 1126TIP3    H2 3343   4.176   6.525   1.923 -1.3258 -1.5666 -0.8646
 1127TIP3   OH2 3344   4.134   2.369   4.771  0.3724 -0.0983 -0.7154
 1127TIP3    H1 3345   4.090   2.422   4.705  0.7134  0.3260 -0.6087
 1127TIP3    H2 3346   4.220   2.411   4.782  0.3256 -0.1665 -0.0155
 1128TIP3   OH2 3347   0.042   5.500   2.807  0.3905  0.0729 -0.1350
 1128TIP3    H1 3348   0.066   5.479   2.897 -1.1150  0.1747  0.3261
 1128TIP3    H2 3349   0.043   5.596   2.805 -0.8149  0.1170  0.1777
 1129TIP3   OH2 3350   2.377   0.642   3.455  0.3367 -0.2085  0.1895
 1129TIP3    H1 3351   2.329   0.707   3.506  0.4818 -1.5138  2.0700
 1129TIP3    H2 3352   2.469   0.656   3.479  0.4713 -0.4621 -0.1669
 1130TIP3   OH2 3353   0.709   1.022   4.296 -0.0331  0.0502 -0.0375
 1130TIP3    H1 3354   0.745   0.937   4.274 -0.3471  0.2519 -1.3985
 1130TIP3    H2 3355   0.700   1.020   4.392 -0.7839 -1.7420 -0.1051
 1131TIP3   OH2 3356   2.568   5.190   0.499 -0.2080 -0.3136 -0.0895
 1131TIP3    H1 3357   2.620   5.267   0.522 -0.1748  0.1312 -1.5770
 1131TIP3    H2 3358   2.477   5.217   0.511 -0.1671 -0.4563  0.5907
 1132TIP3   OH2 3359   3.034   4.577   0.295 -0.4146  0.3334  0.1921
 1132TIP3    H1 3360   2.964   4.586   0.231  0.3304  0.0920 -0.6723
 1132TIP3    H2 3361   3.075   4.493   0.275  0.6222  0.8320  0.1698
 1133TIP3   OH2 3362   4.855   0.566   4.640 -0.2835 -0.0639 -0.4601
 1133TIP3    H1 3363   4.919   0.574   4.711 -1.1707 -2.3214  0.6940
 1133TIP3    H2 3364   4.878   0.637   4.580  0.6258  1.8458  1.9520
 1134TIP3   OH2 3365   2.354   2.010   2.444 -0.3966  0.3968  0.0535
 1134TIP3    H1 3366   2.343   2.072   2.371  1.6777  0.5164 -0.2100
 1134TIP3    H2 3367   2.429   1.956   2.418 -1.2462 -1.2877  0.9513
 1135TIP3   OH2 3368   1.728   5.502   0.064  0.3329 -0.1184  0.4251
 1135TIP3    H1 3369   1.731   5.576   0.004 -0.4650 -0.0399  0.4722
 1135TIP3    H2 3370   1.654   5.450   0.035 -0.9827  0.6715  2.1843
 1136TIP3   OH2 3371   3.217   4.147   1.381 -0.3070  0.3820 -0.0768
 1136TIP3    H1 3372   3.125   4.165   1.365 -0.4003  0.5257  0.5851
 1136TIP3    H2 3373   3.264   4.197   1.315 -0.6665  1.0560  0.1757
 1137TIP3   OH2 3374   1.024   4.408   0.340 -0.1491 -0.0586  0.1940
 1137TIP3    H1 3375   0.933   4.428   0.362 -0.1196 -0.8451  1.1136
 1137TIP3    H2 3376   1.032   4.314   0.359  0.5283 -0.2612 -1.0231
 1138TIP3   OH2 3377   1.367   3.412   2.996  0.2848 -0.0973 -0.4725
 1138TIP3    H1 3378   1.354   3.503   3.025  1.2289  0.5917 -2.0960
 1138TIP3    H2 3379   1.449   3.413   2.948  1.0715 -2.1587  0.6921
 1139TIP3   OH2 3380   1.037   1.535   4.376 -0.1494 -0.5080 -0.1627
 1139TIP3    H1 3381   1.096   1.510   4.305 -0.2061 -1.5123  0.1225
 1139TIP3    H2 3382   1.095   1.571   4.443 -0.1125  0.6040 -0.7584
 1140TIP3   OH2 3383   5.438   1.889   1.706  0.1978 -0.1213 -0.1655
 1140TIP3    H1 3384   5.386   1.953   1.657 -1.2790  0.1014  1.6060
 1140TIP3    H2 3385   5.422   1.806   1.661 -0.1098  0.2701 -0.7968
 1141TIP3   OH2 3386   0.883   2.064   0.209 -0.0715 -0.6680  0.2021
 1141TIP3    H1 3387   0.907   2.106   0.292 -0.7101  0.9778 -0.4224
 1141TIP3    H2 3388   0.793   2.093   0.193  0.2700 -0.4476 -1.3965
 1142TIP3   OH2 3389   1.669   5.712   5.786  0.2510  0.1048  0.5942
 1142TIP3    H1 3390   1.576   5.733   5.773  0.5039  0.3832 -1.0802
 1142TIP3    H2 3391   1.684   5.635   5.731  0.4996 -1.4936  2.7540
 1143TIP3   OH2 3392   1.234   2.689   4.775  0.3189  0.2791 -0.1327
 1143TIP3    H1 3393   1.181   2.712   4.698 -1.8208  1.4361  1.5799
 1143TIP3    H2 3394   1.179   2.712   4.850  2.6507 -0.0123  1.7845
 1144TIP3   OH2 3395   6.736   0.499   0.294 -0.2177 -0.0554  0.0162
 1144TIP3    H1 3396   6.658   0.497   0.349  0.1679 -0.5266  0.5663
 1144TIP3    H2 3397   6.727   0.422   0.237  0.6589 -1.1322  1.2691
 1145TIP3   OH2 3398   0.732   6.131   5.331 -0.1406  0.2361 -0.1987
 1145TIP3    H1 3399   0.694   6.218   5.339 -1.3099 -0.3485  1.0252
 1145TIP3    H2 3400   0.824   6.146   5.310 -0.0885  1.7838  1.0100
 1146TIP3   OH2 3401   1.424   1.275   0.287 -0.3476  1.0008  0.0308
 1146TIP3    H1 3402   1.417   1.220   0.209  0.5705  0.9972 -0.0612
 1146TIP3    H2 3403   1.374   1.354   0.266  0.5248  1.3350 -0.8718
 1147TIP3   OH2 3404   2.222   3.544   0.883  0.0601  0.8759  0.2895
 1147TIP3    H1 3405   2.184   3.460   0.909 -1.0220  0.8653 -1.2123
 1147TIP3    H2 3406   2.309   3.544   0.921  0.7088 -1.6252 -0.9975
 1148TIP3   OH2 3407   5.771   3.142   4.198  0.3568 -0.2277 -0.0815
 1148TIP3    H1 3408   5.785   3.194   4.120  2.8831  1.1210  1.1687
 1148TIP3    H2 3409   5.834   3.071   4.192  0.3639 -0.2847  0.5787
 1149TIP3   OH2 3410   2.878   0.601   0.153 -0.0580 -0.1335 -0.2575
 1149TIP3    H1 3411   2.950   0.545   0.122  0.9534  0.1705  1.4124
 1149TIP3    H2 3412   2.882   0.594   0.248 -0.1573  2.4762  0.0023
 1150TIP3   OH2 3413   1.425   6.018   1.760 -0.3846 -0.6582 -0.3481
 1150TIP3    H1 3414   1.487   6.060   1.699  0.0793  0.2940  0.7379
 1150TIP3    H2 3415   1.481   5.975   1.824 -0.8558 -0.7070  0.0304
 1151TIP3   OH2 3416   2.320   0.181   5.293 -0.5439 -0.2038 -0.4887
 1151TIP3    H1 3417   2.224   0.181   5.283 -0.7041  2.4752  0.4463
 1151TIP3    H2 3418   2.353   0.185   5.203 -1.4155  1.8909 -0.7666
 1152TIP3   OH2 3419   2.373   4.863   5.325  0.1190 -0.2943 -0.3440
 1152TIP3    H1 3420   2.384   4.815   5.407  0.1992  0.3696  0.0413
 1152TIP3    H2 3421   2.330   4.801   5.267 -0.2202 -0.6768  0.2988
 1153TIP3   OH2 3422   5.879   2.225   1.702 -0.0363  0.3564 -0.0366
 1153TIP3    H1 3423   5.951   2.206   1.762  0.9828  1.4371 -0.8553
 1153TIP3    H2 3424   5.807   2.254   1.758 -0.1370 -1.5259  0.8629
 1154TIP3   OH2 3425   0.300   6.758   4.945  0.2237  0.3436 -0.6002
 1154TIP3    H1 3426   0.332   6.668   4.935 -1.7816 -0.2690 -2.0941
 1154TIP3    H2 3427   0.333   6.785   5.031  0.3786 -2.0211  0.1729
 1155TIP3   OH2 3428   2.464   6.137   4.077 -0.3462  0.6789 -0.6810
 1155TIP3    H1 3429   2.494   6.196   4.146  2.2480 -0.3399 -0.8113
 1155TIP3    H2 3430   2.440   6.056   4.124  2.3856 -0.3810 -0.8887
 1156TIP3   OH2 3431   5.631   6.088   3.845  0.4467 -0.0584  0.3822
 1156TIP3    H1 3432   5.617   6.164   3.902 -0.0818 -0.9914  1.5518
 1156TIP3    H2 3433   5.701   6.115   3.786 -1.9711  2.5510 -1.5441
 1157TIP3   OH2 3434   2.489   1.165   1.417  0.1371  0.1260  0.0545
 1157TIP3    H1 3435   2.416   1.135   1.471  2.7660 -0.5902  3.6130
 1157TIP3    H2 3436   2.496   1.259   1.436 -0.5318  0.4456 -1.2151
 1158TIP3   OH2 3437   1.183   4.234   3.933  0.1213 -0.3287 -0.2333
 1158TIP3    H1 3438   1.197   4.227   3.839  0.3340 -2.5384 -0.0766
 1158TIP3    H2 3439   1.263   4.201   3.973  0.8418  2.3802  0.8095
 1159TIP3   OH2 3440   0.741   4.709   4.795  0.1995 -0.2591 -0.5899
 1159TIP3    H1 3441   0.708   4.632   4.748 -0.3024  0.0122 -0.6910
 1159TIP3    H2 3442   0.715   4.783   4.740  1.4422 -0.0665 -0.9390
 1160TIP3   OH2 3443   2.441   0.011   4.539  0.4430  0.0173  0.4396
 1160TIP3    H1 3444   2.356  -0.029   4.555 -0.5844  1.3350 -1.3821
 1160TIP3    H2 3445   2.427   0.105   4.551  1.8249  0.2074  0.8009
 1161TIP3   OH2 3446   1.261   0.729   4.158 -0.0729 -0.5493 -0.5070
 1161TIP3    H1 3447   1.254   0.738   4.063 -3.4933 -0.4971 -0.3723
 1161TIP3    H2 3448   1.262   0.819   4.190 -0.1542 -0.5716 -0.4422
 1162TIP3   OH2 3449   2.642   2.231   3.525  0.2842 -0.5455  0.1772
 1162TIP3    H1 3450   2.554   2.229   3.486  0.6504 -1.2039 -0.6381
 1162TIP3    H2 3451   2.626   2.251   3.618 -0.7166 -0.5834  0.0295
 1163TIP3   OH2 3452   3.806   5.869   1.115 -0.3375 -0.0536  0.2516
 1163TIP3    H1 3453   3.821   5.918   1.195 -0.6491 -1.4903  1.2187
 1163TIP3    H2 3454   3.780   5.781   1.144  0.8321 -1.0127 -1.4094
 1164TIP3   OH2 3455   0.279   2.655   1.007  0.1123  0.1660 -0.4233
 1164TIP3    H1 3456   0.265   2.597   0.932  0.2886  0.3676 -0.6131
 1164TIP3    H2 3457   0.302   2.739   0.968  0.8733  0.0996 -0.1380
 1165TIP3   OH2 3458   6.959   4.695   4.975 -0.4161  0.3695 -0.2490
 1165TIP3    H1 3459   6.958   4.600   4.961 -0.1086  0.1183  1.1930
 1165TIP3    H2 3460   6.887   4.728   4.921 -0.2311 -0.6184 -1.1368
 1166TIP3   OH2 3461   6.674   3.452   4.493  0.1899  0.1493  0.6356
 1166TIP3    H1 3462   6.662   3.357   4.488  0.9628  0.0824 -0.1989
 1166TIP3    H2 3463   6.650   3.483   4.406 -1.3269  0.8907  1.2780
 1167TIP3   OH2 3464   1.397   0.872   5.209 -0.2602 -0.8212 -0.0017
 1167TIP3    H1 3465   1.378   0.948   5.153  0.5039 -0.7804 -0.2075
 1167TIP3    H2 3466   1.311   0.846   5.242 -0.7564 -0.9397 -1.3128
 1168TIP3   OH2 3467   7.143   3.506   5.685 -0.0490 -1.0648  0.4106
 1168TIP3    H1 3468   7.060   3.472   5.719 -0.5320  0.5083  0.8885
 1168TIP3    H2 3469   7.146   3.476   5.594 -2.1827  0.5486 -0.2839
 1169TIP3   OH2 3470   0.664   2.906   1.145  0.3644 -0.2274  0.1585
 1169TIP3    H1 3471   0.673   2.951   1.062  1.7881 -1.1933 -0.2494
 1169TIP3    H2 3472   0.673   2.813   1.123  0.2625 -0.5287  1.3139
 1170TIP3   OH2 3473   2.709   4.324   4.695 -0.1732 -0.0879  0.1735
 1170TIP3    H1 3474   2.771   4.384   4.653  1.5741 -2.0500 -0.1906
 1170TIP3    H2 3475   2.633   4.323   4.637  0.2471  0.8645 -0.4163
 1171TIP3   OH2 3476   2.815   2.952   5.164 -0.2263  0.6206  0.5005
 1171TIP3    H1 3477   2.908   2.966   5.184  0.0432  1.7610 -1.3106
 1171TIP3    H2 3478   2.775   2.931   5.249  1.5455  0.8416  1.4358
 1172TIP3   OH2 3479   3.806   6.321   5.096 -0.4647 -0.1754 -0.0628
 1172TIP3    H1 3480   3.867   6.391   5.071 -0.1970 -0.1314  0.6588
 1172TIP3    H2 3481   3.857   6.266   5.155 -0.7047 -0.9355 -0.5531
 1173TIP3   OH2 3482   3.332   4.608   1.915 -0.0243 -0.2684 -0.2284
 1173TIP3    H1 3483   3.382   4.564   1.984 -1.5200  1.2916  2.0049
 1173TIP3    H2 3484   3.257   4.551   1.900  0.0447 -0.3634 -0.2161
 1174TIP3   OH2 3485   0.854   4.402   4.774  0.2724  0.0724  0.3994
 1174TIP3    H1 3486   0.784   4.402   4.709  0.8578 -0.9288 -0.2421
 1174TIP3    H2 3487   0.815   4.362   4.851 -0.4676  1.3928  0.7532
 1175TIP3   OH2 3488   4.807   2.894   2.102 -0.7237  0.1366  0.2383
 1175TIP3    H1 3489   4.797   2.879   2.008  1.3073  1.9546 -0.3442
 1175TIP3    H2 3490   4.860   2.820   2.132  1.1384  1.0001 -0.7016
 1176TIP3   OH2 3491   1.461   1.584   1.116  0.0582  0.4798  0.6147
 1176TIP3    H1 3492   1.476   1.565   1.024  1.2839  0.0402  0.8953
 1176TIP3    H2 3493   1.532   1.643   1.140 -0.0314  0.2836  1.3752
 1177TIP3   OH2 3494   3.911   0.431   3.494  0.1548  0.3050  0.0803
 1177TIP3    H1 3495   3.862   0.409   3.415 -4.1402 -1.2437  2.7789
 1177TIP3    H2 3496   3.975   0.361   3.504 -0.4937 -0.4860 -1.1168
 1178TIP3   OH2 3497   5.745   6.468   4.629  0.3252 -0.3081 -0.2972
 1178TIP3    H1 3498   5.834   6.461   4.663  0.5064 -0.1327 -0.7350
 1178TIP3    H2 3499   5.691   6.423   4.694  0.7213 -0.3381  0.0126
 1179TIP3   OH2 3500   3.340   6.640   1.428 -0.6750  0.0615 -0.0163
 1179TIP3    H1 3501   3.435   6.636   1.426 -0.6689 -0.6362 -2.9783
 1179TIP3    H2 3502   3.312   6.553   1.398 -2.1431  1.0511 -1.7212
 1180TIP3   OH2 3503   4.972   4.912   4.500  0.2048  0.0115  0.6974
 1180TIP3    H1 3504   4.931   4.902   4.586  0.8705  1.6274  1.2364
 1180TIP3    H2 3505   4.941   4.997   4.469  1.0506  0.0589 -0.0578
 1181TIP3   OH2 3506   3.513   6.684   0.050  0.8481  0.2644 -0.2903
 1181TIP3    H1 3507   3.473   6.609   0.006  0.5642  1.3862 -2.0539
 1181TIP3    H2 3508   3.603   6.656   0.067  1.0192 -0.1999 -1.7478
 1182TIP3   OH2 3509   4.827   0.759   3.114  0.6325 -0.3839 -0.6459
 1182TIP3    H1 3510   4.814   0.719   3.200  0.0942  0.4431 -0.3329
 1182TIP3    H2 3511   4.915   0.730   3.088  0.8355 -0.5873  0.2107
 1183TIP3   OH2 3512   6.054   4.286   0.075  0.4287 -0.1936 -0.0587
 1183TIP3    H1 3513   6.070   4.367   0.124  1.0265  0.4905 -1.3211
 1183TIP3    H2 3514   6.139   4.266   0.034  0.4686 -1.8258  0.7191
 1184TIP3   OH2 3515   7.124   4.159   2.840  0.0537 -0.1377 -0.4614
 1184TIP3    H1 3516   7.183   4.186   2.911 -1.0439 -1.7203  1.1197
 1184TIP3    H2 3517   7.076   4.085   2.875 -3.0039  1.1314 -1.6233
 1185TIP3   OH2 3518   2.320   1.226   5.850 -0.2651 -0.6671 -0.9706
 1185TIP3    H1 3519   2.314   1.304   5.905  0.0627 -0.9956 -0.4504
 1185TIP3    H2 3520   2.231   1.191   5.847 -0.3920 -0.3373 -1.1197
 1186TIP3   OH2 3521   1.527   6.392   1.503  0.4792 -0.0801 -0.4701
 1186TIP3    H1 3522   1.464   6.323   1.482 -0.2107  0.8803 -1.6706
 1186TIP3    H2 3523   1.489   6.438   1.577 -0.9700  1.3759 -2.0698
 1187TIP3   OH2 3524   0.898   1.916   0.680  0.1397 -0.1309 -0.2535
 1187TIP3    H1 3525   0.842   1.858   0.731 -0.7582  1.5135  0.7316
 1187TIP3    H2 3526   0.985   1.879   0.686 -0.4852 -1.6409 -0.1115
 1188TIP3   OH2 3527   3.541   0.074   4.969  0.1481 -0.0171 -0.4064
 1188TIP3    H1 3528   3.549   0.128   4.890  1.5217  0.9300  0.3249
 1188TIP3    H2 3529   3.542  -0.016   4.937  1.4126  0.3314 -1.4369
 1189TIP3   OH2 3530   1.121   1.758   5.585 -0.0067  0.0157  0.8380
 1189TIP3    H1 3531   1.039   1.771   5.538  0.1863  2.0727  0.9841
 1189TIP3    H2 3532   1.185   1.741   5.516 -0.5180 -1.6759  0.7300
 1190TIP3   OH2 3533   3.641   1.749   4.220  0.1955  0.1330  0.1276
 1190TIP3    H1 3534   3.717   1.722   4.270 -0.1569 -1.0527  0.0497
 1190TIP3    H2 3535   3.585   1.795   4.283  0.5480  0.1909  0.3977
 1191TIP3   OH2 3536   3.076   2.953   0.583 -0.4047  0.1022 -0.1547
 1191TIP3    H1 3537   3.043   2.893   0.516 -2.3434  1.5530 -0.5746
 1191TIP3    H2 3538   3.158   2.986   0.547 -0.2847 -0.8132 -0.7728
 1192TIP3   OH2 3539   4.031   3.761   2.378  0.3612 -0.5114  0.0689
 1192TIP3    H1 3540   4.056   3.694   2.442  2.0803  0.7140  0.7620
 1192TIP3    H2 3541   4.019   3.840   2.430  5.7894  1.6013 -1.2573
 1193TIP3   OH2 3542   1.441   5.120   5.060 -0.1279 -0.1675 -0.0052
 1193TIP3    H1 3543   1.427   5.110   5.154 -0.3766 -0.1855 -0.0441
 1193TIP3    H2 3544   1.536   5.129   5.051 -0.0293 -0.9713  0.1713
 1194TIP3   OH2 3545   6.878   6.290   4.788  0.3250 -0.2827  0.0378
 1194TIP3    H1 3546   6.920   6.207   4.808  0.2571  0.0144  1.5472
 1194TIP3    H2 3547   6.946   6.341   4.743 -0.2130 -1.7709 -2.6658
 1195TIP3   OH2 3548   4.541   4.820   3.919 -0.4627  0.2748  0.6811
 1195TIP3    H1 3549   4.551   4.888   3.852  1.8339 -0.5076  0.1342
 1195TIP3    H2 3550   4.479   4.857   3.982  0.2547  2.6441  0.0909
 1196TIP3   OH2 3551   2.568   0.975   1.214 -0.3350  0.0851 -0.0732
 1196TIP3    H1 3552   2.552   1.056   1.261  0.1814  0.7806 -1.0562
 1196TIP3    H2 3553   2.510   0.980   1.137 -2.5063 -1.8387  1.3072
 1197TIP3   OH2 3554   5.062   1.862   4.904  0.3891  0.3402  0.7394
 1197TIP3    H1 3555   5.145   1.910   4.910  1.6047 -1.3417 -1.4280
 1197TIP3    H2 3556   5.081   1.777   4.943  0.1548 -0.5833 -1.0965
 1198TIP3   OH2 3557   0.521   4.854   1.884  0.3398 -0.0431 -0.3562
 1198TIP3    H1 3558   0.586   4.857   1.814 -0.5670  1.1364 -1.1863
 1198TIP3    H2 3559   0.437   4.845   1.839 -0.3867  1.9504  0.4677
 1199TIP3   OH2 3560   5.963   2.708   5.077  0.0678 -0.4535 -0.1980
 1199TIP3    H1 3561   6.030   2.702   5.009  0.2142  0.2820 -0.1174
 1199TIP3    H2 3562   5.880   2.705   5.028  0.1079 -2.2202 -0.2446
 1200TIP3   OH2 3563   0.929   1.007   0.448  0.7799  0.2665 -0.4831
 1200TIP3    H1 3564   0.933   0.914   0.426  0.7477  0.0041  0.5796
 1200TIP3    H2 3565   0.963   1.012   0.537 -1.4880  0.9462  0.3998
 1201TIP3   OH2 3566   2.175   5.031   3.788  0.0265  0.2767 -0.1687
 1201TIP3    H1 3567   2.223   4.966   3.839  1.8381  1.4928 -0.2526
 1201TIP3    H2 3568   2.152   5.099   3.851 -3.0605 -0.9605  0.2142
 1202TIP3   OH2 3569   7.132   4.709   2.817  0.5052  0.3518 -0.4638
 1202TIP3    H1 3570   7.128   4.801   2.791  0.7536  0.5404  0.1561
 1202TIP3    H2 3571   7.222   4.696   2.847  0.6645 -0.2744 -1.1908
 1203TIP3   OH2 3572   0.691   4.656   5.061  0.5379  0.1247 -0.0615
 1203TIP3    H1 3573   0.627   4.719   5.093  1.3067  0.2580  1.3033
 1203TIP3    H2 3574   0.695   4.671   4.966 -0.3049  1.1622  0.0525
 1204TIP3   OH2 3575   2.093   5.023   4.100 -0.8889  0.1689 -0.0711
 1204TIP3    H1 3576   2.083   4.993   4.009  0.2283 -2.7515  0.6620
 1204TIP3    H2 3577   2.127   4.947   4.147 -2.9868  1.0238  3.1881
 1205TIP3   OH2 3578   1.925   0.081   1.929 -0.7593 -0.0783  0.1745
 1205TIP3    H1 3579   1.985   0.081   2.003  0.9456 -1.3258 -1.1151
 1205TIP3    H2 3580   1.887   0.169   1.928  1.6323  1.0132  0.5948
 1206TIP3   OH2 3581   3.781   0.947   0.288 -0.2017 -0.6068  0.0631
 1206TIP3    H1 3582   3.757   0.986   0.372 -0.5127  0.1284 -0.3622
 1206TIP3    H2 3583   3.773   1.018   0.224  0.5267 -1.0245 -0.5158
 1207TIP3   OH2 3584   3.817   4.693   5.867  0.0876 -0.4309 -0.0820
 1207TIP3    H1 3585   3.745   4.739   5.910  1.2513  1.1493  0.3283
 1207TIP3    H2 3586   3.777   4.646   5.795 -1.4499 -0.2817  0.6315
 1208TIP3   OH2 3587   2.331   2.036   5.252  0.3900 -0.0127 -0.3437
 1208TIP3    H1 3588   2.236   2.050   5.254  0.2943 -0.6731  0.2643
 1208TIP3    H2 3589   2.341   1.941   5.264  1.2289  0.4271  3.9987
 1209TIP3   OH2 3590   2.539   4.031   1.792 -0.0051  0.6027 -0.1890
 1209TIP3    H1 3591   2.584   3.954   1.827 -2.1629 -0.2051  0.9915
 1209TIP3    H2 3592   2.572   4.104   1.844 -0.5854 -0.0800  1.1773
 1210TIP3   OH2 3593   4.929   1.611   5.278  0.3254 -0.2093  0.1891
 1210TIP3    H1 3594   4.896   1.642   5.362  0.6966 -1.3524  0.7703
 1210TIP3    H2 3595   4.867   1.646   5.214  0.7364  1.7144  0.7923
 1211TIP3   OH2 3596   4.231   3.950   2.551 -1.1605  0.5906  0.1224
 1211TIP3    H1 3597   4.137   3.953   2.564 -0.7772 -0.4599  4.6534
 1211TIP3    H2 3598   4.267   4.004   2.621  1.6303 -0.4034 -0.4079
 1212TIP3   OH2 3599   6.568   1.977   2.752 -0.2436 -0.0267 -0.3467
 1212TIP3    H1 3600   6.574   2.019   2.666  1.1813 -1.1716 -0.8524
 1212TIP3    H2 3601   6.474   1.972   2.770 -0.5855 -0.1015 -2.0248
 1213TIP3   OH2 3602   5.525   6.261   4.323  0.4081  0.4566  0.2056
 1213TIP3    H1 3603   5.496   6.333   4.267  1.7039  1.1126  0.3338
 1213TIP3    H2 3604   5.473   6.186   4.294  2.0684  0.3705 -2.9696
 1214TIP3   OH2 3605   7.136   4.111   4.495 -0.2923  0.2053 -0.2330
 1214TIP3    H1 3606   7.209   4.167   4.523  0.4060 -0.6275 -0.3246
 1214TIP3    H2 3607   7.116   4.141   4.406  0.8352 -0.3780 -0.7249
 1215TIP3   OH2 3608   0.792   6.347   2.953  0.5917  0.0734  0.6266
 1215TIP3    H1 3609   0.856   6.303   3.008  1.1284  1.1916  0.9376
 1215TIP3    H2 3610   0.768   6.283   2.887  1.6011 -0.5601  0.8544
 1216TIP3   OH2 3611   3.760   1.865   5.238  0.0424 -0.1293  0.3282
 1216TIP3    H1 3612   3.775   1.774   5.264  1.3238  0.4587  1.7897
 1216TIP3    H2 3613   3.817   1.878   5.163  0.6199 -0.2764  0.7294
 1217TIP3   OH2 3614   3.858   5.172   2.085  0.5171 -0.0689  0.2346
 1217TIP3    H1 3615   3.855   5.124   2.168 -2.1278 -1.1373 -0.3864
 1217TIP3    H2 3616   3.890   5.108   2.021 -1.0033 -0.4076 -0.2139
 1218TIP3   OH2 3617   5.128   1.700   4.270  0.3526  0.1660 -0.0610
 1218TIP3    H1 3618   5.051   1.753   4.293 -1.5910 -2.0630 -0.9111
 1218TIP3    H2 3619   5.162   1.669   4.353 -1.0005 -0.5013  0.2703
 1219TIP3   OH2 3620   3.674   3.635   5.318  0.9493  0.2350 -0.4276
 1219TIP3    H1 3621   3.736   3.638   5.244  0.6132  0.2007 -0.7113
 1219TIP3    H2 3622   3.592   3.667   5.281  0.6351 -0.3258 -0.2089
 1220TIP3   OH2 3623   6.413   5.174   0.376 -0.4177  0.4770 -0.7425
 1220TIP3    H1 3624   6.483   5.133   0.428 -0.6202  0.9930 -0.0676
 1220TIP3    H2 3625   6.333   5.129   0.404 -0.8755  2.3500  1.1392
 1221TIP3   OH2 3626   6.207   2.364   4.719 -0.4457 -0.4627 -0.0020
 1221TIP3    H1 3627   6.281   2.329   4.670 -0.6607 -0.6365 -0.2078
 1221TIP3    H2 3628   6.160   2.419   4.656 -0.5485 -0.4351  0.0976
 1222TIP3   OH2 3629   4.047   2.779   1.228  0.1487 -0.0785 -0.1353
 1222TIP3    H1 3630   4.094   2.752   1.149 -0.6101  0.4674 -0.7885
 1222TIP3    H2 3631   4.075   2.869   1.243  1.9965 -0.8713  1.5272
 1223TIP3   OH2 3632   1.967   2.414   5.680 -0.1938  0.4313 -0.2261
 1223TIP3    H1 3633   1.951   2.325   5.711  0.6612  0.1501 -0.5610
 1223TIP3    H2 3634   2.008   2.403   5.594 -0.1093  1.1464 -0.2833
 1224TIP3   OH2 3635   4.278   0.517   2.146 -0.1797 -0.4479 -0.3461
 1224TIP3    H1 3636   4.264   0.563   2.229  0.1531  0.3928 -0.7534
 1224TIP3    H2 3637   4.210   0.551   2.088  1.8612  1.7814 -1.5642
 1225TIP3   OH2 3638   1.482   0.152   5.414  0.2019  0.4435  0.2801
 1225TIP3    H1 3639   1.444   0.100   5.344  0.4305  0.5489  0.0766
 1225TIP3    H2 3640   1.463   0.243   5.389  1.1339  0.5267 -0.1466
 1226TIP3   OH2 3641   4.083   0.842   5.190 -0.2501 -0.4815 -0.1393
 1226TIP3    H1 3642   4.122   0.791   5.120 -2.0927 -0.9238 -0.8854
 1226TIP3    H2 3643   4.044   0.777   5.249 -2.1115 -0.0027 -0.7947
 1227TIP3   OH2 3644   6.626   1.167   3.290  0.4103  0.1511 -0.2153
 1227TIP3    H1 3645   6.572   1.123   3.356  0.0462 -0.0532 -0.6454
 1227TIP3    H2 3646   6.699   1.203   3.340  0.1477 -0.0135  0.3001
 1228TIP3   OH2 3647   3.917   0.247   1.993  0.4962  0.0195 -0.0402
 1228TIP3    H1 3648   3.955   0.312   2.052  1.1601 -1.1921  0.9288
 1228TIP3    H2 3649   3.882   0.179   2.051  0.0114 -0.5969 -1.0144
 1229TIP3   OH2 3650   1.363   2.572   1.149  0.3144 -0.1756 -0.1581
 1229TIP3    H1 3651   1.389   2.624   1.225 -0.0518  0.7063 -0.6118
 1229TIP3    H2 3652   1.419   2.604   1.078 -0.7002  0.4247 -0.7097
 1230TIP3   OH2 3653   5.656   5.526   3.922  0.8234 -0.0398  0.6337
 1230TIP3    H1 3654   5.731   5.571   3.883  0.0064  1.0975  0.3334
 1230TIP3    H2 3655   5.686   5.435   3.933  2.2137  0.3722  0.4680
 1231TIP3   OH2 3656   2.529   3.290   0.293 -0.2438 -0.6851  0.2762
 1231TIP3    H1 3657   2.566   3.284   0.381  0.5117 -1.7817 -0.1080
 1231TIP3    H2 3658   2.449   3.238   0.297 -0.5869 -0.1620  0.4826
 1232TIP3   OH2 3659   2.131   5.562   3.560 -0.2088 -0.3546 -0.4203
 1232TIP3    H1 3660   2.154   5.480   3.603  0.4452  0.5210  0.9721
 1232TIP3    H2 3661   2.086   5.535   3.480  0.7096 -2.0781 -0.4184
 1233TIP3   OH2 3662   6.928   0.350   1.456 -0.1597 -1.0649  0.4618
 1233TIP3    H1 3663   6.986   0.363   1.531  1.8577 -1.3334 -0.9590
 1233TIP3    H2 3664   6.862   0.418   1.465  1.7035  0.7709  0.9656
 1234TIP3   OH2 3665   5.324   2.112   0.303  0.3586 -0.5983  0.4741
 1234TIP3    H1 3666   5.250   2.113   0.364  0.2001 -1.5557  0.3156
 1234TIP3    H2 3667   5.283   2.117   0.217  0.4093 -1.8414  0.3542
 1235TIP3   OH2 3668   0.415   3.547   4.457  0.1032  0.6418  0.0906
 1235TIP3    H1 3669   0.440   3.454   4.454 -1.4076  0.0668  2.5976
 1235TIP3    H2 3670   0.454   3.580   4.538  0.3827  2.1605 -0.6241
 1236TIP3   OH2 3671   2.182   3.202   3.896  0.4438  0.4965  0.1425
 1236TIP3    H1 3672   2.112   3.142   3.871 -0.5389  0.8531  1.9016
 1236TIP3    H2 3673   2.263   3.156   3.871 -0.3311 -0.8877  0.0748
 1237TIP3   OH2 3674   1.507   6.785   1.861 -0.3866 -0.0340  0.0597
 1237TIP3    H1 3675   1.445   6.723   1.900  0.0289 -0.1791  0.4942
 1237TIP3    H2 3676   1.502   6.862   1.918  0.0147 -0.1411  0.2409
 1238TIP3   OH2 3677   3.397   6.575   3.156  0.7232  0.4396 -0.3738
 1238TIP3    H1 3678   3.344   6.582   3.235  0.1950  1.2439 -0.7878
 1238TIP3    H2 3679   3.381   6.486   3.125 -1.1922  0.9503 -1.0245
 1239TIP3   OH2 3680   7.201   6.601   1.228  0.3402 -0.1493 -0.3135
 1239TIP3    H1 3681   7.124   6.655   1.246  1.1100  0.9328 -0.1487
 1239TIP3    H2 3682   7.191   6.574   1.137 -0.2684 -0.0900 -0.2707
 1240TIP3   OH2 3683   3.467   5.789   5.036  0.0696  0.0056  0.4705
 1240TIP3    H1 3684   3.414   5.717   5.002 -1.1365  0.8507  0.5139
 1240TIP3    H2 3685   3.406   5.844   5.085  1.1666  0.5133  1.3395
 1241TIP3   OH2 3686   1.531   0.244   4.145  0.0848 -0.1824  0.5125
 1241TIP3    H1 3687   1.449   0.282   4.177 -1.0627  1.0328 -3.2335
 1241TIP3    H2 3688   1.585   0.320   4.121  1.0504 -0.9521  0.1784
 1242TIP3   OH2 3689   2.119   2.217   3.407 -0.2090 -0.3996 -0.2553
 1242TIP3    H1 3690   2.203   2.199   3.450 -0.2083  0.9108  0.3503
 1242TIP3    H2 3691   2.139   2.286   3.344 -1.0573  0.8803  0.8329
 1243TIP3   OH2 3692   2.214   0.837   5.447  0.1181  0.1339  0.1808
 1243TIP3    H1 3693   2.236   0.777   5.376  1.8300 -0.5833  1.2555
 1243TIP3    H2 3694   2.284   0.903   5.446  0.3564 -0.0711  1.3840
 1244TIP3   OH2 3695   4.553   5.684   2.223 -0.2688 -0.2886 -0.3984
 1244TIP3    H1 3696   4.626   5.699   2.162 -0.2351  1.4524  0.0020
 1244TIP3    H2 3697   4.476   5.718   2.177 -0.3139  0.6279  0.3147
 1245TIP3   OH2 3698   6.973   1.102   4.139 -0.0639 -0.6382  0.1815
 1245TIP3    H1 3699   6.962   1.193   4.109 -2.4196  0.0347  2.6401
 1245TIP3    H2 3700   7.034   1.108   4.212 -0.1494 -1.0251  0.2849
 1246TIP3   OH2 3701   6.802   4.611   1.790  0.5862 -0.3150 -0.2154
 1246TIP3    H1 3702   6.797   4.656   1.875 -0.4664  1.0291 -0.9480
 1246TIP3    H2 3703   6.871   4.658   1.743 -1.5963  1.7438 -1.5871
 1247TIP3   OH2 3704   5.029   5.833   3.588  0.3461  0.0208  0.5592
 1247TIP3    H1 3705   4.973   5.841   3.511  2.1676  0.1798 -0.8320
 1247TIP3    H2 3706   4.970   5.840   3.663 -1.7102 -1.7326 -0.8083
 1248TIP3   OH2 3707   4.129   5.104   1.756  0.4593 -0.0404 -0.3878
 1248TIP3    H1 3708   4.068   5.096   1.829  0.3856  0.0788 -0.4352
 1248TIP3    H2 3709   4.088   5.169   1.698  0.8188  0.3159 -0.2372
 1249TIP3   OH2 3710   1.407   1.043   0.095  0.0808 -0.2270 -0.4542
 1249TIP3    H1 3711   1.338   1.013   0.035 -1.4961 -0.8842  1.5580
 1249TIP3    H2 3712   1.398   0.986   0.171  2.7999 -0.2167 -0.0242
 1250TIP3   OH2 3713   7.147   0.564   0.863  0.1918  0.4087 -0.4931
 1250TIP3    H1 3714   7.079   0.566   0.931 -0.8716  0.9145 -1.5409
 1250TIP3    H2 3715   7.188   0.478   0.873  2.1236  1.5028  2.6947
 1251TIP3   OH2 3716   5.505   3.101   0.342  0.1202  0.1678  0.3048
 1251TIP3    H1 3717   5.477   3.159   0.272 -1.5916 -1.3476 -0.3539
 1251TIP3    H2 3718   5.600   3.092   0.330  0.0852  1.1488 -0.8496
 1252TIP3   OH2 3719   0.034   5.168   4.405  0.5061 -0.4958  0.5859
 1252TIP3    H1 3720   0.081   5.112   4.467  0.6020 -0.8072  0.2396
 1252TIP3    H2 3721   0.104   5.208   4.353  0.4156 -0.4666  0.4877
 1253TIP3   OH2 3722   1.547   0.573   5.045 -0.0172  0.1336 -0.0220
 1253TIP3    H1 3723   1.468   0.607   5.002 -0.8817 -1.2606  0.3860
 1253TIP3    H2 3724   1.595   0.530   4.974  0.7665  1.5775 -0.4128
 1254TIP3   OH2 3725   0.971   0.665   5.737  0.5172 -0.1081  0.4465
 1254TIP3    H1 3726   0.888   0.622   5.757 -0.8460  1.3106 -1.7849
 1254TIP3    H2 3727   1.030   0.592   5.714 -0.1556 -1.1077  1.7350
 1255TIP3   OH2 3728   5.722   0.273   2.153 -0.4444  0.1800 -0.4482
 1255TIP3    H1 3729   5.805   0.296   2.110  0.3108 -1.3476  0.1330
 1255TIP3    H2 3730   5.712   0.338   2.222  0.2699  0.3736 -0.5177
 1256TIP3   OH2 3731   2.874   3.656   1.520  0.4832 -0.0074  0.1926
 1256TIP3    H1 3732   2.839   3.732   1.474  1.8328  0.5000 -0.0131
 1256TIP3    H2 3733   2.797   3.618   1.564  0.1214  2.7685  2.2130
 1257TIP3   OH2 3734   6.983   4.651   1.497 -0.3816 -0.0149 -0.3084
 1257TIP3    H1 3735   6.969   4.746   1.489 -0.5173  0.1543  1.4891
 1257TIP3    H2 3736   6.990   4.636   1.591  1.4094 -1.5504 -0.6247
 1258TIP3   OH2 3737   1.793   4.298   2.646 -0.2087 -0.1757 -0.5106
 1258TIP3    H1 3738   1.867   4.318   2.704 -0.0132  2.5560 -1.5312
 1258TIP3    H2 3739   1.716   4.316   2.700 -0.0686 -0.1819 -0.3074
 1259TIP3   OH2 3740   2.305   5.324   2.340 -0.1304 -0.3527 -0.1797
 1259TIP3    H1 3741   2.251   5.246   2.353 -0.0642 -0.3599  0.0716
 1259TIP3    H2 3742   2.385   5.305   2.389  0.2328 -0.4769 -0.8066
 1260TIP3   OH2 3743   3.071   2.533   4.562  0.2403  0.1530 -0.2428
 1260TIP3    H1 3744   3.031   2.572   4.640  0.9757  0.3569  0.0460
 1260TIP3    H2 3745   3.075   2.439   4.581  0.6433  0.2312  0.0763
 1261TIP3   OH2 3746   5.609   1.221   2.901  0.1315  0.2068 -0.2076
 1261TIP3    H1 3747   5.528   1.212   2.851 -0.7343  0.5647  1.1004
 1261TIP3    H2 3748   5.652   1.136   2.892 -0.8980 -0.3476 -0.0596
 1262TIP3   OH2 3749   1.660   3.829   1.342 -0.4743 -0.3167 -0.2367
 1262TIP3    H1 3750   1.568   3.815   1.364 -0.5574  0.8823  0.2818
 1262TIP3    H2 3751   1.709   3.790   1.415 -0.4991 -2.0439 -1.1007
 1263TIP3   OH2 3752   5.068   2.125   2.504  0.5353 -0.3519 -0.1540
 1263TIP3    H1 3753   5.001   2.127   2.572  1.1236  0.4569  0.4300
 1263TIP3    H2 3754   5.021   2.147   2.423  0.2149  1.1069  0.3882
 1264TIP3   OH2 3755   3.059   2.571   1.651 -0.2626  0.1423 -0.2995
 1264TIP3    H1 3756   3.082   2.654   1.691 -0.7545  0.6572 -1.0524
 1264TIP3    H2 3757   2.976   2.587   1.607 -1.1479 -1.1647  0.8113
 1265TIP3   OH2 3758   3.633   1.223   2.617  0.1594  0.8394  0.7012
 1265TIP3    H1 3759   3.608   1.145   2.666 -0.6349  0.5734 -0.1061
 1265TIP3    H2 3760   3.667   1.283   2.684 -0.0862  0.1609  1.4541
 1266TIP3   OH2 3761   0.709   1.349   2.911 -0.1987 -0.1667  0.1882
 1266TIP3    H1 3762   0.742   1.329   2.824  2.2143 -0.8569  1.1853
 1266TIP3    H2 3763   0.658   1.271   2.936  0.7941 -0.8414  0.1591
 1267TIP3   OH2 3764   3.562   1.502   4.126  0.0326  0.6796  0.5142
 1267TIP3    H1 3765   3.588   1.591   4.151  2.6925 -0.1369  1.0082
 1267TIP3    H2 3766   3.575   1.450   4.205 -1.3497 -0.2114  0.1893
 1268TIP3   OH2 3767   4.750   5.810   1.038  0.1273 -0.1826 -0.7651
 1268TIP3    H1 3768   4.662   5.846   1.046 -0.7031 -2.3479  0.6891
 1268TIP3    H2 3769   4.757   5.782   0.947 -1.8964 -2.7240 -0.2302
 1269TIP3   OH2 3770   2.721   0.189   5.207  0.0764  0.2327 -0.0876
 1269TIP3    H1 3771   2.690   0.226   5.290 -0.7759  1.4453 -0.9120
 1269TIP3    H2 3772   2.712   0.094   5.219 -0.7492  0.4161  0.9435
 1270TIP3   OH2 3773   3.483   5.697   5.613  0.1723  0.0616  0.5695
 1270TIP3    H1 3774   3.491   5.714   5.519 -0.7532 -0.9401  0.2947
 1270TIP3    H2 3775   3.465   5.603   5.619 -0.6980  0.2781  1.6980
 1271TIP3   OH2 3776   2.548   3.927   3.081  0.3190  0.0151  0.0301
 1271TIP3    H1 3777   2.487   3.990   3.043 -0.6839  0.7837  2.7165
 1271TIP3    H2 3778   2.493   3.866   3.129  1.5404 -0.5435  0.7745
 1272TIP3   OH2 3779   6.730   2.231   4.244 -0.5394  0.2865 -0.3218
 1272TIP3    H1 3780   6.786   2.230   4.167 -2.0828 -2.2532 -1.5347
 1272TIP3    H2 3781   6.684   2.315   4.239 -0.7035  0.1189 -2.2452
 1273TIP3   OH2 3782   6.347   3.284   1.880 -0.1646 -0.0857  0.7399
 1273TIP3    H1 3783   6.298   3.298   1.961  0.4528  0.3095  1.0539
 1273TIP3    H2 3784   6.439   3.281   1.908 -0.0334 -1.3993  0.2412
 1274TIP3   OH2 3785   3.450   3.921   2.898  0.4157 -0.2367  0.3435
 1274TIP3    H1 3786   3.390   3.890   2.967 -0.1043 -1.8081 -0.7653
 1274TIP3    H2 3787   3.450   4.016   2.908 -0.3452 -0.3626  1.9347
 1275TIP3   OH2 3788   5.536   5.734   2.182 -0.2066 -0.0531 -0.0706
 1275TIP3    H1 3789   5.519   5.824   2.155  0.8936 -0.5119 -2.5645
 1275TIP3    H2 3790   5.613   5.740   2.238 -0.7992  0.6340  0.7028
 1276TIP3   OH2 3791   5.027   4.417   4.546  0.2192  0.0696  0.8061
 1276TIP3    H1 3792   5.060   4.450   4.462  0.0075  0.3125  0.8159
 1276TIP3    H2 3793   5.051   4.484   4.609  0.0641  0.0553  0.8810
 1277TIP3   OH2 3794   2.505   2.084   0.771  0.3631 -0.1394 -0.1597
 1277TIP3    H1 3795   2.528   2.165   0.816 -1.5038  0.4329 -0.1203
 1277TIP3    H2 3796   2.460   2.113   0.692  1.3975 -1.1540 -1.1546
 1278TIP3   OH2 3797   0.069   2.303   0.067  0.1696  0.6038 -0.3635
 1278TIP3    H1 3798   0.080   2.354   0.147  1.1446 -2.2422  1.4526
 1278TIP3    H2 3799   0.020   2.225   0.094  4.3757 -2.7369 -1.3019
 1279TIP3   OH2 3800   1.128   5.328   0.659 -0.0345  0.1034  0.2561
 1279TIP3    H1 3801   1.204   5.295   0.707  1.1810 -0.8341 -2.1802
 1279TIP3    H2 3802   1.085   5.251   0.623 -0.2756  0.8115 -1.0575
 1280TIP3   OH2 3803   5.567   6.623   0.340 -0.1966  1.0430 -0.0557
 1280TIP3    H1 3804   5.565   6.689   0.410 -1.0417  0.5288  0.4269
 1280TIP3    H2 3805   5.485   6.574   0.351  0.2761  0.1011 -0.5871
 1281TIP3   OH2 3806   5.289   0.337   4.127  0.7759 -0.1235 -0.2591
 1281TIP3    H1 3807   5.352   0.268   4.107  0.5268 -1.3281  2.6749
 1281TIP3    H2 3808   5.331   0.388   4.197 -0.8770 -0.0706  0.7321
 1282TIP3   OH2 3809   6.629   1.355   0.796 -0.0696 -0.1849  0.2627
 1282TIP3    H1 3810   6.596   1.275   0.755 -1.2053 -0.6247  1.9253
 1282TIP3    H2 3811   6.721   1.336   0.814  0.4466 -0.0128 -1.8550
 1283TIP3   OH2 3812   1.235   1.247   0.570 -0.3853  0.6721  0.4581
 1283TIP3    H1 3813   1.288   1.252   0.490 -0.7546  1.2660  0.2418
 1283TIP3    H2 3814   1.157   1.199   0.544 -0.4466  0.7517  0.4946
 1284TIP3   OH2 3815   3.756   3.081   0.168  0.1042  0.0551 -0.2299
 1284TIP3    H1 3816   3.788   3.076   0.258  0.1874 -0.0284 -0.2644
 1284TIP3    H2 3817   3.667   3.115   0.176 -0.5042 -1.5018  0.0232
 1285TIP3   OH2 3818   1.235   2.659   5.474  0.0356 -0.1474  0.1326
 1285TIP3    H1 3819   1.170   2.616   5.529 -0.2308  1.0693  0.8327
 1285TIP3    H2 3820   1.286   2.712   5.536 -1.3871  2.6635 -0.9107
 1286TIP3   OH2 3821   4.593   6.708   1.663 -0.6268  0.2011 -0.0207
 1286TIP3    H1 3822   4.656   6.734   1.596  0.2712 -1.2876  0.1945
 1286TIP3    H2 3823   4.645   6.700   1.743 -1.3333  0.1350  0.4422
 1287TIP3   OH2 3824   0.064   1.035   4.248  0.7456 -0.4549 -0.3694
 1287TIP3    H1 3825   0.149   1.080   4.246  1.9577 -2.5809 -0.5852
 1287TIP3    H2 3826   0.028   1.050   4.160  0.8634  0.5045 -0.2661
 1288TIP3   OH2 3827   3.807   3.696   5.078  0.1410  0.3141  0.1266
 1288TIP3    H1 3828   3.852   3.775   5.106 -0.2022  0.6274 -0.1868
 1288TIP3    H2 3829   3.855   3.666   5.001  0.4321  0.0650  0.4042
 1289TIP3   OH2 3830   1.039   3.921   1.153  0.2754 -0.8949  0.1074
 1289TIP3    H1 3831   0.995   3.924   1.068  0.4561 -2.2447 -0.0474
 1289TIP3    H2 3832   1.025   4.009   1.189 -2.4375 -1.1868  0.0041
 1290TIP3   OH2 3833   6.799   3.610   5.378  0.3406  0.1292  0.5682
 1290TIP3    H1 3834   6.742   3.553   5.430  0.2904  0.3459  0.7520
 1290TIP3    H2 3835   6.826   3.556   5.304  1.1532 -0.4944  1.2953
 1291TIP3   OH2 3836   3.144   1.184   2.919  0.1870  0.3786  0.0397
 1291TIP3    H1 3837   3.089   1.120   2.964  1.2634  1.1347  2.6088
 1291TIP3    H2 3838   3.188   1.134   2.850  1.0675 -1.7490  2.0141
 1292TIP3   OH2 3839   6.610   1.336   4.200  0.1143  0.3975 -0.1534
 1292TIP3    H1 3840   6.702   1.362   4.193  0.0324  0.9304  0.5630
 1292TIP3    H2 3841   6.597   1.273   4.130  1.5262 -1.1338  0.8951
 1293TIP3   OH2 3842   2.318   6.229   5.757 -0.5672 -0.0406  0.0743
 1293TIP3    H1 3843   2.404   6.198   5.787 -0.2256  1.7361  1.0756
 1293TIP3    H2 3844   2.283   6.278   5.831 -1.7592  0.5927 -0.8726
 1294TIP3   OH2 3845   1.151   3.003   1.844  0.0758  0.0043 -0.1789
 1294TIP3    H1 3846   1.236   3.021   1.805 -0.0672 -0.3713 -0.6783
 1294TIP3    H2 3847   1.088   3.022   1.774 -0.1363 -1.4415 -0.4164
 1295TIP3   OH2 3848   1.752   0.247   1.117 -0.1462 -0.4561  0.5974
 1295TIP3    H1 3849   1.770   0.299   1.039  0.5798  0.4983  1.3745
 1295TIP3    H2 3850   1.669   0.203   1.098 -0.3814  0.3773 -0.3899
 1296TIP3   OH2 3851   5.097   4.859   4.826  0.7535  0.9807 -0.1185
 1296TIP3    H1 3852   5.108   4.907   4.908 -0.4635  0.0184  0.6520
 1296TIP3    H2 3853   5.005   4.871   4.803 -0.4157 -3.0335  1.5592
 1297TIP3   OH2 3854   4.581   0.818   1.807  0.8577  0.0302 -0.2166
 1297TIP3    H1 3855   4.557   0.907   1.833 -2.6961 -0.9266  0.2851
 1297TIP3    H2 3856   4.565   0.816   1.713 -2.4052 -0.8397  0.2380
 1298TIP3   OH2 3857   0.305   2.329   4.377 -0.3387 -0.5872 -0.0642
 1298TIP3    H1 3858   0.363   2.400   4.349  0.8307 -1.7001 -0.6092
 1298TIP3    H2 3859   0.220   2.350   4.337  0.4067 -0.3263 -1.6030
 1299TIP3   OH2 3860   1.696   5.340   3.862 -0.7356 -0.5755  0.0219
 1299TIP3    H1 3861   1.696   5.286   3.783  1.7111 -0.8328  0.1239
 1299TIP3    H2 3862   1.755   5.295   3.923  0.9721  1.8665  0.3231
 1300TIP3   OH2 3863   3.334   3.025   3.193  0.0252 -0.5629  0.0620
 1300TIP3    H1 3864   3.354   3.063   3.107 -0.1527  0.3390  0.4136
 1300TIP3    H2 3865   3.416   3.034   3.243 -0.3292  0.3393  0.4943
 1301TIP3   OH2 3866   1.281   3.871   4.752 -0.2167 -0.3090 -0.0992
 1301TIP3    H1 3867   1.294   3.777   4.746 -0.7728 -0.5883  2.1718
 1301TIP3    H2 3868   1.197   3.881   4.796 -0.9654  1.3071 -1.7563
 1302TIP3   OH2 3869   0.885   1.690   5.426  0.3809  0.0983  0.2421
 1302TIP3    H1 3870   0.917   1.664   5.339  1.5572  0.2069  0.6268
 1302TIP3    H2 3871   0.811   1.748   5.407  0.9329  0.5282 -0.7098
 1303TIP3   OH2 3872   2.965   4.149   5.696 -0.0509 -0.6796  0.1865
 1303TIP3    H1 3873   3.017   4.084   5.743 -0.2833 -0.6727  0.4549
 1303TIP3    H2 3874   2.967   4.226   5.752  0.7541 -0.2360 -0.4280
 1304TIP3   OH2 3875   2.326   3.980   3.999 -0.0834 -0.0479  0.2111
 1304TIP3    H1 3876   2.388   4.015   3.936  1.0164  0.5822  1.5773
 1304TIP3    H2 3877   2.292   3.900   3.959 -1.0254  1.4003 -2.0473
 1305TIP3   OH2 3878   1.949   5.557   3.334 -0.8600 -0.4325  0.0702
 1305TIP3    H1 3879   2.007   5.519   3.267  0.1230 -0.4972  0.9254
 1305TIP3    H2 3880   1.861   5.534   3.305 -0.4728 -0.2339 -1.3343
 1306TIP3   OH2 3881   0.592   0.264   4.585  0.2103 -0.3106  0.0054
 1306TIP3    H1 3882   0.676   0.271   4.538  0.4563  0.8136  0.5783
 1306TIP3    H2 3883   0.527   0.296   4.522  0.6255  1.9162  0.5930
 1307TIP3   OH2 3884   3.801   0.077   0.245 -0.2332  0.1415 -0.4001
 1307TIP3    H1 3885   3.840   0.104   0.329 -0.2613 -0.6701 -0.1211
 1307TIP3    H2 3886   3.784  -0.016   0.255  0.7164 -0.2057 -1.6782
 1308TIP3   OH2 3887   5.514   5.256   1.429  0.4170 -0.2076 -0.3529
 1308TIP3    H1 3888   5.527   5.237   1.336  0.3700  0.8910 -0.5999
 1308TIP3    H2 3889   5.586   5.210   1.474  2.1103  1.4760 -1.2016
 1309TIP3   OH2 3890   4.162   6.396   2.241 -0.3065  0.1746  0.5588
 1309TIP3    H1 3891   4.165   6.481   2.197  1.7906 -0.5286 -0.7703
 1309TIP3    H2 3892   4.240   6.395   2.297  2.1302 -2.3530 -2.5157
 1310TIP3   OH2 3893   4.745   3.611   1.136 -0.0808  0.4190  0.0213
 1310TIP3    H1 3894   4.721   3.663   1.060  1.1505 -0.6807 -1.1910
 1310TIP3    H2 3895   4.716   3.522   1.115 -0.8186  0.3146  1.3856
 1311TIP3   OH2 3896   0.266   6.078   2.880  0.2740 -0.1597  0.5565
 1311TIP3    H1 3897   0.187   6.131   2.895 -0.0163 -0.6850  0.9350
 1311TIP3    H2 3898   0.251   5.999   2.932 -0.1534 -1.4736 -1.4492
 1312TIP3   OH2 3899   2.744   0.708   3.787 -0.3686 -0.2991 -0.1466
 1312TIP3    H1 3900   2.794   0.718   3.868 -0.2402 -0.2619 -0.2305
 1312TIP3    H2 3901   2.758   0.790   3.739 -0.1070 -0.4859 -0.3943
 1313TIP3   OH2 3902   2.539   0.248   4.290  0.5171  0.4030 -0.6307
 1313TIP3    H1 3903   2.558   0.328   4.240 -0.4700  0.9119 -0.2161
 1313TIP3    H2 3904   2.548   0.276   4.381  0.9150 -0.1643 -0.4935
 1314TIP3   OH2 3905   2.545   3.117   1.470 -0.4312 -0.4188 -0.3949
 1314TIP3    H1 3906   2.479   3.072   1.524  0.9229 -1.2600  0.6170
 1314TIP3    H2 3907   2.534   3.209   1.492 -2.3371 -0.3425 -1.4689
 1315TIP3   OH2 3908   1.236   3.330   5.193  0.0455  0.1212 -0.0166
 1315TIP3    H1 3909   1.291   3.405   5.171  0.6430 -0.5028 -0.7383
 1315TIP3    H2 3910   1.278   3.256   5.149 -0.2716 -0.7176  1.0533
 1316TIP3   OH2 3911   2.879   1.562   3.200 -0.0156 -0.1977 -0.5501
 1316TIP3    H1 3912   2.938   1.490   3.178  0.8655  0.4942 -0.5124
 1316TIP3    H2 3913   2.930   1.641   3.183 -0.5121  0.4043  0.6212
 1317TIP3   OH2 3914   0.912   3.165   1.270 -0.1798 -0.3858 -0.1080
 1317TIP3    H1 3915   0.889   3.182   1.179  2.2408 -0.0984 -0.7441
 1317TIP3    H2 3916   0.884   3.075   1.285 -1.2036 -0.2226 -0.9051
 1318TIP3   OH2 3917   5.343   0.820   1.578 -0.2410 -0.5396  0.0667
 1318TIP3    H1 3918   5.289   0.791   1.651 -0.8643  2.2514  0.8167
 1318TIP3    H2 3919   5.290   0.801   1.500 -1.1401 -0.2595  0.6023
 1319TIP3   OH2 3920   5.046   4.456   3.268 -0.4333  0.3688  0.6329
 1319TIP3    H1 3921   4.994   4.501   3.335  0.6284 -1.9467  3.2228
 1319TIP3    H2 3922   4.987   4.392   3.230 -0.6515  0.7002  0.4140
 1320TIP3   OH2 3923   3.608   5.446   3.345  0.3727  0.2724  0.3536
 1320TIP3    H1 3924   3.597   5.434   3.251 -0.0688  0.4918  0.3726
 1320TIP3    H2 3925   3.631   5.539   3.355 -0.7967  0.5630  0.5444
 1321TIP3   OH2 3926   4.180   1.006   1.654 -0.4192 -0.1123  0.3638
 1321TIP3    H1 3927   4.207   1.092   1.688  0.4771 -0.0953 -0.3212
 1321TIP3    H2 3928   4.096   0.989   1.695  0.1539  0.3353  1.8106
 1322TIP3   OH2 3929   7.234   2.321   0.947 -0.1138 -0.2529  0.2780
 1322TIP3    H1 3930   7.147   2.358   0.935  0.7426  1.4981 -0.9941
 1322TIP3    H2 3931   7.222   2.251   1.012 -2.4837 -0.2606 -0.0904
 1323TIP3   OH2 3932   3.576   5.861  -0.007  0.0368  0.2665  0.4239
 1323TIP3    H1 3933   3.536   5.815   0.067  0.3122  2.2608  1.8960
 1323TIP3    H2 3934   3.652   5.906   0.031  0.1363  1.4239 -1.0596
 1324TIP3   OH2 3935   3.708   1.226   3.523 -0.1294 -0.0467 -0.4239
 1324TIP3    H1 3936   3.634   1.285   3.508 -0.3251 -0.2639 -0.3206
 1324TIP3    H2 3937   3.670   1.138   3.519  0.3046 -0.2020 -1.3723
 1325TIP3   OH2 3938   3.968   6.368   4.266  0.2743  0.4978  0.1668
 1325TIP3    H1 3939   3.977   6.292   4.323  0.1216  0.7818  0.5799
 1325TIP3    H2 3940   3.958   6.332   4.178  0.4002  0.0488  0.3335
 1326TIP3   OH2 3941   6.860   2.097   2.713 -0.1285 -0.1673 -0.3401
 1326TIP3    H1 3942   6.800   2.026   2.690 -0.8725  0.9408 -2.0070
 1326TIP3    H2 3943   6.924   2.098   2.643  0.9357 -0.2984  0.6055
 1327TIP3   OH2 3944   6.185   6.589   4.925 -0.4982  0.5189 -0.3179
 1327TIP3    H1 3945   6.187   6.532   5.002 -0.3507  0.2116 -0.5459
 1327TIP3    H2 3946   6.109   6.645   4.939 -0.7313  0.1676 -0.1569
 1328TIP3   OH2 3947   6.109   4.358   3.954 -0.4399  0.1958  0.0143
 1328TIP3    H1 3948   6.190   4.406   3.939 -0.2775  1.2572  3.3301
 1328TIP3    H2 3949   6.133   4.266   3.944  1.3309  0.4648  1.2942
 1329TIP3   OH2 3950   5.046   0.393   2.546  0.3386  0.0594  0.0344
 1329TIP3    H1 3951   5.121   0.339   2.573  0.6471  0.8637  0.8295
 1329TIP3    H2 3952   5.066   0.417   2.456  2.5223  2.6367  1.0820
 1330TIP3   OH2 3953   6.902   1.996   3.707 -0.6437  0.3929  0.4649
 1330TIP3    H1 3954   6.837   1.968   3.643  1.5177  0.0403 -1.7390
 1330TIP3    H2 3955   6.966   1.925   3.709 -0.0469  0.9267  2.1946
 1331TIP3   OH2 3956   2.389   3.215   5.508  1.0141  0.3336  0.0450
 1331TIP3    H1 3957   2.303   3.189   5.475  0.3971 -0.5406  2.1520
 1331TIP3    H2 3958   2.450   3.193   5.438 -0.1190 -2.0088 -0.2814
 1332TIP3   OH2 3959   6.846   0.988   5.030  0.5402 -0.0098 -0.3283
 1332TIP3    H1 3960   6.759   0.998   4.994  0.5957  0.2594 -0.3908
 1332TIP3    H2 3961   6.839   1.019   5.120  0.8325  1.1263 -0.6777
 1333TIP3   OH2 3962   1.613   4.021   4.388 -0.2836 -0.0197  0.4001
 1333TIP3    H1 3963   1.701   3.984   4.389 -0.0821  0.2355 -1.8574
 1333TIP3    H2 3964   1.608   4.069   4.305 -2.4270  0.2735  0.6314
 1334TIP3   OH2 3965   1.645   2.610   1.855  0.0164  0.1143  0.8550
 1334TIP3    H1 3966   1.727   2.568   1.828 -0.6780 -0.7338 -0.0037
 1334TIP3    H2 3967   1.600   2.545   1.908 -0.3316  0.3901  0.9049
 1335TIP3   OH2 3968   5.440   6.356   0.404 -0.3611 -0.0648 -0.2009
 1335TIP3    H1 3969   5.520   6.352   0.457 -1.2719  3.1578  1.7219
 1335TIP3    H2 3970   5.472   6.372   0.315  1.2506  2.4530  0.7113
 1336TIP3   OH2 3971   3.876   0.644   5.029  0.0441 -0.2373 -0.0385
 1336TIP3    H1 3972   3.914   0.613   5.112 -1.2744 -0.8231  0.3757
 1336TIP3    H2 3973   3.788   0.606   5.028 -0.6032  1.2288 -0.8699
 1337TIP3   OH2 3974   1.470   1.887   0.053  0.6786  0.1665 -0.1216
 1337TIP3    H1 3975   1.466   1.798   0.019 -0.2650  0.0083  0.3491
 1337TIP3    H2 3976   1.538   1.884   0.120  1.1639 -0.0142 -0.6201
 1338TIP3   OH2 3977   5.982   1.169   5.463 -0.0973  0.3698  0.1462
 1338TIP3    H1 3978   6.037   1.114   5.519 -0.1128 -0.1029 -0.2965
 1338TIP3    H2 3979   5.946   1.109   5.398  0.0830  0.9394 -0.4927
 1339TIP3   OH2 3980   5.353   0.833   4.119 -0.0763  0.0746  0.2972
 1339TIP3    H1 3981   5.356   0.845   4.214 -0.2068  3.4096 -0.0207
 1339TIP3    H2 3982   5.437   0.793   4.097  1.1161  1.7470  1.5796
 1340TIP3   OH2 3983   0.263   0.839   5.778 -0.0797 -0.1786  0.1760
 1340TIP3    H1 3984   0.315   0.804   5.706  0.0288  0.2398  0.0491
 1340TIP3    H2 3985   0.247   0.763   5.834  0.5607 -0.3439  0.1523
 1341TIP3   OH2 3986   4.096   6.738   3.854  0.5556 -0.0971  0.2686
 1341TIP3    H1 3987   4.106   6.722   3.947  1.5928  1.4899  0.4555
 1341TIP3    H2 3988   4.006   6.769   3.845  0.2511 -0.8444  0.6310
 1342TIP3   OH2 3989   5.592   5.913   1.117  0.1169  0.1631 -0.0175
 1342TIP3    H1 3990   5.660   5.847   1.110  0.9359  1.1479 -1.8659
 1342TIP3    H2 3991   5.577   5.942   1.027 -1.2089  1.5082  0.5996
 1343TIP3   OH2 3992   2.330   0.242   1.572 -0.2069 -0.6838 -0.0878
 1343TIP3    H1 3993   2.258   0.225   1.632 -0.5828 -1.1706 -0.6749
 1343TIP3    H2 3994   2.290   0.290   1.499  0.5819  1.6781  0.9156
 1344TIP3   OH2 3995   2.071   4.736   3.989 -0.0086 -0.0392 -0.3092
 1344TIP3    H1 3996   2.062   4.667   4.054 -0.0883 -0.9672 -1.2866
 1344TIP3    H2 3997   2.162   4.729   3.960  0.1035  0.5501 -0.1147
 1345TIP3   OH2 3998   1.118   2.858   3.348  0.4005  0.5303 -0.2718
 1345TIP3    H1 3999   1.066   2.823   3.275 -0.1316 -0.1088  0.3970
 1345TIP3    H2 4000   1.056   2.862   3.421  0.9632  1.0312  0.1847
 1346TIP3   OH2 4001   0.424   1.276   0.668 -0.2212 -0.6707  0.1128
 1346TIP3    H1 4002   0.450   1.317   0.751 -2.5020  0.7994  0.1937
 1346TIP3    H2 4003   0.482   1.315   0.603 -0.9831  1.2388  0.5003
 1347TIP3   OH2 4004   6.504   2.296   3.169  0.0532 -0.5222 -0.3034
 1347TIP3    H1 4005   6.486   2.236   3.241 -0.5406 -1.1901 -0.9940
 1347TIP3    H2 4006   6.546   2.242   3.102  2.5648  0.5010  0.3091
 1348TIP3   OH2 4007   1.076   5.031   2.833 -0.0922 -0.4612 -0.4335
 1348TIP3    H1 4008   1.100   4.948   2.792  0.0953 -0.5458 -0.1501
 1348TIP3    H2 4009   1.067   5.092   2.759  3.3266  0.1964 -0.4594
 1349TIP3   OH2 4010   3.903   0.545   1.129 -0.0845  0.1292  0.5208
 1349TIP3    H1 4011   3.861   0.470   1.087 -1.2340  1.1673 -0.2333
 1349TIP3    H2 4012   3.832   0.605   1.150  0.8312  1.1268  0.8970
 1350TIP3   OH2 4013   0.951   0.433   1.373  0.4640  0.5085 -0.3236
 1350TIP3    H1 4014   0.947   0.428   1.278 -1.0392 -0.9308 -0.2244
 1350TIP3    H2 4015   1.034   0.391   1.396 -0.0429 -0.8737 -0.9276
 1351TIP3   OH2 4016   2.820   5.246   3.654 -0.2929 -0.3567  0.2555
 1351TIP3    H1 4017   2.896   5.247   3.712 -0.4128 -0.7033  0.4206
 1351TIP3    H2 4018   2.751   5.205   3.705 -1.0302  1.2617  0.6337
 1352TIP3   OH2 4019   0.964   4.733   3.733 -0.6274 -0.1575 -0.3401
 1352TIP3    H1 4020   0.953   4.711   3.640  0.7123 -0.4959 -0.4451
 1352TIP3    H2 4021   1.035   4.797   3.734 -1.5191  0.8591  0.3604
 1353TIP3   OH2 4022   2.431   6.222   3.610 -0.3782 -0.2162 -0.6182
 1353TIP3    H1 4023   2.487   6.211   3.687 -0.1717  2.6900 -0.2126
 1353TIP3    H2 4024   2.346   6.190   3.638  0.2899 -1.6697 -0.1309
 1354TIP3   OH2 4025   5.783   0.379   3.654  0.3631  0.1822  0.0924
 1354TIP3    H1 4026   5.763   0.344   3.567  1.5023  1.7931 -0.8480
 1354TIP3    H2 4027   5.877   0.392   3.654  0.1319  2.1069  0.8293
 1355TIP3   OH2 4028   3.193   4.322   2.889  0.5946  0.1511 -0.1554
 1355TIP3    H1 4029   3.258   4.318   2.959  1.9568  2.4886 -1.1909
 1355TIP3    H2 4030   3.144   4.402   2.907 -0.5095 -0.3862 -0.6776
 1356TIP3   OH2 4031   2.726   5.866   2.440  0.4796  0.1238  0.2717
 1356TIP3    H1 4032   2.753   5.776   2.461 -0.0953  0.0415  0.6851
 1356TIP3    H2 4033   2.696   5.902   2.523 -0.6495  0.2146 -0.1540
 1357TIP3   OH2 4034   0.783   0.523   5.874  0.2169 -0.0018  0.3082
 1357TIP3    H1 4035   0.710   0.549   5.931  0.1452 -0.7930  0.5908
 1357TIP3    H2 4036   0.741   0.485   5.797  0.3258  0.0299  0.2327
 1358TIP3   OH2 4037   5.215   1.495   4.979 -0.0270  0.0422 -0.0957
 1358TIP3    H1 4038   5.177   1.462   5.061  0.0431 -0.5724 -0.3002
 1358TIP3    H2 4039   5.303   1.456   4.976 -1.4159 -3.4978 -2.4372
 1359TIP3   OH2 4040   4.839   2.668   1.502  0.3317 -0.9606  0.2996
 1359TIP3    H1 4041   4.783   2.629   1.569 -0.2684  0.4086  0.6389
 1359TIP3    H2 4042   4.920   2.691   1.548  1.2682 -2.9880 -0.2020
 1360TIP3   OH2 4043   5.812   2.436   3.672 -0.1237 -0.4462  0.2500
 1360TIP3    H1 4044   5.835   2.451   3.581 -0.5382  1.2035  0.3964
 1360TIP3    H2 4045   5.810   2.341   3.680  1.7396 -0.6573 -0.9843
 1361TIP3   OH2 4046   0.612   2.601   4.620 -0.7569 -0.9580  0.0715
 1361TIP3    H1 4047   0.701   2.631   4.637 -0.7907  0.0983 -1.5371
 1361TIP3    H2 4048   0.556   2.673   4.648 -0.8790  0.1922 -2.8512
 1362TIP3   OH2 4049   0.958   6.160   0.592 -0.1303  0.9219 -0.4579
 1362TIP3    H1 4050   1.005   6.240   0.573 -1.4479  1.5227 -1.2970
 1362TIP3    H2 4051   0.866   6.186   0.599 -0.3382 -0.1381  1.5597
 1363TIP3   OH2 4052   6.362   2.439   0.175  0.1482 -0.2424 -0.4772
 1363TIP3    H1 4053   6.351   2.534   0.167  1.1602 -0.0405  0.2988
 1363TIP3    H2 4054   6.430   2.417   0.110  0.5724 -0.2814 -0.0281
 1364TIP3   OH2 4055   0.018   0.330   4.853 -0.2384 -0.2418  0.1149
 1364TIP3    H1 4056  -0.033   0.410   4.867 -0.1157 -0.1576  0.0912
 1364TIP3    H2 4057   0.103   0.349   4.892  0.4158  0.3367 -1.4998
 1365TIP3   OH2 4058   3.447   6.189   3.419  0.2437  0.6238 -0.4069
 1365TIP3    H1 4059   3.508   6.162   3.350  0.5305  1.9969 -0.7040
 1365TIP3    H2 4060   3.368   6.217   3.373 -1.9397 -3.8579  0.0094
 1366TIP3   OH2 4061   7.196   3.041   0.834 -0.6636  0.1701  0.2768
 1366TIP3    H1 4062   7.118   3.091   0.860 -2.3550 -2.2790  0.3202
 1366TIP3    H2 4063   7.198   3.047   0.739 -2.2539 -1.4431  0.0752
 1367TIP3   OH2 4064   0.793   3.394   1.414 -0.2754  0.0829 -0.3925
 1367TIP3    H1 4065   0.853   3.463   1.386 -0.4742 -0.2167 -1.6051
 1367TIP3    H2 4066   0.817   3.318   1.360  0.2100 -0.9424  1.1917
 1368TIP3   OH2 4067   1.654   5.001   1.980  0.7135  0.4645 -0.3103
 1368TIP3    H1 4068   1.739   4.960   1.997  0.5511  0.3450  0.2586
 1368TIP3    H2 4069   1.656   5.081   2.033  0.6283  0.6683 -0.6139
 1369TIP3   OH2 4070   4.585   0.500   3.833 -0.2713 -0.5525  0.3135
 1369TIP3    H1 4071   4.586   0.405   3.849 -0.3719 -0.5501  0.3347
 1369TIP3    H2 4072   4.595   0.508   3.738  1.7268 -0.5283  0.4816
 1370TIP3   OH2 4073   5.196   4.438   3.598 -0.0581  0.1766 -0.1577
 1370TIP3    H1 4074   5.147   4.397   3.526  2.0898 -0.2468 -1.4732
 1370TIP3    H2 4075   5.211   4.528   3.568 -1.7946  0.9761  1.1981
 1371TIP3   OH2 4076   1.139   1.912   5.250 -0.3887  0.3289  0.1789
 1371TIP3    H1 4077   1.093   1.951   5.325 -0.1880  2.4234 -0.7140
 1371TIP3    H2 4078   1.070   1.877   5.195 -0.6601  0.2599  0.5603
 1372TIP3   OH2 4079   5.181   2.200   1.477  0.1811  0.5823 -0.3836
 1372TIP3    H1 4080   5.177   2.109   1.506 -1.4892  0.6292 -0.3722
 1372TIP3    H2 4081   5.155   2.251   1.553 -0.8259  0.9297 -0.9462
 1373TIP3   OH2 4082   0.956   3.209   2.520 -0.1414  0.0667  0.1988
 1373TIP3    H1 4083   0.896   3.194   2.447 -0.7570 -0.5135  0.8082
 1373TIP3    H2 4084   1.042   3.219   2.479 -0.5538  0.2788 -0.6396
 1374TIP3   OH2 4085   6.600   3.776   1.419 -0.1275  0.2852 -0.3221
 1374TIP3    H1 4086   6.678   3.744   1.375  1.4028  2.0342  0.9758
 1374TIP3    H2 4087   6.528   3.730   1.376  1.5426 -0.9638 -1.9469
 1375TIP3   OH2 4088   5.908   5.018   1.013  0.0447  0.0860 -0.0584
 1375TIP3    H1 4089   5.869   5.075   0.947  2.9109  1.1628 -0.9625
 1375TIP3    H2 4090   5.965   4.959   0.963  0.4085 -0.7238  1.2581
 1376TIP3   OH2 4091   1.858   0.011   1.387  0.0010 -0.4479 -0.3363
 1376TIP3    H1 4092   1.880   0.103   1.375 -2.4103  0.1412 -0.9125
 1376TIP3    H2 4093   1.822  -0.016   1.302 -1.6791 -1.1457  0.5504
 1377TIP3   OH2 4094   4.916   4.201   3.208 -0.5614 -0.0464  0.8763
 1377TIP3    H1 4095   4.974   4.129   3.234 -1.2777 -0.8189  0.3858
 1377TIP3    H2 4096   4.854   4.209   3.280 -1.0764 -0.5791  0.4978
 1378TIP3   OH2 4097   6.045   0.456   5.839  0.3962  0.0529  0.2115
 1378TIP3    H1 4098   5.977   0.425   5.778 -1.0625  0.0493  1.7488
 1378TIP3    H2 4099   6.096   0.378   5.859  2.0813  0.3988 -2.3449
 1379TIP3   OH2 4100   0.631   4.199   0.199 -0.3619  0.4735  0.1694
 1379TIP3    H1 4101   0.648   4.131   0.133 -4.1676 -0.6595  0.1270
 1379TIP3    H2 4102   0.633   4.152   0.283  0.1379  1.0197  0.4727
 1380TIP3   OH2 4103   2.682   4.904   5.502 -0.0691  0.1733 -0.7261
 1380TIP3    H1 4104   2.606   4.896   5.560 -0.6818  1.2786 -1.3488
 1380TIP3    H2 4105   2.744   4.958   5.551  0.1517 -0.3807 -0.3880
 1381TIP3   OH2 4106   5.998   0.331   4.879 -0.0569 -0.0584 -0.4620
 1381TIP3    H1 4107   5.950   0.293   4.805 -0.1019  0.6623 -0.8056
 1381TIP3    H2 4108   6.046   0.404   4.841  0.8142 -0.3765  0.0096
 1382TIP3   OH2 4109   2.581   4.133   1.530  0.6488  0.5367  0.6154
 1382TIP3    H1 4110   2.670   4.168   1.537  0.7056  0.2232  1.5185
 1382TIP3    H2 4111   2.565   4.088   1.613  0.2166 -0.7731 -0.1432
 1383TIP3   OH2 4112   4.471   4.050   0.633  0.2541 -0.6831  0.3244
 1383TIP3    H1 4113   4.494   4.030   0.724 -2.2254  2.0825  1.7065
 1383TIP3    H2 4114   4.444   3.966   0.597  0.4521 -1.7141  2.4039
 1384TIP3   OH2 4115   5.709   2.648   1.492  0.0875  0.0358  0.4587
 1384TIP3    H1 4116   5.701   2.588   1.419 -0.6448  0.6026  0.0658
 1384TIP3    H2 4117   5.755   2.598   1.559  2.1394 -0.0434 -0.8974
 1385TIP3   OH2 4118   1.793   5.006   0.393  0.0106  0.2817 -0.2989
 1385TIP3    H1 4119   1.719   5.037   0.444  1.2020  0.0494  1.6938
 1385TIP3    H2 4120   1.781   4.912   0.386  0.4615  0.1334  0.6956
 1386TIP3   OH2 4121   5.821   4.705   2.884  0.1825 -0.7112 -0.4790
 1386TIP3    H1 4122   5.870   4.777   2.843 -0.1355 -0.8727 -1.1529
 1386TIP3    H2 4123   5.818   4.727   2.977 -1.1609  0.8861 -0.8696
 1387TIP3   OH2 4124   4.561   4.871   1.875  0.0317  0.4315 -0.3350
 1387TIP3    H1 4125   4.510   4.927   1.817  0.3333  2.3557  1.1765
 1387TIP3    H2 4126   4.652   4.891   1.855  0.1688 -0.4796 -0.6632
 1388TIP3   OH2 4127   2.741   6.143   5.676  0.1622 -0.6667 -0.6367
 1388TIP3    H1 4128   2.668   6.141   5.738  0.4991  1.7123 -0.0543
 1388TIP3    H2 4129   2.700   6.138   5.590 -0.6928  0.2910 -0.3082
 1389TIP3   OH2 4130   6.297   6.714   4.352  0.6578 -0.2090 -0.0702
 1389TIP3    H1 4131   6.239   6.766   4.408  0.0467 -1.5183  0.5466
 1389TIP3    H2 4132   6.332   6.646   4.409  0.8240 -0.9655 -1.0371
 1390TIP3   OH2 4133   4.316   1.244   3.645  0.1553 -0.3010 -0.0323
 1390TIP3    H1 4134   4.346   1.309   3.582 -0.2186 -1.0709 -1.0301
 1390TIP3    H2 4135   4.341   1.160   3.606  1.2185 -0.7540  1.5293
 1391TIP3   OH2 4136   0.346   0.401   4.479  0.0016 -0.2599  0.3942
 1391TIP3    H1 4137   0.265   0.365   4.516 -1.9663  2.0430 -1.3817
 1391TIP3    H2 4138   0.363   0.480   4.530  1.3712 -0.8524  0.9260
 1392TIP3   OH2 4139   4.431   3.112   4.426  0.4477  0.1350  0.5074
 1392TIP3    H1 4140   4.430   3.097   4.521  1.0870  1.2567  0.7052
 1392TIP3    H2 4141   4.475   3.035   4.391  0.4042 -0.1865  1.1368
 1393TIP3   OH2 4142   1.897   5.790   5.637  0.8040 -0.0056 -0.2207
 1393TIP3    H1 4143   1.909   5.881   5.611  0.5669  1.4847  4.0850
 1393TIP3    H2 4144   1.811   5.788   5.681  2.2896 -1.3050  2.9752
 1394TIP3   OH2 4145   4.499   4.656   3.151 -0.2246 -0.0513  0.1445
 1394TIP3    H1 4146   4.575   4.605   3.177 -0.2733  0.6157  1.7183
 1394TIP3    H2 4147   4.489   4.639   3.057  1.3501 -0.7956  0.0811
 1395TIP3   OH2 4148   3.790   6.029   2.604  0.4524 -0.6143 -0.4338
 1395TIP3    H1 4149   3.737   5.987   2.537 -1.3493  0.0393  0.5048
 1395TIP3    H2 4150   3.746   6.112   2.621  2.0521  0.1622  0.0819
 1396TIP3   OH2 4151   2.514   5.893   3.069 -0.5563 -0.2010 -0.4231
 1396TIP3    H1 4152   2.420   5.878   3.062 -0.8051  1.2893 -0.5995
 1396TIP3    H2 4153   2.527   5.981   3.035  0.8726 -0.2684 -0.1226
 1397TIP3   OH2 4154   2.414   3.305   2.665  0.3931 -0.5168 -0.4850
 1397TIP3    H1 4155   2.325   3.323   2.635  0.7517 -2.6255 -3.2044
 1397TIP3    H2 4156   2.403   3.256   2.747 -0.7529  1.7095  0.8088
 1398TIP3   OH2 4157   3.795   0.337   4.826  0.2622 -0.4303 -0.4370
 1398TIP3    H1 4158   3.842   0.260   4.791  0.8869  0.3723 -1.4209
 1398TIP3    H2 4159   3.787   0.395   4.751 -3.5525 -1.0690 -0.7156
 1399TIP3   OH2 4160   2.885   3.715   5.101 -0.5800  0.4785  0.0092
 1399TIP3    H1 4161   2.936   3.662   5.162  0.0193 -0.9682 -1.6521
 1399TIP3    H2 4162   2.821   3.654   5.065  0.3617  0.7253 -2.2226
 1400TIP3   OH2 4163   5.112   3.218   4.431 -0.0707  0.2467 -0.1116
 1400TIP3    H1 4164   5.104   3.277   4.356 -1.6213  1.7012  1.1300
 1400TIP3    H2 4165   5.023   3.187   4.447  0.2283 -0.0032  1.1581
 1401TIP3   OH2 4166   1.585   5.693   3.300 -0.3840  0.3650 -0.5294
 1401TIP3    H1 4167   1.600   5.766   3.361  0.2029  1.3596 -1.8052
 1401TIP3    H2 4168   1.539   5.732   3.226 -1.2483 -0.8579 -0.6671
 1402TIP3   OH2 4169   6.005   3.005   5.891  0.3871 -0.3349 -0.0280
 1402TIP3    H1 4170   6.067   2.945   5.932 -0.4520 -1.0705  0.1908
 1402TIP3    H2 4171   6.050   3.037   5.813  1.1211 -0.6827  0.2511
 1403TIP3   OH2 4172   1.514   1.730   4.211 -0.3417  0.2041 -0.1497
 1403TIP3    H1 4173   1.576   1.690   4.150 -0.5074  0.7829 -0.7140
 1403TIP3    H2 4174   1.430   1.690   4.188 -0.4507  0.6255 -0.4893
 1404TIP3   OH2 4175   6.694   6.748   2.248 -0.2953  0.0599  0.1554
 1404TIP3    H1 4176   6.616   6.798   2.271  0.2410  1.9649 -1.7269
 1404TIP3    H2 4177   6.760   6.774   2.312 -1.5192 -2.9322  2.8994
 1405TIP3   OH2 4178   6.358   2.324   3.911 -0.4560 -0.3323  0.1560
 1405TIP3    H1 4179   6.335   2.326   4.003 -1.6211  2.1130 -0.1207
 1405TIP3    H2 4180   6.306   2.394   3.871  0.4499 -0.9250 -2.2517
 1406TIP3   OH2 4181   4.334   6.235   4.963  0.1353 -0.3753  0.7935
 1406TIP3    H1 4182   4.291   6.166   5.014  2.8689 -0.7580  2.7716
 1406TIP3    H2 4183   4.412   6.193   4.927  0.9907  1.2497  0.6729
 1407TIP3   OH2 4184   1.307   3.801   4.391 -0.0579 -0.0324  0.4275
 1407TIP3    H1 4185   1.395   3.829   4.416  0.0960 -0.1127 -0.0227
 1407TIP3    H2 4186   1.315   3.774   4.300 -0.1100 -1.8915  0.9392
 1408TIP3   OH2 4187   6.792   1.014   4.567 -0.4706  0.2229 -0.1985
 1408TIP3    H1 4188   6.732   1.026   4.494 -0.1334  0.2255 -0.4749
 1408TIP3    H2 4189   6.857   1.084   4.557  1.5992 -1.7668 -1.9129
 1409TIP3   OH2 4190   4.819   2.984   5.392 -0.1878  0.2409  0.1025
 1409TIP3    H1 4191   4.858   2.962   5.307  2.4572  1.1282  1.0125
 1409TIP3    H2 4192   4.844   2.912   5.450  1.0022  1.2853  0.9343
 1410TIP3   OH2 4193   1.300   5.865   2.118 -0.2769  0.1333  0.6068
 1410TIP3    H1 4194   1.389   5.830   2.121 -0.6439 -0.7611  1.6320
 1410TIP3    H2 4195   1.303   5.933   2.050  0.5611 -1.6154 -1.2064
 1411TIP3   OH2 4196   1.363   0.025   5.717 -0.1391 -0.3085 -0.3338
 1411TIP3    H1 4197   1.439   0.079   5.740 -0.5363  0.2500 -0.3013
 1411TIP3    H2 4198   1.309   0.026   5.796 -0.6005  0.0383 -0.6506
 1412TIP3   OH2 4199   6.446   4.789   0.795  0.0201 -0.0065  0.2298
 1412TIP3    H1 4200   6.529   4.793   0.746  0.2660  1.6328  0.7201
 1412TIP3    H2 4201   6.449   4.866   0.852 -2.7430  1.2690 -1.1789
 1413TIP3   OH2 4202   1.012   3.535   3.971  0.2324  0.3371  0.2714
 1413TIP3    H1 4203   1.001   3.607   4.033  0.5570  1.1485 -0.5896
 1413TIP3    H2 4204   0.964   3.563   3.893  0.0206 -0.5636  0.0709
 1414TIP3   OH2 4205   5.588   4.091   2.825  0.9133 -0.3052 -0.5765
 1414TIP3    H1 4206   5.585   4.119   2.733 -0.9845 -0.0142 -0.4550
 1414TIP3    H2 4207   5.539   4.009   2.827 -0.7723  0.6710  0.4647
 1415TIP3   OH2 4208   1.357   3.607   4.824 -0.0168  0.0466  0.1145
 1415TIP3    H1 4209   1.409   3.658   4.886 -0.6324 -0.1301  0.7880
 1415TIP3    H2 4210   1.387   3.517   4.837 -1.3008 -0.2376  1.3762
 1416TIP3   OH2 4211   4.077   2.291   4.309  0.0086 -0.0589 -0.3390
 1416TIP3    H1 4212   4.078   2.237   4.230 -0.3500  0.9860 -1.0858
 1416TIP3    H2 4213   3.991   2.333   4.309  0.3286  0.6217  0.1298
 1417TIP3   OH2 4214   6.242   3.708   0.798 -0.2368  0.0595  0.1405
 1417TIP3    H1 4215   6.147   3.707   0.789 -0.3881  1.5123  1.1067
 1417TIP3    H2 4216   6.259   3.772   0.867  1.5056  0.7553 -0.8465
 1418TIP3   OH2 4217   6.929   5.348   1.775 -0.3509 -0.4460  0.0243
 1418TIP3    H1 4218   7.005   5.380   1.824 -0.5795  0.0533  0.0517
 1418TIP3    H2 4219   6.951   5.365   1.683  0.4065 -2.0615 -0.1360
 1419TIP3   OH2 4220   6.301   6.113   4.033 -1.0343 -0.1877  0.1124
 1419TIP3    H1 4221   6.207   6.113   4.019 -1.1368  1.1451  0.6328
 1419TIP3    H2 4222   6.315   6.177   4.103  0.3408  0.3461 -0.6144
 1420TIP3   OH2 4223   1.367   1.579   1.508  0.8081  0.2895  0.2430
 1420TIP3    H1 4224   1.462   1.575   1.523  0.5377 -0.6170  1.9095
 1420TIP3    H2 4225   1.339   1.487   1.509  0.3013  0.2310 -3.4553
 1421TIP3   OH2 4226   4.737   4.023   2.512  0.7401  0.0831 -0.1867
 1421TIP3    H1 4227   4.736   3.931   2.485  0.9464 -0.1791  0.6946
 1421TIP3    H2 4228   4.682   4.067   2.447  1.2325 -0.5344 -1.0440
 1422TIP3   OH2 4229   4.657   5.969   5.505  0.7446 -0.4513 -0.9537
 1422TIP3    H1 4230   4.682   5.882   5.536  0.8872 -0.5226 -1.2660
 1422TIP3    H2 4231   4.567   5.980   5.536  0.2094 -1.2912 -2.1232
 1423TIP3   OH2 4232   6.652   2.917   0.377 -0.1064 -0.6249 -0.3291
 1423TIP3    H1 4233   6.655   2.964   0.460 -0.9747 -0.0908 -0.5812
 1423TIP3    H2 4234   6.720   2.851   0.384  0.0610 -0.3620  0.6708
 1424TIP3   OH2 4235   0.665   6.018   4.519 -0.3977 -0.0023  0.1971
 1424TIP3    H1 4236   0.734   6.081   4.498 -1.3112  1.1010  0.4228
 1424TIP3    H2 4237   0.650   5.970   4.438 -1.0860  1.4729 -0.5892
 1425TIP3   OH2 4238   5.331   2.105   2.617 -0.0404  0.0452  0.2310
 1425TIP3    H1 4239   5.340   2.188   2.664  0.4235 -0.1378  0.4670
 1425TIP3    H2 4240   5.237   2.099   2.598 -0.3698 -0.2365  1.8221
 1426TIP3   OH2 4241   3.903   6.004   5.667 -0.1084  0.0552  0.0686
 1426TIP3    H1 4242   3.823   5.974   5.709 -0.0891 -0.0482  0.0316
 1426TIP3    H2 4243   3.951   5.924   5.646  0.0333  0.1167  0.1471
 1427TIP3   OH2 4244   4.341   1.243   4.897  0.4138 -0.4802  0.4117
 1427TIP3    H1 4245   4.326   1.188   4.820  0.4641  1.7897 -1.3327
 1427TIP3    H2 4246   4.284   1.318   4.884  0.8336  0.2379  2.3546
 1428TIP3   OH2 4247   1.125   3.313   2.348 -0.1963  0.1069  0.3266
 1428TIP3    H1 4248   1.215   3.291   2.372 -0.5241 -0.2378  1.2715
 1428TIP3    H2 4249   1.128   3.326   2.253  0.6154 -1.0388  0.1760
 1429TIP3   OH2 4250   3.334   4.291   5.110  0.1306  0.1487 -0.5628
 1429TIP3    H1 4251   3.405   4.228   5.097 -0.3517 -1.1418  2.2733
 1429TIP3    H2 4252   3.357   4.337   5.191 -1.8285  0.2665 -0.0067
 1430TIP3   OH2 4253   3.513   0.768   3.395  0.1544  0.0678 -0.2146
 1430TIP3    H1 4254   3.549   0.692   3.349 -1.5117 -0.3251 -0.9488
 1430TIP3    H2 4255   3.522   0.747   3.488  1.9874  0.1038 -0.3596
 1431TIP3   OH2 4256   1.144   5.233   3.999 -0.0545 -0.8837  0.1072
 1431TIP3    H1 4257   1.114   5.249   4.089 -0.2594 -1.3961  0.1343
 1431TIP3    H2 4258   1.078   5.174   3.962 -0.0375 -0.5747 -0.4216
 1432TIP3   OH2 4259   6.971   3.842   2.976 -0.4652 -0.1232  0.7400
 1432TIP3    H1 4260   6.970   3.815   3.068 -0.9768  0.9854  1.0804
 1432TIP3    H2 4261   6.879   3.861   2.956 -0.3286 -0.1580  0.0590
 1433TIP3   OH2 4262   1.826   6.209   0.742  0.6278  0.5643 -0.7980
 1433TIP3    H1 4263   1.870   6.129   0.774  1.4286  0.9020 -1.0226
 1433TIP3    H2 4264   1.812   6.193   0.649 -0.7357  0.0170 -0.5205
 1434TIP3   OH2 4265   1.065   3.970   2.550 -0.1116 -0.5329  0.0669
 1434TIP3    H1 4266   1.099   3.936   2.468 -0.1487 -1.5522  0.4686
 1434TIP3    H2 4267   0.997   3.908   2.576 -2.1705  1.3046 -0.5876
 1435TIP3   OH2 4268   2.908   2.482   2.209  0.1866  0.1550  0.3767
 1435TIP3    H1 4269   2.845   2.553   2.225  1.4073  1.0552  1.4672
 1435TIP3    H2 4270   2.984   2.526   2.171 -0.2069 -1.0769 -1.9813
 1436TIP3   OH2 4271   2.105   0.210   1.717 -0.5277  0.1287  0.2469
 1436TIP3    H1 4272   2.049   0.201   1.639 -1.5240 -2.1585  1.1377
 1436TIP3    H2 4273   2.046   0.246   1.784 -0.6210 -1.0800  0.8358
 1437TIP3   OH2 4274   2.277   3.090   0.187 -0.1377 -0.2473 -0.2748
 1437TIP3    H1 4275   2.280   3.124   0.098  0.2388  0.2315 -0.0822
 1437TIP3    H2 4276   2.229   3.157   0.237 -0.0775 -0.3649 -0.0566
 1438TIP3   OH2 4277   4.633   6.017   3.024 -0.0110 -0.8003 -0.3118
 1438TIP3    H1 4278   4.548   6.031   3.066  0.1720  1.9933 -0.7222
 1438TIP3    H2 4279   4.680   5.958   3.084 -1.8466 -1.6117  0.3931
 1439TIP3   OH2 4280   2.911   3.515   2.695  0.2008 -0.4573  0.1611
 1439TIP3    H1 4281   2.921   3.473   2.609  1.0505  0.2511 -0.1033
 1439TIP3    H2 4282   2.914   3.608   2.676 -0.8946 -0.2764  0.8281
 1440TIP3   OH2 4283   2.995   5.373   2.347  0.2270  0.1655 -0.2086
 1440TIP3    H1 4284   2.932   5.311   2.382  0.3781  0.1164 -0.0164
 1440TIP3    H2 4285   3.035   5.412   2.425 -0.4377  1.0940 -0.3123
 1441TIP3   OH2 4286   3.763   0.204   5.900  0.1012  0.2094 -0.0902
 1441TIP3    H1 4287   3.745   0.191   5.807 -2.6574 -1.2214  0.5202
 1441TIP3    H2 4288   3.692   0.261   5.930  0.8044  0.4556  1.1998
 1442TIP3   OH2 4289   5.543   1.702   1.913 -0.0979  0.1811 -0.2929
 1442TIP3    H1 4290   5.493   1.754   1.976  0.0843  1.6086 -1.2660
 1442TIP3    H2 4291   5.589   1.767   1.859 -0.5606 -0.9486 -2.1612
 1443TIP3   OH2 4292   1.838   0.627   3.130 -0.4781 -0.1906  0.0280
 1443TIP3    H1 4293   1.880   0.543   3.112 -0.4663 -0.2679  0.4214
 1443TIP3    H2 4294   1.875   0.686   3.064 -1.5014 -0.8023 -1.1343
 1444TIP3   OH2 4295   2.894   2.149   1.035 -0.3082  0.5109 -0.3756
 1444TIP3    H1 4296   2.842   2.075   1.067  0.9776  0.0238  0.6348
 1444TIP3    H2 4297   2.924   2.194   1.114  0.9149  0.7075 -0.9292
 1445TIP3   OH2 4298   0.300   1.516   2.722  0.1674 -0.4160 -0.0628
 1445TIP3    H1 4299   0.358   1.591   2.706  1.9208 -1.5534  0.5904
 1445TIP3    H2 4300   0.251   1.505   2.641 -0.2230  1.4812 -0.1362
 1446TIP3   OH2 4301   1.365   4.309   5.028 -0.3038 -0.1324  0.6527
 1446TIP3    H1 4302   1.374   4.368   4.953  0.1453 -1.8346 -0.7096
 1446TIP3    H2 4303   1.358   4.222   4.989  1.3856 -1.2427  2.6383
 1447TIP3   OH2 4304   1.930   5.428   2.894 -0.3273  0.2747 -0.2244
 1447TIP3    H1 4305   1.994   5.452   2.826 -0.9376  0.8735 -0.6068
 1447TIP3    H2 4306   1.962   5.470   2.973  0.6197 -0.7764 -0.0286
 1448TIP3   OH2 4307   6.474   2.104   3.372 -0.3781  0.6867  0.7535
 1448TIP3    H1 4308   6.473   2.096   3.468 -0.0695 -2.8585  0.5781
 1448TIP3    H2 4309   6.405   2.045   3.343 -1.3509  2.6687 -1.2741
 1449TIP3   OH2 4310   4.785   0.539   1.242  0.2642  0.2387  0.1890
 1449TIP3    H1 4311   4.768   0.453   1.204 -0.7147  1.8008 -3.3350
 1449TIP3    H2 4312   4.860   0.572   1.193 -0.6662  2.1637 -0.0386
 1450TIP3   OH2 4313   2.458   1.418   4.453  0.1494 -0.2472  0.3042
 1450TIP3    H1 4314   2.451   1.352   4.521 -0.1997 -0.2999  0.2159
 1450TIP3    H2 4315   2.533   1.390   4.400 -1.4504 -1.9410 -1.2079
 1451TIP3   OH2 4316   2.608   0.287   0.128  0.2967  0.3355  0.1719
 1451TIP3    H1 4317   2.589   0.208   0.077 -0.1168  1.0860 -0.8727
 1451TIP3    H2 4318   2.695   0.314   0.099 -0.3112  1.2720 -0.8398
 1452TIP3   OH2 4319   1.435   0.849   2.455 -0.0320  0.1750  0.0294
 1452TIP3    H1 4320   1.452   0.847   2.361 -0.1552 -1.0120  0.0138
 1452TIP3    H2 4321   1.393   0.765   2.474 -0.9185  0.7964  0.9872
 1453TIP3   OH2 4322   3.393   1.204   2.070 -0.3695  0.0964 -0.6799
 1453TIP3    H1 4323   3.319   1.159   2.112  0.1869  0.4979  0.8175
 1453TIP3    H2 4324   3.353   1.277   2.023 -1.0729 -0.7059 -1.3604
 1454TIP3   OH2 4325   0.172   1.009   3.700 -0.2539 -0.4655 -0.2169
 1454TIP3    H1 4326   0.256   1.050   3.679 -0.9790  0.4757 -1.4588
 1454TIP3    H2 4327   0.171   0.928   3.650 -0.7566  0.3413 -1.5512
 1455TIP3   OH2 4328   0.370   4.370   0.122 -0.0883 -0.1701 -0.0048
 1455TIP3    H1 4329   0.442   4.337   0.068  0.4133 -2.8867  2.1166
 1455TIP3    H2 4330   0.376   4.465   0.114  2.7325 -0.3477 -1.1541
 1456TIP3   OH2 4331   1.927   4.920   4.750  0.2798  0.2011  0.1854
 1456TIP3    H1 4332   1.907   4.926   4.843  1.4264  0.0505  0.4562
 1456TIP3    H2 4333   1.907   4.829   4.728 -1.1732  0.5447 -0.0254
 1457TIP3   OH2 4334   5.551   3.715   0.947  0.1905  0.3636 -0.1696
 1457TIP3    H1 4335   5.613   3.762   1.003  0.7296  0.2727 -0.6869
 1457TIP3    H2 4336   5.529   3.636   0.997 -1.9030  1.8077  1.4239
 1458TIP3   OH2 4337   3.568   4.461   3.957  0.2732 -0.1963  0.5154
 1458TIP3    H1 4338   3.525   4.546   3.970  2.6332  0.7676  2.8550
 1458TIP3    H2 4339   3.519   4.401   4.014 -0.3667 -0.0518  0.1331
 1459TIP3   OH2 4340   0.925   0.060   2.462  0.6911 -0.6921 -0.5899
 1459TIP3    H1 4341   1.002   0.053   2.405  2.4267 -0.3811  1.5847
 1459TIP3    H2 4342   0.913  -0.028   2.497 -0.4932 -0.9293 -1.5253
 1460TIP3   OH2 4343   3.043   1.956   0.290 -1.0136  0.1812  0.1117
 1460TIP3    H1 4344   2.978   1.973   0.222 -0.0588  1.0397 -0.6054
 1460TIP3    H2 4345   3.021   2.018   0.360 -1.2567  0.1229  0.0892
 1461TIP3   OH2 4346   3.226   0.636   0.241 -0.0025 -0.3954 -0.1969
 1461TIP3    H1 4347   3.321   0.635   0.233  0.4506 -0.1678  3.6099
 1461TIP3    H2 4348   3.202   0.547   0.266 -0.6223 -0.0907  0.3144
 1462TIP3   OH2 4349   2.628   6.385   0.226  0.2936 -0.4865 -0.2067
 1462TIP3    H1 4350   2.695   6.429   0.279 -0.5431  0.1832  0.3282
 1462TIP3    H2 4351   2.557   6.367   0.288 -0.6413  0.1742 -1.0491
 1463TIP3   OH2 4352   6.597   5.853   0.035  0.0701  0.3498  0.6309
 1463TIP3    H1 4353   6.606   5.822  -0.055 -2.4833  0.3415  0.3145
 1463TIP3    H2 4354   6.679   5.827   0.077  1.9802  1.6029 -2.0026
 1464TIP3   OH2 4355   6.722   1.045   5.914  0.9037 -0.1838  0.2303
 1464TIP3    H1 4356   6.697   1.137   5.912  1.7760  0.0582 -1.7200
 1464TIP3    H2 4357   6.709   1.015   5.824  1.8905 -1.6104  0.5305
 1465TIP3   OH2 4358   6.571   0.055   2.158  0.1466 -0.2026 -0.1023
 1465TIP3    H1 4359   6.532  -0.028   2.131  1.1339 -0.5621 -0.4593
 1465TIP3    H2 4360   6.665   0.043   2.143  0.4502  0.4694  1.2003
 1466TIP3   OH2 4361   0.795   1.935   1.724  0.5411 -0.1320 -0.0736
 1466TIP3    H1 4362   0.773   2.025   1.747 -0.2389 -0.5841  1.0362
 1466TIP3    H2 4363   0.870   1.913   1.779  0.2136 -0.4221  0.2612
 1467TIP3   OH2 4364   3.307   0.572   2.317 -0.0379  0.1065  0.3461
 1467TIP3    H1 4365   3.357   0.609   2.244 -0.1196  0.4992  0.4849
 1467TIP3    H2 4366   3.370   0.518   2.365  0.2595  0.6003  0.5223
 1468TIP3   OH2 4367   5.533   4.458   1.551  0.5204 -0.3750  0.2903
 1468TIP3    H1 4368   5.448   4.471   1.594  0.7194  1.7843  0.1540
 1468TIP3    H2 4369   5.597   4.468   1.621  0.7527  0.9160 -0.0867
 1469TIP3   OH2 4370   5.479   6.181   1.088 -0.4520  0.1060 -0.2695
 1469TIP3    H1 4371   5.406   6.223   1.042 -1.9957 -2.3743 -0.2905
 1469TIP3    H2 4372   5.552   6.185   1.026 -1.5572 -0.3369 -1.6461
 1470TIP3   OH2 4373   3.276   5.402   5.228  0.4030 -0.6056  0.1802
 1470TIP3    H1 4374   3.209   5.442   5.172 -1.9941 -1.1703  2.4920
 1470TIP3    H2 4375   3.345   5.376   5.166 -1.2791  0.3715 -2.2886
 1471TIP3   OH2 4376   1.982   1.622   4.944 -0.7999  0.2061 -0.4764
 1471TIP3    H1 4377   2.074   1.638   4.966 -0.5979 -1.5150  0.0388
 1471TIP3    H2 4378   1.972   1.527   4.945 -2.5726  0.3429 -0.6195
 1472TIP3   OH2 4379   2.306   5.759   3.399  0.2681  1.0357  0.4470
 1472TIP3    H1 4380   2.392   5.745   3.439  0.4938  0.5810 -0.1867
 1472TIP3    H2 4381   2.245   5.716   3.459  0.8914 -2.4396 -1.2025
 1473TIP3   OH2 4382   4.754   6.044   2.671 -0.3852 -0.5099  0.0380
 1473TIP3    H1 4383   4.801   6.090   2.741 -1.0597 -0.3765  0.4042
 1473TIP3    H2 4384   4.811   6.054   2.595  0.2078 -0.3899  0.4888
 1474TIP3   OH2 4385   7.071   5.339   5.522 -0.8981 -0.1120 -0.3966
 1474TIP3    H1 4386   7.123   5.259   5.516 -0.0146  0.5266 -1.9413
 1474TIP3    H2 4387   6.980   5.309   5.510 -0.6933 -0.9850  0.1139
 1475TIP3   OH2 4388   1.302   6.630   4.463  0.0366  0.3258  0.0977
 1475TIP3    H1 4389   1.316   6.606   4.555  0.2961  2.9263  0.8359
 1475TIP3    H2 4390   1.290   6.725   4.465  1.5569  0.7022 -2.7302
 1476TIP3   OH2 4391   4.263   5.183   0.479 -0.3996 -0.1641  0.1857
 1476TIP3    H1 4392   4.246   5.093   0.505 -1.3617 -0.2771 -0.7693
 1476TIP3    H2 4393   4.310   5.175   0.396 -0.5733  0.2140  0.0494
 1477TIP3   OH2 4394   5.709   2.059   1.425 -0.3953 -0.1152 -0.4033
 1477TIP3    H1 4395   5.697   2.151   1.404 -2.1181 -0.3160 -0.4013
 1477TIP3    H2 4396   5.740   2.020   1.343 -2.2305  0.0120 -1.1945
 1478TIP3   OH2 4397   3.846   0.409   2.286  0.1843 -0.1080  0.3124
 1478TIP3    H1 4398   3.751   0.422   2.281  0.1253 -0.7537 -2.9977
 1478TIP3    H2 4399   3.883   0.494   2.261  0.4841 -0.0393  0.9669
 1479TIP3   OH2 4400   1.331   3.358   4.241  0.0167 -0.1544 -0.2116
 1479TIP3    H1 4401   1.343   3.263   4.237 -1.2616 -0.3742  0.6938
 1479TIP3    H2 4402   1.336   3.386   4.150 -0.2037 -1.1790 -0.5538
 1480TIP3   OH2 4403   6.789   6.572   2.076 -0.1886  0.1960  0.0375
 1480TIP3    H1 4404   6.724   6.560   2.006 -0.2409 -0.4411  0.1910
 1480TIP3    H2 4405   6.750   6.637   2.134 -0.2373  0.5737 -0.4135
 1481TIP3   OH2 4406   3.552   2.934   3.803  0.0366  0.2090  0.0167
 1481TIP3    H1 4407   3.578   3.009   3.750 -1.9852 -0.3442 -1.8686
 1481TIP3    H2 4408   3.634   2.889   3.822  0.8734  0.5172 -2.5345
 1482TIP3   OH2 4409   3.250   0.222   3.955  0.2581  0.1804  0.0546
 1482TIP3    H1 4410   3.339   0.253   3.970 -0.5647  2.7259  0.0120
 1482TIP3    H2 4411   3.214   0.281   3.889 -1.5395 -0.6642  0.2280
 1483TIP3   OH2 4412   4.691   4.610   4.191 -0.5199 -0.4088 -0.4347
 1483TIP3    H1 4413   4.752   4.557   4.139 -1.0042 -0.8344 -0.5829
 1483TIP3    H2 4414   4.708   4.583   4.281 -0.8968 -0.9739 -0.5242
 1484TIP3   OH2 4415   1.107   1.711   2.628 -0.1303 -0.1978 -0.4973
 1484TIP3    H1 4416   1.059   1.629   2.639  1.1789 -0.9577 -0.2563
 1484TIP3    H2 4417   1.140   1.731   2.715 -1.5286  1.3272 -0.2552
 1485TIP3   OH2 4418   1.428   4.756   3.915 -0.0171  0.3760  0.0121
 1485TIP3    H1 4419   1.400   4.678   3.964  2.0574 -0.4912 -0.0886
 1485TIP3    H2 4420   1.411   4.734   3.824 -0.6711  0.5893  0.0797
 1486TIP3   OH2 4421   0.578   1.088   3.310 -0.3030 -0.2935 -0.2380
 1486TIP3    H1 4422   0.517   1.033   3.260 -0.1606 -0.7681  0.1086
 1486TIP3    H2 4423   0.664   1.049   3.295 -0.0782  0.3645 -0.7094
 1487TIP3   OH2 4424   3.286   6.142   5.200  0.2060 -0.1683  0.1181
 1487TIP3    H1 4425   3.271   6.047   5.199  0.5122 -0.2450 -2.4310
 1487TIP3    H2 4426   3.370   6.152   5.244 -0.1349 -0.9960  1.0129
 1488TIP3   OH2 4427   0.353   0.511   0.946 -0.7637 -0.3804  0.0046
 1488TIP3    H1 4428   0.380   0.521   1.037 -0.3262 -0.1378 -0.1505
 1488TIP3    H2 4429   0.311   0.425   0.943  1.5651 -1.6022 -0.1101
 1489TIP3   OH2 4430   6.047   1.475   2.386 -0.0954  0.5324 -0.1787
 1489TIP3    H1 4431   5.995   1.502   2.462  2.3885  1.2923  1.3696
 1489TIP3    H2 4432   6.079   1.388   2.408  2.5897  1.6741  0.8693
 1490TIP3   OH2 4433   2.986   0.882   1.821  0.5028 -0.3124 -0.4350
 1490TIP3    H1 4434   3.080   0.894   1.838  0.0852  2.4079  0.4946
 1490TIP3    H2 4435   2.962   0.806   1.875  1.8479  0.0266  0.7284
 1491TIP3   OH2 4436   6.397   0.656   3.337 -0.5040 -0.3085 -0.8974
 1491TIP3    H1 4437   6.418   0.740   3.297 -1.0341 -0.4301 -1.4515
 1491TIP3    H2 4438   6.400   0.672   3.431 -0.0666  0.1916 -0.9945
 1492TIP3   OH2 4439   5.911   6.782   3.665  0.0080  0.1290  0.2869
 1492TIP3    H1 4440   5.898   6.726   3.741  0.5205  2.4404  2.1780
 1492TIP3    H2 4441   6.005   6.775   3.645  0.1910  0.7736  0.9105
 1493TIP3   OH2 4442   4.086   0.288   4.824  0.0028 -0.1874  0.4502
 1493TIP3    H1 4443   4.099   0.348   4.750 -3.2959 -0.1955 -0.2906
 1493TIP3    H2 4444   4.079   0.201   4.784 -1.0704 -0.2884  0.8292
 1494TIP3   OH2 4445   6.336   1.479   4.417  0.2095  0.3849  0.4350
 1494TIP3    H1 4446   6.428   1.505   4.412  0.0597  1.1806  1.3967
 1494TIP3    H2 4447   6.337   1.384   4.415  0.9944  0.4008 -0.3723
 1495TIP3   OH2 4448   5.384   0.894   4.395 -0.3890 -0.2041 -0.1657
 1495TIP3    H1 4449   5.424   0.979   4.412  0.0679 -0.4515  0.0044
 1495TIP3    H2 4450   5.434   0.833   4.449 -0.0630 -0.7327 -1.0487
 1496TIP3   OH2 4451   5.493   6.368   1.375  0.1789  0.4908 -0.2484
 1496TIP3    H1 4452   5.425   6.311   1.340 -0.0331 -0.4767  1.5903
 1496TIP3    H2 4453   5.503   6.437   1.310 -0.8837 -0.6361 -1.6617
 1497TIP3   OH2 4454   5.009   0.946   2.675  0.2117 -0.2609 -0.3771
 1497TIP3    H1 4455   4.942   0.967   2.610 -0.4263 -0.8730  0.0683
 1497TIP3    H2 4456   5.012   0.850   2.677  0.6727 -0.2464  0.0435
 1498TIP3   OH2 4457   3.935   1.315   5.358  0.2585  0.1617  0.2596
 1498TIP3    H1 4458   3.965   1.387   5.304  1.0887 -1.8342 -2.1599
 1498TIP3    H2 4459   3.869   1.271   5.304  0.3649 -1.3326  1.2880
 1499TIP3   OH2 4460   6.827   2.308   5.809 -0.3487  0.7423 -0.2316
 1499TIP3    H1 4461   6.827   2.255   5.889 -0.3679 -0.3773 -0.9370
 1499TIP3    H2 4462   6.903   2.365   5.818  0.9950 -0.9288 -0.3774
 1500TIP3   OH2 4463   2.856   6.339   3.987 -0.4205  0.3174 -0.0487
 1500TIP3    H1 4464   2.918   6.270   4.008 -0.5008 -0.0320 -0.9474
 1500TIP3    H2 4465   2.861   6.399   4.062  2.4467  1.3393 -0.8936
 1501TIP3   OH2 4466   3.482   2.044   1.307  0.0134  0.1789 -0.3147
 1501TIP3    H1 4467   3.487   1.989   1.386  0.6318 -0.1750 -0.5908
 1501TIP3    H2 4468   3.557   2.103   1.314  0.8517 -0.7246 -1.2610
 1502TIP3   OH2 4469   2.518   5.951   5.284  0.1249 -0.2058  0.2087
 1502TIP3    H1 4470   2.583   5.898   5.237 -1.0565 -1.5224 -0.0077
 1502TIP3    H2 4471   2.440   5.947   5.229 -0.2200  1.1963  0.5600
 1503TIP3   OH2 4472   4.654   0.861   1.526 -0.3980 -0.4030  0.2910
 1503TIP3    H1 4473   4.618   0.947   1.506 -1.2930 -0.4216  1.6863
 1503TIP3    H2 4474   4.739   0.879   1.565 -0.7645 -0.1133  0.9742
 1504TIP3   OH2 4475   5.706   0.358   4.423  0.4116 -0.0316  0.1262
 1504TIP3    H1 4476   5.695   0.285   4.484 -0.0989 -0.1990 -0.1646
 1504TIP3    H2 4477   5.763   0.419   4.470 -1.6301  0.8239  1.6645
 1505TIP3   OH2 4478   2.849   5.016   1.112  0.1031  0.3110  0.5034
 1505TIP3    H1 4479   2.917   4.997   1.047  1.1187  1.0976  1.2982
 1505TIP3    H2 4480   2.767   5.007   1.064  0.6443 -2.1657 -0.1435
 1506TIP3   OH2 4481   2.018   1.388   4.458 -0.1483 -0.1315  0.3774
 1506TIP3    H1 4482   2.054   1.342   4.534 -0.3127 -0.9052 -0.0048
 1506TIP3    H2 4483   2.093   1.432   4.419 -0.3232  1.6961  1.9313
 1507TIP3   OH2 4484   1.772   2.836   1.091  0.1488  0.0626  0.6501
 1507TIP3    H1 4485   1.808   2.909   1.042 -0.2741  0.0849  0.3670
 1507TIP3    H2 4486   1.681   2.829   1.061  0.6835 -1.7555 -0.7286
 1508TIP3   OH2 4487   3.446   6.651   0.464  0.2623 -0.6759  0.3945
 1508TIP3    H1 4488   3.384   6.618   0.529  0.4173 -1.4524  0.1596
 1508TIP3    H2 4489   3.468   6.575   0.411  0.5115 -0.1589 -0.2691
 1509TIP3   OH2 4490   5.159   3.927   1.790  0.5309  0.1252  0.3233
 1509TIP3    H1 4491   5.166   4.012   1.748 -0.1706 -0.4612 -1.0758
 1509TIP3    H2 4492   5.132   3.868   1.719  2.1807 -1.4969  0.9652
 1510TIP3   OH2 4493   1.408   0.752   5.467 -0.1892  0.2498 -0.2183
 1510TIP3    H1 4494   1.486   0.739   5.520 -0.0510 -0.5593 -0.5982
 1510TIP3    H2 4495   1.433   0.816   5.401 -0.7353  2.2513  1.4190
 1511TIP3   OH2 4496   6.335   0.732   4.454  0.1701 -0.6312  0.1430
 1511TIP3    H1 4497   6.429   0.717   4.464 -0.0272 -1.2289  1.3828
 1511TIP3    H2 4498   6.321   0.822   4.483  0.3592 -0.5402 -0.0481
 1512TIP3   OH2 4499   3.941   5.121   4.818  0.2630  0.2116 -0.0102
 1512TIP3    H1 4500   3.871   5.060   4.839  0.2794  0.1768 -0.0562
 1512TIP3    H2 4501   3.934   5.135   4.723 -0.0110  0.6160  0.0651
 1513TIP3   OH2 4502   0.719   0.095   1.320 -0.1838  0.0796 -0.7778
 1513TIP3    H1 4503   0.659   0.073   1.249 -0.3650 -0.1694 -0.5513
 1513TIP3    H2 4504   0.679   0.056   1.398  0.1630  0.1001 -0.5871
 1514TIP3   OH2 4505   4.249   6.450   4.802  0.3694 -0.5513  0.2631
 1514TIP3    H1 4506   4.289   6.372   4.840  0.6022 -0.5465  0.0361
 1514TIP3    H2 4507   4.215   6.499   4.876  2.5727  0.4515  0.6786
 1515TIP3   OH2 4508   2.355   6.170   4.665 -0.2337  0.1708  0.1730
 1515TIP3    H1 4509   2.304   6.101   4.708 -1.7766  1.6954  0.8774
 1515TIP3    H2 4510   2.391   6.222   4.737 -1.1232  1.5244 -0.3241
 1516TIP3   OH2 4511   1.507   6.455   2.014  0.3543  0.5662  0.1410
 1516TIP3    H1 4512   1.467   6.508   1.945  0.4474  2.4167  1.4215
 1516TIP3    H2 4513   1.581   6.508   2.044 -0.5528  0.5418  2.6147
 1517TIP3   OH2 4514   4.495   0.341   4.880  0.5245 -0.2344  0.1917
 1517TIP3    H1 4515   4.495   0.250   4.848 -1.0164 -0.2824  0.2293
 1517TIP3    H2 4516   4.552   0.388   4.820  1.4447 -1.2537  0.2458
 1518TIP3   OH2 4517   1.877   3.409   0.926 -0.0982  0.7092  0.2486
 1518TIP3    H1 4518   1.952   3.356   0.949  0.2435  0.1467 -1.9728
 1518TIP3    H2 4519   1.891   3.492   0.973  1.6878  0.4800  0.1725
 1519TIP3   OH2 4520   3.760   3.484   2.530  0.2317 -0.0775  0.2829
 1519TIP3    H1 4521   3.815   3.460   2.455 -0.1069 -0.3990  0.1334
 1519TIP3    H2 4522   3.719   3.567   2.504  0.3759 -0.0143  0.2544
 1520TIP3   OH2 4523   2.099   5.654   1.835  0.1756 -0.3926 -0.1899
 1520TIP3    H1 4524   2.158   5.653   1.911 -0.2828 -0.0776  0.1816
 1520TIP3    H2 4525   2.150   5.616   1.764  0.7396 -0.3578  0.1884
 1521TIP3   OH2 4526   3.680   4.870   1.706  0.1210 -0.3549  0.3799
 1521TIP3    H1 4527   3.681   4.775   1.718  0.1204 -0.5869 -1.2048
 1521TIP3    H2 4528   3.699   4.883   1.613  0.4326  1.2202  0.6253
 1522TIP3   OH2 4529   2.227   0.974   1.273 -0.1085 -0.3742  0.0298
 1522TIP3    H1 4530   2.132   0.986   1.266 -0.1135 -0.6758 -0.4661
 1522TIP3    H2 4531   2.242   0.883   1.246  0.4299 -0.0168 -0.9265
 1523TIP3   OH2 4532   5.705   0.428   1.218  0.5567 -0.1747  0.0487
 1523TIP3    H1 4533   5.706   0.365   1.146 -0.4342  1.0166 -1.0762
 1523TIP3    H2 4534   5.628   0.404   1.269  0.5694 -0.2928  0.0130
 1524TIP3   OH2 4535   4.123   4.891   5.302  0.0772 -0.5813 -0.7208
 1524TIP3    H1 4536   4.157   4.863   5.387 -0.7474 -1.0487 -0.5349
 1524TIP3    H2 4537   4.036   4.851   5.297 -1.0014  1.6106 -0.6219
 1525TIP3   OH2 4538   3.161   5.323   3.250  0.3571  0.1792  0.0313
 1525TIP3    H1 4539   3.240   5.272   3.269  0.9911  1.3161  0.6151
 1525TIP3    H2 4540   3.124   5.343   3.337 -0.7960 -0.6520 -0.2498
 1526TIP3   OH2 4541   5.816   6.818   4.440 -0.7338 -0.1353  0.0712
 1526TIP3    H1 4542   5.845   6.733   4.406 -1.0751  0.4726 -1.8998
 1526TIP3    H2 4543   5.726   6.803   4.469 -0.9920 -0.3412 -0.8083
 1527TIP3   OH2 4544   6.813   0.394   1.839 -0.2506  0.2579  0.7142
 1527TIP3    H1 4545   6.817   0.381   1.934  0.9451 -1.2831  0.4928
 1527TIP3    H2 4546   6.775   0.313   1.805  0.3899  0.3243 -0.2004
 1528TIP3   OH2 4547   2.843   5.068   5.634  0.0547 -0.6122  0.0280
 1528TIP3    H1 4548   2.829   5.062   5.728  1.1038  3.4058  0.6441
 1528TIP3    H2 4549   2.938   5.063   5.624  0.0194 -0.0016 -0.6835
 1529TIP3   OH2 4550   3.223   4.216   3.655  0.2420 -0.1136  0.2865
 1529TIP3    H1 4551   3.301   4.267   3.676  1.4590 -0.9957 -1.7949
 1529TIP3    H2 4552   3.230   4.137   3.708  0.5986 -0.0533  0.3313
 1530TIP3   OH2 4553   4.599   5.706   4.735  0.4464 -0.3135  0.4862
 1530TIP3    H1 4554   4.535   5.777   4.727  0.6186 -0.3212 -1.9289
 1530TIP3    H2 4555   4.546   5.627   4.744  0.2510  0.0403  3.0462
 1531TIP3   OH2 4556   2.572   0.534   4.196  0.0422 -0.3447 -0.2427
 1531TIP3    H1 4557   2.529   0.505   4.115 -2.5609  0.0709  0.8845
 1531TIP3    H2 4558   2.619   0.613   4.171 -0.0203 -0.6929 -1.5365
 1532TIP3   OH2 4559   3.782   1.803   5.648 -0.2139  0.6682 -0.3583
 1532TIP3    H1 4560   3.800   1.730   5.589 -1.1168  0.7675 -0.7664
 1532TIP3    H2 4561   3.852   1.799   5.713  1.2034  0.9565 -1.7997
 1533TIP3   OH2 4562   0.693   2.825   2.619  0.1898  0.4462 -0.0711
 1533TIP3    H1 4563   0.648   2.868   2.546 -1.3476  0.9442  1.1245
 1533TIP3    H2 4564   0.626   2.770   2.659  0.7193  0.9168  1.5399
 1534TIP3   OH2 4565   2.408   5.333   1.049  0.3210 -0.1196  0.0023
 1534TIP3    H1 4566   2.411   5.280   0.969  0.3565 -0.6378  0.3415
 1534TIP3    H2 4567   2.455   5.281   1.114 -1.7302 -0.8494  1.0048
 1535TIP3   OH2 4568   0.989   4.040   3.484  0.4199 -0.5946  0.0600
 1535TIP3    H1 4569   1.003   3.966   3.543 -0.2035 -0.4897  0.3496
 1535TIP3    H2 4570   0.968   4.000   3.400 -0.9333 -0.7750  0.4547
 1536TIP3   OH2 4571   3.305   1.208   1.452 -0.1873 -0.0674  0.3128
 1536TIP3    H1 4572   3.295   1.273   1.521  0.1464  1.5603 -1.1019
 1536TIP3    H2 4573   3.216   1.181   1.431 -0.3756  0.4695  0.4125
 1537TIP3   OH2 4574   6.162   5.077   0.377 -0.1477  0.2022  0.3207
 1537TIP3    H1 4575   6.117   5.096   0.459  0.7585 -0.4042  0.9931
 1537TIP3    H2 4576   6.120   5.133   0.312 -1.8196 -0.3122  0.9061
 1538TIP3   OH2 4577   6.411   5.247   2.273  0.2327 -0.0561 -0.0218
 1538TIP3    H1 4578   6.439   5.317   2.332 -0.4306 -0.3298  0.6435
 1538TIP3    H2 4579   6.411   5.169   2.329 -0.7926 -0.2493 -0.2840
 1539TIP3   OH2 4580   6.678   2.291   2.612  0.3872  0.1330 -0.4360
 1539TIP3    H1 4581   6.755   2.236   2.627  1.1828  1.2995 -0.0439
 1539TIP3    H2 4582   6.698   2.338   2.530 -0.0335  0.2280 -0.4847
 1540TIP3   OH2 4583   4.150   3.523   5.296  0.2221 -0.8189  0.0939
 1540TIP3    H1 4584   4.118   3.509   5.207 -0.6368  0.8350  0.0912
 1540TIP3    H2 4585   4.243   3.502   5.292  0.4750  0.3892 -1.5199
 1541TIP3   OH2 4586   3.247   0.953   1.916 -0.1238  0.1899  0.0073
 1541TIP3    H1 4587   3.276   1.015   1.849  0.9627 -0.3786 -0.0678
 1541TIP3    H2 4588   3.312   0.883   1.914 -0.9104 -0.5773  0.6246
 1542TIP3   OH2 4589   1.644   2.329   0.118  0.3267 -0.0460  0.0337
 1542TIP3    H1 4590   1.732   2.329   0.080  0.8849  1.0641  1.2472
 1542TIP3    H2 4591   1.645   2.256   0.180 -0.0091 -0.7532 -0.7690
 1543TIP3   OH2 4592   5.890   6.571   3.204 -0.0962  0.3087 -0.2999
 1543TIP3    H1 4593   5.961   6.513   3.233  0.5937  1.4377  0.3371
 1543TIP3    H2 4594   5.811   6.531   3.238  0.5033  0.4708  1.3786
 1544TIP3   OH2 4595   4.837   2.212   3.197  0.3081  0.6728 -0.1341
 1544TIP3    H1 4596   4.762   2.154   3.215  0.6639  0.3278  0.2546
 1544TIP3    H2 4597   4.912   2.153   3.190  0.5483  1.0184 -0.5279
 1545TIP3   OH2 4598   1.111   5.778   4.645  0.5526  0.1777 -0.6842
 1545TIP3    H1 4599   1.110   5.732   4.729  0.2450  0.3291 -0.5982
 1545TIP3    H2 4600   1.170   5.728   4.589 -0.8336 -1.1273 -1.0454
 1546TIP3   OH2 4601   4.257   2.601   2.501  0.1243 -0.2578 -0.0379
 1546TIP3    H1 4602   4.246   2.617   2.408  0.6761 -1.7396 -0.3844
 1546TIP3    H2 4603   4.174   2.561   2.529 -0.8150  1.9459  0.5822
 1547TIP3   OH2 4604   6.542   0.242   3.528 -0.3994 -0.1950 -0.4395
 1547TIP3    H1 4605   6.540   0.153   3.562 -1.1243 -1.0554 -2.5267
 1547TIP3    H2 4606   6.471   0.245   3.464  0.6134  1.3773 -1.5757
 1548TIP3   OH2 4607   3.793   0.759   3.631 -0.0256 -0.1829 -0.3384
 1548TIP3    H1 4608   3.885   0.743   3.652  0.1997  1.7147  0.2562
 1548TIP3    H2 4609   3.745   0.705   3.694  0.6714  3.0406  3.2904
 1549TIP3   OH2 4610   0.189   2.348   1.896 -0.2059  0.0037  0.0566
 1549TIP3    H1 4611   0.144   2.411   1.840 -2.1349 -1.4021 -0.1108
 1549TIP3    H2 4612   0.280   2.378   1.899 -0.9667  2.5483 -0.2716
 1550TIP3   OH2 4613   4.388   4.601   1.357 -0.1250 -0.8823 -0.2338
 1550TIP3    H1 4614   4.470   4.555   1.372  1.1421  1.1986 -0.2731
 1550TIP3    H2 4615   4.362   4.633   1.443  0.7885  0.9969 -0.5865
 1551TIP3   OH2 4616   4.042   0.755   1.349 -0.2727 -0.1118 -0.3459
 1551TIP3    H1 4617   4.122   0.807   1.346 -1.8076  2.4536 -0.2231
 1551TIP3    H2 4618   3.972   0.817   1.327 -2.0253 -2.8531 -3.4014
 1552TIP3   OH2 4619   3.749   3.362   4.182 -0.3920 -0.3803  0.3532
 1552TIP3    H1 4620   3.667   3.313   4.181 -1.2462  0.9042  2.1653
 1552TIP3    H2 4621   3.794   3.330   4.260  1.0060 -1.2594 -0.7589
 1553TIP3   OH2 4622   3.670   2.988   1.684 -0.2345 -0.2996 -0.6834
 1553TIP3    H1 4623   3.667   3.005   1.590  0.9846 -0.6554 -0.8092
 1553TIP3    H2 4624   3.691   3.073   1.723 -0.7404 -0.1517 -0.7355
 1554TIP3   OH2 4625   0.067   3.310   5.474 -0.3204  0.1234 -0.2145
 1554TIP3    H1 4626   0.079   3.313   5.379 -0.9107 -1.2615 -0.3526
 1554TIP3    H2 4627   0.155   3.325   5.510  0.6162 -2.7811 -1.0646
 1555TIP3   OH2 4628   4.980   1.478   3.419 -0.3285  0.9581 -0.4753
 1555TIP3    H1 4629   4.981   1.570   3.391  2.9678  1.1160 -0.2215
 1555TIP3    H2 4630   4.991   1.482   3.514 -0.8878  0.3015 -0.3806
 1556TIP3   OH2 4631   2.263   0.867   3.088  0.6964 -0.1759 -0.0002
 1556TIP3    H1 4632   2.240   0.796   3.148 -0.5364  0.2087  0.0263
 1556TIP3    H2 4633   2.259   0.828   3.001  1.8248 -0.5716  0.1148
 1557TIP3   OH2 4634   6.522   3.796   4.438  0.3598  0.2986 -0.3406
 1557TIP3    H1 4635   6.456   3.736   4.404 -0.1599  1.1521 -0.8676
 1557TIP3    H2 4636   6.560   3.750   4.512 -1.0990 -0.0496  0.2209
 1558TIP3   OH2 4637   6.329   2.710   0.154  0.1350  0.3711  0.1992
 1558TIP3    H1 4638   6.253   2.758   0.122  0.8449  1.3502 -0.0654
 1558TIP3    H2 4639   6.403   2.767   0.135  0.9002 -0.3942  0.8019
 1559TIP3   OH2 4640   1.938   1.380   3.622  0.4891  0.0471 -0.6749
 1559TIP3    H1 4641   2.032   1.373   3.641  0.2524 -0.7847  0.2654
 1559TIP3    H2 4642   1.917   1.471   3.646  0.4621 -0.6040  2.1378
 1560TIP3   OH2 4643   3.160   1.082   2.623 -0.4302  0.0047  0.2237
 1560TIP3    H1 4644   3.206   1.162   2.595 -2.1902  1.1656  0.4888
 1560TIP3    H2 4645   3.213   1.011   2.589  0.7694  1.3028 -0.7380
 1561TIP3   OH2 4646   5.067   1.245   3.860  0.4124  0.3337  0.8236
 1561TIP3    H1 4647   5.098   1.155   3.849 -1.3007 -0.1316 -0.7758
 1561TIP3    H2 4648   5.077   1.284   3.773  0.1276  1.3586  1.2374
 1562TIP3   OH2 4649   3.017   3.664   1.209 -0.7617  0.1376  0.4420
 1562TIP3    H1 4650   2.974   3.745   1.236 -0.9238  0.5297 -0.9433
 1562TIP3    H2 4651   2.953   3.619   1.154 -0.2052 -0.3266  0.1559
 1563TIP3   OH2 4652   2.229   1.458   4.774  0.0455 -0.1209  0.1325
 1563TIP3    H1 4653   2.213   1.509   4.694  0.5087  0.8788  0.6697
 1563TIP3    H2 4654   2.148   1.408   4.786  0.2539 -0.9185 -1.3974
 1564TIP3   OH2 4655   5.093   0.915   3.394 -0.1187  0.1081  0.0820
 1564TIP3    H1 4656   5.156   0.924   3.322 -0.0458 -0.3668  0.0810
 1564TIP3    H2 4657   5.011   0.948   3.358 -0.9841 -3.3320 -1.4723
 1565TIP3   OH2 4658   4.366   0.694   0.458  0.3638 -0.4815 -0.0245
 1565TIP3    H1 4659   4.299   0.627   0.443 -1.3048  1.0358  0.3075
 1565TIP3    H2 4660   4.332   0.746   0.532  0.3746  2.1817 -1.7583
 1566TIP3   OH2 4661   0.287   2.201   2.167  0.3478  0.2560 -0.4231
 1566TIP3    H1 4662   0.339   2.146   2.107  1.1573 -1.4983  1.7425
 1566TIP3    H2 4663   0.199   2.200   2.129  0.8668 -0.6558 -1.6918
 1567TIP3   OH2 4664   4.446   4.336   0.574  0.3286 -0.0402  0.3527
 1567TIP3    H1 4665   4.382   4.290   0.519  0.4557  1.1070 -0.8055
 1567TIP3    H2 4666   4.498   4.266   0.613 -0.1541 -0.9218 -0.5348
 1568TIP3   OH2 4667   6.190   2.108   1.418 -0.1106  0.0493  0.1542
 1568TIP3    H1 4668   6.123   2.165   1.379 -1.2320 -0.8325  0.7228
 1568TIP3    H2 4669   6.197   2.138   1.508 -1.4290 -1.2764  0.7443
 1569TIP3   OH2 4670   6.714   0.145   5.776 -0.3959 -0.2762  0.1854
 1569TIP3    H1 4671   6.700   0.187   5.692 -1.0017  0.3759  0.5986
 1569TIP3    H2 4672   6.806   0.164   5.798  0.1134 -1.4285 -0.8414
 1570TIP3   OH2 4673   2.634   1.539   5.248 -0.3466 -0.0725  0.6250
 1570TIP3    H1 4674   2.658   1.564   5.159  0.2374  0.9731  1.0481
 1570TIP3    H2 4675   2.677   1.605   5.303 -2.9916  1.0390  1.5238
 1571TIP3   OH2 4676   4.505   0.041   2.246  0.1300  0.5849  0.5276
 1571TIP3    H1 4677   4.480   0.132   2.228 -0.2306  0.0254 -2.3715
 1571TIP3    H2 4678   4.437  -0.011   2.204  2.1294 -0.9808 -1.0275
 1572TIP3   OH2 4679   6.177   4.974   5.332  0.5198 -0.0139 -0.4335
 1572TIP3    H1 4680   6.259   5.021   5.344 -0.0805  1.1393 -0.7320
 1572TIP3    H2 4681   6.121   5.035   5.283 -0.0679 -1.2643 -1.3900
 1573TIP3   OH2 4682   0.678   3.947   3.779  0.2532 -0.0351  0.0322
 1573TIP3    H1 4683   0.586   3.950   3.755 -0.1095  0.6586  1.4401
 1573TIP3    H2 4684   0.725   3.956   3.696 -0.9148  3.3917 -0.3885
 1574TIP3   OH2 4685   4.930   2.618   5.714 -0.0164  0.5542  0.0822
 1574TIP3    H1 4686   4.895   2.547   5.768  0.2786 -0.3424 -0.8913
 1574TIP3    H2 4687   5.022   2.597   5.703 -0.5977 -0.8670 -3.1256
 1575TIP3   OH2 4688   6.722   6.136   0.719 -0.6276  0.2362 -0.3563
 1575TIP3    H1 4689   6.699   6.204   0.783 -0.7599  0.1947 -0.3597
 1575TIP3    H2 4690   6.639   6.114   0.676 -0.7279 -0.4664  0.1672
 1576TIP3   OH2 4691   1.910   6.303   2.203  0.4657  0.2989  0.0044
 1576TIP3    H1 4692   1.964   6.380   2.185 -0.7460  0.7816 -1.8655
 1576TIP3    H2 4693   1.897   6.263   2.117 -0.5630 -0.8615  0.6773
 1577TIP3   OH2 4694   1.255   6.605   1.900 -0.2892  0.1965  0.1185
 1577TIP3    H1 4695   1.164   6.609   1.871 -0.6164 -0.2250  1.0675
 1577TIP3    H2 4696   1.251   6.605   1.996  0.6526 -0.8761  0.1853
 1578TIP3   OH2 4697   6.665   2.241   2.938 -0.1538 -0.1927 -0.8080
 1578TIP3    H1 4698   6.620   2.325   2.936 -0.2770 -0.1845  0.8398
 1578TIP3    H2 4699   6.692   2.226   2.847 -2.4182  0.3681 -1.6588
 1579TIP3   OH2 4700   6.033   3.070   3.769 -0.0629 -0.1967 -0.1074
 1579TIP3    H1 4701   6.124   3.053   3.745 -0.2388  0.2822 -1.1511
 1579TIP3    H2 4702   6.024   3.165   3.766  0.6056  0.2730  4.5423
 1580TIP3   OH2 4703   6.431   2.818   5.631  0.1347 -0.2063  0.5038
 1580TIP3    H1 4704   6.400   2.837   5.542  2.8899  1.5657 -0.2261
 1580TIP3    H2 4705   6.438   2.905   5.672  1.4124 -0.7524  1.5029
 1581TIP3   OH2 4706   6.553   3.030   3.791 -0.2185 -0.4903 -0.1216
 1581TIP3    H1 4707   6.616   2.969   3.752  1.5929  0.8303  0.5708
 1581TIP3    H2 4708   6.536   2.994   3.878  1.0953  0.1015  0.4075
 1582TIP3   OH2 4709   6.603   0.464   2.183  0.1618  0.0363  0.2416
 1582TIP3    H1 4710   6.564   0.538   2.231 -0.5291 -0.9545  1.2723
 1582TIP3    H2 4711   6.532   0.400   2.178  0.4259 -0.1487 -1.5937
 1583TIP3   OH2 4712   4.164   4.923   3.980 -0.0414 -0.4150  0.5496
 1583TIP3    H1 4713   4.243   4.935   4.033  1.1298 -1.2883 -0.9351
 1583TIP3    H2 4714   4.149   5.009   3.939 -0.6335  0.1066  1.8145
 1584TIP3   OH2 4715   2.034   5.093   3.574 -0.0540  0.1052  0.0211
 1584TIP3    H1 4716   2.070   5.110   3.661  0.7700  1.0187 -0.4781
 1584TIP3    H2 4717   2.041   4.998   3.563  1.1550  0.1316  0.4109
 1585TIP3   OH2 4718   4.898   6.124   3.176 -1.1007 -0.0635 -0.2584
 1585TIP3    H1 4719   4.857   6.173   3.247 -0.7488  0.1459 -0.1958
 1585TIP3    H2 4720   4.859   6.037   3.181  0.3630 -0.6849  1.4793
 1586TIP3   OH2 4721   1.016   0.657   4.793  0.3641 -0.3302 -0.0338
 1586TIP3    H1 4722   1.071   0.704   4.730  0.9697 -0.5420  0.3273
 1586TIP3    H2 4723   0.935   0.638   4.745  0.3024  0.6519 -0.3268
 1587TIP3   OH2 4724   5.420   6.491   1.608 -0.2753  0.6708 -0.3956
 1587TIP3    H1 4725   5.381   6.558   1.551  1.8044  0.9269 -1.6052
 1587TIP3    H2 4726   5.450   6.423   1.548 -5.1452 -3.1967  0.8896
 1588TIP3   OH2 4727   4.372   1.638   5.096 -0.0153  0.3707  0.0117
 1588TIP3    H1 4728   4.405   1.580   5.028 -0.0734  0.1810  0.1451
 1588TIP3    H2 4729   4.330   1.710   5.048  0.6710  0.6613 -0.1562
 1589TIP3   OH2 4730   1.769   4.104   1.301  0.0929 -0.3471 -0.1687
 1589TIP3    H1 4731   1.704   4.168   1.273 -1.1053 -1.8687 -1.0485
 1589TIP3    H2 4732   1.719   4.041   1.353  1.2750 -0.4642  0.8582
 1590TIP3   OH2 4733   3.427   1.491   5.185 -0.1506 -0.0974 -0.2626
 1590TIP3    H1 4734   3.403   1.460   5.272  0.9700  0.8368  0.4023
 1590TIP3    H2 4735   3.472   1.417   5.144 -0.8162 -0.5889 -0.1253
 1591TIP3   OH2 4736   3.316   3.497   2.503 -0.2797  0.1081  0.1129
 1591TIP3    H1 4737   3.320   3.547   2.421  5.1556 -0.6892 -0.4669
 1591TIP3    H2 4738   3.363   3.551   2.566 -2.0067 -0.5176  2.0302
 1592TIP3   OH2 4739   4.548   1.459   4.951 -0.0686 -0.3047 -0.0356
 1592TIP3    H1 4740   4.586   1.380   4.914 -1.3675 -0.7177 -0.5542
 1592TIP3    H2 4741   4.571   1.528   4.889  1.3115 -0.1948  0.5652
 1593TIP3   OH2 4742   4.377   0.293   1.610 -0.1019  0.1043 -0.0626
 1593TIP3    H1 4743   4.419   0.319   1.528  1.2232  1.0279  0.8602
 1593TIP3    H2 4744   4.376   0.373   1.663 -1.5889 -0.3012  0.5718
 1594TIP3   OH2 4745   1.066   5.434   0.961 -0.4796  0.2641 -0.4466
 1594TIP3    H1 4746   1.116   5.440   0.879  0.2148  0.6854 -0.0006
 1594TIP3    H2 4747   1.035   5.344   0.964  1.0394 -0.2645 -0.2851
 1595TIP3   OH2 4748   4.726   1.718   5.459  0.5077  0.0395  0.0865
 1595TIP3    H1 4749   4.726   1.680   5.547  0.4429 -0.2777 -0.0506
 1595TIP3    H2 4750   4.642   1.693   5.422  1.1550 -1.1349 -0.6304
 1596TIP3   OH2 4751   7.178   1.984   2.376 -0.2090 -0.2618  0.3228
 1596TIP3    H1 4752   7.137   2.027   2.301 -0.5117  0.4603  0.8912
 1596TIP3    H2 4753   7.233   1.916   2.338  0.0534  0.4404 -0.5799
 1597TIP3   OH2 4754   6.066   6.283   5.363  0.0844  0.2194  0.4320
 1597TIP3    H1 4755   5.995   6.291   5.299  1.0392 -1.5293 -0.9269
 1597TIP3    H2 4756   6.025   6.237   5.437 -0.9769  2.0834  1.0755
 1598TIP3   OH2 4757   5.266   0.229   1.070 -0.2024 -0.1991  0.2033
 1598TIP3    H1 4758   5.344   0.225   1.125 -0.3295  1.9529  0.6175
 1598TIP3    H2 4759   5.212   0.154   1.098  0.6442 -0.3178  1.5720
 1599TIP3   OH2 4760   5.391   3.821   5.351  0.0444  0.4270 -0.2743
 1599TIP3    H1 4761   5.469   3.871   5.327 -0.0737  0.2235 -1.1412
 1599TIP3    H2 4762   5.403   3.737   5.306 -0.2904  0.1011  0.2480
 1600TIP3   OH2 4763   5.754   0.042   0.242  0.2908 -0.1946 -0.1401
 1600TIP3    H1 4764   5.774   0.001   0.158  0.6696  1.2283 -0.7699
 1600TIP3    H2 4765   5.801  -0.011   0.307  0.4826 -0.9466 -0.8804
 1601TIP3   OH2 4766   6.897   1.347   5.366 -0.2398  0.1795 -0.5495
 1601TIP3    H1 4767   6.886   1.438   5.393 -0.0048  0.5598 -1.7132
 1601TIP3    H2 4768   6.813   1.306   5.389  0.6280 -0.0755  2.7234
 1602TIP3   OH2 4769   6.690   2.842   2.106 -0.1707 -0.4455 -0.0933
 1602TIP3    H1 4770   6.785   2.850   2.098 -0.3655  0.1344 -2.4275
 1602TIP3    H2 4771   6.657   2.931   2.098 -0.9218 -0.5009  1.7457
 1603TIP3   OH2 4772   0.208   4.454   2.315 -0.0704  0.9930  0.2334
 1603TIP3    H1 4773   0.118   4.435   2.340  0.6317  0.1403  2.3066
 1603TIP3    H2 4774   0.213   4.430   2.222 -1.3839 -1.1625  0.6637
 1604TIP3   OH2 4775   1.957   6.677   3.103 -0.4198 -0.1681 -0.1353
 1604TIP3    H1 4776   1.885   6.721   3.057 -0.5730 -1.0530 -0.7610
 1604TIP3    H2 4777   2.036   6.719   3.068 -0.6208  1.0091  0.7681
 1605TIP3   OH2 4778   6.927   5.763   4.704  0.1256 -0.3993  0.2683
 1605TIP3    H1 4779   6.914   5.706   4.780 -1.0223 -2.2295 -1.2190
 1605TIP3    H2 4780   7.019   5.750   4.680  0.8405  1.0677  1.9231
 1606TIP3   OH2 4781   5.396   6.339   3.961  0.3478 -0.3175  0.1658
 1606TIP3    H1 4782   5.405   6.365   3.869  0.8777  1.9329  0.7948
 1606TIP3    H2 4783   5.485   6.313   3.987  0.1441 -1.2233 -0.0075
 1607TIP3   OH2 4784   6.941   3.932   1.777  0.0590  1.0052 -0.0729
 1607TIP3    H1 4785   7.034   3.930   1.798  0.0086  0.7762  0.1451
 1607TIP3    H2 4786   6.916   3.840   1.768 -0.1490  1.0634 -0.1127
 1608TIP3   OH2 4787   6.893   1.189   4.807 -0.3964 -0.0015  0.1949
 1608TIP3    H1 4788   6.913   1.154   4.893  0.2859  0.7966  0.3752
 1608TIP3    H2 4789   6.844   1.119   4.763  0.2323 -0.8545  0.8202
 1609TIP3   OH2 4790   0.107   1.788   2.225  0.4151  0.3286 -0.2198
 1609TIP3    H1 4791   0.037   1.741   2.179  0.2984  0.4685 -0.1874
 1609TIP3    H2 4792   0.173   1.805   2.157  0.9042 -0.7245 -0.0301
 1610TIP3   OH2 4793   0.704   0.646   2.464  0.1669 -0.0451 -0.1399
 1610TIP3    H1 4794   0.787   0.600   2.477 -0.1591 -0.8661 -0.8666
 1610TIP3    H2 4795   0.646   0.612   2.531  0.4251  0.5909  0.4228
 1611TIP3   OH2 4796   3.525   5.344   5.025 -0.1339 -0.0558 -0.1941
 1611TIP3    H1 4797   3.558   5.271   5.077  1.3015  0.0964 -0.8387
 1611TIP3    H2 4798   3.563   5.422   5.066 -0.4457  0.2066 -0.4025
 1612TIP3   OH2 4799   5.408   0.298   2.036  0.6407  0.6516 -0.2548
 1612TIP3    H1 4800   5.483   0.239   2.044  0.5535  0.2102 -2.1558
 1612TIP3    H2 4801   5.444   0.377   1.995  0.1710  0.6534 -0.6658
 1613TIP3   OH2 4802   3.363   3.353   5.647  0.1847  0.0540  0.5552
 1613TIP3    H1 4803   3.378   3.324   5.737  0.2562 -0.0445  0.5126
 1613TIP3    H2 4804   3.384   3.446   5.648 -1.6692  0.5003  1.0815
 1614TIP3   OH2 4805   6.196   5.159   1.211 -0.5661  0.2289  0.6007
 1614TIP3    H1 4806   6.143   5.223   1.162  0.1636  0.1001 -0.4032
 1614TIP3    H2 4807   6.179   5.179   1.303 -1.1511  1.1984  0.3030
 1615TIP3   OH2 4808   3.447   2.119   0.260 -0.2460 -0.0676 -0.1473
 1615TIP3    H1 4809   3.369   2.172   0.243 -0.8695 -0.9059  0.0412
 1615TIP3    H2 4810   3.469   2.137   0.351  1.2679  2.0493 -0.8365
 1616TIP3   OH2 4811   1.161   0.639   1.217 -0.7485  0.6689  0.0353
 1616TIP3    H1 4812   1.076   0.634   1.174 -0.5731  0.6029 -0.3095
 1616TIP3    H2 4813   1.166   0.559   1.269  0.1274 -0.6120 -1.8912
 1617TIP3   OH2 4814   3.479   2.582   0.580 -0.7209  0.6463 -0.0860
 1617TIP3    H1 4815   3.497   2.610   0.669 -0.7084  0.9046 -0.1680
 1617TIP3    H2 4816   3.493   2.488   0.581 -1.1184  0.5919  0.2805
 1618TIP3   OH2 4817   4.568   2.900   3.336  0.8201 -0.2219  0.0383
 1618TIP3    H1 4818   4.600   2.943   3.256  0.1590  0.1694 -0.0268
 1618TIP3    H2 4819   4.474   2.888   3.320  0.5283  0.5509  1.0481
 1619TIP3   OH2 4820   4.539   0.472   0.054  0.4691  0.2869  0.6251
 1619TIP3    H1 4821   4.487   0.469   0.134 -2.9726 -2.7120 -1.4122
 1619TIP3    H2 4822   4.598   0.397   0.061 -1.4587 -1.4326 -0.4386
 1620TIP3   OH2 4823   0.554   2.772   0.520  0.5444 -0.6662  0.3976
 1620TIP3    H1 4824   0.462   2.776   0.546 -0.4322  1.6357 -2.7329
 1620TIP3    H2 4825   0.601   2.805   0.597 -1.2230 -1.5879  1.9766
 1621TIP3   OH2 4826   4.994   5.471   0.525  0.1069 -0.3575 -0.0030
 1621TIP3    H1 4827   5.015   5.564   0.534  0.3971 -0.5269  1.2338
 1621TIP3    H2 4828   5.072   5.426   0.559  2.0246 -1.1950 -4.7298
 1622TIP3   OH2 4829   5.086   0.601   0.351 -0.4886  0.1411 -0.2407
 1622TIP3    H1 4830   5.128   0.543   0.414 -0.1869  1.1399  0.5013
 1622TIP3    H2 4831   5.136   0.590   0.270 -0.7494 -0.9943 -0.2557
 1623TIP3   OH2 4832   6.022   3.339   3.741  0.3999  0.1016 -0.3560
 1623TIP3    H1 4833   6.008   3.383   3.658  2.5293 -0.6985 -1.2036
 1623TIP3    H2 4834   6.051   3.408   3.800 -0.7498  0.5999 -0.3446
 1624TIP3   OH2 4835   3.549   3.099   0.408  0.2469 -0.0244  0.0860
 1624TIP3    H1 4836   3.585   3.153   0.478 -0.5541 -0.8318  1.1485
 1624TIP3    H2 4837   3.586   3.012   0.424 -2.5911 -1.0690  1.6444
 1625TIP3   OH2 4838   6.272   6.142   0.442  0.1364  0.2001 -0.2960
 1625TIP3    H1 4839   6.309   6.055   0.457  1.6513  1.0013  0.8345
 1625TIP3    H2 4840   6.177   6.127   0.439  0.3281 -1.3942  0.5314
 1626TIP3   OH2 4841   0.459   4.639   1.587 -0.3088 -0.1494  0.5813
 1626TIP3    H1 4842   0.439   4.668   1.498  1.7823 -0.8236 -0.1663
 1626TIP3    H2 4843   0.413   4.701   1.643 -1.7844  0.2142 -0.9493
 1627TIP3   OH2 4844   3.610   2.587   2.520  0.0454 -0.2097 -0.0305
 1627TIP3    H1 4845   3.704   2.597   2.508 -0.0391 -0.4215 -0.9823
 1627TIP3    H2 4846   3.572   2.638   2.448 -0.5846  0.5208  0.8023
 1628TIP3   OH2 4847   0.689   1.832   1.271  0.2002  0.3908 -0.0849
 1628TIP3    H1 4848   0.638   1.760   1.234  1.0582 -1.0727  1.4121
 1628TIP3    H2 4849   0.766   1.839   1.214 -0.6838  1.2943 -1.2107
 1629TIP3   OH2 4850   6.915   4.997   2.939 -0.2590 -0.8262 -0.0425
 1629TIP3    H1 4851   6.822   5.020   2.938  0.2255  1.3310 -0.0400
 1629TIP3    H2 4852   6.918   4.913   2.985 -1.9902  0.2742  2.3054
 1630TIP3   OH2 4853   6.821   2.224   3.455  0.2048  0.0738  0.0859
 1630TIP3    H1 4854   6.861   2.156   3.401 -1.5240 -1.1425  0.2733
 1630TIP3    H2 4855   6.747   2.181   3.498 -1.2024  2.1574 -0.1072
 1631TIP3   OH2 4856   7.115   3.522   4.848  0.0882 -0.5439  0.6645
 1631TIP3    H1 4857   7.106   3.493   4.757  0.3159  0.6778  0.2275
 1631TIP3    H2 4858   7.209   3.536   4.859  0.0752 -0.8284  1.1394
 1632TIP3   OH2 4859   1.059   1.127   5.712 -0.1600 -0.0898 -0.1632
 1632TIP3    H1 4860   0.987   1.066   5.729  0.3376 -0.1564  1.9823
 1632TIP3    H2 4861   1.025   1.212   5.740 -0.7951  0.6864 -2.9878
 1633TIP3   OH2 4862   5.265   5.226   2.490 -0.3189 -1.0047 -0.2593
 1633TIP3    H1 4863   5.312   5.309   2.498 -1.2048 -0.3666 -1.3266
 1633TIP3    H2 4864   5.201   5.227   2.561 -0.2704 -0.8145 -0.2192
 1634TIP3   OH2 4865   1.644   0.196   0.562  0.1078 -0.4638  0.9974
 1634TIP3    H1 4866   1.612   0.108   0.582  1.0954 -0.7780  1.2588
 1634TIP3    H2 4867   1.733   0.197   0.596  0.5393  0.2310 -0.1255
 1635TIP3   OH2 4868   6.473   3.930   2.106  0.1226  0.3962  0.1001
 1635TIP3    H1 4869   6.554   3.978   2.123 -0.1832  0.9039  0.1426
 1635TIP3    H2 4870   6.467   3.926   2.010  0.8441 -0.7570  0.0875
 1636TIP3   OH2 4871   5.741   4.893   0.659  0.2205  0.2207  0.0903
 1636TIP3    H1 4872   5.825   4.938   0.658  0.7442 -0.7435  0.0598
 1636TIP3    H2 4873   5.763   4.800   0.663 -0.8439 -0.0396  0.2412
 1637TIP3   OH2 4874   0.124   1.121   5.431  0.6393  0.6774  0.1222
 1637TIP3    H1 4875   0.214   1.098   5.450 -0.1791 -1.9013  1.2736
 1637TIP3    H2 4876   0.101   1.187   5.496  1.1023 -0.1919  1.1951
 1638TIP3   OH2 4877   6.325   3.597   4.385 -0.1126 -0.2951 -0.4273
 1638TIP3    H1 4878   6.252   3.658   4.375 -0.6996 -0.9454 -0.1260
 1638TIP3    H2 4879   6.324   3.545   4.304  0.6008  0.3043 -0.8386
 1639TIP3   OH2 4880   0.159   3.829   4.702 -0.3181  0.0015  0.3813
 1639TIP3    H1 4881   0.144   3.886   4.777 -0.3561 -0.4018  0.6824
 1639TIP3    H2 4882   0.211   3.756   4.737  0.8059  0.4709 -0.2544
 1640TIP3   OH2 4883   0.545   5.193   4.026 -0.8025 -0.2615  0.5399
 1640TIP3    H1 4884   0.571   5.285   4.032 -0.9274 -0.1298 -0.7130
 1640TIP3    H2 4885   0.605   5.155   3.962 -2.0685 -0.5629 -0.4987
 1641TIP3   OH2 4886   5.576   1.886   4.838 -0.0312 -0.5318 -0.4784
 1641TIP3    H1 4887   5.563   1.832   4.760  0.5757 -0.7033 -0.4712
 1641TIP3    H2 4888   5.489   1.919   4.860 -0.1652 -0.2783 -1.3760
 1642TIP3   OH2 4889   6.932   4.107   5.332 -0.0044 -0.2861  0.0933
 1642TIP3    H1 4890   6.968   4.075   5.249 -0.5797 -0.7122 -0.0029
 1642TIP3    H2 4891   6.940   4.033   5.392 -0.2732 -0.2270  0.2045
 1643TIP3   OH2 4892   0.236   5.982   3.727  0.3353 -0.3383  0.4765
 1643TIP3    H1 4893   0.308   6.027   3.684  0.4479 -1.2391 -0.3017
 1643TIP3    H2 4894   0.167   6.049   3.735  0.9126  0.2762  0.4143
 1644TIP3   OH2 4895   3.658   1.245   5.331  0.0714 -0.1324  0.0440
 1644TIP3    H1 4896   3.673   1.152   5.349  2.4061  0.0918 -0.4736
 1644TIP3    H2 4897   3.665   1.288   5.416 -0.9176 -0.3940  0.2704
 1645TIP3   OH2 4898   2.895   0.640   4.019 -0.6441  0.0541 -0.9288
 1645TIP3    H1 4899   2.900   0.552   3.983 -1.0324 -0.4768  0.2500
 1645TIP3    H2 4900   2.959   0.641   4.090 -1.2529  0.4357 -0.3669
 1646TIP3   OH2 4901   5.300   3.052   2.570 -0.1305 -0.3196 -0.1721
 1646TIP3    H1 4902   5.376   3.004   2.539 -1.1622 -2.0550 -0.1755
 1646TIP3    H2 4903   5.266   3.096   2.492 -0.0864 -0.9256 -0.5401
 1647TIP3   OH2 4904   0.665   3.141   0.658  0.4351  0.0716 -0.6744
 1647TIP3    H1 4905   0.731   3.075   0.678  0.9230  0.3135 -1.4651
 1647TIP3    H2 4906   0.583   3.091   0.650  0.7992 -0.4387 -1.2639
 1648TIP3   OH2 4907   6.595   4.869   4.551 -0.5373  0.0859 -0.0718
 1648TIP3    H1 4908   6.549   4.826   4.624  0.7035 -0.1980  0.5650
 1648TIP3    H2 4909   6.574   4.817   4.474 -0.8129 -0.3726  0.3130
 1649TIP3   OH2 4910   7.106   2.197   0.738 -0.2156  0.4338 -0.1790
 1649TIP3    H1 4911   7.134   2.106   0.731  2.8934  1.4055 -2.7331
 1649TIP3    H2 4912   7.170   2.237   0.797 -1.4806  1.0377  0.8267
 1650TIP3   OH2 4913   5.744   6.105   4.316 -0.0890  0.4341 -0.5295
 1650TIP3    H1 4914   5.815   6.166   4.295  0.3719  0.5331  1.1539
 1650TIP3    H2 4915   5.667   6.159   4.326  0.1143  0.6305  0.0003
 1651TIP3   OH2 4916   0.353   5.170   2.800 -0.2275  0.3239  0.9668
 1651TIP3    H1 4917   0.263   5.157   2.828 -0.1544  1.3384  1.7112
 1651TIP3    H2 4918   0.360   5.121   2.718 -0.8509 -1.5004  1.9499
 1652TIP3   OH2 4919   3.988   2.903   3.098  0.3648 -0.7388 -0.2509
 1652TIP3    H1 4920   4.044   2.963   3.048 -0.1613 -0.1041 -0.0825
 1652TIP3    H2 4921   4.047   2.831   3.121  0.5514 -1.2279 -2.0589
 1653TIP3   OH2 4922   3.213   4.202   3.190 -0.0166  0.2660  0.0920
 1653TIP3    H1 4923   3.160   4.132   3.228  3.4319 -2.0824  0.9682
 1653TIP3    H2 4924   3.192   4.279   3.242 -2.0925 -0.6671  0.7374
 1654TIP3   OH2 4925   6.503   5.440   0.336  0.3831 -0.2942  0.1378
 1654TIP3    H1 4926   6.463   5.377   0.396 -1.7370  0.6298 -0.2417
 1654TIP3    H2 4927   6.595   5.442   0.362 -0.1682 -1.0386  2.3631
 1655TIP3   OH2 4928   1.439   3.163   0.930  0.2501 -0.1822 -0.0912
 1655TIP3    H1 4929   1.495   3.230   0.889  0.4748 -1.2893 -1.6746
 1655TIP3    H2 4930   1.397   3.119   0.857  0.4863 -2.1191  0.8832
 1656TIP3   OH2 4931   1.976   5.700   0.661  0.0284  0.1454  0.1797
 1656TIP3    H1 4932   1.897   5.647   0.668  0.7553 -1.1235 -0.7721
 1656TIP3    H2 4933   2.042   5.640   0.627  0.8790  1.6793 -0.9940
 1657TIP3   OH2 4934   3.589   0.557   1.514 -0.1580  0.2185  0.1047
 1657TIP3    H1 4935   3.516   0.616   1.532 -0.9939 -1.1043  1.2278
 1657TIP3    H2 4936   3.581   0.536   1.421 -0.6259  0.8194  0.0034
 1658TIP3   OH2 4937   3.617   4.323   3.331  0.7209  0.5267  0.1695
 1658TIP3    H1 4938   3.706   4.321   3.295  0.7411  0.1779  0.2345
 1658TIP3    H2 4939   3.562   4.353   3.259  0.8599  0.5186  0.0605
 1659TIP3   OH2 4940   2.445   3.941   3.535  0.0306  1.0350  0.0081
 1659TIP3    H1 4941   2.539   3.955   3.550 -0.3808  1.9437  2.0823
 1659TIP3    H2 4942   2.420   4.011   3.475  0.6922  0.7152 -0.6535
 1660TIP3   OH2 4943   1.272   2.662   5.200  0.0386  0.2051 -0.3419
 1660TIP3    H1 4944   1.280   2.656   5.296  1.5953  0.0874 -0.4660
 1660TIP3    H2 4945   1.358   2.690   5.170 -0.5739  0.7192 -1.6886
 1661TIP3   OH2 4946   1.802   4.065   3.807 -0.7236  0.3677 -0.2021
 1661TIP3    H1 4947   1.871   4.031   3.863 -0.7088 -0.3508 -0.6464
 1661TIP3    H2 4948   1.786   4.153   3.840  1.5077  1.1879 -1.0372
 1662TIP3   OH2 4949   1.438   5.399   5.161 -0.3678  0.1135 -0.1314
 1662TIP3    H1 4950   1.370   5.377   5.224  0.8231 -1.0714  0.7774
 1662TIP3    H2 4951   1.426   5.337   5.089  0.9483 -1.4421  0.9374
 1663TIP3   OH2 4952   1.836   3.527   4.358 -0.4288  0.1509  0.5965
 1663TIP3    H1 4953   1.765   3.483   4.404 -0.8888  1.0836  0.7973
 1663TIP3    H2 4954   1.883   3.575   4.426 -1.3893  1.9187  0.0961
 1664TIP3   OH2 4955   2.548   6.361   4.993 -0.1810 -0.1076  0.5626
 1664TIP3    H1 4956   2.641   6.341   4.991  0.4453  2.3863  1.1020
 1664TIP3    H2 4957   2.534   6.402   5.079 -1.6497  0.1079  0.2590
 1665TIP3   OH2 4958   3.695   6.485   0.265 -0.3496  0.2217  0.7597
 1665TIP3    H1 4959   3.613   6.473   0.217  0.2004  0.8858 -0.4144
 1665TIP3    H2 4960   3.744   6.405   0.250  0.1823  0.7665 -0.5885
 1666TIP3   OH2 4961   5.017   3.705   4.215 -0.0751 -0.5337  0.2109
 1666TIP3    H1 4962   5.082   3.775   4.203 -1.9066  1.2502  0.2288
 1666TIP3    H2 4963   4.977   3.695   4.129 -2.1786  0.9251  0.9512
 1667TIP3   OH2 4964   1.578   5.310   2.053  0.1029  0.0264  0.0657
 1667TIP3    H1 4965   1.554   5.383   2.110 -2.0115 -0.2359 -0.4050
 1667TIP3    H2 4966   1.673   5.318   2.043  0.1112  1.8834  1.1199
 1668TIP3   OH2 4967   1.677   5.358   1.640 -0.6737  0.0083 -0.2533
 1668TIP3    H1 4968   1.638   5.439   1.672  0.2805  0.6399 -0.6424
 1668TIP3    H2 4969   1.725   5.323   1.715 -0.3810  0.2536 -0.3258
 1669TIP3   OH2 4970   5.786   4.190   0.812  0.9970 -0.0028 -0.2029
 1669TIP3    H1 4971   5.753   4.274   0.844 -0.2662 -0.4380 -0.3047
 1669TIP3    H2 4972   5.822   4.209   0.725  2.4609  0.7748  0.5532
 1670TIP3   OH2 4973   2.704   3.310   0.083 -0.4893  0.3241  0.0729
 1670TIP3    H1 4974   2.646   3.307   0.159  0.6581 -1.2807  0.9424
 1670TIP3    H2 4975   2.659   3.259   0.016 -0.8373  0.5043  0.1684
 1671TIP3   OH2 4976   6.924   1.788   0.714 -0.0660 -0.0389  1.0185
 1671TIP3    H1 4977   6.888   1.705   0.683  0.3904 -0.0919  0.6268
 1671TIP3    H2 4978   6.997   1.806   0.655 -0.2442  0.7060  1.0225
 1672TIP3   OH2 4979   3.257   2.130   1.764 -0.0858 -0.6272  0.4299
 1672TIP3    H1 4980   3.212   2.197   1.816  1.3371  0.0695  0.8164
 1672TIP3    H2 4981   3.305   2.179   1.698  0.4556 -1.3118  0.3021
 1673TIP3   OH2 4982   2.371   3.180   3.687 -0.0700 -0.3540 -0.6095
 1673TIP3    H1 4983   2.350   3.089   3.669 -0.7384 -0.5908  1.1425
 1673TIP3    H2 4984   2.466   3.187   3.673  0.8982 -2.4993  3.4100
 1674TIP3   OH2 4985   0.553   5.688   5.350  0.3216 -0.1900  0.0529
 1674TIP3    H1 4986   0.648   5.671   5.353  0.5917  1.2759  0.4665
 1674TIP3    H2 4987   0.538   5.752   5.419 -0.6840  0.9168 -1.1339
 1675TIP3   OH2 4988   2.720   3.087   5.661 -0.9605 -0.2255 -0.2983
 1675TIP3    H1 4989   2.742   3.023   5.593 -0.7071 -1.0626  0.5547
 1675TIP3    H2 4990   2.805   3.112   5.699 -1.2078 -0.9477  0.7581
 1676TIP3   OH2 4991   5.115   1.857   1.191 -0.0600 -0.6912  0.4227
 1676TIP3    H1 4992   5.025   1.874   1.220  0.0986  1.9705 -0.3817
 1676TIP3    H2 4993   5.107   1.838   1.098  0.2591  0.6237  0.1054
 1677TIP3   OH2 4994   6.551   0.716   1.940  0.3797 -0.3669  0.6193
 1677TIP3    H1 4995   6.581   0.661   2.013  0.0368 -2.5218 -0.7778
 1677TIP3    H2 4996   6.630   0.728   1.886 -0.0181 -1.5114 -0.2702
 1678TIP3   OH2 4997   5.061   2.651   4.535 -0.5498 -0.3152 -0.6442
 1678TIP3    H1 4998   5.111   2.675   4.457 -0.2560  1.0424 -0.0597
 1678TIP3    H2 4999   5.125   2.607   4.591  0.4941  2.7097  0.7385
 1679TIP3   OH2 5000   5.006   2.277   4.950 -0.1016 -0.3839 -0.2843
 1679TIP3    H1 5001   5.016   2.192   4.995 -0.0617  0.4316  1.3273
 1679TIP3    H2 5002   4.965   2.333   5.016  1.1335  1.2376 -0.8537
 1680TIP3   OH2 5003   0.549   4.759   4.334 -0.4149 -0.0502 -0.0313
 1680TIP3    H1 5004   0.603   4.830   4.368  0.4195 -0.0628 -1.2476
 1680TIP3    H2 5005   0.611   4.689   4.315 -0.8242 -0.0478 -1.5026
 1681TIP3   OH2 5006   5.654   5.991   2.033 -0.1870 -0.1305  0.3521
 1681TIP3    H1 5007   5.687   6.067   1.985 -0.8043 -0.1427 -0.1106
 1681TIP3    H2 5008   5.579   6.025   2.083  0.9033  0.0516  1.9294
 1682TIP3   OH2 5009   0.625   1.219   5.515 -0.1460 -0.0812 -0.0762
 1682TIP3    H1 5010   0.690   1.149   5.505 -1.6307 -2.0387  2.6415
 1682TIP3    H2 5011   0.639   1.253   5.603 -1.0369  1.4010 -0.4638
 1683TIP3   OH2 5012   4.612   2.705   2.744 -0.0758 -0.6011  0.3054
 1683TIP3    H1 5013   4.619   2.693   2.838 -1.3374  1.4902  0.7271
 1683TIP3    H2 5014   4.551   2.637   2.715 -0.4056 -0.6735  1.1515
 1684TIP3   OH2 5015   2.366   5.577   3.828  0.2869  0.1152  0.1012
 1684TIP3    H1 5016   2.324   5.493   3.807 -0.2420  0.1816  0.8655
 1684TIP3    H2 5017   2.379   5.618   3.742 -0.7387 -0.1381 -0.1963
 1685TIP3   OH2 5018   5.311   5.086   3.160 -0.1088 -0.6693 -1.1050
 1685TIP3    H1 5019   5.234   5.101   3.213  1.4842 -2.4002  1.9991
 1685TIP3    H2 5020   5.282   5.026   3.091 -1.8307 -0.0147 -0.9730
 1686TIP3   OH2 5021   7.106   6.345   5.573 -0.0738 -0.1951  0.2592
 1686TIP3    H1 5022   7.128   6.252   5.575 -0.8811 -0.3809  0.9346
 1686TIP3    H2 5023   7.011   6.347   5.563 -0.1879  0.5398  1.3635
 1687TIP3   OH2 5024   2.782   0.935   3.570 -0.4894 -0.2059 -0.3516
 1687TIP3    H1 5025   2.798   0.950   3.477  1.0507 -0.9186 -0.2392
 1687TIP3    H2 5026   2.822   1.011   3.613  1.9613 -1.5559 -0.1148
 1688TIP3   OH2 5027   5.557   3.749   4.835  0.1564  0.1496  0.1840
 1688TIP3    H1 5028   5.593   3.785   4.755  0.2505 -0.6870 -0.1663
 1688TIP3    H2 5029   5.624   3.688   4.867  0.5784  1.2483  1.4756
 1689TIP3   OH2 5030   6.752   2.977   2.654  0.3381 -0.3551  0.1993
 1689TIP3    H1 5031   6.732   2.914   2.723 -1.2285 -2.2678 -1.8680
 1689TIP3    H2 5032   6.694   3.051   2.672 -0.2937 -0.9719  0.7485
 1690TIP3   OH2 5033   4.353   3.645   2.885 -0.3793 -0.4451 -0.4251
 1690TIP3    H1 5034   4.439   3.659   2.846  0.3477  1.0737  1.5460
 1690TIP3    H2 5035   4.331   3.729   2.924 -1.9135 -1.3480  0.7471
 1691TIP3   OH2 5036   6.683   2.761   3.686 -0.6075  0.1155 -0.0116
 1691TIP3    H1 5037   6.596   2.731   3.712 -0.7341 -0.1653 -0.7195
 1691TIP3    H2 5038   6.687   2.744   3.592 -0.2046  1.1641 -0.1971
 1692TIP3   OH2 5039   0.203   3.735   0.934 -0.3979  0.5441 -0.4424
 1692TIP3    H1 5040   0.231   3.659   0.882  0.5245  0.6879 -0.1685
 1692TIP3    H2 5041   0.155   3.698   1.007  0.7194  0.1543  0.1179
 1693TIP3   OH2 5042   2.311   1.072   2.521 -0.1895 -0.3851 -0.1810
 1693TIP3    H1 5043   2.301   0.987   2.480 -0.3339  0.0597 -1.0823
 1693TIP3    H2 5044   2.255   1.131   2.470  1.5919  0.7072 -0.9938
 1694TIP3   OH2 5045   6.612   5.903   3.689 -0.3276  0.0754  0.0172
 1694TIP3    H1 5046   6.623   5.834   3.755 -1.7478 -0.2633 -0.0807
 1694TIP3    H2 5047   6.701   5.921   3.659  0.0998 -1.6105  0.1486
 1695TIP3   OH2 5048   5.902   1.532   2.141 -0.3514  0.0149 -0.1936
 1695TIP3    H1 5049   5.956   1.486   2.205  0.4587  1.1343 -0.0330
 1695TIP3    H2 5050   5.830   1.569   2.191 -0.3206 -0.0355 -0.1124
 1696TIP3   OH2 5051   3.701   3.967   5.163 -0.5541 -0.3138 -0.2662
 1696TIP3    H1 5052   3.623   3.961   5.108 -0.4271  0.3905 -0.5391
 1696TIP3    H2 5053   3.750   4.041   5.126 -0.8171  0.6398  1.2258
 1697TIP3   OH2 5054   4.252   4.224   0.385 -0.4064  0.4493 -0.5402
 1697TIP3    H1 5055   4.158   4.220   0.367 -0.7929  2.7120  0.6635
 1697TIP3    H2 5056   4.287   4.283   0.319 -0.1476  0.9471  0.0290
 1698TIP3   OH2 5057   6.821   5.894   4.216  0.7594  0.7780  0.1468
 1698TIP3    H1 5058   6.838   5.815   4.267 -0.1058  0.3832 -0.1545
 1698TIP3    H2 5059   6.763   5.865   4.145  2.2005  1.2403 -1.2714
 1699TIP3   OH2 5060   5.259   5.536   4.032 -0.0730  0.6224  0.8442
 1699TIP3    H1 5061   5.166   5.537   4.012  0.0959 -0.0005 -0.0344
 1699TIP3    H2 5062   5.270   5.459   4.089  0.3970 -1.4585 -1.8455
 1700TIP3   OH2 5063   2.793   3.671   2.139 -0.1902 -0.0402 -0.2015
 1700TIP3    H1 5064   2.778   3.622   2.219 -0.0133 -0.6565 -0.5389
 1700TIP3    H2 5065   2.828   3.606   2.078  0.9828  0.7031 -0.3507
 1701TIP3   OH2 5066   3.981   1.467   2.276 -0.2106  0.4794  0.1096
 1701TIP3    H1 5067   3.926   1.407   2.225 -0.2219  0.7044 -0.1419
 1701TIP3    H2 5068   4.067   1.424   2.280 -0.7343 -0.5329  1.6449
 1702TIP3   OH2 5069   1.262   6.240   5.384 -0.1628 -0.1108 -0.0610
 1702TIP3    H1 5070   1.300   6.169   5.437  0.9266  1.3141  1.1625
 1702TIP3    H2 5071   1.318   6.244   5.307  0.2746 -0.0681  0.2532
 1703TIP3   OH2 5072   6.721   1.309   1.384 -0.1331 -0.0916 -0.0634
 1703TIP3    H1 5073   6.803   1.274   1.348 -0.2994 -0.5269 -0.0179
 1703TIP3    H2 5074   6.682   1.236   1.431  0.8535  0.8578  2.4052
 1704TIP3   OH2 5075   3.009   3.154   0.018  0.0590  0.5696 -0.7862
 1704TIP3    H1 5076   2.919   3.156   0.049  0.5348  1.1567  0.6867
 1704TIP3    H2 5077   3.060   3.131   0.096  1.2468  1.0857 -1.3867
 1705TIP3   OH2 5078   1.437   3.866   0.540 -0.0412  0.8843 -0.2521
 1705TIP3    H1 5079   1.374   3.906   0.480  0.6884  1.4103 -0.6837
 1705TIP3    H2 5080   1.474   3.792   0.491 -1.2535 -0.2637  0.4764
 1706TIP3   OH2 5081   1.638   3.778   2.365  0.5108  0.4323 -0.1671
 1706TIP3    H1 5082   1.571   3.712   2.353  1.5984 -0.8186  0.4142
 1706TIP3    H2 5083   1.609   3.829   2.441 -0.2483  0.5349 -0.5220
 1707TIP3   OH2 5084   4.716   3.756   3.375  0.3511  0.2195 -0.3181
 1707TIP3    H1 5085   4.626   3.781   3.396  0.1880  0.2673 -1.0590
 1707TIP3    H2 5086   4.762   3.761   3.459  0.0646  1.8568 -0.2380
 1708TIP3   OH2 5087   4.708   6.520   3.622  0.6730 -0.0201  0.3650
 1708TIP3    H1 5088   4.705   6.429   3.652  1.3928 -0.9772 -2.2227
 1708TIP3    H2 5089   4.623   6.535   3.583  1.1304 -0.1766 -0.7242
 1709TIP3   OH2 5090   0.514   2.877   3.904 -0.3669  0.0390  0.6145
 1709TIP3    H1 5091   0.457   2.803   3.883  0.1049 -0.4397  0.9968
 1709TIP3    H2 5092   0.503   2.891   3.998  1.0376 -0.8469  0.9432
 1710TIP3   OH2 5093   0.277   1.379   1.417 -0.6733  0.2072  0.3036
 1710TIP3    H1 5094   0.215   1.316   1.380 -0.1837 -0.7055  0.9986
 1710TIP3    H2 5095   0.225   1.458   1.432 -1.3237 -0.0623 -0.4870
 1711TIP3   OH2 5096   3.556   6.603   1.733 -0.3647  0.2912  0.6060
 1711TIP3    H1 5097   3.592   6.681   1.690 -1.3545  1.0663  1.1525
 1711TIP3    H2 5098   3.472   6.631   1.770 -0.1685 -0.7004  1.9084
 1712TIP3   OH2 5099   0.989   5.689   5.476 -0.0081 -0.2495  0.2975
 1712TIP3    H1 5100   1.026   5.776   5.461 -1.8590  0.5608  0.0736
 1712TIP3    H2 5101   0.996   5.676   5.570  2.3384 -0.8867  0.0881
 1713TIP3   OH2 5102   1.685   5.587   2.937 -0.3276  0.0811 -0.4194
 1713TIP3    H1 5103   1.733   5.540   2.869  1.5555 -1.0807  1.5878
 1713TIP3    H2 5104   1.694   5.679   2.914 -0.0912 -0.2904 -1.9361
 1714TIP3   OH2 5105   5.226   5.643   4.474  0.0251 -0.1732 -1.1415
 1714TIP3    H1 5106   5.223   5.710   4.405 -0.2235 -0.9084 -1.8572
 1714TIP3    H2 5107   5.312   5.601   4.463 -0.0772 -0.3939 -1.1044
 1715TIP3   OH2 5108   3.549   1.301   3.222 -0.3763  0.2478  0.5325
 1715TIP3    H1 5109   3.488   1.297   3.295 -0.5708  0.5730  0.3889
 1715TIP3    H2 5110   3.580   1.392   3.221  0.0981  0.0883  0.5951
 1716TIP3   OH2 5111   0.124   4.729   2.226  0.2072 -0.6291 -0.1788
 1716TIP3    H1 5112   0.200   4.778   2.258 -0.2802 -0.3795  0.6044
 1716TIP3    H2 5113   0.072   4.710   2.304 -1.5890  0.9776 -0.9107
 1717TIP3   OH2 5114   3.093   6.704   1.026 -0.6845 -0.7840 -0.2760
 1717TIP3    H1 5115   3.028   6.642   0.992 -1.2754 -0.5462  0.4055
 1717TIP3    H2 5116   3.172   6.686   0.975 -0.8443 -2.1070 -0.0941
 1718TIP3   OH2 5117   3.891   6.427   1.389 -0.1568  0.0059 -0.4950
 1718TIP3    H1 5118   3.860   6.426   1.480  0.8585 -3.4031 -0.0321
 1718TIP3    H2 5119   3.811   6.416   1.337 -0.7668  2.1772 -0.0971
 1719TIP3   OH2 5120   1.245   1.857   0.223  0.4361  0.4251  0.7428
 1719TIP3    H1 5121   1.259   1.932   0.165  1.6069 -1.3095 -1.3461
 1719TIP3    H2 5122   1.333   1.830   0.249 -0.0032  0.1189  1.9958
 1720TIP3   OH2 5123   6.111   0.821   3.028  0.0329  0.2005 -0.0215
 1720TIP3    H1 5124   6.179   0.756   3.010 -0.2338 -0.1340  0.1629
 1720TIP3    H2 5125   6.059   0.824   2.947 -1.0656 -1.1810  0.5929
 1721TIP3   OH2 5126   0.996   1.349   4.740 -0.0261  0.0806 -0.2075
 1721TIP3    H1 5127   0.958   1.435   4.722 -1.2194 -0.4768 -0.4306
 1721TIP3    H2 5128   0.948   1.317   4.817  0.9526 -0.0694  0.3626
 1722TIP3   OH2 5129   6.908   1.459   4.847 -0.0997 -0.6916  0.5382
 1722TIP3    H1 5130   6.911   1.363   4.846  3.4614 -0.7745  2.6674
 1722TIP3    H2 5131   6.995   1.486   4.818 -0.6675  1.8803  1.0020
 1723TIP3   OH2 5132   6.404   1.784   3.075 -0.4776  0.1754  0.0816
 1723TIP3    H1 5133   6.478   1.759   3.019 -0.4143 -0.4260  0.4229
 1723TIP3    H2 5134   6.338   1.718   3.057 -0.5756  0.1625  0.4846
 1724TIP3   OH2 5135   3.328   0.871   0.469 -0.2269 -0.2569  0.3744
 1724TIP3    H1 5136   3.283   0.909   0.394 -1.4599  1.0263  1.7160
 1724TIP3    H2 5137   3.296   0.781   0.473 -0.7245 -0.1097 -0.1843
 1725TIP3   OH2 5138   6.102   3.517   3.956  0.2219  0.0179 -0.2150
 1725TIP3    H1 5139   6.104   3.490   4.047  2.4696 -0.5572 -0.3948
 1725TIP3    H2 5140   6.169   3.585   3.949 -0.0273  0.1666 -1.4074
 1726TIP3   OH2 5141   6.880   4.145   0.751 -0.3500 -0.7036  0.4619
 1726TIP3    H1 5142   6.840   4.224   0.715 -0.4870 -0.5163  1.0123
 1726TIP3    H2 5143   6.964   4.138   0.706  0.1174  0.3270  1.1377
 1727TIP3   OH2 5144   3.180   4.280   3.974  0.2126  0.0685 -0.2142
 1727TIP3    H1 5145   3.270   4.290   4.004  0.9567 -0.2124 -2.1775
 1727TIP3    H2 5146   3.178   4.192   3.935 -1.1953 -0.3143  0.6342
 1728TIP3   OH2 5147   2.719   5.057   4.271 -0.1341 -0.7540 -0.0249
 1728TIP3    H1 5148   2.798   5.007   4.250 -0.1584 -0.4943 -0.7544
 1728TIP3    H2 5149   2.690   5.022   4.356  2.0174  0.6671  1.4167
 1729TIP3   OH2 5150   2.212   1.467   4.282 -0.3228 -0.1037 -0.0725
 1729TIP3    H1 5151   2.188   1.560   4.287  0.1377  0.0482 -0.6833
 1729TIP3    H2 5152   2.292   1.460   4.334 -1.6770 -0.6378  2.0896
 1730TIP3   OH2 5153   4.118   1.241   1.813  0.1307 -0.3743  0.2931
 1730TIP3    H1 5154   4.043   1.183   1.797  0.1268 -0.1083 -0.7744
 1730TIP3    H2 5155   4.124   1.247   1.908  0.6008 -2.7476  0.4937
 1731TIP3   OH2 5156   3.173   6.227   1.950  0.0521  0.1086 -0.0123
 1731TIP3    H1 5157   3.127   6.214   1.867 -0.0512  0.5110 -0.0237
 1731TIP3    H2 5158   3.103   6.244   2.013  0.0987 -0.6834  0.2574
 1732TIP3   OH2 5159   1.085   5.478   2.721  0.1317  0.0242  0.3313
 1732TIP3    H1 5160   1.169   5.463   2.765 -0.2310 -0.3189  0.9346
 1732TIP3    H2 5161   1.078   5.573   2.715  0.0512  0.0955  1.3225
 1733TIP3   OH2 5162   4.696   0.214   4.615 -0.1623  0.2220 -0.3625
 1733TIP3    H1 5163   4.694   0.185   4.524 -0.6746 -0.6248 -0.0902
 1733TIP3    H2 5164   4.735   0.140   4.662  1.0966  1.0663 -0.0334
 1734TIP3   OH2 5165   3.268   5.706   2.356  0.5149  0.3453  0.4392
 1734TIP3    H1 5166   3.174   5.712   2.340  0.5076  2.2532  0.9257
 1734TIP3    H2 5167   3.275   5.683   2.449  0.5932 -4.1817 -0.4642
 1735TIP3   OH2 5168   4.014   1.163   2.373  0.1542 -0.2109 -0.1638
 1735TIP3    H1 5169   4.068   1.161   2.452 -0.1020 -0.7939  0.0035
 1735TIP3    H2 5170   3.932   1.121   2.399 -0.0351 -0.1594 -0.6641
 1736TIP3   OH2 5171   1.408   5.135   4.370  0.2133  0.3783  0.1496
 1736TIP3    H1 5172   1.322   5.111   4.336 -0.3282 -0.9352  2.1982
 1736TIP3    H2 5173   1.402   5.116   4.464  2.6021  0.6937  0.4266
 1737TIP3   OH2 5174   0.381   2.356   0.057 -0.0312  0.0130  0.1023
 1737TIP3    H1 5175   0.411   2.358   0.148 -0.2868  0.0702  0.1847
 1737TIP3    H2 5176   0.294   2.317   0.061 -0.0217 -0.0338 -0.1247
 1738TIP3   OH2 5177   1.679   3.635   0.939  0.0013  0.5041  0.1434
 1738TIP3    H1 5178   1.584   3.640   0.946  0.0516  0.8725  0.6674
 1738TIP3    H2 5179   1.708   3.726   0.948  0.4412  0.3111  0.7149
 1739TIP3   OH2 5180   2.868   2.708   3.026 -0.1650  0.1171  0.2341
 1739TIP3    H1 5181   2.800   2.648   3.060  0.0557 -0.1018  0.2933
 1739TIP3    H2 5182   2.950   2.667   3.053  0.0645 -0.6118 -1.4510
 1740TIP3   OH2 5183   1.059   4.688   0.738  0.6069 -0.6674 -0.0508
 1740TIP3    H1 5184   0.965   4.679   0.721  0.4841  0.1105  0.1754
 1740TIP3    H2 5185   1.091   4.598   0.741  0.3779 -0.9250 -2.8846
 1741TIP3   OH2 5186   5.413   6.092   2.705  0.0009 -0.7882  0.1361
 1741TIP3    H1 5187   5.448   6.008   2.674 -0.8312 -1.5324  1.1378
 1741TIP3    H2 5188   5.458   6.107   2.789  1.2608  0.5467 -0.7185
 1742TIP3   OH2 5189   2.442   0.723   2.126 -0.5935 -0.1148 -0.2903
 1742TIP3    H1 5190   2.467   0.692   2.213  1.0174 -1.4822 -1.1777
 1742TIP3    H2 5191   2.375   0.661   2.097 -0.8544  0.1145 -0.1815
 1743TIP3   OH2 5192   0.631   4.485   5.331  0.2872  0.1656  0.1886
 1743TIP3    H1 5193   0.600   4.575   5.316 -1.9478 -0.8044 -1.5160
 1743TIP3    H2 5194   0.724   4.488   5.308  0.2039  1.9685 -0.0937
 1744TIP3   OH2 5195   6.072   5.717   0.365 -0.6268  0.2575  0.3364
 1744TIP3    H1 5196   6.022   5.792   0.332 -0.9849  1.2390  2.8885
 1744TIP3    H2 5197   6.153   5.755   0.398  0.0340 -0.7813 -0.0258
 1745TIP3   OH2 5198   3.731   2.175   3.145  0.0644 -0.2840  0.0087
 1745TIP3    H1 5199   3.703   2.121   3.070 -3.2053 -0.0811  0.9227
 1745TIP3    H2 5200   3.718   2.118   3.221 -0.4448  0.7889  0.7356
 1746TIP3   OH2 5201   5.556   2.385   2.110  0.2823 -0.2363  0.5625
 1746TIP3    H1 5202   5.528   2.326   2.180  2.6329 -1.8904  0.2182
 1746TIP3    H2 5203   5.643   2.413   2.136  0.2921  0.9243 -0.6489
 1747TIP3   OH2 5204   3.095   1.287   4.935 -0.3789  0.0860 -0.3379
 1747TIP3    H1 5205   3.049   1.260   5.015 -1.4139 -0.3959 -1.0856
 1747TIP3    H2 5206   3.138   1.369   4.960 -0.5909 -0.1066  0.7452
 1748TIP3   OH2 5207   5.364   5.516   3.556 -0.4322  0.4243 -0.2548
 1748TIP3    H1 5208   5.359   5.513   3.461 -0.1445  0.6446 -0.2816
 1748TIP3    H2 5209   5.454   5.547   3.574  0.5662 -2.4312  0.1344
 1749TIP3   OH2 5210   0.837   4.262   1.736 -0.4770 -0.1994  0.6357
 1749TIP3    H1 5211   0.910   4.324   1.732 -0.2145 -0.5246  0.2598
 1749TIP3    H2 5212   0.788   4.277   1.655 -1.1024  0.3491  1.1147
 1750TIP3   OH2 5213   6.217   5.353   0.550 -0.2973 -1.2016  0.3363
 1750TIP3    H1 5214   6.163   5.394   0.617  1.7112  2.3745  0.0148
 1750TIP3    H2 5215   6.249   5.272   0.592 -0.9471 -0.2764  2.8063
 1751TIP3   OH2 5216   3.040   4.846   2.796  0.2964 -0.1507  0.2862
 1751TIP3    H1 5217   3.065   4.937   2.812  1.0225 -0.5931  1.9175
 1751TIP3    H2 5218   2.944   4.848   2.793  0.1589  0.4085  2.6068
 1752TIP3   OH2 5219   1.445   6.181   4.832  0.3193  0.1592  0.0320
 1752TIP3    H1 5220   1.370   6.224   4.792  0.8166  1.8909  0.8662
 1752TIP3    H2 5221   1.410   6.098   4.865 -0.6121 -0.2277 -1.8299
 1753TIP3   OH2 5222   3.677   0.247   2.665 -0.1151 -0.2544 -0.2711
 1753TIP3    H1 5223   3.583   0.234   2.654 -0.1986 -0.0099  0.1172
 1753TIP3    H2 5224   3.714   0.159   2.674 -0.2598 -0.3683 -0.7432
 1754TIP3   OH2 5225   2.327   0.652   0.385 -0.1262 -0.5683  0.2620
 1754TIP3    H1 5226   2.241   0.613   0.371 -0.2308 -0.5004  0.7066
 1754TIP3    H2 5227   2.387   0.595   0.337 -0.3934 -0.7447  0.1357
 1755TIP3   OH2 5228   4.735   4.623   1.464 -0.1078 -0.3024 -0.4512
 1755TIP3    H1 5229   4.678   4.613   1.540 -2.2581  1.3593 -1.7056
 1755TIP3    H2 5230   4.705   4.555   1.402 -0.3631  0.1989 -0.8903
 1756TIP3   OH2 5231   7.191   5.115   5.513  0.0535  0.5311 -0.0821
 1756TIP3    H1 5232   7.131   5.059   5.464 -0.2625  0.2189  0.6497
 1756TIP3    H2 5233   7.214   5.065   5.591 -0.2831  1.4332  0.6174
 1757TIP3   OH2 5234   3.949   6.654   1.790  0.1979 -0.3518 -0.3491
 1757TIP3    H1 5235   4.023   6.640   1.730  0.1489 -3.7430  0.1488
 1757TIP3    H2 5236   3.881   6.595   1.757 -0.5270 -0.8227  1.8542
 1758TIP3   OH2 5237   3.585   2.275   5.000 -0.3051  0.7030  0.0146
 1758TIP3    H1 5238   3.622   2.230   4.924 -0.2210  1.8487 -0.6515
 1758TIP3    H2 5239   3.596   2.214   5.072 -0.5309 -0.4764 -0.9254
 1759TIP3   OH2 5240   6.682   0.809   5.209 -0.3744 -0.6339  0.0175
 1759TIP3    H1 5241   6.762   0.849   5.241 -0.0803  0.5579 -2.0148
 1759TIP3    H2 5242   6.611   0.861   5.249 -0.0982 -0.6765  0.5663
 1760TIP3   OH2 5243   7.112   4.167   2.122 -0.0744 -0.0928  1.1325
 1760TIP3    H1 5244   7.048   4.114   2.168 -1.8792  0.5810 -0.4573
 1760TIP3    H2 5245   7.071   4.253   2.113  0.1261 -0.1745 -1.6810
 1761TIP3   OH2 5246   6.061   0.304   5.156 -0.3020 -0.3724  0.3478
 1761TIP3    H1 5247   6.058   0.308   5.061 -4.8868  0.7684  0.2851
 1761TIP3    H2 5248   6.058   0.395   5.185 -2.8762 -0.6666  1.3423
 1762TIP3   OH2 5249   6.816   3.717   0.411 -0.5676  0.0086 -0.7099
 1762TIP3    H1 5250   6.815   3.807   0.443  0.2602 -0.2763  0.1426
 1762TIP3    H2 5251   6.908   3.698   0.395 -0.4349 -1.4705  1.4091
 1763TIP3   OH2 5252   0.433   0.414   2.942  0.0190  0.0165 -0.0536
 1763TIP3    H1 5253   0.506   0.356   2.921  1.6623  1.7826  0.4837
 1763TIP3    H2 5254   0.449   0.442   3.032 -2.7576 -1.5077  1.0317
 1764TIP3   OH2 5255   3.443   1.448   4.577 -0.3917 -0.2087  0.4897
 1764TIP3    H1 5256   3.456   1.541   4.597  1.5604 -0.3177 -0.0056
 1764TIP3    H2 5257   3.355   1.429   4.608 -1.7767  2.3489 -1.4115
 1765TIP3   OH2 5258   5.108   6.556   0.972 -0.0646 -0.1099  0.0152
 1765TIP3    H1 5259   5.046   6.541   0.901 -1.7543  1.0289  1.1824
 1765TIP3    H2 5260   5.085   6.491   1.038 -0.1045  0.3941  0.5051
 1766TIP3   OH2 5261   2.794   2.766   1.287 -0.1581  0.3935 -0.0078
 1766TIP3    H1 5262   2.728   2.777   1.356  0.3433  0.3487  0.4854
 1766TIP3    H2 5263   2.761   2.818   1.214 -2.3612 -2.1073 -0.9682
 1767TIP3   OH2 5264   4.708   1.173   3.370  0.4250  0.2147 -0.0601
 1767TIP3    H1 5265   4.689   1.249   3.315 -1.8912  0.8806  1.4884
 1767TIP3    H2 5266   4.744   1.210   3.451 -0.0805 -0.3675  0.4449
 1768TIP3   OH2 5267   6.795   2.021   1.015  0.0074 -0.0047 -0.6017
 1768TIP3    H1 5268   6.720   2.018   0.955 -2.0054 -1.2810  1.7711
 1768TIP3    H2 5269   6.773   2.091   1.077  1.0282 -0.0977 -0.1175
 1769TIP3   OH2 5270   1.282   2.431   4.683 -0.1787  0.4913  0.0095
 1769TIP3    H1 5271   1.257   2.400   4.770  0.5090  1.3088  0.5188
 1769TIP3    H2 5272   1.262   2.525   4.684  0.6536  0.6892 -0.3870
 1770TIP3   OH2 5273   6.543   6.679   5.577 -0.4899  0.4112 -0.8129
 1770TIP3    H1 5274   6.577   6.768   5.575  0.8795 -0.0880 -1.4432
 1770TIP3    H2 5275   6.451   6.688   5.598 -0.4204  1.9895 -1.1087
 1771TIP3   OH2 5276   5.370   0.158   3.769 -0.6190  0.6191  0.1872
 1771TIP3    H1 5277   5.351   0.065   3.760 -0.6069  0.5022  1.2725
 1771TIP3    H2 5278   5.385   0.171   3.863  3.4469  0.9246 -0.3096
 1772TIP3   OH2 5279   5.655   5.760   3.047  0.1954 -0.6927 -0.1145
 1772TIP3    H1 5280   5.651   5.669   3.076 -0.8694 -0.2289  1.2687
 1772TIP3    H2 5281   5.749   5.781   3.048  0.2912 -1.0683  1.8786
 1773TIP3   OH2 5282   2.344   1.445   0.594 -0.1744  0.0302  0.1810
 1773TIP3    H1 5283   2.299   1.371   0.556 -2.0205  0.9895  0.4065
 1773TIP3    H2 5284   2.395   1.408   0.666 -0.3773 -1.1170 -0.2539
 1774TIP3   OH2 5285   3.182   3.174   5.322  0.2854 -0.4684 -0.7833
 1774TIP3    H1 5286   3.204   3.257   5.281  0.5331  0.3190  0.8298
 1774TIP3    H2 5287   3.250   3.162   5.389 -1.0209 -0.7646  0.5623
 1775TIP3   OH2 5288   5.614   5.952   0.528  0.2394 -0.3914  0.4116
 1775TIP3    H1 5289   5.676   5.911   0.468 -0.8990 -1.3956 -0.1212
 1775TIP3    H2 5290   5.666   6.016   0.577  1.5261 -0.7018 -0.5107
 1776TIP3   OH2 5291   6.611   5.314   4.943 -0.0470  0.4438 -0.0834
 1776TIP3    H1 5292   6.704   5.333   4.937  0.0702  1.4864  2.9193
 1776TIP3    H2 5293   6.569   5.400   4.943 -1.0056 -0.0013 -1.0871
 1777TIP3   OH2 5294   2.405   5.075   5.495  0.5930 -0.2395 -0.3089
 1777TIP3    H1 5295   2.490   5.106   5.463  2.1604 -3.2853  0.5973
 1777TIP3    H2 5296   2.376   5.012   5.429 -0.2499 -0.3152  0.1261
 1778TIP3   OH2 5297   4.272   1.149   5.689 -0.4505  0.2949  0.0113
 1778TIP3    H1 5298   4.216   1.195   5.751 -0.1801  2.3232 -1.1474
 1778TIP3    H2 5299   4.361   1.170   5.716 -0.3280  0.8248 -0.7672
 1779TIP3   OH2 5300   1.902   6.239   1.929 -0.3190 -0.3124  0.2866
 1779TIP3    H1 5301   1.886   6.289   1.849 -1.0781  1.6916  1.6072
 1779TIP3    H2 5302   1.997   6.229   1.931 -0.3433 -1.2896 -1.3274
 1780TIP3   OH2 5303   0.570   6.455   3.866  0.4642  0.1320 -0.0204
 1780TIP3    H1 5304   0.547   6.391   3.799 -1.4322  0.8097 -0.0706
 1780TIP3    H2 5305   0.612   6.526   3.818  2.9530 -1.1625  0.0822
 1781TIP3   OH2 5306   3.017   0.845   5.430 -0.4658  0.4164 -0.0259
 1781TIP3    H1 5307   2.956   0.918   5.426 -0.8988  0.3298  2.8590
 1781TIP3    H2 5308   2.961   0.767   5.434 -0.1459  0.2203  0.8809
 1782TIP3   OH2 5309   1.852   0.442   3.710 -0.3952 -0.0988  0.1538
 1782TIP3    H1 5310   1.763   0.411   3.728 -0.6381  0.1779 -0.5417
 1782TIP3    H2 5311   1.857   0.449   3.615  1.3981 -3.1416 -0.1081
 1783TIP3   OH2 5312   1.164   2.269   5.376 -0.2677 -0.3194 -0.7957
 1783TIP3    H1 5313   1.122   2.300   5.457 -1.5067  1.0580 -1.9070
 1783TIP3    H2 5314   1.115   2.190   5.353 -1.7923  0.8164 -1.6348
 1784TIP3   OH2 5315   2.879   2.025   4.203 -0.3738 -0.1444 -0.0084
 1784TIP3    H1 5316   2.802   2.071   4.167 -0.5282  0.5237  1.1147
 1784TIP3    H2 5317   2.952   2.054   4.148 -0.6148  0.7834  0.1440
 1785TIP3   OH2 5318   3.875   2.306   0.087 -0.2129  0.7390 -0.4090
 1785TIP3    H1 5319   3.876   2.401   0.076  0.7328  0.7497 -0.3326
 1785TIP3    H2 5320   3.962   2.285   0.122 -0.6021 -0.0968  0.0740
 1786TIP3   OH2 5321   3.504   3.175   3.974  0.1969 -0.3528 -0.1153
 1786TIP3    H1 5322   3.442   3.153   3.905 -1.4138  2.4487  0.2817
 1786TIP3    H2 5323   3.525   3.267   3.959  1.8747 -0.3976  1.5930
 1787TIP3   OH2 5324   0.590   4.690   5.676  0.0743 -0.3834 -0.1732
 1787TIP3    H1 5325   0.669   4.684   5.730  0.3001  0.5486 -0.3701
 1787TIP3    H2 5326   0.621   4.728   5.593 -0.3474 -1.3611 -0.7852
 1788TIP3   OH2 5327   5.761   5.315   5.697 -0.0628 -0.0273 -0.0535
 1788TIP3    H1 5328   5.727   5.318   5.787 -1.1599  0.4909 -0.4712
 1788TIP3    H2 5329   5.757   5.223   5.672 -0.2312 -0.1045  0.2561
 1789TIP3   OH2 5330   1.834   6.096   4.262 -0.0163  0.5709  0.1482
 1789TIP3    H1 5331   1.928   6.079   4.260  0.0016  0.5192  1.2364
 1789TIP3    H2 5332   1.804   6.058   4.344 -0.8251  1.4057  0.2564
 1790TIP3   OH2 5333   2.680   1.720   3.662 -0.3185  0.3843 -0.4252
 1790TIP3    H1 5334   2.622   1.691   3.591  1.0415 -1.2007 -0.9694
 1790TIP3    H2 5335   2.724   1.797   3.627 -1.4511  1.0928 -0.3300
 1791TIP3   OH2 5336   5.686   6.600   4.981  0.0026 -0.4891 -0.1752
 1791TIP3    H1 5337   5.611   6.654   5.006  0.7542  0.9679 -0.9027
 1791TIP3    H2 5338   5.731   6.651   4.913  2.5645 -0.5116  1.3639
 1792TIP3   OH2 5339   0.459   6.205   0.938  0.8681 -0.1873 -0.2303
 1792TIP3    H1 5340   0.489   6.296   0.925 -0.0686 -0.1430 -2.5638
 1792TIP3    H2 5341   0.512   6.154   0.877 -0.7627 -0.7211 -1.2425
 1793TIP3   OH2 5342   1.234   1.903   2.815 -0.7705  0.1024  0.4874
 1793TIP3    H1 5343   1.166   1.959   2.853  0.9513  1.8711  1.0938
 1793TIP3    H2 5344   1.300   1.963   2.782  0.6725 -1.5553  0.1912
 1794TIP3   OH2 5345   1.536   1.417   1.796 -0.3356 -0.2144  0.1475
 1794TIP3    H1 5346   1.445   1.416   1.824 -0.6175  1.2302 -0.6211
 1794TIP3    H2 5347   1.586   1.425   1.877 -0.7527 -2.6566  0.7320
 1795TIP3   OH2 5348   1.484   1.438   0.876 -0.1456 -0.3889  0.1326
 1795TIP3    H1 5349   1.401   1.432   0.830  0.1574 -0.2072 -0.4498
 1795TIP3    H2 5350   1.482   1.366   0.939 -0.0225 -1.4793 -1.0687
 1796TIP3   OH2 5351   2.715   2.657   2.283  0.5302 -0.0856  0.2275
 1796TIP3    H1 5352   2.682   2.737   2.241  0.9857 -0.1561 -0.2750
 1796TIP3    H2 5353   2.704   2.674   2.377  2.8697  1.5919  0.2755
 1797TIP3   OH2 5354   0.503   2.303   0.336  0.5173  0.2431 -0.3810
 1797TIP3    H1 5355   0.430   2.317   0.396  0.2377  1.1884 -0.9226
 1797TIP3    H2 5356   0.552   2.386   0.337  0.4646  0.3091 -1.4997
 1798TIP3   OH2 5357   3.054   4.659   3.170 -0.3094 -0.1902  0.6564
 1798TIP3    H1 5358   3.101   4.735   3.203 -0.5843 -0.8845  2.7548
 1798TIP3    H2 5359   2.963   4.688   3.162  0.0219  0.4798 -1.2487
 1799TIP3   OH2 5360   3.607   0.555   3.246 -0.5108 -0.0090 -0.2743
 1799TIP3    H1 5361   3.660   0.613   3.192 -0.8994  0.1305 -0.5095
 1799TIP3    H2 5362   3.669   0.490   3.280 -0.1996  0.1313 -0.5720
 1800TIP3   OH2 5363   2.695   4.255   0.200  0.0426  0.0732 -0.0450
 1800TIP3    H1 5364   2.727   4.340   0.170  1.1305 -0.5909 -0.8436
 1800TIP3    H2 5365   2.610   4.245   0.157  0.2522  0.4322 -0.5580
 1801TIP3   OH2 5366   3.855   1.017   5.139 -0.4018  0.3391  0.2870
 1801TIP3    H1 5367   3.789   0.993   5.204 -0.3997  3.2009  1.4926
 1801TIP3    H2 5368   3.925   0.952   5.152 -2.2336 -1.8166  0.0232
 1802TIP3   OH2 5369   4.716   3.317   0.871  0.1463 -0.1536 -0.4894
 1802TIP3    H1 5370   4.793   3.310   0.928 -0.1084  1.8145  0.1900
 1802TIP3    H2 5371   4.752   3.312   0.782  0.8608 -0.7885 -0.1803
 1803TIP3   OH2 5372   1.194   0.739   2.392  0.2376 -0.3267  0.6820
 1803TIP3    H1 5373   1.225   0.663   2.341  2.2792 -2.0782  4.1468
 1803TIP3    H2 5374   1.117   0.707   2.438  0.4661  0.0597  1.3349
 1804TIP3   OH2 5375   7.217   6.663   3.514 -0.1627 -0.2866  0.4548
 1804TIP3    H1 5376   7.137   6.618   3.540 -0.6508  0.5541  0.4411
 1804TIP3    H2 5377   7.200   6.755   3.535  0.5805 -0.0249 -0.0779
 1805TIP3   OH2 5378   2.958   6.530   5.293 -0.0870 -0.0009 -0.3936
 1805TIP3    H1 5379   2.977   6.566   5.206 -0.0415  0.5131 -0.1735
 1805TIP3    H2 5380   3.006   6.448   5.296  1.8430  1.0982  0.0231
 1806TIP3   OH2 5381   3.525   5.320   2.754 -0.2465  0.1635  0.1657
 1806TIP3    H1 5382   3.606   5.289   2.795 -0.1563  0.1004 -0.0548
 1806TIP3    H2 5383   3.489   5.384   2.816  0.8383  1.4454 -0.4615
 1807TIP3   OH2 5384   1.253   1.868   1.093 -0.1696  0.1361 -0.2828
 1807TIP3    H1 5385   1.205   1.807   1.037  2.0809 -1.2637 -0.8060
 1807TIP3    H2 5386   1.256   1.824   1.178 -0.6950  0.7131  0.0424
 1808TIP3   OH2 5387   4.177   5.880   5.607 -0.3351  0.3828 -0.9341
 1808TIP3    H1 5388   4.200   5.920   5.691  1.3020 -1.9351 -0.1854
 1808TIP3    H2 5389   4.221   5.934   5.541 -0.0222  1.0941 -0.1604
 1809TIP3   OH2 5390   2.148   4.493   4.550  0.6094  0.4216  0.4871
 1809TIP3    H1 5391   2.207   4.443   4.494  2.4869  1.3789  1.5054
 1809TIP3    H2 5392   2.166   4.461   4.638  1.6103  2.5114  1.1244
 1810TIP3   OH2 5393   0.563   1.125   2.312  0.2375 -0.3042 -0.1566
 1810TIP3    H1 5394   0.478   1.142   2.272  0.4146  1.2131  0.0515
 1810TIP3    H2 5395   0.555   1.037   2.349 -1.6323  0.2124  0.8166
 1811TIP3   OH2 5396   1.595   5.385   4.672 -0.5393 -0.0102 -0.2562
 1811TIP3    H1 5397   1.541   5.441   4.728  0.7859  1.6024 -0.5181
 1811TIP3    H2 5398   1.579   5.417   4.583  1.3964  1.0520 -0.2703
 1812TIP3   OH2 5399   2.286   1.002   4.242  0.0434 -0.1987  0.2260
 1812TIP3    H1 5400   2.257   0.971   4.327 -1.3678  1.4717  0.4067
 1812TIP3    H2 5401   2.328   0.926   4.202 -0.5165 -1.4109  1.8289
 1813TIP3   OH2 5402   3.356   5.518   0.223  0.2795 -0.1291 -0.4397
 1813TIP3    H1 5403   3.409   5.598   0.225 -0.8713  0.6955 -1.2940
 1813TIP3    H2 5404   3.419   5.448   0.239  0.8845  1.0773  3.3666
 1814TIP3   OH2 5405   3.617   0.611   4.466  0.2136  0.6719  0.2440
 1814TIP3    H1 5406   3.555   0.539   4.473  0.0131  0.9015  0.9382
 1814TIP3    H2 5407   3.594   0.671   4.537 -0.4328  2.0704 -1.0772
 1815TIP3   OH2 5408   2.392   2.608   0.738 -0.3949  0.0194  0.4512
 1815TIP3    H1 5409   2.364   2.698   0.721 -0.9372  0.0910  1.6109
 1815TIP3    H2 5410   2.343   2.582   0.816 -0.7235 -1.5047 -0.2152
 1816TIP3   OH2 5411   4.496   2.510   2.635 -0.0731 -0.1771 -0.4251
 1816TIP3    H1 5412   4.423   2.525   2.576 -1.5914 -0.7062  1.2152
 1816TIP3    H2 5413   4.522   2.419   2.618 -1.2130 -0.6902  0.3852
 1817TIP3   OH2 5414   6.362   3.878   4.199 -0.5746 -0.5483 -0.4021
 1817TIP3    H1 5415   6.280   3.833   4.217 -0.6772  0.4939  2.1949
 1817TIP3    H2 5416   6.424   3.842   4.262 -0.2510  1.7367  0.6713
 1818TIP3   OH2 5417   1.851   4.396   1.269 -0.1855 -0.2573 -0.2426
 1818TIP3    H1 5418   1.946   4.403   1.280 -0.0637 -1.3503 -0.4894
 1818TIP3    H2 5419   1.819   4.364   1.353 -0.5864  1.8536  0.4692
 1819TIP3   OH2 5420   0.971   2.877   5.622  0.0462 -0.6081 -0.1086
 1819TIP3    H1 5421   1.012   2.878   5.535 -2.6849  1.0998 -1.5285
 1819TIP3    H2 5422   0.940   2.787   5.632 -1.0184 -0.4594 -1.6892
 1820TIP3   OH2 5423   2.828   1.860   2.476  0.0630  0.3839  0.1852
 1820TIP3    H1 5424   2.905   1.854   2.534  0.1445  1.9470  0.2915
 1820TIP3    H2 5425   2.865   1.859   2.388  0.1324  0.2496  0.2151
 1821TIP3   OH2 5426   4.406   6.556   0.308 -0.3762  0.3417  0.5835
 1821TIP3    H1 5427   4.439   6.499   0.377  1.9979 -0.2157 -0.8875
 1821TIP3    H2 5428   4.384   6.496   0.236 -0.5453  1.0720  0.0152
 1822TIP3   OH2 5429   4.569   0.858   0.757  0.8772 -0.0236  0.4497
 1822TIP3    H1 5430   4.505   0.914   0.802  1.4862  0.1209  1.1728
 1822TIP3    H2 5431   4.549   0.869   0.664 -0.2952 -0.1680  0.6598
 1823TIP3   OH2 5432   0.757   5.033   5.802  0.4916 -0.2919  0.4637
 1823TIP3    H1 5433   0.779   5.054   5.892 -0.3335  0.4966  0.4974
 1823TIP3    H2 5434   0.760   4.938   5.798 -0.0233 -0.3642  1.4772
 1824TIP3   OH2 5435   4.606   5.721   4.105  0.5677  0.3103  0.3094
 1824TIP3    H1 5436   4.585   5.781   4.177 -1.3403  0.2825 -0.1880
 1824TIP3    H2 5437   4.525   5.714   4.055  1.7939  0.1939 -1.7700
 1825TIP3   OH2 5438   3.510   5.860   4.474 -0.0849  0.0370 -0.4785
 1825TIP3    H1 5439   3.555   5.785   4.435 -0.8791 -1.0836  0.6572
 1825TIP3    H2 5440   3.577   5.904   4.525  0.1938 -0.4313 -0.4324
 1826TIP3   OH2 5441   2.607   1.982   2.346  0.0451 -0.1876 -0.3789
 1826TIP3    H1 5442   2.670   2.031   2.294  2.1071  0.1800  2.2840
 1826TIP3    H2 5443   2.660   1.925   2.401 -2.1109 -2.0297 -0.0497
 1827TIP3   OH2 5444   2.063   3.444   4.716 -0.2554 -0.3012 -0.1941
 1827TIP3    H1 5445   2.141   3.408   4.759 -0.7765  1.2035  2.2635
 1827TIP3    H2 5446   1.989   3.407   4.765 -0.9447  0.4874 -0.5960
 1828TIP3   OH2 5447   5.465   0.598   0.361  0.5406  0.4016 -0.0235
 1828TIP3    H1 5448   5.423   0.649   0.430 -1.6645 -0.0473 -0.9600
 1828TIP3    H2 5449   5.485   0.662   0.293  2.1415  0.7398  0.7254
 1829TIP3   OH2 5450   6.083   4.572   1.600  0.2363 -0.4316  0.3018
 1829TIP3    H1 5451   6.109   4.562   1.692 -0.3778 -1.0440  0.4131
 1829TIP3    H2 5452   6.121   4.497   1.556 -0.4705 -0.7808  0.2775
 1830TIP3   OH2 5453   3.614   1.257   2.319  0.5189 -0.0299 -0.5515
 1830TIP3    H1 5454   3.634   1.294   2.405 -1.8650 -0.9233  0.4574
 1830TIP3    H2 5455   3.549   1.316   2.281 -0.5406 -1.1171 -0.5012
 1831TIP3   OH2 5456   2.284   0.875   5.058  0.3673 -0.0067 -0.2035
 1831TIP3    H1 5457   2.280   0.815   5.133 -0.7970 -0.6187 -0.7362
 1831TIP3    H2 5458   2.259   0.821   4.983 -2.6781  1.5657 -0.4394
 1832TIP3   OH2 5459   6.179   1.356   5.399  0.1722  0.3566 -0.1442
 1832TIP3    H1 5460   6.106   1.417   5.407 -0.1733 -0.2283  2.0483
 1832TIP3    H2 5461   6.138   1.269   5.396  0.7164  0.1184 -1.0184
 1833TIP3   OH2 5462   3.721   3.423   0.648 -0.1284  0.8292 -0.2827
 1833TIP3    H1 5463   3.646   3.480   0.663 -0.7603 -0.3317  1.2804
 1833TIP3    H2 5464   3.705   3.385   0.562 -0.9474  1.1894 -0.3018
 1834TIP3   OH2 5465   5.896   0.744   4.589 -0.7128  0.1721 -0.3510
 1834TIP3    H1 5466   5.853   0.826   4.610 -0.6854  0.8551 -2.6960
 1834TIP3    H2 5467   5.838   0.701   4.527 -1.8631 -2.7548  2.4161
 1835TIP3   OH2 5468   5.158   1.609   5.866 -0.2773 -0.3495  0.1786
 1835TIP3    H1 5469   5.118   1.696   5.862  0.6153  0.0698  0.0483
 1835TIP3    H2 5470   5.252   1.627   5.870 -0.1050 -1.3037  0.6097
 1836TIP3   OH2 5471   2.482   1.365   1.055 -0.4092  0.2594  0.3716
 1836TIP3    H1 5472   2.452   1.450   1.024 -1.3987  0.6600  2.2304
 1836TIP3    H2 5473   2.567   1.382   1.095  0.5820 -0.1428 -1.4797
 1837TIP3   OH2 5474   5.310   1.596   0.120  0.0614 -0.6413 -0.0193
 1837TIP3    H1 5475   5.285   1.525   0.060  0.0469  1.4828 -2.7278
 1837TIP3    H2 5476   5.251   1.668   0.098  1.2544  0.8289  1.3277
 1838TIP3   OH2 5477   2.468   6.615   1.334 -0.7350  0.3270  0.1272
 1838TIP3    H1 5478   2.391   6.672   1.338 -0.9882 -0.0114  0.0740
 1838TIP3    H2 5479   2.489   6.612   1.241 -0.7774  0.2575  0.1201
 1839TIP3   OH2 5480   5.157   1.759   0.420  0.2874 -0.1370 -0.4540
 1839TIP3    H1 5481   5.178   1.758   0.327 -2.4561  0.7928 -1.1982
 1839TIP3    H2 5482   5.211   1.690   0.458  2.3092  0.2011 -2.4932
 1840TIP3   OH2 5483   1.775   6.021   5.327  0.0676  0.0771 -0.1699
 1840TIP3    H1 5484   1.764   5.941   5.276  0.3878 -0.5099  0.6449
 1840TIP3    H2 5485   1.687   6.043   5.356 -0.0600  0.1827 -0.6320
 1841TIP3   OH2 5486   1.181   3.219   1.641  0.2862  0.1911 -0.2807
 1841TIP3    H1 5487   1.171   3.234   1.547 -1.5242 -0.1267 -0.1805
 1841TIP3    H2 5488   1.270   3.183   1.651  1.2229  2.0236 -1.5994
 1842TIP3   OH2 5489   1.314   0.936   1.878  0.2675 -0.2749 -0.5987
 1842TIP3    H1 5490   1.305   0.910   1.970 -0.0635 -1.7192 -1.0055
 1842TIP3    H2 5491   1.239   0.896   1.834 -0.0227  1.0626 -1.3879
 1843TIP3   OH2 5492   6.991   5.065   1.792  0.3578 -0.3619  0.2311
 1843TIP3    H1 5493   6.970   5.067   1.886  3.2630 -0.1056  0.9578
 1843TIP3    H2 5494   6.994   5.156   1.765  2.1386 -0.2647  0.6121
 1844TIP3   OH2 5495   2.053   1.687   3.499 -0.5762 -0.0618  0.4908
 1844TIP3    H1 5496   2.124   1.749   3.515  0.0307 -0.9439  1.3236
 1844TIP3    H2 5497   2.029   1.655   3.586 -1.8473  0.0425  0.2051
 1845TIP3   OH2 5498   5.336   5.646   0.365  0.1211  0.2840 -0.2453
 1845TIP3    H1 5499   5.372   5.673   0.280 -0.5141  0.8557 -0.3407
 1845TIP3    H2 5500   5.290   5.564   0.347  1.0835 -0.2826 -0.1864
 1846TIP3   OH2 5501   5.912   3.158   0.133  0.2025 -0.5393  0.4517
 1846TIP3    H1 5502   5.882   3.249   0.132  1.4428 -0.0917  1.5248
 1846TIP3    H2 5503   5.955   3.145   0.049 -0.6274 -0.3703 -0.0064
 1847TIP3   OH2 5504   6.946   2.296   2.202  0.3772 -0.3214 -0.3960
 1847TIP3    H1 5505   7.040   2.308   2.188 -0.0014  0.8281 -2.3428
 1847TIP3    H2 5506   6.926   2.213   2.159  0.6763 -1.2703  1.1969
 1848TIP3   OH2 5507   3.668   4.976   2.267 -0.0478  0.4241 -1.1160
 1848TIP3    H1 5508   3.623   4.920   2.203  1.0859 -0.7720 -0.9128
 1848TIP3    H2 5509   3.598   5.029   2.305 -1.1174 -0.5568 -1.6303
 1849TIP3   OH2 5510   0.578   3.212   1.525 -0.1821  0.3042 -0.1845
 1849TIP3    H1 5511   0.674   3.217   1.524 -0.1747  0.1281 -0.3198
 1849TIP3    H2 5512   0.559   3.118   1.527 -0.3349  0.3346  1.3263
 1850TIP3   OH2 5513   0.114   1.600   5.394  0.6418  0.1459  0.1631
 1850TIP3    H1 5514   0.065   1.681   5.409  2.4100  1.2918  0.0405
 1850TIP3    H2 5515   0.166   1.588   5.474  1.8663  0.2530 -0.5790
 1851TIP3   OH2 5516   4.203   3.084   2.614 -0.2976 -0.2317  0.2724
 1851TIP3    H1 5517   4.214   3.141   2.538  0.3683  1.1672  1.3648
 1851TIP3    H2 5518   4.284   3.034   2.619 -0.7411 -1.0493 -0.4868
 1852TIP3   OH2 5519   2.354   6.174   1.070  0.5691 -0.5860 -0.2438
 1852TIP3    H1 5520   2.325   6.158   0.980 -1.6961  0.3011  0.2717
 1852TIP3    H2 5521   2.413   6.249   1.064  1.4725 -1.3332 -1.1078
 1853TIP3   OH2 5522   5.581   2.264   3.181 -0.3331  0.2576 -0.5854
 1853TIP3    H1 5523   5.512   2.209   3.219  1.2064 -0.2499  1.6571
 1853TIP3    H2 5524   5.632   2.204   3.126 -0.3992  0.1470 -0.5269
 1854TIP3   OH2 5525   5.806   2.983   0.823 -0.7773 -0.1582 -0.5093
 1854TIP3    H1 5526   5.803   3.076   0.847  1.0897  0.1847 -1.4234
 1854TIP3    H2 5527   5.753   2.940   0.890 -1.4253  1.5250  0.1274
 1855TIP3   OH2 5528   2.618   6.204   3.838 -0.1146  0.3232  0.4551
 1855TIP3    H1 5529   2.707   6.226   3.865 -0.6104  0.7401  1.8318
 1855TIP3    H2 5530   2.567   6.203   3.919 -1.2210 -0.6627 -0.2102
 1856TIP3   OH2 5531   5.131   3.884   4.558  0.1432 -0.1679  0.2603
 1856TIP3    H1 5532   5.070   3.883   4.632 -0.8833  0.5289 -0.5375
 1856TIP3    H2 5533   5.117   3.800   4.515  0.4714 -0.4205  0.6470
 1857TIP3   OH2 5534   0.931   2.057   1.991  0.8498  0.4947 -1.1149
 1857TIP3    H1 5535   0.843   2.093   2.007  0.6113  0.7338 -2.8285
 1857TIP3    H2 5536   0.965   2.039   2.079 -1.0330  0.0785 -0.4271
 1858TIP3   OH2 5537   5.176   0.644   2.095 -0.3077 -0.2028  0.0969
 1858TIP3    H1 5538   5.226   0.707   2.147 -0.4221 -0.2111  0.2176
 1858TIP3    H2 5539   5.167   0.567   2.152  0.3180 -0.5426 -0.2618
 1859TIP3   OH2 5540   1.607   1.880   3.084  0.4345  0.4319  0.2548
 1859TIP3    H1 5541   1.598   1.852   3.175  0.6218 -0.0122  0.1379
 1859TIP3    H2 5542   1.525   1.854   3.042  0.6373 -0.0149  0.1296
 1860TIP3   OH2 5543   1.718   3.090   5.244  0.2093  0.0410  0.2472
 1860TIP3    H1 5544   1.667   3.048   5.313 -1.3795  0.2364 -0.7422
 1860TIP3    H2 5545   1.741   3.018   5.185  0.3320  0.0786  0.2503
 1861TIP3   OH2 5546   2.503   2.876   4.717  0.4048 -0.0776 -0.1090
 1861TIP3    H1 5547   2.549   2.928   4.783 -0.5407  2.5152 -1.3436
 1861TIP3    H2 5548   2.413   2.873   4.748  0.3728 -0.6760 -0.2539
 1862TIP3   OH2 5549   4.329   1.402   3.254  0.3045 -0.0299 -0.5340
 1862TIP3    H1 5550   4.400   1.402   3.317  0.7892  0.8435 -1.0616
 1862TIP3    H2 5551   4.252   1.431   3.304  0.0557 -1.9703  0.2801
 1863TIP3   OH2 5552   1.058   4.353   2.978  0.2041  0.3396  0.4235
 1863TIP3    H1 5553   1.113   4.310   3.044 -0.1159  1.1998  1.2665
 1863TIP3    H2 5554   1.089   4.317   2.895  0.5259 -0.8599  1.0391
 1864TIP3   OH2 5555   1.719   1.417   5.800 -0.0829 -0.5392 -0.0491
 1864TIP3    H1 5556   1.665   1.363   5.743  1.6939 -1.0683 -1.3191
 1864TIP3    H2 5557   1.698   1.387   5.889 -0.8569 -1.6630 -0.5925
 1865TIP3   OH2 5558   6.557   4.241   3.277 -0.1179 -0.2599 -0.2478
 1865TIP3    H1 5559   6.561   4.171   3.212  0.6509  0.2941 -0.8213
 1865TIP3    H2 5560   6.565   4.321   3.226  0.0600  0.2055  0.4926
 1866TIP3   OH2 5561   6.896   5.421   0.786 -0.5475 -0.3216  0.7249
 1866TIP3    H1 5562   6.953   5.356   0.745 -0.2988 -0.0974  0.7145
 1866TIP3    H2 5563   6.913   5.411   0.880 -0.0914  0.1162  0.6889
 1867TIP3   OH2 5564   4.596   2.378   3.903  0.0644 -0.1227  0.2284
 1867TIP3    H1 5565   4.639   2.294   3.916  1.0967  0.1942 -0.9665
 1867TIP3    H2 5566   4.640   2.438   3.963  1.2692  0.1779 -0.9215
 1868TIP3   OH2 5567   0.979   0.592   2.509  0.1201  0.1617  0.4225
 1868TIP3    H1 5568   0.966   0.502   2.477 -1.0235  0.6623 -0.6480
 1868TIP3    H2 5569   1.023   0.582   2.593  0.7175 -1.3686 -0.0400
 1869TIP3   OH2 5570   4.332   3.634   1.283 -0.2773  0.3665 -0.0244
 1869TIP3    H1 5571   4.327   3.540   1.267  2.3058  0.2307 -0.5128
 1869TIP3    H2 5572   4.323   3.673   1.196  0.1035  0.4771 -0.0152
 1870TIP3   OH2 5573   2.804   0.783   2.607 -0.0367  0.7553 -0.3869
 1870TIP3    H1 5574   2.761   0.862   2.574 -1.2314 -0.1416 -1.0593
 1870TIP3    H2 5575   2.867   0.815   2.672 -2.0876  2.1193  1.0417
 1871TIP3   OH2 5576   6.176   5.376   2.758  0.2928  0.0499  0.0308
 1871TIP3    H1 5577   6.135   5.407   2.839 -0.2019 -0.6013  0.0391
 1871TIP3    H2 5578   6.149   5.439   2.692 -0.9280 -0.4955 -0.0076
 1872TIP3   OH2 5579   2.998   1.752   0.575 -0.4519 -0.3614  0.1656
 1872TIP3    H1 5580   3.075   1.719   0.622  0.9912 -1.4722 -2.7415
 1872TIP3    H2 5581   3.018   1.844   0.557  0.1948 -0.6310 -0.5270
 1873TIP3   OH2 5582   0.926   1.828   1.151  0.1615  0.1159  0.1696
 1873TIP3    H1 5583   0.941   1.912   1.107 -1.0825 -0.8376 -2.2874
 1873TIP3    H2 5584   0.986   1.767   1.108  0.0516 -0.5524  0.9332
 1874TIP3   OH2 5585   0.136   0.348   5.567  0.5728  0.2118 -0.3316
 1874TIP3    H1 5586   0.086   0.416   5.613 -1.3556 -1.0744 -0.4289
 1874TIP3    H2 5587   0.225   0.357   5.601 -0.3811  0.5166  2.2985
 1875TIP3   OH2 5588   6.646   6.414   4.884  0.2729 -0.0040 -0.0678
 1875TIP3    H1 5589   6.680   6.487   4.936 -1.1147  0.1180  0.7195
 1875TIP3    H2 5590   6.723   6.379   4.838  0.6659  3.6056 -2.6451
 1876TIP3   OH2 5591   1.132   0.458   5.317  0.0736  0.7391 -0.4945
 1876TIP3    H1 5592   1.089   0.382   5.356  1.9059 -1.7354 -2.8631
 1876TIP3    H2 5593   1.080   0.479   5.240  1.2152 -0.2248 -1.5851
 1877TIP3   OH2 5594   2.031   0.241   3.648  0.6989  0.0043  0.1899
 1877TIP3    H1 5595   1.962   0.291   3.691 -0.1607  0.3786 -1.4987
 1877TIP3    H2 5596   2.101   0.235   3.712 -0.1797  1.2219  1.3157
 1878TIP3   OH2 5597   2.661   0.928   2.147 -0.4339  0.3380  0.0217
 1878TIP3    H1 5598   2.720   0.898   2.217  1.7437  3.3770 -0.2882
 1878TIP3    H2 5599   2.592   0.862   2.144  0.5276 -1.0863  3.5330
 1879TIP3   OH2 5600   4.177   4.121   3.377 -0.2359 -0.1850 -0.0254
 1879TIP3    H1 5601   4.188   4.215   3.388 -0.6143 -0.0915 -0.4136
 1879TIP3    H2 5602   4.088   4.104   3.406  0.6717 -0.8684  2.6967
 1880TIP3   OH2 5603   7.161   1.886   4.256 -0.4268  0.3229 -0.0129
 1880TIP3    H1 5604   7.204   1.965   4.222  0.9942  0.2915  1.5738
 1880TIP3    H2 5605   7.205   1.814   4.210 -1.2397  0.3840 -0.9379
 1881TIP3   OH2 5606   2.884   4.407   3.315  0.2846  0.0233  0.2228
 1881TIP3    H1 5607   2.831   4.327   3.314 -0.3257  0.4202 -0.3305
 1881TIP3    H2 5608   2.819   4.478   3.312  0.7198  0.6054  2.5550
 1882TIP3   OH2 5609   3.042   0.795   2.964  0.3508  0.5230 -0.0780
 1882TIP3    H1 5610   3.042   0.859   2.892  0.9670 -0.2561 -0.7869
 1882TIP3    H2 5611   2.986   0.835   3.031 -0.1454  1.3161 -0.9372
 1883TIP3   OH2 5612   7.113   1.669   2.096 -0.0211 -0.1967 -0.3356
 1883TIP3    H1 5613   7.160   1.594   2.059 -0.7242  0.4073 -2.6636
 1883TIP3    H2 5614   7.032   1.632   2.130  0.6980 -0.7957  0.7883
 1884TIP3   OH2 5615   1.070   5.544   4.827  0.5826  0.1317  0.2551
 1884TIP3    H1 5616   1.097   5.464   4.781  2.0141  0.0238  1.2297
 1884TIP3    H2 5617   1.130   5.550   4.902 -0.3778  1.4006  0.9524
 1885TIP3   OH2 5618   5.604   6.728   4.711  0.0003  0.6799 -0.4093
 1885TIP3    H1 5619   5.532   6.778   4.749  0.1745  0.4375  0.2574
 1885TIP3    H2 5620   5.564   6.645   4.684  0.1232  0.3339  0.4441
 1886TIP3   OH2 5621   2.515   4.599   5.902  0.1249 -0.0610 -0.0532
 1886TIP3    H1 5622   2.558   4.681   5.925  1.9424 -1.4159  1.7539
 1886TIP3    H2 5623   2.527   4.590   5.807  0.8636  1.2146 -0.0920
 1887TIP3   OH2 5624   0.579   5.814   5.611  1.1789 -0.2434 -0.2604
 1887TIP3    H1 5625   0.648   5.789   5.671  1.5297  0.4670 -0.3544
 1887TIP3    H2 5626   0.563   5.907   5.630 -2.3505 -1.1753  2.3728
 1888TIP3   OH2 5627   3.044   1.802   1.568  0.5193  0.2716 -0.5832
 1888TIP3    H1 5628   3.040   1.710   1.594  0.7241  0.8962  1.8418
 1888TIP3    H2 5629   3.001   1.804   1.482 -0.1397 -1.9471 -0.3765
 1889TIP3   OH2 5630   6.126   5.293   3.981  0.1908 -0.1900 -0.2061
 1889TIP3    H1 5631   6.172   5.231   4.036  2.3194 -0.3420 -2.0264
 1889TIP3    H2 5632   6.158   5.379   4.009 -2.4674  0.1919  2.0527
 1890TIP3   OH2 5633   3.174   4.551   2.595  0.2593  0.3377  0.3116
 1890TIP3    H1 5634   3.232   4.480   2.569  0.5681  0.2393  1.2260
 1890TIP3    H2 5635   3.146   4.528   2.684 -2.2473 -0.3030 -0.5599
 1891TIP3   OH2 5636   1.980   4.770   4.437 -0.2873 -0.2102 -0.4214
 1891TIP3    H1 5637   1.958   4.677   4.430  0.4811 -0.4267 -0.1126
 1891TIP3    H2 5638   1.898   4.814   4.457 -0.2237 -1.1653  2.3084
 1892TIP3   OH2 5639   1.156   2.340   3.049 -0.2012 -0.4303 -0.4374
 1892TIP3    H1 5640   1.077   2.309   3.093 -0.0333  1.4448  1.3240
 1892TIP3    H2 5641   1.125   2.385   2.971 -1.0097  1.0623  0.6965
 1893TIP3   OH2 5642   0.271   1.487   2.176 -0.4102  0.1643  0.4461
 1893TIP3    H1 5643   0.179   1.466   2.159 -0.6227  1.0647  0.4270
 1893TIP3    H2 5644   0.319   1.435   2.112 -0.9267 -0.0735  0.2431
 1894TIP3   OH2 5645   7.206   1.410   2.033 -0.0062  0.1691 -0.1971
 1894TIP3    H1 5646   7.128   1.357   2.017  0.4157 -0.3711 -0.5064
 1894TIP3    H2 5647   7.247   1.368   2.109  0.8671 -0.5903 -1.0580
 1895TIP3   OH2 5648   5.547   6.395   2.243  0.3880 -0.0825  0.6425
 1895TIP3    H1 5649   5.573   6.457   2.311  1.6056 -0.0728  0.1937
 1895TIP3    H2 5650   5.538   6.311   2.289  0.3933  0.0895  0.9596
 1896TIP3   OH2 5651   4.273   2.540   3.569 -0.3385  0.3624  0.6051
 1896TIP3    H1 5652   4.304   2.493   3.646 -0.2155  1.1899  1.0703
 1896TIP3    H2 5653   4.335   2.516   3.500  0.1188  0.3790  1.0077
 1897TIP3   OH2 5654   3.607   1.029   2.140  0.3024 -0.5689 -0.6317
 1897TIP3    H1 5655   3.607   1.080   2.221 -1.1025 -1.6035  0.0444
 1897TIP3    H2 5656   3.563   1.085   2.077 -1.9639 -1.1804  0.3162
 1898TIP3   OH2 5657   4.216   4.911   3.012 -0.2333 -0.3245  0.4606
 1898TIP3    H1 5658   4.198   4.942   3.101 -1.4291 -1.3505  0.5934
 1898TIP3    H2 5659   4.202   4.989   2.957 -0.8977 -0.0338  1.0237
 1899TIP3   OH2 5660   2.467   6.614   4.239 -0.3487  0.5532 -0.6627
 1899TIP3    H1 5661   2.464   6.603   4.334  1.0482  1.4892 -0.4752
 1899TIP3    H2 5662   2.415   6.541   4.205  0.7456 -0.9824  0.7601
 1900TIP3   OH2 5663   0.845   3.080  -0.038  0.1708 -0.2390  0.3969
 1900TIP3    H1 5664   0.765   3.054   0.007  0.8398 -3.5650 -0.0484
 1900TIP3    H2 5665   0.902   3.113   0.031 -1.1899  1.2768  0.8551
 1901TIP3   OH2 5666   1.211   1.794   3.315 -0.5712 -0.4747 -0.3815
 1901TIP3    H1 5667   1.216   1.889   3.325 -3.0890 -0.3093 -0.0511
 1901TIP3    H2 5668   1.262   1.775   3.237 -1.8448  1.4590 -1.7716
 1902TIP3   OH2 5669   5.711   2.701   2.186 -0.4726  0.5471  0.2753
 1902TIP3    H1 5670   5.738   2.622   2.233 -0.6519  0.4178  0.1644
 1902TIP3    H2 5671   5.616   2.690   2.174 -0.1245 -0.5902 -2.2271
 1903TIP3   OH2 5672   5.192   6.631   3.267 -0.6307  0.0076 -0.1393
 1903TIP3    H1 5673   5.142   6.549   3.277 -2.1662  0.9082 -0.0187
 1903TIP3    H2 5674   5.127   6.700   3.283  0.4600  1.2674 -0.9515
 1904TIP3   OH2 5675   5.464   1.860   2.736  0.3839 -0.0193  0.1478
 1904TIP3    H1 5676   5.404   1.931   2.713  0.3053 -0.0050  0.3964
 1904TIP3    H2 5677   5.421   1.781   2.704  0.0002 -0.0633  0.7582
 1905TIP3   OH2 5678   0.534   4.675   3.003 -0.2071 -0.9347  0.5081
 1905TIP3    H1 5679   0.606   4.705   2.948 -0.0815  0.6400  1.4502
 1905TIP3    H2 5680   0.480   4.753   3.016 -0.5485 -1.3994  2.1177
 1906TIP3   OH2 5681   1.953   2.708   2.715  0.1433  0.8516  0.1086
 1906TIP3    H1 5682   1.923   2.793   2.747 -1.7900  0.4947 -0.5843
 1906TIP3    H2 5683   1.948   2.715   2.620 -0.0638 -0.0320  0.0443
 1907TIP3   OH2 5684   6.456   1.715   4.229  0.1139  0.0047 -0.0165
 1907TIP3    H1 5685   6.520   1.786   4.234 -0.0288  0.0768  2.8886
 1907TIP3    H2 5686   6.496   1.643   4.278 -0.6866 -1.1452 -0.9818
 1908TIP3   OH2 5687   2.977   4.208   0.504  0.1531  0.3165 -0.1237
 1908TIP3    H1 5688   2.893   4.204   0.550  0.4557 -2.6484  0.3789
 1908TIP3    H2 5689   3.043   4.212   0.574  0.4785  1.6977 -0.4887
 1909TIP3   OH2 5690   5.541   4.615   2.258  0.1228 -0.0500 -0.2766
 1909TIP3    H1 5691   5.544   4.663   2.341  1.7506 -0.9833  0.2631
 1909TIP3    H2 5692   5.492   4.535   2.278 -1.0774  0.5588 -0.7181
 1910TIP3   OH2 5693   4.856   3.166   2.142  0.2193 -0.3034 -0.3709
 1910TIP3    H1 5694   4.797   3.181   2.216  0.7040 -0.5037  0.0673
 1910TIP3    H2 5695   4.860   3.071   2.133  1.2648 -0.3463  0.2803
 1911TIP3   OH2 5696   5.980   2.896   4.191  0.0134 -0.1799  0.0272
 1911TIP3    H1 5697   5.889   2.868   4.201  0.1011 -0.0531  1.3292
 1911TIP3    H2 5698   6.005   2.867   4.103 -1.1667 -0.5382 -0.1999
 1912TIP3   OH2 5699   2.295   2.258   2.300 -0.0903  0.0176 -0.4237
 1912TIP3    H1 5700   2.218   2.264   2.357 -0.0312  0.8236 -0.4216
 1912TIP3    H2 5701   2.356   2.322   2.335  1.7588 -2.4829  1.2937
 1913TIP3   OH2 5702   6.238   3.923   5.765 -0.1822  1.0469 -0.0611
 1913TIP3    H1 5703   6.306   3.962   5.709 -0.3813  1.2754 -0.1440
 1913TIP3    H2 5704   6.208   3.847   5.716  0.7677  0.3127  0.4590
 1914TIP3   OH2 5705   2.633   4.977   0.925  0.4891 -0.0188  0.3976
 1914TIP3    H1 5706   2.539   4.972   0.906  0.6467 -2.2890 -0.0806
 1914TIP3    H2 5707   2.656   5.068   0.907 -1.4587  0.4033 -0.2366
 1915TIP3   OH2 5708   1.647   1.232   5.591 -0.0111 -0.1016 -0.6259
 1915TIP3    H1 5709   1.588   1.174   5.543  0.3361 -2.7525  1.8703
 1915TIP3    H2 5710   1.730   1.226   5.543 -0.7887  0.9544 -2.1989
 1916TIP3   OH2 5711   4.674   4.232   5.771 -0.0785  0.2840 -0.5065
 1916TIP3    H1 5712   4.673   4.148   5.817 -0.2401  1.3085  1.4619
 1916TIP3    H2 5713   4.581   4.257   5.764 -0.0883 -0.0323 -1.7915
 1917TIP3   OH2 5714   6.454   4.977   2.048 -0.0198  0.1323  0.2346
 1917TIP3    H1 5715   6.449   4.934   2.133 -2.1324  0.4677  0.3161
 1917TIP3    H2 5716   6.403   4.921   1.990  1.5715 -0.2131 -0.9172
 1918TIP3   OH2 5717   2.303   5.964   5.077  0.4437 -0.4549  0.0288
 1918TIP3    H1 5718   2.276   5.878   5.046 -0.8381 -0.3445  0.7914
 1918TIP3    H2 5719   2.221   6.011   5.093  1.0751  1.4558 -1.8005
 1919TIP3   OH2 5720   6.043   6.022   0.708 -0.2655  0.1618  0.2851
 1919TIP3    H1 5721   6.035   6.087   0.779 -0.4352 -0.3200  0.7165
 1919TIP3    H2 5722   6.130   5.984   0.721  1.0664  2.2807 -1.7085
 1920TIP3   OH2 5723   3.876   3.950   1.402 -0.4243  0.5492  0.0279
 1920TIP3    H1 5724   3.925   3.915   1.476 -0.8866 -1.3712 -0.5378
 1920TIP3    H2 5725   3.941   3.962   1.333 -0.3643  0.2333  0.0309
 1921TIP3   OH2 5726   1.271   6.577   0.931 -0.1420 -0.2454 -0.2828
 1921TIP3    H1 5727   1.308   6.489   0.935 -0.6485 -0.4666 -0.3166
 1921TIP3    H2 5728   1.208   6.579   1.003 -2.1415 -0.8643 -1.9205
 1922TIP3   OH2 5729   1.914   3.723   2.813 -0.0982 -0.3214 -0.2380
 1922TIP3    H1 5730   1.977   3.731   2.885 -0.7388  1.5052  0.1770
 1922TIP3    H2 5731   1.852   3.794   2.829 -1.3588 -1.1038 -1.5259
 1923TIP3   OH2 5732   3.897   6.324   1.952  0.1843  0.4533  0.7655
 1923TIP3    H1 5733   3.814   6.292   1.989  0.8417 -0.5064  1.4521
 1923TIP3    H2 5734   3.877   6.341   1.860 -0.4488 -1.0689  0.5870
 1924TIP3   OH2 5735   3.694   3.812   0.405  1.0898 -0.6750  0.5277
 1924TIP3    H1 5736   3.784   3.837   0.384  0.0474  2.3018 -0.9410
 1924TIP3    H2 5737   3.686   3.826   0.499  1.6858  0.9378  0.3632
 1925TIP3   OH2 5738   1.461   5.292   0.097  0.0185 -0.4561  0.1766
 1925TIP3    H1 5739   1.546   5.248   0.098 -0.4572 -1.5097 -1.2534
 1925TIP3    H2 5740   1.435   5.291   0.005 -0.8627  1.2264  0.3731
 1926TIP3   OH2 5741   0.152   6.025   2.131 -0.3780  0.6794 -0.0927
 1926TIP3    H1 5742   0.116   5.958   2.189 -1.5705  0.5980 -0.8754
 1926TIP3    H2 5743   0.076   6.054   2.079  0.5276  1.1579 -1.1892
 1927TIP3   OH2 5744   0.032   2.533   2.935 -0.4078  0.3651 -0.4573
 1927TIP3    H1 5745   0.007   2.465   2.998  1.4764  1.8456  2.0477
 1927TIP3    H2 5746   0.065   2.484   2.860 -0.6860 -1.4913  0.5488
 1928TIP3   OH2 5747   4.007   5.066   0.832  0.4776 -0.3879  0.0732
 1928TIP3    H1 5748   4.096   5.059   0.798  0.2162 -3.2549 -0.2472
 1928TIP3    H2 5749   3.976   4.976   0.838 -1.3954  0.2949  2.9343
 1929TIP3   OH2 5750   0.598   3.448   1.050  0.6667 -0.4395  0.1629
 1929TIP3    H1 5751   0.672   3.411   1.001  1.7626 -0.3651  1.6663
 1929TIP3    H2 5752   0.563   3.374   1.100  0.7898 -0.1438  0.7000
 1930TIP3   OH2 5753   2.792   4.046   4.630 -0.2503  0.2616  0.1533
 1930TIP3    H1 5754   2.826   4.110   4.568  0.7959 -1.4528 -1.1315
 1930TIP3    H2 5755   2.812   4.083   4.716  1.4033  1.1038 -0.5475
 1931TIP3   OH2 5756   2.017   4.670   1.040  0.4690 -0.0468  0.2198
 1931TIP3    H1 5757   2.054   4.618   1.112  2.8834  1.0135 -0.1435
 1931TIP3    H2 5758   2.011   4.609   0.967  1.7975 -0.2328  0.2377
 1932TIP3   OH2 5759   2.219   3.701   0.646  0.0342  0.4202  0.0786
 1932TIP3    H1 5760   2.229   3.628   0.707 -2.9870  0.7634  1.1300
 1932TIP3    H2 5761   2.268   3.773   0.686  2.1479 -0.6385 -0.4418
 1933TIP3   OH2 5762   0.876   6.122   5.018 -0.2799  0.1087  0.3882
 1933TIP3    H1 5763   0.786   6.109   5.048 -0.7325  2.0964 -0.0120
 1933TIP3    H2 5764   0.868   6.139   4.924  0.4506  0.9493  0.4720
 1934TIP3   OH2 5765   3.431   2.632   5.222  0.1190 -0.3323  0.3210
 1934TIP3    H1 5766   3.492   2.693   5.263  0.9775 -1.3305  0.5782
 1934TIP3    H2 5767   3.487   2.571   5.174 -0.7403 -0.6750 -0.2806
 1935TIP3   OH2 5768   5.299   3.122   5.338 -0.1769  0.5046  0.5574
 1935TIP3    H1 5769   5.229   3.060   5.360 -0.4128  0.3477 -0.5744
 1935TIP3    H2 5770   5.297   3.186   5.409  1.2820 -1.7301  2.7642
 1936TIP3   OH2 5771   6.123   0.508   4.706 -0.2313 -0.6812  0.0280
 1936TIP3    H1 5772   6.143   0.514   4.612 -0.5975 -1.2489 -0.0943
 1936TIP3    H2 5773   6.203   0.538   4.749  0.6117 -2.0988 -0.4597
 1937TIP3   OH2 5774   2.681   1.418   3.059  0.1252 -0.1148 -0.0243
 1937TIP3    H1 5775   2.684   1.459   2.972  0.2983  2.5270  1.1514
 1937TIP3    H2 5776   2.758   1.451   3.104 -0.2290 -1.0482  1.3085
 1938TIP3   OH2 5777   4.734   0.646   0.626  0.2805 -0.3790 -0.2871
 1938TIP3    H1 5778   4.746   0.740   0.639  0.2098 -0.4018 -0.0534
 1938TIP3    H2 5779   4.816   0.607   0.656  0.7671 -0.3046 -1.4745
 1939TIP3   OH2 5780   1.837   5.460   3.613 -0.5784 -1.0162 -0.6463
 1939TIP3    H1 5781   1.835   5.475   3.708 -2.2865 -0.3295 -0.7460
 1939TIP3    H2 5782   1.867   5.543   3.576 -1.4302 -0.7541 -0.7685
 1940TIP3   OH2 5783   5.840   5.546   2.289 -0.1312  0.2163 -0.0825
 1940TIP3    H1 5784   5.932   5.519   2.285 -0.2075  0.0762 -1.3057
 1940TIP3    H2 5785   5.795   5.473   2.332  0.1495 -0.2532 -0.5746
 1941TIP3   OH2 5786   1.865   2.506   3.465  0.0085  0.1740  0.4673
 1941TIP3    H1 5787   1.815   2.582   3.435 -0.8132 -1.0653 -1.4504
 1941TIP3    H2 5788   1.799   2.439   3.482  0.8326 -0.6007  0.6586
 1942TIP3   OH2 5789   3.831   4.765   2.381 -0.3723  0.0154  0.7628
 1942TIP3    H1 5790   3.788   4.845   2.352  0.6396 -0.0213 -0.9649
 1942TIP3    H2 5791   3.827   4.707   2.305  1.2565 -0.5872  1.0969
 1943TIP3   OH2 5792   0.074   5.591   3.439 -0.2612 -0.6986  0.0165
 1943TIP3    H1 5793   0.144   5.578   3.503  0.0196  1.2385  0.1573
 1943TIP3    H2 5794  -0.007   5.590   3.491 -0.1242 -0.2826  0.2410
 1944TIP3   OH2 5795   6.387   6.440   5.493  0.2904  0.0344 -0.0420
 1944TIP3    H1 5796   6.461   6.455   5.434  2.8911  0.5415  3.0983
 1944TIP3    H2 5797   6.342   6.525   5.497  2.6961  1.3363  1.8705
 1945TIP3   OH2 5798   2.473   0.199   5.038  0.0746  0.1443  0.2949
 1945TIP3    H1 5799   2.547   0.168   5.091  0.5987 -1.7255 -1.3825
 1945TIP3    H2 5800   2.505   0.280   4.998  1.4808 -0.8893 -0.8028
 1946TIP3   OH2 5801   1.900   2.944   2.862 -0.1831 -0.2430 -0.2711
 1946TIP3    H1 5802   1.876   2.983   2.946  1.7318  1.9128 -0.6299
 1946TIP3    H2 5803   1.842   2.986   2.799 -1.1649 -1.3732 -0.1636
 1947TIP3   OH2 5804   5.152   0.808   4.582  0.0627  0.4417 -0.1966
 1947TIP3    H1 5805   5.137   0.749   4.655 -0.7324  2.1365  1.0898
 1947TIP3    H2 5806   5.072   0.804   4.529 -0.5455  1.3120  0.6236
 1948TIP3   OH2 5807   6.313   3.197   5.043 -0.3013 -0.8904  0.0766
 1948TIP3    H1 5808   6.267   3.133   5.097 -2.0201 -0.7691 -1.1639
 1948TIP3    H2 5809   6.258   3.275   5.047 -0.8351 -1.0811 -2.2906
 1949TIP3   OH2 5810   5.941   1.771   1.464  0.1320  0.0061 -0.1156
 1949TIP3    H1 5811   5.960   1.850   1.515 -2.0527  2.0037 -2.1340
 1949TIP3    H2 5812   5.878   1.722   1.518 -1.6356  1.7538 -0.4645
 1950TIP3   OH2 5813   5.017   3.028   3.137 -0.5215  0.0370 -0.2380
 1950TIP3    H1 5814   5.026   3.039   3.042  1.4977  0.6866 -0.0130
 1950TIP3    H2 5815   4.975   3.109   3.166 -0.5230  0.1297 -0.4944
 1951TIP3   OH2 5816   1.712   6.102   3.098 -0.1553  0.5773  0.2350
 1951TIP3    H1 5817   1.759   6.132   3.020 -0.3251  1.1742  0.3603
 1951TIP3    H2 5818   1.778   6.054   3.148  0.3776  1.5375  0.4818
 1952TIP3   OH2 5819   6.390   3.969   5.005  0.4578  0.4408 -0.6841
 1952TIP3    H1 5820   6.405   3.978   5.099 -2.8909 -1.8480  0.2836
 1952TIP3    H2 5821   6.424   3.882   4.984 -0.4656  0.1633 -1.0977
 1953TIP3   OH2 5822   5.448   6.525   1.158  0.1652  1.0341 -0.0572
 1953TIP3    H1 5823   5.395   6.483   1.090  0.7738  0.9830 -0.5056
 1953TIP3    H2 5824   5.389   6.589   1.198 -1.1058 -0.8516  1.3106
 1954TIP3   OH2 5825   7.195   3.158   0.568 -0.0378  0.2399  0.0259
 1954TIP3    H1 5826   7.273   3.210   0.548  0.0943  0.5195  1.1823
 1954TIP3    H2 5827   7.122   3.213   0.542  0.1346  0.2776 -0.3841
 1955TIP3   OH2 5828   5.142   2.939   0.055 -0.2706 -0.3807 -0.4721
 1955TIP3    H1 5829   5.094   2.910   0.133 -0.7368 -0.7729 -0.8971
 1955TIP3    H2 5830   5.116   3.031   0.045 -1.2969 -0.7032 -0.9419
 1956TIP3   OH2 5831   4.495   1.619   0.980  0.3924  0.2924  0.3826
 1956TIP3    H1 5832   4.425   1.555   0.967  0.5066 -0.0593  1.4228
 1956TIP3    H2 5833   4.470   1.693   0.924  0.5655 -0.8554 -1.3054
 1957TIP3   OH2 5834   4.059   2.151   0.880  0.4214  0.0121  0.4056
 1957TIP3    H1 5835   4.096   2.238   0.871  1.3018 -0.5373 -2.3967
 1957TIP3    H2 5836   3.976   2.155   0.832  1.0890 -0.9580 -0.9052
 1958TIP3   OH2 5837   6.149   0.275   3.210  0.0466  0.6877  0.4276
 1958TIP3    H1 5838   6.209   0.202   3.195  0.8844  1.7237 -1.8146
 1958TIP3    H2 5839   6.204   0.344   3.247  0.6306  1.9737 -2.5158
 1959TIP3   OH2 5840   5.756   6.343   2.065  0.0839  0.7037  0.0436
 1959TIP3    H1 5841   5.713   6.386   2.139  0.2390 -0.7020  0.9812
 1959TIP3    H2 5842   5.829   6.295   2.104  0.6396  0.5629 -1.1316
 1960TIP3   OH2 5843   6.978   1.236   1.941 -0.2105 -0.1944  0.3759
 1960TIP3    H1 5844   6.948   1.170   2.004 -0.6537  1.1271  1.5984
 1960TIP3    H2 5845   6.929   1.315   1.964  0.6654  0.7105 -0.7397
 1961TIP3   OH2 5846   2.369   5.399   4.979  0.7481 -0.1293 -0.3000
 1961TIP3    H1 5847   2.451   5.383   4.932  1.1236  1.5995 -0.2865
 1961TIP3    H2 5848   2.301   5.389   4.912  1.0315 -0.5696 -0.5308
 1962TIP3   OH2 5849   6.131   2.624   4.162 -0.1878 -0.3129  0.2743
 1962TIP3    H1 5850   6.064   2.624   4.231  0.6473  2.5680  1.2368
 1962TIP3    H2 5851   6.081   2.615   4.081 -1.9611  2.4059  0.9164
 1963TIP3   OH2 5852   5.732   3.545   4.869 -0.0360 -0.3393  0.4508
 1963TIP3    H1 5853   5.769   3.580   4.950 -0.8615  1.4537  0.1041
 1963TIP3    H2 5854   5.686   3.465   4.896  0.5095 -0.2948  1.5773
 1964TIP3   OH2 5855   5.896   5.288   1.420 -0.1797 -0.0829 -0.1642
 1964TIP3    H1 5856   5.865   5.205   1.383 -0.7985  0.2504 -0.3986
 1964TIP3    H2 5857   5.979   5.265   1.461  0.0399 -0.6718 -0.8945
 1965TIP3   OH2 5858   1.857   5.259   1.435 -0.4544 -0.0378  0.3433
 1965TIP3    H1 5859   1.787   5.255   1.370 -0.1372  0.9118 -0.0873
 1965TIP3    H2 5860   1.814   5.286   1.516 -0.6918 -0.1549  0.2569
 1966TIP3   OH2 5861   0.401   6.610   4.012  0.1058  0.4653  0.3461
 1966TIP3    H1 5862   0.450   6.543   3.963  2.1840  1.0717  1.4972
 1966TIP3    H2 5863   0.360   6.562   4.084 -0.2409  0.0954 -0.0932
 1967TIP3   OH2 5864   4.735   0.199   5.002 -0.2098  0.2911  0.4752
 1967TIP3    H1 5865   4.757   0.176   4.912  0.7566 -1.1457  1.0381
 1967TIP3    H2 5866   4.790   0.141   5.055 -1.5123  0.3982  1.9894
 1968TIP3   OH2 5867   6.455   0.141   4.193  0.0532 -0.4428  0.4880
 1968TIP3    H1 5868   6.390   0.164   4.127 -0.6990 -1.3522  0.8929
 1968TIP3    H2 5869   6.411   0.156   4.277  0.9513  0.5795  0.8052
 1969TIP3   OH2 5870   2.175   2.862   5.770  0.0868  0.3779  0.1469
 1969TIP3    H1 5871   2.175   2.767   5.766 -2.6923  0.1163  2.9414
 1969TIP3    H2 5872   2.243   2.884   5.835 -0.1307  0.1997  0.4353
 1970TIP3   OH2 5873   2.909   0.975   0.678  0.1864 -0.7218  0.0522
 1970TIP3    H1 5874   2.980   0.922   0.715  0.6616 -0.3345 -0.2931
 1970TIP3    H2 5875   2.840   0.972   0.745  1.4309  0.8631  1.5161
 1971TIP3   OH2 5876   4.518   2.642   1.935 -0.6822  0.1064  0.1001
 1971TIP3    H1 5877   4.469   2.716   1.970  0.3404  0.4704  0.8198
 1971TIP3    H2 5878   4.603   2.646   1.980  0.2394 -0.1233 -1.5344
 1972TIP3   OH2 5879   4.294   0.690   4.177  0.8667 -0.0152  0.8574
 1972TIP3    H1 5880   4.327   0.774   4.208  2.9203 -0.9026  1.2452
 1972TIP3    H2 5881   4.251   0.710   4.094 -0.0869  1.6228  1.6907
 1973TIP3   OH2 5882   5.993   1.027   1.309 -0.1924  0.0402  0.1499
 1973TIP3    H1 5883   6.054   1.100   1.294 -1.5876  1.3046  0.3851
 1973TIP3    H2 5884   5.935   1.029   1.233 -0.1971 -0.9086  0.1220
 1974TIP3   OH2 5885   0.945   1.290   2.191 -0.8036 -0.0283 -0.2341
 1974TIP3    H1 5886   0.909   1.240   2.264 -0.0236 -1.7095 -0.9428
 1974TIP3    H2 5887   1.005   1.230   2.148  1.0411  1.8697 -0.5213
 1975TIP3   OH2 5888   1.236   1.456   0.738  0.5134  0.1590  0.2572
 1975TIP3    H1 5889   1.246   1.385   0.675 -0.3661 -0.7641  1.1208
 1975TIP3    H2 5890   1.149   1.443   0.774  1.4671 -0.1177  2.5982
 1976TIP3   OH2 5891   0.813   5.781   5.846 -0.3703 -0.3279  0.3657
 1976TIP3    H1 5892   0.819   5.862   5.897  1.5034 -0.2892  0.1722
 1976TIP3    H2 5893   0.740   5.733   5.884 -1.4322  1.3776  0.5873
 1977TIP3   OH2 5894   5.790   1.639   5.033  0.3683 -0.1958 -0.1507
 1977TIP3    H1 5895   5.835   1.562   5.068 -0.8785 -1.2607 -0.7989
 1977TIP3    H2 5896   5.817   1.643   4.942  0.1832 -0.0483 -0.1995
 1978TIP3   OH2 5897   2.126   6.614   4.570 -0.1630  0.2631  0.4700
 1978TIP3    H1 5898   2.129   6.525   4.605  0.2136 -1.2901 -3.0673
 1978TIP3    H2 5899   2.218   6.643   4.572 -0.0162 -0.1624 -0.0486
 1979TIP3   OH2 5900   4.324   3.411   3.799  0.0706 -0.3727  0.0607
 1979TIP3    H1 5901   4.232   3.407   3.825  0.4524 -2.9828  1.3712
 1979TIP3    H2 5902   4.333   3.341   3.734  1.0478  0.1652 -0.4010
 1980TIP3   OH2 5903   4.550   4.820   5.670  0.5107  0.5117 -0.0639
 1980TIP3    H1 5904   4.489   4.782   5.733  1.9445  0.6661  1.4825
 1980TIP3    H2 5905   4.584   4.744   5.621  1.5128  0.0142  1.3307
 1981TIP3   OH2 5906   1.297   6.572   3.122  0.0469  0.1133 -0.2048
 1981TIP3    H1 5907   1.205   6.566   3.148  0.1040 -0.0231 -0.0309
 1981TIP3    H2 5908   1.298   6.547   3.030 -0.0597 -0.1122 -0.1454
 1982TIP3   OH2 5909   1.112   6.061   4.658 -0.3312 -0.3009 -0.0591
 1982TIP3    H1 5910   1.134   5.971   4.680 -0.4412  0.0202  1.4740
 1982TIP3    H2 5911   1.163   6.114   4.719 -0.9188  0.6476 -0.3674
 1983TIP3   OH2 5912   1.015   1.892   1.533 -0.2242  0.1368  0.0651
 1983TIP3    H1 5913   1.007   1.911   1.440 -0.3571 -0.6593 -0.0887
 1983TIP3    H2 5914   0.936   1.931   1.572  0.3443  1.4001  0.0094
 1984TIP3   OH2 5915   4.979   2.009   5.535 -0.0331 -0.1467 -0.2844
 1984TIP3    H1 5916   4.884   2.004   5.523 -0.6857  0.1677  3.4900
 1984TIP3    H2 5917   5.002   2.098   5.512 -1.3327  0.8209  1.8487
 1985TIP3   OH2 5918   0.948   2.235   1.419 -0.3740 -0.1296  0.4905
 1985TIP3    H1 5919   0.909   2.321   1.407 -0.6757 -0.1707  1.1072
 1985TIP3    H2 5920   0.987   2.239   1.506  0.3327 -0.3457  0.1897
 1986TIP3   OH2 5921   5.162   3.303   5.178 -0.2360 -0.4692 -0.3455
 1986TIP3    H1 5922   5.223   3.359   5.130 -1.5337  1.2253 -0.1386
 1986TIP3    H2 5923   5.218   3.244   5.228  1.2110  0.3162 -0.9756
 1987TIP3   OH2 5924   3.624   3.926   0.902  0.2976 -0.3426 -0.0063
 1987TIP3    H1 5925   3.664   3.897   0.820  1.5599  1.4572 -0.0777
 1987TIP3    H2 5926   3.696   3.927   0.965 -0.1572  0.5215  0.5191
 1988TIP3   OH2 5927   4.758   4.083   3.469 -0.1630 -0.6501  0.1428
 1988TIP3    H1 5928   4.825   4.145   3.496  0.8992 -1.8993  0.4585
 1988TIP3    H2 5929   4.709   4.064   3.549  0.9277 -1.8816  0.5492
 1989TIP3   OH2 5930   1.130   2.862   5.882  0.1690 -0.6202 -0.1322
 1989TIP3    H1 5931   1.083   2.859   5.799  1.8048 -0.1367 -1.1232
 1989TIP3    H2 5932   1.209   2.810   5.866  0.6990 -0.1870  0.9859
 1990TIP3   OH2 5933   5.627   3.737   3.060  0.5084  0.8201 -0.3536
 1990TIP3    H1 5934   5.543   3.770   3.030  0.4444  0.0662 -1.0419
 1990TIP3    H2 5935   5.664   3.693   2.983  0.7669 -0.3300  0.4154
 1991TIP3   OH2 5936   6.029   4.972   2.349  0.6602  0.5365 -0.3200
 1991TIP3    H1 5937   6.076   4.890   2.365  1.1714  0.8674 -0.0682
 1991TIP3    H2 5938   6.098   5.035   2.327  0.3459  1.0527  0.1216
 1992TIP3   OH2 5939   1.894   4.688   1.785  0.3566  0.2824 -0.3076
 1992TIP3    H1 5940   1.906   4.594   1.773  0.7587  0.2213  0.5650
 1992TIP3    H2 5941   1.976   4.727   1.753  0.6488  0.2520  0.3897
 1993TIP3   OH2 5942   6.215   3.284   3.416 -0.9456  0.3101  0.2136
 1993TIP3    H1 5943   6.169   3.203   3.392 -1.3417  0.4920  0.3467
 1993TIP3    H2 5944   6.145   3.347   3.433 -0.6434  0.9458 -0.7770
 1994TIP3   OH2 5945   2.493   1.409   0.156 -0.2003  0.3063 -0.5387
 1994TIP3    H1 5946   2.559   1.457   0.207  0.4101 -1.2801  0.2475
 1994TIP3    H2 5947   2.528   1.320   0.150 -2.8126 -0.9451  0.9866
 1995TIP3   OH2 5948   6.369   3.359   4.527 -0.4933  0.5614  0.4713
 1995TIP3    H1 5949   6.353   3.320   4.441  0.3010  0.6161  0.2899
 1995TIP3    H2 5950   6.373   3.453   4.511 -0.6611  0.5936  0.6202
 1996TIP3   OH2 5951   3.123   3.040   1.439  0.0247 -0.2117  0.0487
 1996TIP3    H1 5952   3.164   3.034   1.352  0.1118  1.8803 -0.1235
 1996TIP3    H2 5953   3.043   3.092   1.424  0.1086  0.2910  1.2347
 1997TIP3   OH2 5954   3.135   6.161   0.294  0.2526 -0.7289  0.3754
 1997TIP3    H1 5955   3.127   6.122   0.207  0.0672 -0.8961  0.4653
 1997TIP3    H2 5956   3.160   6.088   0.350 -2.9310 -1.4344  1.1017
 1998TIP3   OH2 5957   0.020  -0.005   5.240  0.0945  0.2134  0.5484
 1998TIP3    H1 5958  -0.006  -0.023   5.150 -0.3826 -0.7537  0.8657
 1998TIP3    H2 5959   0.046   0.087   5.240  0.6044  0.0769 -0.6872
 1999TIP3   OH2 5960   0.081   1.947   3.095 -0.1240  0.0929 -0.2107
 1999TIP3    H1 5961   0.076   1.866   3.045  0.3770  1.1946 -2.1530
 1999TIP3    H2 5962   0.173   1.973   3.089  0.0126  0.1219  1.5607
 2000TIP3   OH2 5963   1.390   4.125   4.805 -0.0573 -0.5614  0.4726
 2000TIP3    H1 5964   1.477   4.114   4.767 -0.2387 -1.0273  0.1839
 2000TIP3    H2 5965   1.347   4.041   4.791 -0.8099 -0.0993 -0.0337
 2001TIP3   OH2 5966   3.785   2.861   1.912  0.2126 -0.1949  0.3299
 2001TIP3    H1 5967   3.698   2.900   1.921  1.2532  2.1985  0.7462
 2001TIP3    H2 5968   3.804   2.866   1.819 -0.5511 -1.8963  0.0457
 2002TIP3   OH2 5969   3.856   5.232   2.545 -0.1620  0.2583 -0.5034
 2002TIP3    H1 5970   3.820   5.276   2.622  2.6255 -0.5775  1.4152
 2002TIP3    H2 5971   3.901   5.301   2.496  2.5060  0.0895  1.4696
 2003TIP3   OH2 5972   5.361   0.556   4.618  0.0849 -0.4027 -0.3887
 2003TIP3    H1 5973   5.431   0.620   4.610  0.9345 -1.1939  0.4110
 2003TIP3    H2 5974   5.280   0.608   4.613  0.7283  1.1408  2.7649
 2004TIP3   OH2 5975   5.243   2.435   4.366 -0.0993  0.1189  0.5626
 2004TIP3    H1 5976   5.228   2.528   4.349 -0.3807  0.2265  1.3738
 2004TIP3    H2 5977   5.281   2.402   4.285 -2.4228  0.3564 -0.6740
 2005TIP3   OH2 5978   0.985   6.468   4.366  0.3846  0.2350 -0.1904
 2005TIP3    H1 5979   1.074   6.470   4.401 -0.1104  1.0438  1.0746
 2005TIP3    H2 5980   0.981   6.543   4.306  0.8564 -0.4370 -1.1014
 2006TIP3   OH2 5981   1.835   0.474   1.510  0.3665 -0.3146  0.4488
 2006TIP3    H1 5982   1.784   0.467   1.430 -0.9864 -2.9010  1.4265
 2006TIP3    H2 5983   1.800   0.551   1.555 -0.9566 -0.6020 -0.0536
 2007TIP3   OH2 5984   5.198   2.112   0.067  0.0932  0.1593  0.3767
 2007TIP3    H1 5985   5.233   2.124  -0.022 -0.1038  1.1054  0.4160
 2007TIP3    H2 5986   5.104   2.129   0.058  0.2522  1.4680  0.9749
 2008TIP3   OH2 5987   4.986   2.057   5.115  0.4546 -0.3417 -0.0415
 2008TIP3    H1 5988   5.011   1.969   5.086 -0.2276 -0.1226 -1.3522
 2008TIP3    H2 5989   4.910   2.042   5.172  0.8916 -0.6697  0.4583
 2009TIP3   OH2 5990   2.893   5.756   5.563  0.2224 -0.1308 -0.8678
 2009TIP3    H1 5991   2.911   5.776   5.655 -1.3541 -1.9975 -0.0906
 2009TIP3    H2 5992   2.806   5.791   5.547  0.3405 -0.1327 -1.5470
 2010TIP3   OH2 5993   6.608   1.005   2.595  0.0008 -0.5430 -0.4538
 2010TIP3    H1 5994   6.540   1.012   2.529 -0.2273 -0.7387 -0.2413
 2010TIP3    H2 5995   6.671   0.943   2.559  0.1441 -0.2547 -0.7125
 2011TIP3   OH2 5996   4.087   4.103   4.980 -0.0900  0.6708 -0.0588
 2011TIP3    H1 5997   4.078   4.199   4.982 -0.7443  0.6152 -0.2698
 2011TIP3    H2 5998   4.181   4.088   4.992  0.3942  1.4296 -2.3856
 2012TIP3   OH2 5999   1.924   0.123   0.095 -0.0838 -0.0501  0.4056
 2012TIP3    H1 6000   1.900   0.181   0.167  0.5282  0.3540  0.2915
 2012TIP3    H2 6001   2.003   0.079   0.127  1.7862  2.0754 -1.0217
 2013TIP3   OH2 6002   1.293   3.836   1.215 -0.2611 -0.0011  0.5816
 2013TIP3    H1 6003   1.200   3.848   1.198 -0.1878  0.1811  0.3104
 2013TIP3    H2 6004   1.296   3.777   1.290 -0.5972  0.1450  0.7116
 2014TIP3   OH2 6005   0.575   5.169   0.233  0.0658 -0.4521 -0.1267
 2014TIP3    H1 6006   0.645   5.229   0.261  0.3768 -0.3024 -1.1762
 2014TIP3    H2 6007   0.581   5.169   0.137 -1.9947  0.3109 -0.3143
 2015TIP3   OH2 6008   3.427   2.219   1.559  0.3545  0.1508 -0.0192
 2015TIP3    H1 6009   3.380   2.296   1.527 -0.0820 -0.9275 -2.1442
 2015TIP3    H2 6010   3.518   2.246   1.562  0.1668  0.8530 -0.4459
 2016TIP3   OH2 6011   0.093   5.171   2.844 -0.4310 -0.5758 -0.1350
 2016TIP3    H1 6012   0.053   5.165   2.931  0.8654 -0.8570  0.4717
 2016TIP3    H2 6013   0.090   5.264   2.823 -1.3461 -0.5894 -0.0800
 2017TIP3   OH2 6014   1.163   6.300   2.434 -0.1613 -0.1906  0.2113
 2017TIP3    H1 6015   1.206   6.294   2.349  0.6517  0.0724  0.5875
 2017TIP3    H2 6016   1.228   6.344   2.490  0.7634 -3.3708  1.8896
 2018TIP3   OH2 6017   4.951   6.476   2.584  0.4582  0.2707 -0.3201
 2018TIP3    H1 6018   4.903   6.558   2.586 -0.4746 -0.2746  1.1091
 2018TIP3    H2 6019   4.998   6.474   2.668  0.5334 -0.6054 -0.3766
 2019TIP3   OH2 6020   5.127   5.891   2.306 -0.2481  0.6365  0.1261
 2019TIP3    H1 6021   5.058   5.894   2.373  0.6966 -2.0876  1.4029
 2019TIP3    H2 6022   5.208   5.886   2.356  0.4703 -2.0784 -1.1029
 2020TIP3   OH2 6023   6.862   0.766   5.849 -0.0314 -0.5449 -0.1653
 2020TIP3    H1 6024   6.828   0.686   5.810 -0.9097 -0.2285 -0.0856
 2020TIP3    H2 6025   6.844   0.834   5.784  0.4772 -0.3663 -0.1253
 2021TIP3   OH2 6026   0.007   5.853   4.693 -0.3615  0.0646  0.1658
 2021TIP3    H1 6027  -0.000   5.783   4.758  1.7242 -0.0457  0.3531
 2021TIP3    H2 6028   0.087   5.900   4.718 -0.3368  0.9317 -1.4566
 2022TIP3   OH2 6029   4.356   0.719   3.101  0.0684  0.4798  0.4452
 2022TIP3    H1 6030   4.395   0.649   3.152  1.3097  0.9905  0.2406
 2022TIP3    H2 6031   4.421   0.789   3.102  0.1164  0.5505 -1.7570
 2023TIP3   OH2 6032   3.656   4.465   0.905  0.1068  0.3084 -0.3844
 2023TIP3    H1 6033   3.593   4.398   0.934  0.2371 -0.5088 -1.9215
 2023TIP3    H2 6034   3.719   4.471   0.977 -0.4961 -0.4694  0.2259
 2024TIP3   OH2 6035   0.317   0.485   3.664  0.1897 -0.0315 -0.2717
 2024TIP3    H1 6036   0.309   0.408   3.720 -0.5742 -0.9880 -1.6395
 2024TIP3    H2 6037   0.393   0.468   3.610  0.5451  0.5919  0.0215
 2025TIP3   OH2 6038   3.201   3.115   5.631  0.2020 -0.5539  0.0078
 2025TIP3    H1 6039   3.243   3.201   5.630 -0.5220 -0.1493  1.4050
 2025TIP3    H2 6040   3.273   3.053   5.644  0.6625 -0.1080 -0.3872
 2026TIP3   OH2 6041   2.967   4.107   0.983 -0.4782  0.1271  0.1624
 2026TIP3    H1 6042   3.041   4.168   0.981 -0.0542 -0.3543  0.6181
 2026TIP3    H2 6043   2.980   4.050   0.908 -1.3866  1.1599 -0.8122
 2027TIP3   OH2 6044   1.800   6.711   1.832 -0.1058  0.2808  0.2634
 2027TIP3    H1 6045   1.721   6.738   1.785  0.6453  1.3388 -0.4269
 2027TIP3    H2 6046   1.837   6.792   1.865  2.0005  0.1304 -1.5196
 2028TIP3   OH2 6047   4.401   4.947   4.123  0.0736  0.1830 -0.1072
 2028TIP3    H1 6048   4.369   4.885   4.188  1.6284  0.4252  0.9561
 2028TIP3    H2 6049   4.396   5.032   4.167 -1.7910  0.8163 -1.4557
 2029TIP3   OH2 6050   0.339   5.941   0.230 -0.4560 -0.2299 -0.1260
 2029TIP3    H1 6051   0.388   5.863   0.203 -0.5802 -0.6559  0.8430
 2029TIP3    H2 6052   0.389   5.978   0.302 -0.7236  0.2471 -0.1757
 2030TIP3   OH2 6053   4.609   4.051   3.725  0.3349 -0.8270  0.1042
 2030TIP3    H1 6054   4.596   4.052   3.820  1.3886  1.8695  0.2879
 2030TIP3    H2 6055   4.523   4.071   3.689  0.1902 -0.6240  0.5559
 2031TIP3   OH2 6056   3.069   5.744   3.062  0.1911 -0.4378 -0.1390
 2031TIP3    H1 6057   2.998   5.706   3.113 -1.3629  1.4232 -0.7943
 2031TIP3    H2 6058   3.139   5.679   3.066 -1.8047 -2.7354 -0.1256
 2032TIP3   OH2 6059   1.330   5.822   3.461  0.2697 -0.3873 -0.0982
 2032TIP3    H1 6060   1.235   5.821   3.472  0.1878  0.5857 -0.5680
 2032TIP3    H2 6061   1.343   5.858   3.373  1.0812 -0.1513  0.1118
 2033TIP3   OH2 6062   7.014   6.683   4.623  0.0572  0.3842  0.1388
 2033TIP3    H1 6063   6.954   6.688   4.548  0.0465  1.0992  0.1863
 2033TIP3    H2 6064   6.973   6.621   4.683 -0.2822  0.3322 -0.1420
 2034TIP3   OH2 6065   2.283   3.515   4.592  0.4419 -0.4615  0.5522
 2034TIP3    H1 6066   2.302   3.606   4.618 -0.9808  0.0644 -0.1223
 2034TIP3    H2 6067   2.199   3.496   4.634 -0.4764 -0.6041 -1.2652
 2035TIP3   OH2 6068   4.598   4.399   1.751  0.3451 -0.0172 -0.1673
 2035TIP3    H1 6069   4.669   4.360   1.700  0.1075  0.2010 -0.6761
 2035TIP3    H2 6070   4.615   4.494   1.746  0.2751  0.0120  0.0989
 2036TIP3   OH2 6071   2.148   4.169   0.757 -0.1651  0.1681  0.3402
 2036TIP3    H1 6072   2.071   4.133   0.801 -0.9509  0.9489 -0.3643
 2036TIP3    H2 6073   2.113   4.236   0.697  1.1522  1.4594  0.9405
 2037TIP3   OH2 6074   2.145   4.025   3.364 -0.2101 -0.0185 -0.4030
 2037TIP3    H1 6075   2.179   3.990   3.447 -0.0509  1.1856  0.0692
 2037TIP3    H2 6076   2.066   4.073   3.389  0.6323  1.6135 -0.6844
 2038TIP3   OH2 6077   5.768   5.792   2.344  0.0041 -0.3983 -0.1115
 2038TIP3    H1 6078   5.788   5.774   2.436 -0.4436 -0.2775  0.0120
 2038TIP3    H2 6079   5.790   5.711   2.298 -1.1740 -0.9814  0.3149
 2039TIP3   OH2 6080   4.207   1.221   0.367 -0.2349 -0.1126  0.1042
 2039TIP3    H1 6081   4.194   1.316   0.364 -0.4743 -0.1665 -0.8344
 2039TIP3    H2 6082   4.139   1.190   0.427 -0.3643  0.2738  0.1632
 2040TIP3   OH2 6083   2.997   4.482   1.258  0.5017  0.6208 -0.0229
 2040TIP3    H1 6084   3.013   4.464   1.165  0.8764  2.1688 -0.2904
 2040TIP3    H2 6085   3.083   4.506   1.292  0.2345  0.7838  0.5441
 2041TIP3   OH2 6086   3.886   3.910   2.138 -0.1795 -0.2583  0.1157
 2041TIP3    H1 6087   3.800   3.869   2.147  0.0306 -0.5143  1.0837
 2041TIP3    H2 6088   3.892   3.968   2.213  1.0161 -1.2243  0.7992
 2042TIP3   OH2 6089   1.251   6.081   2.753 -0.2900  0.4678 -0.5156
 2042TIP3    H1 6090   1.203   6.072   2.835 -1.0404  0.2634 -0.9716
 2042TIP3    H2 6091   1.335   6.119   2.779  0.7767 -2.4481  0.7654
 2043TIP3   OH2 6092   7.016   5.037   5.313 -0.3623  0.5842  0.3910
 2043TIP3    H1 6093   7.037   4.947   5.337  1.0087 -0.0541 -2.6713
 2043TIP3    H2 6094   6.924   5.034   5.287 -0.0308 -0.2577 -0.7718
 2044TIP3   OH2 6095   1.024   4.478   1.761 -0.3429 -0.1300 -0.1772
 2044TIP3    H1 6096   1.038   4.466   1.855 -1.0924  1.7913  0.2352
 2044TIP3    H2 6097   1.107   4.515   1.729 -0.5170  0.4240 -0.0026
 2045TIP3   OH2 6098   5.071   6.697   0.209 -0.6823 -0.6950  0.4460
 2045TIP3    H1 6099   5.141   6.711   0.146  0.5786 -0.8304  1.7602
 2045TIP3    H2 6100   5.016   6.629   0.170 -0.1233 -0.5360 -0.6425
 2046TIP3   OH2 6101   6.649   5.090   2.931  0.0204 -0.2153  0.4405
 2046TIP3    H1 6102   6.582   5.037   2.888  0.7382  0.5413 -1.7583
 2046TIP3    H2 6103   6.601   5.160   2.974 -0.7169 -0.7466  0.4885
 2047TIP3   OH2 6104   6.128   3.348   0.400 -0.2900 -0.5015 -0.2628
 2047TIP3    H1 6105   6.192   3.353   0.329 -0.4678 -0.1994 -0.4053
 2047TIP3    H2 6106   6.063   3.416   0.379 -0.3223 -0.3809  0.2060
 2048TIP3   OH2 6107   3.541   5.373   0.398 -0.0174  0.0242  0.4274
 2048TIP3    H1 6108   3.584   5.347   0.480 -1.4803  0.0583  1.2512
 2048TIP3    H2 6109   3.553   5.298   0.340  2.0894  0.4737  0.2131
 2049TIP3   OH2 6110   4.204   5.852   1.242  0.0745 -0.0898 -0.0195
 2049TIP3    H1 6111   4.223   5.759   1.231  0.0600 -0.0123 -0.7078
 2049TIP3    H2 6112   4.253   5.878   1.320  0.0841 -0.6719  0.1690
 2050TIP3   OH2 6113   2.196   2.695   0.462  0.1458 -0.0281 -0.1226
 2050TIP3    H1 6114   2.173   2.726   0.374  0.9499  1.4516  0.1670
 2050TIP3    H2 6115   2.242   2.768   0.502  2.4887 -1.7116  0.4699
 2051TIP3   OH2 6116   3.649   3.333   2.973 -0.4454 -0.3592 -0.2531
 2051TIP3    H1 6117   3.690   3.336   2.887  1.2620  2.4685  0.5386
 2051TIP3    H2 6118   3.706   3.278   3.026 -0.6235 -0.7913 -0.5073
 2052TIP3   OH2 6119   6.666   6.485   0.454  0.0545 -0.1796  0.4858
 2052TIP3    H1 6120   6.636   6.516   0.369 -1.4796 -2.4288  0.1289
 2052TIP3    H2 6121   6.746   6.437   0.436  0.7715  0.9165  0.6262
 2053TIP3   OH2 6122   0.420   5.586   5.667 -0.0695  0.0522  0.2305
 2053TIP3    H1 6123   0.483   5.651   5.637  0.9691 -1.3060 -0.5986
 2053TIP3    H2 6124   0.335   5.628   5.655  0.5030  0.7307 -1.6652
 2054TIP3   OH2 6125   5.363   5.696   0.098  0.3334  0.5627 -0.0037
 2054TIP3    H1 6126   5.378   5.791   0.097  1.2469  0.4259 -0.8737
 2054TIP3    H2 6127   5.324   5.677   0.013  0.3880  0.1234  0.0673
 2055TIP3   OH2 6128   2.151   5.756   3.962  0.7375 -0.0084  0.1211
 2055TIP3    H1 6129   2.146   5.682   4.023  0.2886  1.0823  1.4731
 2055TIP3    H2 6130   2.108   5.725   3.883  0.1666 -1.0575  0.8211
 2056TIP3   OH2 6131   4.807   3.726   4.889 -0.3994 -0.0015 -0.2542
 2056TIP3    H1 6132   4.896   3.699   4.912 -0.3580 -0.2636 -0.6966
 2056TIP3    H2 6133   4.815   3.760   4.799 -0.7289  0.0593 -0.2614
 2057TIP3   OH2 6134   3.103   2.738   0.238  0.5035 -0.5778 -0.3376
 2057TIP3    H1 6135   3.147   2.674   0.293 -0.8012  1.1588  2.9931
 2057TIP3    H2 6136   3.145   2.729   0.153  2.0331 -4.0790  0.6130
 2058TIP3   OH2 6137   4.181   6.473   0.926 -0.1239 -0.0577  0.0138
 2058TIP3    H1 6138   4.101   6.427   0.951 -0.9616  0.5633 -1.3873
 2058TIP3    H2 6139   4.153   6.562   0.905  0.6258 -0.2404 -2.0423
 2059TIP3   OH2 6140   1.397   3.845   1.473  0.4437 -0.7108 -0.1490
 2059TIP3    H1 6141   1.319   3.791   1.484 -1.2156  1.4994 -0.5524
 2059TIP3    H2 6142   1.413   3.882   1.560  0.0452  0.1126 -0.4180
 2060TIP3   OH2 6143   5.064   1.569   1.698  0.0140  0.4950 -0.6908
 2060TIP3    H1 6144   4.981   1.553   1.744  0.4184  0.1325 -0.0755
 2060TIP3    H2 6145   5.040   1.628   1.626 -0.5099  1.7041  0.4355
 2061TIP3   OH2 6146   0.220   4.019   3.424 -0.0150 -0.1176 -0.1937
 2061TIP3    H1 6147   0.295   3.971   3.389  0.4561 -0.3514  1.0677
 2061TIP3    H2 6148   0.153   4.012   3.357  1.1149  0.1691 -1.3977
 2062TIP3   OH2 6149   1.093   0.150   2.670  0.8128 -0.2277  0.1011
 2062TIP3    H1 6150   1.039   0.087   2.621 -2.0772  1.9225  0.2796
 2062TIP3    H2 6151   1.114   0.104   2.752 -0.8559 -1.1412  0.0645
 2063TIP3   OH2 6152   2.530   3.730   2.539  0.1291  0.3332  0.0941
 2063TIP3    H1 6153   2.532   3.758   2.631 -1.7971  1.9787 -0.2976
 2063TIP3    H2 6154   2.622   3.732   2.512  0.7791 -0.5273  2.0379
 2064TIP3   OH2 6155   3.058   0.033   1.132 -0.4055  0.2849  0.3217
 2064TIP3    H1 6156   3.008   0.101   1.177  0.7152  0.1327  1.9140
 2064TIP3    H2 6157   3.131   0.079   1.091 -0.0972  0.1525  0.7123
 2065TIP3   OH2 6158   6.572   4.814   0.417  0.3131  0.0949 -0.2199
 2065TIP3    H1 6159   6.552   4.721   0.428 -0.8117  0.3521  0.0215
 2065TIP3    H2 6160   6.494   4.850   0.377 -0.1673  1.3570  1.7257
 2066TIP3   OH2 6161   2.021   4.083   1.385  0.5150  0.4079 -0.3916
 2066TIP3    H1 6162   1.935   4.105   1.352  0.1447 -1.0746 -0.4863
 2066TIP3    H2 6163   2.009   3.999   1.429  2.2153 -0.6948 -1.8749
 2067TIP3   OH2 6164   3.559   6.148   4.401  0.1009  0.2353 -0.2373
 2067TIP3    H1 6165   3.584   6.175   4.312  0.6710 -1.8264 -0.7388
 2067TIP3    H2 6166   3.605   6.209   4.458  3.5319 -1.2071 -1.2451
 2068TIP3   OH2 6167   5.216   2.704   4.268  0.2903  0.2768 -0.1574
 2068TIP3    H1 6168   5.162   2.731   4.193 -2.2546 -0.4942  1.2909
 2068TIP3    H2 6169   5.244   2.785   4.309  0.1840  0.6940 -0.9014
 2069TIP3   OH2 6170   1.372   0.522   3.159 -0.0281  0.2616  0.1364
 2069TIP3    H1 6171   1.325   0.445   3.129  1.0658 -0.4925  0.3023
 2069TIP3    H2 6172   1.354   0.527   3.253 -1.2594  1.0599 -0.1196
 2070TIP3   OH2 6173   6.380   6.576   0.386 -0.4197 -0.3468  0.0443
 2070TIP3    H1 6174   6.386   6.494   0.436 -2.2860 -0.1230  0.7231
 2070TIP3    H2 6175   6.419   6.642   0.443 -0.7923 -0.4213  0.3913
 2071TIP3   OH2 6176   1.727   1.637   0.181  0.1864 -0.3823 -0.2542
 2071TIP3    H1 6177   1.767   1.665   0.099  0.3374  0.2773  0.0431
 2071TIP3    H2 6178   1.799   1.602   0.233  0.6041  1.7448  0.6916
 2072TIP3   OH2 6179   5.832   5.459   5.479  0.0508  0.6379 -0.4062
 2072TIP3    H1 6180   5.811   5.547   5.510  2.9098  0.9226  0.9840
 2072TIP3    H2 6181   5.781   5.401   5.536 -2.5086  1.2836 -1.8683
 2073TIP3   OH2 6182   3.796   5.265   0.823 -0.1140  0.1434  0.4846
 2073TIP3    H1 6183   3.879   5.216   0.823 -0.0090  0.2711 -1.0230
 2073TIP3    H2 6184   3.823   5.357   0.824 -0.2671  0.1825  1.1562
 2074TIP3   OH2 6185   2.082   1.880   5.742  0.5196  0.1486  0.2000
 2074TIP3    H1 6186   2.083   1.964   5.787  1.0519 -0.1903  0.8466
 2074TIP3    H2 6187   2.012   1.887   5.678  1.0151  1.3336 -0.2331
 2075TIP3   OH2 6188   3.595   1.308   0.802  0.1411  0.2525  0.7570
 2075TIP3    H1 6189   3.511   1.339   0.836 -0.8115 -1.0107 -0.3633
 2075TIP3    H2 6190   3.593   1.332   0.709  1.5740  1.3020  0.9607
 2076TIP3   OH2 6191   0.559   3.934   1.799  0.0012  0.0467 -0.0077
 2076TIP3    H1 6192   0.475   3.950   1.843 -0.6549 -1.1974 -0.7490
 2076TIP3    H2 6193   0.552   3.981   1.716  0.0118 -0.1140 -0.0992
 2077TIP3   OH2 6194   7.159   1.495   4.751 -0.2143  0.1277 -0.1560
 2077TIP3    H1 6195   7.153   1.492   4.846 -2.3304  0.0584 -0.2463
 2077TIP3    H2 6196   7.252   1.512   4.733 -0.0021  1.4808  1.9250
 2078TIP3   OH2 6197   2.263   4.354   2.245  0.1250 -0.6675 -0.3106
 2078TIP3    H1 6198   2.315   4.371   2.166 -1.7417 -0.6862 -1.6142
 2078TIP3    H2 6199   2.175   4.384   2.223 -0.6627 -1.5119  1.4617
 2079TIP3   OH2 6200   4.363   2.041   2.918 -0.2697 -0.0157  0.1649
 2079TIP3    H1 6201   4.314   1.979   2.971 -0.3832  0.4332  0.5931
 2079TIP3    H2 6202   4.312   2.122   2.923 -0.2280  0.0617 -0.5441
 2080TIP3   OH2 6203   3.870   1.550   4.098 -0.2923  0.2272  0.5849
 2080TIP3    H1 6204   3.952   1.555   4.148 -1.2920 -0.1857  2.3509
 2080TIP3    H2 6205   3.815   1.490   4.148 -1.4973  0.0467 -0.8728
 2081TIP3   OH2 6206   5.805   6.752   0.769  0.0040  0.0229  0.3085
 2081TIP3    H1 6207   5.752   6.821   0.807  0.6118 -0.2058  1.6593
 2081TIP3    H2 6208   5.895   6.778   0.789  0.2943 -0.6264 -0.1208
 2082TIP3   OH2 6209   4.973   1.132   5.738  0.3268 -0.0384  0.1944
 2082TIP3    H1 6210   5.040   1.107   5.675  1.2642  1.9567  0.3046
 2082TIP3    H2 6211   5.022   1.175   5.809 -1.0064  1.1509  0.4447
 2083TIP3   OH2 6212   5.657   3.857   4.582  0.4853 -0.6762  0.5560
 2083TIP3    H1 6213   5.576   3.903   4.561  1.1650  0.9672  1.4097
 2083TIP3    H2 6214   5.676   3.805   4.503 -0.9347 -0.4311  0.0251
 2084TIP3   OH2 6215   2.646   4.796   2.291  0.4511 -0.0821 -0.0110
 2084TIP3    H1 6216   2.660   4.709   2.327 -1.3809 -0.4484 -0.0751
 2084TIP3    H2 6217   2.577   4.834   2.345 -1.3478 -0.1040 -2.1447
 2085TIP3   OH2 6218   6.132   2.993   5.641 -0.2836 -0.3249  0.1553
 2085TIP3    H1 6219   6.170   2.912   5.607 -2.1184 -1.3176  0.3141
 2085TIP3    H2 6220   6.044   2.995   5.603  0.1732  2.3496 -0.9826
 2086TIP3   OH2 6221   5.873   1.220   0.951  0.3185 -0.0993  0.3841
 2086TIP3    H1 6222   5.845   1.302   0.910  0.1429  0.0413  0.7782
 2086TIP3    H2 6223   5.931   1.248   1.022 -0.4648 -0.2623  1.1043
 2087TIP3   OH2 6224   4.039   2.143   1.434 -0.3044 -0.7957  0.0589
 2087TIP3    H1 6225   4.094   2.159   1.357 -1.2701  0.9224 -0.3252
 2087TIP3    H2 6226   4.019   2.050   1.431 -0.4574 -0.7262 -1.8630
 2088TIP3   OH2 6227   1.281   6.545   5.745  0.0492  0.3389 -0.0448
 2088TIP3    H1 6228   1.256   6.498   5.666  2.5594  0.1974 -0.8406
 2088TIP3    H2 6229   1.320   6.627   5.714 -0.7051  1.2018  1.1636
 2089TIP3   OH2 6230   2.141   0.514   4.562  0.0693 -0.1611  0.7568
 2089TIP3    H1 6231   2.080   0.571   4.610 -0.5325 -0.8694  0.8618
 2089TIP3    H2 6232   2.193   0.573   4.508 -1.3706  0.3967 -0.0685
 2090TIP3   OH2 6233   1.234   2.070   3.287 -0.0309 -0.6115 -0.2687
 2090TIP3    H1 6234   1.282   2.123   3.224 -1.4728  0.1075 -0.8009
 2090TIP3    H2 6235   1.279   2.086   3.370  0.7680 -0.1193 -0.7780
 2091TIP3   OH2 6236   7.123   4.982   1.449 -0.3346 -0.2341  0.4521
 2091TIP3    H1 6237   7.172   5.045   1.502  0.8229 -0.3369 -0.4653
 2091TIP3    H2 6238   7.180   4.905   1.444  0.4781  0.4439 -2.5033
 2092TIP3   OH2 6239   1.364   4.632   3.634  0.3363 -0.1847 -0.3946
 2092TIP3    H1 6240   1.386   4.673   3.550  0.9344 -1.2110 -0.7453
 2092TIP3    H2 6241   1.280   4.589   3.619  0.0829  0.2455 -0.2436
 2093TIP3   OH2 6242   2.942   3.479   1.955 -0.0197  0.5494 -0.0766
 2093TIP3    H1 6243   3.008   3.469   1.887 -0.4450 -0.0604 -0.4101
 2093TIP3    H2 6244   2.946   3.397   2.005 -1.6603 -0.2439 -1.1417
 2094TIP3   OH2 6245   1.977   0.765   0.846  0.2358  0.5099 -0.5308
 2094TIP3    H1 6246   1.971   0.827   0.773 -0.4692  2.2378  0.9464
 2094TIP3    H2 6247   2.051   0.795   0.898  0.6696 -0.6500 -0.4415
 2095TIP3   OH2 6248   4.930   0.860   0.730  0.0015  0.0084 -0.6053
 2095TIP3    H1 6249   5.025   0.848   0.722  0.0320  0.2942 -0.6580
 2095TIP3    H2 6250   4.914   0.949   0.700 -0.3122 -0.1126 -0.8012
 2096TIP3   OH2 6251   1.331   5.759   5.457 -0.8262  0.5315 -0.6021
 2096TIP3    H1 6252   1.303   5.667   5.468  0.7259 -0.0703 -1.4128
 2096TIP3    H2 6253   1.258   5.810   5.492 -2.0990 -0.9946 -0.8901
 2097TIP3   OH2 6254   2.584   0.233   3.724  0.0003  0.5378  0.0013
 2097TIP3    H1 6255   2.627   0.152   3.748  1.0579  0.8632 -0.7249
 2097TIP3    H2 6256   2.498   0.206   3.691  1.1357 -0.5438 -2.3328
 2098TIP3   OH2 6257   6.164   6.450   5.677  0.3992 -1.1210  0.0897
 2098TIP3    H1 6258   6.185   6.521   5.737 -1.6619  0.3694 -0.8287
 2098TIP3    H2 6259   6.231   6.455   5.609  0.3691 -0.1353  0.1227
 2099TIP3   OH2 6260   4.457   5.220   4.196 -0.0282  0.1615 -0.5338
 2099TIP3    H1 6261   4.479   5.307   4.227 -2.2720  1.0799 -1.3527
 2099TIP3    H2 6262   4.523   5.201   4.129  0.7841  0.9720  0.0101
 2100TIP3   OH2 6263   5.728   4.650   5.250  0.4565  0.5397 -0.1226
 2100TIP3    H1 6264   5.669   4.643   5.324 -0.2416 -0.0704 -0.7198
 2100TIP3    H2 6265   5.812   4.677   5.288  0.6142 -1.4979  1.1014
 2101TIP3   OH2 6266   5.876   0.687   1.764  0.7265  0.3922 -0.4412
 2101TIP3    H1 6267   5.784   0.714   1.753  0.9404  2.2128  1.5621
 2101TIP3    H2 6268   5.907   0.670   1.675 -1.6374 -0.6198 -1.1461
 2102TIP3   OH2 6269   6.762   4.149   0.004 -0.2856  0.1986 -0.1304
 2102TIP3    H1 6270   6.820   4.121   0.075 -0.9678 -1.8961 -0.3385
 2102TIP3    H2 6271   6.735   4.237   0.030 -1.9434 -1.0904  3.2403
 2103TIP3   OH2 6272   2.168   4.906   2.911  0.4010 -0.5948  0.1151
 2103TIP3    H1 6273   2.076   4.928   2.893  0.0046 -0.3217  2.1678
 2103TIP3    H2 6274   2.179   4.818   2.874 -0.4680 -0.3543 -0.7748
 2104TIP3   OH2 6275   4.085   5.770   3.880 -0.4351 -1.0229 -0.3965
 2104TIP3    H1 6276   3.998   5.798   3.909 -0.0205  1.0155 -0.9641
 2104TIP3    H2 6277   4.112   5.837   3.817  1.0606 -2.2610 -1.1353
 2105TIP3   OH2 6278   0.191   5.011   0.726 -0.0654 -0.2573  0.5138
 2105TIP3    H1 6279   0.138   5.028   0.648  0.9908 -0.1137 -0.1937
 2105TIP3    H2 6280   0.127   4.991   0.794 -1.0657  0.7263 -0.0995
 2106TIP3   OH2 6281   2.171   6.318   2.926  0.0344  0.3968 -0.1827
 2106TIP3    H1 6282   2.092   6.329   2.980 -1.0544 -1.9511 -1.1536
 2106TIP3    H2 6283   2.216   6.243   2.965  0.1041 -0.2726 -1.5140
 2107TIP3   OH2 6284   3.944   6.278   3.125  0.3153 -0.0034 -0.3084
 2107TIP3    H1 6285   3.905   6.278   3.037  1.0887 -1.8618 -0.7096
 2107TIP3    H2 6286   3.948   6.185   3.149  2.2764  0.2869  0.7020
 2108TIP3   OH2 6287   3.881   1.348   0.827 -0.2686 -0.1402  0.3285
 2108TIP3    H1 6288   3.878   1.424   0.769  1.9426 -1.0788 -1.1294
 2108TIP3    H2 6289   3.789   1.324   0.841 -0.9549 -0.6715 -3.8997
 2109TIP3   OH2 6290   6.748   5.148   0.844  0.4272 -0.2999  0.0306
 2109TIP3    H1 6291   6.730   5.104   0.927 -0.5123  0.2437  0.1355
 2109TIP3    H2 6292   6.831   5.112   0.815  1.5243  0.5044  1.9264
 2110TIP3   OH2 6293   6.997   0.330   2.434  0.7157 -0.5038 -0.7026
 2110TIP3    H1 6294   7.072   0.312   2.491  1.4186 -1.9671 -2.0063
 2110TIP3    H2 6295   7.003   0.424   2.415  1.0324 -0.1913  0.8073
 2111TIP3   OH2 6296   6.492   4.516   4.134  0.1103 -0.4143  0.2019
 2111TIP3    H1 6297   6.510   4.507   4.040  0.4402 -3.2269  0.4663
 2111TIP3    H2 6298   6.514   4.431   4.171 -0.5118  0.4656  2.7844
 2112TIP3   OH2 6299   1.132   1.344   5.402 -0.1449  0.3628 -0.2409
 2112TIP3    H1 6300   1.105   1.382   5.485  0.6657  0.4636 -0.0150
 2112TIP3    H2 6301   1.160   1.255   5.424 -0.9520  0.0133 -0.5856
 2113TIP3   OH2 6302   4.394   3.275   2.777 -0.2807  0.1414  0.0473
 2113TIP3    H1 6303   4.321   3.226   2.740 -0.6678  0.2705  0.6387
 2113TIP3    H2 6304   4.364   3.303   2.863  0.9940 -1.1116  0.9673
 2114TIP3   OH2 6305   2.154   1.328   1.492  0.5479 -0.2450  0.5165
 2114TIP3    H1 6306   2.150   1.233   1.506 -1.3163 -0.1718  0.7710
 2114TIP3    H2 6307   2.195   1.362   1.572  0.4507 -0.7726  0.7998
 2115TIP3   OH2 6308   4.269   2.271   1.577  0.0129  0.4351  0.3406
 2115TIP3    H1 6309   4.283   2.254   1.671  0.9628  1.5238  0.4225
 2115TIP3    H2 6310   4.182   2.236   1.559 -1.2166  2.2719  2.1955
 2116TIP3   OH2 6311   3.076   0.790   0.027 -0.0046 -0.1309 -0.1366
 2116TIP3    H1 6312   3.147   0.754   0.080  0.2268  1.5039  0.7667
 2116TIP3    H2 6313   2.997   0.754   0.066  0.2354 -0.1305  0.3661
 2117TIP3   OH2 6314   2.106   6.116   4.324 -0.0258  0.4646  0.1357
 2117TIP3    H1 6315   2.147   6.054   4.384 -0.3902  1.5740  1.6054
 2117TIP3    H2 6316   2.117   6.077   4.237 -1.0574 -2.1041  1.0577
 2118TIP3   OH2 6317   5.465   5.295   0.070 -0.1503 -0.1895 -0.1108
 2118TIP3    H1 6318   5.550   5.321   0.105  0.2306  0.1567 -1.2435
 2118TIP3    H2 6319   5.463   5.200   0.078 -0.5072 -0.0611  1.7560
 2119TIP3   OH2 6320   0.670   0.282   5.106 -0.0772  0.2839  0.1503
 2119TIP3    H1 6321   0.628   0.368   5.097 -0.8987  0.0355  1.3340
 2119TIP3    H2 6322   0.597   0.220   5.102  0.2617 -0.2153  1.4485
 2120TIP3   OH2 6323   2.036   6.411   0.857 -0.2453  0.4180  0.7495
 2120TIP3    H1 6324   2.050   6.488   0.802 -3.1061 -0.1290 -0.9785
 2120TIP3    H2 6325   1.957   6.432   0.907 -0.2140 -0.8317  1.3714
 2121TIP3   OH2 6326   4.304   0.494   3.574 -0.1184 -0.2483 -0.4210
 2121TIP3    H1 6327   4.356   0.414   3.577  0.3959  0.1210  1.0933
 2121TIP3    H2 6328   4.314   0.534   3.660 -3.0897 -0.2738  0.0544
 2122TIP3   OH2 6329   2.054   5.423   0.541  0.5647  0.0158 -0.0887
 2122TIP3    H1 6330   1.999   5.377   0.604  0.8947  1.2616  1.1508
 2122TIP3    H2 6331   2.122   5.359   0.517  0.3854 -0.5030  0.7529
 2123TIP3   OH2 6332   3.363   4.638   0.976  0.4078  0.1365  0.6590
 2123TIP3    H1 6333   3.354   4.549   0.942  0.9155  0.3307 -0.0050
 2123TIP3    H2 6334   3.444   4.636   1.026 -0.7240 -0.3538  2.5851
 2124TIP3   OH2 6335   1.037   3.001   2.974  0.1375  0.5698  0.5062
 2124TIP3    H1 6336   0.999   2.970   2.892 -1.4180  1.7199  0.7487
 2124TIP3    H2 6337   1.077   3.086   2.951 -1.3365  1.4719  1.1306
 2125TIP3   OH2 6338   2.446   1.190   3.409 -0.3077  0.2859  0.4505
 2125TIP3    H1 6339   2.399   1.162   3.331  1.6425  0.6247 -0.9091
 2125TIP3    H2 6340   2.433   1.285   3.413 -1.3996  0.1164  1.2516
 2126TIP3   OH2 6341   2.477   1.116   5.113  0.2946  0.0505  0.2577
 2126TIP3    H1 6342   2.478   1.048   5.046 -2.2318 -0.5510  0.7509
 2126TIP3    H2 6343   2.449   1.195   5.067  0.9786  0.2431  0.1525
 2127TIP3   OH2 6344   4.458   4.575   2.251 -0.5751  0.3003  0.1438
 2127TIP3    H1 6345   4.549   4.594   2.274 -0.8209 -0.7451  2.3027
 2127TIP3    H2 6346   4.447   4.611   2.163  2.5634 -1.5669 -1.1909
 2128TIP3   OH2 6347   2.371   2.320   5.559  0.0481 -0.4928 -0.1668
 2128TIP3    H1 6348   2.375   2.412   5.531 -1.3886 -0.6075 -0.8206
 2128TIP3    H2 6349   2.445   2.279   5.513  1.9399  0.6686  1.6524
 2129TIP3   OH2 6350   6.202   0.100   0.996  0.0511 -0.4154 -0.0972
 2129TIP3    H1 6351   6.225   0.130   0.908  2.0526 -1.2947  0.0836
 2129TIP3    H2 6352   6.285   0.074   1.035 -1.1136 -2.5731  1.1178
 2130TIP3   OH2 6353   2.200   4.819   2.207  0.3305  0.3114 -0.3148
 2130TIP3    H1 6354   2.183   4.777   2.123  2.5441  1.6243 -1.4942
 2130TIP3    H2 6355   2.217   4.747   2.268  1.8559 -0.5794 -1.7541
 2131TIP3   OH2 6356   5.232   0.654   4.987  0.2874  0.0488  0.4438
 2131TIP3    H1 6357   5.281   0.733   5.010 -0.5860  0.9131 -0.5743
 2131TIP3    H2 6358   5.179   0.634   5.064  0.2358  0.6710  0.5689
 2132TIP3   OH2 6359   4.219   1.913   0.244 -0.0437  0.1302  0.0342
 2132TIP3    H1 6360   4.189   1.828   0.211  0.1478 -0.1178  0.4842
 2132TIP3    H2 6361   4.144   1.972   0.231 -0.0741 -0.0378 -0.5485
 2133TIP3   OH2 6362   2.432   3.591   3.800  0.9077 -0.1186  0.0125
 2133TIP3    H1 6363   2.366   3.637   3.852  0.7478 -1.7256  1.3177
 2133TIP3    H2 6364   2.431   3.501   3.834  3.6933 -0.2292  0.0182
 2134TIP3   OH2 6365   1.085   2.528   0.848  0.0052  0.0635  0.0232
 2134TIP3    H1 6366   0.998   2.489   0.848 -0.4998  1.0345  2.4396
 2134TIP3    H2 6367   1.134   2.478   0.914  1.4337 -0.6688 -1.5032
 2135TIP3   OH2 6368   2.547   5.662   0.202  0.4541  0.0410  0.5260
 2135TIP3    H1 6369   2.474   5.602   0.185  1.3323 -0.5010 -1.6996
 2135TIP3    H2 6370   2.512   5.749   0.182  0.4729 -0.2459 -0.8279
 2136TIP3   OH2 6371   2.592   3.151   5.327  0.2927  0.4355 -0.3297
 2136TIP3    H1 6372   2.627   3.073   5.369  0.0958  1.6639  2.2992
 2136TIP3    H2 6373   2.661   3.180   5.268  1.3338 -0.4135  0.4286
 2137TIP3   OH2 6374   0.047   1.846   5.072  0.4028  0.3049 -0.3558
 2137TIP3    H1 6375   0.066   1.930   5.115  1.8989 -0.0604 -0.2636
 2137TIP3    H2 6376   0.039   1.868   4.979 -0.5247  0.7380 -0.1855
 2138TIP3   OH2 6377   6.506   6.562   1.432  0.6414 -0.2614  0.3700
 2138TIP3    H1 6378   6.455   6.597   1.506 -3.1932 -0.1089 -2.0731
 2138TIP3    H2 6379   6.562   6.635   1.405 -1.3935  1.3722  0.3095
 2139TIP3   OH2 6380   4.487   0.115   4.112 -0.0458  0.1376 -0.2912
 2139TIP3    H1 6381   4.570   0.145   4.149 -0.3867 -1.1411  1.6971
 2139TIP3    H2 6382   4.420   0.159   4.165 -0.5483 -2.0014  1.0028
 2140TIP3   OH2 6383   5.341   3.469   1.678 -0.4711 -0.6387  0.4092
 2140TIP3    H1 6384   5.259   3.497   1.720  0.0461  0.8328  0.5199
 2140TIP3    H2 6385   5.406   3.471   1.749 -0.1858 -1.0725  0.1658
 2141TIP3   OH2 6386   3.357  -0.009   1.387  0.3118 -0.6705 -0.2981
 2141TIP3    H1 6387   3.372   0.054   1.316  0.1438 -1.1404 -0.7586
 2141TIP3    H2 6388   3.315   0.042   1.456  0.1395 -0.2831 -0.6841
 2142TIP3   OH2 6389   4.082   3.477   1.728  0.1749 -0.0362  0.0517
 2142TIP3    H1 6390   4.024   3.474   1.804  0.3411 -2.4401  0.1782
 2142TIP3    H2 6391   4.035   3.529   1.663 -2.2004 -1.9211  0.1327
 2143TIP3   OH2 6392   5.800   4.864   2.214  0.8627  0.0018  0.2807
 2143TIP3    H1 6393   5.844   4.945   2.188  0.7553  0.5840  1.8043
 2143TIP3    H2 6394   5.808   4.862   2.310 -2.3342  0.1376  0.6681
 2144TIP3   OH2 6395   1.632   1.935   0.955 -0.3242  0.5686  0.2489
 2144TIP3    H1 6396   1.709   1.878   0.956 -0.4338  0.4106 -0.1447
 2144TIP3    H2 6397   1.585   1.911   1.035 -0.2224  0.3084  0.2346
 2145TIP3   OH2 6398   6.564   6.733   1.116  0.0337  0.1033  0.3769
 2145TIP3    H1 6399   6.471   6.746   1.138 -0.1305  0.5684 -0.5380
 2145TIP3    H2 6400   6.591   6.817   1.080  1.0519  0.2375  1.4147
 2146TIP3   OH2 6401   0.783   5.698   2.275 -0.0371  0.0580  0.0123
 2146TIP3    H1 6402   0.825   5.782   2.290  0.8642 -0.2635 -0.6133
 2146TIP3    H2 6403   0.729   5.712   2.197 -0.0019  0.1001 -0.0046
 2147TIP3   OH2 6404   7.154   1.915   2.748  0.4179 -0.0652  0.0019
 2147TIP3    H1 6405   7.235   1.870   2.774 -0.2566 -0.8719  0.7416
 2147TIP3    H2 6406   7.105   1.924   2.830 -0.5919 -0.2904 -0.5699
 2148TIP3   OH2 6407   2.621   2.662   4.905 -0.4841 -0.2058  0.3772
 2148TIP3    H1 6408   2.699   2.658   4.960 -0.9941  1.3954  1.3093
 2148TIP3    H2 6409   2.617   2.754   4.877 -2.0934 -0.2127  0.4832
 2149TIP3   OH2 6410   2.742   4.514   0.134 -0.2456 -0.0050 -0.5875
 2149TIP3    H1 6411   2.696   4.542   0.055 -0.0056  0.2652 -0.6335
 2149TIP3    H2 6412   2.722   4.582   0.198 -0.5998 -0.3224 -0.3525
 2150TIP3   OH2 6413   0.701   0.895   4.973  0.3317  0.3702  0.7538
 2150TIP3    H1 6414   0.763   0.822   4.975  3.6429  2.9632  0.4738
 2150TIP3    H2 6415   0.617   0.855   4.996  1.5380 -3.8075 -1.1767
 2151TIP3   OH2 6416   0.978   1.770   3.711 -0.7014 -0.8909  0.1624
 2151TIP3    H1 6417   0.971   1.861   3.684  1.0846 -0.5658  0.6825
 2151TIP3    H2 6418   1.011   1.724   3.633  3.1004 -0.1917  1.1833
 2152TIP3   OH2 6419   5.581   5.054   0.837 -0.1103 -0.5495 -0.1853
 2152TIP3    H1 6420   5.655   5.000   0.812  0.4688  0.0105  0.2801
 2152TIP3    H2 6421   5.560   5.027   0.926  0.4765  0.2858  0.2199
 2153TIP3   OH2 6422   0.432   6.649   2.139 -0.2931 -0.0773  0.3254
 2153TIP3    H1 6423   0.502   6.594   2.174  1.1705 -0.3784 -2.6774
 2153TIP3    H2 6424   0.406   6.605   2.058 -1.2809  2.0246 -0.5740
 2154TIP3   OH2 6425   7.051   0.499   3.400  0.2541  0.3190  0.3560
 2154TIP3    H1 6426   7.055   0.407   3.425  0.4641  0.3125  0.2992
 2154TIP3    H2 6427   6.976   0.506   3.342 -1.0106  0.5527  1.9517
 2155TIP3   OH2 6428   1.059   2.271   1.683 -0.0114  0.1101  0.2758
 2155TIP3    H1 6429   1.116   2.232   1.750  1.1589  2.3371  0.6587
 2155TIP3    H2 6430   1.112   2.338   1.642 -1.1491 -0.3123 -2.0666
 2156TIP3   OH2 6431   1.466   1.707   0.826  0.4697  0.1421  0.6097
 2156TIP3    H1 6432   1.483   1.614   0.843  1.0659  0.1270  0.0068
 2156TIP3    H2 6433   1.372   1.717   0.838  0.1967 -0.8149 -0.5058
 2157TIP3   OH2 6434   0.009  -0.006   4.235  0.2649  0.6446 -0.1606
 2157TIP3    H1 6435  -0.001   0.068   4.175  0.3724  1.1845  0.4698
 2157TIP3    H2 6436   0.102  -0.008   4.255  0.2796  0.2575 -0.2766
 2158TIP3   OH2 6437   4.436   5.473   3.805 -0.0986 -0.0859  0.2319
 2158TIP3    H1 6438   4.450   5.396   3.860 -0.6842  0.6484  1.4564
 2158TIP3    H2 6439   4.362   5.518   3.844  1.5276  2.2490  0.8861
 2159TIP3   OH2 6440   7.128   1.236   5.226  0.0804 -0.4043  0.1690
 2159TIP3    H1 6441   7.197   1.206   5.285 -1.2176 -1.7212  1.0954
 2159TIP3    H2 6442   7.061   1.271   5.285 -1.3011 -1.8617 -0.4752
 2160TIP3   OH2 6443   5.274   3.524   0.451 -0.4454 -0.2466  0.3879
 2160TIP3    H1 6444   5.340   3.557   0.390  0.8771 -0.5646  1.6028
 2160TIP3    H2 6445   5.218   3.467   0.397 -0.9548  1.5596 -1.0794
 2161TIP3   OH2 6446   0.326   3.428   0.078  0.0643 -0.0948 -0.0103
 2161TIP3    H1 6447   0.382   3.351   0.090 -0.0451  0.0969  2.1083
 2161TIP3    H2 6448   0.353   3.489   0.146 -1.2802  0.8717 -0.2954
 2162TIP3   OH2 6449   3.150   4.737   1.133  0.1576 -0.5763 -0.5394
 2162TIP3    H1 6450   3.174   4.671   1.198 -0.3675 -1.2495 -1.0200
 2162TIP3    H2 6451   3.192   4.707   1.052  0.9182  0.3279 -0.4994
 2163TIP3   OH2 6452   2.525   1.209   2.422  0.0674 -0.2436 -0.1805
 2163TIP3    H1 6453   2.449   1.162   2.455  0.4006  0.8651  2.4884
 2163TIP3    H2 6454   2.533   1.285   2.480  2.2217  0.5796 -1.4183
 2164TIP3   OH2 6455   0.928   3.902   3.252 -0.3940  0.4728 -0.2720
 2164TIP3    H1 6456   0.851   3.861   3.291  0.7912  0.5175  2.3441
 2164TIP3    H2 6457   0.990   3.831   3.238  0.9463  0.9474  2.5059
 2165TIP3   OH2 6458   3.121   2.037   2.220 -0.1949  0.1187  0.0078
 2165TIP3    H1 6459   3.078   2.110   2.176  1.0644  1.5280  1.0184
 2165TIP3    H2 6460   3.204   2.025   2.173 -0.0873 -0.2188  0.2730
 2166TIP3   OH2 6461   5.608   2.364   5.418  0.2821 -0.0499  0.1341
 2166TIP3    H1 6462   5.566   2.447   5.394  0.8476  0.2575  0.1769
 2166TIP3    H2 6463   5.540   2.299   5.408  0.3316  0.1345 -1.7999
 2167TIP3   OH2 6464   1.308   0.961   5.755  0.4446 -0.3855  0.5405
 2167TIP3    H1 6465   1.222   0.967   5.713  0.4071  0.9875  0.7870
 2167TIP3    H2 6466   1.362   0.915   5.691 -0.1538 -0.1930 -0.1212
 2168TIP3   OH2 6467   0.956   4.789   2.237  0.4176  0.0014 -0.8532
 2168TIP3    H1 6468   1.004   4.792   2.320 -2.2038 -1.2116  0.8503
 2168TIP3    H2 6469   0.952   4.880   2.208  0.8681  0.5500  0.7013
 2169TIP3   OH2 6470   5.587   5.236   3.599 -0.2378 -0.5715  0.4092
 2169TIP3    H1 6471   5.499   5.208   3.623 -0.1093 -0.8684  0.5392
 2169TIP3    H2 6472   5.578   5.329   3.579 -0.8891 -0.9291 -1.1048
 2170TIP3   OH2 6473   6.141   2.206   2.850 -0.0492  0.1100  0.1560
 2170TIP3    H1 6474   6.124   2.300   2.844 -0.3912  0.0228 -0.3360
 2170TIP3    H2 6475   6.098   2.169   2.773  0.1038 -0.4482  0.3324
 2171TIP3   OH2 6476   5.515   3.900   3.750  0.1113 -0.1022  0.0683
 2171TIP3    H1 6477   5.482   3.815   3.721 -0.3767 -0.6178  1.9622
 2171TIP3    H2 6478   5.579   3.878   3.818  0.0469  1.0213  0.5126
 2172TIP3   OH2 6479   6.365   6.002   3.376  0.2760 -0.0137  0.3883
 2172TIP3    H1 6480   6.426   6.074   3.394  1.4251 -1.2022  1.4381
 2172TIP3    H2 6481   6.386   5.936   3.442 -1.5937 -0.8160  0.2391
 2173TIP3   OH2 6482   4.141   2.646   3.013 -0.0303 -0.1355  0.3212
 2173TIP3    H1 6483   4.193   2.699   2.953  0.7994 -2.3800 -1.0914
 2173TIP3    H2 6484   4.204   2.609   3.074 -0.5454  0.2608  1.1080
 2174TIP3   OH2 6485   6.663   3.418   5.487  0.4660  0.5045  0.1903
 2174TIP3    H1 6486   6.647   3.325   5.502 -0.4852  0.1907 -2.2976
 2174TIP3    H2 6487   6.581   3.461   5.512  0.1091  0.3901 -0.7574
 2175TIP3   OH2 6488   0.232   6.591   5.488  0.8743  0.1354  0.1620
 2175TIP3    H1 6489   0.168   6.593   5.559 -0.3561  1.3048 -0.9188
 2175TIP3    H2 6490   0.202   6.659   5.427  0.6681 -2.1332 -2.4661
 2176TIP3   OH2 6491   2.369   3.120   0.576  0.1923  0.7670 -0.1943
 2176TIP3    H1 6492   2.430   3.150   0.643  0.2521  0.6677 -0.2048
 2176TIP3    H2 6493   2.293   3.177   0.586 -0.0875  0.2897  0.4263
 2177TIP3   OH2 6494   2.147   1.147   5.139  0.2728 -0.0267 -0.2821
 2177TIP3    H1 6495   2.234   1.111   5.159  0.4523  0.3454 -0.3859
 2177TIP3    H2 6496   2.089   1.108   5.204 -0.3030 -3.5848 -2.6646
 2178TIP3   OH2 6497   1.660   4.782   0.479 -0.0668 -0.0665 -0.1929
 2178TIP3    H1 6498   1.621   4.695   0.468 -1.3261  0.6011 -1.4224
 2178TIP3    H2 6499   1.599   4.828   0.538  0.9239 -0.1929  0.9583
 2179TIP3   OH2 6500  -0.031   0.365   2.645 -0.1537 -0.2262 -0.1272
 2179TIP3    H1 6501   0.015   0.392   2.724  0.0582 -2.3642  0.5441
 2179TIP3    H2 6502   0.027   0.300   2.604 -1.0005 -0.3751 -1.1424
 2180TIP3   OH2 6503   3.127   5.864   2.532  0.2994  0.2667  0.4660
 2180TIP3    H1 6504   3.202   5.900   2.579 -0.2786 -0.2446  1.8066
 2180TIP3    H2 6505   3.121   5.773   2.561 -0.5733  0.1717  0.0368
 2181TIP3   OH2 6506   6.298   0.149   2.685 -0.1933  0.7697  0.5226
 2181TIP3    H1 6507   6.262   0.104   2.608  0.5722  1.2560 -0.1408
 2181TIP3    H2 6508   6.342   0.081   2.735  3.0741  1.0298 -1.6885
 2182TIP3   OH2 6509   6.525   6.435   1.126  0.4723 -0.1903  0.5536
 2182TIP3    H1 6510   6.565   6.521   1.134  0.3375  0.1215 -1.6828
 2182TIP3    H2 6511   6.432   6.450   1.143 -0.0962  0.7624 -2.7641
 2183TIP3   OH2 6512   2.734   5.244   1.330  0.2562 -0.2509  0.4072
 2183TIP3    H1 6513   2.828   5.234   1.316  0.3535  0.6792  0.3283
 2183TIP3    H2 6514   2.726   5.309   1.400 -0.3269  0.5442 -0.3599
 2184TIP3   OH2 6515   2.640   3.217   3.672 -0.6109  0.1194 -0.0926
 2184TIP3    H1 6516   2.713   3.171   3.715 -0.9628 -0.2328  0.1352
 2184TIP3    H2 6517   2.605   3.274   3.741 -2.2238 -1.6444  0.6287
 2185TIP3   OH2 6518   2.908   3.720   3.579  0.2122  0.1313  0.7019
 2185TIP3    H1 6519   2.846   3.787   3.550 -2.0668 -2.3057 -0.5503
 2185TIP3    H2 6520   2.866   3.680   3.655  1.7699  0.4054  1.7356
 2186TIP3   OH2 6521   7.218   4.147   5.485  0.7703 -0.0974 -0.3172
 2186TIP3    H1 6522   7.130   4.163   5.452  1.2525 -0.8957 -2.1357
 2186TIP3    H2 6523   7.259   4.234   5.485  0.7936 -0.0543 -2.1233
 2187TIP3   OH2 6524   4.941   2.748   4.774 -0.4102 -0.0704 -0.1813
 2187TIP3    H1 6525   4.849   2.720   4.775 -0.8588  1.2477 -1.1008
 2187TIP3    H2 6526   4.972   2.723   4.687 -0.2170  0.4144 -0.2530
 2188TIP3   OH2 6527   3.712   5.546   1.059 -0.0252  0.1866 -0.1605
 2188TIP3    H1 6528   3.702   5.549   0.963 -0.3369 -0.2905 -0.1431
 2188TIP3    H2 6529   3.807   5.542   1.073  0.0938  1.4272 -0.4128
 2189TIP3   OH2 6530   1.985   3.965   3.978  0.5436  0.6411 -0.7382
 2189TIP3    H1 6531   2.078   3.979   3.963  0.7547  1.0941  0.8879
 2189TIP3    H2 6532   1.972   3.871   3.961  1.8616 -0.0427  1.6054
 2190TIP3   OH2 6533   7.118   5.592   0.029 -0.9349  0.1999 -0.1078
 2190TIP3    H1 6534   7.088   5.504   0.006 -3.1475  0.9863 -0.5295
 2190TIP3    H2 6535   7.124   5.591   0.124  0.4714 -0.7926 -0.1822
 2191TIP3   OH2 6536   5.378   0.484   2.605 -0.2613 -0.0900 -0.1648
 2191TIP3    H1 6537   5.320   0.414   2.635  1.8422 -1.0350  2.0229
 2191TIP3    H2 6538   5.431   0.443   2.537  1.3913 -0.9429  1.5372
 2192TIP3   OH2 6539   6.082   1.789   4.228  0.1672 -0.1171 -0.1435
 2192TIP3    H1 6540   6.159   1.823   4.274  1.3801  0.1467 -2.2286
 2192TIP3    H2 6541   6.118   1.737   4.156 -1.5653  0.9901 -1.9111
 2193TIP3   OH2 6542   2.069   3.107   2.043  0.3415  0.7481  0.0922
 2193TIP3    H1 6543   2.078   3.014   2.021 -0.7663  0.4460  0.8440
 2193TIP3    H2 6544   2.097   3.152   1.963 -0.7127 -0.2702 -0.9120
 2194TIP3   OH2 6545   4.495   5.903   0.490  0.5311  0.4679  0.1469
 2194TIP3    H1 6546   4.465   5.817   0.460  0.9109  0.2023  0.5138
 2194TIP3    H2 6547   4.483   5.960   0.415  1.2622 -0.1329 -0.4407
 2195TIP3   OH2 6548   6.187   2.227   3.370  0.2362 -0.5366  0.2018
 2195TIP3    H1 6549   6.191   2.260   3.280  1.7868  0.0421  0.4571
 2195TIP3    H2 6550   6.231   2.142   3.366  1.0607 -0.1410  0.5467
 2196TIP3   OH2 6551   7.028   0.734   0.645 -0.2501  0.2023 -0.3846
 2196TIP3    H1 6552   7.094   0.723   0.577 -0.8362 -1.8241 -0.6725
 2196TIP3    H2 6553   7.068   0.698   0.724 -1.0175 -1.1465 -0.5873
 2197TIP3   OH2 6554   0.584   4.288   2.238  0.7468 -0.3263 -0.0828
 2197TIP3    H1 6555   0.672   4.318   2.256  0.5956 -0.7707  1.5794
 2197TIP3    H2 6556   0.574   4.295   2.143  2.7525 -0.8067 -0.3580
 2198TIP3   OH2 6557   4.520   2.705   2.997 -0.4240 -0.2091  0.0148
 2198TIP3    H1 6558   4.470   2.624   2.998 -0.4109 -0.2960 -1.8447
 2198TIP3    H2 6559   4.460   2.771   3.031 -0.9018 -0.7644  0.2561
 2199TIP3   OH2 6560   0.838   0.738   0.410 -0.1942  0.6607  0.6868
 2199TIP3    H1 6561   0.836   0.673   0.480 -0.2254  0.5146  0.5492
 2199TIP3    H2 6562   0.831   0.687   0.329 -2.1517  0.9346  0.6320
 2200TIP3   OH2 6563   6.057   4.327   2.979  0.2642 -0.0832 -0.4704
 2200TIP3    H1 6564   6.131   4.267   2.989  1.4533  1.2707 -0.8138
 2200TIP3    H2 6565   6.072   4.370   2.895  1.2544  3.0090  1.1428
 2201TIP3   OH2 6566   4.724   2.094   3.923 -0.6622  0.3053  0.2869
 2201TIP3    H1 6567   4.751   2.055   3.840  0.1489  1.6321 -0.1024
 2201TIP3    H2 6568   4.747   2.029   3.989  2.0441  0.6659 -0.1973
 2202TIP3   OH2 6569   1.518   4.780   2.369 -0.8084  0.0048 -0.3075
 2202TIP3    H1 6570   1.453   4.842   2.335 -1.1135 -0.8348 -1.2955
 2202TIP3    H2 6571   1.593   4.835   2.394 -1.7989  0.9644  0.6507
 2203TIP3   OH2 6572   1.172   0.036   2.304  0.0827 -0.3005  0.3392
 2203TIP3    H1 6573   1.224  -0.014   2.367  0.0125 -3.0199 -1.5613
 2203TIP3    H2 6574   1.236   0.070   2.241  0.0267  1.2527  1.0770
 2204TIP3   OH2 6575   4.774   5.221   0.145 -0.2342 -0.2222 -0.1296
 2204TIP3    H1 6576   4.754   5.186   0.058 -0.1503  0.9489 -0.6408
 2204TIP3    H2 6577   4.799   5.312   0.129 -0.7780  0.1794  1.1891
 2205TIP3   OH2 6578   6.926   5.995   2.291 -0.0522  0.1588  0.0422
 2205TIP3    H1 6579   6.928   5.986   2.196 -0.2362  1.8127 -0.1573
 2205TIP3    H2 6580   6.913   6.089   2.306  0.5916  0.0274  1.7032
 2206TIP3   OH2 6581   0.181   0.836   2.509  0.3496  0.1119  0.5588
 2206TIP3    H1 6582   0.238   0.909   2.486 -0.4549  0.2160 -1.1991
 2206TIP3    H2 6583   0.103   0.877   2.546  1.2327 -0.0263  2.7783
 2207TIP3   OH2 6584   1.023   2.685   1.161 -0.2663 -0.1534 -0.3403
 2207TIP3    H1 6585   1.015   2.734   1.079  1.5551  0.4789 -0.1931
 2207TIP3    H2 6586   0.984   2.599   1.141 -1.1266  0.4582 -1.4122
 2208TIP3   OH2 6587   3.094   0.193   2.638 -0.1298 -0.3530 -0.0943
 2208TIP3    H1 6588   3.015   0.167   2.592 -0.8136 -0.5720  1.1532
 2208TIP3    H2 6589   3.101   0.287   2.622 -2.1214  0.2159  1.8518
 2209TIP3   OH2 6590   4.972   3.297   3.720 -0.8560  0.3442  0.2198
 2209TIP3    H1 6591   5.059   3.272   3.751 -1.9200 -0.9724  2.3962
 2209TIP3    H2 6592   4.934   3.217   3.684 -1.9590  0.3113  1.3688
 2210TIP3   OH2 6593   6.591   0.266   4.592  0.1977 -0.0383  0.3938
 2210TIP3    H1 6594   6.581   0.199   4.525 -2.3939 -0.6429  1.2786
 2210TIP3    H2 6595   6.625   0.220   4.668 -1.0648 -0.3068  0.8282
 2211TIP3   OH2 6596   1.420   3.161   5.618 -0.2489  0.0007  1.0753
 2211TIP3    H1 6597   1.457   3.146   5.704 -0.1519  0.1737  1.0624
 2211TIP3    H2 6598   1.448   3.249   5.594  0.3245 -0.3138  0.5648
 2212TIP3   OH2 6599   0.487   2.379   5.157  0.4078  0.5367 -0.5361
 2212TIP3    H1 6600   0.429   2.314   5.116  1.1450 -0.2360 -0.3861
 2212TIP3    H2 6601   0.514   2.338   5.239  0.4676  1.2670 -0.1827
 2213TIP3   OH2 6602   2.732   3.984   3.628  0.8162 -0.1662 -0.6521
 2213TIP3    H1 6603   2.751   4.077   3.642  2.2068 -0.4517 -0.4753
 2213TIP3    H2 6604   2.750   3.943   3.713 -0.2707 -0.5448 -0.5868
 2214TIP3   OH2 6605   6.228   1.176   5.829  0.5372  0.1709  0.1670
 2214TIP3    H1 6606   6.253   1.123   5.753  1.3068  0.3475  0.2873
 2214TIP3    H2 6607   6.133   1.187   5.820  0.7497  1.0821 -1.3614
 2215TIP3   OH2 6608   5.406   1.737   5.824  0.4967  0.2389 -0.1088
 2215TIP3    H1 6609   5.469   1.680   5.779 -0.7344  0.0225 -1.6466
 2215TIP3    H2 6610   5.432   1.826   5.801  1.5932  0.2748  1.1646
 2216TIP3   OH2 6611   5.340   6.174   0.066 -0.4382 -0.3793  0.0437
 2216TIP3    H1 6612   5.262   6.170   0.121  0.4212  0.3425  1.3701
 2216TIP3    H2 6613   5.306   6.177  -0.023 -1.9047 -0.6454  0.5662
 2217TIP3   OH2 6614   4.468   3.391   4.461 -0.4439  0.0238  0.0779
 2217TIP3    H1 6615   4.450   3.303   4.428 -0.3908 -0.6544  1.7803
 2217TIP3    H2 6616   4.397   3.445   4.426 -0.3435 -0.6315 -1.1793
 2218TIP3   OH2 6617   0.097   1.603   1.386 -0.2774  0.4534 -0.0047
 2218TIP3    H1 6618   0.042   1.668   1.343  0.1979  0.8370 -0.0379
 2218TIP3    H2 6619   0.175   1.651   1.412 -0.0141 -0.0585  0.1598
 2219TIP3   OH2 6620   1.880   3.767   1.659 -0.0573  0.3373  0.8595
 2219TIP3    H1 6621   1.961   3.779   1.611  0.0553 -1.0358  0.6524
 2219TIP3    H2 6622   1.907   3.756   1.750 -0.0481  0.3550  0.8588
 2220TIP3   OH2 6623   1.243   1.784   2.370  0.0730  0.3316 -0.1339
 2220TIP3    H1 6624   1.175   1.750   2.429  0.4620  0.1354  0.2040
 2220TIP3    H2 6625   1.322   1.737   2.396  0.1603 -0.0751 -1.0967
 2221TIP3   OH2 6626   0.106   6.594   1.821  0.7313 -0.3382  0.3972
 2221TIP3    H1 6627   0.035   6.610   1.882  0.7538  2.1925 -0.1039
 2221TIP3    H2 6628   0.070   6.532   1.757 -1.1465  1.0463  0.0307
 2222TIP3   OH2 6629   0.437   0.126   3.045 -0.3622  0.0189  0.2490
 2222TIP3    H1 6630   0.485   0.061   3.095  0.2228 -1.1329 -1.7361
 2222TIP3    H2 6631   0.499   0.159   2.980 -1.0636  1.5494  0.2977
 2223TIP3   OH2 6632   5.270   1.836   5.568 -0.2151  0.3748 -0.4662
 2223TIP3    H1 6633   5.233   1.804   5.486  0.0505  0.6388 -0.6888
 2223TIP3    H2 6634   5.195   1.863   5.620 -0.3793  0.2665 -0.6488
 2224TIP3   OH2 6635   6.089   5.652   3.382 -0.1181 -0.3348 -0.7592
 2224TIP3    H1 6636   6.064   5.738   3.346  0.8617  0.4093  0.2528
 2224TIP3    H2 6637   6.078   5.591   3.309 -0.5036  0.7185 -1.6081
 2225TIP3   OH2 6638   5.269   0.291   1.642 -0.1755 -0.4030 -0.2981
 2225TIP3    H1 6639   5.200   0.357   1.647 -1.1826 -1.4143 -0.2903
 2225TIP3    H2 6640   5.351   0.341   1.645 -0.8490  0.7037  2.2980
 2226TIP3   OH2 6641   4.041   1.021   4.841  0.1510  0.1389 -0.5468
 2226TIP3    H1 6642   4.079   1.025   4.929 -0.3055 -0.1275 -0.3281
 2226TIP3    H2 6643   3.992   0.938   4.840  0.9909 -0.3637 -1.4036
 2227TIP3   OH2 6644   0.460   2.048   0.436  0.4195 -0.2470  0.0129
 2227TIP3    H1 6645   0.534   2.012   0.486 -0.9489  0.8507  3.0799
 2227TIP3    H2 6646   0.485   2.138   0.417  0.3542 -0.2364 -0.0237
 2228TIP3   OH2 6647   4.364   2.710   0.754  0.3567 -0.3145 -0.2544
 2228TIP3    H1 6648   4.279   2.667   0.763  0.1376  0.1773  0.0962
 2228TIP3    H2 6649   4.386   2.737   0.843  0.6647 -0.0269 -0.4165
 2229TIP3   OH2 6650   3.460   1.818   4.406  0.5054  0.2590 -0.2447
 2229TIP3    H1 6651   3.397   1.838   4.337  0.3507 -1.0056 -0.4834
 2229TIP3    H2 6652   3.408   1.778   4.476  1.1097 -1.5526 -0.7693
 2230TIP3   OH2 6653   4.802   1.790   2.887  0.3341 -0.1981 -0.2926
 2230TIP3    H1 6654   4.760   1.862   2.841  1.3088  0.3245 -0.3786
 2230TIP3    H2 6655   4.895   1.799   2.867  0.6506 -0.5930  0.8959
 2231TIP3   OH2 6656   2.053   1.196   4.673  0.1630 -0.1307 -0.0545
 2231TIP3    H1 6657   2.075   1.126   4.736 -0.9577 -0.1170  0.3763
 2231TIP3    H2 6658   2.022   1.149   4.595  0.5136 -0.1318 -0.1932
 2232TIP3   OH2 6659   6.527   3.715   4.951 -0.4488 -0.2107 -0.4936
 2232TIP3    H1 6660   6.575   3.767   5.015  2.3231 -0.0123 -2.5716
 2232TIP3    H2 6661   6.571   3.630   4.951 -0.2522 -0.1431 -2.2139
 2233TIP3   OH2 6662   6.932   2.478   4.374 -0.0247  0.3910  0.1658
 2233TIP3    H1 6663   6.869   2.548   4.396  0.0901  0.8748 -0.9608
 2233TIP3    H2 6664   6.930   2.474   4.278  2.7144  1.4253 -0.0162
 2234TIP3   OH2 6665   6.407   0.972   1.359 -0.5618 -0.8322 -0.6568
 2234TIP3    H1 6666   6.470   1.009   1.296  1.4634 -0.9480  1.1806
 2234TIP3    H2 6667   6.402   1.037   1.429 -0.5492 -1.9392  0.4072
 2235TIP3   OH2 6668   6.346   5.056   4.513 -0.5960 -0.0046  0.4035
 2235TIP3    H1 6669   6.361   5.041   4.606 -0.2588 -1.3134  0.1494
 2235TIP3    H2 6670   6.391   5.139   4.495 -0.8496  0.3723  1.4357
 2236TIP3   OH2 6671   6.248   2.814   1.343  0.2499 -0.5248 -0.5024
 2236TIP3    H1 6672   6.342   2.810   1.357  0.2490 -0.9410 -0.5890
 2236TIP3    H2 6673   6.218   2.888   1.396  0.9694  1.2929 -2.5115
 2237TIP3   OH2 6674   4.265   1.445   1.764 -0.3218  0.1850  0.0647
 2237TIP3    H1 6675   4.250   1.497   1.684  0.2209  0.7665  0.3356
 2237TIP3    H2 6676   4.183   1.397   1.776 -0.4122  0.0852 -0.8459
 2238TIP3   OH2 6677   0.372   3.353   3.749  0.0764 -0.4656 -0.5827
 2238TIP3    H1 6678   0.456   3.357   3.794  1.0162  0.7797 -2.3006
 2238TIP3    H2 6679   0.308   3.378   3.814  1.2930  0.6223  0.2349
 2239TIP3   OH2 6680   0.857   2.607   1.772  0.0121 -0.2849 -0.1666
 2239TIP3    H1 6681   0.775   2.650   1.796 -0.3560 -0.1979 -1.4918
 2239TIP3    H2 6682   0.926   2.666   1.801 -0.3756 -0.4034  1.0498
 2240TIP3   OH2 6683   1.144   5.956   5.540  0.0037  0.3664 -0.2356
 2240TIP3    H1 6684   1.070   6.007   5.572  0.5527  1.1322 -0.1575
 2240TIP3    H2 6685   1.220   6.012   5.555  0.6692 -0.6210  0.1727
 2241TIP3   OH2 6686   6.867   1.990   3.291  0.1008 -0.0566 -0.3981
 2241TIP3    H1 6687   6.924   2.046   3.238 -0.0498 -0.2788 -0.7986
 2241TIP3    H2 6688   6.804   1.955   3.229 -0.5921  0.3329  0.0788
 2242TIP3   OH2 6689   6.645   6.210   4.587  0.1953 -0.6373  0.3073
 2242TIP3    H1 6690   6.617   6.300   4.598  0.5887 -0.4837  0.1017
 2242TIP3    H2 6691   6.615   6.186   4.499 -1.2949 -1.2377  0.9529
 2243TIP3   OH2 6692   6.303   6.566   4.119  0.1937  0.4765  0.6905
 2243TIP3    H1 6693   6.335   6.637   4.175 -0.8306  0.5788  1.1692
 2243TIP3    H2 6694   6.318   6.598   4.030  0.9010  0.7467  0.9004
 2244TIP3   OH2 6695   1.669   6.388   4.748  0.1878  0.0851 -0.1210
 2244TIP3    H1 6696   1.724   6.395   4.670 -2.5888 -0.4024 -2.2819
 2244TIP3    H2 6697   1.647   6.294   4.754  0.6786  0.0467  1.5182
 2245TIP3   OH2 6698   4.529   5.650   1.868  0.7070 -0.5739 -0.1915
 2245TIP3    H1 6699   4.536   5.572   1.924  2.3021 -0.1462  0.2674
 2245TIP3    H2 6700   4.435   5.661   1.854  0.4209 -2.2901  0.1356
 2246TIP3   OH2 6701   3.262   0.498   3.587 -0.0416  0.1373  0.4127
 2246TIP3    H1 6702   3.319   0.445   3.531 -0.2510 -0.9404  1.1988
 2246TIP3    H2 6703   3.177   0.494   3.545 -0.5027 -1.7271  1.4395
 2247TIP3   OH2 6704   6.942   2.540   4.115 -0.4049 -0.5826 -0.2912
 2247TIP3    H1 6705   6.870   2.548   4.053 -1.8883  1.3215  1.5172
 2247TIP3    H2 6706   6.987   2.624   4.111  0.5761 -1.0763 -0.0468
 2248TIP3   OH2 6707   4.414   2.498   5.310 -0.0022  0.1312 -0.2827
 2248TIP3    H1 6708   4.367   2.444   5.246 -1.3543  0.2244  0.5807
 2248TIP3    H2 6709   4.489   2.445   5.336 -0.9712 -1.1044  0.0990
 2249TIP3   OH2 6710   4.537   4.979   3.681  0.5938 -0.1509  0.1816
 2249TIP3    H1 6711   4.588   4.976   3.601 -0.4349  2.1511 -0.6518
 2249TIP3    H2 6712   4.552   5.067   3.716  1.3699 -1.2208  2.8064
 2250TIP3   OH2 6713   6.406   3.520   5.366  0.0328  0.2524  0.4289
 2250TIP3    H1 6714   6.412   3.550   5.457 -0.8700 -0.3409  0.6937
 2250TIP3    H2 6715   6.397   3.425   5.374 -1.7373  0.3361 -0.2031
 2251TIP3   OH2 6716   3.263   4.806   2.593 -0.7393  0.0876  0.1521
 2251TIP3    H1 6717   3.261   4.711   2.596  1.9925 -0.0510  3.7943
 2251TIP3    H2 6718   3.220   4.834   2.674 -0.6655  1.9545 -0.3947
 2252TIP3   OH2 6719   4.866   2.212   1.044  0.0742  0.3749 -0.3160
 2252TIP3    H1 6720   4.897   2.130   1.006  0.5046 -0.2236  1.2624
 2252TIP3    H2 6721   4.915   2.222   1.125 -0.4119  1.8947 -0.1681
 2253TIP3   OH2 6722   5.447   3.015   2.193 -0.0732  0.3942  0.0242
 2253TIP3    H1 6723   5.432   2.966   2.274 -0.8782  0.4783 -0.0647
 2253TIP3    H2 6724   5.499   3.091   2.220  1.4164 -0.6122  0.1259
 2254TIP3   OH2 6725   1.875   2.176   2.266  0.1771 -0.0395 -0.4479
 2254TIP3    H1 6726   1.933   2.220   2.329  1.8524 -3.2176  0.4407
 2254TIP3    H2 6727   1.931   2.160   2.190 -0.7413  0.3357 -1.2192
 2255TIP3   OH2 6728   2.157   6.011   4.763  0.2668  0.1768 -0.5336
 2255TIP3    H1 6729   2.148   5.920   4.793  2.0955  0.1223 -0.0540
 2255TIP3    H2 6730   2.130   6.008   4.671 -0.9176 -0.5830 -0.1822
 2256TIP3   OH2 6731   4.608   3.516   4.116 -0.2363 -0.0479  0.2817
 2256TIP3    H1 6732   4.696   3.508   4.078 -1.0476 -1.9392 -1.3353
 2256TIP3    H2 6733   4.620   3.577   4.189  2.3693 -0.0733 -0.0158
 2257TIP3   OH2 6734   5.777   3.928   0.564  0.2248  0.5747 -0.5301
 2257TIP3    H1 6735   5.713   3.987   0.604  0.6674  1.1160 -0.6083
 2257TIP3    H2 6736   5.772   3.848   0.616 -0.9660  0.3742 -0.9181
 2258TIP3   OH2 6737   4.367   5.485   4.767  0.9426 -0.9659  0.4247
 2258TIP3    H1 6738   4.371   5.399   4.808  1.7311 -1.5817 -0.8774
 2258TIP3    H2 6739   4.310   5.473   4.691 -0.3428  0.1043  1.1743
 2259TIP3   OH2 6740   5.626   0.150   0.859 -0.1702  0.4365  0.0280
 2259TIP3    H1 6741   5.670   0.065   0.861 -1.4063 -0.2170  0.9516
 2259TIP3    H2 6742   5.654   0.190   0.777  0.1545 -1.0243 -0.6001
 2260TIP3   OH2 6743   1.379   3.352   1.459 -0.1927 -0.0883  0.8842
 2260TIP3    H1 6744   1.397   3.430   1.407  0.4334 -0.7730  0.0619
 2260TIP3    H2 6745   1.314   3.303   1.409  0.4406 -0.7706  0.7099
 2261TIP3   OH2 6746   4.289   3.256   1.982  0.2469 -0.2242  0.1804
 2261TIP3    H1 6747   4.325   3.341   2.010 -0.3742  0.0307  0.2194
 2261TIP3    H2 6748   4.194   3.265   1.994  0.0885 -0.5896 -0.7368
 2262TIP3   OH2 6749   0.828   6.071   3.716 -0.7310  0.3241  0.2605
 2262TIP3    H1 6750   0.899   6.135   3.727 -1.8497  1.8958 -1.2109
 2262TIP3    H2 6751   0.873   5.990   3.693  0.6753  0.8301  1.0947
 2263TIP3   OH2 6752   1.877   6.389   3.300  0.2569  0.6113 -0.5091
 2263TIP3    H1 6753   1.881   6.472   3.348 -0.4065  0.7652 -0.7132
 2263TIP3    H2 6754   1.864   6.323   3.369 -2.3485  0.9798 -0.5257
 2264TIP3   OH2 6755   5.229   2.176   4.648 -0.0891  0.1164  0.2010
 2264TIP3    H1 6756   5.313   2.222   4.640  0.6616 -1.2339  0.0869
 2264TIP3    H2 6757   5.222   2.124   4.568 -0.0192 -1.3734  1.1150
 2265TIP3   OH2 6758   3.564   6.050   2.855  0.2418 -0.7315 -0.5378
 2265TIP3    H1 6759   3.624   6.115   2.892  0.0005 -0.1847 -1.0856
 2265TIP3    H2 6760   3.571   5.975   2.914  0.8925 -0.3930 -0.1671
 2266TIP3   OH2 6761   3.298   6.652   0.853 -0.0332  0.0238  0.3016
 2266TIP3    H1 6762   3.275   6.585   0.788  1.3096  0.3316 -0.5286
 2266TIP3    H2 6763   3.393   6.663   0.845  0.2119 -0.0754  2.5017
 2267TIP3   OH2 6764   3.881   3.321   4.853  0.3367 -0.4429  0.0150
 2267TIP3    H1 6765   3.808   3.268   4.819  1.0704 -0.8981 -0.9353
 2267TIP3    H2 6766   3.862   3.410   4.823 -0.2791 -0.3804  0.5601
 2268TIP3   OH2 6767   4.278   0.256   0.464  0.5042  0.0311 -0.5161
 2268TIP3    H1 6768   4.327   0.213   0.534  0.2847  1.1772  0.3642
 2268TIP3    H2 6769   4.254   0.185   0.404 -0.9906 -1.3240  1.5730
 2269TIP3   OH2 6770   0.030   0.263   5.174  0.2675 -0.5313  0.5357
 2269TIP3    H1 6771   0.085   0.277   5.097 -0.8030  0.1407 -0.1371
 2269TIP3    H2 6772   0.004   0.351   5.201 -2.5612 -0.8590 -0.7430
 2270TIP3   OH2 6773   5.589   1.361   0.560 -0.7504  0.4007  0.3615
 2270TIP3    H1 6774   5.608   1.389   0.470 -0.6191 -0.1998  0.2019
 2270TIP3    H2 6775   5.586   1.266   0.556  1.6776  0.2038  1.4649
 2271TIP3   OH2 6776   4.557   0.345   5.604  0.1700 -0.3562 -0.0769
 2271TIP3    H1 6777   4.465   0.362   5.623 -0.4559 -2.5355 -0.8486
 2271TIP3    H2 6778   4.556   0.270   5.545  2.4183  0.1572 -0.8652
 2272TIP3   OH2 6779   7.034   0.826   0.285 -0.6753  0.1273  0.3314
 2272TIP3    H1 6780   7.037   0.730   0.291  0.3957  0.1887  1.0345
 2272TIP3    H2 6781   6.996   0.843   0.199  2.9414 -0.9772 -1.7170
 2273TIP3   OH2 6782   3.318   2.495   0.303 -0.6177  0.2152 -0.5133
 2273TIP3    H1 6783   3.318   2.568   0.365  0.2066 -0.6533  0.5542
 2273TIP3    H2 6784   3.409   2.488   0.275 -0.5730 -0.7633 -0.1531
 2274TIP3   OH2 6785   2.873   1.111   3.010 -0.8199 -0.1441 -0.7217
 2274TIP3    H1 6786   2.847   1.166   2.936 -1.3348  1.7439  0.7913
 2274TIP3    H2 6787   2.818   1.033   3.003 -2.1099  0.7973 -1.3476
 2275TIP3   OH2 6788   5.080   1.800   3.992  0.0663 -0.3406  0.1721
 2275TIP3    H1 6789   5.141   1.755   3.933 -0.6888 -0.8445 -0.2463
 2275TIP3    H2 6790   5.108   1.773   4.080  0.0149 -1.1443 -0.0453
 2276TIP3   OH2 6791   5.261   5.003   0.814 -0.0727  0.6043 -0.0457
 2276TIP3    H1 6792   5.340   5.020   0.866 -0.6165 -0.4799  1.2136
 2276TIP3    H2 6793   5.249   5.082   0.762  0.6539  1.6706  1.3236
 2277TIP3   OH2 6794   1.108   2.266   4.860  0.0886 -0.3239 -0.0416
 2277TIP3    H1 6795   1.168   2.292   4.930 -0.6680 -0.2152  0.5863
 2277TIP3    H2 6796   1.052   2.199   4.900  0.4743 -1.2062 -0.9307
 2278TIP3   OH2 6797   0.508   0.654   4.427  0.5221  0.4162  0.6649
 2278TIP3    H1 6798   0.414   0.672   4.419  0.5541  0.4809  0.4121
 2278TIP3    H2 6799   0.544   0.732   4.467  0.4923  0.4581  0.6104
 2279TIP3   OH2 6800   0.210   2.662   0.257  0.2130  0.3123  0.9543
 2279TIP3    H1 6801   0.189   2.570   0.274 -0.9897  0.6420  1.3575
 2279TIP3    H2 6802   0.204   2.704   0.343  1.8329  0.5926  0.9621
 2280TIP3   OH2 6803   3.019   5.840   0.982 -0.0042 -0.3770 -0.1122
 2280TIP3    H1 6804   3.097   5.853   1.035  0.0306 -1.6636  0.1724
 2280TIP3    H2 6805   3.051   5.798   0.902 -0.3184 -0.3333 -0.2609
 2281TIP3   OH2 6806   6.287   1.201   1.527  0.4667 -0.1502  0.1626
 2281TIP3    H1 6807   6.207   1.197   1.475 -1.5486  0.2667  3.0290
 2281TIP3    H2 6808   6.318   1.291   1.515 -0.0953  0.0079 -0.1453
 2282TIP3   OH2 6809   1.904   2.138   3.575 -0.1133  0.4519  0.4256
 2282TIP3    H1 6810   1.979   2.163   3.521  0.1313 -1.0966  0.0122
 2282TIP3    H2 6811   1.943   2.099   3.653 -0.4835  0.4876  0.6296
 2283TIP3   OH2 6812   3.643   5.070   0.940  0.5822 -0.0920 -0.3338
 2283TIP3    H1 6813   3.669   5.156   0.905  0.3592 -0.3695 -1.2133
 2283TIP3    H2 6814   3.726   5.026   0.958  0.7145  0.7311  1.2646
 2284TIP3   OH2 6815   5.690   5.540   3.266  0.1510 -0.1906  0.0924
 2284TIP3    H1 6816   5.689   5.517   3.173 -1.7138 -2.6186  0.5948
 2284TIP3    H2 6817   5.771   5.502   3.300  0.0200 -0.7742 -0.2453
 2285TIP3   OH2 6818   1.627   4.563   4.577  1.1100  0.1274  0.1832
 2285TIP3    H1 6819   1.552   4.504   4.581  2.1636 -1.2265  0.8006
 2285TIP3    H2 6820   1.609   4.620   4.502  0.0039 -0.9097 -0.3682
 2286TIP3   OH2 6821   5.997   1.517   4.035  0.0805 -0.3326 -0.3567
 2286TIP3    H1 6822   6.035   1.605   4.027  1.1302 -0.7568 -0.0978
 2286TIP3    H2 6823   6.005   1.479   3.948  0.0135 -0.3274 -0.3651
 2287TIP3   OH2 6824   4.232   4.551   1.930 -0.0709 -0.4541  0.1993
 2287TIP3    H1 6825   4.216   4.635   1.889 -0.9412 -0.2315  0.9587
 2287TIP3    H2 6826   4.327   4.548   1.943 -0.0017  0.2756 -0.1009
 2288TIP3   OH2 6827   2.442   0.588   3.758 -0.0345 -0.5210  0.0710
 2288TIP3    H1 6828   2.535   0.610   3.751 -0.1505 -0.2995 -0.9628
 2288TIP3    H2 6829   2.398   0.673   3.769 -0.3799 -0.2299 -2.7731
 2289TIP3   OH2 6830   5.565   1.310   4.410 -0.2095  0.5458 -0.0662
 2289TIP3    H1 6831   5.493   1.336   4.353  0.2708  0.0900 -0.9034
 2289TIP3    H2 6832   5.624   1.261   4.353  0.9224  1.1866  0.5214
 2290TIP3   OH2 6833   2.291   6.044   1.808 -0.0536  0.0521  0.1554
 2290TIP3    H1 6834   2.212   5.994   1.824 -0.2705  0.3720  0.1017
 2290TIP3    H2 6835   2.262   6.136   1.808  0.4037  0.2039  0.6716
 2291TIP3   OH2 6836   6.495   0.213   0.107 -0.1003 -0.3677 -0.0379
 2291TIP3    H1 6837   6.579   0.228   0.149 -0.5575 -1.8831  1.5505
 2291TIP3    H2 6838   6.437   0.184   0.178 -1.8729  0.2725 -1.1391
 2292TIP3   OH2 6839   5.486   4.717   2.011  0.2743 -0.1005  0.7461
 2292TIP3    H1 6840   5.573   4.738   1.976  0.9324 -0.1315  2.2609
 2292TIP3    H2 6841   5.503   4.692   2.102 -1.5685  2.2832  1.8383
 2293TIP3   OH2 6842   3.800   2.383   4.079 -0.3800 -0.1442 -0.1653
 2293TIP3    H1 6843   3.792   2.319   4.008 -0.0750  1.3894 -1.6349
 2293TIP3    H2 6844   3.737   2.451   4.058  0.1413  0.6454  0.7272
 2294TIP3   OH2 6845   6.878   0.125   2.051  0.2404  0.4055 -0.4608
 2294TIP3    H1 6846   6.877   0.221   2.056  0.8076  0.3454  2.1956
 2294TIP3    H2 6847   6.894   0.096   2.141  1.0833 -2.1897 -1.3511
 2295TIP3   OH2 6848   6.016   1.636   1.922 -0.5157 -0.7178 -0.2675
 2295TIP3    H1 6849   6.041   1.546   1.903 -0.0144 -0.8511  0.9629
 2295TIP3    H2 6850   5.963   1.631   2.001 -0.0852  0.1094  0.0890
 2296TIP3   OH2 6851   5.845   2.887   1.560  0.2624 -0.1206  0.4853
 2296TIP3    H1 6852   5.788   2.936   1.619 -0.3448  0.4443 -0.5519
 2296TIP3    H2 6853   5.793   2.812   1.532 -0.7669  1.4053 -1.9801
 2297TIP3   OH2 6854   2.433   1.270   4.665  0.2902  0.0384  0.5030
 2297TIP3    H1 6855   2.392   1.207   4.725  1.2154  0.4490  1.6014
 2297TIP3    H2 6856   2.392   1.354   4.688 -0.3564 -0.0145 -0.4079
 2298TIP3   OH2 6857   1.075   4.241   5.028 -0.2819  0.2848  0.3235
 2298TIP3    H1 6858   1.093   4.226   4.935  1.9935 -0.5970  0.8303
 2298TIP3    H2 6859   1.110   4.328   5.046  1.2580 -0.3885  0.7591
 2299TIP3   OH2 6860   6.389   6.761   3.468  0.0186  0.3337 -0.3946
 2299TIP3    H1 6861   6.475   6.802   3.463  0.7028 -1.0641 -0.7713
 2299TIP3    H2 6862   6.401   6.687   3.528 -1.1027  0.5107  0.0749
 2300TIP3   OH2 6863   3.349   6.539   3.886  0.0164 -0.1381 -0.2405
 2300TIP3    H1 6864   3.414   6.586   3.835  1.0601 -1.2758 -0.0194
 2300TIP3    H2 6865   3.343   6.453   3.844  0.0702 -0.7067  0.8849
 2301TIP3   OH2 6866   7.123   1.651   5.830 -0.0038  0.0939 -0.0906
 2301TIP3    H1 6867   7.166   1.565   5.838 -2.1718 -0.9748  0.9991
 2301TIP3    H2 6868   7.099   1.657   5.737 -0.6182 -0.9097 -0.0128
 2302TIP3   OH2 6869   0.089   2.591   2.135 -0.6633 -0.1005  0.3489
 2302TIP3    H1 6870   0.061   2.500   2.123  0.7624 -0.5566  0.2713
 2302TIP3    H2 6871   0.064   2.634   2.054 -1.2000 -0.4578  0.3154
 2303TIP3   OH2 6872   1.091   6.639   1.160  0.2967 -0.4191 -0.1134
 2303TIP3    H1 6873   1.024   6.591   1.208 -1.2701  0.8259 -0.9427
 2303TIP3    H2 6874   1.163   6.649   1.222 -0.8252 -0.6575  1.2773
 2304TIP3   OH2 6875   0.520   0.907   0.796  0.7360  0.0508  0.1573
 2304TIP3    H1 6876   0.549   0.872   0.880  0.9810 -1.0922 -0.3889
 2304TIP3    H2 6877   0.494   0.830   0.745  1.5474  0.6248 -1.1781
 2305TIP3   OH2 6878   7.167   2.863   3.597  0.4224  0.0461 -0.8513
 2305TIP3    H1 6879   7.233   2.907   3.543  0.6189 -0.1998 -0.8145
 2305TIP3    H2 6880   7.096   2.841   3.537  0.3166  0.4281 -0.8672
 2306TIP3   OH2 6881   5.299   4.476   2.274  0.3567 -0.1226 -0.5420
 2306TIP3    H1 6882   5.226   4.508   2.221 -0.2793  0.0090  0.3758
 2306TIP3    H2 6883   5.297   4.381   2.264 -0.5075 -0.1943  0.1536
 2307TIP3   OH2 6884   0.840   0.333   2.469 -0.2820  0.5068  0.0942
 2307TIP3    H1 6885   0.877   0.245   2.461  1.8835  1.1992  1.5517
 2307TIP3    H2 6886   0.781   0.342   2.394 -1.2244 -2.4502  0.3495
 2308TIP3   OH2 6887   1.613   1.751   3.965  0.0030  0.0125  0.4421
 2308TIP3    H1 6888   1.700   1.787   3.985  0.0466  0.7271 -0.9313
 2308TIP3    H2 6889   1.557   1.827   3.954 -0.2071 -0.3488 -1.1938
 2309TIP3   OH2 6890   3.435   6.385   0.202 -0.9070  0.3946  0.0567
 2309TIP3    H1 6891   3.451   6.332   0.124  0.4899  0.6841  0.1105
 2309TIP3    H2 6892   3.357   6.437   0.181 -2.0445 -1.3307 -0.1568
 2310TIP3   OH2 6893   6.722   3.507   0.538 -0.5668 -0.3471 -0.2497
 2310TIP3    H1 6894   6.753   3.576   0.479 -0.0289 -0.6430 -0.3172
 2310TIP3    H2 6895   6.695   3.436   0.480 -1.6259 -0.0007 -0.2034
 2311TIP3   OH2 6896   2.463   2.912   5.659 -0.2016  0.1098  0.1017
 2311TIP3    H1 6897   2.400   2.916   5.587 -0.0378  0.4300 -0.0238
 2311TIP3    H2 6898   2.530   2.976   5.636 -0.9714  1.4146  1.3159
 2312TIP3   OH2 6899   6.641   1.959   0.225 -0.6154  0.5674 -0.6051
 2312TIP3    H1 6900   6.669   1.878   0.268  0.0495  1.4738  0.7191
 2312TIP3    H2 6901   6.687   2.029   0.271 -2.6203  1.8652 -0.4576
 2313TIP3   OH2 6902   1.032   2.020   5.497 -0.7243  0.1115 -0.1782
 2313TIP3    H1 6903   0.973   2.080   5.541 -1.4944  0.7672 -1.9814
 2313TIP3    H2 6904   1.120   2.049   5.523 -1.0581  2.2475 -1.1776
 2314TIP3   OH2 6905   1.870   6.199   2.872  0.1518  0.3471 -0.3461
 2314TIP3    H1 6906   1.931   6.160   2.809  0.4740  0.4323 -0.0908
 2314TIP3    H2 6907   1.911   6.282   2.897  0.5632 -0.1844  0.7900
 2315TIP3   OH2 6908   2.846   3.574   3.089 -0.3161  0.5720 -0.5891
 2315TIP3    H1 6909   2.914   3.627   3.131 -0.9612  0.3794  0.7424
 2315TIP3    H2 6910   2.769   3.584   3.145 -0.8485 -0.6671 -1.0605
 2316TIP3   OH2 6911   3.105   1.494   1.022 -0.1542  0.3405 -0.2709
 2316TIP3    H1 6912   3.120   1.586   1.042  0.2238 -0.0342  1.2737
 2316TIP3    H2 6913   3.061   1.495   0.937 -1.9525  2.0429  0.6204
 2317TIP3   OH2 6914   5.431   1.397   1.487  0.1211  0.3812 -0.0818
 2317TIP3    H1 6915   5.461   1.486   1.508 -1.5889  1.2597 -1.0917
 2317TIP3    H2 6916   5.413   1.400   1.393 -2.3855 -0.2335  0.3197
 2318TIP3   OH2 6917   1.951   2.676   0.590 -0.8787  0.3257 -0.3630
 2318TIP3    H1 6918   1.905   2.759   0.600 -0.2594  0.6200  0.0472
 2318TIP3    H2 6919   2.028   2.697   0.537 -1.8776 -0.4147 -2.2101
 2319TIP3   OH2 6920   2.952   1.988   3.923  0.0277  0.3749 -0.4159
 2319TIP3    H1 6921   2.911   2.023   3.844 -0.6883  0.6910  0.0739
 2319TIP3    H2 6922   2.994   2.064   3.963 -2.1777  0.9293  1.0474
 2320TIP3   OH2 6923   5.191   5.467   4.915  0.0622 -0.0756 -0.5013
 2320TIP3    H1 6924   5.194   5.468   5.010 -0.0578  0.3636 -0.5012
 2320TIP3    H2 6925   5.223   5.380   4.891 -1.7808 -0.9357  0.0077
 2321TIP3   OH2 6926   1.632   3.463   3.701  0.0899  0.0527 -0.5895
 2321TIP3    H1 6927   1.728   3.463   3.697  0.2141 -1.8336  0.9045
 2321TIP3    H2 6928   1.608   3.372   3.684 -1.2494 -0.0497  1.5097
 2322TIP3   OH2 6929   3.195   3.928   3.073  0.0314  0.5030  0.0093
 2322TIP3    H1 6930   3.270   3.952   3.129 -0.1383 -1.0709  0.9624
 2322TIP3    H2 6931   3.118   3.953   3.124 -0.1278 -1.0462  0.5853
 2323TIP3   OH2 6932   3.742   6.016   3.398 -0.1102  0.0818 -0.2510
 2323TIP3    H1 6933   3.682   6.038   3.327  0.3052 -0.9656 -0.9439
 2323TIP3    H2 6934   3.804   6.090   3.400 -2.0117  1.7513  1.2312
 2324TIP3   OH2 6935   3.295   0.360   0.232  0.7091 -0.4136  0.0869
 2324TIP3    H1 6936   3.364   0.322   0.178 -0.8411 -2.7177 -0.4531
 2324TIP3    H2 6937   3.292   0.303   0.309  0.0353  0.1973  0.5238
 2325TIP3   OH2 6938   6.058   3.242   1.165  0.6499 -0.1897 -0.1024
 2325TIP3    H1 6939   6.079   3.289   1.246  1.8476  0.9396 -1.0172
 2325TIP3    H2 6940   5.966   3.220   1.174  0.3711  1.2174  0.9587
 2326TIP3   OH2 6941   6.295   1.201   0.101 -0.1947 -0.3482  0.5014
 2326TIP3    H1 6942   6.250   1.117   0.108 -2.9089  0.9952  0.5996
 2326TIP3    H2 6943   6.267   1.237   0.017  1.6266  0.1191  0.0534
 2327TIP3   OH2 6944   0.135   6.752   2.817  0.2358 -0.1295 -0.2576
 2327TIP3    H1 6945   0.227   6.763   2.838  1.0677 -1.2500 -2.8948
 2327TIP3    H2 6946   0.120   6.658   2.821 -1.2821  0.1387  1.7474
 2328TIP3   OH2 6947   3.301   3.079   2.246 -0.4423  0.2467  0.4373
 2328TIP3    H1 6948   3.393   3.063   2.265 -0.7377 -0.6068  1.2297
 2328TIP3    H2 6949   3.298   3.090   2.151  0.2316 -1.5948  0.1513
 2329TIP3   OH2 6950   3.407   1.829   2.743  0.2227  0.2933 -0.4802
 2329TIP3    H1 6951   3.341   1.776   2.788 -0.0592  0.3488 -0.8240
 2329TIP3    H2 6952   3.442   1.886   2.811 -0.6520  0.8218 -0.4475
 2330TIP3   OH2 6953   4.053   2.988   4.703  0.0078  0.0781  0.0347
 2330TIP3    H1 6954   4.044   2.969   4.610  0.0523  0.8478 -0.1335
 2330TIP3    H2 6955   3.970   2.960   4.742 -0.7060  1.3722 -0.5187
 2331TIP3   OH2 6956   4.755   3.303   0.504  0.0939 -0.7679 -0.1899
 2331TIP3    H1 6957   4.668   3.339   0.519  0.1756 -0.5131 -0.3309
 2331TIP3    H2 6958   4.809   3.378   0.479  0.6110 -0.7560  0.9217
 2332TIP3   OH2 6959   1.979   2.123   4.383  0.4241  0.0480  0.3776
 2332TIP3    H1 6960   2.000   2.086   4.297  0.0348 -0.0810  0.3371
 2332TIP3    H2 6961   1.963   2.216   4.367 -2.5603 -0.4661 -0.2062
 2333TIP3   OH2 6962   3.097   6.550   5.014  0.5471  0.0424  0.0655
 2333TIP3    H1 6963   3.074   6.457   5.015 -1.1990  0.4069 -1.3115
 2333TIP3    H2 6964   3.188   6.552   4.983  0.4546 -1.1852 -0.3359
 2334TIP3   OH2 6965   6.385   2.060   2.318  0.1124  0.4572  0.5798
 2334TIP3    H1 6966   6.385   1.995   2.388 -0.4947  1.0656  1.1710
 2334TIP3    H2 6967   6.469   2.049   2.274 -0.4346 -1.4872 -0.0787
 2335TIP3   OH2 6968   2.248   0.632   5.207  0.4559  0.1600  0.0270
 2335TIP3    H1 6969   2.242   0.572   5.280  1.0471 -0.8758 -0.7472
 2335TIP3    H2 6970   2.160   0.635   5.170  1.0899 -3.3103 -2.2519
 2336TIP3   OH2 6971   3.621   3.638   3.726 -0.1338  0.4746 -0.3413
 2336TIP3    H1 6972   3.567   3.581   3.781 -0.0363  2.3412  1.8293
 2336TIP3    H2 6973   3.632   3.589   3.645 -1.8709 -1.6166  0.5791
 2337TIP3   OH2 6974   2.614   3.783   3.878 -1.0117 -0.4248  0.3044
 2337TIP3    H1 6975   2.694   3.731   3.875 -1.1514 -0.5967 -0.9824
 2337TIP3    H2 6976   2.549   3.731   3.830 -1.3078  0.6498 -0.4988
 2338TIP3   OH2 6977   5.335   6.615   3.744  0.3944 -0.5169 -0.6201
 2338TIP3    H1 6978   5.315   6.529   3.708 -1.3717 -0.2500 -0.3449
 2338TIP3    H2 6979   5.263   6.671   3.715  1.6022  0.9455 -0.9568
 2339TIP3   OH2 6980   6.060   6.259   0.035 -0.1693  0.3877 -0.4038
 2339TIP3    H1 6981   6.078   6.332  -0.025  3.1948 -0.9810 -1.3017
 2339TIP3    H2 6982   6.109   6.280   0.114 -0.7663 -0.0199  0.0833
 2340TIP3   OH2 6983   2.881   0.523   2.729  0.2925 -0.5144  0.1489
 2340TIP3    H1 6984   2.849   0.579   2.658  0.2639  0.3680  0.8363
 2340TIP3    H2 6985   2.854   0.435   2.705  0.5901 -0.2855 -1.1146
 2341TIP3   OH2 6986   3.072   2.506   5.478 -0.5891 -0.0340 -0.1798
 2341TIP3    H1 6987   3.093   2.540   5.566 -0.5071  0.5892 -0.4333
 2341TIP3    H2 6988   3.126   2.558   5.419 -0.7170 -0.3866 -0.6110
 2342TIP3   OH2 6989   2.164   0.404   4.276 -0.0119 -0.3336 -0.2757
 2342TIP3    H1 6990   2.100   0.443   4.217  0.8374  1.1043 -0.2966
 2342TIP3    H2 6991   2.246   0.451   4.257  1.8785 -3.9517 -2.3199
 2343TIP3   OH2 6992   6.070   3.715   4.958 -0.3957  0.4460  0.3046
 2343TIP3    H1 6993   6.075   3.811   4.952 -0.3819  0.6734  2.8064
 2343TIP3    H2 6994   6.134   3.683   4.895  0.4686  2.1153  0.2874
 2344TIP3   OH2 6995   4.709   4.421   4.888  0.1075 -0.4722  0.3438
 2344TIP3    H1 6996   4.752   4.350   4.840 -0.9313 -0.7533 -0.2028
 2344TIP3    H2 6997   4.642   4.378   4.940 -0.6378  0.1162 -0.1064
 2345TIP3   OH2 6998   3.979   3.619   4.855 -0.3705  0.1660  0.5489
 2345TIP3    H1 6999   4.036   3.695   4.847  0.2849 -0.2982  0.7460
 2345TIP3    H2 7000   3.924   3.622   4.777  0.7040 -0.0253 -0.2375
 2346TIP3   OH2 7001   7.079   1.163   2.248 -0.0544 -0.8631  0.5623
 2346TIP3    H1 7002   6.990   1.156   2.215  0.2488  1.1486 -0.8565
 2346TIP3    H2 7003   7.071   1.223   2.323  0.3159  0.8451 -0.7168
 2347TIP3   OH2 7004   3.301   2.552   1.926 -0.0909  0.1229  0.1085
 2347TIP3    H1 7005   3.239   2.625   1.932  0.8126  0.7648  3.1453
 2347TIP3    H2 7006   3.381   2.585   1.966  1.0092 -1.9169 -0.2935
 2348TIP3   OH2 7007   4.537   0.960   3.368  0.4260 -0.0375 -0.3079
 2348TIP3    H1 7008   4.607   1.026   3.369 -0.7750  1.2865  0.1329
 2348TIP3    H2 7009   4.518   0.948   3.275 -1.7083  2.9480 -0.4080
 2349TIP3   OH2 7010   2.728   5.248   3.105  0.2917 -0.2562 -0.0361
 2349TIP3    H1 7011   2.787   5.247   3.180  1.0328 -1.7116 -0.5902
 2349TIP3    H2 7012   2.648   5.206   3.137  0.7639 -1.2818 -0.1361
 2350TIP3   OH2 7013   0.277   5.078   4.978 -0.4406 -0.0676 -0.6239
 2350TIP3    H1 7014   0.370   5.099   4.976 -0.2578 -0.7895 -0.3204
 2350TIP3    H2 7015   0.242   5.129   5.051 -1.1888  3.5224 -3.2143
 2351TIP3   OH2 7016   6.487   0.428   0.382  0.3018 -0.7562 -0.8715
 2351TIP3    H1 7017   6.450   0.339   0.377 -0.6767 -0.3988 -0.2052
 2351TIP3    H2 7018   6.479   0.452   0.474 -1.2132  0.7493 -1.3484
 2352TIP3   OH2 7019   0.386   3.097   0.677  0.0152 -0.1099  0.0544
 2352TIP3    H1 7020   0.348   3.113   0.763 -0.5751  0.6689 -0.3428
 2352TIP3    H2 7021   0.327   3.034   0.636 -0.7622  0.9283 -0.4756
 2353TIP3   OH2 7022   4.486   4.817   4.583  0.2898  0.0515 -0.3382
 2353TIP3    H1 7023   4.546   4.845   4.652  0.8459 -1.9786  0.0886
 2353TIP3    H2 7024   4.427   4.891   4.570  1.4487  1.2308  0.8818
 2354TIP3   OH2 7025   2.390   0.746   2.616  0.3863 -0.2335 -0.1022
 2354TIP3    H1 7026   2.478   0.752   2.653  0.5889  0.0708 -0.6256
 2354TIP3    H2 7027   2.400   0.778   2.526 -0.5172  1.1848  0.2646
 2355TIP3   OH2 7028   0.687   4.507   3.148 -0.3689  0.3721  0.2102
 2355TIP3    H1 7029   0.778   4.537   3.152  0.1035 -0.5838 -1.9506
 2355TIP3    H2 7030   0.638   4.581   3.114 -0.5295  1.0547  1.8378
 2356TIP3   OH2 7031   0.963   6.345   3.484  0.4286 -0.6550 -0.1685
 2356TIP3    H1 7032   0.902   6.387   3.423  0.8399 -0.9475 -0.7836
 2356TIP3    H2 7033   0.954   6.252   3.466  3.2376 -0.6200 -2.4227
 2357TIP3   OH2 7034   4.995   6.626   2.868 -0.1117 -0.0576  0.1686
 2357TIP3    H1 7035   5.011   6.533   2.882  0.4118  0.0685  0.4608
 2357TIP3    H2 7036   4.900   6.633   2.856 -0.1432 -0.6372  0.0502
 2358TIP3   OH2 7037   2.344   4.549   1.953 -0.1109  0.2554 -0.2022
 2358TIP3    H1 7038   2.427   4.558   2.001  0.2674 -1.7214 -0.4239
 2358TIP3    H2 7039   2.313   4.639   1.943  1.1672  0.9160  1.3475
 2359TIP3   OH2 7040   1.551   0.277   1.743 -0.1784  0.0486  0.1640
 2359TIP3    H1 7041   1.512   0.196   1.775 -1.6294  0.1133 -1.3501
 2359TIP3    H2 7042   1.558   0.332   1.821 -0.3337 -1.0557  0.9844
 2360TIP3   OH2 7043   2.488   3.031   1.206 -0.0174 -1.0124 -0.2356
 2360TIP3    H1 7044   2.489   3.051   1.300  0.2392 -1.2584 -0.1832
 2360TIP3    H2 7045   2.395   3.026   1.184 -0.0813 -0.3605 -0.1263
 2361TIP3   OH2 7046   5.338   0.945   2.833 -0.6445 -0.1524  0.2118
 2361TIP3    H1 7047   5.248   0.919   2.814 -0.4173 -0.7155 -0.0950
 2361TIP3    H2 7048   5.384   0.864   2.853 -0.0272  0.0515 -0.3542
 2362TIP3   OH2 7049   6.568   0.173   1.345  0.7158 -0.2213  0.1751
 2362TIP3    H1 7050   6.544   0.124   1.267  0.1559  0.7701 -0.2834
 2362TIP3    H2 7051   6.583   0.263   1.314 -0.6035  0.4513  1.3558
 2363TIP3   OH2 7052   2.591   1.823   5.544 -0.4710  0.1542  0.0899
 2363TIP3    H1 7053   2.651   1.825   5.470  0.7382  0.3193  1.0514
 2363TIP3    H2 7054   2.543   1.906   5.538  1.4688  1.4017  0.9568
 2364TIP3   OH2 7055   1.098   1.038   4.439 -0.3827 -0.4098 -0.1095
 2364TIP3    H1 7056   1.089   1.013   4.347 -2.5212  3.0942 -1.0193
 2364TIP3    H2 7057   1.146   0.965   4.479 -0.5853 -2.7107 -3.6550
 2365TIP3   OH2 7058   4.126   2.466   5.128 -0.3097 -0.3364  0.1335
 2365TIP3    H1 7059   4.150   2.531   5.195 -0.0312  0.0728 -0.3526
 2365TIP3    H2 7060   4.031   2.457   5.136 -0.2812 -0.2869  0.5783
 2366TIP3   OH2 7061   4.138   4.354   4.934  0.4473  0.1013 -0.4178
 2366TIP3    H1 7062   4.208   4.317   4.881  0.5030 -0.7257  0.2103
 2366TIP3    H2 7063   4.161   4.447   4.943  0.4407  0.2570 -1.8082
 2367TIP3   OH2 7064   2.676   4.265   2.233  0.8800 -0.3463 -0.2244
 2367TIP3    H1 7065   2.672   4.170   2.225 -0.8537 -0.2888 -0.4077
 2367TIP3    H2 7066   2.653   4.297   2.146 -2.7963  0.2049  0.7689
 2368TIP3   OH2 7067   4.378   3.601   4.006 -0.2955 -0.5676 -0.5393
 2368TIP3    H1 7068   4.355   3.553   3.927  0.1722  0.0144 -1.0388
 2368TIP3    H2 7069   4.440   3.545   4.052 -0.2904 -0.7439 -0.7618
 2369TIP3   OH2 7070   0.115   5.721   3.702  0.0741  0.0860 -0.1345
 2369TIP3    H1 7071   0.032   5.729   3.749  1.0795 -0.6061  1.8994
 2369TIP3    H2 7072   0.149   5.811   3.698 -0.4779  0.2840 -0.4115
 2370TIP3   OH2 7073   1.561   5.245   2.891 -0.4007  0.1495  0.0248
 2370TIP3    H1 7074   1.498   5.299   2.939 -1.2818 -0.2731 -0.6383
 2370TIP3    H2 7075   1.630   5.227   2.955 -2.5516 -2.1945  1.9285
 2371TIP3   OH2 7076   5.108   5.686   3.004  0.1255 -0.3706 -0.2378
 2371TIP3    H1 7077   5.177   5.703   3.068 -0.0750  0.6653 -0.2653
 2371TIP3    H2 7078   5.042   5.637   3.052 -0.1738  0.6906  0.4689
 2372TIP3   OH2 7079   1.922   0.028   4.069 -0.3621  0.0199  0.1119
 2372TIP3    H1 7080   1.909  -0.064   4.091  0.2611 -0.1724 -0.3083
 2372TIP3    H2 7081   1.971   0.064   4.143 -0.8771  0.0945  0.4219
 2373TIP3   OH2 7082   6.412   2.687   0.831 -0.2619  0.0813 -0.0370
 2373TIP3    H1 7083   6.395   2.744   0.905  0.2432 -1.8338  1.6385
 2373TIP3    H2 7084   6.506   2.668   0.836 -0.1706  0.1084 -1.3123
 2374TIP3   OH2 7085   3.674   0.368   0.420  0.3116 -0.6251 -0.2314
 2374TIP3    H1 7086   3.730   0.360   0.343  0.5846 -0.2614 -0.0790
 2374TIP3    H2 7087   3.689   0.458   0.450  0.2327 -0.7739  0.2591
 2375TIP3   OH2 7088   5.602   1.830   5.129 -0.1897  0.4886 -0.1250
 2375TIP3    H1 7089   5.644   1.866   5.051 -0.9088  0.6734 -0.4325
 2375TIP3    H2 7090   5.641   1.744   5.140  1.1748  1.1376  0.3160
 2376TIP3   OH2 7091   4.445   0.067   4.474 -0.4582 -0.0884 -0.2387
 2376TIP3    H1 7092   4.492   0.075   4.391 -1.6028  2.8646 -0.7392
 2376TIP3    H2 7093   4.484  -0.008   4.517  0.7774 -1.1970 -3.0583
 2377TIP3   OH2 7094   5.473   5.171   5.604  0.2375  0.1720 -0.5822
 2377TIP3    H1 7095   5.462   5.095   5.546  0.9927 -0.4718  0.0857
 2377TIP3    H2 7096   5.529   5.231   5.555  1.0403 -0.4561 -0.4597
 2378TIP3   OH2 7097   3.665   3.614   5.599  0.3773  0.5226 -0.1670
 2378TIP3    H1 7098   3.670   3.661   5.515  0.9631  0.7301 -0.0234
 2378TIP3    H2 7099   3.726   3.541   5.589 -1.0604 -0.6422 -0.6457
 2379TIP3   OH2 7100   0.790   2.483   1.414 -0.5999  0.3841  0.3223
 2379TIP3    H1 7101   0.717   2.495   1.476  0.3861  1.2504  1.3587
 2379TIP3    H2 7102   0.748   2.490   1.328 -1.6613  1.5859  0.8894
 2380TIP3   OH2 7103   2.393   2.642   1.277  0.3062 -0.4615  0.0162
 2380TIP3    H1 7104   2.377   2.688   1.194 -0.4414  1.1463  1.0173
 2380TIP3    H2 7105   2.306   2.630   1.315  0.6736 -0.9142  0.7247
 2381TIP3   OH2 7106   2.869   6.652   4.483  0.2044  0.0408 -0.4147
 2381TIP3    H1 7107   2.939   6.590   4.504 -0.3133  0.0770  1.6184
 2381TIP3    H2 7108   2.807   6.643   4.555 -0.8123  1.5610 -1.0610
 2382TIP3   OH2 7109   0.608   1.274   3.506 -0.1051 -0.2556  0.0514
 2382TIP3    H1 7110   0.597   1.249   3.414 -0.0557  0.4862 -0.1703
 2382TIP3    H2 7111   0.679   1.340   3.504 -0.0880 -0.2522  0.6218
 2383TIP3   OH2 7112   2.490   2.757   1.798 -0.2304  0.0966 -1.1336
 2383TIP3    H1 7113   2.585   2.754   1.791 -0.1932 -0.0874 -0.5871
 2383TIP3    H2 7114   2.462   2.668   1.779 -0.2541  0.0271 -0.7806
 2384TIP3   OH2 7115   6.308   1.387   4.956 -0.2162 -0.3837 -0.0774
 2384TIP3    H1 7116   6.343   1.418   5.039  0.0714 -0.8886 -0.0063
 2384TIP3    H2 7117   6.373   1.415   4.891 -1.4958  1.9785 -0.4564
 2385TIP3   OH2 7118   2.066   2.384   4.766  0.0412 -0.1044 -0.2717
 2385TIP3    H1 7119   2.034   2.398   4.855 -0.3478 -1.5574 -0.1587
 2385TIP3    H2 7120   2.099   2.294   4.766 -0.9926 -0.5312 -1.8824
 2386TIP3   OH2 7121   3.163   2.585   5.739  0.1104  0.4806  0.2292
 2386TIP3    H1 7122   3.234   2.557   5.797  0.5094 -1.4925 -1.0971
 2386TIP3    H2 7123   3.192   2.669   5.704  1.4718  0.0526  0.2621
 2387TIP3   OH2 7124   6.708   5.777   1.990  0.5338  0.0599  0.9128
 2387TIP3    H1 7125   6.793   5.768   1.947  0.8753  2.3957  0.9951
 2387TIP3    H2 7126   6.718   5.728   2.072 -0.0303 -4.2105 -1.2585
 2388TIP3   OH2 7127   0.667   1.992   2.096  0.0600 -0.0330 -0.1229
 2388TIP3    H1 7128   0.650   1.984   2.190  1.2768 -0.0399  0.1122
 2388TIP3    H2 7129   0.721   1.916   2.074  0.9277  0.6823 -0.5339
 2389TIP3   OH2 7130   4.366   5.575   5.675  0.0823  0.4398  0.0109
 2389TIP3    H1 7131   4.323   5.509   5.730  1.1390  0.1090  0.4635
 2389TIP3    H2 7132   4.350   5.544   5.586 -2.1754  1.3108  0.0462
 2390TIP3   OH2 7133   6.987   5.965   5.710 -0.0755 -0.4238 -0.1322
 2390TIP3    H1 7134   6.924   6.018   5.660  1.0199  1.7791  0.6992
 2390TIP3    H2 7135   7.072   5.989   5.675  0.7538  1.2544  2.6872
 2391TIP3   OH2 7136   5.390   6.525   2.473  0.1440  0.0627 -0.3397
 2391TIP3    H1 7137   5.366   6.612   2.505  0.2181  0.2538 -0.7894
 2391TIP3    H2 7138   5.306   6.483   2.453  0.1388  0.5184 -1.3637
 2392TIP3   OH2 7139   2.705   1.826   5.305  0.2852 -0.0167  0.1136
 2392TIP3    H1 7140   2.771   1.793   5.244  0.2307  0.7070 -0.3418
 2392TIP3    H2 7141   2.649   1.882   5.252 -0.5242 -0.3933  0.5624
 2393TIP3   OH2 7142   5.222   5.703   3.767  0.6242 -0.0098 -0.0225
 2393TIP3    H1 7143   5.181   5.753   3.696  2.9131 -0.4266 -1.7559
 2393TIP3    H2 7144   5.169   5.624   3.775 -1.1353  1.1542  0.5340
 2394TIP3   OH2 7145   6.767   0.793   2.534  0.6357  0.3627  0.8028
 2394TIP3    H1 7146   6.791   0.809   2.625 -1.8340  0.1421  1.5784
 2394TIP3    H2 7147   6.726   0.707   2.535  1.4024 -0.0471 -0.7193
 2395TIP3   OH2 7148   2.177   0.301   1.344  0.0728 -0.6093  0.2272
 2395TIP3    H1 7149   2.240   0.306   1.273  0.3552 -0.5173  0.4857
 2395TIP3    H2 7150   2.098   0.265   1.303 -0.3503  1.0780 -0.5319
 2396TIP3   OH2 7151   2.304   0.734   4.139  0.4003 -0.3119 -0.0735
 2396TIP3    H1 7152   2.358   0.694   4.206 -1.0520  0.5466  1.6955
 2396TIP3    H2 7153   2.214   0.724   4.171 -0.3191  0.3691 -1.7622
 2397TIP3   OH2 7154   4.588   0.896   5.176 -0.2535  0.5972  0.6349
 2397TIP3    H1 7155   4.562   0.806   5.198 -0.3409  0.8248  1.5278
 2397TIP3    H2 7156   4.622   0.931   5.258 -1.1201  1.6876  0.5478
 2398TIP3   OH2 7157   3.029   5.292   1.252  0.4051  0.0381 -0.5958
 2398TIP3    H1 7158   3.121   5.278   1.230  0.3866 -1.8262  0.3557
 2398TIP3    H2 7159   2.996   5.347   1.181  1.9847 -0.1501 -1.5264
 2399TIP3   OH2 7160   7.055   6.649   5.022 -0.0628  0.9580  0.5331
 2399TIP3    H1 7161   7.115   6.633   4.949 -0.1448  1.2553  0.4005
 2399TIP3    H2 7162   7.035   6.562   5.056 -0.5803  0.7658 -0.2356
 2400TIP3   OH2 7163   3.915   5.199   4.461  0.1782 -0.0783  0.3920
 2400TIP3    H1 7164   3.985   5.258   4.488 -0.0567  0.3558  0.0577
 2400TIP3    H2 7165   3.957   5.137   4.401 -0.3592  2.2409 -2.5795
 2401TIP3   OH2 7166   6.464   0.700   2.262 -0.4229 -0.6409  0.2101
 2401TIP3    H1 7167   6.393   0.665   2.208 -0.5321 -0.8915  0.5209
 2401TIP3    H2 7168   6.439   0.680   2.352  0.8162 -2.1985  0.2593
 2402TIP3   OH2 7169   0.920   2.355   2.859  0.1467  0.0645  0.5068
 2402TIP3    H1 7170   1.003   2.375   2.817  0.7319 -1.1638  1.0237
 2402TIP3    H2 7171   0.854   2.375   2.793  0.8333  1.1818  0.1416
 2403TIP3   OH2 7172   3.255   0.149   0.425  0.2395 -0.7780 -0.4600
 2403TIP3    H1 7173   3.312   0.175   0.498 -1.6674 -1.5165  1.3767
 2403TIP3    H2 7174   3.311   0.094   0.370  1.7224 -0.2599  0.4665
 2404TIP3   OH2 7175   1.709   5.627   4.875  0.1133  0.4251  0.0511
 2404TIP3    H1 7176   1.777   5.561   4.864  0.3259  0.3727  1.5311
 2404TIP3    H2 7177   1.629   5.585   4.845  0.4869 -0.0061 -0.3521
 2405TIP3   OH2 7178   2.596   1.393   4.885  0.3252  0.3467  0.1193
 2405TIP3    H1 7179   2.608   1.350   4.800 -0.5012 -1.2478  0.7776
 2405TIP3    H2 7180   2.682   1.390   4.926  0.2217 -1.0170  0.2802
 2406TIP3   OH2 7181   0.952   2.776   3.689  0.2025  0.2999  0.5962
 2406TIP3    H1 7182   0.862   2.744   3.693 -0.5176  1.8028 -1.7535
 2406TIP3    H2 7183   0.992   2.747   3.771 -2.4016 -0.4001  1.6949
 2407TIP3   OH2 7184   3.738   6.127   1.055  0.0121 -0.5650  0.2604
 2407TIP3    H1 7185   3.662   6.160   1.007  0.0983  1.0625  1.1609
 2407TIP3    H2 7186   3.734   6.032   1.044 -3.2565 -0.7642  1.8565
 2408TIP3   OH2 7187   6.671   6.451   3.854  0.3420  0.1223 -0.1693
 2408TIP3    H1 7188   6.703   6.512   3.921  1.9393  0.0259 -0.8203
 2408TIP3    H2 7189   6.684   6.364   3.892 -0.7856  0.1194  0.2533
 2409TIP3   OH2 7190   1.859   1.895   0.259  0.0235 -0.2163  0.1010
 2409TIP3    H1 7191   1.924   1.874   0.191 -0.9024 -0.4818 -0.7312
 2409TIP3    H2 7192   1.880   1.836   0.331  1.6860  0.7954  0.4954
 2410TIP3   OH2 7193   0.415   3.472   2.886  0.2950  0.0152 -0.3418
 2410TIP3    H1 7194   0.477   3.497   2.817  1.1749 -0.3500  0.2883
 2410TIP3    H2 7195   0.378   3.554   2.917  0.2472  0.2170 -0.9317
 2411TIP3   OH2 7196   2.589   1.401   2.083 -0.6915  0.7407  0.3242
 2411TIP3    H1 7197   2.517   1.451   2.046 -1.2172 -0.9588 -1.0862
 2411TIP3    H2 7198   2.566   1.390   2.176 -0.4828  3.1315  0.7101
 2412TIP3   OH2 7199   1.358   5.188   0.717 -0.1232 -0.0917  0.0164
 2412TIP3    H1 7200   1.405   5.222   0.792 -2.1091  0.9087  0.8658
 2412TIP3    H2 7201   1.397   5.233   0.642  3.1708 -2.4555  0.0825
 2413TIP3   OH2 7202   2.807   2.468   1.807  0.1445  0.5839  0.3299
 2413TIP3    H1 7203   2.834   2.394   1.752  2.4087  1.0026  0.7690
 2413TIP3    H2 7204   2.769   2.531   1.745  0.3630  0.0173 -0.3950
 2414TIP3   OH2 7205   4.984   3.499   3.193  0.2349  0.0454 -0.5257
 2414TIP3    H1 7206   5.037   3.545   3.129  0.2993  0.7642  0.0260
 2414TIP3    H2 7207   5.003   3.543   3.276 -2.6941  1.6966 -0.5723
 2415TIP3   OH2 7208   0.109   4.484   0.291  0.0851  0.6079  0.4057
 2415TIP3    H1 7209   0.055   4.406   0.281  0.3946  0.3395  0.7854
 2415TIP3    H2 7210   0.197   4.451   0.309  0.8588  1.0062 -2.2764
 2416TIP3   OH2 7211   2.559   6.467   5.245 -0.0657  0.6475 -0.0576
 2416TIP3    H1 7212   2.576   6.561   5.240 -0.7686  0.8020  0.3224
 2416TIP3    H2 7213   2.552   6.448   5.338 -0.6445  0.3570 -0.1528
 2417TIP3   OH2 7214   1.824   5.533   0.865 -0.2094  0.0665  0.3416
 2417TIP3    H1 7215   1.783   5.477   0.799 -0.1896 -0.0673  0.4436
 2417TIP3    H2 7216   1.868   5.473   0.925 -1.1725  0.1072  1.1235
 2418TIP3   OH2 7217   4.169   1.697   1.225  0.1333  0.1611  0.3871
 2418TIP3    H1 7218   4.102   1.751   1.267  0.4417  1.8709 -1.2247
 2418TIP3    H2 7219   4.252   1.733   1.256  0.3863  1.7879 -1.9304
 2419TIP3   OH2 7220   1.596   3.783   2.022 -0.5371 -0.4019  0.0012
 2419TIP3    H1 7221   1.607   3.749   2.111  1.2721  1.2612  0.4837
 2419TIP3    H2 7222   1.684   3.781   1.985 -0.6754  1.9393 -0.5798
 2420TIP3   OH2 7223   0.441   4.352   4.201 -0.2573 -0.1412  0.3810
 2420TIP3    H1 7224   0.421   4.260   4.186 -0.3028 -0.0147 -0.3523
 2420TIP3    H2 7225   0.381   4.400   4.144 -2.1578  0.4732  2.7224
 2421TIP3   OH2 7226   2.830   2.564   0.230  0.1608 -0.2190  0.5637
 2421TIP3    H1 7227   2.922   2.590   0.221  0.0841  1.0809  2.8615
 2421TIP3    H2 7228   2.782   2.623   0.173  0.6600 -0.1846  0.1779
 2422TIP3   OH2 7229   7.000   6.579   3.937  0.6520 -0.3614  0.3035
 2422TIP3    H1 7230   7.081   6.614   3.975  2.1823 -1.0222 -2.0893
 2422TIP3    H2 7231   7.012   6.484   3.939 -0.2388 -0.4776  0.2695
 2423TIP3   OH2 7232   5.733   3.448   0.502 -0.3769  0.1106  0.0082
 2423TIP3    H1 7233   5.660   3.489   0.549 -0.1025  1.4119 -0.6641
 2423TIP3    H2 7234   5.767   3.517   0.445  1.3399 -0.4990  0.2410
 2424TIP3   OH2 7235   0.736   1.187   1.321 -0.6150 -0.2976  0.0665
 2424TIP3    H1 7236   0.801   1.123   1.353 -0.2506  0.5594  1.1027
 2424TIP3    H2 7237   0.686   1.210   1.399 -0.2308  1.2590 -0.1111
 2425TIP3   OH2 7238   1.697   6.697   4.320  0.3433 -0.0432 -0.2944
 2425TIP3    H1 7239   1.790   6.686   4.337  0.4769 -0.3384 -1.1602
 2425TIP3    H2 7240   1.685   6.791   4.309  0.7060 -0.0723 -1.0333
 2426TIP3   OH2 7241   3.717   6.617   2.011  0.1302 -0.7783 -0.3160
 2426TIP3    H1 7242   3.754   6.531   1.990 -2.9795 -1.9202 -1.7001
 2426TIP3    H2 7243   3.659   6.637   1.937 -0.3538  1.8590  0.6677
 2427TIP3   OH2 7244   1.587   3.929   0.162  0.2106 -0.3010 -0.4742
 2427TIP3    H1 7245   1.623   4.011   0.130 -1.1027  0.2956 -0.4979
 2427TIP3    H2 7246   1.603   3.931   0.256  1.7158 -0.8409 -0.6871
 2428TIP3   OH2 7247   0.193   6.197   4.344  0.2045  0.3353  0.2936
 2428TIP3    H1 7248   0.287   6.181   4.343  0.5030  1.9423 -0.2034
 2428TIP3    H2 7249   0.154   6.111   4.358  1.6513 -0.8173 -2.1826
 2429TIP3   OH2 7250   3.256   4.116   0.605 -0.0927  0.5661 -0.4512
 2429TIP3    H1 7251   3.288   4.203   0.580  0.6805  0.0065 -1.5351
 2429TIP3    H2 7252   3.333   4.059   0.599 -0.3326 -0.0059  1.3513
 2430TIP3   OH2 7253   4.990   0.185   2.320 -0.5404  0.2889  0.5048
 2430TIP3    H1 7254   4.984   0.170   2.414 -0.5557 -4.0921 -0.0261
 2430TIP3    H2 7255   4.900   0.185   2.289 -0.4587 -0.2159  0.2608
 2431TIP3   OH2 7256   6.807   2.672   1.691 -0.1699  0.5358 -0.2601
 2431TIP3    H1 7257   6.795   2.667   1.786  0.5761  1.9129 -0.0650
 2431TIP3    H2 7258   6.736   2.619   1.655  1.5270 -2.9618  1.0861
 2432TIP3   OH2 7259   6.033   6.480   1.706 -0.3703  0.0737  0.4760
 2432TIP3    H1 7260   5.993   6.491   1.793  0.3856 -2.5467  1.2643
 2432TIP3    H2 7261   6.088   6.557   1.694  0.8186 -0.2654  3.1179
 2433TIP3   OH2 7262   1.391   2.871   1.534 -0.0446 -0.1406  0.7675
 2433TIP3    H1 7263   1.389   2.953   1.582  0.6572 -0.0044  0.5670
 2433TIP3    H2 7264   1.299   2.852   1.516 -0.2591  0.2087  1.4728
 2434TIP3   OH2 7265   4.709   4.934   2.166 -0.3570 -0.3340 -0.4000
 2434TIP3    H1 7266   4.784   4.887   2.129 -0.0927 -0.5344  0.3772
 2434TIP3    H2 7267   4.697   5.008   2.107  0.6684 -0.1170 -0.3630
 2435TIP3   OH2 7268   2.723   6.459   2.972  0.6798  0.4170  0.2896
 2435TIP3    H1 7269   2.805   6.455   3.021 -0.3280 -1.3185  1.9498
 2435TIP3    H2 7270   2.743   6.413   2.890  0.6084 -3.0213  2.0193
 2436TIP3   OH2 7271   5.492   3.146   3.020 -0.2123  0.1402  0.6343
 2436TIP3    H1 7272   5.547   3.074   2.989  0.4665 -0.3287  2.7638
 2436TIP3    H2 7273   5.419   3.103   3.064  0.6819  0.6798  2.7557
 2437TIP3   OH2 7274   3.169   5.628   5.738  0.0634  0.1315 -0.0825
 2437TIP3    H1 7275   3.108   5.683   5.786  0.4400  0.1657  0.3606
 2437TIP3    H2 7276   3.234   5.601   5.803  0.4396 -0.0203 -0.5147
 2438TIP3   OH2 7277   7.082   0.751   3.122  0.6313  0.0799  0.4937
 2438TIP3    H1 7278   7.121   0.735   3.208 -1.9951 -0.6549  1.6633
 2438TIP3    H2 7279   7.096   0.670   3.074  1.0692  0.0568  0.6564
 2439TIP3   OH2 7280   2.992   6.487   2.071  0.6023 -0.2765 -0.1403
 2439TIP3    H1 7281   3.073   6.527   2.101  1.1538 -0.5159 -1.2587
 2439TIP3    H2 7282   2.965   6.541   1.996 -0.3016 -0.1690  0.2461
 2440TIP3   OH2 7283   3.942   2.579   1.812 -0.0152  0.1703 -0.1833
 2440TIP3    H1 7284   3.930   2.516   1.883 -0.0376 -1.0851 -1.2523
 2440TIP3    H2 7285   4.037   2.581   1.798 -0.0565 -0.0774 -0.5240
 2441TIP3   OH2 7286   4.286   5.493   0.945 -0.1646  0.2160 -0.1321
 2441TIP3    H1 7287   4.357   5.431   0.933 -0.4349 -0.0039 -0.6188
 2441TIP3    H2 7288   4.210   5.452   0.903 -0.5447  0.5105  0.2508
 2442TIP3   OH2 7289   1.226   1.612   4.565 -0.3257  0.0943  0.2713
 2442TIP3    H1 7290   1.291   1.567   4.619  0.8196 -0.7417 -1.6873
 2442TIP3    H2 7291   1.274   1.684   4.524 -1.1492  0.6855  0.3072
 2443TIP3   OH2 7292   0.324   5.547   5.289  0.0410  0.5173 -0.0504
 2443TIP3    H1 7293   0.408   5.593   5.283  0.2830  0.1137  0.2557
 2443TIP3    H2 7294   0.268   5.608   5.337  0.8176 -0.1392  1.7610
 2444TIP3   OH2 7295   4.746   4.507   4.459  0.1807  0.3444  0.4039
 2444TIP3    H1 7296   4.776   4.420   4.484 -0.8082 -0.3326 -0.6719
 2444TIP3    H2 7297   4.794   4.566   4.517  1.0181 -0.8909  1.0205
 2445TIP3   OH2 7298   1.080   4.683   5.427 -0.3543 -0.1882 -0.4536
 2445TIP3    H1 7299   1.036   4.622   5.367 -0.6115 -0.2935 -0.1582
 2445TIP3    H2 7300   1.009   4.723   5.477 -0.1772  0.2717 -0.5683
 2446TIP3   OH2 7301   6.670   3.933   3.163 -0.0744  0.0892 -0.1642
 2446TIP3    H1 7302   6.631   3.984   3.092  1.8310  1.1249 -0.5258
 2446TIP3    H2 7303   6.736   3.991   3.201  1.1784 -1.5879  0.3509
 2447TIP3   OH2 7304   1.666   4.532   4.033 -0.1029  0.5137 -0.4126
 2447TIP3    H1 7305   1.672   4.568   3.944 -1.4129  0.2584 -0.6206
 2447TIP3    H2 7306   1.575   4.543   4.058 -0.5300 -2.3156 -0.3686
 2448TIP3   OH2 7307   4.025   0.843   3.032 -0.6327 -0.8872  0.3032
 2448TIP3    H1 7308   4.030   0.747   3.031  1.0707 -0.8629 -1.9846
 2448TIP3    H2 7309   4.068   0.870   2.951 -3.5141  1.7707 -0.5040
 2449TIP3   OH2 7310   4.214   0.461   4.987  0.0408  0.3558 -0.2477
 2449TIP3    H1 7311   4.276   0.482   4.918 -0.9269  0.0620 -1.2408
 2449TIP3    H2 7312   4.153   0.399   4.946 -0.9582  0.7105  0.6603
 2450TIP3   OH2 7313   1.521   6.571   0.082  0.2093  0.3066 -0.1439
 2450TIP3    H1 7314   1.602   6.587   0.131  0.4423 -2.1484  0.4363
 2450TIP3    H2 7315   1.459   6.542   0.149 -1.0048  1.6131 -0.6716
 2451TIP3   OH2 7316   3.344   2.743   1.665  0.1486  0.5252  0.1106
 2451TIP3    H1 7317   3.382   2.814   1.614  1.1723  0.5424  0.8658
 2451TIP3    H2 7318   3.418   2.705   1.712 -0.4099 -0.9557 -0.1682
 2452TIP3   OH2 7319   4.860   5.817   1.300  0.0741 -0.1739 -0.2985
 2452TIP3    H1 7320   4.833   5.896   1.348  2.7344  1.1074 -0.7447
 2452TIP3    H2 7321   4.838   5.837   1.209  1.1344  0.3029 -0.4726
 2453TIP3   OH2 7322   2.104   1.888   0.093  0.3818 -0.2468 -0.0646
 2453TIP3    H1 7323   2.170   1.925   0.034 -1.3733  0.3122 -1.7505
 2453TIP3    H2 7324   2.114   1.793   0.084  0.1549 -0.1667 -1.2674
 2454TIP3   OH2 7325   6.026   5.488   4.627  0.4027  0.0853 -0.5266
 2454TIP3    H1 7326   6.030   5.393   4.637  2.5169  0.1388 -0.3492
 2454TIP3    H2 7327   5.957   5.516   4.687 -0.9183 -1.4004 -1.2866
 2455TIP3   OH2 7328   6.072   2.229   4.471 -0.2367  0.2147  0.2059
 2455TIP3    H1 7329   6.013   2.237   4.397  0.8416 -0.3577 -0.7531
 2455TIP3    H2 7330   6.125   2.309   4.469 -0.0987  0.1257  0.2607
 2456TIP3   OH2 7331   5.236   3.195   3.731 -0.4528  0.2058 -0.5479
 2456TIP3    H1 7332   5.230   3.101   3.712 -2.0178  0.0961  0.3241
 2456TIP3    H2 7333   5.330   3.212   3.738 -0.1361 -1.2721 -0.8258
 2457TIP3   OH2 7334   0.425   5.627   3.872  0.1443 -0.5308  0.1771
 2457TIP3    H1 7335   0.364   5.580   3.816 -2.2877  1.7118  0.7426
 2457TIP3    H2 7336   0.396   5.608   3.961 -0.4114  1.3043  0.4316
 2458TIP3   OH2 7337   0.365   3.319   4.633  0.0134  0.4011  0.2860
 2458TIP3    H1 7338   0.304   3.386   4.664  0.3086  1.0962 -0.5899
 2458TIP3    H2 7339   0.431   3.312   4.702 -1.0944 -0.4380  1.2949
 2459TIP3   OH2 7340   3.242   6.502   0.623 -0.3028  1.0761  0.2249
 2459TIP3    H1 7341   3.208   6.448   0.694  0.2777 -0.5309 -0.6730
 2459TIP3    H2 7342   3.172   6.503   0.558 -0.0015  0.7168 -0.1090
 2460TIP3   OH2 7343   7.037   2.819   1.134  0.4090  0.6121 -0.9224
 2460TIP3    H1 7344   7.085   2.739   1.114 -1.7348 -1.2130  0.8083
 2460TIP3    H2 7345   7.079   2.853   1.213 -0.5300 -0.4960  0.0784
 2461TIP3   OH2 7346   3.861   5.507   3.816  0.0697  0.5080  0.0006
 2461TIP3    H1 7347   3.775   5.541   3.840  0.8269  1.4548  1.5344
 2461TIP3    H2 7348   3.892   5.462   3.895  0.1789 -1.6283 -1.1601
 2462TIP3   OH2 7349   5.410   2.907   5.168 -0.0539  0.4043  0.1523
 2462TIP3    H1 7350   5.443   2.867   5.249  0.6214 -1.6588 -1.0588
 2462TIP3    H2 7351   5.346   2.971   5.197 -0.2440 -0.6694  2.2996
 2463TIP3   OH2 7352   3.636   2.129   5.223 -0.7892  0.0569  0.2153
 2463TIP3    H1 7353   3.608   2.122   5.314  0.4595  1.9957  0.8065
 2463TIP3    H2 7354   3.685   2.048   5.206 -0.2247  0.1016  1.5707
 2464TIP3   OH2 7355   6.008   4.153   3.257  0.4442 -0.1413 -0.3674
 2464TIP3    H1 7356   6.072   4.086   3.279 -0.1405 -1.0028 -1.2083
 2464TIP3    H2 7357   5.956   4.164   3.337  0.3336 -0.9434 -0.3187
 2465TIP3   OH2 7358   5.677   3.608   2.405  0.6561 -0.7469 -0.2699
 2465TIP3    H1 7359   5.613   3.670   2.370 -0.7331 -0.1486  2.9341
 2465TIP3    H2 7360   5.626   3.550   2.461  2.6812 -1.2882  1.1468
 2466TIP3   OH2 7361   0.586   6.463   0.956 -0.4665 -0.1738  0.3183
 2466TIP3    H1 7362   0.620   6.473   0.866 -0.0230 -1.2161  0.3622
 2466TIP3    H2 7363   0.593   6.551   0.993 -0.1406  0.1569 -0.4916
 2467TIP3   OH2 7364   4.722   1.529   0.769  0.1942 -0.3752 -0.6823
 2467TIP3    H1 7365   4.633   1.502   0.789 -0.0222 -0.0529 -1.1999
 2467TIP3    H2 7366   4.749   1.581   0.844 -0.2361 -0.0462 -0.7553
 2468TIP3   OH2 7367   3.095   3.716   0.260  0.1810  0.7910 -0.2262
 2468TIP3    H1 7368   3.167   3.771   0.288 -1.1347  1.9505  1.0548
 2468TIP3    H2 7369   3.030   3.777   0.226  0.4477 -0.3440 -3.0588
 2469TIP3   OH2 7370   4.515   0.795   2.458 -0.2705  0.1957 -0.0026
 2469TIP3    H1 7371   4.485   0.722   2.512 -0.6469  0.3353 -0.0185
 2469TIP3    H2 7372   4.599   0.766   2.422 -0.3182 -0.1439  0.1589
 2470TIP3   OH2 7373   2.937   6.623   1.839  0.3318  0.2354 -0.1380
 2470TIP3    H1 7374   2.949   6.558   1.770 -1.1599 -0.2789  0.0591
 2470TIP3    H2 7375   2.957   6.706   1.797 -0.0093 -0.1298 -1.0418
 2471TIP3   OH2 7376   5.222   2.391   4.840 -0.1171 -0.1798  0.2741
 2471TIP3    H1 7377   5.246   2.441   4.918 -0.0907  1.4632 -0.7329
 2471TIP3    H2 7378   5.138   2.351   4.861  0.9467 -1.6881  1.9492
 2472TIP3   OH2 7379   3.938   4.053   4.686 -0.6380 -0.7633  0.5766
 2472TIP3    H1 7380   3.877   4.126   4.688 -0.7897 -0.8954  0.7214
 2472TIP3    H2 7381   4.022   4.092   4.710 -0.3887 -0.3192 -0.8762
 2473TIP3   OH2 7382   4.883   3.972   1.030 -0.3779  0.2879 -0.2917
 2473TIP3    H1 7383   4.825   3.930   0.967  0.3111  0.6392 -1.1700
 2473TIP3    H2 7384   4.923   4.044   0.982 -0.8703  1.4279  0.9250
 2474TIP3   OH2 7385   0.370   0.520   4.754  0.0913 -0.1141 -0.2554
 2474TIP3    H1 7386   0.318   0.460   4.808 -0.0567 -0.6910 -1.0202
 2474TIP3    H2 7387   0.460   0.503   4.781 -0.0438  0.3148  0.5074
 2475TIP3   OH2 7388   6.810   1.526   0.632  0.1315 -0.0082  0.1994
 2475TIP3    H1 7389   6.811   1.453   0.570 -0.0359  0.7540 -0.7049
 2475TIP3    H2 7390   6.752   1.496   0.702 -0.1867 -0.6157 -0.3094
 2476TIP3   OH2 7391   2.733   0.922   0.915 -0.2184  0.6590 -0.0816
 2476TIP3    H1 7392   2.772   0.896   0.998 -0.0235 -1.0487 -0.6716
 2476TIP3    H2 7393   2.644   0.949   0.937  0.1949  1.3678  0.8154
 2477TIP3   OH2 7394   1.453   3.050   3.933 -0.4879 -0.7387  0.5201
 2477TIP3    H1 7395   1.392   3.049   4.007 -1.0897  1.8787  0.1384
 2477TIP3    H2 7396   1.409   3.101   3.866  1.1251 -0.8985 -0.7095
 2478TIP3   OH2 7397   4.644   2.306   5.077 -0.5593 -0.0942  0.3012
 2478TIP3    H1 7398   4.660   2.335   4.987 -1.2698  0.7859  0.4470
 2478TIP3    H2 7399   4.550   2.321   5.090 -0.9251 -2.1730  0.5024
 2479TIP3   OH2 7400   6.748   2.792   4.065  0.1744  0.4254  0.0995
 2479TIP3    H1 7401   6.697   2.713   4.048 -0.4226  0.8636 -0.1599
 2479TIP3    H2 7402   6.720   2.821   4.152  0.8059  0.0465  0.4397
 2480TIP3   OH2 7403   0.090   2.136   2.586  0.7628  0.3496 -0.6124
 2480TIP3    H1 7404   0.035   2.085   2.527 -1.1680  1.0123  0.4970
 2480TIP3    H2 7405   0.110   2.076   2.658 -0.6824  0.7828  0.2060
 2481TIP3   OH2 7406   5.053   0.651   5.204  0.3999 -0.5190 -0.3597
 2481TIP3    H1 7407   4.987   0.600   5.249  0.2887  1.0430  1.3785
 2481TIP3    H2 7408   5.006   0.727   5.169  1.1674  0.5098  0.7329
 2482TIP3   OH2 7409  -0.002   1.839   3.964 -0.0063 -0.2990  0.0499
 2482TIP3    H1 7410   0.058   1.849   3.890  1.8104 -0.8873  1.3453
 2482TIP3    H2 7411  -0.006   1.927   4.003  0.3322 -0.3406  0.1811
 2483TIP3   OH2 7412   4.016   4.025   3.147  0.4165 -0.8912  0.3870
 2483TIP3    H1 7413   4.078   3.980   3.089 -0.6302 -0.1693 -1.3675
 2483TIP3    H2 7414   4.072   4.066   3.213  1.9763  0.6171 -1.7333
 2484TIP3   OH2 7415   0.692   6.645   3.691  0.3945 -0.0776 -0.0818
 2484TIP3    H1 7416   0.721   6.736   3.684  0.4179 -0.0529  0.3393
 2484TIP3    H2 7417   0.762   6.600   3.739 -1.5940  0.6733  3.9786
 2485TIP3   OH2 7418   6.688   5.721   3.878 -0.2635 -0.0457 -0.1346
 2485TIP3    H1 7419   6.655   5.695   3.964 -1.3198 -0.7618 -0.7448
 2485TIP3    H2 7420   6.708   5.639   3.834  1.0339  0.3405 -0.3058
 2486TIP3   OH2 7421   7.085   3.909   0.972  0.5598  0.0025  0.5748
 2486TIP3    H1 7422   7.013   3.972   0.981 -0.2984 -0.9958  0.8505
 2486TIP3    H2 7423   7.120   3.899   1.060  0.5861 -0.0453  0.5590
 2487TIP3   OH2 7424   5.597   1.630   1.215  0.5520  0.5873 -0.2458
 2487TIP3    H1 7425   5.685   1.666   1.222  0.0203  1.6239  2.3906
 2487TIP3    H2 7426   5.541   1.707   1.201  0.0241 -0.0593 -1.9164
 2488TIP3   OH2 7427   6.820   5.266   5.476 -0.4343 -0.1207  0.1868
 2488TIP3    H1 7428   6.778   5.194   5.523  0.4405 -0.1050  1.0185
 2488TIP3    H2 7429   6.774   5.270   5.393 -1.0935 -1.0572  0.4902
 2489TIP3   OH2 7430   1.732   2.924   1.606  0.3371  0.2489 -0.1607
 2489TIP3    H1 7431   1.669   2.948   1.674  0.3786  0.3078 -0.1430
 2489TIP3    H2 7432   1.729   2.998   1.545 -0.6254 -0.3563 -0.8839
 2490TIP3   OH2 7433   6.537   2.125   5.534  0.2815  0.4347 -0.0992
 2490TIP3    H1 7434   6.572   2.092   5.451 -1.1088 -1.4065 -0.0335
 2490TIP3    H2 7435   6.442   2.123   5.522 -0.0651 -1.8183  2.1377
 2491TIP3   OH2 7436   0.095   4.687   5.595 -0.1210 -0.2217  0.1347
 2491TIP3    H1 7437   0.165   4.660   5.655 -0.7926  2.6605  2.4682
 2491TIP3    H2 7438   0.018   4.638   5.624 -0.0326 -0.1675  0.4675
 2492TIP3   OH2 7439   0.374   3.052   2.745  0.1301 -0.5078  0.8553
 2492TIP3    H1 7440   0.378   2.957   2.743 -2.3589 -0.6809 -1.5004
 2492TIP3    H2 7441   0.432   3.081   2.675  0.9349 -0.2425  1.6100
 2493TIP3   OH2 7442   0.851   6.036   0.943  0.0081  0.2319 -0.5112
 2493TIP3    H1 7443   0.846   5.969   1.011  1.1864  0.3853 -0.2433
 2493TIP3    H2 7444   0.896   6.109   0.985 -0.5341  0.8744 -1.0403
 2494TIP3   OH2 7445   4.010   2.551   4.034  0.3145  0.1848 -0.3764
 2494TIP3    H1 7446   3.940   2.495   4.067  1.0567 -1.1267 -0.9263
 2494TIP3    H2 7447   4.009   2.537   3.939  1.3818  0.0337 -0.3794
 2495TIP3   OH2 7448   5.812   2.700   3.680 -0.2009  0.5286  0.2723
 2495TIP3    H1 7449   5.791   2.609   3.700 -2.8037  0.3503 -2.5054
 2495TIP3    H2 7450   5.827   2.741   3.765 -1.7732 -1.8748  1.8214
 2496TIP3   OH2 7451   0.751   3.977   0.050 -0.2285 -0.0954 -0.0791
 2496TIP3    H1 7452   0.747   3.884   0.029 -0.5806 -0.4334  1.4067
 2496TIP3    H2 7453   0.781   3.981   0.141  0.0209  1.2604 -0.1851
 2497TIP3   OH2 7454   6.801   5.628   2.580  0.0646  0.4120 -0.7720
 2497TIP3    H1 7455   6.886   5.672   2.574 -0.2610  1.2379  0.2681
 2497TIP3    H2 7456   6.737   5.699   2.580 -0.5191 -0.0797  0.3068
 2498TIP3   OH2 7457   4.344   5.822   2.109  0.6506  0.4508 -0.1472
 2498TIP3    H1 7458   4.319   5.899   2.161  0.7004  0.4292 -0.0911
 2498TIP3    H2 7459   4.341   5.852   2.018 -0.4267  0.2236 -0.2022
 2499TIP3   OH2 7460   6.478   1.727   5.281 -0.3882  0.1854 -0.1690
 2499TIP3    H1 7461   6.538   1.791   5.320 -0.2101 -0.4768  0.6683
 2499TIP3    H2 7462   6.391   1.753   5.313 -0.2949 -0.0824  0.3210
 2500TIP3   OH2 7463   6.282   0.117   1.750  0.1516 -0.5758 -0.0589
 2500TIP3    H1 7464   6.318   0.040   1.794  2.3647  0.8747  0.8262
 2500TIP3    H2 7465   6.358   0.168   1.723 -1.1946  1.8446  0.3678
 2501TIP3   OH2 7466   2.778   3.945   4.260  0.6029 -0.3786 -0.5994
 2501TIP3    H1 7467   2.850   3.955   4.322 -0.1294  0.1449  0.2026
 2501TIP3    H2 7468   2.725   4.024   4.273  0.5299 -0.1654 -2.0374
 2502TIP3   OH2 7469   7.164   5.094   4.886  0.0870 -0.2319 -0.1010
 2502TIP3    H1 7470   7.258   5.083   4.896 -0.0175 -0.8156  0.2554
 2502TIP3    H2 7471   7.146   5.067   4.796  0.6582  2.6340 -1.1937
 2503TIP3   OH2 7472   2.852   5.928   4.020  0.2002 -0.1914  0.7361
 2503TIP3    H1 7473   2.811   5.864   4.079 -1.0415  0.5012  0.6639
 2503TIP3    H2 7474   2.801   5.921   3.939 -0.6511  1.5875  1.0673
 2504TIP3   OH2 7475   3.734   1.119   0.503  0.1510 -0.1538 -0.3536
 2504TIP3    H1 7476   3.653   1.119   0.555  0.3979  0.7081  0.0458
 2504TIP3    H2 7477   3.750   1.211   0.484  2.0435 -0.1044  1.1804
 2505TIP3   OH2 7478   3.800   1.005   2.458  0.2526  0.1176  0.6298
 2505TIP3    H1 7479   3.775   0.991   2.549 -0.8773  0.2158  0.3453
 2505TIP3    H2 7480   3.717   1.020   2.412  0.8517  0.5806 -0.3264
 2506TIP3   OH2 7481   2.098   6.650   1.862 -0.3592 -0.1207 -0.1262
 2506TIP3    H1 7482   2.013   6.653   1.817 -0.2966 -0.7393 -0.2898
 2506TIP3    H2 7483   2.161   6.677   1.795 -0.1849 -1.6970 -0.6290
 2507TIP3   OH2 7484   6.242   2.339   1.577 -0.1156 -0.7320  0.4819
 2507TIP3    H1 7485   6.233   2.414   1.518  0.5385 -0.7723  0.3205
 2507TIP3    H2 7486   6.297   2.372   1.649 -0.4366 -0.8467  0.7835
 2508TIP3   OH2 7487   6.807   0.001   3.280 -0.4570 -0.3701  0.6068
 2508TIP3    H1 7488   6.813   0.090   3.315  1.7858  0.2653 -1.1237
 2508TIP3    H2 7489   6.725  -0.001   3.232  0.4645  1.5565 -1.1713
 2509TIP3   OH2 7490   0.018   3.904   2.957  0.2812  0.1865 -0.1821
 2509TIP3    H1 7491  -0.060   3.850   2.949  0.3768  0.1950 -1.3210
 2509TIP3    H2 7492   0.078   3.872   2.889  0.1199  2.0379 -1.2934
 2510TIP3   OH2 7493   3.210   4.983   2.403 -0.4764  0.0198 -0.2321
 2510TIP3    H1 7494   3.293   4.943   2.375 -0.4579 -0.2895  0.2472
 2510TIP3    H2 7495   3.178   4.926   2.473 -1.3186 -0.1054 -0.7105
 2511TIP3   OH2 7496   1.513   6.455   5.503  0.4619 -0.0386  0.1336
 2511TIP3    H1 7497   1.449   6.526   5.496 -0.1299 -0.2648  2.4074
 2511TIP3    H2 7498   1.596   6.500   5.520  0.2469  0.1712  0.6808
 2512TIP3   OH2 7499   6.253   4.769   3.481 -0.6757  0.1716 -0.4625
 2512TIP3    H1 7500   6.297   4.690   3.513 -1.9347 -0.5690 -0.4970
 2512TIP3    H2 7501   6.239   4.753   3.388 -1.1333  0.3447 -0.4265
 2513TIP3   OH2 7502   3.979   3.849   4.371  0.2799 -0.1855 -0.0727
 2513TIP3    H1 7503   3.923   3.884   4.441 -2.0057 -2.3035 -0.6941
 2513TIP3    H2 7504   3.927   3.861   4.291  1.0016 -1.6393 -0.7880
 2514TIP3   OH2 7505   4.977   1.482   1.222  0.1595 -0.3212 -0.9922
 2514TIP3    H1 7506   4.973   1.397   1.178 -1.8247 -0.4505 -0.6634
 2514TIP3    H2 7507   4.886   1.512   1.225  0.7003  1.4164 -0.3031
 2515TIP3   OH2 7508   0.509   2.838   4.199  0.1858 -1.2027  0.3815
 2515TIP3    H1 7509   0.483   2.754   4.238 -3.8429 -0.2924  0.1257
 2515TIP3    H2 7510   0.472   2.904   4.259 -2.3267  0.2581 -2.5001
 2516TIP3   OH2 7511   4.056   6.619   2.039  0.0894  0.3891  0.1787
 2516TIP3    H1 7512   4.014   6.656   1.961  2.9536 -1.6179 -2.5984
 2516TIP3    H2 7513   3.988   6.567   2.081 -1.0213 -0.4972 -2.5083
 2517TIP3   OH2 7514   0.013   5.530   5.108 -0.6399  0.6335  0.2794
 2517TIP3    H1 7515   0.078   5.460   5.104 -2.3450 -0.9667 -2.3940
 2517TIP3    H2 7516  -0.053   5.497   5.169 -0.2754  1.0365  0.8990
 2518TIP3   OH2 7517   4.792   6.462   4.671  0.7620  0.4170  0.3519
 2518TIP3    H1 7518   4.809   6.470   4.577  3.0226 -2.9186  0.3056
 2518TIP3    H2 7519   4.710   6.510   4.684  0.4529  1.2057 -3.2575
 2519TIP3   OH2 7520   1.440   0.401   5.248  0.2385  0.1112  0.2853
 2519TIP3    H1 7521   1.453   0.486   5.207 -1.7128  0.7568  0.9082
 2519TIP3    H2 7522   1.363   0.365   5.204  0.3162 -0.7876  0.8638
 2520TIP3   OH2 7523   1.968   2.931   4.250  0.2570 -0.1938 -0.5821
 2520TIP3    H1 7524   1.875   2.909   4.246  0.2387 -0.1643 -0.3266
 2520TIP3    H2 7525   1.971   3.022   4.278  0.3926 -0.7117  1.2318
 2521TIP3   OH2 7526   5.225   5.246   4.759 -0.6535 -0.0845  0.1825
 2521TIP3    H1 7527   5.237   5.272   4.668 -1.7174 -0.9656 -0.2264
 2521TIP3    H2 7528   5.139   5.205   4.762 -0.5500 -0.2705  1.5457
 2522TIP3   OH2 7529   2.126   4.140   4.802  0.7547  0.4978  0.0986
 2522TIP3    H1 7530   2.120   4.235   4.813 -0.5692  0.3472  0.9117
 2522TIP3    H2 7531   2.186   4.128   4.728  0.6525  1.9660 -0.2551
 2523TIP3   OH2 7532   4.180   1.851   4.464 -0.1654 -0.1637  0.1437
 2523TIP3    H1 7533   4.219   1.769   4.495  0.2059 -0.1150 -0.1878
 2523TIP3    H2 7534   4.249   1.893   4.412 -0.0285  0.8130  1.0823
 2524TIP3   OH2 7535   4.189   0.818   3.971  0.0183 -0.4127  0.3924
 2524TIP3    H1 7536   4.244   0.885   3.930  0.2511 -0.3205  0.8536
 2524TIP3    H2 7537   4.099   0.849   3.957  0.0247 -0.9500 -1.0511
 2525TIP3   OH2 7538   6.666   0.180   5.132  0.7376 -0.1099 -0.1179
 2525TIP3    H1 7539   6.599   0.146   5.192 -0.6823  0.2846 -1.4103
 2525TIP3    H2 7540   6.712   0.102   5.101  0.8924 -0.3874  0.7785
 2526TIP3   OH2 7541   6.536   1.833   1.960 -0.3435  0.2830  0.3646
 2526TIP3    H1 7542   6.577   1.781   1.891 -0.9678  0.4014 -0.0997
 2526TIP3    H2 7543   6.442   1.820   1.949 -0.4255 -0.7724  2.0534
 2527TIP3   OH2 7544   3.399   4.022   5.734 -0.2583 -0.2936 -0.0392
 2527TIP3    H1 7545   3.482   4.036   5.779  0.4327  0.3395 -1.4282
 2527TIP3    H2 7546   3.422   3.973   5.655 -1.3028 -0.6428 -0.1548
 2528TIP3   OH2 7547   1.829   0.283   5.078 -0.1631 -0.2300 -0.2103
 2528TIP3    H1 7548   1.842   0.300   4.985 -0.9585  2.0297  0.0163
 2528TIP3    H2 7549   1.734   0.273   5.087 -0.1715  0.3363  0.4371
 2529TIP3   OH2 7550   1.898   3.908   2.332 -0.2674 -0.1104  0.0726
 2529TIP3    H1 7551   1.875   3.954   2.412 -1.3196  4.0428 -2.3569
 2529TIP3    H2 7552   1.826   3.845   2.320 -1.9809  1.6032  0.7127
 2530TIP3   OH2 7553   2.618   2.336   2.801 -0.0181 -0.3750  0.1961
 2530TIP3    H1 7554   2.695   2.391   2.789  0.1126 -0.4313  0.7257
 2530TIP3    H2 7555   2.544   2.392   2.774 -0.2605  1.3619  3.8231
 2531TIP3   OH2 7556   2.873   5.442   0.054 -0.3807 -0.0365  0.0966
 2531TIP3    H1 7557   2.935   5.370   0.065 -0.1450  0.2379  0.5882
 2531TIP3    H2 7558   2.927   5.519   0.039 -0.6008  0.2002  0.4959
 2532TIP3   OH2 7559   4.088   5.889   3.309 -0.5141 -0.3940  0.0669
 2532TIP3    H1 7560   4.062   5.797   3.315 -0.1833 -0.4032  1.8234
 2532TIP3    H2 7561   4.037   5.923   3.235  0.3857 -2.2945 -1.5407
 2533TIP3   OH2 7562   3.369   5.353   1.889 -0.2162  0.4224 -0.0573
 2533TIP3    H1 7563   3.319   5.434   1.886 -2.1939 -0.7165  0.5906
 2533TIP3    H2 7564   3.311   5.287   1.852  1.4337 -0.6878 -0.7944
 2534TIP3   OH2 7565   2.550   0.243   2.034  0.6802 -0.0296 -0.0265
 2534TIP3    H1 7566   2.514   0.252   1.946  0.6639  1.2854  0.0960
 2534TIP3    H2 7567   2.610   0.317   2.044  3.2483 -1.9693 -0.1121
 2535TIP3   OH2 7568   4.502   3.809   4.549 -0.0305  0.1578  0.0411
 2535TIP3    H1 7569   4.427   3.806   4.608 -0.6229 -0.6327 -0.7381
 2535TIP3    H2 7570   4.539   3.896   4.563 -0.8002  0.3823  0.7848
 2536TIP3   OH2 7571   5.785   6.338   0.165  0.1069  0.2997  0.5776
 2536TIP3    H1 7572   5.803   6.432   0.172  2.1051 -0.0254  0.6197
 2536TIP3    H2 7573   5.866   6.301   0.129 -0.3659 -1.4827  1.2221
 2537TIP3   OH2 7574   4.204   3.872   3.507  0.8834 -0.3655  0.3347
 2537TIP3    H1 7575   4.140   3.932   3.546 -0.6703 -1.1979 -0.7873
 2537TIP3    H2 7576   4.206   3.898   3.414  0.7899 -1.4959  0.0015
 2538TIP3   OH2 7577   5.214   6.451   2.793  0.2406  0.4875 -0.3092
 2538TIP3    H1 7578   5.252   6.533   2.824 -0.0036  0.2757  0.5695
 2538TIP3    H2 7579   5.255   6.384   2.847 -0.4288  0.1422 -0.2240
 2539TIP3   OH2 7580   2.791   6.624   4.769  0.5564  0.3283  0.4461
 2539TIP3    H1 7581   2.845   6.685   4.819  0.8846  0.3305  0.0949
 2539TIP3    H2 7582   2.845   6.545   4.761 -0.1852 -0.3314  1.6142
 2540TIP3   OH2 7583   4.879   1.814   4.660  0.0961 -0.1302 -0.2391
 2540TIP3    H1 7584   4.809   1.855   4.711  0.9445  1.9749 -0.6827
 2540TIP3    H2 7585   4.945   1.790   4.725 -0.8574 -1.9116  0.1525
 2541TIP3   OH2 7586   0.518   6.329   5.318 -0.0844  0.0100  0.1991
 2541TIP3    H1 7587   0.432   6.289   5.328  0.0960 -0.1923  1.0337
 2541TIP3    H2 7588   0.500   6.423   5.313 -0.3190  0.0248  1.0672
 2542TIP3   OH2 7589   0.306   1.871   5.761 -0.1435  0.4253 -0.5650
 2542TIP3    H1 7590   0.321   1.777   5.767 -1.1690  0.3271  0.7338
 2542TIP3    H2 7591   0.375   1.910   5.816 -1.6580  0.2243  1.5692
 2543TIP3   OH2 7592   1.286   4.481   0.431 -0.2982 -0.8238  0.2780
 2543TIP3    H1 7593   1.305   4.480   0.524 -0.3999  0.2222  0.3275
 2543TIP3    H2 7594   1.196   4.448   0.424 -0.3497 -0.7466  0.5728
 2544TIP3   OH2 7595   1.560   4.547   3.059  0.1007  0.5813 -0.2656
 2544TIP3    H1 7596   1.591   4.524   3.147 -0.0863  1.5819  0.0784
 2544TIP3    H2 7597   1.547   4.642   3.063 -1.4966  0.4068 -0.8817
 2545TIP3   OH2 7598   1.836   1.126   2.931  0.3578  0.5261  0.0579
 2545TIP3    H1 7599   1.912   1.123   2.989  0.8723  1.2909 -0.5466
 2545TIP3    H2 7600   1.867   1.174   2.854 -0.7289  0.8098 -0.2228
 2546TIP3   OH2 7601   1.747   4.144   0.085 -0.1636 -0.0425 -0.2774
 2546TIP3    H1 7602   1.711   4.217   0.135  0.9410  0.2059  0.1971
 2546TIP3    H2 7603   1.777   4.182   0.003 -1.8621 -0.4297 -1.1332
 2547TIP3   OH2 7604   2.436   0.185   3.062 -0.1758 -0.3264  0.3530
 2547TIP3    H1 7605   2.373   0.203   3.133 -1.3424 -1.3051 -0.3903
 2547TIP3    H2 7606   2.448   0.090   3.065  1.1880 -0.1731  0.3817
 2548TIP3   OH2 7607   6.948   6.159   1.385  0.3898  0.2189 -0.1580
 2548TIP3    H1 7608   6.912   6.239   1.422 -0.1868  0.8914 -2.0654
 2548TIP3    H2 7609   6.871   6.104   1.369  0.6765 -0.2601  0.0963
 2549TIP3   OH2 7610   3.426   4.860   5.648  0.1271 -0.1648  0.8238
 2549TIP3    H1 7611   3.413   4.907   5.730  0.4339  0.0029  0.7763
 2549TIP3    H2 7612   3.500   4.903   5.606  1.3128 -1.5383  1.4148
 2550TIP3   OH2 7613   2.281   0.329   0.502  0.3176 -0.7513  0.5205
 2550TIP3    H1 7614   2.367   0.291   0.520  1.4295  1.3232 -0.1692
 2550TIP3    H2 7615   2.266   0.390   0.574 -1.2766 -2.0847  1.4066
 2551TIP3   OH2 7616   2.903   4.478   5.274 -0.4834  0.0066 -0.2003
 2551TIP3    H1 7617   2.889   4.528   5.194 -1.9766  0.0328  0.0432
 2551TIP3    H2 7618   2.910   4.387   5.246 -0.3876  0.0758 -0.4040
 2552TIP3   OH2 7619   1.343   6.461   2.636  0.7120 -0.4390  0.4281
 2552TIP3    H1 7620   1.434   6.434   2.633  0.2150 -2.2521 -1.6917
 2552TIP3    H2 7621   1.342   6.550   2.600  1.6235 -0.5730  0.0568
 2553TIP3   OH2 7622   3.509   0.369   4.502  0.1017 -0.2791  0.1782
 2553TIP3    H1 7623   3.564   0.291   4.497  0.2604 -0.2378  1.0476
 2553TIP3    H2 7624   3.447   0.349   4.572  0.1026  0.3404  0.3621
 2554TIP3   OH2 7625   1.430   5.530   4.821 -0.7427  0.2708 -0.1977
 2554TIP3    H1 7626   1.379   5.610   4.833 -1.1381  0.2334 -1.4878
 2554TIP3    H2 7627   1.364   5.462   4.804 -0.3570 -0.1654  0.0054
 2555TIP3   OH2 7628   0.025   2.152   2.058  0.4594 -0.2903  0.5542
 2555TIP3    H1 7629   0.069   2.143   1.974 -0.2393  1.6224 -0.0599
 2555TIP3    H2 7630  -0.047   2.088   2.055  0.1257  0.1226 -0.5191
 2556TIP3   OH2 7631   4.581   4.179   0.951  0.5753  0.2836 -0.6294
 2556TIP3    H1 7632   4.625   4.213   1.029 -1.3276  1.6782 -0.0894
 2556TIP3    H2 7633   4.640   4.200   0.879  2.0028 -0.3199  0.3125
 2557TIP3   OH2 7634   0.600   0.862   1.953  0.2874 -0.2915  0.7027
 2557TIP3    H1 7635   0.579   0.825   2.039 -0.7539  0.0459  0.5983
 2557TIP3    H2 7636   0.694   0.882   1.959 -0.0709  1.1906  2.3256
 2558TIP3   OH2 7637   5.410   3.187   1.031 -0.5189 -0.7573  0.1675
 2558TIP3    H1 7638   5.411   3.096   1.059  3.3646 -1.1171 -0.6035
 2558TIP3    H2 7639   5.445   3.186   0.942  0.3243  1.5286  0.4025
 2559TIP3   OH2 7640   5.348   3.493   4.697  0.2716  1.1555  0.1648
 2559TIP3    H1 7641   5.433   3.492   4.652 -0.0433 -0.4330 -0.4310
 2559TIP3    H2 7642   5.332   3.402   4.720 -0.7948  1.5917  1.2156
 2560TIP3   OH2 7643   1.379   1.488   2.377  0.3590  0.4708  0.0369
 2560TIP3    H1 7644   1.311   1.513   2.315  1.0807  0.1548 -0.9170
 2560TIP3    H2 7645   1.430   1.421   2.331  0.9580  0.2778  0.9516
 2561TIP3   OH2 7646   3.482   6.528   2.263 -0.8899  0.2244  0.7188
 2561TIP3    H1 7647   3.551   6.515   2.328 -1.7552 -0.3593  1.5385
 2561TIP3    H2 7648   3.528   6.530   2.179  0.1754  0.3877  1.2931
 2562TIP3   OH2 7649   4.120   3.620   4.139 -0.1730  0.2542 -0.0737
 2562TIP3    H1 7650   4.070   3.681   4.085 -0.4610 -1.7251 -2.1996
 2562TIP3    H2 7651   4.207   3.617   4.098  0.5443  0.8362  1.3263
 2563TIP3   OH2 7652   5.383   4.917   1.571  0.1324  0.7563 -0.3784
 2563TIP3    H1 7653   5.311   4.891   1.629  0.3569 -0.5648 -0.6574
 2563TIP3    H2 7654   5.458   4.926   1.628  0.0837  0.6369 -0.2949
 2564TIP3   OH2 7655   5.321   1.740   5.057  0.0252 -0.3075  0.0555
 2564TIP3    H1 7656   5.284   1.653   5.038 -1.5693  0.5789 -1.1478
 2564TIP3    H2 7657   5.412   1.722   5.080 -0.1436 -2.2747 -0.5698
 2565TIP3   OH2 7658   5.142   3.498   1.919 -0.1212  0.3096  0.2064
 2565TIP3    H1 7659   5.144   3.569   1.983 -2.8512  0.1420  0.6116
 2565TIP3    H2 7660   5.065   3.446   1.943 -0.5052 -0.5105 -2.4226
 2566TIP3   OH2 7661   3.528   5.143   4.832  0.2625 -0.5342  0.3291
 2566TIP3    H1 7662   3.438   5.111   4.840  0.2452 -0.5378  0.1100
 2566TIP3    H2 7663   3.537   5.206   4.904  0.1022 -0.5748  0.3853
 2567TIP3   OH2 7664   7.011   2.517   3.276 -0.2904  0.6735  0.1754
 2567TIP3    H1 7665   6.971   2.571   3.208 -3.1866  1.4553  2.3282
 2567TIP3    H2 7666   6.944   2.451   3.296  2.2242 -2.4125 -0.7243
 2568TIP3   OH2 7667   4.786   3.155   3.934  0.0944  0.0164 -0.0561
 2568TIP3    H1 7668   4.718   3.221   3.947  1.3935  1.4400 -0.2065
 2568TIP3    H2 7669   4.834   3.185   3.857  0.8080 -1.0474 -0.0505
 2569TIP3   OH2 7670   0.961   2.371   1.916  0.0702  0.4949  0.0542
 2569TIP3    H1 7671   1.054   2.374   1.892  0.6863  1.4949  2.2637
 2569TIP3    H2 7672   0.926   2.455   1.886 -0.1969  0.0284 -0.9726
 2570TIP3   OH2 7673   0.472   6.239   4.632 -0.3038  0.4458  0.9578
 2570TIP3    H1 7674   0.463   6.181   4.556  0.2640  0.1310  1.1244
 2570TIP3    H2 7675   0.491   6.180   4.704  2.2062  0.9531  0.7972
 2571TIP3   OH2 7676   4.407   4.123   4.710 -0.7786  0.5454  0.0071
 2571TIP3    H1 7677   4.386   4.124   4.804  0.1387  2.2443  0.2395
 2571TIP3    H2 7678   4.495   4.162   4.706 -0.3033 -0.6099 -1.4652
 2572TIP3   OH2 7679   6.439   3.543   2.169 -0.1701 -0.1274  0.2276
 2572TIP3    H1 7680   6.523   3.589   2.157 -0.8022  0.8777 -0.5303
 2572TIP3    H2 7681   6.450   3.494   2.250  1.3394 -0.4252 -0.1276
 2573TIP3   OH2 7682   4.232   3.849   5.566  0.1858 -0.0180 -0.3299
 2573TIP3    H1 7683   4.285   3.794   5.623 -1.0202 -2.2233 -1.1814
 2573TIP3    H2 7684   4.142   3.830   5.592 -0.2829  2.0918 -0.2491
 2574TIP3   OH2 7685   2.836   3.287   0.758  0.0337  0.0157 -0.0747
 2574TIP3    H1 7686   2.917   3.298   0.708 -0.0704 -0.4722 -0.3591
 2574TIP3    H2 7687   2.804   3.200   0.733 -0.7731  0.3592 -0.2626
 2575TIP3   OH2 7688   1.902   0.332   4.389 -0.0546 -0.1106 -0.1050
 2575TIP3    H1 7689   1.867   0.259   4.441 -0.4834  0.3002  0.1871
 2575TIP3    H2 7690   1.892   0.408   4.446 -0.6789  0.3738 -0.8552
 2576TIP3   OH2 7691   1.715   4.209   1.946 -0.6043 -0.0087  0.4125
 2576TIP3    H1 7692   1.629   4.172   1.968 -0.7882  1.4622  2.4365
 2576TIP3    H2 7693   1.771   4.183   2.019 -0.1098  1.5325  0.6167
 2577TIP3   OH2 7694   0.985   4.893   1.760  0.0153  0.1904  0.0565
 2577TIP3    H1 7695   1.008   4.836   1.687  0.1670  0.7697 -0.3549
 2577TIP3    H2 7696   1.059   4.953   1.768  0.3952 -0.4198  1.2599
 2578TIP3   OH2 7697   1.512   5.873   3.807  0.5345 -0.1573 -0.0369
 2578TIP3    H1 7698   1.589   5.898   3.858  1.4459 -1.6233 -0.6407
 2578TIP3    H2 7699   1.451   5.836   3.871 -0.0925  1.8182  0.5824
 2579TIP3   OH2 7700   0.079   3.371   0.210  0.1215  0.2109 -0.1014
 2579TIP3    H1 7701   0.036   3.300   0.164 -1.0897  0.2891  0.8522
 2579TIP3    H2 7702   0.145   3.403   0.149  0.1739 -1.2261 -0.8298
 2580TIP3   OH2 7703   5.428   4.112   2.339  0.6002  0.1363 -0.4758
 2580TIP3    H1 7704   5.452   4.192   2.387  2.4707 -0.1933 -0.8123
 2580TIP3    H2 7705   5.506   4.057   2.343 -0.6654 -1.7234 -0.2217
 2581TIP3   OH2 7706   2.086   5.288   3.934  0.0494 -0.0126 -0.3440
 2581TIP3    H1 7707   2.093   5.361   3.995 -0.4743 -1.1357  1.1099
 2581TIP3    H2 7708   1.994   5.264   3.935  0.3060 -1.0574 -0.3502
 2582TIP3   OH2 7709   4.261   3.227   5.108  0.2561 -0.3523  0.7008
 2582TIP3    H1 7710   4.185   3.181   5.073 -0.9814  0.5564  2.0489
 2582TIP3    H2 7711   4.243   3.320   5.090  1.1463 -0.1400  0.8621
 2583TIP3   OH2 7712   5.157   2.040   3.798 -0.0545  0.1742  0.7165
 2583TIP3    H1 7713   5.237   2.036   3.745  0.0996 -0.2383  0.9679
 2583TIP3    H2 7714   5.131   1.948   3.808 -0.8085  0.3366  0.2679
 2584TIP3   OH2 7715   4.420   5.606   3.419  0.1513  0.2355  0.1080
 2584TIP3    H1 7716   4.457   5.622   3.333  0.8576 -0.6819  0.2273
 2584TIP3    H2 7717   4.396   5.693   3.451  0.6504  0.6720 -0.6686
 2585TIP3   OH2 7718   2.704   0.151   0.376 -0.0040 -0.2154 -0.1560
 2585TIP3    H1 7719   2.706   0.057   0.359  1.1089 -0.2493  0.0655
 2585TIP3    H2 7720   2.669   0.189   0.295 -2.0547 -0.9168  0.3474
 2586TIP3   OH2 7721   1.265   4.140   1.710  0.1856 -0.6274  0.0768
 2586TIP3    H1 7722   1.239   4.170   1.797  0.0993 -2.4824  0.7473
 2586TIP3    H2 7723   1.192   4.164   1.653 -0.1180 -0.1032  0.6750
 2587TIP3   OH2 7724   6.978   4.484   1.259 -0.0632 -0.5594 -0.2521
 2587TIP3    H1 7725   6.993   4.556   1.321  0.7968 -0.8280 -0.1321
 2587TIP3    H2 7726   7.017   4.515   1.177 -1.4227 -0.1030 -0.7500
 2588TIP3   OH2 7727   4.329   2.584   1.177 -0.0786  0.8426  0.6710
 2588TIP3    H1 7728   4.413   2.539   1.176 -0.6058 -0.2292  1.7976
 2588TIP3    H2 7729   4.341   2.659   1.119  1.4783  0.4147  0.3985
 2589TIP3   OH2 7730   0.975   2.535   3.461  0.2017 -0.4685 -0.2707
 2589TIP3    H1 7731   0.903   2.573   3.512 -0.0008 -0.7229 -0.3615
 2589TIP3    H2 7732   0.931   2.488   3.391  0.4563 -0.7147 -0.2649
 2590TIP3   OH2 7733   5.140   4.963   2.481 -0.1669 -0.1871  0.3637
 2590TIP3    H1 7734   5.224   4.917   2.483  0.2803  0.6296  0.5060
 2590TIP3    H2 7735   5.158   5.046   2.437 -0.9011 -0.0044  0.3864
 2591TIP3   OH2 7736   3.496   5.311   1.091 -0.3100 -0.5039  0.1364
 2591TIP3    H1 7737   3.524   5.390   1.044  0.5366 -0.6510  0.3897
 2591TIP3    H2 7738   3.413   5.337   1.133  0.5154  0.6278  1.1529
 2592TIP3   OH2 7739   6.829   4.580   4.356 -0.2777  0.1561  0.3459
 2592TIP3    H1 7740   6.808   4.487   4.354  0.1496  0.0688 -0.5379
 2592TIP3    H2 7741   6.875   4.596   4.274 -1.3825  1.3904 -0.0776
 2593TIP3   OH2 7742   4.276   2.458   4.340 -0.3334  0.0826 -0.0147
 2593TIP3    H1 7743   4.207   2.392   4.352 -0.6650  0.7099  1.7922
 2593TIP3    H2 7744   4.339   2.440   4.410  0.9518  0.0476 -1.1343
 2594TIP3   OH2 7745   1.027   6.756   0.313  0.0091 -0.0586 -0.3496
 2594TIP3    H1 7746   1.116   6.772   0.345 -0.8163  1.3351  1.4511
 2594TIP3    H2 7747   1.016   6.661   0.321  0.9861 -0.1270  0.4084
 2595TIP3   OH2 7748   4.215   2.745   1.846 -0.1265  0.3979  0.5208
 2595TIP3    H1 7749   4.265   2.798   1.784 -0.6699  0.7161  0.3426
 2595TIP3    H2 7750   4.182   2.809   1.910 -1.1647  0.3500  0.0510
 2596TIP3   OH2 7751   7.096   2.404   5.746 -0.1113  0.0175  0.1324
 2596TIP3    H1 7752   7.113   2.423   5.654  3.0048  0.7730  0.7493
 2596TIP3    H2 7753   7.083   2.310   5.750  2.2016 -0.4046 -0.8360
 2597TIP3   OH2 7754   5.637   3.059   5.151 -0.0012 -0.3317  0.8290
 2597TIP3    H1 7755   5.571   2.994   5.125 -2.4766  2.4045 -0.4217
 2597TIP3    H2 7756   5.720   3.024   5.119 -1.6085 -1.6153 -2.3596
 2598TIP3   OH2 7757   0.433   3.247   0.412 -0.3837  0.3638 -0.3931
 2598TIP3    H1 7758   0.476   3.209   0.489  1.1250 -1.5834 -2.0563
 2598TIP3    H2 7759   0.444   3.341   0.422  0.7007  0.1050  1.2760
 2599TIP3   OH2 7760   4.149   4.711   5.568 -0.1359 -0.0156  0.5919
 2599TIP3    H1 7761   4.220   4.691   5.628 -0.9938 -0.9300  1.3256
 2599TIP3    H2 7762   4.120   4.626   5.534 -0.6401  0.3681  0.0178
 2600TIP3   OH2 7763   6.750   6.174   3.886  0.0630  0.4853  0.0576
 2600TIP3    H1 7764   6.675   6.117   3.906 -0.4780  1.3181  0.4786
 2600TIP3    H2 7765   6.768   6.158   3.794 -1.3129  1.0094 -0.3358
 2601TIP3   OH2 7766   6.341   2.830   5.374 -0.4944 -0.3649 -0.3115
 2601TIP3    H1 7767   6.427   2.856   5.340  0.2904 -1.8228  0.4319
 2601TIP3    H2 7768   6.292   2.803   5.296 -1.1546  2.6219 -1.0337
 2602TIP3   OH2 7769   2.186   2.772   4.146 -0.1130  0.8896  0.2841
 2602TIP3    H1 7770   2.129   2.849   4.150  0.8167  1.5411  1.5412
 2602TIP3    H2 7771   2.273   2.808   4.130 -0.1557 -0.1785 -3.0875
 2603TIP3   OH2 7772   7.099   0.516   2.975  0.2350 -0.4650 -0.6347
 2603TIP3    H1 7773   7.046   0.535   2.897  0.0920 -2.6724 -1.1660
 2603TIP3    H2 7774   7.039   0.468   3.033  1.1469 -1.5266 -0.5268
 2604TIP3   OH2 7775   4.791   0.311   3.590  0.0224 -0.0939 -0.0992
 2604TIP3    H1 7776   4.853   0.332   3.519 -0.7255 -0.3069 -0.8341
 2604TIP3    H2 7777   4.843   0.317   3.670  1.0172 -0.3627 -0.7090
 2605TIP3   OH2 7778   0.865   1.592   2.307 -0.6183 -0.4027  0.6364
 2605TIP3    H1 7779   0.797   1.628   2.365  0.5220 -1.0071  2.4406
 2605TIP3    H2 7780   0.826   1.512   2.272 -1.2836 -0.0989  0.6605
 2606TIP3   OH2 7781   2.319   1.343   3.955  0.3154  0.2436  0.0080
 2606TIP3    H1 7782   2.352   1.348   3.865 -0.8447 -1.8932 -0.6144
 2606TIP3    H2 7783   2.394   1.312   4.006  0.7402  0.6264 -0.3703
 2607TIP3   OH2 7784   0.898  -0.017   2.962  0.8664  0.0308 -0.2707
 2607TIP3    H1 7785   0.886  -0.039   3.055 -0.9230 -3.8772 -1.2391
 2607TIP3    H2 7786   0.851   0.066   2.951 -0.9822 -0.6241  1.8964
 2608TIP3   OH2 7787   5.859   4.697   2.491  0.0669  0.1475  0.4000
 2608TIP3    H1 7788   5.898   4.713   2.577 -0.4879 -0.9747  0.8851
 2608TIP3    H2 7789   5.898   4.614   2.463  1.2739  1.1662 -1.0602
 2609TIP3   OH2 7790   6.612   1.830   1.116  0.5688  0.5407 -0.4724
 2609TIP3    H1 7791   6.628   1.915   1.156  0.7938  0.7852 -1.0738
 2609TIP3    H2 7792   6.520   1.811   1.135  0.6610  0.6735  0.1133
 2610TIP3   OH2 7793   6.158   6.768   5.229  0.4895 -0.4027 -0.3710
 2610TIP3    H1 7794   6.087   6.780   5.167  0.1483  0.4938  0.1846
 2610TIP3    H2 7795   6.124   6.704   5.292 -0.1452  0.6114  0.3453
 2611TIP3   OH2 7796   6.087   6.766   4.082 -0.0692 -0.8132  0.6914
 2611TIP3    H1 7797   5.994   6.749   4.098 -0.0595 -0.6063  0.9840
 2611TIP3    H2 7798   6.126   6.770   4.169  0.3268 -1.4940  0.5553
 2612TIP3   OH2 7799   1.099   0.180   3.937 -0.2283  0.2084 -0.2720
 2612TIP3    H1 7800   1.117   0.249   4.001 -0.9099  0.2200 -0.0790
 2612TIP3    H2 7801   1.072   0.105   3.990 -0.7410  0.1991 -0.5368
 2613TIP3   OH2 7802   0.643   1.374   0.535 -0.1009  0.2598 -0.5182
 2613TIP3    H1 7803   0.731   1.395   0.566  0.2346 -1.3695 -0.2698
 2613TIP3    H2 7804   0.627   1.434   0.463  1.1995  0.5925 -0.5410
 2614TIP3   OH2 7805   2.448   2.523   2.351 -0.1080 -0.0770 -0.4315
 2614TIP3    H1 7806   2.427   2.503   2.260  0.0046  0.1335 -0.5042
 2614TIP3    H2 7807   2.543   2.534   2.352 -0.1749  0.5384 -0.4098
 2615TIP3   OH2 7808   2.096   2.924   3.504 -0.3503  0.2567  0.0442
 2615TIP3    H1 7809   2.182   2.915   3.546 -0.5824 -3.0108  0.0960
 2615TIP3    H2 7810   2.039   2.957   3.574  0.6348  1.4737  0.2988
 2616TIP3   OH2 7811   5.874   3.926   5.609 -0.4884 -0.3449  0.2516
 2616TIP3    H1 7812   5.801   3.876   5.572  0.4078 -0.0927 -2.0227
 2616TIP3    H2 7813   5.858   4.016   5.583  0.4257 -0.2313  0.0400
 2617TIP3   OH2 7814   3.861   1.744   4.409 -0.1583 -0.2498 -0.3746
 2617TIP3    H1 7815   3.918   1.772   4.337  0.9704 -0.3206  0.4575
 2617TIP3    H2 7816   3.905   1.667   4.445 -0.6159 -0.1056  0.5054
 2618TIP3   OH2 7817   1.368   6.309   0.363  0.4222  0.1090 -0.0617
 2618TIP3    H1 7818   1.375   6.313   0.459 -1.0457  0.2210  0.0555
 2618TIP3    H2 7819   1.322   6.227   0.346  2.1107 -0.7531 -0.8006
 2619TIP3   OH2 7820   2.051   4.321   0.226  0.3858  0.4469  0.3150
 2619TIP3    H1 7821   1.993   4.246   0.240  0.1423  0.3947 -0.9032
 2619TIP3    H2 7822   2.021   4.360   0.144  0.7833  1.6372  0.7193
 2620TIP3   OH2 7823   3.570   1.001   3.062 -0.2301 -0.6127  0.2974
 2620TIP3    H1 7824   3.647   0.970   3.014 -0.3126 -0.1864 -0.1216
 2620TIP3    H2 7825   3.544   1.081   3.016 -1.2423 -1.0388  0.1107
 2621TIP3   OH2 7826   4.710   3.744   2.455 -0.3380  0.4926  0.1005
 2621TIP3    H1 7827   4.735   3.653   2.471  0.0785  0.9456  2.3188
 2621TIP3    H2 7828   4.661   3.741   2.373 -0.7076 -1.7963  0.3363
 2622TIP3   OH2 7829   5.600   0.351   0.410  0.2624 -0.4398  0.4357
 2622TIP3    H1 7830   5.552   0.428   0.379 -0.7400 -0.6737  1.3363
 2622TIP3    H2 7831   5.566   0.279   0.358  1.0795 -0.3093 -0.2908
 2623TIP3   OH2 7832   1.867   0.331   5.880 -0.1569  0.2346  0.3503
 2623TIP3    H1 7833   1.950   0.379   5.875 -0.6856  1.0649 -0.9981
 2623TIP3    H2 7834   1.805   0.385   5.831 -0.9069 -1.5540 -0.7785
 2624TIP3   OH2 7835   2.006   0.493   5.178  0.0436 -0.3892 -0.1048
 2624TIP3    H1 7836   1.945   0.424   5.152  0.0620 -0.7469  0.7560
 2624TIP3    H2 7837   2.017   0.480   5.272  2.4868 -1.2188 -0.4261
 2625TIP3   OH2 7838   0.617   4.701   2.310 -0.0081  0.1587 -0.0203
 2625TIP3    H1 7839   0.694   4.691   2.253  1.0753  2.2237  0.9613
 2625TIP3    H2 7840   0.642   4.770   2.372 -3.1247  1.7768 -0.4016
 2626TIP3   OH2 7841   0.585   4.629   1.217 -0.3733 -0.6213  0.1624
 2626TIP3    H1 7842   0.589   4.599   1.126  0.8070  0.6808 -0.2561
 2626TIP3    H2 7843   0.660   4.587   1.259  0.4883  0.5803 -0.0949
 2627TIP3   OH2 7844   0.462   6.201   1.784 -0.2535 -0.0244  0.7342
 2627TIP3    H1 7845   0.419   6.123   1.748  0.7834  0.5908 -2.1347
 2627TIP3    H2 7846   0.390   6.261   1.803 -0.8879 -0.2498 -0.7992
 2628TIP3   OH2 7847   3.909   5.801   2.250  0.2764  0.5014 -0.2944
 2628TIP3    H1 7848   3.983   5.777   2.306  0.3805  0.3122 -0.5129
 2628TIP3    H2 7849   3.939   5.784   2.161 -0.6129 -1.2520 -0.3153
 2629TIP3   OH2 7850   2.412   2.521   2.779 -0.6984  1.2022 -0.8143
 2629TIP3    H1 7851   2.366   2.497   2.860  0.7261 -1.9849 -0.7840
 2629TIP3    H2 7852   2.469   2.594   2.805 -0.9471  0.8598  0.8362
 2630TIP3   OH2 7853   4.198   4.432   0.737 -0.5501 -0.3115 -0.1874
 2630TIP3    H1 7854   4.228   4.461   0.651 -2.3935  1.3211 -0.3587
 2630TIP3    H2 7855   4.108   4.465   0.743 -1.0391 -1.8015  1.7183
 2631TIP3   OH2 7856   1.372   0.125   3.381 -0.4353 -0.3169 -0.2337
 2631TIP3    H1 7857   1.436   0.067   3.423 -0.3576  0.5356  0.8804
 2631TIP3    H2 7858   1.287   0.085   3.398 -0.2320 -1.4519 -1.7147
 2632TIP3   OH2 7859   0.590   0.544   5.101  0.8779 -0.1950  0.1581
 2632TIP3    H1 7860   0.517   0.548   5.163 -0.1964  1.1555 -1.1474
 2632TIP3    H2 7861   0.654   0.606   5.136  0.4064  0.3391  0.0910
 2633TIP3   OH2 7862   3.849   5.298   5.338  0.5870 -0.5292 -0.1326
 2633TIP3    H1 7863   3.889   5.273   5.255  1.3127  1.2568 -0.3672
 2633TIP3    H2 7864   3.923   5.313   5.397  0.1645  0.0827  0.2538
 2634TIP3   OH2 7865   0.878   0.295   0.081  0.2297 -0.1472 -1.1280
 2634TIP3    H1 7866   0.838   0.289  -0.006 -0.0494  0.6034 -1.0582
 2634TIP3    H2 7867   0.969   0.269   0.067  0.3889  0.7191 -1.7930
 2635TIP3   OH2 7868   3.480   0.242   0.578 -0.9921 -0.4766 -0.0622
 2635TIP3    H1 7869   3.478   0.319   0.635 -0.2357 -0.6300  0.1838
 2635TIP3    H2 7870   3.559   0.254   0.525 -0.6174 -1.3056  0.3001
 2636TIP3   OH2 7871   0.060   4.429   3.503  0.0045  0.4767 -0.1827
 2636TIP3    H1 7872   0.108   4.404   3.424  0.6297  0.4504  0.1959
 2636TIP3    H2 7873   0.029   4.347   3.539  1.1417  0.3137  0.4825
 2637TIP3   OH2 7874   5.312   0.500   3.290 -0.2228 -0.3953  0.6347
 2637TIP3    H1 7875   5.260   0.530   3.365 -1.4503 -1.7381  0.3773
 2637TIP3    H2 7876   5.401   0.529   3.309 -0.8552  1.0021  1.6441
 2638TIP3   OH2 7877   1.701   2.086   2.529  0.5828  0.1399  0.0112
 2638TIP3    H1 7878   1.745   2.141   2.464  0.6319 -0.7063 -0.6769
 2638TIP3    H2 7879   1.772   2.039   2.572  0.3674 -1.7592 -1.5779
 2639TIP3   OH2 7880   1.333   4.378   2.068  0.5978  0.0807  0.3593
 2639TIP3    H1 7881   1.395   4.325   2.119  1.1259 -0.4833 -0.8399
 2639TIP3    H2 7882   1.300   4.443   2.131  1.1074 -0.6879  1.4558
 2640TIP3   OH2 7883   6.354   0.167   4.449  0.4649  0.0734  0.0526
 2640TIP3    H1 7884   6.315   0.255   4.446 -0.0115 -0.1531 -0.5835
 2640TIP3    H2 7885   6.284   0.111   4.482 -0.0165 -0.4563 -1.7361
 2641TIP3   OH2 7886   2.429   3.132   1.959  0.1670  0.4811 -0.2931
 2641TIP3    H1 7887   2.432   3.067   2.030 -0.8830 -1.1851 -1.7020
 2641TIP3    H2 7888   2.465   3.087   1.883 -1.1568  1.3105 -1.4731
 2642TIP3   OH2 7889   1.275   4.164   3.689 -0.1827 -0.1667  0.4128
 2642TIP3    H1 7890   1.363   4.149   3.655  0.0379 -0.4444  1.0983
 2642TIP3    H2 7891   1.229   4.209   3.618  0.1909 -0.9584 -0.3571
 2643TIP3   OH2 7892   1.067   2.949   1.546  0.4187 -0.3700 -0.2317
 2643TIP3    H1 7893   1.053   2.857   1.570  0.5044 -0.7772 -1.6259
 2643TIP3    H2 7894   1.044   2.952   1.453 -1.5576  1.4615  0.2603
 2644TIP3   OH2 7895   2.009   4.455   3.546  0.3709  0.0991  0.4004
 2644TIP3    H1 7896   1.975   4.372   3.512  0.0739  0.1328  0.6041
 2644TIP3    H2 7897   1.978   4.521   3.485  1.0506  0.0052 -0.0518
 2645TIP3   OH2 7898   5.922   0.478   4.201 -0.0321  0.1468  0.2910
 2645TIP3    H1 7899   5.988   0.481   4.271  0.2545  0.3753  0.0096
 2645TIP3    H2 7900   5.956   0.535   4.133 -0.3617 -0.0000  0.0011
 2646TIP3   OH2 7901   1.847   4.326   0.499  0.5842  0.3249  0.4891
 2646TIP3    H1 7902   1.836   4.410   0.455 -2.5775 -1.0829 -1.7966
 2646TIP3    H2 7903   1.939   4.324   0.526  0.8334  4.3281  0.4136
 2647TIP3   OH2 7904   2.824   6.007   1.805  0.1496 -0.0106  0.3106
 2647TIP3    H1 7905   2.893   6.071   1.788 -1.2328  0.8922 -2.5819
 2647TIP3    H2 7906   2.762   6.053   1.863  0.8999 -0.0666  1.1747
 2648TIP3   OH2 7907   5.470   5.928   3.165  0.4768  0.3177  0.1081
 2648TIP3    H1 7908   5.530   5.861   3.134 -0.6540  0.1278 -1.8604
 2648TIP3    H2 7909   5.385   5.884   3.170  0.2943  0.7986  2.0014
 2649TIP3   OH2 7910   3.950   2.876   5.045 -0.2023  0.6202  0.1537
 2649TIP3    H1 7911   3.922   2.822   4.971  0.6382 -1.4113  1.2290
 2649TIP3    H2 7912   3.994   2.950   5.006 -1.5096  0.6219 -1.4082
 2650TIP3   OH2 7913   7.145   4.030   2.507 -0.0707 -0.0460 -0.0120
 2650TIP3    H1 7914   7.063   4.026   2.557  0.9564 -1.7610  1.6931
 2650TIP3    H2 7915   7.196   4.098   2.551  0.3374 -0.6789  0.5223
 2651TIP3   OH2 7916   6.827   3.982   0.490  0.1112  0.1105  0.3061
 2651TIP3    H1 7917   6.860   4.019   0.572 -0.6420 -1.5207  1.4214
 2651TIP3    H2 7918   6.765   4.047   0.457 -1.1614 -0.0685  2.1764
 2652TIP3   OH2 7919   5.462   5.941   0.158  0.6321  0.4398  0.2638
 2652TIP3    H1 7920   5.417   5.993   0.091 -1.1455 -0.1067  0.9649
 2652TIP3    H2 7921   5.459   5.995   0.237 -1.3885 -0.7104  1.0463
 2653TIP3   OH2 7922   7.113   5.446   1.959  0.5587 -0.0665  0.7835
 2653TIP3    H1 7923   7.118   5.427   2.053  2.4618 -2.3258  0.3178
 2653TIP3    H2 7924   7.184   5.507   1.942  1.5940 -1.2895  0.5367
 2654TIP3   OH2 7925   3.789   2.424   2.800 -0.6845  0.0386  0.2835
 2654TIP3    H1 7926   3.738   2.376   2.735 -0.5815 -0.9441  0.9064
 2654TIP3    H2 7927   3.745   2.509   2.807 -0.2729  0.4248 -1.5637
 2655TIP3   OH2 7928   4.726   1.310   3.594  0.8809  0.6004  0.4596
 2655TIP3    H1 7929   4.777   1.284   3.670  1.8122  1.2118  0.0635
 2655TIP3    H2 7930   4.728   1.406   3.595  0.0385  0.6286  0.2339
 2656TIP3   OH2 7931   5.766   4.471   0.908 -0.0933 -0.1379  0.0404
 2656TIP3    H1 7932   5.700   4.469   0.977 -1.1905  0.6120 -0.9424
 2656TIP3    H2 7933   5.849   4.468   0.954 -0.7924  0.7633  1.4222
 2657TIP3   OH2 7934   1.576   1.136   1.456 -0.0572  0.5859 -0.5222
 2657TIP3    H1 7935   1.614   1.194   1.521 -0.7368 -0.0979  0.5186
 2657TIP3    H2 7936   1.608   1.169   1.372  1.5853  0.9289  0.2013
 2658TIP3   OH2 7937   7.012   4.857   0.014  0.4482 -0.1498  0.0502
 2658TIP3    H1 7938   6.925   4.896   0.018 -0.0190 -1.0862 -0.3847
 2658TIP3    H2 7939   7.049   4.870   0.101 -0.1169  0.2928  0.2301
 2659TIP3   OH2 7940   3.137   6.332   5.318  0.3704 -0.3665  0.0279
 2659TIP3    H1 7941   3.167   6.317   5.408  1.1270  0.0295 -0.1504
 2659TIP3    H2 7942   3.185   6.268   5.266 -1.5926 -2.0188  0.1360
 2660TIP3   OH2 7943   3.694   5.791   4.699  0.0442  0.3577  0.5056
 2660TIP3    H1 7944   3.710   5.715   4.643  1.2598  1.5881 -0.8901
 2660TIP3    H2 7945   3.750   5.776   4.775  0.3735 -0.0783  0.1806
 2661TIP3   OH2 7946   2.496   2.093   4.513 -0.0757  0.5575 -0.1797
 2661TIP3    H1 7947   2.576   2.117   4.560 -1.3169  3.8093  0.5744
 2661TIP3    H2 7948   2.446   2.040   4.575  1.8674 -2.5651 -1.0889
 2662TIP3   OH2 7949   2.735   3.098   1.830 -0.5163  0.2044  0.0400
 2662TIP3    H1 7950   2.751   3.017   1.880 -0.5217  0.3499  0.2786
 2662TIP3    H2 7951   2.756   3.075   1.740  0.9233  0.3450  0.3156
 2663TIP3   OH2 7952   4.369   1.805   0.811  0.1954 -0.4847  0.5133
 2663TIP3    H1 7953   4.408   1.792   0.725  0.6968  0.0625  0.6536
 2663TIP3    H2 7954   4.294   1.862   0.795  0.9375  0.5271  0.5844
 2664TIP3   OH2 7955   0.945   0.031   1.828 -0.4051  0.2308  0.1618
 2664TIP3    H1 7956   0.919   0.084   1.903 -0.7365  1.2195 -0.6387
 2664TIP3    H2 7957   1.004   0.086   1.778  1.6169 -1.2172  0.8190
 2665TIP3   OH2 7958   2.408   3.315   1.565  0.3209  0.4221  0.2798
 2665TIP3    H1 7959   2.347   3.258   1.611  1.2282 -3.7197 -2.9685
 2665TIP3    H2 7960   2.353   3.373   1.512 -0.9836 -1.9482 -1.1547
 2666TIP3   OH2 7961   4.006   4.768   2.909 -0.1545  0.1553 -0.3578
 2666TIP3    H1 7962   4.083   4.803   2.954  0.1569  2.3398 -2.4076
 2666TIP3    H2 7963   4.034   4.757   2.818 -1.3659 -2.1017 -0.5392
 2667TIP3   OH2 7964   2.282   1.032   0.213 -0.4309 -0.3911 -0.2276
 2667TIP3    H1 7965   2.333   0.972   0.159  1.7978  0.3169  0.9423
 2667TIP3    H2 7966   2.253   1.100   0.153 -0.0027 -0.8278 -0.9436
 2668TIP3   OH2 7967   6.213   1.985   4.401 -0.3849  0.3601 -0.0718
 2668TIP3    H1 7968   6.274   2.014   4.333 -1.4529  0.4438 -1.0148
 2668TIP3    H2 7969   6.183   2.066   4.443  1.1859  0.2620  1.3663
 2669TIP3   OH2 7970   5.131   0.271   3.679 -0.0785 -0.0008  0.2058
 2669TIP3    H1 7971   5.150   0.340   3.743 -0.2847 -1.9850  2.5325
 2669TIP3    H2 7972   5.180   0.195   3.710 -2.2672 -1.7931 -0.4564
 2670TIP3   OH2 7973   2.720   6.364   0.743 -0.3231 -0.5592  0.2566
 2670TIP3    H1 7974   2.798   6.310   0.733 -0.1996 -0.3843  0.2740
 2670TIP3    H2 7975   2.647   6.301   0.741 -0.1984 -0.6980  0.0039
 2671TIP3   OH2 7976   5.039   4.069   3.913 -0.3822 -0.8145  0.4236
 2671TIP3    H1 7977   5.127   4.031   3.917  0.0484  0.2107  1.1321
 2671TIP3    H2 7978   4.993   4.033   3.988 -0.1364 -0.3564  0.8027
 2672TIP3   OH2 7979   3.936   6.372   0.999  0.1814 -0.1893 -0.6062
 2672TIP3    H1 7980   3.856   6.419   0.974 -0.5979 -1.7304 -1.1420
 2672TIP3    H2 7981   3.925   6.285   0.963  1.3075 -0.9889  0.8540
 2673TIP3   OH2 7982   0.476   5.502   0.303  0.4118 -0.2535 -0.2885
 2673TIP3    H1 7983   0.495   5.589   0.337  0.8533  0.1563 -1.5305
 2673TIP3    H2 7984   0.537   5.444   0.348  0.0842  0.0694  0.5783
 2674TIP3   OH2 7985   4.808   5.919  -0.021  0.0868 -0.7549 -0.4227
 2674TIP3    H1 7986   4.755   5.876   0.046 -0.5165  0.2114 -0.2672
 2674TIP3    H2 7987   4.897   5.887  -0.005  0.0382 -0.1888  1.1347
 2675TIP3   OH2 7988   3.788   5.584   2.953 -0.2386 -0.4493  0.2277
 2675TIP3    H1 7989   3.765   5.513   3.014  1.3397 -0.5957  0.7130
 2675TIP3    H2 7990   3.725   5.576   2.882 -0.6309 -1.8208  0.6930
 2676TIP3   OH2 7991   2.962   4.937   3.449  0.0549  0.2567  0.1436
 2676TIP3    H1 7992   3.043   4.892   3.426  1.0819  0.9387  2.1995
 2676TIP3    H2 7993   2.971   5.025   3.413 -1.6353 -0.7636 -3.2204
 2677TIP3   OH2 7994   2.468   6.354   5.542  0.1397 -0.4745  0.0126
 2677TIP3    H1 7995   2.403   6.323   5.605 -1.7764 -0.7483 -1.9749
 2677TIP3    H2 7996   2.499   6.274   5.498 -0.5119 -0.1173 -1.1475
 2678TIP3   OH2 7997   2.246   2.231   0.887 -0.4232 -0.0568  0.6425
 2678TIP3    H1 7998   2.301   2.211   0.963  0.9449 -2.2441 -0.7980
 2678TIP3    H2 7999   2.305   2.273   0.825 -0.2702 -2.3538 -0.8985
 2679TIP3   OH2 8000   2.059   1.748   1.575 -0.3091  0.2941 -0.3203
 2679TIP3    H1 8001   1.997   1.794   1.519 -0.6467  1.2242  0.7925
 2679TIP3    H2 8002   2.090   1.814   1.637 -0.5800 -0.8972  1.1370
 2680TIP3   OH2 8003   0.350   1.047   1.514 -0.7107 -0.0393 -0.0012
 2680TIP3    H1 8004   0.357   1.122   1.455 -1.0437  0.1239  0.1621
 2680TIP3    H2 8005   0.430   1.050   1.566 -1.4465  1.1909  1.1384
 2681TIP3   OH2 8006   3.669   6.643   4.264 -0.0444  0.7454 -0.6168
 2681TIP3    H1 8007   3.628   6.718   4.220 -0.2827  0.5570 -0.7162
 2681TIP3    H2 8008   3.613   6.569   4.243 -1.6227  1.0638  2.0676
 2682TIP3   OH2 8009   2.826   0.455   3.789  0.0348 -0.5713 -0.1066
 2682TIP3    H1 8010   2.760   0.419   3.848  0.4574 -1.0435  0.0827
 2682TIP3    H2 8011   2.779   0.523   3.739 -0.3981 -0.3801  0.5503
 2683TIP3   OH2 8012   0.214   1.294   2.426  0.2282 -0.0007 -0.5685
 2683TIP3    H1 8013   0.125   1.325   2.446  0.1143  0.1466 -1.2608
 2683TIP3    H2 8014   0.269   1.372   2.435  0.5227 -0.3769  1.2103
 2684TIP3   OH2 8015   3.018   6.510   2.522  0.0546 -0.2116  0.1165
 2684TIP3    H1 8016   2.983   6.477   2.605  1.4449  1.7695  1.5766
 2684TIP3    H2 8017   3.101   6.551   2.545  1.1925 -0.8419 -2.5228
 2685TIP3   OH2 8018   1.025   0.919   0.078 -0.3921  0.0932  0.2308
 2685TIP3    H1 8019   0.963   0.900   0.008 -1.2348  0.8351  0.7360
 2685TIP3    H2 8020   1.013   0.848   0.141 -0.9067  0.3356  0.4209
 2686TIP3   OH2 8021   4.369   2.131   5.319  0.3023 -0.1349 -0.6622
 2686TIP3    H1 8022   4.455   2.162   5.349  0.9251 -2.5706  0.3303
 2686TIP3    H2 8023   4.307   2.172   5.379  0.8438  0.9530 -0.8244
 2687TIP3   OH2 8024   5.678   0.376   1.548 -0.3632 -0.2275  0.2090
 2687TIP3    H1 8025   5.725   0.319   1.488  0.6371 -0.0983  0.8509
 2687TIP3    H2 8026   5.676   0.461   1.504 -1.6111 -0.6467 -0.6220
 2688TIP3   OH2 8027   6.476   3.582   5.620 -0.1095 -0.0277  0.8137
 2688TIP3    H1 8028   6.417   3.607   5.692  0.2296 -0.1415  1.1357
 2688TIP3    H2 8029   6.562   3.614   5.648  0.2324 -1.0647  0.9871
 2689TIP3   OH2 8030   6.970   0.053   0.475  0.2041  0.8565 -0.2197
 2689TIP3    H1 8031   6.888   0.003   0.467 -0.1461  1.7866 -4.6757
 2689TIP3    H2 8032   7.031  -0.008   0.516 -1.5766 -1.4161 -0.7442
 2690TIP3   OH2 8033   6.377   3.660   3.849 -0.5808 -0.6095  0.5811
 2690TIP3    H1 8034   6.404   3.585   3.796 -0.1005  0.6062 -0.9685
 2690TIP3    H2 8035   6.452   3.720   3.847 -1.7698  0.9357 -0.1932
 2691TIP3   OH2 8036   1.257   3.682   3.196 -0.1393 -0.4609 -0.4278
 2691TIP3    H1 8037   1.339   3.695   3.243 -0.7347  0.5846  0.3638
 2691TIP3    H2 8038   1.242   3.765   3.150 -1.7667  0.1504  1.0861
 2692TIP3   OH2 8039   0.176   3.410   5.814  0.1329 -0.3979  0.0351
 2692TIP3    H1 8040   0.220   3.379   5.736  0.0067  0.8430 -0.5589
 2692TIP3    H2 8041   0.109   3.470   5.781  0.3339  0.4469  1.1044
 2693TIP3   OH2 8042   4.601   5.741   5.660 -0.5685  0.1874  0.4464
 2693TIP3    H1 8043   4.633   5.661   5.702  0.2827 -0.3452 -1.1127
 2693TIP3    H2 8044   4.509   5.722   5.639 -0.7052  0.0786  1.1197
 2694TIP3   OH2 8045   5.540   5.299   4.288  0.8162  0.5458  0.0824
 2694TIP3    H1 8046   5.625   5.320   4.248  0.1779  1.0224 -1.0725
 2694TIP3    H2 8047   5.535   5.203   4.282  1.2190  0.5231  0.0437
 2695TIP3   OH2 8048   2.527   1.628  -0.007 -0.1040 -0.1071  0.0512
 2695TIP3    H1 8049   2.616   1.640   0.026 -0.5354 -1.5118  1.9151
 2695TIP3    H2 8050   2.498   1.545   0.032 -2.1649  0.2294 -0.6380
 2696TIP3   OH2 8051   4.634   0.807   3.620 -0.4468  0.0122  0.4425
 2696TIP3    H1 8052   4.582   0.865   3.564  1.9442  2.1618  0.2643
 2696TIP3    H2 8053   4.627   0.721   3.579 -0.0747  1.1996 -2.3238
 2697TIP3   OH2 8054   2.789   5.901   0.749  0.6094  0.2896 -0.0885
 2697TIP3    H1 8055   2.769   5.810   0.768 -1.1840  0.6476 -0.0812
 2697TIP3    H2 8056   2.786   5.907   0.653  1.5063  0.1849 -0.1273
 2698TIP3   OH2 8057   0.830   1.362   3.981 -0.3995 -0.1409 -0.7785
 2698TIP3    H1 8058   0.812   1.389   4.071  0.6869 -0.0651 -0.5682
 2698TIP3    H2 8059   0.839   1.444   3.933  2.9365 -0.0121 -0.1326
 2699TIP3   OH2 8060   3.747   4.239   4.622  0.6885  0.5054  0.1521
 2699TIP3    H1 8061   3.656   4.263   4.606  1.0759  0.6041 -2.3001
 2699TIP3    H2 8062   3.780   4.308   4.680 -0.6553  0.6989  0.7182
 2700TIP3   OH2 8063   7.124   3.191   3.639 -0.0507 -0.1215  0.7398
 2700TIP3    H1 8064   7.130   3.280   3.606  1.0651 -0.7793 -0.9575
 2700TIP3    H2 8065   7.194   3.143   3.594 -1.0482 -2.0178  1.0779
 2701TIP3   OH2 8066   3.006   2.989   0.236  0.1149  0.2715 -0.2010
 2701TIP3    H1 8067   3.040   2.899   0.231 -1.2432 -0.4828  2.5112
 2701TIP3    H2 8068   2.911   2.979   0.228  0.0204  1.6747 -1.3044
 2702TIP3   OH2 8069   4.451   0.313   2.178 -0.2966  0.0004  0.3817
 2702TIP3    H1 8070   4.474   0.284   2.089  1.9127  0.6371  0.6915
 2702TIP3    H2 8071   4.392   0.387   2.164 -0.7840 -0.5443 -0.5364
 2703TIP3   OH2 8072   2.869   5.375   2.112 -0.0667 -0.1273 -0.2118
 2703TIP3    H1 8073   2.903   5.379   2.202 -1.5219 -2.3464  0.5326
 2703TIP3    H2 8074   2.908   5.296   2.075 -1.4216 -0.6330 -0.6152
 2704TIP3   OH2 8075   3.933   3.717   0.092 -0.2251  0.0339  0.0813
 2704TIP3    H1 8076   3.991   3.698   0.167 -1.0354  1.8426  1.2319
 2704TIP3    H2 8077   3.968   3.798   0.055 -0.5580 -0.2039 -0.7763
 2705TIP3   OH2 8078   1.713   3.204   5.802  0.3754  0.0538  0.5851
 2705TIP3    H1 8079   1.775   3.138   5.770 -0.5035 -0.7881  0.5715
 2705TIP3    H2 8080   1.751   3.287   5.775  0.8176 -0.5177 -0.6405
 2706TIP3   OH2 8081   6.873   1.250   0.914  0.1237 -0.1417 -0.0937
 2706TIP3    H1 8082   6.946   1.192   0.892  0.4324  0.1384  0.1778
 2706TIP3    H2 8083   6.908   1.307   0.983  0.5662  1.9518 -1.9613
 2707TIP3   OH2 8084   4.210   4.739   2.383 -0.5186  0.1274 -0.0923
 2707TIP3    H1 8085   4.225   4.645   2.368  0.2098  0.4383 -1.4790
 2707TIP3    H2 8086   4.293   4.780   2.358 -1.3789  1.2840 -1.1558
 2708TIP3   OH2 8087   2.946   5.528   1.552  0.1810 -0.5222 -0.5107
 2708TIP3    H1 8088   2.885   5.589   1.594 -0.1105 -0.0145 -1.6293
 2708TIP3    H2 8089   2.912   5.442   1.574 -1.3238 -0.2476 -1.6114
 2709TIP3   OH2 8090   0.134   2.367   2.741 -0.2272 -0.0313 -0.4135
 2709TIP3    H1 8091   0.147   2.419   2.662 -3.0374  0.3303 -0.7382
 2709TIP3    H2 8092   0.113   2.279   2.709  0.4932 -0.3678  0.0143
 2710TIP3   OH2 8093   3.223   3.644   1.396 -0.6982 -0.2971 -0.2329
 2710TIP3    H1 8094   3.174   3.660   1.476  0.2587 -0.3217  0.3702
 2710TIP3    H2 8095   3.157   3.648   1.326 -1.3064  1.3230  0.3854
 2711TIP3   OH2 8096   4.982   1.699   0.680  0.1983  0.4812 -0.4248
 2711TIP3    H1 8097   5.041   1.683   0.606 -1.0440 -0.0151 -1.3252
 2711TIP3    H2 8098   4.916   1.758   0.645 -0.5007  0.1020  0.2414
 2712TIP3   OH2 8099   3.619   3.904   1.907 -1.3932  0.6511 -0.8398
 2712TIP3    H1 8100   3.700   3.942   1.873 -1.1877 -0.1836 -1.3226
 2712TIP3    H2 8101   3.582   3.857   1.833 -0.1151 -2.5838  0.3951
 2713TIP3   OH2 8102   5.938   5.585   1.977 -0.3687  0.7687  0.4300
 2713TIP3    H1 8103   5.866   5.533   2.013  0.1943 -0.0125  0.4251
 2713TIP3    H2 8104   6.010   5.524   1.967 -0.2169  1.1761 -1.1717
 2714TIP3   OH2 8105   3.163   0.465   4.413 -0.2411 -0.4511 -0.0835
 2714TIP3    H1 8106   3.178   0.559   4.405 -0.2724 -0.4650 -0.2960
 2714TIP3    H2 8107   3.237   0.425   4.368  1.1417 -0.5695  2.1443
 2715TIP3   OH2 8108   6.957   5.613   1.170 -0.0800 -0.1673  0.3915
 2715TIP3    H1 8109   7.026   5.613   1.237  1.3653  0.2114 -1.0087
 2715TIP3    H2 8110   6.955   5.523   1.137  0.3622  0.0154 -0.1492
 2716TIP3   OH2 8111   0.668   2.535   3.024  0.5451 -0.3523 -0.2780
 2716TIP3    H1 8112   0.598   2.582   2.979  0.7927 -1.2082 -1.6278
 2716TIP3    H2 8113   0.626   2.458   3.061  0.2450  0.6033  1.4626
 2717TIP3   OH2 8114   1.481   1.696   4.765  0.6930  0.2306 -0.0072
 2717TIP3    H1 8115   1.505   1.680   4.674  1.3291 -0.4305  0.2711
 2717TIP3    H2 8116   1.492   1.791   4.777 -1.1591  0.6342 -1.1092
 2718TIP3   OH2 8117   5.896   5.872   2.009  0.3762  0.1352  0.2143
 2718TIP3    H1 8118   5.812   5.891   2.051  0.6377  1.3132  0.2263
 2718TIP3    H2 8119   5.889   5.780   1.983 -0.6890  0.0518  0.7384
 2719TIP3   OH2 8120   3.207   2.645   0.504 -0.3323  0.2212  0.4972
 2719TIP3    H1 8121   3.125   2.643   0.553  0.2299  1.9629  1.5911
 2719TIP3    H2 8122   3.273   2.666   0.570  1.0180 -1.1557 -0.3664
 2720TIP3   OH2 8123   5.555   2.207   0.201  0.8944 -0.8722 -0.0458
 2720TIP3    H1 8124   5.579   2.293   0.234 -1.5961  0.8375 -2.3047
 2720TIP3    H2 8125   5.475   2.184   0.248 -0.0783 -0.5584 -1.4951
 2721TIP3   OH2 8126   1.238   0.318   2.536 -0.8434  0.6756 -0.6418
 2721TIP3    H1 8127   1.199   0.248   2.588  0.4832  1.2935  1.3226
 2721TIP3    H2 8128   1.200   0.398   2.572  1.9658  1.2939  1.2912
 2722TIP3   OH2 8129   6.696   4.803   0.666  0.3116  0.2005 -0.1499
 2722TIP3    H1 8130   6.654   4.762   0.590  0.7365  0.0319 -0.2975
 2722TIP3    H2 8131   6.760   4.863   0.628 -0.2633  0.9573  0.0680
 2723TIP3   OH2 8132   6.819   5.697   0.784  0.3650  0.2100 -0.3971
 2723TIP3    H1 8133   6.863   5.612   0.794 -1.1917 -0.6632 -0.5490
 2723TIP3    H2 8134   6.804   5.704   0.690 -3.7713 -1.7458 -0.1093
 2724TIP3   OH2 8135   0.663   2.011   5.673  0.1032 -0.3147  0.0432
 2724TIP3    H1 8136   0.739   2.063   5.648  0.7665 -0.9022  0.7961
 2724TIP3    H2 8137   0.619   2.064   5.740  0.4529 -0.4537  0.3866
 2725TIP3   OH2 8138   6.739   1.419   1.985 -0.7696 -0.1221  0.3102
 2725TIP3    H1 8139   6.734   1.445   2.077  1.7460 -1.1741  0.8395
 2725TIP3    H2 8140   6.660   1.367   1.971 -0.0658 -2.0455  2.6851
 2726TIP3   OH2 8141   5.456   0.125   4.018  0.4888 -0.1728  0.3000
 2726TIP3    H1 8142   5.473   0.034   4.040  1.1561  0.1173  1.0476
 2726TIP3    H2 8143   5.538   0.170   4.038  0.3233  0.5084 -0.5257
 2727TIP3   OH2 8144   5.385   4.247   5.193  0.1023 -0.1860  0.4446
 2727TIP3    H1 8145   5.322   4.175   5.204  1.5339 -1.3730  1.1929
 2727TIP3    H2 8146   5.343   4.305   5.129 -0.5753 -2.3134 -1.1929
 2728TIP3   OH2 8147   2.069   5.647   3.028 -0.4060 -0.3278  0.0984
 2728TIP3    H1 8148   1.992   5.693   3.060 -0.2072 -0.5575  0.9352
 2728TIP3    H2 8149   2.078   5.676   2.937 -0.2517  1.3142  0.6036
 2729TIP3   OH2 8150   5.403   6.285   2.011 -0.6438  0.0167  0.0848
 2729TIP3    H1 8151   5.464   6.327   2.072 -0.7322  1.1630 -0.5905
 2729TIP3    H2 8152   5.330   6.257   2.066 -0.7037  0.9919  0.5231
 2730TIP3   OH2 8153   3.132   4.075   2.835 -0.1657  0.1339  0.4175
 2730TIP3    H1 8154   3.174   4.158   2.857 -0.2632 -0.2276  2.1355
 2730TIP3    H2 8155   3.139   4.023   2.915 -3.6013 -0.0458  0.7557
 2731TIP3   OH2 8156   2.333   2.107   0.159 -0.2135  0.1296  0.3513
 2731TIP3    H1 8157   2.340   2.014   0.182  1.2751 -0.0368 -0.6876
 2731TIP3    H2 8158   2.247   2.133   0.193 -0.2366 -1.3595  1.5559
 2732TIP3   OH2 8159   3.040   5.538   4.758  0.1694 -0.0895  0.0744
 2732TIP3    H1 8160   2.987   5.614   4.782  0.2143 -0.8014  2.7206
 2732TIP3    H2 8161   3.063   5.497   4.842  1.2278 -2.2912 -1.2021
 2733TIP3   OH2 8162   3.240   2.640   0.808 -0.0691 -0.3307 -0.2195
 2733TIP3    H1 8163   3.155   2.639   0.764 -0.6089 -1.5551  0.7922
 2733TIP3    H2 8164   3.238   2.564   0.867  0.7195  1.0802  1.7259
 2734TIP3   OH2 8165   1.009   5.571   0.595 -0.0730  0.3327 -0.1730
 2734TIP3    H1 8166   1.049   5.484   0.595  0.5978  0.6315 -1.0865
 2734TIP3    H2 8167   0.957   5.573   0.676  0.9599 -0.4325  0.5421
 2735TIP3   OH2 8168   4.862   1.528   1.890 -0.1321 -0.4476  0.6299
 2735TIP3    H1 8169   4.783   1.528   1.944 -1.4156 -2.6846 -1.0634
 2735TIP3    H2 8170   4.867   1.617   1.855 -1.5570 -0.0834  1.2883
 2736TIP3   OH2 8171   5.527   1.930   2.227 -0.0695  0.1141  0.6704
 2736TIP3    H1 8172   5.463   1.937   2.156  2.1722  1.5809 -1.3740
 2736TIP3    H2 8173   5.495   1.990   2.295 -0.6586  1.1522 -0.4949
 2737TIP3   OH2 8174   3.503   0.306   5.136 -0.1306 -0.1364 -0.3020
 2737TIP3    H1 8175   3.410   0.306   5.113 -0.1348  0.2621 -0.2806
 2737TIP3    H2 8176   3.535   0.222   5.102 -0.9188 -1.1805  1.4225
 2738TIP3   OH2 8177   3.349   1.618   3.983  0.0029  0.0394  0.2238
 2738TIP3    H1 8178   3.377   1.590   4.070  0.7979  0.4581  0.1130
 2738TIP3    H2 8179   3.258   1.589   3.976  0.4669 -1.5826  0.5131
 2739TIP3   OH2 8180   5.728   0.788   5.279  0.2750  0.1016  0.0515
 2739TIP3    H1 8181   5.648   0.827   5.312  0.6489  0.5169  0.4847
 2739TIP3    H2 8182   5.707   0.761   5.189 -0.3856  0.0722  0.2105
 2740TIP3   OH2 8183   1.455   4.760   3.395  0.1575  0.5825 -0.4815
 2740TIP3    H1 8184   1.365   4.740   3.371  0.1711  2.5568 -2.5001
 2740TIP3    H2 8185   1.449   4.840   3.448  0.7316  0.9651 -0.9760
 2741TIP3   OH2 8186   0.518   3.320   1.764 -0.1092  0.1428  0.4440
 2741TIP3    H1 8187   0.447   3.258   1.778 -0.3254  0.4320  0.6588
 2741TIP3    H2 8188   0.552   3.299   1.677  0.4191 -0.8562  0.8815
 2742TIP3   OH2 8189   1.843   5.599   1.613  0.4098 -0.5316 -0.0452
 2742TIP3    H1 8190   1.898   5.526   1.642  0.4461 -0.3606  0.3094
 2742TIP3    H2 8191   1.856   5.602   1.518  2.3481  0.5704  0.1993
 2743TIP3   OH2 8192   7.130   1.098   4.633  0.2117 -0.0546  0.3369
 2743TIP3    H1 8193   7.205   1.156   4.624 -0.5028  0.7075 -1.0037
 2743TIP3    H2 8194   7.129   1.074   4.726  1.8732  0.2180  0.4412
 2744TIP3   OH2 8195   3.013   1.465  -0.001  0.3732  0.1553 -0.6608
 2744TIP3    H1 8196   3.043   1.435   0.085  0.4539 -1.0966 -1.1107
 2744TIP3    H2 8197   2.990   1.557   0.013  1.2293  0.2230  0.4880
 2745TIP3   OH2 8198   1.547   0.213   5.076 -0.2978 -0.2048 -0.0408
 2745TIP3    H1 8199   1.491   0.201   5.000 -1.6871 -1.5411  1.1430
 2745TIP3    H2 8200   1.497   0.270   5.134  0.9632  1.2252 -0.2659
 2746TIP3   OH2 8201   5.815   1.697   5.403 -0.4072  0.2770 -0.1903
 2746TIP3    H1 8202   5.783   1.787   5.399  0.0702  0.4150 -1.7010
 2746TIP3    H2 8203   5.754   1.652   5.461 -1.8589  1.1120 -1.0004
 2747TIP3   OH2 8204   2.420   2.253   3.001 -0.3625 -0.0938 -0.4934
 2747TIP3    H1 8205   2.468   2.241   2.919 -1.0837 -0.4577 -0.8780
 2747TIP3    H2 8206   2.376   2.337   2.992  1.3841  0.9842  0.4922
 2748TIP3   OH2 8207   3.403   0.806   3.933 -0.0306  0.2713  0.2717
 2748TIP3    H1 8208   3.488   0.841   3.905  0.4824  0.2270  1.6966
 2748TIP3    H2 8209   3.368   0.763   3.855  1.7015 -0.5430 -0.1086
 2749TIP3   OH2 8210   3.862   5.868   4.959 -0.0782 -0.1656 -0.1663
 2749TIP3    H1 8211   3.906   5.804   5.015  2.4510  1.6758  0.1024
 2749TIP3    H2 8212   3.808   5.919   5.019 -0.0156 -0.3341  0.0338
 2750TIP3   OH2 8213   5.906   3.289   5.410 -0.0487  0.1960 -0.2111
 2750TIP3    H1 8214   5.964   3.365   5.416  2.0843 -1.3427 -0.2898
 2750TIP3    H2 8215   5.916   3.245   5.494 -0.7176 -0.3641 -0.4205
 2751TIP3   OH2 8216   2.193   4.580   0.227 -0.3501  0.1924  0.2166
 2751TIP3    H1 8217   2.260   4.544   0.286 -0.5947  0.0827  0.4282
 2751TIP3    H2 8218   2.133   4.507   0.212 -1.4426  0.7795  1.4940
 2752TIP3   OH2 8219   1.486   5.296   0.477 -0.1007 -0.1296  0.3539
 2752TIP3    H1 8220   1.427   5.246   0.421 -1.1792  0.8843  0.5152
 2752TIP3    H2 8221   1.573   5.281   0.442 -0.6594 -0.2119 -1.0514
 2753TIP3   OH2 8222   3.469   3.606   0.624 -0.1709  0.4140  0.3753
 2753TIP3    H1 8223   3.499   3.603   0.715 -0.8569 -0.0772  0.5885
 2753TIP3    H2 8224   3.410   3.681   0.620 -0.7575 -0.0393  0.5262
 2754TIP3   OH2 8225   0.084   0.990   2.148  0.2612 -0.0825 -0.6419
 2754TIP3    H1 8226   0.095   1.002   2.053  0.8066 -0.3005 -0.6105
 2754TIP3    H2 8227   0.009   1.045   2.170  1.1315  1.2818 -0.9295
 2755TIP3   OH2 8228   6.933   6.237   5.288  0.4888 -0.3217  0.3547
 2755TIP3    H1 8229   6.993   6.180   5.337  0.5484 -1.2065 -0.7136
 2755TIP3    H2 8230   6.857   6.246   5.345  0.2505 -1.9215  0.3300
 2756TIP3   OH2 8231   5.051   6.413   4.110  0.0127 -0.0091 -0.4165
 2756TIP3    H1 8232   5.090   6.330   4.087  0.4240  0.2250 -0.5631
 2756TIP3    H2 8233   5.063   6.468   4.033  0.1809  0.3416 -0.1435
 2757TIP3   OH2 8234   0.642   4.011   5.150  0.1699  0.3438  0.7631
 2757TIP3    H1 8235   0.657   3.925   5.190 -2.2310 -0.8961 -0.7172
 2757TIP3    H2 8236   0.704   4.015   5.077 -0.7947 -0.9355 -0.1790
 2758TIP3   OH2 8237   1.889   4.371   2.394  0.1826 -0.1222  0.4053
 2758TIP3    H1 8238   1.843   4.452   2.374  0.3371  0.1253  1.0060
 2758TIP3    H2 8239   1.856   4.346   2.480  1.6311  0.4214  1.1556
 2759TIP3   OH2 8240   2.671   5.576   3.375  0.1488  0.3523 -0.0282
 2759TIP3    H1 8241   2.747   5.530   3.411  1.3972  1.2349 -1.4404
 2759TIP3    H2 8242   2.599   5.513   3.385  1.5239 -1.4159 -0.6771
 2760TIP3   OH2 8243   3.056   2.467   0.037  0.5272  0.4408  0.8105
 2760TIP3    H1 8244   3.125   2.529   0.014  1.6626 -0.8590  0.5877
 2760TIP3    H2 8245   3.084   2.384  -0.001 -0.4022 -0.4811  2.0290
 2761TIP3   OH2 8246   6.178   5.523   1.380  0.3055  0.1765  0.1423
 2761TIP3    H1 8247   6.237   5.585   1.423  1.6396 -0.6897 -0.3840
 2761TIP3    H2 8248   6.232   5.481   1.313 -1.2311  0.1992 -1.1809
 2762TIP3   OH2 8249   5.648   2.955   3.919 -0.1712  0.1379 -0.0254
 2762TIP3    H1 8250   5.601   2.973   4.000  2.1057  1.7803  1.0616
 2762TIP3    H2 8251   5.592   2.991   3.850 -1.3111  0.3788  0.9862
 2763TIP3   OH2 8252   1.157   3.395   4.894 -0.0512 -0.1180  0.4634
 2763TIP3    H1 8253   1.244   3.426   4.919 -0.4967 -0.1353  2.1641
 2763TIP3    H2 8254   1.171   3.347   4.812  1.5762 -0.3169  0.8272
 2764TIP3   OH2 8255   4.413   2.897   2.673 -0.5685 -0.1913 -0.2423
 2764TIP3    H1 8256   4.339   2.845   2.706  0.7591 -2.5877 -0.7999
 2764TIP3    H2 8257   4.489   2.841   2.686  1.0883  1.9136 -0.3466
 2765TIP3   OH2 8258   6.197   4.599   0.858 -0.4658  0.7729  0.4582
 2765TIP3    H1 8259   6.187   4.566   0.947 -0.7179  2.5128  1.1113
 2765TIP3    H2 8260   6.287   4.631   0.855  0.4529 -1.6176 -0.7963
 2766TIP3   OH2 8261   3.925   2.312   3.006 -0.2877  0.6700  0.5228
 2766TIP3    H1 8262   3.853   2.267   3.049  0.7036 -1.0850  0.4420
 2766TIP3    H2 8263   3.884   2.362   2.936 -1.2707 -3.1616 -1.9674
 2767TIP3   OH2 8264   4.908   0.567   3.787  0.0108 -0.1762 -0.3149
 2767TIP3    H1 8265   4.827   0.583   3.836 -0.3968  0.5188 -1.1908
 2767TIP3    H2 8266   4.978   0.582   3.851 -0.5168  0.4639  0.1296
 2768TIP3   OH2 8267   6.572   5.582   5.291 -0.3652  0.3704  0.4640
 2768TIP3    H1 8268   6.491   5.535   5.270  0.3824 -0.0470 -1.8030
 2768TIP3    H2 8269   6.594   5.555   5.380 -0.8715 -2.2754 -0.1390
 2769TIP3   OH2 8270   4.241   1.543   4.445  0.1718  0.1214 -0.4537
 2769TIP3    H1 8271   4.282   1.520   4.528  0.6687  1.8673 -0.1762
 2769TIP3    H2 8272   4.311   1.580   4.392 -0.1076 -1.1047 -1.7378
 2770TIP3   OH2 8273   4.326   5.962   5.392  0.3691 -0.1186 -0.3468
 2770TIP3    H1 8274   4.357   5.872   5.394  0.5876 -0.0347  0.5577
 2770TIP3    H2 8275   4.402   6.015   5.416  0.4008  0.3650 -1.4468
 2771TIP3   OH2 8276   3.361   0.374   4.252 -0.3336 -0.0718  0.0651
 2771TIP3    H1 8277   3.439   0.384   4.308 -1.9219 -1.2882  2.6741
 2771TIP3    H2 8278   3.374   0.290   4.208 -0.5146 -0.6994  1.1644
 2772TIP3   OH2 8279   1.858   6.492   3.724 -0.5051 -0.1529 -0.6342
 2772TIP3    H1 8280   1.857   6.503   3.819 -1.2047  0.6013 -0.7259
 2772TIP3    H2 8281   1.834   6.400   3.710 -3.6409  0.5166 -0.1908
 2773TIP3   OH2 8282   2.268   6.753   0.556  0.5987  0.3562  0.1349
 2773TIP3    H1 8283   2.305   6.700   0.626 -0.2100  0.9159  1.0146
 2773TIP3    H2 8284   2.313   6.724   0.477 -0.4573 -2.2955  0.3991
 2774TIP3   OH2 8285   6.769   2.945   2.928 -0.3348 -0.4046 -0.3544
 2774TIP3    H1 8286   6.738   3.035   2.916 -0.3392 -0.1882  1.0551
 2774TIP3    H2 8287   6.856   2.955   2.967 -0.8660 -0.9797  1.0437
 2775TIP3   OH2 8288   6.867   2.304   3.136 -0.3378  0.2347 -0.2857
 2775TIP3    H1 8289   6.809   2.292   3.061  0.5868 -0.7655 -0.8666
 2775TIP3    H2 8290   6.953   2.275   3.105  0.1243  0.1181  1.0514
 2776TIP3   OH2 8291   6.883   1.583   2.194  0.4417 -0.3055 -0.3097
 2776TIP3    H1 8292   6.873   1.677   2.185  0.6787 -0.2609 -0.1305
 2776TIP3    H2 8293   6.915   1.571   2.284  1.9562 -0.4316 -0.8382
 2777TIP3   OH2 8294   2.465   3.601   1.015 -0.4062  0.0074  0.3392
 2777TIP3    H1 8295   2.536   3.622   1.076 -0.7027  0.6930  0.4462
 2777TIP3    H2 8296   2.405   3.675   1.021 -0.8495 -0.3071 -0.1768
 2778TIP3   OH2 8297   5.095   5.919   5.287  0.0753 -0.3181  0.2131
 2778TIP3    H1 8298   5.091   5.934   5.382 -0.2568 -1.3538  0.3851
 2778TIP3    H2 8299   5.023   5.971   5.252 -0.3364 -0.5727  0.6441
 2779TIP3   OH2 8300   6.723   2.514   2.775 -0.2338  0.2055  0.3738
 2779TIP3    H1 8301   6.706   2.447   2.708  0.4502 -0.8832  1.2451
 2779TIP3    H2 8302   6.817   2.506   2.793 -0.1265  1.4643  0.4473
 2780TIP3   OH2 8303   6.808   4.751   2.028  0.0647 -0.3842 -0.3442
 2780TIP3    H1 8304   6.851   4.813   2.086  0.3608 -0.9656  0.0669
 2780TIP3    H2 8305   6.782   4.803   1.952  0.6419  0.1661 -0.1726
 2781TIP3   OH2 8306   6.812   2.488   0.557 -0.0580  0.1302 -0.0102
 2781TIP3    H1 8307   6.740   2.485   0.494 -0.9603  0.3932  0.9803
 2781TIP3    H2 8308   6.792   2.419   0.620 -0.1534  1.0464  0.9940
 2782TIP3   OH2 8309   1.141   3.041   5.068 -0.0135  0.3428 -0.2670
 2782TIP3    H1 8310   1.051   3.055   5.098 -0.0062  2.0354 -0.9420
 2782TIP3    H2 8311   1.133   3.026   4.974  0.4678  1.3236 -0.4714
 2783TIP3   OH2 8312   2.468   1.263   5.633  0.3702 -0.1997  0.3992
 2783TIP3    H1 8313   2.557   1.231   5.647 -0.1269 -1.1351  1.6048
 2783TIP3    H2 8314   2.416   1.218   5.699 -1.1096 -0.1318 -0.6745
 2784TIP3   OH2 8315   1.436   5.603   1.525 -0.4345  0.0664  0.3458
 2784TIP3    H1 8316   1.417   5.510   1.542 -0.9256  0.0747 -0.1464
 2784TIP3    H2 8317   1.465   5.606   1.434 -2.0163  0.6033 -0.1795
 2785TIP3   OH2 8318   6.848   4.552   0.316 -0.2451 -0.0911  0.1997
 2785TIP3    H1 8319   6.802   4.612   0.257 -0.8180  0.6859  1.4034
 2785TIP3    H2 8320   6.833   4.588   0.404  0.1453 -1.5079  0.8768
 2786TIP3   OH2 8321   4.651   1.996   3.225  0.2208  0.0066 -0.0241
 2786TIP3    H1 8322   4.652   1.902   3.208  1.1907 -0.1482  0.8001
 2786TIP3    H2 8323   4.613   2.004   3.313 -1.7673  0.5575 -0.8741
 2787TIP3   OH2 8324   7.219   0.328   1.152  0.4420 -0.0760 -0.3233
 2787TIP3    H1 8325   7.141   0.374   1.121  1.3553  1.1225 -0.9305
 2787TIP3    H2 8326   7.185   0.253   1.202 -1.0837 -0.2862 -1.6070
 2788TIP3   OH2 8327   4.056   4.947   5.664 -0.1219 -0.1247  0.1222
 2788TIP3    H1 8328   4.061   4.852   5.659 -1.1243 -0.2040  0.4011
 2788TIP3    H2 8329   4.145   4.975   5.685  0.0706 -1.0314  0.5433
 2789TIP3   OH2 8330   4.346   6.557   0.690 -0.2603  0.2573  0.9359
 2789TIP3    H1 8331   4.339   6.499   0.765 -0.0223 -0.5284  0.3666
 2789TIP3    H2 8332   4.259   6.557   0.650 -0.6506  1.4246  1.7317
 2790TIP3   OH2 8333   1.912   1.016   3.652 -0.4407  0.2780  0.0924
 2790TIP3    H1 8334   1.997   1.047   3.682 -0.2456 -0.1191 -0.0370
 2790TIP3    H2 8335   1.910   1.037   3.559 -0.3723  0.0489  0.0380
 2791TIP3   OH2 8336   6.051   6.115   1.372  0.1858 -0.0668 -1.0337
 2791TIP3    H1 8337   6.089   6.067   1.298 -0.6654  0.1406 -1.6243
 2791TIP3    H2 8338   6.113   6.186   1.389  0.7251 -0.5203 -1.1032
 2792TIP3   OH2 8339   4.480   1.359   4.202 -0.4930 -0.0136  0.3577
 2792TIP3    H1 8340   4.495   1.444   4.243  1.4466 -0.2851  0.2671
 2792TIP3    H2 8341   4.532   1.361   4.122  1.1440 -1.9659  1.2908
 2793TIP3   OH2 8342   3.040   2.583   1.260 -0.4831  0.3189  0.0571
 2793TIP3    H1 8343   2.953   2.620   1.278 -1.0562 -0.2185 -1.3923
 2793TIP3    H2 8344   3.098   2.624   1.324 -1.5346  1.8386  0.0922
 2794TIP3   OH2 8345   5.671   4.005   1.303  0.2834  0.1463  0.2154
 2794TIP3    H1 8346   5.641   4.054   1.380 -0.1664 -0.2283  0.2832
 2794TIP3    H2 8347   5.679   3.915   1.334  1.6464  0.2605  0.2384
 2795TIP3   OH2 8348   1.614   0.992   0.915 -0.0390 -0.0799 -0.3960
 2795TIP3    H1 8349   1.670   0.927   0.872 -0.7337 -0.9424 -0.0444
 2795TIP3    H2 8350   1.557   1.024   0.845  0.5752  0.4541 -0.6551
 2796TIP3   OH2 8351   3.739   2.995   5.229 -0.5364  0.0412 -0.1582
 2796TIP3    H1 8352   3.661   2.943   5.244 -0.0062 -0.6930  0.1338
 2796TIP3    H2 8353   3.795   2.939   5.175  1.0691 -0.7498  2.1596
 2797TIP3   OH2 8354   6.993   4.611   0.822  0.2053 -0.0583 -0.2167
 2797TIP3    H1 8355   7.027   4.579   0.738 -1.1210 -1.6883 -0.1968
 2797TIP3    H2 8356   6.899   4.593   0.818  0.0745  0.0748  1.5056
 2798TIP3   OH2 8357   5.586   0.803   2.495 -0.2227 -0.2480  0.6904
 2798TIP3    H1 8358   5.591   0.733   2.430  2.9790  2.8553 -2.9781
 2798TIP3    H2 8359   5.618   0.764   2.576  3.8700 -2.6622 -1.7226
 2799TIP3   OH2 8360   7.082   6.095   4.826  0.3927 -0.6412 -0.0946
 2799TIP3    H1 8361   7.113   6.027   4.767  1.1645 -0.0955 -0.3408
 2799TIP3    H2 8362   7.100   6.061   4.914  0.0106 -1.0994 -0.1924
 2800TIP3   OH2 8363   0.230   2.839   0.832  0.0576  0.1613  0.2431
 2800TIP3    H1 8364   0.211   2.825   0.739  0.7342 -0.6165  0.2022
 2800TIP3    H2 8365   0.184   2.919   0.855 -0.2882  0.2472 -0.7151
 2801TIP3   OH2 8366   0.500   0.993   5.751  0.0533  0.1666  0.6400
 2801TIP3    H1 8367   0.519   0.903   5.725 -1.0891 -0.2434  1.1291
 2801TIP3    H2 8368   0.420   0.986   5.803  0.1023  1.4365  0.9190
 2802TIP3   OH2 8369   5.726   0.963   2.857  0.0285 -0.0118 -0.2920
 2802TIP3    H1 8370   5.712   0.879   2.813 -1.5507  0.6035 -1.0514
 2802TIP3    H2 8371   5.705   0.946   2.949 -0.2544 -0.4640 -0.4386
 2803TIP3   OH2 8372   3.112   5.597   0.090 -0.2414  0.0484  0.6497
 2803TIP3    H1 8373   3.168   5.640   0.026  0.6431 -2.3408 -0.2736
 2803TIP3    H2 8374   3.172   5.553   0.150 -1.1044  0.0274  1.5231
 2804TIP3   OH2 8375   2.445   3.479   3.375 -0.2187 -0.0635  0.0311
 2804TIP3    H1 8376   2.521   3.469   3.432 -0.1211  1.0132  0.1078
 2804TIP3    H2 8377   2.386   3.536   3.423 -0.4418  0.2984 -0.6565
 2805TIP3   OH2 8378   3.124   2.149   4.063  0.0727  0.0531  0.3859
 2805TIP3    H1 8379   3.143   2.224   4.120 -1.1109  0.7419 -0.0911
 2805TIP3    H2 8380   3.205   2.136   4.013 -0.7582  3.4513 -2.2497
 2806TIP3   OH2 8381   2.217   1.604   1.769  0.4351  0.0840 -0.0866
 2806TIP3    H1 8382   2.149   1.610   1.837  0.2807 -0.2904 -0.2019
 2806TIP3    H2 8383   2.176   1.644   1.691 -0.3849 -1.8068 -0.6975
 2807TIP3   OH2 8384   5.098   3.686   3.375  0.4340 -0.2995  0.4031
 2807TIP3    H1 8385   5.039   3.705   3.448  0.0915 -0.3169  0.1313
 2807TIP3    H2 8386   5.159   3.759   3.374  0.3310 -0.2087  0.5941
 2808TIP3   OH2 8387   2.882   2.241   4.976 -0.3611 -0.0335  0.1872
 2808TIP3    H1 8388   2.846   2.190   4.903 -1.2076  0.3370  0.3230
 2808TIP3    H2 8389   2.817   2.310   4.990  0.0365  0.1905  0.9763
 2809TIP3   OH2 8390   3.874   1.015   2.739 -0.0609  0.1633  1.1697
 2809TIP3    H1 8391   3.954   1.033   2.689 -0.0308  0.4587  1.3214
 2809TIP3    H2 8392   3.883   1.068   2.818 -0.5130  0.3829  1.0819
 2810TIP3   OH2 8393   1.845   2.684   3.882 -0.1027  0.2885 -0.7009
 2810TIP3    H1 8394   1.761   2.637   3.888  0.1474 -0.1853 -0.8879
 2810TIP3    H2 8395   1.908   2.617   3.857  1.3655 -0.6172  4.2136
 2811TIP3   OH2 8396   0.920   4.239   5.494  0.4766  0.4424  0.0148
 2811TIP3    H1 8397   0.882   4.237   5.406  2.1120 -3.0951 -0.7777
 2811TIP3    H2 8398   0.871   4.172   5.542  1.6822  0.0871  0.7878
 2812TIP3   OH2 8399   6.813   1.754   0.405  0.1069  0.0945 -0.3884
 2812TIP3    H1 8400   6.904   1.768   0.378  0.0084  0.9236 -0.3132
 2812TIP3    H2 8401   6.821   1.700   0.484  0.4944 -0.4642 -0.8016
 2813TIP3   OH2 8402   2.242   2.924   4.551  0.1368  0.1688  0.0178
 2813TIP3    H1 8403   2.274   2.971   4.474  0.5428  0.8802  0.6067
 2813TIP3    H2 8404   2.189   2.853   4.515  0.9710 -0.0013 -0.9415
 2814TIP3   OH2 8405   3.452   4.447   2.097 -0.0796  0.0321 -0.1499
 2814TIP3    H1 8406   3.402   4.435   2.178  0.0767  0.4076  0.0036
 2814TIP3    H2 8407   3.521   4.381   2.101  1.8078  1.9605  1.4846
 2815TIP3   OH2 8408   3.061   0.704   2.441 -0.0684 -0.0283 -0.4723
 2815TIP3    H1 8409   3.060   0.613   2.471 -1.3904  0.1010 -0.0596
 2815TIP3    H2 8410   3.141   0.741   2.479  0.3002 -0.9150 -0.3540
 2816TIP3   OH2 8411   3.498   0.244   1.524 -0.3019  0.1676 -0.5541
 2816TIP3    H1 8412   3.535   0.332   1.523 -1.3276  0.6593  0.6379
 2816TIP3    H2 8413   3.439   0.241   1.449  0.3072  0.2171 -1.0410
 2817TIP3   OH2 8414   2.524   4.896   2.495  0.2963  0.2502 -0.0194
 2817TIP3    H1 8415   2.511   4.931   2.583  0.8166  0.2257  0.0702
 2817TIP3    H2 8416   2.516   4.801   2.506 -2.4000  0.3563 -0.4793
 2818TIP3   OH2 8417   1.052   5.745   3.785 -0.0687 -0.0241 -0.7038
 2818TIP3    H1 8418   1.000   5.666   3.768 -0.5189  0.5168 -1.9361
 2818TIP3    H2 8419   1.081   5.774   3.699 -1.7265  2.3715 -0.5558
 2819TIP3   OH2 8420   0.941   1.690   1.850  0.0331 -0.7289 -0.4229
 2819TIP3    H1 8421   0.929   1.605   1.807  0.6505 -2.6065  2.7409
 2819TIP3    H2 8422   1.035   1.705   1.847 -0.2004  0.6178 -2.1814
 2820TIP3   OH2 8423   3.543   6.743   2.703  0.2101 -0.4011 -0.0712
 2820TIP3    H1 8424   3.592   6.687   2.764 -0.8681 -0.9376  0.3164
 2820TIP3    H2 8425   3.594   6.739   2.622  0.0378 -2.1628 -0.1366
 2821TIP3   OH2 8426   3.958   6.165   1.366 -0.1106  0.1542  0.4725
 2821TIP3    H1 8427   3.934   6.257   1.362  1.5454  0.6187  0.3929
 2821TIP3    H2 8428   3.990   6.145   1.278 -1.2797 -0.7548  0.2353
 2822TIP3   OH2 8429   2.478   1.490   3.258  0.0322 -0.3582  0.0870
 2822TIP3    H1 8430   2.387   1.489   3.227  0.2105  0.4464 -0.4965
 2822TIP3    H2 8431   2.524   1.428   3.201  0.6690  2.1759 -2.3562
 2823TIP3   OH2 8432   4.259   5.953   1.857 -0.3458  0.4985 -0.0584
 2823TIP3    H1 8433   4.334   5.976   1.803 -0.5844  0.8013 -0.2648
 2823TIP3    H2 8434   4.217   6.037   1.876  1.6259  0.8967  3.4533
 2824TIP3   OH2 8435   6.194   2.282   3.104  0.2365 -0.1313  0.2369
 2824TIP3    H1 8436   6.168   2.241   3.022  2.3150  0.5083 -0.8190
 2824TIP3    H2 8437   6.287   2.302   3.092  0.2523  1.2502  2.2270
 2825TIP3   OH2 8438   0.238   0.029   1.108 -0.3948  0.1289 -0.0175
 2825TIP3    H1 8439   0.155  -0.019   1.104  0.2094 -1.3435  2.5803
 2825TIP3    H2 8440   0.283   0.006   1.027 -1.8619 -0.2658 -0.7665
 2826TIP3   OH2 8441   5.463   0.667   5.162  0.4725  0.1118 -0.5723
 2826TIP3    H1 8442   5.461   0.740   5.100  0.4253 -0.7170 -1.5644
 2826TIP3    H2 8443   5.388   0.682   5.219  1.0310  1.3759 -0.1099
 2827TIP3   OH2 8444   2.749   6.191   1.306  0.4062 -0.6287 -0.5290
 2827TIP3    H1 8445   2.814   6.250   1.344 -0.6589  0.9922 -1.1518
 2827TIP3    H2 8446   2.756   6.111   1.358  0.4965  0.7372  1.6759
 2828TIP3   OH2 8447   4.827   0.578   4.056  0.2902  0.3261 -0.2986
 2828TIP3    H1 8448   4.880   0.557   4.133  1.2163  1.7750 -0.4963
 2828TIP3    H2 8449   4.748   0.619   4.093  0.0921 -0.2431 -0.0761
 2829TIP3   OH2 8450   7.138   1.489   1.570  0.1168  0.4587  0.1268
 2829TIP3    H1 8451   7.182   1.504   1.487  0.6538  0.8509  0.4754
 2829TIP3    H2 8452   7.142   1.573   1.616  0.3378  0.1023  0.7836
 2830TIP3   OH2 8453   2.318   3.465   1.260 -0.1036  0.2146  0.4573
 2830TIP3    H1 8454   2.229   3.433   1.248 -1.1089  2.4644  1.2678
 2830TIP3    H2 8455   2.327   3.536   1.196 -0.4002  2.6682  2.9619
 2831TIP3   OH2 8456   0.975   1.353   5.859 -0.0199  0.0515  0.2737
 2831TIP3    H1 8457   0.921   1.371   5.936  0.7997 -0.2550  0.9434
 2831TIP3    H2 8458   0.996   1.440   5.823 -2.8919  0.1680 -1.4514
 2832TIP3   OH2 8459   4.540   1.204   5.832  0.4576  0.4726  0.2232
 2832TIP3    H1 8460   4.600   1.265   5.874  0.2599 -0.8511  2.6385
 2832TIP3    H2 8461   4.466   1.197   5.892 -1.0019  0.1962 -1.4978
 2833TIP3   OH2 8462   4.463   6.487   2.941  0.2303  0.0732 -0.2369
 2833TIP3    H1 8463   4.498   6.401   2.918 -0.7171 -0.7270  1.1198
 2833TIP3    H2 8464   4.447   6.481   3.036 -1.4695  1.1148 -0.4109
 2834TIP3   OH2 8465   6.672   2.966   1.248 -0.2454 -0.4682 -0.3673
 2834TIP3    H1 8466   6.671   2.941   1.156 -0.1257 -0.9375 -0.2416
 2834TIP3    H2 8467   6.677   2.884   1.296 -2.5183 -0.4009  0.1303
 2835TIP3   OH2 8468   1.082   4.817   2.682 -0.1432  0.5958 -0.2189
 2835TIP3    H1 8469   1.117   4.789   2.597  1.2524  0.2587  0.4534
 2835TIP3    H2 8470   1.022   4.747   2.707 -0.5933  0.7162 -0.9379
 2836TIP3   OH2 8471   5.329   1.166   1.882  0.1021  0.3292  0.6418
 2836TIP3    H1 8472   5.393   1.192   1.949 -0.1070  0.2557  0.8730
 2836TIP3    H2 8473   5.310   1.074   1.902  0.1957  0.2475  0.3539
 2837TIP3   OH2 8474   6.343   6.187   4.686 -0.1394 -0.3462  0.1640
 2837TIP3    H1 8475   6.411   6.159   4.625  0.2672  0.1267  0.3920
 2837TIP3    H2 8476   6.390   6.207   4.767 -0.4757  0.4391  0.1780
 2838TIP3   OH2 8477   6.366   2.926   3.354  0.6306 -0.1374  0.1270
 2838TIP3    H1 8478   6.306   2.945   3.282 -0.0678 -1.3766  0.3377
 2838TIP3    H2 8479   6.451   2.955   3.323  0.3055 -0.4745 -1.1276
 2839TIP3   OH2 8480   4.582   3.636   3.165 -0.1700 -0.1521  0.3063
 2839TIP3    H1 8481   4.629   3.684   3.234 -1.5066  1.2263  0.3239
 2839TIP3    H2 8482   4.559   3.704   3.101 -0.0933 -1.1913 -0.8430
 2840TIP3   OH2 8483   6.940   3.317   0.082  0.1193 -0.4858  0.2746
 2840TIP3    H1 8484   6.856   3.359   0.068  0.0613 -0.8755 -0.6648
 2840TIP3    H2 8485   6.998   3.356   0.017  0.9427  0.4745  1.5348
 2841TIP3   OH2 8486   6.831   4.967   2.544 -0.1249 -0.1543  0.1237
 2841TIP3    H1 8487   6.875   4.941   2.625  1.1460  3.4675  0.7830
 2841TIP3    H2 8488   6.902   4.980   2.481 -0.9495 -1.1023 -1.0595
 2842TIP3   OH2 8489   2.538   0.259   5.420  0.0773 -0.3673  0.7509
 2842TIP3    H1 8490   2.517   0.352   5.413  0.7716 -0.3338 -2.2980
 2842TIP3    H2 8491   2.458   0.214   5.392  0.2332 -0.6427  0.7420
 2843TIP3   OH2 8492   5.096   2.639   2.911  0.8278 -0.7262  0.0912
 2843TIP3    H1 8493   5.176   2.691   2.920  0.9563 -1.0755  1.1223
 2843TIP3    H2 8494   5.123   2.550   2.933  0.8428 -1.4642 -2.6466
 2844TIP3   OH2 8495   1.328   5.107   4.616 -0.4146 -0.1733 -0.0639
 2844TIP3    H1 8496   1.275   5.176   4.657 -0.9637 -1.2790  1.1642
 2844TIP3    H2 8497   1.409   5.106   4.667  0.4020  0.8061 -1.2809
 2845TIP3   OH2 8498   4.263   4.529   0.462  0.6251 -1.2641  0.2152
 2845TIP3    H1 8499   4.341   4.477   0.479  1.3665 -0.0274  0.7783
 2845TIP3    H2 8500   4.293   4.596   0.400  0.1356 -0.5098  0.7836
 2846TIP3   OH2 8501   5.001   2.289   2.840  0.2620 -0.0769 -0.1476
 2846TIP3    H1 8502   4.937   2.259   2.776 -0.4617 -1.1217  1.0230
 2846TIP3    H2 8503   4.949   2.338   2.904  0.8463  0.2362  0.0952
 2847TIP3   OH2 8504   2.496   0.098   5.746 -0.9030 -0.3742  0.3759
 2847TIP3    H1 8505   2.578   0.124   5.704 -1.0878 -0.6435 -0.1623
 2847TIP3    H2 8506   2.448   0.050   5.678 -1.5517 -0.1275  0.6474
 2848TIP3   OH2 8507   4.193   1.653   3.803  0.3701  0.4278  0.4631
 2848TIP3    H1 8508   4.112   1.602   3.796  0.8614 -0.9403  3.4160
 2848TIP3    H2 8509   4.219   1.670   3.712 -2.1376 -0.8151 -0.5703
 2849TIP3   OH2 8510   6.084   1.270   4.118  0.0576  0.3708 -0.0846
 2849TIP3    H1 8511   6.063   1.362   4.105  1.6449  0.9755  1.2330
 2849TIP3    H2 8512   6.174   1.271   4.151 -0.4332 -1.5381  1.5047
 2850TIP3   OH2 8513   2.444   4.370   4.772 -0.0710 -0.3631  0.1386
 2850TIP3    H1 8514   2.454   4.320   4.691  2.0217  0.2011  0.0016
 2850TIP3    H2 8515   2.522   4.348   4.823 -0.1480  1.1796  0.9540
 2851TIP3   OH2 8516   2.667   4.969   3.300 -0.0006 -0.6453  0.2384
 2851TIP3    H1 8517   2.589   4.950   3.351  0.9440  0.3146  2.1427
 2851TIP3    H2 8518   2.714   4.886   3.294 -0.5853 -0.9651  0.0929
 2852TIP3   OH2 8519   1.463   4.178   5.436 -0.0484  0.1654  0.0574
 2852TIP3    H1 8520   1.371   4.150   5.445  0.4122 -1.4317  0.0549
 2852TIP3    H2 8521   1.484   4.165   5.344  0.2370  0.3722  0.0911
 2853TIP3   OH2 8522   7.209   3.637   1.673 -0.0289  0.0080 -0.0173
 2853TIP3    H1 8523   7.144   3.698   1.707 -0.3854 -0.2395 -0.2435
 2853TIP3    H2 8524   7.159   3.580   1.614  0.6714  0.7691 -1.3920
 2854TIP3   OH2 8525   3.859   0.024   2.680  0.0085  0.4047  0.3246
 2854TIP3    H1 8526   3.913   0.029   2.759 -0.2543 -2.4683  0.8016
 2854TIP3    H2 8527   3.902  -0.044   2.627 -0.4433  1.5031 -1.5295
 2855TIP3   OH2 8528   7.187   4.604   5.214 -0.2706  0.3271 -0.2622
 2855TIP3    H1 8529   7.215   4.596   5.123  0.3041  0.4179 -0.0947
 2855TIP3    H2 8530   7.113   4.543   5.222 -1.0623  1.1375 -1.0824
 2856TIP3   OH2 8531   0.626   4.927   4.731  0.0189  0.1213  0.5793
 2856TIP3    H1 8532   0.554   4.864   4.723 -1.2514  1.6293 -0.4969
 2856TIP3    H2 8533   0.584   5.007   4.763  1.0282  1.3155 -0.9722
 2857TIP3   OH2 8534   1.168   6.027   1.559 -0.3943  0.1695  0.0927
 2857TIP3    H1 8535   1.080   6.036   1.523 -0.3798 -1.6707 -0.5446
 2857TIP3    H2 8536   1.213   5.971   1.496  0.8888  0.1754  0.9741
 2858TIP3   OH2 8537   7.004   5.197   3.824  0.3676 -0.1776 -0.0598
 2858TIP3    H1 8538   7.059   5.136   3.874  0.0666 -0.0880  0.3816
 2858TIP3    H2 8539   6.936   5.224   3.886 -0.3167 -0.4733 -0.6759
 2859TIP3   OH2 8540   2.330   6.371   2.441  0.1632  0.1346  0.7184
 2859TIP3    H1 8541   2.319   6.462   2.413 -1.5351 -0.7079 -1.6466
 2859TIP3    H2 8542   2.289   6.367   2.527 -2.5050  1.0282 -0.4095
 2860TIP3   OH2 8543   2.164   3.520   1.862 -0.0283 -0.0949  0.1403
 2860TIP3    H1 8544   2.258   3.535   1.849  0.2595 -1.9185 -0.2624
 2860TIP3    H2 8545   2.134   3.594   1.914  1.7293  0.3056  0.6324
 2861TIP3   OH2 8546   5.875   2.657   0.496 -0.4949 -0.2164 -0.0088
 2861TIP3    H1 8547   5.809   2.672   0.428 -0.6302  1.5111  0.4426
 2861TIP3    H2 8548   5.825   2.642   0.575 -0.4335  2.1220  0.5472
 2862TIP3   OH2 8549   5.706   1.333   4.787 -0.0969 -0.4640  0.5776
 2862TIP3    H1 8550   5.649   1.262   4.758  0.4029 -1.0760  1.0601
 2862TIP3    H2 8551   5.721   1.385   4.708 -1.8061  0.0760  0.5696
 2863TIP3   OH2 8552   6.690   2.373   1.043  0.0347 -0.2803  0.1195
 2863TIP3    H1 8553   6.679   2.398   1.135 -0.7606 -0.3431  0.0479
 2863TIP3    H2 8554   6.602   2.348   1.015  0.0941  0.6679 -0.9460
 2864TIP3   OH2 8555   4.526   4.546   5.579  0.4358  0.6098 -0.4124
 2864TIP3    H1 8556   4.460   4.511   5.638  0.3328  0.5641 -0.5572
 2864TIP3    H2 8557   4.492   4.531   5.491  0.2132  1.4190 -0.4681
 2865TIP3   OH2 8558   2.971   5.609   0.496  0.3740  0.7914  0.1066
 2865TIP3    H1 8559   3.042   5.636   0.438  0.4280  1.2874  0.3980
 2865TIP3    H2 8560   3.015   5.584   0.577  0.3635 -0.5697 -0.2780
 2866TIP3   OH2 8561   1.345   4.314   1.079 -0.5880  0.3413 -0.0340
 2866TIP3    H1 8562   1.349   4.221   1.101 -1.9206  0.8703  2.9338
 2866TIP3    H2 8563   1.437   4.343   1.081 -0.3455 -0.3980  1.9060
 2867TIP3   OH2 8564   0.468   5.914   1.313 -0.2330 -0.2250  0.5040
 2867TIP3    H1 8565   0.415   5.954   1.243  0.4622  0.0875  0.1454
 2867TIP3    H2 8566   0.513   5.841   1.270 -0.5900 -0.6761  0.8803
 2868TIP3   OH2 8567   1.417   2.418   5.405  0.7127  0.1937  0.3083
 2868TIP3    H1 8568   1.414   2.454   5.493 -0.5623 -2.0949  1.2844
 2868TIP3    H2 8569   1.329   2.384   5.389  1.2130 -0.4162 -1.4202
 2869TIP3   OH2 8570   0.917   0.235   2.020  0.0128 -0.2498 -0.6882
 2869TIP3    H1 8571   0.846   0.212   2.080  0.0273  3.6203  1.1682
 2869TIP3    H2 8572   0.876   0.295   1.957  1.0694 -0.2159 -1.3651
 2870TIP3   OH2 8573   2.137   3.768   1.975 -0.1371  0.0573 -0.0148
 2870TIP3    H1 8574   2.194   3.745   2.048 -1.5353 -1.9384  0.5361
 2870TIP3    H2 8575   2.181   3.842   1.933  2.1074 -0.4814  1.1960
 2871TIP3   OH2 8576   1.966   3.089   5.733  0.3961  0.4892 -0.1237
 2871TIP3    H1 8577   2.057   3.110   5.752 -0.3690  2.6346  1.5134
 2871TIP3    H2 8578   1.953   3.117   5.642  1.3673  0.1118 -0.3856
 2872TIP3   OH2 8579   2.564   3.010   2.554 -0.0505 -0.3373  0.1780
 2872TIP3    H1 8580   2.622   3.028   2.628  0.6955  0.9047 -0.6641
 2872TIP3    H2 8581   2.496   2.953   2.589  0.0207  0.5937  1.9239
 2873TIP3   OH2 8582   0.367   0.801   2.174  0.2551  0.1087 -0.1340
 2873TIP3    H1 8583   0.273   0.783   2.173  0.3427 -0.4492  0.8479
 2873TIP3    H2 8584   0.374   0.886   2.218  0.1533  0.6390 -1.1022
 2874TIP3   OH2 8585   0.321   0.384   5.370  0.2382  0.3046  0.4060
 2874TIP3    H1 8586   0.239   0.337   5.384  1.3814 -2.1984 -0.6564
 2874TIP3    H2 8587   0.368   0.375   5.453  0.6500 -0.9296  0.0579
 2875TIP3   OH2 8588   4.413   1.198   0.570  0.3719  0.1961 -0.4512
 2875TIP3    H1 8589   4.348   1.174   0.504  0.7808 -0.4041 -0.6527
 2875TIP3    H2 8590   4.407   1.128   0.635 -0.8134  1.3719  0.7529
 2876TIP3   OH2 8591   5.677   3.167   2.663 -0.1268 -0.3637 -0.3077
 2876TIP3    H1 8592   5.650   3.203   2.579 -0.8456  0.2187  0.1640
 2876TIP3    H2 8593   5.729   3.237   2.703  1.7233 -1.2688 -0.9789
 2877TIP3   OH2 8594   6.687   2.457   4.845 -0.1915  0.3215  0.2923
 2877TIP3    H1 8595   6.622   2.525   4.828  0.4246  0.5508 -1.3106
 2877TIP3    H2 8596   6.637   2.376   4.854 -0.7223  0.5011 -0.8856
 2878TIP3   OH2 8597   5.917   3.934   4.659  0.0040 -0.1383  0.3725
 2878TIP3    H1 8598   5.993   3.879   4.675 -0.2420 -0.2791  1.0936
 2878TIP3    H2 8599   5.847   3.873   4.636  0.1405  0.0020 -0.4428
 2879TIP3   OH2 8600   1.144   3.270   4.020 -0.4754  0.0705  0.1973
 2879TIP3    H1 8601   1.203   3.240   3.951 -0.2158  0.4833  0.2362
 2879TIP3    H2 8602   1.111   3.354   3.988  0.6289  0.8949  1.1297
 2880TIP3   OH2 8603   5.271   6.315   0.976  0.4189  0.2331 -0.7300
 2880TIP3    H1 8604   5.251   6.327   0.883 -0.3117 -0.6808 -0.7105
 2880TIP3    H2 8605   5.192   6.275   1.013 -0.5791  3.4312  0.9909
 2881TIP3   OH2 8606   4.817   1.075   2.886  0.2073 -0.3496  0.3130
 2881TIP3    H1 8607   4.804   1.004   2.823  0.2368 -0.6739  0.6634
 2881TIP3    H2 8608   4.908   1.101   2.875  0.1426 -0.2379  0.0497
 2882TIP3   OH2 8609   1.844   5.159   3.994  0.0422 -0.1797 -0.6813
 2882TIP3    H1 8610   1.889   5.132   4.075 -1.6026 -1.3523 -0.1023
 2882TIP3    H2 8611   1.820   5.076   3.952 -0.3795  0.4245 -1.6680
 2883TIP3   OH2 8612   3.111   6.747   4.747 -0.6770 -0.1691 -0.0357
 2883TIP3    H1 8613   3.085   6.829   4.790 -2.4493  0.0575 -1.3814
 2883TIP3    H2 8614   3.102   6.765   4.653  1.3039 -1.1886 -0.4781
 2884TIP3   OH2 8615   6.512   5.039   3.853 -0.1902 -0.0452  0.0123
 2884TIP3    H1 8616   6.432   5.091   3.855  0.2824  0.7203 -0.6166
 2884TIP3    H2 8617   6.499   4.977   3.781  0.5870  1.4401 -1.4732
 2885TIP3   OH2 8618   0.643   4.910   2.474 -0.1699 -0.0235  0.1541
 2885TIP3    H1 8619   0.721   4.959   2.500  0.2830 -0.4397 -0.4110
 2885TIP3    H2 8620   0.623   4.855   2.550 -0.2369  0.4744  0.5038
 2886TIP3   OH2 8621   1.356   1.201   3.900  0.2712 -0.3450 -0.0550
 2886TIP3    H1 8622   1.297   1.272   3.925 -0.6478 -0.4857 -1.6990
 2886TIP3    H2 8623   1.298   1.129   3.874  1.1354 -0.5388 -1.5787
 2887TIP3   OH2 8624   6.266   4.830   5.749  0.1891 -0.3669 -0.0187
 2887TIP3    H1 8625   6.191   4.888   5.764  0.3271  0.1122 -1.0642
 2887TIP3    H2 8626   6.231   4.760   5.693  0.0320 -1.3061  1.1971
 2888TIP3   OH2 8627   7.096   4.930   2.408  0.2711  0.8078 -0.3057
 2888TIP3    H1 8628   7.173   4.977   2.441 -0.2084  1.1951  0.2773
 2888TIP3    H2 8629   7.120   4.837   2.414  1.3661  0.9579 -1.8142
 2889TIP3   OH2 8630   4.416   0.860   0.099  0.2138 -0.1856 -0.3036
 2889TIP3    H1 8631   4.383   0.908   0.023 -2.8717 -0.3458  0.7959
 2889TIP3    H2 8632   4.342   0.806   0.128  1.7347 -1.2398  1.9684
 2890TIP3   OH2 8633   4.961   0.078   3.235  0.5842  0.2836 -0.4155
 2890TIP3    H1 8634   4.923  -0.004   3.269  0.9316  0.3423  0.1326
 2890TIP3    H2 8635   5.056   0.064   3.242  0.6608  1.2235  0.9372
 2891TIP3   OH2 8636   2.878   0.186   3.934 -0.4982 -0.2741  0.5835
 2891TIP3    H1 8637   2.908   0.268   3.974 -0.1195 -0.6323  1.0559
 2891TIP3    H2 8638   2.927   0.180   3.852 -0.8797  0.2042  0.3161
 2892TIP3   OH2 8639   6.456   6.343   0.551  0.3832  0.1466  0.0675
 2892TIP3    H1 8640   6.445   6.277   0.483  1.0928 -0.0094  0.0918
 2892TIP3    H2 8641   6.530   6.396   0.521 -0.1635  0.9186  0.0611
 2893TIP3   OH2 8642   4.709   4.274   0.750  0.4963  0.0453 -0.0159
 2893TIP3    H1 8643   4.717   4.219   0.672  1.2060 -0.2927  0.2846
 2893TIP3    H2 8644   4.748   4.357   0.724  0.9119 -0.1306  0.0327
 2894TIP3   OH2 8645   0.024   3.373   4.268 -0.4540 -0.2251 -0.2058
 2894TIP3    H1 8646   0.035   3.334   4.182 -0.0499 -2.1871  0.6797
 2894TIP3    H2 8647   0.065   3.459   4.261  0.9061 -0.9485 -1.5723
 2895TIP3   OH2 8648   4.302   0.463   4.010 -0.0280 -0.1713 -0.6722
 2895TIP3    H1 8649   4.354   0.387   4.037 -0.5989 -0.2493  0.2174
 2895TIP3    H2 8650   4.298   0.519   4.088  0.3727  0.7804 -1.3059
 2896TIP3   OH2 8651   5.075   3.615   4.459  0.2830  0.1634 -0.6275
 2896TIP3    H1 8652   5.025   3.539   4.488  1.5951 -0.9883 -1.2889
 2896TIP3    H2 8653   5.055   3.622   4.365  1.5675 -0.4984 -0.9671
 2897TIP3   OH2 8654   6.144   3.608   1.423  0.2379  0.6505 -0.2623
 2897TIP3    H1 8655   6.088   3.629   1.498  0.9325 -0.6554  0.6574
 2897TIP3    H2 8656   6.097   3.644   1.348 -0.6705  1.6620  0.7400
 2898TIP3   OH2 8657   6.357   6.042   3.699  0.3068 -0.0545 -0.7227
 2898TIP3    H1 8658   6.438   6.012   3.657  1.6066  1.6351  0.4429
 2898TIP3    H2 8659   6.369   6.024   3.792 -0.9454 -0.3394 -0.5950
 2899TIP3   OH2 8660   5.713   6.104   1.267 -0.0298  0.5435  0.0543
 2899TIP3    H1 8661   5.670   6.187   1.245  0.7057  0.2477 -2.8430
 2899TIP3    H2 8662   5.648   6.037   1.243  0.5679  0.2090 -0.6526
 2900TIP3   OH2 8663   1.666   2.699   2.955  0.5282 -0.3304 -0.0702
 2900TIP3    H1 8664   1.720   2.761   3.005 -0.5722  0.2704  0.4163
 2900TIP3    H2 8665   1.697   2.613   2.982 -0.3856 -0.0449  2.1515
 2901TIP3   OH2 8666   0.442   5.343   5.552  0.4049 -0.1588 -0.0768
 2901TIP3    H1 8667   0.422   5.419   5.608  0.5079 -0.3378  0.2053
 2901TIP3    H2 8668   0.533   5.322   5.572  0.4489 -0.2110 -0.3314
 2902TIP3   OH2 8669   4.393   6.630   2.083 -0.1321 -0.5416  0.9037
 2902TIP3    H1 8670   4.454   6.704   2.087 -0.4774 -0.1717 -0.3967
 2902TIP3    H2 8671   4.448   6.554   2.106  1.0535 -0.3239 -0.9782
 2903TIP3   OH2 8672   0.716   2.085   0.876 -0.1136  0.0800  0.1650
 2903TIP3    H1 8673   0.692   1.993   0.866  0.0008 -0.0696  1.2320
 2903TIP3    H2 8674   0.804   2.084   0.913 -0.2073  0.6138  0.4159
 2904TIP3   OH2 8675   0.428   4.034   3.064  0.0723  0.1577 -0.3603
 2904TIP3    H1 8676   0.342   4.044   3.107 -0.2359  0.0433 -0.9442
 2904TIP3    H2 8677   0.413   4.065   2.975 -0.3198 -3.1961 -1.6055
 2905TIP3   OH2 8678   6.872   2.251   3.993  0.1794 -0.3558 -0.3169
 2905TIP3    H1 8679   6.925   2.270   3.916 -0.6759 -2.2895 -1.4483
 2905TIP3    H2 8680   6.783   2.276   3.968 -0.4090 -2.5816 -0.6725
 2906TIP3   OH2 8681   0.026   3.534   2.366 -0.3543 -0.1811  0.2132
 2906TIP3    H1 8682   0.100   3.483   2.334 -1.1287 -1.7118  0.7867
 2906TIP3    H2 8683   0.054   3.625   2.357  0.5858 -0.6294 -2.0103
 2907TIP3   OH2 8684   0.684   0.037   0.486  0.1331 -0.5556 -0.8174
 2907TIP3    H1 8685   0.609  -0.004   0.442  0.5831 -1.9477 -0.3562
 2907TIP3    H2 8686   0.652   0.058   0.573 -0.0831  0.0399 -1.0366
 2908TIP3   OH2 8687   3.483   5.600   5.872  0.2266  0.3981 -0.2838
 2908TIP3    H1 8688   3.477   5.505   5.863 -1.1551  0.2040  1.9729
 2908TIP3    H2 8689   3.517   5.629   5.788 -0.7236 -1.9588 -1.6019
 2909TIP3   OH2 8690   1.455   5.981   0.442  0.1274  0.0004  0.5555
 2909TIP3    H1 8691   1.476   5.931   0.363 -0.1814  1.2362 -0.3506
 2909TIP3    H2 8692   1.368   5.951   0.467 -0.3161  0.4965 -0.3363
 2910TIP3   OH2 8693   6.271   4.107   2.979  0.1407 -0.4078 -0.0624
 2910TIP3    H1 8694   6.271   4.068   2.891  0.9039  0.0479 -0.2700
 2910TIP3    H2 8695   6.231   4.040   3.034  1.4373 -1.5051 -0.4142
 2911TIP3   OH2 8696   6.619   2.789   4.648  0.3899  0.1050 -0.2132
 2911TIP3    H1 8697   6.603   2.730   4.721  0.3331 -0.8608 -0.9837
 2911TIP3    H2 8698   6.624   2.876   4.688 -2.3842 -0.0297  0.6395
 2912TIP3   OH2 8699   3.619   5.685   4.301  0.0602  0.0837  0.2787
 2912TIP3    H1 8700   3.562   5.612   4.281 -0.2466  0.3877  0.0237
 2912TIP3    H2 8701   3.628   5.732   4.217  1.2631 -0.3672  0.1336
 2913TIP3   OH2 8702   2.920   0.195   4.251  0.1275 -0.3994  0.0500
 2913TIP3    H1 8703   3.006   0.178   4.290 -0.1273 -2.4956 -0.1837
 2913TIP3    H2 8704   2.867   0.227   4.324  0.5652 -1.0697  0.6835
 2914TIP3   OH2 8705   3.285   1.963   3.406 -0.3814  0.0155  1.3808
 2914TIP3    H1 8706   3.265   2.024   3.336  2.6530 -0.2331  0.1343
 2914TIP3    H2 8707   3.199   1.934   3.438 -1.8857  1.6377 -0.8656
 2915TIP3   OH2 8708   3.928   0.914   5.571  0.7442  0.2258 -0.1793
 2915TIP3    H1 8709   3.962   0.993   5.529  0.0644 -0.8053 -2.8215
 2915TIP3    H2 8710   3.993   0.847   5.551  0.5014 -0.2775  0.6625
 2916TIP3   OH2 8711   1.234   6.780   2.825  0.1200 -0.2335  0.2750
 2916TIP3    H1 8712   1.167   6.723   2.788  0.5105 -0.7347  0.3388
 2916TIP3    H2 8713   1.312   6.762   2.774 -0.2416  1.7606 -1.1238
 2917TIP3   OH2 8714   5.236   3.834  -0.003 -0.4402  0.1459 -0.1086
 2917TIP3    H1 8715   5.240   3.787   0.080  1.2355  0.1562 -0.1405
 2917TIP3    H2 8716   5.328   3.843  -0.029 -0.8729  1.2148 -1.3530
 2918TIP3   OH2 8717   3.815   3.611   2.266  0.6257  0.0298  0.1023
 2918TIP3    H1 8718   3.877   3.672   2.306  0.9793  0.0812 -0.5144
 2918TIP3    H2 8719   3.729   3.644   2.293  0.8585 -0.0462  0.9672
 2919TIP3   OH2 8720   5.280   2.022   4.425  0.0040  0.2229 -0.1351
 2919TIP3    H1 8721   5.301   1.931   4.403 -0.5614 -0.1351  0.7167
 2919TIP3    H2 8722   5.293   2.070   4.344  2.0824 -0.2932 -0.1522
 2920TIP3   OH2 8723   5.347   6.301   2.952  0.0143 -0.1781  0.0592
 2920TIP3    H1 8724   5.345   6.310   3.047 -0.2333  1.3351 -0.0604
 2920TIP3    H2 8725   5.375   6.211   2.937 -0.5210 -0.6311  1.5606
 2921TIP3   OH2 8726   1.330   3.096   0.630 -0.3700  0.6060  0.0054
 2921TIP3    H1 8727   1.272   3.105   0.554  1.2086  0.6882 -1.2395
 2921TIP3    H2 8728   1.358   3.004   0.628 -0.1093  0.6770  0.3332
 2922TIP3   OH2 8729   0.791   4.765   3.216 -0.2519  0.6860  0.4903
 2922TIP3    H1 8730   0.750   4.835   3.268 -0.3025  0.4402  0.7881
 2922TIP3    H2 8731   0.857   4.809   3.164 -1.2462  1.1777 -0.3963
 2923TIP3   OH2 8732   4.074   0.773   3.591 -0.1631  0.1493 -0.1936
 2923TIP3    H1 8733   4.046   0.862   3.570  1.5193  0.5732 -0.8072
 2923TIP3    H2 8734   4.126   0.746   3.515 -1.8259 -1.9288 -0.6872
 2924TIP3   OH2 8735   4.149   5.345   4.531 -0.2074 -0.1512  0.2062
 2924TIP3    H1 8736   4.174   5.324   4.441  1.2226  0.8275  0.3352
 2924TIP3    H2 8737   4.178   5.270   4.582  0.2335 -0.1187  0.0126
 2925TIP3   OH2 8738   0.292   6.413   0.309 -0.5200  0.0596 -0.6570
 2925TIP3    H1 8739   0.383   6.387   0.298 -0.5320  0.0141 -0.6496
 2925TIP3    H2 8740   0.242   6.342   0.268 -0.5169  0.7022 -1.8075
 2926TIP3   OH2 8741   1.828   6.448   5.822 -0.0906  0.1456 -0.1397
 2926TIP3    H1 8742   1.779   6.407   5.894  2.1683 -3.2725 -0.2945
 2926TIP3    H2 8743   1.918   6.453   5.855  0.5241  0.8800 -1.8587
 2927TIP3   OH2 8744   0.784   2.010   4.332  0.6809 -0.1930  0.2013
 2927TIP3    H1 8745   0.739   2.080   4.284 -0.2881  0.8552  2.5001
 2927TIP3    H2 8746   0.779   2.037   4.424  1.9262 -2.4015  0.9845
 2928TIP3   OH2 8747   3.436   3.630   5.725 -0.1480 -0.4078  0.3727
 2928TIP3    H1 8748   3.529   3.634   5.700 -0.3226  0.7977 -0.1452
 2928TIP3    H2 8749   3.389   3.664   5.649 -1.1560 -2.3657  0.0412
 2929TIP3   OH2 8750   5.645   0.299   3.053 -0.0638 -0.4135  0.7070
 2929TIP3    H1 8751   5.700   0.225   3.027 -0.1317 -0.3253  0.3083
 2929TIP3    H2 8752   5.605   0.270   3.135 -0.7763 -1.1793  0.1078
 2930TIP3   OH2 8753   3.266   6.198   1.523 -0.2566  0.3631  0.7333
 2930TIP3    H1 8754   3.264   6.116   1.475  1.2772  1.2569 -0.9732
 2930TIP3    H2 8755   3.346   6.194   1.575 -0.2155  0.7321  0.7020
 2931TIP3   OH2 8756   4.776   6.649   3.343  0.0248 -0.0237  0.0230
 2931TIP3    H1 8757   4.844   6.714   3.361  0.2122 -0.5208  1.2121
 2931TIP3    H2 8758   4.745   6.622   3.429 -1.9088  0.3979 -0.4870
 2932TIP3   OH2 8759   5.819   5.363   0.489 -1.0583  0.5463  0.0077
 2932TIP3    H1 8760   5.782   5.451   0.494 -0.0553  0.9270  1.1818
 2932TIP3    H2 8761   5.909   5.376   0.458 -0.6242  0.0304  0.9925
 2933TIP3   OH2 8762   5.039   4.043   1.452 -0.0553 -0.4071  0.0867
 2933TIP3    H1 8763   5.062   3.968   1.507  0.6480  0.5038  1.0701
 2933TIP3    H2 8764   5.117   4.098   1.453  0.3326 -0.7569 -2.5723
 2934TIP3   OH2 8765   5.305   4.431   4.462  0.4231 -0.3410  0.1879
 2934TIP3    H1 8766   5.269   4.518   4.448  0.7216 -0.1800  0.4179
 2934TIP3    H2 8767   5.372   4.422   4.394  1.0244 -0.0343  0.7339
 2935TIP3   OH2 8768   5.748   3.798   0.281 -0.2885  0.1854 -0.0042
 2935TIP3    H1 8769   5.738   3.854   0.358  0.2653 -2.2058  1.9388
 2935TIP3    H2 8770   5.843   3.792   0.269 -0.3560  0.0065 -0.4540
 2936TIP3   OH2 8771   4.354   2.082   3.920  0.4834  0.5196  0.1619
 2936TIP3    H1 8772   4.266   2.044   3.915  0.9018 -0.4435 -0.0350
 2936TIP3    H2 8773   4.345   2.169   3.879 -0.1910  0.1165 -0.5723
 2937TIP3   OH2 8774   0.334   2.604   5.231  0.0460  0.5278  0.3586
 2937TIP3    H1 8775   0.394   2.534   5.206 -1.7684 -0.5329 -1.2521
 2937TIP3    H2 8776   0.300   2.578   5.316 -0.2201 -0.3201  0.0059
 2938TIP3   OH2 8777   6.372   2.197   1.237  0.0163 -0.5675  0.6117
 2938TIP3    H1 8778   6.312   2.203   1.163  0.2004 -3.1881  0.1548
 2938TIP3    H2 8779   6.317   2.167   1.310 -0.1287  1.8109  1.5627
 2939TIP3   OH2 8780   4.347   3.672   5.756 -0.4679  0.1216  0.1897
 2939TIP3    H1 8781   4.358   3.612   5.830  0.9062 -1.9823 -1.6225
 2939TIP3    H2 8782   4.304   3.620   5.688 -0.5415  1.6215 -0.9726
 2940TIP3   OH2 8783   6.395   5.509   5.582 -0.3288  0.8459  0.5636
 2940TIP3    H1 8784   6.330   5.490   5.514 -0.0358  2.0063 -0.0721
 2940TIP3    H2 8785   6.450   5.430   5.585 -0.9445  0.3901  0.1528
 2941TIP3   OH2 8786   1.145   3.272   3.532 -0.0499  0.0846  0.1187
 2941TIP3    H1 8787   1.196   3.194   3.510 -2.4667 -0.7521 -3.2178
 2941TIP3    H2 8788   1.179   3.340   3.474 -1.2605  0.0740 -0.6381
 2942TIP3   OH2 8789   5.508   2.762   5.375 -0.4574 -0.0216 -0.1805
 2942TIP3    H1 8790   5.476   2.683   5.333 -0.4392 -0.9416  1.4678
 2942TIP3    H2 8791   5.601   2.745   5.391 -0.3222  0.5622 -0.3046
 2943TIP3   OH2 8792   6.581   2.777   3.173 -0.3664 -0.3645 -0.0046
 2943TIP3    H1 8793   6.516   2.841   3.144 -0.2223 -0.4978 -0.6354
 2943TIP3    H2 8794   6.573   2.705   3.111 -1.8879 -1.8564  1.8155
 2944TIP3   OH2 8795   3.086   2.958   5.154  0.5964 -0.1156 -0.0805
 2944TIP3    H1 8796   3.101   2.962   5.060 -0.2786 -0.2818 -0.2321
 2944TIP3    H2 8797   3.133   3.034   5.189 -0.3979  0.8919 -0.8359
 2945TIP3   OH2 8798   6.190   4.665   3.210 -0.3328  0.0580  0.8587
 2945TIP3    H1 8799   6.259   4.606   3.240  1.5219  1.0376 -1.2815
 2945TIP3    H2 8800   6.113   4.608   3.201  1.2988 -2.0724 -0.9019
 2946TIP3   OH2 8801   2.363   2.259   3.592  0.0669  0.0045  0.0101
 2946TIP3    H1 8802   2.400   2.335   3.637 -1.8485  0.4155  1.0314
 2946TIP3    H2 8803   2.357   2.192   3.661 -0.1786 -0.3632 -0.3651
 2947TIP3   OH2 8804   1.959   1.677   1.903 -0.2864 -0.3845  0.3454
 2947TIP3    H1 8805   1.877   1.724   1.915  0.7540  1.2837  1.4643
 2947TIP3    H2 8806   1.983   1.648   1.992  0.5916 -0.3935  0.1141
 2948TIP3   OH2 8807   5.662   2.644   3.372 -0.5223 -0.5277  0.2114
 2948TIP3    H1 8808   5.660   2.725   3.321 -3.5049  2.0492  3.9155
 2948TIP3    H2 8809   5.752   2.638   3.403  0.3717 -0.0910 -2.0628
 2949TIP3   OH2 8810   2.088   2.256   1.846 -0.2686  0.0836  0.3150
 2949TIP3    H1 8811   2.045   2.199   1.910  0.2922 -0.8298 -0.0925
 2949TIP3    H2 8812   2.121   2.195   1.780  0.3059  0.9031 -0.1565
 2950TIP3   OH2 8813   1.548   6.465   3.210 -0.2500  0.7248 -0.0268
 2950TIP3    H1 8814   1.462   6.484   3.172 -0.2554 -1.4333 -1.2233
 2950TIP3    H2 8815   1.606   6.457   3.134  0.2216 -1.4135  0.5178
 2951TIP3   OH2 8816   0.092   4.644   4.533 -0.0937  0.1518  0.0620
 2951TIP3    H1 8817   0.155   4.707   4.497 -0.9927  0.5640 -0.8328
 2951TIP3    H2 8818   0.092   4.571   4.471 -1.6087  0.8374 -0.7945
 2952TIP3   OH2 8819   5.880   5.358   3.854  0.4559 -0.2597  0.3018
 2952TIP3    H1 8820   5.969   5.353   3.887  0.1707  1.0210  1.3236
 2952TIP3    H2 8821   5.887   5.412   3.775  0.6930 -0.9481 -0.1709
 2953TIP3   OH2 8822   2.127   3.393   1.517 -0.3980 -0.1844  0.2627
 2953TIP3    H1 8823   2.118   3.387   1.422  3.4270 -1.1759 -0.2247
 2953TIP3    H2 8824   2.069   3.464   1.542 -2.4107 -0.6185 -2.6200
 2954TIP3   OH2 8825   0.167   0.682   5.051  0.3149  0.4460  0.0826
 2954TIP3    H1 8826   0.098   0.722   5.104  0.8443  0.4063  0.8166
 2954TIP3    H2 8827   0.143   0.590   5.044 -0.4028  0.6852 -0.8001
 2955TIP3   OH2 8828   4.432   3.781   1.500 -0.2690 -0.3207 -0.4126
 2955TIP3    H1 8829   4.396   3.726   1.430  0.2679 -0.6261 -0.4537
 2955TIP3    H2 8830   4.514   3.738   1.524 -1.1685 -1.0764  1.4535
 2956TIP3   OH2 8831   4.792   6.605   4.422  0.0191 -0.1602  0.3760
 2956TIP3    H1 8832   4.798   6.539   4.354 -0.8976  0.0995  0.0269
 2956TIP3    H2 8833   4.776   6.687   4.375 -1.5935 -0.1229  0.9149
 2957TIP3   OH2 8834   1.083   0.643   0.216 -0.3513  0.3853  0.3601
 2957TIP3    H1 8835   1.151   0.673   0.277 -1.1196  0.9132  0.9614
 2957TIP3    H2 8836   1.132   0.611   0.140  0.5720  0.7941  0.7708
 2958TIP3   OH2 8837   5.424   4.533   4.684  0.3012 -0.0378  0.7896
 2958TIP3    H1 8838   5.368   4.501   4.613  1.4252 -1.2584  0.4054
 2958TIP3    H2 8839   5.363   4.561   4.752 -0.8037  0.8863 -0.5323
 2959TIP3   OH2 8840   6.124   0.648   2.635 -0.4677 -0.1555 -0.0880
 2959TIP3    H1 8841   6.094   0.558   2.626  0.8969 -0.5301 -1.2208
 2959TIP3    H2 8842   6.165   0.669   2.551 -1.2371  1.7216 -0.0537
 2960TIP3   OH2 8843   4.533   2.586   2.239  0.5751 -0.0994  0.0561
 2960TIP3    H1 8844   4.466   2.525   2.207 -0.3750  1.0524 -0.2419
 2960TIP3    H2 8845   4.493   2.673   2.229  1.4887  0.5171  1.4131
 2961TIP3   OH2 8846   2.372   4.994   3.432  0.1613  0.3227 -0.6393
 2961TIP3    H1 8847   2.409   5.072   3.391 -0.7315  0.4750 -1.1686
 2961TIP3    H2 8848   2.363   5.018   3.525  0.4324  0.6366 -0.6934
 2962TIP3   OH2 8849   1.232   2.401   1.920  0.1824 -0.4652  0.1716
 2962TIP3    H1 8850   1.285   2.346   1.977 -0.3102  0.7978  1.9564
 2962TIP3    H2 8851   1.276   2.398   1.835  2.5042 -0.3223  1.2830
 2963TIP3   OH2 8852   5.758   5.084   3.736 -0.1208 -0.3912 -0.1457
 2963TIP3    H1 8853   5.835   5.130   3.770 -1.1485  0.9265  0.4734
 2963TIP3    H2 8854   5.709   5.151   3.689 -1.6263 -0.8491  0.7164
 2964TIP3   OH2 8855   2.891   1.837   2.214  0.2788 -0.3449  0.1020
 2964TIP3    H1 8856   2.883   1.751   2.174 -0.3949 -1.5483  2.6126
 2964TIP3    H2 8857   2.984   1.847   2.232  0.5389  0.0569 -1.2989
 2965TIP3   OH2 8858  -0.021   3.757   5.289  0.5743  0.4559 -0.5568
 2965TIP3    H1 8859   0.014   3.706   5.215 -1.1472 -0.1270 -1.0086
 2965TIP3    H2 8860   0.031   3.838   5.288  1.0651  0.1659 -1.9820
 2966TIP3   OH2 8861   1.512   1.163   0.528 -0.4308 -0.5029  0.4780
 2966TIP3    H1 8862   1.484   1.180   0.438 -0.0866 -0.8942  0.2993
 2966TIP3    H2 8863   1.557   1.244   0.555 -1.0575 -0.1537  0.5122
 2967TIP3   OH2 8864   7.165   4.805   5.384  0.0799 -0.0056 -0.1493
 2967TIP3    H1 8865   7.210   4.814   5.468  2.5775  1.5032 -1.5121
 2967TIP3    H2 8866   7.189   4.717   5.354 -0.5118 -0.4037  0.4998
 2968TIP3   OH2 8867   2.455   6.162   0.048 -0.2137 -0.4776  0.3158
 2968TIP3    H1 8868   2.378   6.215   0.026 -0.4172 -0.0920  1.8492
 2968TIP3    H2 8869   2.523   6.227   0.067 -0.3521 -0.7588  1.8257
 2969TIP3   OH2 8870   0.554   6.092   5.647  0.4355 -0.7392  0.8788
 2969TIP3    H1 8871   0.459   6.100   5.633  0.4343  0.7260  1.4884
 2969TIP3    H2 8872   0.586   6.182   5.644  2.0362 -1.3131 -0.6398
 2970TIP3   OH2 8873   4.310   1.030   5.165  0.0772  0.3931 -0.1287
 2970TIP3    H1 8874   4.376   0.985   5.218  1.8852  0.1489 -2.4714
 2970TIP3    H2 8875   4.229   0.981   5.182  0.9785 -0.7757  0.9960
 2971TIP3   OH2 8876   0.873   2.129   2.347  0.0186 -0.3732 -0.3983
 2971TIP3    H1 8877   0.961   2.094   2.358 -0.3901 -1.7563 -1.3541
 2971TIP3    H2 8878   0.815   2.062   2.383 -0.7882 -0.8470 -2.4337
 2972TIP3   OH2 8879   5.759   2.793   1.057  0.4243  0.2458 -0.0932
 2972TIP3    H1 8880   5.748   2.698   1.048 -2.2619  0.3709  1.0541
 2972TIP3    H2 8881   5.829   2.802   1.123  1.0943 -0.8927 -0.6108
 2973TIP3   OH2 8882   5.860   0.472   2.315 -0.2250  0.0673  0.1114
 2973TIP3    H1 8883   5.899   0.414   2.380 -1.2287  0.7024  1.3198
 2973TIP3    H2 8884   5.931   0.491   2.253  0.7097 -0.6601  0.9433
 2974TIP3   OH2 8885   0.872   6.103   3.389 -0.2655  0.1545  0.0789
 2974TIP3    H1 8886   0.888   6.014   3.358 -1.4779  0.0680 -0.3462
 2974TIP3    H2 8887   0.784   6.101   3.426 -0.9330  1.5098 -1.3102
 2975TIP3   OH2 8888   2.492   0.155   0.567 -0.3801 -0.9008 -0.0083
 2975TIP3    H1 8889   2.556   0.185   0.503  0.7116 -2.6543  0.1958
 2975TIP3    H2 8890   2.533   0.079   0.608 -2.8615 -2.5652 -0.3771
 2976TIP3   OH2 8891   3.784   1.402   2.779  0.6325 -0.2023  0.2417
 2976TIP3    H1 8892   3.805   1.488   2.815 -1.4895  0.9607 -1.1026
 2976TIP3    H2 8893   3.734   1.359   2.849  1.3648 -0.2208  0.7691
 2977TIP3   OH2 8894   4.878   6.134   1.868  0.1522 -0.3021 -0.1495
 2977TIP3    H1 8895   4.854   6.191   1.941  0.5544  0.7448 -0.8181
 2977TIP3    H2 8896   4.962   6.097   1.894 -0.6980 -1.6279  0.8548
 2978TIP3   OH2 8897   2.364   5.309   1.737 -0.4984 -0.0518  0.4735
 2978TIP3    H1 8898   2.371   5.402   1.716  0.5711  0.3601  2.4491
 2978TIP3    H2 8899   2.394   5.302   1.828 -0.0805 -2.3897  0.2206
 2979TIP3   OH2 8900   6.369   5.599   3.748  0.0313  0.3455 -0.1393
 2979TIP3    H1 8901   6.278   5.617   3.772 -0.5602 -0.4623 -1.6188
 2979TIP3    H2 8902   6.371   5.608   3.653  1.5739  0.5990 -0.1096
 2980TIP3   OH2 8903   2.597   4.536   5.612 -0.2137  0.4710 -0.4366
 2980TIP3    H1 8904   2.521   4.480   5.594  0.6586 -2.1070  2.8151
 2980TIP3    H2 8905   2.671   4.490   5.571  0.4228 -0.6490  1.7744
 2981TIP3   OH2 8906   1.665   0.258   2.569  0.5790  0.0273 -0.9170
 2981TIP3    H1 8907   1.708   0.230   2.650  0.1925  0.9268 -0.3931
 2981TIP3    H2 8908   1.630   0.345   2.589 -1.6266 -0.7110 -1.2530
 2982TIP3   OH2 8909   4.387   1.048   0.840 -0.1078  0.5530  0.0989
 2982TIP3    H1 8910   4.395   1.025   0.932  0.2442  1.9022  0.4166
 2982TIP3    H2 8911   4.306   1.099   0.835  0.2594  1.1155 -0.1984
 2983TIP3   OH2 8912   5.323   4.393   3.247 -0.1067  0.0103 -0.9592
 2983TIP3    H1 8913   5.339   4.313   3.197 -1.1016 -0.2076 -0.9378
 2983TIP3    H2 8914   5.228   4.399   3.255  0.0098 -0.3199  1.4680
 2984TIP3   OH2 8915   5.382   2.623   5.058  0.2643 -0.1714  0.6125
 2984TIP3    H1 8916   5.401   2.715   5.074  1.8987 -0.2101 -0.8317
 2984TIP3    H2 8917   5.286   2.619   5.049  0.2076  1.4505  0.2799
 2985TIP3   OH2 8918   4.078   4.224   0.157 -0.1653  0.0091 -0.2410
 2985TIP3    H1 8919   4.173   4.227   0.166 -0.3108  0.6993  1.3172
 2985TIP3    H2 8920   4.054   4.309   0.120 -0.0179 -1.0393 -3.0062
 2986TIP3   OH2 8921   3.925   5.700   1.901 -0.2498  0.3078 -0.2583
 2986TIP3    H1 8922   4.002   5.664   1.945  0.1661 -0.1592 -1.3459
 2986TIP3    H2 8923   3.854   5.640   1.925 -0.7020  1.6347  2.1021
 2987TIP3   OH2 8924   3.899   1.576   0.662  0.5661  0.4471 -0.5849
 2987TIP3    H1 8925   3.976   1.633   0.666  0.0582  1.1529 -0.8054
 2987TIP3    H2 8926   3.824   1.636   0.666  0.0193 -0.2560  0.0019
 2988TIP3   OH2 8927   0.859   4.299   2.333  0.3079  0.0072 -0.1577
 2988TIP3    H1 8928   0.902   4.376   2.295  0.3954 -0.3295 -0.7404
 2988TIP3    H2 8929   0.895   4.293   2.421  0.5940  0.4035 -0.2436
 2989TIP3   OH2 8930   1.567   6.548   0.493  0.2459 -0.2248 -0.1379
 2989TIP3    H1 8931   1.655   6.586   0.498  0.9814 -1.3673 -2.8644
 2989TIP3    H2 8932   1.538   6.564   0.403 -3.7546  2.8514  1.3711
 2990TIP3   OH2 8933   5.009   3.678   1.286 -0.1672  0.0243  0.1621
 2990TIP3    H1 8934   4.937   3.742   1.285 -0.6149 -0.4472  1.0005
 2990TIP3    H2 8935   5.036   3.671   1.195 -1.3008  0.0877 -0.1981
 2991TIP3   OH2 8936   6.041   5.576   3.634  0.5029  0.3053 -0.1053
 2991TIP3    H1 8937   6.054   5.616   3.548 -0.9117 -0.3556 -0.6565
 2991TIP3    H2 8938   6.055   5.482   3.619  2.5716  0.4091  0.9099
 2992TIP3   OH2 8939   3.658   2.087   2.899 -0.1567  0.3232 -0.1360
 2992TIP3    H1 8940   3.680   2.141   2.824  1.5067 -1.1515 -0.7629
 2992TIP3    H2 8941   3.564   2.100   2.911 -0.1561  1.8117 -1.4460
 2993TIP3   OH2 8942   5.194   1.418   0.919  0.3094 -0.0951 -0.0675
 2993TIP3    H1 8943   5.156   1.365   0.989 -0.0989  0.8431  0.4357
 2993TIP3    H2 8944   5.217   1.354   0.851  0.4407 -0.9864  0.7870
 2994TIP3   OH2 8945   4.443   6.705   2.738 -0.2375  0.1757  0.5014
 2994TIP3    H1 8946   4.436   6.659   2.822 -0.7602 -1.1481 -0.2394
 2994TIP3    H2 8947   4.356   6.697   2.699  0.0842  0.4941 -0.3043
 2995TIP3   OH2 8948   5.538   0.167   3.299  0.9296 -0.1413 -0.3197
 2995TIP3    H1 8949   5.451   0.166   3.339  0.3424 -1.6084 -1.5096
 2995TIP3    H2 8950   5.595   0.202   3.367 -0.8727  2.9283 -0.2220
 2996TIP3   OH2 8951   2.128   5.433   2.151  0.0530 -0.4450 -0.5583
 2996TIP3    H1 8952   2.161   5.403   2.236 -0.0527 -0.0340 -0.3723
 2996TIP3    H2 8953   2.183   5.508   2.129 -0.7319  0.2395 -0.2521
 2997TIP3   OH2 8954   4.261   0.404   3.015  0.2748  0.0815  0.0436
 2997TIP3    H1 8955   4.340   0.387   3.066  0.2515 -0.0304  0.0434
 2997TIP3    H2 8956   4.203   0.331   3.035 -0.1404  0.5758  0.6595
 2998TIP3   OH2 8957   6.482   2.836   2.331  0.2756  0.0751 -0.7813
 2998TIP3    H1 8958   6.569   2.855   2.294 -0.2506  0.7756 -1.6968
 2998TIP3    H2 8959   6.437   2.921   2.329 -0.7497 -0.4651 -1.1940
 2999TIP3   OH2 8960   4.772   1.716   2.510  0.4067 -0.1096 -0.0632
 2999TIP3    H1 8961   4.861   1.684   2.519  0.0496 -1.2852 -0.5234
 2999TIP3    H2 8962   4.718   1.651   2.556 -0.2230  0.5112  0.0937
 3000TIP3   OH2 8963   5.232   1.179   2.197 -0.1845 -1.0250 -0.6914
 3000TIP3    H1 8964   5.320   1.142   2.193 -0.5234 -2.0784  0.5616
 3000TIP3    H2 8965   5.216   1.214   2.109  2.4301  1.5755 -0.2421
 3001TIP3   OH2 8966   3.016   5.833   5.806  0.1829 -0.3614 -0.7143
 3001TIP3    H1 8967   3.066   5.889   5.867  0.1962  0.1026 -1.1472
 3001TIP3    H2 8968   2.939   5.807   5.856 -0.0172  0.3642 -0.6365
 3002TIP3   OH2 8969   5.138   5.433   3.693  0.7650 -0.4163  0.3515
 3002TIP3    H1 8970   5.101   5.357   3.648 -1.0563  1.2635 -1.1693
 3002TIP3    H2 8971   5.205   5.465   3.633  0.4107  0.0957  0.2242
 3003TIP3   OH2 8972   6.862   0.244   3.383  0.4892 -0.1215  0.0502
 3003TIP3    H1 8973   6.955   0.225   3.391  0.5118  0.0006  0.0802
 3003TIP3    H2 8974   6.824   0.215   3.466  0.6164  0.5068  0.3318
 3004TIP3   OH2 8975   3.849   3.153   5.411  0.1360  0.2785  0.1551
 3004TIP3    H1 8976   3.859   3.087   5.480  1.1565  0.8005  0.5298
 3004TIP3    H2 8977   3.811   3.106   5.337 -1.6549 -0.1594  1.2783
 3005TIP3   OH2 8978   4.254   5.210   3.541 -0.1632  0.0389 -0.3983
 3005TIP3    H1 8979   4.273   5.259   3.461 -0.3236 -0.3317 -0.6639
 3005TIP3    H2 8980   4.318   5.139   3.541 -0.3325 -0.1147 -0.3353
 3006TIP3   OH2 8981   5.530   6.174   2.438  0.0140  0.5058 -0.1114
 3006TIP3    H1 8982   5.481   6.173   2.521  0.4717  0.1744  0.1633
 3006TIP3    H2 8983   5.620   6.154   2.464  0.2501  0.8845 -0.6392
 3007TIP3   OH2 8984   4.009   1.371   0.091  0.0501 -0.6749 -0.4711
 3007TIP3    H1 8985   3.944   1.387   0.021  0.4133  0.3008 -0.5873
 3007TIP3    H2 8986   4.050   1.288   0.065  0.6340 -0.0031 -1.7758
 3008TIP3   OH2 8987   0.360   0.997   3.137 -0.0893  0.4593  0.0827
 3008TIP3    H1 8988   0.318   0.994   3.051 -0.3892  0.8079  0.2121
 3008TIP3    H2 8989   0.326   0.920   3.183 -0.3791  0.5939  0.0934
 3009TIP3   OH2 8990   1.263   5.312   4.869  0.7618  0.4069 -0.1455
 3009TIP3    H1 8991   1.194   5.269   4.920  0.3046  3.1069  1.7424
 3009TIP3    H2 8992   1.337   5.252   4.873  0.2816 -0.1208  2.5970
 3010TIP3   OH2 8993   2.124   5.765   2.750  0.3393  0.1867  0.7330
 3010TIP3    H1 8994   2.112   5.801   2.662 -3.1433  0.8938  1.3294
 3010TIP3    H2 8995   2.114   5.670   2.738  0.4472  0.2267  0.3031
 3011TIP3   OH2 8996   2.089   1.144   5.692 -0.6607  0.1424 -0.5740
 3011TIP3    H1 8997   2.038   1.176   5.767 -2.2889 -1.6053 -0.8753
 3011TIP3    H2 8998   2.119   1.223   5.648  1.9069  1.3287  2.8585
 3012TIP3   OH2 8999   5.399   4.999   5.395  0.5598 -0.0130 -0.7165
 3012TIP3    H1 9000   5.400   4.916   5.442  0.3513  0.3308 -0.0860
 3012TIP3    H2 9001   5.415   4.976   5.304  2.5569 -0.5761 -0.2809
 3013TIP3   OH2 9002   4.674   5.572   1.619  0.7006 -0.2517  0.3602
 3013TIP3    H1 9003   4.685   5.586   1.714  0.6852  1.1119  0.1761
 3013TIP3    H2 9004   4.595   5.519   1.612 -0.0300  0.7165  1.0642
 3014TIP3   OH2 9005   3.023   4.879   0.935 -0.0743  0.1887  0.0622
 3014TIP3    H1 9006   3.053   4.828   1.011 -0.1992  0.9275  0.6191
 3014TIP3    H2 9007   2.952   4.827   0.898 -0.0434 -0.1540  0.4779
 3015TIP3   OH2 9008   1.966   2.536   1.791 -0.2813  0.8140  0.8076
 3015TIP3    H1 9009   2.022   2.476   1.740 -0.1375  0.6075  1.2015
 3015TIP3    H2 9010   1.952   2.610   1.733  1.0127  1.2094  0.9567
 3016TIP3   OH2 9011   5.734   1.048   2.390  0.3149 -0.1331  0.4637
 3016TIP3    H1 9012   5.715   0.959   2.417 -0.3161  0.4477  2.0337
 3016TIP3    H2 9013   5.793   1.082   2.456  0.5364  0.6236 -0.1017
 3017TIP3   OH2 9014   5.356   1.002   4.673  0.5676 -0.0064  0.3665
 3017TIP3    H1 9015   5.330   0.918   4.635  2.9448 -1.5857  1.9373
 3017TIP3    H2 9016   5.290   1.019   4.740  0.3454 -0.9316  0.3990
 3018TIP3   OH2 9017   5.387   3.666   1.225 -0.3107  0.0894  0.0476
 3018TIP3    H1 9018   5.398   3.578   1.189  1.5231  0.3632 -0.1696
 3018TIP3    H2 9019   5.416   3.658   1.316  0.4470  0.5735 -0.1411
 3019TIP3   OH2 9020   5.576   1.345   0.009  0.1868  0.7525 -0.5399
 3019TIP3    H1 9021   5.591   1.360   0.103 -1.6484  1.1204 -0.2796
 3019TIP3    H2 9022   5.661   1.316  -0.024  0.9597  0.9549  1.1654
 3020TIP3   OH2 9023   4.449   2.931   3.753 -0.3662 -0.3727  0.0763
 3020TIP3    H1 9024   4.435   2.969   3.840 -1.4739  1.0276 -0.6584
 3020TIP3    H2 9025   4.371   2.876   3.738 -0.8981  0.5221 -0.5658
 3021TIP3   OH2 9026   5.781   5.134   5.430  0.4642  0.4077 -0.6019
 3021TIP3    H1 9027   5.857   5.177   5.468  1.2798 -1.3776 -0.1236
 3021TIP3    H2 9028   5.753   5.193   5.360  0.5823  2.4314  0.9707
 3022TIP3   OH2 9029   0.697   2.056   3.659 -0.2883  0.4370  0.2638
 3022TIP3    H1 9030   0.751   2.122   3.615  0.7464 -0.6691 -0.1714
 3022TIP3    H2 9031   0.608   2.072   3.627 -0.1204  1.7962  0.4053
 3023TIP3   OH2 9032   6.623   5.571   5.789 -0.6753  0.0170 -0.5439
 3023TIP3    H1 9033   6.715   5.554   5.767 -0.2334 -0.6679  1.5970
 3023TIP3    H2 9034   6.576   5.497   5.750 -0.6570  1.3187 -3.2769
 3024TIP3   OH2 9035   4.422   1.458   5.594 -0.4806  0.4693  0.3452
 3024TIP3    H1 9036   4.473   1.415   5.662  0.1738  0.2344 -0.2754
 3024TIP3    H2 9037   4.426   1.551   5.615 -0.5655  0.3650  0.8145
 3025TIP3   OH2 9038   3.467   3.145   4.860 -0.0063  0.5378  0.0029
 3025TIP3    H1 9039   3.453   3.165   4.767  0.9518  1.6234  0.0610
 3025TIP3    H2 9040   3.464   3.230   4.903 -0.5219  0.0340  0.9937
 3026TIP3   OH2 9041   2.679   0.789   4.132 -0.3093  0.2421 -0.5530
 3026TIP3    H1 9042   2.641   0.860   4.080 -0.8619  1.5152  1.4988
 3026TIP3    H2 9043   2.749   0.754   4.077 -0.8169  1.5679 -2.1143
 3027TIP3   OH2 9044   1.384   4.543   4.114 -0.2688  0.6917 -0.1494
 3027TIP3    H1 9045   1.334   4.584   4.185  0.8211  0.6434  0.6531
 3027TIP3    H2 9046   1.385   4.450   4.135 -0.1415  0.6429 -0.3644
 3028TIP3   OH2 9047   3.395   6.275   3.060 -0.2819  0.3595 -0.0931
 3028TIP3    H1 9048   3.464   6.210   3.071  0.6934  1.3458 -0.3195
 3028TIP3    H2 9049   3.319   6.224   3.031  0.9088 -0.4809 -1.8669
 3029TIP3   OH2 9050   4.901   0.966   3.714  0.2105 -0.2425  0.4914
 3029TIP3    H1 9051   4.875   1.053   3.746  0.4413  0.3272 -0.8177
 3029TIP3    H2 9052   4.819   0.923   3.690  0.0968 -0.3946  1.1313
 3030TIP3   OH2 9053   1.608   4.131   4.644 -0.3050 -0.2815 -0.1793
 3030TIP3    H1 9054   1.691   4.179   4.648 -1.3487  1.5948  0.3504
 3030TIP3    H2 9055   1.593   4.116   4.551  0.8446 -1.0901 -0.2565
 3031TIP3   OH2 9056   1.825   2.936   3.621  0.1643 -0.3507 -0.1981
 3031TIP3    H1 9057   1.844   2.845   3.598 -0.2059 -0.4797  0.0093
 3031TIP3    H2 9058   1.749   2.932   3.678  0.6997  0.0252  0.5630
 3032TIP3   OH2 9059   5.539   4.746   4.556 -0.2204  0.0375 -0.1826
 3032TIP3    H1 9060   5.511   4.668   4.605  0.2200  0.2432  0.4104
 3032TIP3    H2 9061   5.485   4.817   4.591 -0.7906 -0.0446 -0.8942
 3033TIP3   OH2 9062   1.207   0.199   0.137  0.5044 -0.0753  0.5126
 3033TIP3    H1 9063   1.225   0.261   0.066  0.4769  1.1952  1.5582
 3033TIP3    H2 9064   1.293   0.182   0.177  0.2273  1.5573  1.9714
 3034TIP3   OH2 9065   4.103   5.773   4.620 -0.2938 -0.3548 -0.0903
 3034TIP3    H1 9066   4.045   5.840   4.656 -0.0037  1.4043 -2.6405
 3034TIP3    H2 9067   4.045   5.719   4.565 -0.0127 -0.3534 -0.3918
 3035TIP3   OH2 9068   2.213   1.865   3.113 -0.3135 -0.1854 -0.0996
 3035TIP3    H1 9069   2.129   1.908   3.127 -0.8448 -1.2838  0.2788
 3035TIP3    H2 9070   2.192   1.771   3.116  1.2153 -0.5540  2.0481
 3036TIP3   OH2 9071   0.962   3.238   5.237 -0.2715  0.3332  0.0219
 3036TIP3    H1 9072   1.057   3.247   5.238 -0.0810 -1.2006 -0.8543
 3036TIP3    H2 9073   0.935   3.259   5.326  0.8891  0.7240  0.2981
 3037TIP3   OH2 9074   7.144   2.103   1.215 -0.7181 -0.4166  0.2217
 3037TIP3    H1 9075   7.203   2.068   1.282 -1.3413  1.0911  1.6006
 3037TIP3    H2 9076   7.067   2.046   1.219 -0.4386 -0.8071  0.2033
 3038TIP3   OH2 9077   5.660   6.019   4.957  0.1135 -0.0482 -0.1093
 3038TIP3    H1 9078   5.616   6.091   4.913  1.0006 -0.6118 -1.9931
 3038TIP3    H2 9079   5.648   5.944   4.899  2.5353 -0.4777 -0.1489
 3039TIP3   OH2 9080   4.371   2.700   5.038 -0.2426  0.1861  0.7818
 3039TIP3    H1 9081   4.302   2.689   4.972  0.1369 -2.8675  0.7307
 3039TIP3    H2 9082   4.323   2.719   5.119 -0.8512  1.8175  0.0699
 3040TIP3   OH2 9083   4.119   3.944   1.274 -0.5402 -0.2312  0.1688
 3040TIP3    H1 9084   4.117   4.031   1.235 -2.4489 -1.2797 -2.3819
 3040TIP3    H2 9085   4.205   3.909   1.253  0.1035  0.8598  0.9068
 3041TIP3   OH2 9086   5.572   5.634   5.741 -0.1973  0.0326  0.0088
 3041TIP3    H1 9087   5.637   5.693   5.780  0.9982  0.0414 -1.8426
 3041TIP3    H2 9088   5.576   5.654   5.647 -2.7905 -0.1087 -0.1828
 3042TIP3   OH2 9089   3.544   2.625   2.066  0.4922  0.6629 -0.0445
 3042TIP3    H1 9090   3.549   2.560   2.135 -1.8945 -0.2055 -0.5731
 3042TIP3    H2 9091   3.634   2.634   2.034  1.6392  0.9929  2.9828
 3043TIP3   OH2 9092   1.934   3.462   3.694  0.1940  0.0630 -0.1556
 3043TIP3    H1 9093   1.996   3.515   3.644 -0.2146  0.1885 -0.5328
 3043TIP3    H2 9094   1.946   3.373   3.660  1.0877 -0.1648  0.6782
 3044TIP3   OH2 9095   5.563   1.813   4.006  0.0246 -0.1004 -0.1430
 3044TIP3    H1 9096   5.631   1.770   4.057  0.4267  0.1554 -0.4539
 3044TIP3    H2 9097   5.610   1.859   3.936 -0.6343 -2.3930 -2.2481
 3045TIP3   OH2 9098   6.877   0.409   3.142  0.0249  0.1311 -0.6284
 3045TIP3    H1 9099   6.785   0.423   3.120 -0.6745  0.4295  2.1060
 3045TIP3    H2 9100   6.887   0.314   3.142 -0.2099  0.1000 -1.1156
 3046TIP3   OH2 9101   3.126   6.655   4.066  0.1357 -0.1141 -0.1304
 3046TIP3    H1 9102   3.048   6.600   4.065 -1.2285  1.7270 -0.1764
 3046TIP3    H2 9103   3.189   6.608   4.011  0.3254 -3.2910  2.5196
 3047TIP3   OH2 9104   3.903   3.848   4.105 -0.0934  0.3177  0.2439
 3047TIP3    H1 9105   3.952   3.915   4.057  0.8062 -0.9072 -0.6218
 3047TIP3    H2 9106   3.840   3.815   4.042 -0.1108 -0.0693  0.4606
 3048TIP3   OH2 9107   1.382   5.937   4.919 -0.2179  0.1634  0.0870
 3048TIP3    H1 9108   1.290   5.916   4.903 -0.8102  1.6562  1.2336
 3048TIP3    H2 9109   1.399   5.902   5.006 -0.0003  0.7315  0.2760
 3049TIP3   OH2 9110   4.527   0.639   1.145 -0.2009 -0.0578  0.2552
 3049TIP3    H1 9111   4.582   0.629   1.222  1.7987 -0.5942 -1.1828
 3049TIP3    H2 9112   4.577   0.696   1.086 -1.3344 -0.2840 -0.9778
 3050TIP3   OH2 9113   4.707   0.429   1.740  0.5379 -0.2738  0.0789
 3050TIP3    H1 9114   4.700   0.495   1.809  2.8027 -1.0980  1.2114
 3050TIP3    H2 9115   4.734   0.477   1.663  0.4393  0.3452  0.4274
 3051TIP3   OH2 9116   4.212   6.651   2.575  0.4702  0.1703  0.2850
 3051TIP3    H1 9117   4.225   6.740   2.542  0.1359 -0.4903 -1.7452
 3051TIP3    H2 9118   4.128   6.654   2.621  0.9377  1.1206  1.1022
 3052TIP3   OH2 9119   5.254   4.388   4.079  0.0825 -0.2845  0.4158
 3052TIP3    H1 9120   5.282   4.478   4.095 -1.8055  0.4796 -0.3275
 3052TIP3    H2 9121   5.219   4.389   3.990 -0.7039 -1.5541  0.6813
 3053TIP3   OH2 9122   0.215   6.000   4.818 -0.1221  0.4660  0.0119
 3053TIP3    H1 9123   0.248   5.923   4.863  0.3819 -0.4299 -1.7709
 3053TIP3    H2 9124   0.292   6.054   4.803 -0.6734  2.0678  2.5028
 3054TIP3   OH2 9125   1.862   4.939   5.016 -0.1573 -0.0365  0.0117
 3054TIP3    H1 9126   1.931   4.996   5.050  2.1170 -1.9574 -1.0885
 3054TIP3    H2 9127   1.837   4.885   5.091  0.5795 -0.2737  0.0981
 3055TIP3   OH2 9128   5.883   1.078   0.731 -0.5259  0.8597  0.2763
 3055TIP3    H1 9129   5.876   1.112   0.820  2.0684  0.3184  0.7759
 3055TIP3    H2 9130   5.943   1.138   0.687  0.8338 -0.6503 -0.0533
 3056TIP3   OH2 9131   3.539   1.461   1.941  0.5275  0.8680  0.7847
 3056TIP3    H1 9132   3.491   1.470   2.024  0.5029 -0.0935  0.8775
 3056TIP3    H2 9133   3.623   1.504   1.958  0.7486  0.1777  1.5000
 3057TIP3   OH2 9134   7.068   1.030   0.556  0.3527  0.0474 -0.0893
 3057TIP3    H1 9135   6.998   1.060   0.498  1.6104  1.5836 -0.8980
 3057TIP3    H2 9136   7.030   1.035   0.644 -1.3031 -1.4901 -0.6661
 3058TIP3   OH2 9137   1.141   3.562   0.991 -0.0403  0.1355 -0.3274
 3058TIP3    H1 9138   1.185   3.478   1.008 -0.2885 -0.4424 -2.2757
 3058TIP3    H2 9139   1.064   3.561   1.048  0.4585 -0.5237  0.3648
 3059TIP3   OH2 9140   5.429   6.034   1.338  0.2582  0.2105 -0.4573
 3059TIP3    H1 9141   5.446   6.050   1.246 -3.4758 -3.7417 -2.1896
 3059TIP3    H2 9142   5.370   6.104   1.365 -1.3279 -0.4006 -2.1928
 3060TIP3   OH2 9143   1.925   5.066   2.133 -0.0132  0.3808 -0.2428
 3060TIP3    H1 9144   1.886   5.137   2.083  0.0659  0.8091  0.2985
 3060TIP3    H2 9145   2.015   5.059   2.099  0.6122  1.8267  0.9903
 3061TIP3   OH2 9146   0.998   6.339   2.700  0.2856  0.1310  0.1905
 3061TIP3    H1 9147   1.006   6.259   2.752 -1.0599 -1.0544 -1.2943
 3061TIP3    H2 9148   1.080   6.343   2.651  0.5821 -0.0423  0.6632
 3062TIP3   OH2 9149   6.095   0.028   1.601  0.2394  0.1609  0.2207
 3062TIP3    H1 9150   6.102   0.079   1.521 -1.7624 -1.0534 -0.7956
 3062TIP3    H2 9151   6.164   0.063   1.658  0.7840  2.0106 -1.4736
 3063TIP3   OH2 9152   3.274   1.987   1.135  0.0650  0.2283 -0.0560
 3063TIP3    H1 9153   3.328   1.994   1.214 -0.4383  2.1764  0.1832
 3063TIP3    H2 9154   3.281   2.073   1.093  0.5934 -0.8555 -2.3597
 3064TIP3   OH2 9155   1.924   4.234   3.416 -0.0362  0.1755  0.0065
 3064TIP3    H1 9156   1.867   4.158   3.425 -0.0404  0.1188 -0.4621
 3064TIP3    H2 9157   1.916   4.259   3.324 -1.2488  1.7093  0.4971
 3065TIP3   OH2 9158   6.556   3.887   0.705 -0.2371 -0.0647 -0.0852
 3065TIP3    H1 9159   6.570   3.858   0.615 -0.7334 -2.8400  0.6309
 3065TIP3    H2 9160   6.626   3.845   0.754 -1.3516 -0.5541  1.1391
 3066TIP3   OH2 9161   5.517   5.258   2.047 -0.6527 -0.1833  0.1551
 3066TIP3    H1 9162   5.449   5.239   2.112 -0.8934  0.9152  0.2466
 3066TIP3    H2 9163   5.544   5.348   2.066 -0.9248  0.2570 -1.4415
 3067TIP3   OH2 9164   5.496   5.435   2.278  0.0717  0.3380 -0.0857
 3067TIP3    H1 9165   5.569   5.424   2.339  0.6080  1.1919 -0.5478
 3067TIP3    H2 9166   5.505   5.525   2.246 -0.6942  0.1799 -0.7777
 3068TIP3   OH2 9167   0.549   4.785   2.707 -0.4111 -0.5018  0.0973
 3068TIP3    H1 9168   0.627   4.805   2.758 -0.5024  0.7369 -0.2143
 3068TIP3    H2 9169   0.476   4.815   2.762 -0.6057 -0.7588 -0.0209
 3069TIP3   OH2 9170   2.074   3.833   1.506 -0.8449 -0.2657  0.5427
 3069TIP3    H1 9171   2.159   3.864   1.535 -1.1395  0.4098  0.7072
 3069TIP3    H2 9172   2.093   3.779   1.429 -0.3687  0.8858 -0.1779
 3070TIP3   OH2 9173   5.870   4.953   4.362  0.5319  0.5109 -0.2944
 3070TIP3    H1 9174   5.841   4.886   4.301  1.6126  1.2942 -1.7568
 3070TIP3    H2 9175   5.817   5.030   4.341  1.6137  1.0946 -1.0123
 3071TIP3   OH2 9176   4.842   1.673   0.954 -0.5705  0.2258 -0.1421
 3071TIP3    H1 9177   4.935   1.689   0.945 -0.4843  0.2520  0.7155
 3071TIP3    H2 9178   4.830   1.649   1.046 -1.5334  1.1362 -0.0074
 3072TIP3   OH2 9179   2.257   4.026   5.532  0.2307 -0.5009  0.6031
 3072TIP3    H1 9180   2.223   4.058   5.449 -0.6900 -0.9008  0.8157
 3072TIP3    H2 9181   2.349   4.007   5.514  0.3458  0.5175 -0.0040
 3073TIP3   OH2 9182   3.832   0.114   3.962  0.5743 -0.9393 -0.0904
 3073TIP3    H1 9183   3.791   0.047   4.016 -0.2688 -1.0174 -0.8123
 3073TIP3    H2 9184   3.782   0.114   3.881  1.7642 -0.7518 -0.8449
 3074TIP3   OH2 9185   5.465   0.472   1.697  0.4656  0.1357  0.4178
 3074TIP3    H1 9186   5.543   0.423   1.724  0.3613  0.1894  0.8327
 3074TIP3    H2 9187   5.497   0.535   1.633  0.7130 -0.0401  0.3659
 3075TIP3   OH2 9188   2.685   5.233   0.835  0.4941 -0.7170 -0.0178
 3075TIP3    H1 9189   2.748   5.245   0.765 -0.1273  0.8935 -0.3288
 3075TIP3    H2 9190   2.725   5.274   0.911  0.5609 -1.2358  0.2346
 3076TIP3   OH2 9191   1.673   4.370   5.025  0.2691  0.0414  0.2323
 3076TIP3    H1 9192   1.669   4.463   5.003  0.5562 -0.0246 -0.1096
 3076TIP3    H2 9193   1.696   4.368   5.117  1.4897  0.2969 -0.0526
 3077TIP3   OH2 9194   1.857   5.978   2.641  0.4553  0.0071 -0.0393
 3077TIP3    H1 9195   1.934   6.034   2.637 -0.3479  1.2446  1.0144
 3077TIP3    H2 9196   1.887   5.893   2.608  2.4762  0.2266  1.1005
 3078TIP3   OH2 9197   5.336   4.931   4.719  0.2352 -0.7393 -0.0078
 3078TIP3    H1 9198   5.324   4.971   4.633 -0.8550 -1.6577 -0.3048
 3078TIP3    H2 9199   5.247   4.912   4.750  0.6732 -2.1441  0.4790
 3079TIP3   OH2 9200   3.718   5.178   1.236  0.3143 -0.3993 -0.9936
 3079TIP3    H1 9201   3.660   5.234   1.185 -0.8890 -0.0850  0.6595
 3079TIP3    H2 9202   3.720   5.095   1.188 -1.4127 -0.3802 -1.1511
 3080TIP3   OH2 9203   2.729   5.730   4.183 -0.2551  0.1305  0.0306
 3080TIP3    H1 9204   2.711   5.678   4.261  1.2083  0.9818  1.0030
 3080TIP3    H2 9205   2.644   5.743   4.142 -0.8509 -1.6990  0.5930
 3081TIP3   OH2 9206   2.892   5.639   4.504 -0.3728  0.6848  0.2192
 3081TIP3    H1 9207   2.987   5.641   4.491 -0.1678 -1.2754  1.0777
 3081TIP3    H2 9208   2.875   5.702   4.574  0.1758  1.5722 -0.4240
 3082TIP3   OH2 9209   5.072   0.513   1.350 -0.5353 -0.5001 -0.3248
 3082TIP3    H1 9210   5.065   0.420   1.330 -2.7752 -0.6689  0.9676
 3082TIP3    H2 9211   5.108   0.516   1.439  0.1736 -0.0962 -0.6178
 3083TIP3   OH2 9212   0.553   5.341   4.700 -0.0853 -0.1980 -0.0928
 3083TIP3    H1 9213   0.524   5.396   4.627  1.4865  1.5749  0.5297
 3083TIP3    H2 9214   0.648   5.339   4.692 -0.0068 -1.4078  0.9210
 3084TIP3   OH2 9215   5.981   0.831   2.776  0.2826  0.8121  0.1443
 3084TIP3    H1 9216   5.921   0.880   2.721  0.1586 -0.5611 -0.9982
 3084TIP3    H2 9217   6.040   0.786   2.715  0.0280 -0.9018  1.0816
 3085TIP3   OH2 9218   4.803   0.734   2.494 -0.4156  0.2180  0.2032
 3085TIP3    H1 9219   4.805   0.829   2.483 -1.3285  0.2574  0.2842
 3085TIP3    H2 9220   4.860   0.700   2.425 -1.0999  0.7655 -0.6475
 3086TIP3   OH2 9221   2.614   0.677   1.406 -0.1361  0.4608 -0.0728
 3086TIP3    H1 9222   2.710   0.680   1.399 -0.0650  0.2282  0.7105
 3086TIP3    H2 9223   2.591   0.758   1.450  0.1289 -1.2869  3.7587
 3087TIP3   OH2 9224   4.887   0.877   4.753  0.6072  0.5272 -0.2856
 3087TIP3    H1 9225   4.894   0.835   4.838  0.6482 -0.2208 -0.6483
 3087TIP3    H2 9226   4.849   0.963   4.771  0.2721  0.2284  0.4409
 3088TIP3   OH2 9227   5.299   5.021   4.472 -0.1945  0.5392  0.4393
 3088TIP3    H1 9228   5.371   5.020   4.409  1.2396 -1.1100  1.9962
 3088TIP3    H2 9229   5.230   4.970   4.430  0.3521  0.2994 -0.1854
 3089TIP3   OH2 9230   1.304   0.473   4.546 -0.4324  0.2566 -0.2179
 3089TIP3    H1 9231   1.308   0.549   4.604 -1.1698  1.1190 -1.2719
 3089TIP3    H2 9232   1.247   0.500   4.475 -0.2984 -1.1195 -0.8725
 3090TIP3   OH2 9233  -0.002   1.403   5.786 -0.3942 -0.1409  0.3496
 3090TIP3    H1 9234  -0.006   1.395   5.691 -0.3925  0.4302  0.2973
 3090TIP3    H2 9235   0.062   1.337   5.813 -0.8668 -0.7513  0.0203
 3091TIP3   OH2 9236   5.854   2.779   5.801 -0.2208 -0.1635  0.2288
 3091TIP3    H1 9237   5.852   2.854   5.861 -2.5542 -0.7834  1.0802
 3091TIP3    H2 9238   5.882   2.706   5.856 -2.8493 -0.8370  0.8571
 3092TIP3   OH2 9239   5.671   3.346   1.361  0.0211  0.0472 -0.1692
 3092TIP3    H1 9240   5.688   3.349   1.455  2.8506 -1.1127 -0.5470
 3092TIP3    H2 9241   5.710   3.427   1.327 -0.6622  0.2834 -0.4091
 3093TIP3   OH2 9242   6.187   2.111   5.089  0.1424  0.2548  0.5956
 3093TIP3    H1 9243   6.133   2.190   5.102 -0.7652 -0.4555  1.2897
 3093TIP3    H2 9244   6.144   2.064   5.018  1.5732  1.1129 -0.8877
 3094TIP3   OH2 9245   6.491   0.522   5.700  0.1463 -0.4694  0.2114
 3094TIP3    H1 9246   6.539   0.562   5.628 -1.7142  0.0768 -0.8026
 3094TIP3    H2 9247   6.409   0.571   5.704 -0.9439 -2.2332  0.9114
 3095TIP3   OH2 9248   5.181   4.190   2.231  0.0238  0.6547 -0.1131
 3095TIP3    H1 9249   5.234   4.143   2.295  1.4866 -0.9930 -2.4084
 3095TIP3    H2 9250   5.095   4.147   2.235 -0.4707  1.6729  1.8063
 3096TIP3   OH2 9251   0.529   5.091   3.050 -0.4107  0.2406  0.4303
 3096TIP3    H1 9252   0.479   5.171   3.059  1.4930  1.2962  3.3136
 3096TIP3    H2 9253   0.463   5.021   3.048 -2.0422  1.7037  0.8949
 3097TIP3   OH2 9254   1.377   4.376   4.667 -0.7863  0.0727  0.0025
 3097TIP3    H1 9255   1.375   4.334   4.582 -0.8395  1.6776 -0.8219
 3097TIP3    H2 9256   1.368   4.304   4.730 -1.4188 -1.0601 -1.3439
 3098TIP3   OH2 9257   4.353   0.845   4.523 -0.6958 -0.2148 -0.2399
 3098TIP3    H1 9258   4.372   0.886   4.438  1.1194  0.6662  0.5327
 3098TIP3    H2 9259   4.439   0.828   4.561 -1.4640 -0.2676  1.5722
 3099TIP3   OH2 9260   1.533   0.892   4.032 -0.3925 -0.2414 -0.3834
 3099TIP3    H1 9261   1.542   0.973   4.081  1.8577 -0.3997 -0.4406
 3099TIP3    H2 9262   1.619   0.850   4.038 -1.0262 -1.8593 -1.6845
 3100TIP3   OH2 9263   4.120   3.046   1.269 -0.3291  0.1742  0.8328
 3100TIP3    H1 9264   4.213   3.036   1.252 -0.3643 -0.4945  0.9913
 3100TIP3    H2 9265   4.102   3.138   1.251 -0.0033 -0.0672 -0.9808
 3101TIP3   OH2 9266   7.092   3.503   1.462 -0.0503  0.4679  0.1835
 3101TIP3    H1 9267   7.111   3.480   1.371 -0.8396 -0.8072  0.3020
 3101TIP3    H2 9268   6.998   3.521   1.463  0.2810  2.3788  0.4066
 3102TIP3   OH2 9269   4.883   2.430   3.036 -0.5327  0.3023 -0.6343
 3102TIP3    H1 9270   4.818   2.494   3.065 -0.6802 -0.5198  0.9153
 3102TIP3    H2 9271   4.862   2.351   3.085 -0.0054 -0.7879 -2.1004
 3103TIP3   OH2 9272   1.370   1.393   2.750 -0.2961  0.5006 -0.3011
 3103TIP3    H1 9273   1.382   1.353   2.664  0.3923  0.0696 -0.0115
 3103TIP3    H2 9274   1.393   1.325   2.812 -1.2982  0.6374  0.2506
 3104TIP3   OH2 9275   4.871   4.221   3.748  0.8442 -0.3851 -0.2789
 3104TIP3    H1 9276   4.912   4.181   3.825  0.0653 -1.6895 -0.4981
 3104TIP3    H2 9277   4.785   4.179   3.743  0.2045  0.9510 -0.8779
 3105TIP3   OH2 9278   5.585   0.766   0.105  0.5297 -0.0896  0.6088
 3105TIP3    H1 9279   5.640   0.701   0.148  0.3401 -0.5839  0.1088
 3105TIP3    H2 9280   5.535   0.717   0.040  1.2567  0.7236 -0.6219
 3106TIP3   OH2 9281   5.715   0.901   4.235 -0.1045 -0.6295 -0.2117
 3106TIP3    H1 9282   5.800   0.942   4.219 -0.5267  0.8299  1.0659
 3106TIP3    H2 9283   5.659   0.936   4.166 -0.1985  0.1799  0.2567
 3107TIP3   OH2 9284   6.674   1.483   3.789  0.0108  0.5737 -0.5478
 3107TIP3    H1 9285   6.731   1.499   3.714  1.2332 -1.5275 -0.1551
 3107TIP3    H2 9286   6.592   1.451   3.750  1.0549 -1.6994 -1.0588
 3108TIP3   OH2 9287   4.800   0.041   3.588  0.3084 -0.0816 -0.0798
 3108TIP3    H1 9288   4.777   0.129   3.620  1.2349 -0.2928  1.2832
 3108TIP3    H2 9289   4.869   0.057   3.524 -0.0758  0.2350 -0.4182
 3109TIP3   OH2 9290   0.826   0.241   0.373 -0.2768 -0.8328  0.0091
 3109TIP3    H1 9291   0.785   0.162   0.407 -2.4917 -1.5862 -3.7740
 3109TIP3    H2 9292   0.762   0.310   0.392  1.6067  0.2316  3.2184
 3110TIP3   OH2 9293   7.212   3.154   5.164  0.0901  0.4461 -0.4274
 3110TIP3    H1 9294   7.240   3.185   5.077 -0.4248 -0.0128 -0.7580
 3110TIP3    H2 9295   7.137   3.209   5.186  0.7464  1.1515  0.1210
 3111TIP3   OH2 9296   2.641   4.780   1.294  0.4998 -0.1925  0.2071
 3111TIP3    H1 9297   2.635   4.725   1.215 -2.4526 -1.1967  0.9994
 3111TIP3    H2 9298   2.729   4.763   1.327 -0.0828 -4.3382  0.2194
 3112TIP3   OH2 9299   1.142   3.485   3.350  0.5230 -0.1358 -0.1600
 3112TIP3    H1 9300   1.055   3.474   3.311  1.6058 -1.0819 -2.4886
 3112TIP3    H2 9301   1.169   3.573   3.323  0.0743  0.3894  1.0645
 3113TIP3   OH2 9302   2.785   4.507   2.249 -0.1907 -0.4158 -0.1501
 3113TIP3    H1 9303   2.754   4.416   2.251  0.4889 -0.6628  2.3945
 3113TIP3    H2 9304   2.850   4.508   2.179 -1.4089 -1.4412 -1.3479
 3114TIP3   OH2 9305   3.569   4.601   0.661  0.0847  0.2867  0.0193
 3114TIP3    H1 9306   3.529   4.686   0.680 -1.6193 -0.3286 -0.6215
 3114TIP3    H2 9307   3.589   4.564   0.747 -1.8719  0.1321  0.4598
 3115TIP3   OH2 9308   6.451   4.943   2.798 -0.2733  0.3440  0.0710
 3115TIP3    H1 9309   6.427   4.851   2.788  0.4713  0.0128  1.1800
 3115TIP3    H2 9310   6.375   4.984   2.838 -0.3738  0.0885  0.1455
 3116TIP3   OH2 9311   1.789   6.561   0.164  0.1631 -0.0911  0.0634
 3116TIP3    H1 9312   1.864   6.560   0.223  1.0395 -0.4058 -1.0147
 3116TIP3    H2 9313   1.764   6.469   0.156 -2.0807  0.2111  2.4958
 3117TIP3   OH2 9314   3.899   4.510   4.057  0.0917  0.0582  0.5711
 3117TIP3    H1 9315   3.858   4.487   4.140 -3.7079  1.8165 -0.5500
 3117TIP3    H2 9316   3.920   4.426   4.017 -1.8950 -1.0427  1.6401
 3118TIP3   OH2 9317   1.262   4.564   1.012  0.1314 -0.5042 -0.3203
 3118TIP3    H1 9318   1.295   4.619   1.083 -3.2684  1.9080 -0.3722
 3118TIP3    H2 9319   1.236   4.482   1.054 -2.7626  1.2418  1.5853
 3119TIP3   OH2 9320   6.762   6.566   4.065  0.3191  0.5098  0.0750
 3119TIP3    H1 9321   6.844   6.555   4.017 -0.2376  0.1734 -0.8501
 3119TIP3    H2 9322   6.770   6.507   4.140  0.6735  0.0076 -0.3505
 3120TIP3   OH2 9323   1.326   5.442   2.862 -0.3375  0.5541 -0.1718
 3120TIP3    H1 9324   1.315   5.363   2.915 -0.9096 -0.1053 -1.2313
 3120TIP3    H2 9325   1.324   5.513   2.925 -1.4868 -0.1689  0.6648
 3121TIP3   OH2 9326   5.303   6.475   5.350  0.5130 -0.1661 -0.0845
 3121TIP3    H1 9327   5.217   6.506   5.322  0.0814 -1.0734  0.2269
 3121TIP3    H2 9328   5.310   6.503   5.441 -0.3073 -1.8046  0.5250
 3122TIP3   OH2 9329   0.554   1.571   5.246 -0.7781 -0.1228  0.5020
 3122TIP3    H1 9330   0.582   1.563   5.337 -1.7660 -0.4270  0.7914
 3122TIP3    H2 9331   0.463   1.599   5.252 -0.4147  1.3217 -0.4120
 3123TIP3   OH2 9332   1.572   0.875   5.665  0.0776 -0.3650 -0.0055
 3123TIP3    H1 9333   1.658   0.842   5.639  0.5465 -0.4587  1.5284
 3123TIP3    H2 9334   1.570   0.863   5.760 -1.3100  0.4028  0.0887
 3124TIP3   OH2 9335   1.032   2.329   2.192  0.1276 -0.3600 -0.0579
 3124TIP3    H1 9336   0.975   2.260   2.226  0.3457 -0.9060 -0.7806
 3124TIP3    H2 9337   1.012   2.333   2.098 -0.3122  0.9747  0.0713
 3125TIP3   OH2 9338   5.797   1.468   1.625  0.0779 -0.2044  0.2892
 3125TIP3    H1 9339   5.763   1.557   1.617 -0.3487 -0.2451  1.3344
 3125TIP3    H2 9340   5.719   1.415   1.644  0.4421 -0.6487  0.5772
 3126TIP3   OH2 9341   4.745   5.226   5.737 -0.6254  0.2152  0.1738
 3126TIP3    H1 9342   4.721   5.155   5.677 -1.5862 -0.0322  0.8140
 3126TIP3    H2 9343   4.831   5.202   5.770 -0.4550 -0.0775 -0.4669
 3127TIP3   OH2 9344   2.282   6.103   0.326  0.0392  0.2483  0.2916
 3127TIP3    H1 9345   2.188   6.088   0.319  0.0435  0.1035  0.5151
 3127TIP3    H2 9346   2.310   6.128   0.238 -0.3513  1.1318  0.4125
 3128TIP3   OH2 9347   2.693   5.586   2.834  0.3991 -0.0145 -0.1007
 3128TIP3    H1 9348   2.685   5.591   2.930 -0.7816 -1.3225 -0.1050
 3128TIP3    H2 9349   2.765   5.524   2.819  0.3008 -0.1344 -0.0713
 3129TIP3   OH2 9350   5.492   3.698   0.351 -0.2367  0.0505  0.3596
 3129TIP3    H1 9351   5.562   3.736   0.298 -0.0879 -0.3098  0.2979
 3129TIP3    H2 9352   5.442   3.774   0.382  1.6120  0.4883  2.4266
 3130TIP3   OH2 9353   0.014   0.942   5.756  0.5861  0.4543  0.1033
 3130TIP3    H1 9354  -0.043   0.867   5.739  1.4652 -0.0881 -0.5441
 3130TIP3    H2 9355   0.101   0.904   5.769  1.2492  1.4027 -1.2685
 3131TIP3   OH2 9356   6.545   3.617   4.665 -0.2911 -0.3539 -0.1943
 3131TIP3    H1 9357   6.577   3.578   4.746 -0.2024 -1.6982 -0.8466
 3131TIP3    H2 9358   6.588   3.567   4.595 -0.2769  0.8412 -1.0838
 3132TIP3   OH2 9359   3.141   6.329   2.357  0.0768 -0.4993  0.0275
 3132TIP3    H1 9360   3.166   6.412   2.318 -2.9964  0.3097 -0.4514
 3132TIP3    H2 9361   3.134   6.348   2.451 -1.0035 -0.0891 -0.1284
 3133TIP3   OH2 9362   3.859   4.278   3.142 -0.2235  0.1711  0.2205
 3133TIP3    H1 9363   3.928   4.213   3.149 -0.8039 -0.2840  2.3785
 3133TIP3    H2 9364   3.905   4.362   3.150  0.1311 -0.1147  1.3511
 3134TIP3   OH2 9365   0.321   5.495   4.938  0.3742 -1.0057  0.1574
 3134TIP3    H1 9366   0.335   5.411   4.894 -0.2907 -1.0746  0.0755
 3134TIP3    H2 9367   0.409   5.522   4.965  0.6155 -1.6406  0.0308
 3135TIP3   OH2 9368   5.696   1.445   0.307 -0.5941 -0.0409  0.0995
 3135TIP3    H1 9369   5.788   1.455   0.280  0.1322 -1.4085  1.8640
 3135TIP3    H2 9370   5.680   1.351   0.305 -1.3740  0.0284  1.5030
 3136TIP3   OH2 9371   4.192   0.303   4.458 -0.2750  0.3105  0.0983
 3136TIP3    H1 9372   4.130   0.376   4.458 -1.4108 -0.6189 -0.7327
 3136TIP3    H2 9373   4.184   0.265   4.371 -1.3807 -2.1605  1.1846
 3137TIP3   OH2 9374   2.787   1.935   3.542 -0.4071  0.1046  0.2629
 3137TIP3    H1 9375   2.863   1.920   3.484  0.1712  0.2908  0.9667
 3137TIP3    H2 9376   2.806   2.016   3.587 -1.3066  0.4584  0.0352
 3138TIP3   OH2 9377   6.760   5.472   0.073 -0.5310 -0.2372  0.1118
 3138TIP3    H1 9378   6.820   5.425   0.015 -0.0579 -0.8090  1.0511
 3138TIP3    H2 9379   6.676   5.469   0.027  0.0005  0.0066 -0.9060
 3139TIP3   OH2 9380   4.302   3.535   2.062  0.0093 -0.1964 -0.3544
 3139TIP3    H1 9381   4.266   3.609   2.110  1.2343 -0.0387  0.3801
 3139TIP3    H2 9382   4.325   3.571   1.976  1.0163  0.4095  0.1514
 3140TIP3   OH2 9383   1.680   1.703   1.842 -0.2710  0.5247  0.6665
 3140TIP3    H1 9384   1.628   1.640   1.892 -1.3057 -1.1782 -2.3611
 3140TIP3    H2 9385   1.621   1.737   1.776  1.5475  1.1934 -0.7112
 3141TIP3   OH2 9386   2.984   2.825   1.484 -0.1022 -0.6407  0.0914
 3141TIP3    H1 9387   2.927   2.855   1.414 -0.4212 -1.6458 -0.0896
 3141TIP3    H2 9388   3.035   2.903   1.509 -1.4295  0.2245  0.1616
 3142TIP3   OH2 9389   2.058   6.091   5.777 -0.5323 -1.0607  0.0462
 3142TIP3    H1 9390   2.067   6.031   5.703  0.7564 -0.8766  0.0315
 3142TIP3    H2 9391   2.144   6.091   5.819 -0.1932  1.4314 -0.4813
 3143TIP3   OH2 9392   1.143   6.682   0.698  0.0558 -0.2036 -0.0825
 3143TIP3    H1 9393   1.196   6.661   0.775 -1.0014 -0.3495  0.6287
 3143TIP3    H2 9394   1.053   6.686   0.732 -0.2968  0.8247 -1.1081
 3144TIP3   OH2 9395   2.557   3.775   1.917  0.6369 -0.0184 -0.2350
 3144TIP3    H1 9396   2.533   3.683   1.922  0.2667  0.1003  0.1432
 3144TIP3    H2 9397   2.606   3.792   1.997  1.1545 -0.0117 -0.5441
 3145TIP3   OH2 9398   4.472   4.891   2.352 -0.1890  0.1464 -0.3493
 3145TIP3    H1 9399   4.558   4.932   2.363  0.6249 -1.3539 -0.7616
 3145TIP3    H2 9400   4.462   4.882   2.257  0.7227 -2.5859 -0.2824
 3146TIP3   OH2 9401   0.058   1.022   3.188  0.3473 -0.1005  0.0973
 3146TIP3    H1 9402   0.041   0.929   3.207 -0.8334  0.1075  0.1329
 3146TIP3    H2 9403   0.044   1.030   3.094  1.3516 -0.1312 -0.0631
 3147TIP3   OH2 9404   0.436   6.265   1.482  0.0825  0.3870 -0.0690
 3147TIP3    H1 9405   0.406   6.312   1.404 -0.9693 -1.8080 -1.0613
 3147TIP3    H2 9406   0.510   6.212   1.452  0.1744  0.1262  0.6039
 3148TIP3   OH2 9407   5.708   0.161   5.292 -0.1997  0.4287  0.2641
 3148TIP3    H1 9408   5.625   0.204   5.312  0.2979  1.5170  0.0942
 3148TIP3    H2 9409   5.693   0.069   5.310 -1.7730  0.4458 -0.7668
 3149TIP3   OH2 9410   4.330   2.784   3.214  0.0731 -0.1455  0.1923
 3149TIP3    H1 9411   4.317   2.875   3.240  0.3043 -0.1619  0.3616
 3149TIP3    H2 9412   4.282   2.733   3.279  0.6008 -0.1833  0.5550
 3150TIP3   OH2 9413   6.545   4.289   1.375 -0.0859 -0.1413 -0.1888
 3150TIP3    H1 9414   6.639   4.297   1.389 -0.3028  0.6549  0.9229
 3150TIP3    H2 9415   6.530   4.195   1.363  0.7838 -0.3235  0.0945
 3151TIP3   OH2 9416   4.057   0.899   0.248 -0.1798 -0.0429 -0.6209
 3151TIP3    H1 9417   4.062   0.869   0.339 -0.6771  2.4785  0.3289
 3151TIP3    H2 9418   3.965   0.918   0.234  0.0199  0.4347 -1.3524
 3152TIP3   OH2 9419   4.032   1.090   4.315  0.1847 -0.8028 -0.1423
 3152TIP3    H1 9420   4.125   1.109   4.323  0.4296 -2.2003  0.4678
 3152TIP3    H2 9421   4.015   1.096   4.221  1.1163 -1.5489 -0.3696
 3153TIP3   OH2 9422   6.578   0.292   0.915 -0.2706 -0.3628  0.1495
 3153TIP3    H1 9423   6.540   0.216   0.959  1.5952 -1.1375  0.5252
 3153TIP3    H2 9424   6.640   0.254   0.852 -1.2295  0.7884 -1.5865
 3154TIP3   OH2 9425   4.610   1.787   1.406 -0.2818  0.0136  0.1954
 3154TIP3    H1 9426   4.589   1.792   1.499  1.1506  3.1964  0.4943
 3154TIP3    H2 9427   4.539   1.836   1.363 -1.5035 -2.3066 -0.6130
 3155TIP3   OH2 9428   3.642   1.098   4.694 -0.0916 -0.3398  0.1487
 3155TIP3    H1 9429   3.666   1.012   4.730  1.3021 -0.2057 -0.3887
 3155TIP3    H2 9430   3.583   1.078   4.622  1.7484 -1.0304 -1.2433
 3156TIP3   OH2 9431   3.634   6.270   2.629 -0.5361  0.5191 -0.0408
 3156TIP3    H1 9432   3.556   6.260   2.574 -0.2226 -0.9571 -0.2508
 3156TIP3    H2 9433   3.600   6.301   2.713 -1.1777  1.3673 -0.5995
 3157TIP3   OH2 9434   6.099   3.049   3.315 -0.1177  0.0389 -0.0625
 3157TIP3    H1 9435   6.070   3.004   3.394  0.2012 -0.2782 -0.1226
 3157TIP3    H2 9436   6.124   2.978   3.255 -1.7252  0.2169 -0.9847
 3158TIP3   OH2 9437   5.661   1.041   0.559  0.2634 -0.2619  0.0459
 3158TIP3    H1 9438   5.687   0.952   0.533  0.8628 -0.5084  1.4177
 3158TIP3    H2 9439   5.727   1.068   0.623 -1.6603 -0.0848  2.0775
 3159TIP3   OH2 9440   4.047   0.164   1.612  0.1253 -0.6128  0.1274
 3159TIP3    H1 9441   4.073   0.256   1.619  0.7796 -0.8350  0.7978
 3159TIP3    H2 9442   3.980   0.153   1.680 -1.7458 -0.0606 -1.5448
 3160TIP3   OH2 9443   6.231   1.317   0.810  0.5304 -0.0712 -0.0099
 3160TIP3    H1 9444   6.211   1.283   0.897 -0.3576  1.0899  0.2675
 3160TIP3    H2 9445   6.234   1.412   0.821  0.6477  0.0824 -1.1913
 3161TIP3   OH2 9446   0.149   5.251   3.917  0.2576  0.8240  0.1975
 3161TIP3    H1 9447   0.084   5.182   3.929 -0.1385  1.1601 -0.0161
 3161TIP3    H2 9448   0.099   5.327   3.887  0.7872  0.9959 -0.2690
 3162TIP3   OH2 9449   4.552   3.891   3.068  0.2205 -0.2873 -0.3358
 3162TIP3    H1 9450   4.568   3.945   3.145  0.3848  0.8237 -1.1230
 3162TIP3    H2 9451   4.600   3.934   2.998  0.2547 -1.4025 -1.0247
 3163TIP3   OH2 9452   7.174   3.437   0.831  0.0367 -0.6719 -0.1164
 3163TIP3    H1 9453   7.127   3.358   0.855  0.6950 -0.5794  1.5700
 3163TIP3    H2 9454   7.261   3.427   0.871  0.1517  0.8633  0.0819
 3164TIP3   OH2 9455   2.775   5.324   5.427 -0.4327 -0.3622 -0.0016
 3164TIP3    H1 9456   2.758   5.252   5.367 -0.7527 -0.2899 -0.0015
 3164TIP3    H2 9457   2.814   5.283   5.504  0.8024 -0.3516 -0.5934
 3165TIP3   OH2 9458   3.463   1.096   1.788 -0.2319 -0.3900  0.0527
 3165TIP3    H1 9459   3.549   1.121   1.754  1.1901 -3.6214  0.8665
 3165TIP3    H2 9460   3.458   1.138   1.873  2.0950 -2.5366  1.4205
 3166TIP3   OH2 9461   5.656   0.455   5.182  0.0059  0.0535 -0.4747
 3166TIP3    H1 9462   5.597   0.529   5.167  0.6907  0.5125 -0.9468
 3166TIP3    H2 9463   5.704   0.444   5.100  2.1250  1.1006  0.5285
 3167TIP3   OH2 9464   4.145   6.367   4.573  0.0089  0.6872 -0.4517
 3167TIP3    H1 9465   4.201   6.291   4.556 -0.8055  0.2268 -1.1901
 3167TIP3    H2 9466   4.187   6.412   4.646  0.6089 -0.3741 -0.1162
 3168TIP3   OH2 9467   6.568   5.303   5.727 -0.0367 -0.6147 -0.1517
 3168TIP3    H1 9468   6.651   5.275   5.763  0.4413  1.4694  0.5174
 3168TIP3    H2 9469   6.504   5.241   5.761  1.2659 -2.6118 -1.1599
 3169TIP3   OH2 9470   5.237   5.698   5.310 -0.0561 -0.3487 -0.4554
 3169TIP3    H1 9471   5.315   5.741   5.346  0.0502 -0.0443 -1.0363
 3169TIP3    H2 9472   5.181   5.770   5.280  0.3725 -0.6007 -1.9500
 3170TIP3   OH2 9473   0.991   1.245   2.760  0.2340 -0.0851  0.0613
 3170TIP3    H1 9474   1.074   1.212   2.726  1.0486  1.2225  0.6674
 3170TIP3    H2 9475   0.994   1.223   2.853 -1.2402 -2.1948 -0.3228
 3171TIP3   OH2 9476   0.999   2.760   0.615  0.0372  0.1120 -0.3403
 3171TIP3    H1 9477   1.086   2.723   0.598  0.0914  0.3045 -0.4919
 3171TIP3    H2 9478   0.938   2.690   0.592  0.1792 -0.5057  1.0260
 3172TIP3   OH2 9479   0.901   6.591   3.904  0.1237  0.0253 -0.4587
 3172TIP3    H1 9480   0.955   6.604   3.982  0.9673  0.5346 -1.1095
 3172TIP3    H2 9481   0.964   6.567   3.835 -0.6419 -0.7757 -0.9089
 3173TIP3   OH2 9482   5.530   2.337   0.541  0.0059 -0.1351  0.3987
 3173TIP3    H1 9483   5.613   2.307   0.502  0.0993 -0.6412  0.9710
 3173TIP3    H2 9484   5.493   2.396   0.476  0.2427 -0.8333 -0.3786
 3174TIP3   OH2 9485   3.806   1.253   4.901  0.1536  0.2077 -0.3706
 3174TIP3    H1 9486   3.726   1.303   4.883  0.8161  0.8615 -1.6368
 3174TIP3    H2 9487   3.807   1.184   4.834  2.0512  1.9495 -2.3160
 3175TIP3   OH2 9488   0.216   1.655   3.862 -0.1710 -0.6425  0.0870
 3175TIP3    H1 9489   0.281   1.694   3.921 -1.5706 -0.1482  1.3916
 3175TIP3    H2 9490   0.247   1.566   3.848  1.5684  0.0246 -0.5824
 3176TIP3   OH2 9491   2.911   4.257   2.702 -0.1905 -0.5475  0.1974
 3176TIP3    H1 9492   2.892   4.175   2.656 -1.1086 -0.1727 -0.1240
 3176TIP3    H2 9493   2.973   4.233   2.771 -2.3968 -2.0165  1.8031
 3177TIP3   OH2 9494   0.282   2.955   1.732 -0.1744  0.2437 -0.3839
 3177TIP3    H1 9495   0.345   2.933   1.663  2.3547  1.4505  1.3728
 3177TIP3    H2 9496   0.260   3.047   1.716 -1.0490  0.0091 -0.6102
 3178TIP3   OH2 9497   5.703   2.107   2.983  0.7482  0.7484 -0.2341
 3178TIP3    H1 9498   5.624   2.095   2.930  1.1576  1.0053 -0.9095
 3178TIP3    H2 9499   5.728   2.019   3.011 -0.6411  0.7793  1.2766
 3179TIP3   OH2 9500   7.039   1.002   0.854  0.6591  0.0449  0.7780
 3179TIP3    H1 9501   7.063   0.911   0.841 -2.0073 -0.4708 -1.3070
 3179TIP3    H2 9502   7.018   1.008   0.948  2.4193 -1.0142  1.2768
 3180TIP3   OH2 9503   1.391   2.228   2.098 -0.5578  0.4434  0.3258
 3180TIP3    H1 9504   1.432   2.166   2.158 -0.1762  0.4928  0.1179
 3180TIP3    H2 9505   1.454   2.238   2.026 -1.7712 -1.0426 -1.0335
 3181TIP3   OH2 9506   0.561   3.251   2.868  0.0990  0.0150  0.2304
 3181TIP3    H1 9507   0.523   3.333   2.903 -0.5362 -0.3361  0.3815
 3181TIP3    H2 9508   0.485   3.199   2.843  0.4171 -1.2545  1.7751
 3182TIP3   OH2 9509   5.479   0.370   1.347 -0.0096 -0.5483  0.4806
 3182TIP3    H1 9510   5.471   0.360   1.442  2.6034 -0.2408  0.7959
 3182TIP3    H2 9511   5.455   0.285   1.312 -2.3109 -0.2918  1.2596
 3183TIP3   OH2 9512   3.600   4.156   2.053 -0.2627  0.5089 -0.6160
 3183TIP3    H1 9513   3.585   4.070   2.014 -1.0622  0.0433  0.6450
 3183TIP3    H2 9514   3.630   4.137   2.142 -1.8924  1.5022  0.1959
 3184TIP3   OH2 9515   2.657   1.841   4.959 -0.2633 -0.0571  0.5597
 3184TIP3    H1 9516   2.732   1.799   5.000 -0.7508 -0.3784  1.1314
 3184TIP3    H2 9517   2.661   1.932   4.990  2.1513  1.0640 -2.5098
 3185TIP3   OH2 9518   1.872   1.287   5.438  0.1163  0.4842 -0.0232
 3185TIP3    H1 9519   1.874   1.321   5.348  1.6330 -1.2360 -0.6947
 3185TIP3    H2 9520   1.922   1.205   5.434 -0.1393  0.1518  2.3131
 3186TIP3   OH2 9521   3.279   5.862   5.211  0.3005  0.6531  0.2215
 3186TIP3    H1 9522   3.337   5.848   5.286  0.7731  1.1549 -0.0456
 3186TIP3    H2 9523   3.216   5.790   5.216  0.1868  0.8076  1.2293
 3187TIP3   OH2 9524   0.133   3.969   4.277  0.7542 -0.1154  0.6221
 3187TIP3    H1 9525   0.166   3.880   4.263  2.7019  0.4899  0.9803
 3187TIP3    H2 9526   0.158   3.990   4.367 -1.4961  0.1038  1.2400
 3188TIP3   OH2 9527   0.698   1.738   5.660  0.2691  1.3318  1.1180
 3188TIP3    H1 9528   0.682   1.833   5.659 -1.9469  1.0158  0.4999
 3188TIP3    H2 9529   0.748   1.722   5.580 -0.5343  1.8365  0.4911
 3189TIP3   OH2 9530   2.705   5.567   3.857 -0.4589 -0.3969  0.0105
 3189TIP3    H1 9531   2.666   5.652   3.877  0.0166 -0.4623  1.2817
 3189TIP3    H2 9532   2.648   5.503   3.901  0.7919 -0.5204  1.5508
 3190TIP3   OH2 9533   6.084   0.062   4.459  0.0638 -0.2961  0.6988
 3190TIP3    H1 9534   6.086   0.121   4.383 -0.8940 -0.4072  0.5791
 3190TIP3    H2 9535   6.049  -0.020   4.424 -0.7483 -0.2305  1.3382
 3191TIP3   OH2 9536   2.438   1.716   4.856  0.1856  0.0051 -0.4668
 3191TIP3    H1 9537   2.514   1.763   4.891  0.1310  0.0947 -0.4692
 3191TIP3    H2 9538   2.462   1.624   4.863  0.3472  0.0383 -0.5894
 3192TIP3   OH2 9539   5.849   3.338   2.826 -0.4718 -0.0761 -0.4622
 3192TIP3    H1 9540   5.823   3.425   2.857 -0.9471 -0.0408 -0.9493
 3192TIP3    H2 9541   5.817   3.278   2.893 -0.4665  0.0908 -0.3078
 3193TIP3   OH2 9542   0.764   1.446   1.216 -0.4357 -0.2229 -0.4112
 3193TIP3    H1 9543   0.833   1.490   1.265  0.3758 -0.3125 -1.4503
 3193TIP3    H2 9544   0.731   1.379   1.276  2.6942 -2.4912 -0.9825
 3194TIP3   OH2 9545   1.522   3.347   0.046 -0.0836  0.3162 -0.0434
 3194TIP3    H1 9546   1.486   3.313   0.128 -0.6648  0.7037 -0.1316
 3194TIP3    H2 9547   1.483   3.434   0.037 -0.8013 -0.1067 -1.2188
 3195TIP3   OH2 9548   2.317   0.167   4.125  0.2156  0.5350  0.2312
 3195TIP3    H1 9549   2.239   0.193   4.173 -0.2889  1.2572 -0.9484
 3195TIP3    H2 9550   2.389   0.178   4.187 -0.8674 -3.0056  2.3668
 3196TIP3   OH2 9551   6.013   6.100   3.987 -0.0105 -0.0649  0.0541
 3196TIP3    H1 9552   5.978   6.140   3.908 -1.3197 -0.3220  0.4787
 3196TIP3    H2 9553   5.964   6.018   3.996  0.7631 -0.4816  0.6374
 3197TIP3   OH2 9554   7.197   6.515   0.968  0.5552 -0.6327  0.1149
 3197TIP3    H1 9555   7.130   6.447   0.960  1.6810 -1.9687  1.2247
 3197TIP3    H2 9556   7.279   6.469   0.946  1.1163  0.9363 -1.1909
 3198TIP3   OH2 9557   4.007   2.071   2.825 -0.1631 -0.4288 -0.4317
 3198TIP3    H1 9558   3.967   2.019   2.895  0.7682 -0.4119  0.1278
 3198TIP3    H2 9559   4.087   2.106   2.864 -0.7604  1.4381 -0.7925
 3199TIP3   OH2 9560   3.208   6.098   0.988 -0.6113  0.3170  0.5147
 3199TIP3    H1 9561   3.118   6.075   1.010 -0.5685  1.1497  1.6126
 3199TIP3    H2 9562   3.256   6.087   1.070  1.1100 -3.7437 -0.7939
 3200TIP3   OH2 9563   4.630   3.657   2.760  0.5957 -0.1358  0.7991
 3200TIP3    H1 9564   4.700   3.596   2.736 -0.3135 -1.1709  0.6878
 3200TIP3    H2 9565   4.676   3.734   2.794  1.8109 -0.3236 -0.3287
 3201TIP3   OH2 9566   3.689   2.292   4.639  0.1505 -0.5008 -1.1363
 3201TIP3    H1 9567   3.661   2.382   4.622 -0.7533 -0.8669 -1.6464
 3201TIP3    H2 9568   3.743   2.299   4.718 -0.7706  0.3455 -0.5489
 3202TIP3   OH2 9569   6.279   1.954   3.266 -0.6162  0.4164 -0.0096
 3202TIP3    H1 9570   6.323   1.918   3.189 -0.5463  0.2991  0.0849
 3202TIP3    H2 9571   6.186   1.948   3.245 -0.5796  0.9043 -0.3162
 3203TIP3   OH2 9572   1.939   4.577   2.589  0.1301  0.2001 -0.4061
 3203TIP3    H1 9573   1.927   4.672   2.599  0.5470  0.3460 -1.2286
 3203TIP3    H2 9574   1.859   4.547   2.546  0.8029  0.5002 -1.9368
 3204TIP3   OH2 9575   5.169   0.939   1.948  0.0750  0.5035 -0.3174
 3204TIP3    H1 9576   5.156   0.900   2.035 -1.6699 -0.4041 -0.9397
 3204TIP3    H2 9577   5.189   0.865   1.891 -2.7438  0.4672 -1.4168
 3205TIP3   OH2 9578   3.734   5.975   5.183  0.0802 -0.2661 -0.1049
 3205TIP3    H1 9579   3.771   5.936   5.262  0.7144  1.2646  0.4051
 3205TIP3    H2 9580   3.655   6.019   5.213 -0.7830 -1.3563 -0.7211
 3206TIP3   OH2 9581   2.534   4.819   1.888 -0.2389  0.3622  0.2446
 3206TIP3    H1 9582   2.561   4.760   1.958 -2.5739 -1.3072 -0.1249
 3206TIP3    H2 9583   2.616   4.854   1.852  1.2246 -2.0719  1.0062
 3207TIP3   OH2 9584   3.969   0.804   0.735 -0.0517  0.3869  0.0709
 3207TIP3    H1 9585   4.002   0.774   0.819 -0.0856  1.7696  0.5976
 3207TIP3    H2 9586   3.922   0.885   0.754  0.7174  1.2289 -1.3887
 3208TIP3   OH2 9587   7.022   3.736   5.658 -0.4577 -0.3391 -0.2569
 3208TIP3    H1 9588   7.095   3.795   5.677  0.0159 -1.1900  0.6518
 3208TIP3    H2 9589   7.057   3.648   5.674 -0.8132 -0.9930 -2.6239
 3209TIP3   OH2 9590   0.769   4.037   2.753 -0.0172 -0.5116 -0.7630
 3209TIP3    H1 9591   0.714   4.057   2.677 -0.8155  0.4486  0.0303
 3209TIP3    H2 9592   0.741   4.100   2.819  0.4891 -1.4838  0.4122
 3210TIP3   OH2 9593   1.611   0.270   3.688 -0.1611 -0.9428 -0.2775
 3210TIP3    H1 9594   1.624   0.239   3.599 -1.5464  0.4484 -1.0084
 3210TIP3    H2 9595   1.595   0.191   3.739 -0.0991 -1.6959 -1.3930
 3211TIP3   OH2 9596   3.970   3.091   2.765  0.6044  0.2486 -0.2467
 3211TIP3    H1 9597   4.048   3.083   2.709  2.1496  2.5082  1.3720
 3211TIP3    H2 9598   3.923   3.167   2.729 -0.6937 -0.8739 -0.9768
 3212TIP3   OH2 9599   4.139   3.538   4.547  0.0032 -0.0232  0.6270
 3212TIP3    H1 9600   4.152   3.547   4.452  0.1819 -0.0198  0.6509
 3212TIP3    H2 9601   4.181   3.615   4.584  0.1413 -0.1459  0.7247
 3213TIP3   OH2 9602   3.356   0.313   3.424 -0.1528  0.0463  0.2274
 3213TIP3    H1 9603   3.277   0.259   3.418  0.5980 -1.4793  2.6987
 3213TIP3    H2 9604   3.426   0.257   3.389  0.1894  0.5065  0.1626
 3214TIP3   OH2 9605   4.935   5.839   1.892 -0.1593  0.1904 -0.1826
 3214TIP3    H1 9606   4.989   5.826   1.814 -0.6317 -0.2416 -0.4413
 3214TIP3    H2 9607   4.996   5.876   1.957  0.5819 -0.7420 -0.3133
 3215TIP3   OH2 9608   2.029   4.639   5.001  0.3242 -0.2808 -0.1991
 3215TIP3    H1 9609   1.984   4.641   4.916  1.9308  0.6363 -1.0958
 3215TIP3    H2 9610   2.100   4.703   4.991  0.4313  0.0016  1.9322
 3216TIP3   OH2 9611   4.018   4.211   1.928 -0.4785 -0.1279 -0.1269
 3216TIP3    H1 9612   4.042   4.165   2.009 -1.3470 -1.4096 -0.5805
 3216TIP3    H2 9613   4.102   4.222   1.882 -0.2984 -1.7334 -0.2427
 3217TIP3   OH2 9614   5.484   2.274   4.608  0.0184 -0.3575  0.0202
 3217TIP3    H1 9615   5.484   2.285   4.513  0.6729 -2.5507 -0.2874
 3217TIP3    H2 9616   5.496   2.363   4.642 -0.0729  0.4601 -1.9378
 3218TIP3   OH2 9617   6.655   2.600   5.838  0.0526  0.2425  0.0919
 3218TIP3    H1 9618   6.747   2.616   5.855 -0.0225  0.7915 -0.0063
 3218TIP3    H2 9619   6.610   2.676   5.874 -0.3396  0.1106 -0.1098
 3219TIP3   OH2 9620   4.156   5.810   0.331  0.0576 -0.1476  0.1546
 3219TIP3    H1 9621   4.244   5.771   0.334  0.1916  0.2058  1.4085
 3219TIP3    H2 9622   4.158   5.878   0.398 -0.8020  0.6918 -0.6438
 3220TIP3   OH2 9623   6.128   3.790   5.550  0.7670 -0.7737 -0.0784
 3220TIP3    H1 9624   6.035   3.800   5.572  1.1447  0.1991  1.1647
 3220TIP3    H2 9625   6.139   3.838   5.467  0.1641 -0.9003 -0.2337
 3221TIP3   OH2 9626   4.553   2.059   0.654 -0.1635  0.3472 -0.3730
 3221TIP3    H1 9627   4.601   1.996   0.708  0.4186  0.9072 -0.2169
 3221TIP3    H2 9628   4.612   2.075   0.580  0.2754  1.6651  0.2343
 3222TIP3   OH2 9629   3.562   4.792   2.780  0.3120  0.0373  0.0337
 3222TIP3    H1 9630   3.558   4.738   2.702  0.8125 -0.6201  0.4471
 3222TIP3    H2 9631   3.640   4.846   2.769  0.7649 -0.5316  0.3630
 3223TIP3   OH2 9632   6.977   3.388   4.327 -0.0809  0.3252 -0.1634
 3223TIP3    H1 9633   7.070   3.379   4.304  0.0692 -2.6561  1.0716
 3223TIP3    H2 9634   6.978   3.432   4.412  0.0284  1.8821 -0.9340
 3224TIP3   OH2 9635   3.188   3.039   1.951  0.1424 -0.2191 -0.7114
 3224TIP3    H1 9636   3.219   3.060   1.863  0.4504 -1.2612 -0.8636
 3224TIP3    H2 9637   3.240   2.964   1.978  0.4672  0.4454  0.6120
 3225TIP3   OH2 9638   4.779   1.400   2.694 -0.6295 -0.1743  0.0241
 3225TIP3    H1 9639   4.737   1.356   2.620  2.1939 -0.3036 -1.6209
 3225TIP3    H2 9640   4.872   1.381   2.685  0.2673  2.8311  1.5436
 3226TIP3   OH2 9641   7.108   2.496   3.519 -0.5608  0.0676  0.4725
 3226TIP3    H1 9642   7.096   2.527   3.429 -0.3355 -1.1222  0.0166
 3226TIP3    H2 9643   7.072   2.566   3.574 -2.1436  0.1342 -0.5937
 3227TIP3   OH2 9644   2.998   0.370   1.416 -0.4819  0.1484  0.9534
 3227TIP3    H1 9645   2.984   0.448   1.470 -1.2256  1.3637 -0.9265
 3227TIP3    H2 9646   2.913   0.353   1.375  0.2487 -0.2661 -0.4408
 3228TIP3   OH2 9647   7.071   1.771   5.389  0.0169 -0.2182 -0.2880
 3228TIP3    H1 9648   7.009   1.800   5.322 -0.9685 -0.9760  0.2676
 3228TIP3    H2 9649   7.124   1.849   5.408 -2.0237  1.0540  0.5992
 3229TIP3   OH2 9650   5.460   4.264   4.855  0.3185 -0.2534  0.2931
 3229TIP3    H1 9651   5.536   4.289   4.803  0.1299  1.6611  0.8578
 3229TIP3    H2 9652   5.407   4.211   4.795  1.2254 -0.1026 -0.6824
 3230TIP3   OH2 9653   2.848   6.581   4.158 -0.2871 -0.3170 -0.0956
 3230TIP3    H1 9654   2.879   6.598   4.246  0.5995  0.6197 -0.5659
 3230TIP3    H2 9655   2.784   6.651   4.141 -0.2289 -0.3103 -0.2983
 3231TIP3   OH2 9656   4.970   0.628   2.693 -0.1823  0.4106  0.2475
 3231TIP3    H1 9657   5.018   0.559   2.648  0.2967  0.6728  0.3532
 3231TIP3    H2 9658   4.893   0.643   2.638 -0.0526  0.1149 -0.0182
 3232TIP3   OH2 9659   2.530   0.587   2.373  0.9326 -0.2799 -0.1649
 3232TIP3    H1 9660   2.606   0.551   2.419  0.7062  1.6094  1.8586
 3232TIP3    H2 9661   2.472   0.512   2.363  2.3468 -1.4221 -0.2552
 3233TIP3   OH2 9662   0.937   1.116   3.937 -0.0988  0.0796  0.3402
 3233TIP3    H1 9663   0.923   1.206   3.968 -0.2086 -0.3715  1.6591
 3233TIP3    H2 9664   0.886   1.111   3.856 -1.4434  0.7360  1.1030
 3234TIP3   OH2 9665   5.329   6.596   2.167  0.0039  0.2528 -0.6545
 3234TIP3    H1 9666   5.269   6.595   2.242  1.2789  0.9381  0.4323
 3234TIP3    H2 9667   5.387   6.522   2.182  0.7436  0.8423 -0.5325
 3235TIP3   OH2 9668   4.354   5.476   5.276 -0.1116  0.3873  0.5358
 3235TIP3    H1 9669   4.443   5.454   5.249 -0.2162 -0.0929  0.5693
 3235TIP3    H2 9670   4.346   5.441   5.364 -0.2370  0.7020  0.6514
 3236TIP3   OH2 9671   1.995   6.107   0.321  0.0264  0.2001 -0.4073
 3236TIP3    H1 9672   1.933   6.043   0.356  0.6104  1.0681  2.4101
 3236TIP3    H2 9673   1.939   6.173   0.281 -0.7655 -0.1845  0.0261
 3237TIP3   OH2 9674   2.115   4.119   1.637 -0.6166 -0.8011 -0.4214
 3237TIP3    H1 9675   2.187   4.183   1.637 -1.2069 -0.1205 -0.1043
 3237TIP3    H2 9676   2.061   4.144   1.562 -0.4898 -1.3448 -0.6926
 3238TIP3   OH2 9677   6.290   3.568   5.102  0.3282 -0.4094  0.2011
 3238TIP3    H1 9678   6.328   3.635   5.159  0.0053 -0.3909  0.3951
 3238TIP3    H2 9679   6.325   3.588   5.016 -1.2954  1.2255 -0.1511
 3239TIP3   OH2 9680   1.100   1.190   0.079 -0.9953  0.4641 -0.3829
 3239TIP3    H1 9681   1.103   1.220  -0.012 -3.1843  1.3445 -0.2291
 3239TIP3    H2 9682   1.059   1.104   0.075 -1.5655  0.7274 -0.1808
 3240TIP3   OH2 9683   5.626   4.167   0.074  0.0750  0.0988  0.1415
 3240TIP3    H1 9684   5.578   4.182  -0.008  1.0248  1.0145 -0.2770
 3240TIP3    H2 9685   5.703   4.223   0.067  0.9567 -0.9531  1.0056
 3241TIP3   OH2 9686   6.612   3.171   2.899 -0.5322 -0.4441  0.0995
 3241TIP3    H1 9687   6.568   3.256   2.888  0.7864  0.3656  0.7953
 3241TIP3    H2 9688   6.553   3.122   2.957 -1.1326  0.1348 -0.0006
 3242TIP3   OH2 9689   2.287   3.981   0.639  0.2860 -0.0047  0.3535
 3242TIP3    H1 9690   2.242   4.051   0.685 -1.9067 -1.0402 -0.0909
 3242TIP3    H2 9691   2.293   4.011   0.548 -0.9744 -0.4971  0.0889
 3243TIP3   OH2 9692   0.981   5.506   4.104 -0.1373  0.2499 -0.2648
 3243TIP3    H1 9693   0.890   5.500   4.135  0.2347  1.3689  1.1652
 3243TIP3    H2 9694   1.029   5.443   4.158  0.2457  1.0423  0.3345
 3244TIP3   OH2 9695   0.398   5.804   0.761 -0.1561 -0.1344  0.7541
 3244TIP3    H1 9696   0.470   5.742   0.751  0.5162  0.8663 -1.0981
 3244TIP3    H2 9697   0.441   5.888   0.779 -0.9599  0.1734  1.3251
 3245TIP3   OH2 9698   3.715   2.530   1.199 -0.0316 -0.3885  0.1544
 3245TIP3    H1 9699   3.719   2.458   1.136  1.2293 -0.2281  0.0272
 3245TIP3    H2 9700   3.687   2.489   1.281 -0.2299 -0.8528 -0.1392
 3246TIP3   OH2 9701   6.507   3.097   4.253 -0.2453  0.2284 -0.4726
 3246TIP3    H1 9702   6.443   3.168   4.252 -0.3146  0.1720 -0.1342
 3246TIP3    H2 9703   6.496   3.053   4.168 -0.2844  0.5448 -0.6336
 3247TIP3   OH2 9704   3.117   0.520   2.633 -0.1758  0.1767 -0.3881
 3247TIP3    H1 9705   3.175   0.568   2.692 -0.5690 -2.3526  2.3240
 3247TIP3    H2 9706   3.029   0.550   2.657 -0.2180  1.4659 -2.0311
 3248TIP3   OH2 9707   0.614   3.674   1.696  0.0454 -0.8276  0.3605
 3248TIP3    H1 9708   0.674   3.634   1.758 -1.6079 -1.6147  1.5299
 3248TIP3    H2 9709   0.585   3.755   1.737  0.2656 -0.4692 -0.1753
 3249TIP3   OH2 9710   6.214   5.435   1.051  0.3156 -0.3537  0.0928
 3249TIP3    H1 9711   6.295   5.474   1.085  0.0322  2.3926 -1.9816
 3249TIP3    H2 9712   6.241   5.351   1.015  1.9010 -0.2442  0.9387
 3250TIP3   OH2 9713   6.877   3.866   5.477 -0.3279 -0.0637 -0.3610
 3250TIP3    H1 9714   6.850   3.810   5.404  1.4222  0.0917 -1.1922
 3250TIP3    H2 9715   6.895   3.805   5.548  0.1277 -0.4307 -0.7865
 3251TIP3   OH2 9716   5.335   5.835   2.465  0.3994  0.1896  0.3846
 3251TIP3    H1 9717   5.394   5.807   2.395 -0.2895 -0.3052 -0.0103
 3251TIP3    H2 9718   5.393   5.855   2.539  0.9743 -1.9022  0.5529
 3252TIP3   OH2 9719   4.635   2.672   5.231  0.1370  0.0935  0.6905
 3252TIP3    H1 9720   4.605   2.757   5.264 -1.3609 -0.9145  2.1164
 3252TIP3    H2 9721   4.554   2.621   5.222  0.7276 -0.4648 -2.4483
 3253TIP3   OH2 9722   1.853   0.100   0.771  0.5322 -0.0157 -0.2669
 3253TIP3    H1 9723   1.879   0.174   0.717  1.0213 -0.4158 -0.5901
 3253TIP3    H2 9724   1.901   0.026   0.735 -0.0772 -0.5244 -0.0536
 3254TIP3   OH2 9725   5.328   0.149   0.591  0.2378  0.5223 -0.3369
 3254TIP3    H1 9726   5.314   0.119   0.680 -2.1266  0.7515 -0.5737
 3254TIP3    H2 9727   5.419   0.125   0.572  0.8562  0.6103  2.1467
 3255TIP3   OH2 9728   3.517   1.552   1.228 -0.1997 -0.2838 -0.5044
 3255TIP3    H1 9729   3.451   1.618   1.250 -0.7351 -1.1035  0.4132
 3255TIP3    H2 9730   3.468   1.470   1.219  0.6811 -0.9254  0.2841
 3256TIP3   OH2 9731   4.365   5.655   0.392  0.1670  0.3307  0.2668
 3256TIP3    H1 9732   4.351   5.585   0.328 -1.7150  0.8887  0.0125
 3256TIP3    H2 9733   4.360   5.611   0.477  3.6087 -0.5864  0.1592
 3257TIP3   OH2 9734   6.324   6.488   4.512 -0.5197  0.4138  0.1813
 3257TIP3    H1 9735   6.247   6.453   4.467 -0.6000  1.1821 -0.2871
 3257TIP3    H2 9736   6.319   6.449   4.600 -0.6361 -0.6944 -0.2902
 3258TIP3   OH2 9737   2.766   4.522   4.406  0.3870  0.5600  0.8718
 3258TIP3    H1 9738   2.836   4.584   4.429  1.1698 -0.3741  1.0328
 3258TIP3    H2 9739   2.687   4.561   4.444  0.8074  1.6181  0.7014
 3259TIP3   OH2 9740   6.637   0.142   5.460  0.4908  0.0015  0.2509
 3259TIP3    H1 9741   6.561   0.085   5.448 -0.7451  0.9802  2.7712
 3259TIP3    H2 9742   6.712   0.086   5.438 -0.8634 -1.0709 -2.0789
 3260TIP3   OH2 9743   6.114   6.324   2.487  0.0350  0.0648  0.2133
 3260TIP3    H1 9744   6.066   6.336   2.569 -3.0546 -0.0804 -1.4366
 3260TIP3    H2 9745   6.164   6.405   2.476 -0.1883  0.4475  1.7677
 3261TIP3   OH2 9746   3.055   2.294   1.516 -0.1823 -0.3791 -0.3125
 3261TIP3    H1 9747   3.130   2.347   1.489 -0.5403 -0.8756 -2.3939
 3261TIP3    H2 9748   3.084   2.203   1.502 -0.4534 -0.6754  0.8894
 3262TIP3   OH2 9749   3.646   4.846   3.464  0.2384 -0.2701  0.5639
 3262TIP3    H1 9750   3.619   4.764   3.423 -0.0829 -0.4295  1.0801
 3262TIP3    H2 9751   3.741   4.849   3.454  0.2489 -0.6993  0.5299
 3263TIP3   OH2 9752   4.610   5.393   0.322 -0.3276  0.3706  0.4440
 3263TIP3    H1 9753   4.526   5.407   0.278 -1.2278 -2.2343  1.1067
 3263TIP3    H2 9754   4.650   5.320   0.273  1.4079  1.3185  0.3816
 3264TIP3   OH2 9755   6.163   6.346   0.272 -0.1826  0.4613 -0.5916
 3264TIP3    H1 9756   6.204   6.298   0.344  3.2615  3.2553 -0.4242
 3264TIP3    H2 9757   6.098   6.402   0.315  0.7541  0.9810  0.1929
 3265TIP3   OH2 9758   2.361   6.597   5.706  0.3890 -0.3772 -0.1613
 3265TIP3    H1 9759   2.431   6.617   5.644  2.2863  0.4308  2.1144
 3265TIP3    H2 9760   2.402   6.604   5.792 -1.5808 -3.4293  1.2079
 3266TIP3   OH2 9761   3.758   6.612   5.548 -0.3054 -0.8434 -0.3607
 3266TIP3    H1 9762   3.791   6.700   5.534 -0.5358 -0.8659 -1.0854
 3266TIP3    H2 9763   3.678   6.607   5.496 -0.8933 -1.1309  0.5379
 3267TIP3   OH2 9764   2.756   0.303   2.371  0.1530 -0.1523  0.0874
 3267TIP3    H1 9765   2.749   0.233   2.306 -1.4086  0.0717 -0.0280
 3267TIP3    H2 9766   2.819   0.364   2.334 -0.7686  0.0062 -1.2702
 3268TIP3   OH2 9767   6.605   1.059   4.905  0.4165 -0.0136  0.0246
 3268TIP3    H1 9768   6.519   1.069   4.864  0.0862  0.0390  0.7207
 3268TIP3    H2 9769   6.620   1.141   4.951 -0.2678 -0.8998  1.9468
 3269TIP3   OH2 9770   6.515   3.244   3.516  0.0088 -0.1305  0.8179
 3269TIP3    H1 9771   6.445   3.193   3.475  1.7019 -1.6370 -0.3746
 3269TIP3    H2 9772   6.583   3.179   3.535  2.2994  1.6535 -0.8181
 3270TIP3   OH2 9773   0.280   1.562   2.439 -0.0146  0.1387 -0.6420
 3270TIP3    H1 9774   0.294   1.549   2.345  2.6498  2.1292 -0.6573
 3270TIP3    H2 9775   0.268   1.657   2.449  0.0884  0.0163  1.0373
 3271TIP3   OH2 9776   5.564   4.671   5.458  0.2702 -0.0507  0.1080
 3271TIP3    H1 9777   5.546   4.763   5.480 -0.2350 -0.1724  0.2243
 3271TIP3    H2 9778   5.480   4.638   5.426  0.5214 -0.3997 -0.1971
 3272TIP3   OH2 9779   6.013   6.203   0.917 -0.0039  0.8570  0.3688
 3272TIP3    H1 9780   5.924   6.236   0.911 -0.2845  0.0800  0.1936
 3272TIP3    H2 9781   6.013   6.146   0.994  0.5423  1.4456  0.8211
 3273TIP3   OH2 9782   4.604   5.041   0.335  0.1052  0.1562  0.1402
 3273TIP3    H1 9783   4.659   5.092   0.276 -0.5085 -1.1300 -1.6246
 3273TIP3    H2 9784   4.658   5.030   0.414  2.3102 -0.8146 -1.4020
 3274TIP3   OH2 9785   4.560   1.226   1.096  0.0677 -0.6885 -0.1707
 3274TIP3    H1 9786   4.623   1.232   1.024  0.4963 -0.2688  0.2328
 3274TIP3    H2 9787   4.476   1.213   1.053  0.4169 -1.1828 -0.7216
 3275TIP3   OH2 9788   2.343   2.022   3.774  0.2715 -0.1689  0.0734
 3275TIP3    H1 9789   2.422   1.971   3.796  0.3611  0.3517  1.0527
 3275TIP3    H2 9790   2.287   2.013   3.852  0.7385  2.0532  0.7356
 3276TIP3   OH2 9791   2.142   1.138   2.868 -0.0181  0.1083 -0.1991
 3276TIP3    H1 9792   2.123   1.056   2.822 -2.5805  0.6745 -0.2625
 3276TIP3    H2 9793   2.139   1.205   2.800  1.9699  0.3361 -0.1307
 3277TIP3   OH2 9794   6.365   2.056   0.903 -0.4797 -0.2947  0.2865
 3277TIP3    H1 9795   6.439   2.064   0.842 -0.9771  0.7024 -0.2117
 3277TIP3    H2 9796   6.393   2.104   0.980 -0.6103  0.0886  0.0953
 3278TIP3   OH2 9797   0.061   6.652   2.509 -0.2578  0.0918 -0.6158
 3278TIP3    H1 9798   0.043   6.631   2.417  0.4949  0.2895 -0.8056
 3278TIP3    H2 9799  -0.010   6.608   2.557  0.0698 -1.1164 -1.1835
 3279TIP3   OH2 9800   1.679   0.490   1.276 -0.2147  0.0846 -0.4654
 3279TIP3    H1 9801   1.634   0.519   1.197 -0.4176 -0.8613 -0.7123
 3279TIP3    H2 9802   1.739   0.422   1.246  0.2069  0.1993  0.0994
 3280TIP3   OH2 9803   5.122   4.598   0.530  0.2749  0.1529 -0.5821
 3280TIP3    H1 9804   5.048   4.615   0.473 -1.0581 -0.0400  1.0211
 3280TIP3    H2 9805   5.147   4.683   0.565 -0.0875  0.0599 -0.0808
 3281TIP3   OH2 9806   2.843   0.576   4.811  0.4534  0.6561  0.3763
 3281TIP3    H1 9807   2.752   0.579   4.840  0.0494 -0.4847 -0.6982
 3281TIP3    H2 9808   2.892   0.622   4.880 -0.5063 -1.3594  2.5439
 3282TIP3   OH2 9809   4.485   1.375   0.757  0.0590 -0.2782 -0.1509
 3282TIP3    H1 9810   4.447   1.336   0.836 -1.0772 -0.2333 -0.6581
 3282TIP3    H2 9811   4.439   1.332   0.684  0.5735  0.2004 -0.7736
 3283TIP3   OH2 9812   6.237   5.792   2.550  0.3829  0.5498  0.0229
 3283TIP3    H1 9813   6.330   5.814   2.558  0.5126  0.1671 -0.3641
 3283TIP3    H2 9814   6.234   5.730   2.477 -0.1138  0.1602  0.3713
 3284TIP3   OH2 9815   0.198   0.874   1.712 -0.4846 -0.4423 -0.0906
 3284TIP3    H1 9816   0.130   0.929   1.752 -1.6100  0.5212 -3.1042
 3284TIP3    H2 9817   0.240   0.931   1.647  0.1447 -2.3564 -1.4430
 3285TIP3   OH2 9818   5.963   1.418   1.111  0.0274  0.1460 -0.0421
 3285TIP3    H1 9819   5.892   1.407   1.173 -0.0908 -0.3266 -0.2565
 3285TIP3    H2 9820   6.013   1.493   1.144 -0.5994  0.5174  0.0738
 3286TIP3   OH2 9821   6.753   3.198   4.052  0.0594 -0.1577  0.4126
 3286TIP3    H1 9822   6.787   3.164   4.134 -0.7654 -0.3444  0.6858
 3286TIP3    H2 9823   6.757   3.124   3.992  0.8041  0.0194  0.2293
 3287TIP3   OH2 9824   1.382   6.561   4.744 -0.0534 -0.6513 -0.0972
 3287TIP3    H1 9825   1.471   6.528   4.749 -0.1613 -0.7794  1.8711
 3287TIP3    H2 9826   1.368   6.604   4.829 -1.9462 -0.8663 -0.2607
 3288TIP3   OH2 9827   4.310   2.423   5.646  0.3550  0.5277  0.0226
 3288TIP3    H1 9828   4.214   2.423   5.645  0.3525  0.2756 -1.3954
 3288TIP3    H2 9829   4.335   2.505   5.604  0.7534  0.0382 -0.7099
 3289TIP3   OH2 9830   5.068   5.189   3.592 -0.1129  0.5706  0.3727
 3289TIP3    H1 9831   5.010   5.122   3.557  0.2940 -0.2937  1.3179
 3289TIP3    H2 9832   5.139   5.141   3.634  0.1867  1.5899  1.0768
 3290TIP3   OH2 9833   3.463   3.561   4.362 -0.2592  0.5020  0.2866
 3290TIP3    H1 9834   3.423   3.576   4.277 -0.7641  1.9821  0.7446
 3290TIP3    H2 9835   3.542   3.615   4.361  0.8867 -1.1180 -0.0018
 3291TIP3   OH2 9836   3.836   3.485   1.989 -0.5778  0.1097  0.0068
 3291TIP3    H1 9837   3.775   3.507   1.919  1.5600 -1.1511 -2.4198
 3291TIP3    H2 9838   3.814   3.545   2.060 -2.9037  1.4194 -1.6960
 3292TIP3   OH2 9839   0.464   5.048   1.189 -0.3221 -0.3037 -0.0299
 3292TIP3    H1 9840   0.527   5.049   1.116  0.2090 -0.6078  0.4168
 3292TIP3    H2 9841   0.483   4.967   1.237 -0.4589  0.0419  0.6240
 3293TIP3   OH2 9842   4.911   4.172   1.229  0.7335 -0.2184 -0.1588
 3293TIP3    H1 9843   4.989   4.152   1.280 -0.4389 -2.0724  1.0083
 3293TIP3    H2 9844   4.900   4.097   1.170 -0.2824 -0.0976 -0.1498
 3294TIP3   OH2 9845   4.986   6.395   1.979  0.2781 -0.1503  0.6209
 3294TIP3    H1 9846   4.978   6.340   2.057  0.1322 -0.2588  0.5289
 3294TIP3    H2 9847   4.907   6.450   1.980  0.9264  0.8080  1.2919
 3295TIP3   OH2 9848   1.458   2.754   0.363  0.0228  0.4753  0.1388
 3295TIP3    H1 9849   1.499   2.839   0.351  0.5522  0.3480  0.9353
 3295TIP3    H2 9850   1.526   2.691   0.340 -0.4974  0.2612 -0.8505
 3296TIP3   OH2 9851   2.036   5.744   0.983  0.1493 -0.0580  0.1078
 3296TIP3    H1 9852   2.107   5.792   0.939 -0.6864  1.1985  0.0818
 3296TIP3    H2 9853   2.045   5.654   0.951 -0.0334  0.6626 -2.1996
 3297TIP3   OH2 9854   5.363   2.465   1.922 -0.1687 -0.0160  0.0567
 3297TIP3    H1 9855   5.392   2.553   1.897  0.0582 -0.0467  0.2049
 3297TIP3    H2 9856   5.425   2.438   1.990  1.6059 -1.4511 -1.9779
 3298TIP3   OH2 9857   3.983   3.330   5.844  0.4250 -0.2289 -0.5011
 3298TIP3    H1 9858   4.060   3.278   5.821  0.3492 -0.2939 -0.6051
 3298TIP3    H2 9859   3.979   3.399   5.778  0.5164 -0.0988 -0.3725
 3299TIP3   OH2 9860   0.723   6.411   2.653 -0.5330  0.2713  0.1483
 3299TIP3    H1 9861   0.814   6.382   2.660 -1.0987 -1.4363  1.1083
 3299TIP3    H2 9862   0.725   6.504   2.673  1.5461  1.3797 -4.0735
 3300TIP3   OH2 9863   2.007   1.984   3.261  0.0940 -0.0983  0.1292
 3300TIP3    H1 9864   1.949   2.047   3.218 -0.7486  0.7993  2.4382
 3300TIP3    H2 9865   2.058   2.037   3.323  2.6367 -1.0377 -1.0205
 3301TIP3   OH2 9866   0.836   0.543   0.208 -1.0416  0.0028  0.3781
 3301TIP3    H1 9867   0.931   0.553   0.211 -1.1057  0.3631  1.9152
 3301TIP3    H2 9868   0.822   0.449   0.197 -0.5281  0.1658 -2.3894
 3302TIP3   OH2 9869   1.530   5.160   5.313  0.2110  0.1179 -0.4753
 3302TIP3    H1 9870   1.555   5.252   5.320  0.0275  0.1145  0.3056
 3302TIP3    H2 9871   1.612   5.112   5.311  0.3180  0.3219 -1.3497
 3303TIP3   OH2 9872   0.131   3.749   0.293 -0.2147  0.3426 -0.1116
 3303TIP3    H1 9873   0.156   3.802   0.218  0.6580  0.3561  0.1778
 3303TIP3    H2 9874   0.038   3.731   0.280 -0.1998  0.8047 -0.9049
 3304TIP3   OH2 9875   1.376   4.749   1.456  0.4254 -0.7630  0.2529
 3304TIP3    H1 9876   1.390   4.838   1.422  1.4765 -1.6217 -1.7601
 3304TIP3    H2 9877   1.456   4.729   1.504 -0.3280 -0.2059  1.8015
 3305TIP3   OH2 9878   0.825   5.412   1.321 -0.0080 -0.2247 -0.3564
 3305TIP3    H1 9879   0.826   5.443   1.411 -1.5131  0.7747 -0.6434
 3305TIP3    H2 9880   0.862   5.483   1.269  0.1248 -0.4710 -0.6059
 3306TIP3   OH2 9881   4.105   6.000   0.525 -0.3373  0.1736 -0.5427
 3306TIP3    H1 9882   4.066   6.045   0.600  0.5896  2.3775 -1.2861
 3306TIP3    H2 9883   4.178   6.056   0.499 -1.0619 -0.0948 -3.5425
 3307TIP3   OH2 9884   1.263   3.259   3.199 -0.3957  0.1956  0.5981
 3307TIP3    H1 9885   1.213   3.321   3.252 -3.2131 -0.2290 -1.3066
 3307TIP3    H2 9886   1.291   3.310   3.123 -1.3532 -0.4520 -0.2109
 3308TIP3   OH2 9887   3.972   5.484   4.805  0.0886 -0.2287 -0.2553
 3308TIP3    H1 9888   4.039   5.418   4.787  1.3052  0.8314  0.2491
 3308TIP3    H2 9889   3.999   5.524   4.888  0.1191  1.7612 -1.1555
 3309TIP3   OH2 9890   5.655   0.519   3.871 -0.1236  1.4036  0.0073
 3309TIP3    H1 9891   5.581   0.503   3.813 -0.8770 -0.9947  1.4772
 3309TIP3    H2 9892   5.732   0.495   3.819 -0.8008 -0.9934  0.0033
 3310TIP3   OH2 9893   2.044   2.287   2.901  0.1255 -0.2454 -0.1380
 3310TIP3    H1 9894   1.998   2.334   2.832 -0.8152  0.3585  0.8586
 3310TIP3    H2 9895   1.987   2.296   2.978  1.0823 -0.9899  0.6877
 3311TIP3   OH2 9896   2.654   5.940   3.799 -0.2402 -0.4958 -0.8075
 3311TIP3    H1 9897   2.567   5.902   3.783 -1.0203  1.9353 -3.1861
 3311TIP3    H2 9898   2.636   6.029   3.828  1.5199 -0.5200  0.5468
 3312TIP3   OH2 9899   3.883   0.118   4.642 -0.5529  0.1366  0.2442
 3312TIP3    H1 9900   3.854   0.171   4.568 -0.1666 -0.8680 -0.6429
 3312TIP3    H2 9901   3.975   0.102   4.625  0.0555  1.5208  1.9598
 3313TIP3   OH2 9902   2.148   2.902   1.575 -0.2684  0.3820  0.6916
 3313TIP3    H1 9903   2.097   2.822   1.560  0.7129 -0.2279  0.4647
 3313TIP3    H2 9904   2.083   2.972   1.579 -1.0183 -0.1879 -0.8461
 3314TIP3   OH2 9905   5.348   6.521   4.209  0.4529  0.7254 -0.0581
 3314TIP3    H1 9906   5.342   6.483   4.121  2.1678 -0.7663  0.4056
 3314TIP3    H2 9907   5.284   6.471   4.260 -0.1719  1.2357 -0.3332
 3315TIP3   OH2 9908   5.788   3.466   5.684 -0.0345  0.3362 -0.2851
 3315TIP3    H1 9909   5.764   3.488   5.594 -0.2446  0.3982 -0.2128
 3315TIP3    H2 9910   5.767   3.373   5.693 -0.5282  0.4612 -0.1286
 3316TIP3   OH2 9911   5.711   5.039   3.135  0.3390 -0.3613 -0.3472
 3316TIP3    H1 9912   5.620   5.016   3.119  0.4096 -0.4560 -0.6118
 3316TIP3    H2 9913   5.707   5.108   3.202  0.1428 -1.3181  0.6512
 3317TIP3   OH2 9914   5.770   0.865   1.451  0.0738 -0.1566  0.1670
 3317TIP3    H1 9915   5.842   0.804   1.468  0.9815  0.6759 -0.5701
 3317TIP3    H2 9916   5.804   0.924   1.384 -2.3525 -1.5755 -2.4838
 3318TIP3   OH2 9917   0.574   5.615   4.912  0.1008 -0.4122 -0.0038
 3318TIP3    H1 9918   0.600   5.661   4.832  0.9621  0.8277  0.9519
 3318TIP3    H2 9919   0.636   5.543   4.919 -1.0659 -1.6233 -1.3462
 3319TIP3   OH2 9920   5.586   1.280   1.767 -0.0553 -0.3149  0.4817
 3319TIP3    H1 9921   5.623   1.354   1.815  1.0901 -0.1761 -0.5555
 3319TIP3    H2 9922   5.619   1.203   1.813 -0.9516 -0.1913  1.3484
 3320TIP3   OH2 9923   4.114   3.019   3.576 -0.1729  0.1585 -0.1347
 3320TIP3    H1 9924   4.160   2.941   3.608 -0.4065 -0.4962 -1.3343
 3320TIP3    H2 9925   4.059   2.987   3.505 -0.3314  1.4108 -0.6031
 3321TIP3   OH2 9926   6.975   3.484   2.254  0.2234 -0.4313 -0.2189
 3321TIP3    H1 9927   6.983   3.398   2.212  1.7132  0.3446 -1.6535
 3321TIP3    H2 9928   7.058   3.497   2.299  0.6486  0.8508 -1.2905
 3322TIP3   OH2 9929   3.533   4.553   1.165  0.0970 -0.4014 -0.3417
 3322TIP3    H1 9930   3.551   4.467   1.203 -0.9750  0.1734  1.6215
 3322TIP3    H2 9931   3.556   4.615   1.235  0.1097  0.8624 -1.4362
 3323TIP3   OH2 9932   4.787   5.972   5.803 -0.3077 -0.0403  0.5073
 3323TIP3    H1 9933   4.719   5.924   5.756  0.8399 -0.6138 -0.6179
 3323TIP3    H2 9934   4.857   5.909   5.815 -0.2042  0.3580  2.2511
 3324TIP3   OH2 9935   6.323   3.449   0.847 -0.2489  0.6727  0.0739
 3324TIP3    H1 9936   6.310   3.413   0.759 -1.1559  0.2193  0.3853
 3324TIP3    H2 9937   6.298   3.541   0.838 -5.1736 -0.3339  0.8650
 3325TIP3   OH2 9938   6.926   3.827   1.452  0.3288 -0.7571 -0.1611
 3325TIP3    H1 9939   6.930   3.805   1.545 -2.1682 -0.1499  0.1622
 3325TIP3    H2 9940   6.908   3.921   1.450 -1.6590 -1.0947 -1.1427
 3326TIP3   OH2 9941   0.322   4.701   0.602  0.4490  0.7088  0.3741
 3326TIP3    H1 9942   0.394   4.749   0.644  0.7955 -1.3493  2.3611
 3326TIP3    H2 9943   0.246   4.720   0.656 -0.1652  1.5934 -0.7742
 3327TIP3   OH2 9944   4.846   1.509   2.947  0.0181 -0.1772  0.3230
 3327TIP3    H1 9945   4.926   1.534   2.900  0.1533 -1.0200  0.0908
 3327TIP3    H2 9946   4.795   1.459   2.884 -0.6406  0.2320  0.5185
 3328TIP3   OH2 9947   1.232   6.131   2.021 -0.5929  0.1853 -0.1389
 3328TIP3    H1 9948   1.279   6.181   2.087 -0.5050 -1.4553  1.0963
 3328TIP3    H2 9949   1.261   6.168   1.937  1.4375  0.4585  0.6338
 3329TIP3   OH2 9950   4.703   5.300   5.370 -0.3381  0.3151 -0.0477
 3329TIP3    H1 9951   4.700   5.214   5.328 -1.0206  0.7978 -1.0462
 3329TIP3    H2 9952   4.791   5.306   5.407  0.0159 -0.4690 -0.7274
 3330TIP3   OH2 9953   2.261   5.148   4.811  0.7340  0.3865  0.1422
 3330TIP3    H1 9954   2.192   5.213   4.822  1.1810  1.1160 -1.0968
 3330TIP3    H2 9955   2.265   5.102   4.895 -0.6977  0.8623  0.5003
 3331TIP3   OH2 9956   2.924   3.776   4.667 -0.0083  0.4625 -0.2347
 3331TIP3    H1 9957   2.944   3.715   4.596  1.1347  1.5245 -0.8613
 3331TIP3    H2 9958   2.896   3.856   4.623 -1.6867  0.3609  0.5838
 3332TIP3   OH2 9959   5.143   2.039   0.480  0.1566  0.0626 -0.1875
 3332TIP3    H1 9960   5.134   2.055   0.574 -0.6282  2.1228 -0.5497
 3332TIP3    H2 9961   5.141   1.944   0.472  3.5336 -0.3954  2.1299
 3333TIP3   OH2 9962   6.638   1.076   1.562  0.3264  0.3840 -1.0120
 3333TIP3    H1 9963   6.694   1.118   1.627  0.8884 -1.6627 -0.0785
 3333TIP3    H2 9964   6.557   1.057   1.609  0.6538 -0.9081 -0.9149
 3334TIP3   OH2 9965   6.326   3.298   4.242  1.0109 -0.1415  0.2859
 3334TIP3    H1 9966   6.352   3.384   4.210  0.8233  0.0907  0.7634
 3334TIP3    H2 9967   6.258   3.269   4.181  0.7133  0.2637  0.4252
 3335TIP3   OH2 9968   4.883   5.492   2.166  0.0300 -0.2274  0.3709
 3335TIP3    H1 9969   4.969   5.533   2.168  0.2241 -0.3377 -2.4308
 3335TIP3    H2 9970   4.885   5.429   2.238  1.3318  1.4708  1.9221
 3336TIP3   OH2 9971   5.325   1.006   3.228  0.2871 -0.2569  0.3841
 3336TIP3    H1 9972   5.397   0.977   3.284  0.1952 -0.0244  0.6237
 3336TIP3    H2 9973   5.331   1.101   3.228 -0.4647 -0.1975  1.0014
 3337TIP3   OH2 9974   3.180   1.326   0.343 -0.0437 -0.4461  0.1307
 3337TIP3    H1 9975   3.255   1.338   0.402 -1.6226  1.9376  1.8061
 3337TIP3    H2 9976   3.126   1.259   0.385 -0.7803  0.6934  1.0476
 3338TIP3   OH2 9977   2.385   0.636   5.704 -0.0497  0.1621 -0.1801
 3338TIP3    H1 9978   2.412   0.544   5.707  0.4164  0.3005 -0.0596
 3338TIP3    H2 9979   2.399   0.662   5.613  2.6115  0.9235  0.3579
 3339TIP3   OH2 9980   5.010   4.452   5.525 -0.6289  0.3999  0.1921
 3339TIP3    H1 9981   5.066   4.437   5.602 -0.3173 -0.3025 -0.1610
 3339TIP3    H2 9982   5.071   4.474   5.455 -0.8402  0.2257 -0.0467
 3340TIP3   OH2 9983   6.924   6.624   2.858  0.2503 -0.6647  0.1265
 3340TIP3    H1 9984   6.908   6.718   2.870  0.4169 -0.5522 -0.5134
 3340TIP3    H2 9985   7.015   6.612   2.884 -0.5680 -1.2065  3.2072
 3341TIP3   OH2 9986   3.501   2.036   3.798 -0.0989  0.0611  0.2486
 3341TIP3    H1 9987   3.576   2.026   3.739  1.2375 -1.3582  2.0474
 3341TIP3    H2 9988   3.501   1.956   3.851 -1.7387  0.8703  1.5841
 3342TIP3   OH2 9989   3.454   6.199   0.394 -0.1753 -0.6964 -0.2216
 3342TIP3    H1 9990   3.398   6.129   0.361  0.3810 -0.6560 -1.3247
 3342TIP3    H2 9991   3.455   6.264   0.324  1.1334 -0.6428 -0.1828
 3343TIP3   OH2 9992   1.651   2.849   4.167  0.0848 -0.0721 -0.4883
 3343TIP3    H1 9993   1.636   2.758   4.196  0.0871  0.2712  0.6625
 3343TIP3    H2 9994   1.649   2.844   4.072 -0.8372 -1.1362 -0.4521
 3344TIP3   OH2 9995   0.938   0.155   5.019 -0.2843  0.4897  0.1188
 3344TIP3    H1 9996   0.895   0.166   4.934  0.2685  0.3794 -0.1793
 3344TIP3    H2 9997   0.869   0.122   5.077 -0.8934  1.4282 -0.0473
 3345TIP3   OH2 9998   0.978   4.000   4.298 -0.2115 -0.2888 -0.0714
 3345TIP3    H1 9999   0.887   4.018   4.320 -0.1057 -0.7737  0.7946
 3345TIP3    H210000   1.005   3.930   4.358  1.6422  1.9031  1.8661
 3346TIP3   OH210001   1.788   4.285   3.989 -0.3560 -0.2176 -0.3400
 3346TIP3    H110002   1.735   4.357   4.023  0.4792  0.3071 -0.1209
 3346TIP3    H210003   1.858   4.328   3.939  1.4939 -0.7211  1.6423
 3347TIP3   OH210004   4.869   1.468   4.921 -0.5266 -0.5909 -0.2514
 3347TIP3    H110005   4.902   1.456   4.832 -0.3095 -0.2696 -0.2114
 3347TIP3    H210006   4.864   1.379   4.956  1.6871 -0.5539  0.2515
 3348TIP3   OH210007   4.142   1.492   0.407 -0.0651 -0.3316 -0.2827
 3348TIP3    H110008   4.109   1.537   0.329  0.2520  0.3349 -0.0455
 3348TIP3    H210009   4.076   1.509   0.474 -0.2313 -0.7188 -0.3495
 3349TIP3   OH210010   4.739   3.369   1.546 -0.4751 -0.4168  0.3979
 3349TIP3    H110011   4.708   3.446   1.498  2.0732  0.9813  0.7983
 3349TIP3    H210012   4.660   3.326   1.578 -2.1199  0.2093 -2.5607
 3350TIP3   OH210013   4.146   1.096   2.614  0.2100  0.5088 -0.0131
 3350TIP3    H110014   4.237   1.081   2.589  0.4823  0.4352  0.9862
 3350TIP3    H210015   4.151   1.161   2.685 -0.5078  0.4330  0.1160
 3351TIP3   OH210016   4.731   1.630   5.697 -0.3986  0.1716  0.3022
 3351TIP3    H110017   4.707   1.559   5.757 -0.7329 -0.2311 -0.2963
 3351TIP3    H210018   4.755   1.703   5.754  1.2682 -0.8369  0.9701
 3352TIP3   OH210019   4.230   1.680   3.522 -0.2723  0.5051 -0.1679
 3352TIP3    H110020   4.161   1.734   3.484  0.4437  0.4484 -1.6311
 3352TIP3    H210021   4.204   1.590   3.503 -1.1388  0.3176  1.7009
 3353TIP3   OH210022   3.596   2.808   5.565  0.4010  0.2732 -0.5218
 3353TIP3    H110023   3.554   2.839   5.485  1.2294 -1.0656 -1.5081
 3353TIP3    H210024   3.684   2.781   5.537  0.7789 -0.0249  0.8826
 3354TIP3   OH210025   1.947   0.673   1.829  0.5208 -0.1473  0.0953
 3354TIP3    H110026   1.868   0.681   1.775  0.2552  0.4017  0.5500
 3354TIP3    H210027   2.019   0.669   1.766  0.2408  0.7689 -0.2991
 3355TIP3   OH210028   4.825   4.221   5.526 -0.3260  0.3384 -0.6858
 3355TIP3    H110029   4.765   4.215   5.601 -0.3029 -2.4415 -0.7647
 3355TIP3    H210030   4.887   4.290   5.549 -1.6731  1.1148  0.8072
 3356TIP3   OH210031   6.853   2.694   3.087  0.3177 -1.2249  0.0182
 3356TIP3    H110032   6.781   2.726   3.142 -0.3106  0.5689 -1.7226
 3356TIP3    H210033   6.849   2.749   3.009  3.1304 -1.6004 -0.4745
 3357TIP3   OH210034   2.457   3.593   2.932  0.6086  0.0332  0.6004
 3357TIP3    H110035   2.496   3.673   2.897 -0.7345  0.7649  0.7077
 3357TIP3    H210036   2.498   3.523   2.882  1.8182  0.7767  0.5104
 3358TIP3   OH210037   4.943   5.183   4.390  0.1118 -0.4051 -0.1889
 3358TIP3    H110038   4.935   5.193   4.295  0.4791 -0.1764 -0.1989
 3358TIP3    H210039   5.004   5.253   4.416 -0.1203 -0.3588  0.2365
 3359TIP3   OH210040   6.685   3.859   2.881 -0.1677 -0.0990 -0.7077
 3359TIP3    H110041   6.621   3.863   2.810 -0.8843  2.9373 -0.0677
 3359TIP3    H210042   6.662   3.780   2.930 -1.8945 -0.3781 -1.8709
 3360TIP3   OH210043   5.228   2.965   3.966 -0.5717  0.4243 -0.1321
 3360TIP3    H110044   5.269   3.007   3.891 -1.5597 -0.9406 -1.4928
 3360TIP3    H210045   5.170   3.032   4.003 -1.1209  0.6915 -1.4385
 3361TIP3   OH210046   0.465   4.081   3.960  0.2276  0.2231 -0.1898
 3361TIP3    H110047   0.392   4.132   3.925 -0.2851  0.8663  1.6940
 3361TIP3    H210048   0.435   3.990   3.956 -0.4367  0.4307  0.0276
 3362TIP3   OH210049   1.470   3.792   5.045  0.4484  0.2577 -0.2443
 3362TIP3    H110050   1.531   3.803   4.972  0.6774  3.3220  0.2453
 3362TIP3    H210051   1.469   3.878   5.088 -2.6486 -0.2612  1.0080
 3363TIP3   OH210052   5.254   4.243   1.390  0.1418 -0.4983 -0.9285
 3363TIP3    H110053   5.324   4.291   1.345 -0.9050  0.8450 -1.1824
 3363TIP3    H210054   5.197   4.311   1.425 -0.1745 -1.5472  0.7054
 3364TIP3   OH210055   0.500   5.991   5.341 -0.5705  0.4141 -0.0851
 3364TIP3    H110056   0.584   6.011   5.300  0.1164 -0.6328  0.7308
 3364TIP3    H210057   0.508   6.026   5.430 -0.7075 -0.3445  0.2303
 3365TIP3   OH210058   0.439   0.156   5.160 -0.4095  0.1378  0.0158
 3365TIP3    H110059   0.405   0.092   5.097 -1.9831  1.6339 -0.7368
 3365TIP3    H210060   0.443   0.108   5.243 -1.0350 -1.0680 -0.6214
 3366TIP3   OH210061   6.702   2.604   0.818 -0.6109 -0.2100 -0.1359
 3366TIP3    H110062   6.728   2.551   0.894 -0.8619 -0.8896 -0.5138
 3366TIP3    H210063   6.753   2.569   0.745  0.5557  1.2541 -0.0611
 3367TIP3   OH210064   3.055   0.202   2.914 -0.0362 -0.1135 -0.1317
 3367TIP3    H110065   2.959   0.202   2.923 -0.1437 -0.7164 -1.1166
 3367TIP3    H210066   3.070   0.221   2.821  0.8707  1.9104  0.3832
 3368TIP3   OH210067   3.447   3.840   5.527 -0.2328 -0.3604 -0.2329
 3368TIP3    H110068   3.536   3.838   5.491 -1.0863  0.6139 -2.6516
 3368TIP3    H210069   3.400   3.773   5.476 -0.7607 -1.4114  1.5472
 3369TIP3   OH210070   6.953   0.283   5.349 -0.4084  0.1369  1.1508
 3369TIP3    H110071   6.874   0.330   5.377 -0.6866  1.1922 -1.1712
 3369TIP3    H210072   7.006   0.350   5.306  0.4511 -1.1454  0.1576
 3370TIP3   OH210073   2.931   4.185   2.069  0.7275  0.1816 -0.2785
 3370TIP3    H110074   2.859   4.240   2.038  0.7867  1.1401  1.1758
 3370TIP3    H210075   2.899   4.096   2.058 -0.5777  0.5825  0.0653
 3371TIP3   OH210076   2.453   1.499   5.769  0.2454 -0.3607 -0.0702
 3371TIP3    H110077   2.461   1.420   5.715 -1.1443  0.2633 -1.2549
 3371TIP3    H210078   2.367   1.492   5.809  0.2440  0.4030  0.0652
 3372TIP3   OH210079   6.856   5.835   0.560  0.2774 -0.5035 -0.2635
 3372TIP3    H110080   6.779   5.844   0.504 -0.6928 -1.2472  0.8970
 3372TIP3    H210081   6.917   5.782   0.509 -0.9239 -1.8975 -0.3261
 3373TIP3   OH210082   1.289   0.730   3.453  0.3892 -0.7679  0.3301
 3373TIP3    H110083   1.359   0.792   3.430  0.6134 -1.0292  0.3054
 3373TIP3    H210084   1.335   0.650   3.479  0.0934 -1.7019 -1.7904
 3374TIP3   OH210085   6.993   1.280   2.501  0.5298  0.0261 -0.5030
 3374TIP3    H110086   6.987   1.373   2.480 -0.7252  0.3880  1.1869
 3374TIP3    H210087   6.911   1.260   2.546  1.7857 -1.2884  1.3649
 3375TIP3   OH210088   0.027   4.212   0.240 -0.3504  0.0059  0.1911
 3375TIP3    H110089  -0.034   4.139   0.247  0.5039 -0.7787 -0.2071
 3375TIP3    H210090   0.114   4.171   0.240  0.1188  0.8855 -1.5123
 3376TIP3   OH210091   0.767   3.818   2.931 -0.1573  0.3665 -0.5043
 3376TIP3    H110092   0.800   3.737   2.891 -0.9139  0.2930 -1.0003
 3376TIP3    H210093   0.791   3.887   2.869 -2.1310  0.1433 -1.5888
 3377TIP3   OH210094   2.377   3.416   2.139 -0.0690 -0.1122 -0.0318
 3377TIP3    H110095   2.360   3.466   2.219 -2.1277 -2.3521  1.0313
 3377TIP3    H210096   2.390   3.326   2.168  2.9621 -0.4535 -1.9446
 3378TIP3   OH210097   1.046   2.941   4.007  0.0497  0.1576 -0.5871
 3378TIP3    H110098   0.974   2.996   4.040  0.8206  0.5905  0.4423
 3378TIP3    H210099   1.113   2.948   4.075  1.4429  0.5244 -1.9506
 3379TIP3   OH210100   0.807   2.979   0.405 -0.0947  0.5728  0.5246
 3379TIP3    H110101   0.723   2.948   0.438  0.2393  1.0197  1.8558
 3379TIP3    H210102   0.790   3.004   0.314 -1.4795  0.9708  0.8744
 3380TIP3   OH210103   4.351   5.648   2.653  0.0111 -0.0355  0.1697
 3380TIP3    H110104   4.390   5.710   2.591  1.0823 -0.4173  0.4370
 3380TIP3    H210105   4.392   5.564   2.631  1.7991  0.1358  2.5386
 3381TIP3   OH210106   6.632   0.489   4.415  0.2519  0.1099 -0.2672
 3381TIP3    H110107   6.619   0.410   4.468  1.3751 -0.1402 -0.3421
 3381TIP3    H210108   6.588   0.469   4.333 -0.5368  0.0595  0.1544
 3382TIP3   OH210109   5.476   3.191   1.326  0.0704  0.1809 -0.2973
 3382TIP3    H110110   5.546   3.256   1.335  0.6317 -0.5732  1.1097
 3382TIP3    H210111   5.396   3.238   1.347  0.4667  0.4524  0.6588
 3383TIP3   OH210112   5.915   0.191   5.851 -0.8234 -0.4378 -0.2903
 3383TIP3    H110113   5.866   0.193   5.769 -0.3028 -0.6484 -0.6105
 3383TIP3    H210114   5.960   0.106   5.850 -0.3250 -0.1826 -0.0832
 3384TIP3   OH210115   5.209   6.631   1.244  0.1035 -0.4676  0.5266
 3384TIP3    H110116   5.172   6.710   1.205  0.0148 -0.8557 -0.2015
 3384TIP3    H210117   5.138   6.567   1.242 -0.4484 -0.0106  2.9224
 3385TIP3   OH210118   5.689   3.974   2.308 -0.2595  0.4208  0.1529
 3385TIP3    H110119   5.735   3.902   2.266 -0.1047  0.4002  0.3559
 3385TIP3    H210120   5.653   3.936   2.388  0.4227  0.7315  0.6239
 3386TIP3   OH210121   2.918   2.705   3.946 -0.3749  0.4558  0.5287
 3386TIP3    H110122   2.983   2.637   3.928 -0.9110 -0.2738  1.3048
 3386TIP3    H210123   2.888   2.733   3.859  2.2300  2.0997  0.0202
 3387TIP3   OH210124   7.155   4.377   2.362  0.3553 -0.2788 -0.3115
 3387TIP3    H110125   7.137   4.303   2.304  1.3577  0.8717 -2.1804
 3387TIP3    H210126   7.078   4.383   2.419 -0.9101 -1.1378 -1.8620
 3388TIP3   OH210127   5.519   5.440   5.184  0.0692 -0.0787  0.1103
 3388TIP3    H110128   5.563   5.525   5.197  0.5693 -0.5219  1.3857
 3388TIP3    H210129   5.589   5.375   5.194 -0.2322 -0.6458 -1.2488
 3389TIP3   OH210130   2.894   5.475   3.028  0.9414 -0.0880  0.2168
 3389TIP3    H110131   2.978   5.475   2.982  0.5311  0.2565 -0.5452
 3389TIP3    H210132   2.852   5.393   3.000  1.0885 -0.3544  0.7452
 3390TIP3   OH210133   3.682   3.691  -0.001 -0.1510  0.0367 -0.6332
 3390TIP3    H110134   3.671   3.603   0.035 -1.0633 -0.9764 -3.2239
 3390TIP3    H210135   3.776   3.708   0.008  0.0867 -1.3010 -0.3628
 3391TIP3   OH210136   3.123   2.360   1.857  0.3445  0.1670 -0.1408
 3391TIP3    H110137   3.080   2.407   1.785 -1.5756  0.9774  1.4228
 3391TIP3    H210138   3.201   2.412   1.875 -0.3685  1.3039 -0.1788
 3392TIP3   OH210139   5.620   4.497   0.586 -0.2264 -0.1891 -0.3203
 3392TIP3    H110140   5.641   4.524   0.496  0.5074 -0.7589 -0.3286
 3392TIP3    H210141   5.686   4.541   0.640  1.6171 -2.6103 -0.4226
 3393TIP3   OH210142   5.050   5.122   0.092  0.3429  0.2941  0.1855
 3393TIP3    H110143   5.066   5.213   0.115  1.1935  0.7348 -1.9059
 3393TIP3    H210144   5.124   5.074   0.128  1.2797  0.8596 -0.8956
 3394TIP3   OH210145   1.334   4.601   5.479  0.0066 -0.4374 -0.0131
 3394TIP3    H110146   1.253   4.642   5.449  0.4955 -0.3921 -1.3715
 3394TIP3    H210147   1.332   4.513   5.443  0.0236 -0.8355  0.9431
 3395TIP3   OH210148   7.147   0.490   5.300 -0.2765 -0.1594 -0.2924
 3395TIP3    H110149   7.066   0.540   5.292 -1.4040 -1.8568 -0.1570
 3395TIP3    H210150   7.183   0.515   5.385 -2.4182 -1.7042  1.1988
 3396TIP3   OH210151   5.110   6.273   0.754 -0.0991 -0.4547  0.7540
 3396TIP3    H110152   5.039   6.219   0.789 -0.1975 -0.1827  0.9787
 3396TIP3    H210153   5.144   6.223   0.680 -0.3859 -0.6854  0.7761
 3397TIP3   OH210154   4.463   1.963   1.617  0.1999  0.3337  0.7859
 3397TIP3    H110155   4.461   2.030   1.686 -0.4464 -0.0345  1.1353
 3397TIP3    H210156   4.527   1.899   1.647  0.0368  0.2559  0.9722
 3398TIP3   OH210157   1.760   1.203   4.907  0.4657  0.4213  0.8944
 3398TIP3    H110158   1.843   1.180   4.866 -0.2905  0.7278 -0.9218
 3398TIP3    H210159   1.784   1.246   4.988  2.1558  2.1795 -0.4527
 3399TIP3   OH210160   5.062   4.610   2.167 -0.3669 -0.1271  0.3912
 3399TIP3    H110161   4.970   4.606   2.141 -0.1106 -1.1850 -0.4124
 3399TIP3    H210162   5.096   4.689   2.123 -1.1215  0.8902  1.5638
 3400TIP3   OH210163   3.835   0.788   1.783 -0.4941 -0.4994  0.0319
 3400TIP3    H110164   3.909   0.752   1.734  0.2561  1.0405  0.0002
 3400TIP3    H210165   3.773   0.715   1.788  1.0130 -1.8351  0.0869
 3401TIP3   OH210166   6.477   2.910   2.948 -0.5188  0.3615  0.0609
 3401TIP3    H110167   6.436   2.893   2.863  1.0692 -0.6590 -0.5514
 3401TIP3    H210168   6.570   2.897   2.933 -0.2963 -1.1059  2.2446
 3402TIP3   OH210169   6.810   4.793   3.665 -0.1727  0.0450  0.4797
 3402TIP3    H110170   6.742   4.816   3.729 -1.1084  0.6644 -0.6920
 3402TIP3    H210171   6.848   4.877   3.639 -2.1654  0.2399 -2.2688
 3403TIP3   OH210172   6.770   0.565   1.629  0.6646 -0.1584  0.0553
 3403TIP3    H110173   6.784   0.507   1.705 -1.5363  0.7922  1.2774
 3403TIP3    H210174   6.748   0.650   1.668  0.3427  0.5802 -1.6661
 3404TIP3   OH210175   2.443   5.236   2.016 -0.2053 -0.0372  0.2077
 3404TIP3    H110176   2.472   5.311   2.068  0.0792 -0.1029  0.1471
 3404TIP3    H210177   2.524   5.196   1.984 -0.3549 -0.3542  0.2159
 3405TIP3   OH210178   1.499   3.053   2.554  0.2585  0.0786  0.2179
 3405TIP3    H110179   1.542   2.970   2.533  0.1441  0.5001 -1.8995
 3405TIP3    H210180   1.436   3.031   2.621  0.4726 -1.4881 -0.0542
 3406TIP3   OH210181   4.787   1.803   3.881 -0.1362 -0.4624  0.7467
 3406TIP3    H110182   4.820   1.741   3.817  0.4478  1.3418 -0.7827
 3406TIP3    H210183   4.854   1.805   3.950  2.2676  1.8150 -1.4380
 3407TIP3   OH210184   0.387   5.063   1.500  0.0444  0.1545 -0.1029
 3407TIP3    H110185   0.423   4.999   1.438 -0.2167  0.3903 -0.4995
 3407TIP3    H210186   0.465   5.106   1.537  0.1734  0.8132 -1.1176
 3408TIP3   OH210187   1.309   2.626   4.072  0.2019  0.2805  0.1387
 3408TIP3    H110188   1.324   2.535   4.048  0.0592  0.6037 -1.2721
 3408TIP3    H210189   1.390   2.671   4.050 -0.7984  1.0540 -2.3875
 3409TIP3   OH210190   0.560   4.239   2.708  0.0365  0.6413  0.1449
 3409TIP3    H110191   0.542   4.332   2.698  0.0946  0.7975  1.3058
 3409TIP3    H210192   0.478   4.203   2.744 -0.2663  0.0881 -1.0623
 3410TIP3   OH210193   1.254   5.498   3.782 -0.1849  0.2361  0.0515
 3410TIP3    H110194   1.329   5.530   3.732 -0.3316  0.6471  0.0913
 3410TIP3    H210195   1.260   5.402   3.775 -0.8043  0.2778 -1.6717
 3411TIP3   OH210196   5.522   0.922   1.928 -0.7018  0.0249  0.5863
 3411TIP3    H110197   5.564   0.927   1.842 -0.9689 -0.0564  0.4503
 3411TIP3    H210198   5.580   0.971   1.986 -1.1156  1.0882  0.1320
 3412TIP3   OH210199   2.127   0.873   5.718  0.1557  0.8881  0.1131
 3412TIP3    H110200   2.160   0.845   5.633 -1.0136 -0.0626 -0.0567
 3412TIP3    H210201   2.111   0.967   5.708  1.3031  1.0659 -0.2611
 3413TIP3   OH210202   3.013   1.305   3.182  0.2024  0.0177 -0.1847
 3413TIP3    H110203   2.988   1.244   3.113 -1.7234 -0.8466  1.1802
 3413TIP3    H210204   3.109   1.308   3.178  0.3284 -2.5706 -0.7499
 3414TIP3   OH210205   5.419   0.673   2.842 -0.2790  0.2407 -0.5777
 3414TIP3    H110206   5.406   0.617   2.765  1.3487  0.2172 -0.8626
 3414TIP3    H210207   5.367   0.630   2.911 -0.0036 -0.9708 -1.0859
 3415TIP3   OH210208   2.369   6.802   4.771  0.1027  0.8886  0.2585
 3415TIP3    H110209   2.438   6.757   4.819  1.0058  0.3426 -1.4550
 3415TIP3    H210210   2.290   6.752   4.791  0.6034  0.1964  0.5499
 3416TIP3   OH210211   4.470   0.659   1.545 -0.1126 -0.4708  0.1550
 3416TIP3    H110212   4.532   0.729   1.527  0.3446 -0.9854 -0.3495
 3416TIP3    H210213   4.514   0.580   1.512 -0.3136 -1.0923  1.3418
 3417TIP3   OH210214   0.873   3.145   1.635  0.0873 -0.2078 -0.1359
 3417TIP3    H110215   0.895   3.228   1.679  0.2976 -1.5972  2.6336
 3417TIP3    H210216   0.955   3.119   1.592  0.3038  0.5579 -0.2011
 3418TIP3   OH210217   5.299   6.619   4.730  0.4327  0.1742 -0.2723
 3418TIP3    H110218   5.268   6.706   4.707 -0.6669 -0.1040  0.0842
 3418TIP3    H210219   5.226   6.561   4.708  1.6585 -0.8502 -1.8324
 3419TIP3   OH210220   5.456   5.145   5.896  0.4383  0.1683 -0.4383
 3419TIP3    H110221   5.437   5.166   5.805 -0.2321  0.4733 -0.2332
 3419TIP3    H210222   5.529   5.203   5.920 -0.2742  1.0662 -0.3836
 3420TIP3   OH210223   5.661   4.326   3.226  0.3452  0.2357 -0.1911
 3420TIP3    H110224   5.690   4.252   3.279  1.7808  0.7606 -0.1963
 3420TIP3    H210225   5.629   4.391   3.289 -1.0786 -0.4146 -0.1952
 3421TIP3   OH210226   5.828   0.702   4.991  0.8986 -0.5738 -0.0721
 3421TIP3    H110227   5.838   0.791   5.027  1.5452 -1.1863  1.3247
 3421TIP3    H210228   5.881   0.702   4.911  0.5712  0.3991 -0.3113
 3422TIP3   OH210229   5.355   4.207   1.999 -0.2127  0.4424 -0.3282
 3422TIP3    H110230   5.298   4.138   1.967  2.2078 -1.8071 -0.1584
 3422TIP3    H210231   5.356   4.194   2.094  0.5049  0.4591 -0.3272
 3423TIP3   OH210232   3.312   0.275   4.721  0.0061 -0.1190  0.2480
 3423TIP3    H110233   3.359   0.352   4.752 -0.4683 -0.3101  1.4746
 3423TIP3    H210234   3.220   0.296   4.737 -0.5029  0.6484 -2.9671
 3424TIP3   OH210235   5.502   1.977   5.673  0.2119  0.1931 -0.2713
 3424TIP3    H110236   5.593   1.996   5.648  0.4221  1.2095  1.1372
 3424TIP3    H210237   5.464   1.937   5.595  1.9194 -0.4544 -0.8329
 3425TIP3   OH210238   0.305   3.151   0.961 -0.1817  0.5730 -0.7769
 3425TIP3    H110239   0.255   3.091   1.016 -0.5594 -0.7698 -2.4992
 3425TIP3    H210240   0.243   3.218   0.935 -0.0564  1.0932  0.2043
 3426TIP3   OH210241   6.368   4.132   4.784  0.5975 -0.0523  0.3525
 3426TIP3    H110242   6.393   4.060   4.726  0.8007 -0.0710  0.4658
 3426TIP3    H210243   6.381   4.098   4.872  0.0888 -0.0963  0.4154
 3427TIP3   OH210244   3.588   1.274   1.522 -0.4710 -0.6942 -0.4195
 3427TIP3    H110245   3.501   1.261   1.485 -0.5666  3.5745 -2.2239
 3427TIP3    H210246   3.580   1.352   1.577  2.5082  1.0283 -2.1686
 3428TIP3   OH210247   3.732   1.616   1.606  0.0453 -0.3437  0.0724
 3428TIP3    H110248   3.638   1.598   1.615 -0.5894  2.9349  1.5034
 3428TIP3    H210249   3.736   1.707   1.579  2.8578 -0.0320  1.2756
 3429TIP3   OH210250   6.644   3.251   5.188 -0.1159 -0.2708  0.2182
 3429TIP3    H110251   6.563   3.224   5.232  0.8629 -0.5521  1.9415
 3429TIP3    H210252   6.668   3.333   5.231  0.4668 -0.1434 -0.3389
 3430TIP3   OH210253   3.909   3.634   2.922  0.2312  0.2320 -0.2046
 3430TIP3    H110254   3.824   3.678   2.931 -0.3918 -0.9034 -0.3250
 3430TIP3    H210255   3.890   3.542   2.941  1.1817 -0.2586 -1.4959
 3431TIP3   OH210256   5.293   1.489   2.400  0.2918  0.3934 -0.1125
 3431TIP3    H110257   5.328   1.500   2.312 -1.0325  1.4644 -0.5433
 3431TIP3    H210258   5.266   1.397   2.404  1.2379  0.0901 -0.4745
 3432TIP3   OH210259   0.577   2.256   3.995  0.3146  0.3051 -0.1251
 3432TIP3    H110260   0.497   2.213   4.025 -0.4939  1.9549  0.2003
 3432TIP3    H210261   0.561   2.272   3.902 -0.0968  1.3396  0.1084
 3433TIP3   OH210262   5.644   3.359   1.650 -0.4540  0.1547  0.4353
 3433TIP3    H110263   5.659   3.402   1.734 -0.2830 -0.6703  0.8405
 3433TIP3    H210264   5.551   3.371   1.633 -0.2078  1.5796  0.0249
 3434TIP3   OH210265   2.941   5.258   3.921  0.0853 -0.8479  0.2921
 3434TIP3    H110266   3.027   5.229   3.951  0.4358  1.0225  1.2887
 3434TIP3    H210267   2.898   5.291   4.001  0.5312  3.0921 -0.8640
 3435TIP3   OH210268   4.479   2.836   2.206 -0.4822 -0.4343 -0.3922
 3435TIP3    H110269   4.501   2.857   2.297 -3.1942 -2.0402  0.7642
 3435TIP3    H210270   4.500   2.915   2.157 -0.3274  1.0380  1.8968
 3436TIP3   OH210271   2.236   6.749   0.866  0.4846 -0.0230 -0.1826
 3436TIP3    H110272   2.313   6.705   0.830 -0.0095 -0.2695 -0.9692
 3436TIP3    H210273   2.259   6.841   0.867  0.9854 -0.1497  0.0776
 3437TIP3   OH210274   5.149   4.175   3.382 -0.6580  0.3159  0.7194
 3437TIP3    H110275   5.185   4.228   3.310  0.0338 -0.5334  0.4233
 3437TIP3    H210276   5.223   4.157   3.438 -0.4623 -1.8442 -0.1363
 3438TIP3   OH210277   6.570   4.132   3.011 -0.4012  0.1238 -0.1030
 3438TIP3    H110278   6.603   4.159   2.926 -2.0086 -0.6217 -1.0231
 3438TIP3    H210279   6.477   4.114   2.996 -0.5590 -0.7677  1.6315
 3439TIP3   OH210280   2.453   3.839   2.230 -0.0376  0.0642  0.1056
 3439TIP3    H110281   2.411   3.895   2.295 -0.1791  0.9760 -0.7526
 3439TIP3    H210282   2.381   3.789   2.191  0.0384 -0.4298  0.5875
 3440TIP3   OH210283   1.254   1.218   4.682 -0.3790 -0.3776 -0.3059
 3440TIP3    H110284   1.181   1.279   4.670 -1.1055 -1.5221 -1.8888
 3440TIP3    H210285   1.216   1.144   4.730  0.5515  0.4136  1.8006
 3441TIP3   OH210286   5.492   5.723   3.775 -0.0413 -0.1504  0.1511
 3441TIP3    H110287   5.512   5.647   3.829  0.9698  1.0473  1.5088
 3441TIP3    H210288   5.401   5.743   3.795 -0.5429 -1.3560 -0.7286
 3442TIP3   OH210289   5.670   5.581   4.224 -0.1037 -0.0866 -0.4667
 3442TIP3    H110290   5.762   5.573   4.251 -0.2579 -1.0496 -0.1718
 3442TIP3    H210291   5.672   5.581   4.129  0.2386  0.3373 -0.4575
 3443TIP3   OH210292   4.012   6.023   3.061 -0.0249  0.0653  0.6356
 3443TIP3    H110293   3.940   5.960   3.059  0.9741 -1.0936  0.2403
 3443TIP3    H210294   4.079   5.986   3.004  0.9720  1.0291  1.1295
 3444TIP3   OH210295   5.350   5.277   4.507 -0.0761  0.0674 -0.2174
 3444TIP3    H110296   5.358   5.182   4.513 -1.8072 -0.3297 -2.6519
 3444TIP3    H210297   5.419   5.303   4.447  0.1324  0.2967  0.1199
 3445TIP3   OH210298   0.345   4.228   2.388 -0.0917  0.0697 -0.6135
 3445TIP3    H110299   0.437   4.240   2.366  0.6632 -0.3641  2.0186
 3445TIP3    H210300   0.304   4.312   2.365  1.2398  0.7900 -0.4413
 3446TIP3   OH210301   2.526   1.684   3.446  0.2512  0.1967 -0.5402
 3446TIP3    H110302   2.487   1.620   3.386  1.4317 -0.2531 -0.8601
 3446TIP3    H210303   2.480   1.765   3.428 -0.8888 -0.4293 -0.5267
 3447TIP3   OH210304   6.430   2.987   4.518  0.9258  0.2186 -0.0037
 3447TIP3    H110305   6.461   2.898   4.536  0.4711 -0.1492 -0.9925
 3447TIP3    H210306   6.457   3.005   4.428  1.6792  1.3820  0.4253
 3448TIP3   OH210307   3.368   6.745   4.257  0.4443 -0.3916  0.1722
 3448TIP3    H110308   3.276   6.772   4.248  0.7575  1.6505  2.1803
 3448TIP3    H210309   3.363   6.654   4.288 -0.9279 -0.1017  0.8963
 3449TIP3   OH210310   2.461   6.791   2.000  0.0649  0.6243 -0.2017
 3449TIP3    H110311   2.545   6.815   1.962  0.4068 -0.7874 -0.4037
 3449TIP3    H210312   2.449   6.699   1.975 -1.7079  0.8944 -0.5000
 3450TIP3   OH210313   1.009   5.984   5.219 -0.0224 -0.3272 -0.0003
 3450TIP3    H110314   0.999   6.065   5.269 -1.6622  0.0422 -0.8430
 3450TIP3    H210315   0.992   6.010   5.128 -2.1070 -1.8474 -0.1157
 3451TIP3   OH210316   1.375   4.816   0.618 -0.3815 -0.0511 -0.5652
 3451TIP3    H110317   1.307   4.829   0.553  0.2172 -0.8861 -1.3882
 3451TIP3    H210318   1.340   4.748   0.676 -0.3712 -0.2894 -0.8331
 3452TIP3   OH210319   1.163   3.733   5.839 -0.1227  0.5836 -0.6812
 3452TIP3    H110320   1.143   3.788   5.763 -1.5992 -0.9240 -1.4579
 3452TIP3    H210321   1.085   3.678   5.850  2.0265 -2.8957 -1.3529
 3453TIP3   OH210322   6.427   6.563   4.820  0.4791  0.8672  0.1077
 3453TIP3    H110323   6.482   6.496   4.860 -0.4291  1.1704  2.0152
 3453TIP3    H210324   6.341   6.549   4.860 -0.7483  0.7109 -2.4168
 3454TIP3   OH210325   1.836   3.432   1.748  0.1982  0.1784 -1.0543
 3454TIP3    H110326   1.913   3.422   1.805  0.8368 -1.5445 -2.1546
 3454TIP3    H210327   1.856   3.510   1.695 -0.1830  1.5040  0.6543
 3455TIP3   OH210328   7.072   5.491   2.238 -0.3026  0.3248  0.2847
 3455TIP3    H110329   7.024   5.572   2.258 -2.1325 -0.6987  0.3037
 3455TIP3    H210330   7.038   5.427   2.300  0.0615 -0.7984 -0.6330
 3456TIP3   OH210331   6.558   1.527   1.329  0.4336  0.2908 -0.5591
 3456TIP3    H110332   6.569   1.568   1.243 -1.1122 -0.7623 -1.3048
 3456TIP3    H210333   6.632   1.466   1.337 -0.0421 -0.4652 -1.6839
 3457TIP3   OH210334   2.157   2.452   1.603  0.0296  0.2690 -0.4241
 3457TIP3    H110335   2.148   2.511   1.528  2.1667  0.6246 -0.4531
 3457TIP3    H210336   2.121   2.369   1.573  1.2101  0.2993 -1.9999
 3458TIP3   OH210337   2.371   3.174   2.905 -0.1984  0.1916 -0.3882
 3458TIP3    H110338   2.371   3.079   2.910 -0.1309  0.2104 -0.0432
 3458TIP3    H210339   2.376   3.204   2.996 -0.7829  0.5274 -0.4590
 3459TIP3   OH210340   6.995   6.143   3.436  0.2074  0.0803 -0.1318
 3459TIP3    H110341   7.038   6.229   3.427  1.0290 -0.2055  0.8534
 3459TIP3    H210342   6.923   6.146   3.374  2.7818 -0.1348 -3.4437
 3460TIP3   OH210343   3.171   5.185   1.789 -0.2237 -0.1466 -0.3345
 3460TIP3    H110344   3.173   5.089   1.790 -0.3026 -0.1460  0.1444
 3460TIP3    H210345   3.136   5.207   1.702 -0.1024 -0.5472 -0.4899
 3461TIP3   OH210346   2.222   1.224   0.465 -0.0405 -0.1961 -0.2787
 3461TIP3    H110347   2.175   1.237   0.383 -0.5475 -0.9154 -0.1123
 3461TIP3    H210348   2.297   1.170   0.440  1.0504  1.4035 -0.6432
 3462TIP3   OH210349   4.415   0.550   3.315  0.6024 -0.3245 -0.4051
 3462TIP3    H110350   4.369   0.514   3.390 -0.5410  0.6927 -0.5911
 3462TIP3    H210351   4.447   0.473   3.267 -1.7209 -1.1249 -0.7812
 3463TIP3   OH210352   6.136   1.133   3.881  0.6205  0.2440 -0.0398
 3463TIP3    H110353   6.147   1.055   3.935 -0.4839  1.0450  1.4262
 3463TIP3    H210354   6.131   1.205   3.944  0.4512  1.3574 -1.2899
 3464TIP3   OH210355   0.706   3.934   2.474  0.1031  0.4303 -0.1567
 3464TIP3    H110356   0.769   3.979   2.418  0.3046 -1.6653 -1.7304
 3464TIP3    H210357   0.754   3.859   2.509 -0.6479  0.5338  1.1644
 3465TIP3   OH210358   3.547   0.718   2.856  0.8530  0.3521  0.2455
 3465TIP3    H110359   3.603   0.664   2.801 -0.2098 -1.6987  1.0415
 3465TIP3    H210360   3.581   0.707   2.945 -0.2109 -0.1757  0.6091
 3466TIP3   OH210361   5.877   1.538   2.816 -0.4524  0.6453 -0.2889
 3466TIP3    H110362   5.818   1.563   2.887 -0.4365  1.4243 -0.5376
 3466TIP3    H210363   5.819   1.524   2.741 -0.2885  2.0856 -0.7154
 3467TIP3   OH210364   6.208   3.852   3.090  0.0159 -0.0694  0.5958
 3467TIP3    H110365   6.223   3.765   3.129  2.7612 -0.8696 -1.9028
 3467TIP3    H210366   6.230   3.913   3.160 -0.7620 -1.3303  2.0230
 3468TIP3   OH210367   2.221   6.130   3.726 -0.1104 -0.0457 -0.8015
 3468TIP3    H110368   2.145   6.093   3.681 -1.5365 -0.0020  1.3656
 3468TIP3    H210369   2.189   6.213   3.763  0.7572 -0.3493  0.7364
 3469TIP3   OH210370   2.450   6.793   5.184  0.2836 -0.2681 -0.1479
 3469TIP3    H110371   2.536   6.800   5.225  0.6054  1.2727 -1.0080
 3469TIP3    H210372   2.392   6.764   5.254  1.6064 -2.0395  0.2791
 3470TIP3   OH210373   6.419   0.750   2.542  0.2136 -0.3883  0.1399
 3470TIP3    H110374   6.465   0.728   2.623  0.3709  0.1410  0.1953
 3470TIP3    H210375   6.336   0.788   2.571  0.1722 -0.4088  0.0491
 3471TIP3   OH210376   6.045   1.471   3.785  1.0249 -1.1791  0.2577
 3471TIP3    H110377   6.053   1.399   3.722  0.0741 -0.4308 -0.7391
 3471TIP3    H210378   6.130   1.515   3.781  0.7404 -0.7158 -1.0358
 3472TIP3   OH210379   1.124   1.528   2.241 -0.9341  0.7245 -0.7230
 3472TIP3    H110380   1.037   1.559   2.264 -1.4250 -1.8361  1.4565
 3472TIP3    H210381   1.111   1.435   2.218  0.9296  0.8663 -2.7338
 3473TIP3   OH210382   0.149   1.181   0.988 -0.5544 -0.0299 -0.1507
 3473TIP3    H110383   0.200   1.159   0.910  1.1242  0.4799  0.7550
 3473TIP3    H210384   0.091   1.252   0.960  2.0435  2.1952 -0.3264
 3474TIP3   OH210385   3.047   5.201   1.539 -0.0923  0.1141  0.2660
 3474TIP3    H110386   3.024   5.130   1.478 -2.3809 -0.1819  1.3606
 3474TIP3    H210387   3.067   5.275   1.482 -2.2367 -0.1305 -0.9496
 3475TIP3   OH210388   0.889   5.219   3.715  0.3628 -0.5721 -0.1332
 3475TIP3    H110389   0.921   5.306   3.736  0.0253  0.0714 -2.0716
 3475TIP3    H210390   0.950   5.159   3.757  0.4319  0.5814  1.4643
 3476TIP3   OH210391   0.479   2.587   4.364  0.1246  0.3950  0.1577
 3476TIP3    H110392   0.514   2.532   4.294 -1.0927  0.9087 -0.8959
 3476TIP3    H210393   0.555   2.607   4.419  0.6118 -2.3066  0.6016
 3477TIP3   OH210394   4.864   4.575   1.206 -0.3375 -0.3646 -0.0214
 3477TIP3    H110395   4.943   4.578   1.259 -0.3195  0.2759 -0.0704
 3477TIP3    H210396   4.806   4.640   1.246 -0.3352  0.1025 -0.7502
 3478TIP3   OH210397   0.757   6.139   0.194 -0.3844 -0.4528 -0.3530
 3478TIP3    H110398   0.725   6.194   0.266  0.1283 -1.6076  0.7967
 3478TIP3    H210399   0.704   6.165   0.119 -2.2585 -0.5401  0.8790
 3479TIP3   OH210400   2.279   1.010   4.797 -0.1651 -0.6266  0.3023
 3479TIP3    H110401   2.231   0.928   4.804  0.9345 -1.2640  0.7012
 3479TIP3    H210402   2.319   1.022   4.883  1.1459 -0.6175 -0.2820
 3480TIP3   OH210403   0.762   2.631   0.772 -0.0894  0.2630 -0.6972
 3480TIP3    H110404   0.794   2.546   0.742  0.5816  0.0088  0.6712
 3480TIP3    H210405   0.667   2.620   0.779  0.0952 -0.7199  0.4895
 3481TIP3   OH210406   4.411   0.347   4.264  0.0330 -0.3565 -0.4565
 3481TIP3    H110407   4.434   0.429   4.308 -1.1496  0.3257 -1.0582
 3481TIP3    H210408   4.352   0.302   4.325 -0.7027  0.0623 -0.8464
 3482TIP3   OH210409   1.408   1.791   5.832  0.2177 -0.0434 -0.2556
 3482TIP3    H110410   1.401   1.697   5.845 -1.8705  0.1578  0.3230
 3482TIP3    H210411   1.327   1.827   5.868  0.6879  1.9237 -1.0274
 3483TIP3   OH210412   6.800   2.361   5.135 -0.6793 -0.1707  0.6126
 3483TIP3    H110413   6.853   2.441   5.127  0.8033 -1.2656 -1.5147
 3483TIP3    H210414   6.719   2.382   5.088 -0.8857  0.4966  1.2342
 3484TIP3   OH210415   3.131   0.851   5.689  0.2499  0.6867 -0.3650
 3484TIP3    H110416   3.105   0.862   5.597  2.1769 -1.5298 -1.2765
 3484TIP3    H210417   3.225   0.865   5.689  0.2835  0.6370  1.3139
 3485TIP3   OH210418   6.508   4.537   0.431 -1.0127 -0.2515 -0.0758
 3485TIP3    H110419   6.464   4.489   0.501  0.2187 -1.3319 -0.0121
 3485TIP3    H210420   6.541   4.469   0.372  0.4246  0.5107 -0.2007
 3486TIP3   OH210421   0.297   1.325   5.572  0.0391  0.8534 -0.7134
 3486TIP3    H110422   0.346   1.314   5.490 -0.7268  0.0161 -1.0796
 3486TIP3    H210423   0.323   1.411   5.604  0.1414  1.3120 -1.9845
 3487TIP3   OH210424   3.630   2.298   5.716  0.1818 -0.3375 -0.0709
 3487TIP3    H110425   3.605   2.208   5.740  0.6789 -0.2165  0.9513
 3487TIP3    H210426   3.721   2.305   5.742  0.7709 -0.1705 -2.0284
 3488TIP3   OH210427   3.754   5.811   2.748 -0.6945  0.2580 -0.9456
 3488TIP3    H110428   3.801   5.768   2.676 -1.1860  0.9477 -1.7011
 3488TIP3    H210429   3.766   5.904   2.732  0.8056  0.4404  0.9754
 3489TIP3   OH210430   0.637   4.589   0.516 -0.1750  0.2634  0.3280
 3489TIP3    H110431   0.549   4.585   0.479 -0.1637 -0.8074  0.3999
 3489TIP3    H210432   0.685   4.647   0.457 -0.7851  0.4298 -0.0099
 3490TIP3   OH210433   6.121   0.817   0.592 -0.1995  0.3794  0.0204
 3490TIP3    H110434   6.157   0.896   0.551 -0.6842  0.0319 -1.1129
 3490TIP3    H210435   6.101   0.759   0.518  0.0368 -0.7588  0.8304
 3491TIP3   OH210436   5.638   5.198   3.334 -0.1961 -0.2945 -0.1946
 3491TIP3    H110437   5.549   5.166   3.314 -0.6430  0.5387  0.3960
 3491TIP3    H210438   5.643   5.197   3.429  0.4749 -0.4286 -0.2302
 3492TIP3   OH210439   1.913   2.727   1.583 -0.1785 -0.7709  0.1624
 3492TIP3    H110440   1.915   2.742   1.489  1.1702 -0.1553  0.2741
 3492TIP3    H210441   1.839   2.780   1.614 -0.7980 -1.1914 -0.5658
 3493TIP3   OH210442   3.502   0.691   2.146 -0.1017  0.3124 -0.0054
 3493TIP3    H110443   3.454   0.691   2.063 -0.1078 -0.6286 -0.0072
 3493TIP3    H210444   3.591   0.716   2.122 -0.0378 -0.2222 -0.3455
 3494TIP3   OH210445   7.094   0.614   2.497  0.0298  0.1187  0.1860
 3494TIP3    H110446   7.115   0.698   2.537 -0.7451  0.5466 -0.2748
 3494TIP3    H210447   7.071   0.557   2.570 -0.2382  0.5451  0.4340
 3495TIP3   OH210448   0.626   5.735   1.188 -0.4567 -0.2575 -0.0020
 3495TIP3    H110449   0.699   5.779   1.145 -0.1317 -0.0223  0.7595
 3495TIP3    H210450   0.601   5.665   1.128 -0.9742  0.9388 -1.2160
 3496TIP3   OH210451   2.845   4.671   3.552  0.0895 -0.4971  0.0768
 3496TIP3    H110452   2.871   4.760   3.528 -1.2800 -0.6636 -2.2990
 3496TIP3    H210453   2.928   4.626   3.570  0.8544  1.0118  0.4851
 3497TIP3   OH210454   3.723   2.610   3.838  0.5551  0.3060  0.4985
 3497TIP3    H110455   3.634   2.585   3.862 -0.4334  2.5863 -0.4004
 3497TIP3    H210456   3.733   2.581   3.747 -1.1549  3.9622 -1.0893
 3498TIP3   OH210457   3.652   6.011   2.386  0.4628 -0.0598  0.4915
 3498TIP3    H110458   3.585   6.071   2.417 -0.0558 -0.0324 -0.6209
 3498TIP3    H210459   3.611   5.964   2.313  1.2171 -0.9922  0.6399
 3499TIP3   OH210460   0.148   3.249   4.931 -0.2343  0.1772 -0.2062
 3499TIP3    H110461   0.142   3.200   4.849 -0.7400  1.8511 -1.2438
 3499TIP3    H210462   0.173   3.338   4.903 -0.9824  0.9303  1.3913
 3500TIP3   OH210463   2.597   0.374   5.704  0.4454 -0.0718  0.3137
 3500TIP3    H110464   2.618   0.331   5.622  0.6853  1.1962 -0.3130
 3500TIP3    H210465   2.682   0.401   5.739  0.2369  0.8117  0.1646
 3501TIP3   OH210466   1.416   1.088   4.457  0.3288 -0.2323  0.2946
 3501TIP3    H110467   1.363   1.058   4.383 -0.0268  0.8415  0.0899
 3501TIP3    H210468   1.364   1.158   4.497  1.3797  0.5402  0.3630
 3502TIP3   OH210469   3.631   4.078   0.313 -0.0565  0.2395 -0.1874
 3502TIP3    H110470   3.671   3.991   0.315  1.3198  0.7926 -1.9546
 3502TIP3    H210471   3.637   4.106   0.222 -0.0814  2.3620  0.4030
 3503TIP3   OH210472   6.831   0.107   3.613  0.1715  0.2284  0.4553
 3503TIP3    H110473   6.815   0.013   3.622 -0.3437  0.2891  0.2217
 3503TIP3    H210474   6.820   0.142   3.702  0.2857  0.0775  0.5280
 3504TIP3   OH210475   4.897   6.100   4.226  0.5005 -0.4694  0.3829
 3504TIP3    H110476   4.867   6.065   4.310 -0.6511 -0.0303  0.1788
 3504TIP3    H210477   4.886   6.027   4.165 -0.3286 -0.2757  0.2834
 3505TIP3   OH210478   1.828   0.049   3.539  0.0623 -0.5405  0.1150
 3505TIP3    H110479   1.814   0.025   3.631 -1.4539  0.9371  0.3142
 3505TIP3    H210480   1.878   0.131   3.543 -0.3754 -0.2470 -0.3521
 3506TIP3   OH210481   6.336   2.854   1.034  0.0106 -0.9008 -0.3350
 3506TIP3    H110482   6.395   2.928   1.044  1.4620 -2.2745  2.4044
 3506TIP3    H210483   6.249   2.890   1.052  0.6295  0.2443  0.5181
 3507TIP3   OH210484   6.495   3.891   0.352  0.0575 -0.0872  0.1043
 3507TIP3    H110485   6.560   3.863   0.288  0.3078  0.1585  0.2490
 3507TIP3    H210486   6.466   3.811   0.394 -1.2089 -0.4469 -1.3462
 3508TIP3   OH210487   0.788   3.705   0.042 -1.1365 -0.2120  0.3754
 3508TIP3    H110488   0.734   3.667  -0.027 -2.0273  0.6014  0.6158
 3508TIP3    H210489   0.786   3.639   0.112 -2.5088  0.1523  0.7115
 3509TIP3   OH210490   0.943   3.682   3.569 -0.0736 -0.3182  0.2321
 3509TIP3    H110491   0.996   3.605   3.548  1.5497  0.4952  1.1044
 3509TIP3    H210492   0.934   3.679   3.664 -0.2550  0.4012  0.2422
 3510TIP3   OH210493   4.073   6.739   0.851 -0.2860  0.5382 -0.2628
 3510TIP3    H110494   4.086   6.809   0.787 -0.8820  0.8456 -0.0579
 3510TIP3    H210495   3.996   6.691   0.819  0.8893 -0.8526 -1.1185
 3511TIP3   OH210496   0.702   4.846   1.674  0.2055  0.1931  0.1853
 3511TIP3    H110497   0.780   4.804   1.638  0.1813  0.4755 -0.2019
 3511TIP3    H210498   0.638   4.845   1.602  1.0956  3.3387 -0.8037
 3512TIP3   OH210499   0.190   0.847   0.271  0.2541  0.4370 -0.1651
 3512TIP3    H110500   0.160   0.842   0.181 -0.1636 -1.0943  0.0275
 3512TIP3    H210501   0.284   0.864   0.265  0.3816 -0.4801 -0.9205
 3513TIP3   OH210502   4.795   4.194   2.012 -0.0135  0.2110 -0.1493
 3513TIP3    H110503   4.738   4.153   1.948  0.3110 -1.9446  0.8714
 3513TIP3    H210504   4.858   4.244   1.959  0.7984 -2.2009 -1.6248
 3514TIP3   OH210505   7.136   6.764   0.351 -0.1964 -0.3335  0.5990
 3514TIP3    H110506   7.089   6.723   0.424 -1.7299  1.9484  1.0196
 3514TIP3    H210507   7.211   6.807   0.392 -0.6704  0.3648  0.7497
 3515TIP3   OH210508   4.152   2.189   5.462 -0.6586 -0.4828  0.0842
 3515TIP3    H110509   4.108   2.244   5.528 -2.9027 -1.2161 -0.7070
 3515TIP3    H210510   4.178   2.110   5.511 -1.6036 -0.6872  0.2792
 3516TIP3   OH210511   2.387   1.798   5.739 -0.5292  0.1738  0.0454
 3516TIP3    H110512   2.411   1.879   5.694 -0.5755 -0.3122 -0.8982
 3516TIP3    H210513   2.298   1.778   5.707  0.4024 -1.5442 -1.7522
 3517TIP3   OH210514   3.797   1.847   4.850 -0.4726  0.2013 -0.4044
 3517TIP3    H110515   3.837   1.913   4.907  0.9104 -0.7251 -0.2491
 3517TIP3    H210516   3.855   1.843   4.774  0.0417 -1.5150  0.0401
 3518TIP3   OH210517   2.463   5.224   3.126  0.0246  0.4276  0.1117
 3518TIP3    H110518   2.473   5.168   3.049  0.8331  2.1732 -1.1136
 3518TIP3    H210519   2.425   5.305   3.092 -0.8761  0.7452  1.7970
 3519TIP3   OH210520   3.496   2.387   4.436  0.0373  0.5064  0.4401
 3519TIP3    H110521   3.489   2.304   4.483 -1.9003  0.4213  0.0756
 3519TIP3    H210522   3.454   2.451   4.494 -0.9799  0.6898 -0.4798
 3520TIP3   OH210523   1.706   4.574   2.415  0.5811 -1.1780  0.4727
 3520TIP3    H110524   1.622   4.542   2.450 -0.3348 -0.5575 -1.0766
 3520TIP3    H210525   1.691   4.667   2.400  1.4315 -1.1429 -0.1899
 3521TIP3   OH210526   5.742   5.708   5.521 -0.3587 -0.3286  0.4077
 3521TIP3    H110527   5.821   5.744   5.561 -1.0634  0.3734  1.2025
 3521TIP3    H210528   5.734   5.754   5.437 -0.6292  0.5795  0.9124
 3522TIP3   OH210529   3.228   5.611   1.864  0.1030 -0.4709 -0.1848
 3522TIP3    H110530   3.138   5.578   1.861  1.1364 -3.6224 -0.8891
 3522TIP3    H210531   3.228   5.676   1.934 -3.0120  0.7799 -1.2001
 3523TIP3   OH210532   2.828   1.566   0.887 -0.0930 -0.1346 -0.0720
 3523TIP3    H110533   2.883   1.642   0.866 -1.1148  0.3328 -1.1517
 3523TIP3    H210534   2.743   1.587   0.849 -0.0758 -2.3592 -1.5041
 3524TIP3   OH210535   2.838   0.442   5.334 -0.4964 -0.6721 -0.0029
 3524TIP3    H110536   2.779   0.458   5.260 -0.2655 -0.9873 -0.2558
 3524TIP3    H210537   2.830   0.520   5.388  0.1040  0.0035 -0.8747
 3525TIP3   OH210538   2.762   1.287   1.599  0.6872 -0.3153  0.2389
 3525TIP3    H110539   2.723   1.273   1.686  1.5771 -0.8141  0.5691
 3525TIP3    H210540   2.693   1.332   1.550  0.4755  0.7853  1.4676
 3526TIP3   OH210541   5.315   4.892   1.851  0.3271  0.3619  0.2538
 3526TIP3    H110542   5.232   4.897   1.898  1.0915  0.9264  1.6337
 3526TIP3    H210543   5.366   4.828   1.900  1.1295  0.9135  0.1707
 3527TIP3   OH210544   3.243   3.269   2.646  0.0317  0.3271  0.2422
 3527TIP3    H110545   3.259   3.307   2.733  1.2918 -1.0260  0.6449
 3527TIP3    H210546   3.252   3.343   2.586  0.2303  1.0851  1.1771
 3528TIP3   OH210547   1.669   5.843   1.318  0.4294 -0.1837  0.0289
 3528TIP3    H110548   1.600   5.781   1.293 -0.2054 -0.0830  1.3978
 3528TIP3    H210549   1.747   5.813   1.271 -0.7682  0.3524 -2.4509
 3529TIP3   OH210550   3.939   0.753   4.781  0.1891 -0.1930 -0.1471
 3529TIP3    H110551   3.930   0.707   4.864  1.1542  0.8645  0.5663
 3529TIP3    H210552   4.022   0.721   4.745  1.0260  1.1461  0.4985
 3530TIP3   OH210553   1.870   3.623   2.469 -0.3081  0.0802 -0.4228
 3530TIP3    H110554   1.875   3.635   2.375 -0.8067 -0.5188 -0.5329
 3530TIP3    H210555   1.792   3.569   2.482  0.5864 -1.1044  0.2104
 3531TIP3   OH210556   1.813   3.485   5.744  0.7956  0.2125 -0.2253
 3531TIP3    H110557   1.779   3.552   5.803  0.3256  0.2381 -0.5151
 3531TIP3    H210558   1.907   3.501   5.741  0.8544  0.0937  0.6563
 3532TIP3   OH210559   4.456   1.207   0.054 -0.3009  0.1370  0.2225
 3532TIP3    H110560   4.491   1.163   0.131 -1.1183 -0.4985  0.2410
 3532TIP3    H210561   4.375   1.159   0.033  0.6669 -0.6875 -1.9279
 3533TIP3   OH210562   0.436   2.311   1.231  0.0096 -0.1455  1.1545
 3533TIP3    H110563   0.411   2.221   1.250 -0.3749  0.0417  1.5517
 3533TIP3    H210564   0.512   2.303   1.173 -1.0577 -0.7311 -0.2256
 3534TIP3   OH210565   4.912   0.256   3.863 -0.3058 -0.0890  0.0132
 3534TIP3    H110566   4.925   0.348   3.842  0.3662 -0.8938 -4.1038
 3534TIP3    H210567   5.000   0.219   3.868 -0.5809 -0.6845  0.6825
 3535TIP3   OH210568   4.876   3.898   5.220 -0.3361  0.0371 -0.5151
 3535TIP3    H110569   4.892   3.891   5.314  1.1863 -0.1740 -0.7603
 3535TIP3    H210570   4.926   3.825   5.182 -1.1158 -0.0153 -1.4640
 3536TIP3   OH210571   5.134   2.159   5.329 -0.2371  0.1981 -0.8578
 3536TIP3    H110572   5.189   2.083   5.347  0.0815  0.8851  1.5318
 3536TIP3    H210573   5.072   2.129   5.263  1.4229 -1.3489 -1.8138
 3537TIP3   OH210574   4.835   5.338   3.680 -0.1868 -0.1453  0.3742
 3537TIP3    H110575   4.837   5.419   3.629 -0.3627 -0.0466  0.5229
 3537TIP3    H210576   4.897   5.280   3.636  1.2093  0.6459  1.2439
 3538TIP3   OH210577   6.242   0.150   0.737 -0.5914  0.5057 -0.5931
 3538TIP3    H110578   6.311   0.119   0.679 -0.3596 -0.1066  0.0037
 3538TIP3    H210579   6.225   0.239   0.708  2.1786  1.6172  0.7960
 3539TIP3   OH210580   2.724   4.183   1.158  0.3372 -0.1976 -0.1341
 3539TIP3    H110581   2.683   4.258   1.117 -0.4685 -1.0992 -1.0330
 3539TIP3    H210582   2.743   4.123   1.085 -0.4745 -1.5323  0.7117
 3540TIP3   OH210583   1.531   5.113   4.783 -0.2856  0.7913  0.4402
 3540TIP3    H110584   1.513   5.028   4.823 -0.5292  1.3580  1.5537
 3540TIP3    H210585   1.600   5.152   4.836 -0.4895  1.4867  0.2140
 3541TIP3   OH210586   0.433   4.455   0.768 -0.2503 -0.4438  0.1633
 3541TIP3    H110587   0.410   4.478   0.678  2.8705 -1.6103 -1.0969
 3541TIP3    H210588   0.389   4.372   0.784 -0.1601 -0.6495 -0.6345
 3542TIP3   OH210589   3.117   0.700   2.157  0.1508 -0.0425  0.1217
 3542TIP3    H110590   3.081   0.783   2.190  1.6234  0.4838  0.4850
 3542TIP3    H210591   3.166   0.664   2.231  0.1736 -0.8477 -0.2770
 3543TIP3   OH210592   1.901   2.371   3.900 -0.3345 -0.0782  0.0006
 3543TIP3    H110593   1.906   2.281   3.869 -1.2088  0.2005 -0.9931
 3543TIP3    H210594   1.842   2.366   3.976  0.7705 -0.5463  0.8693
 3544TIP3   OH210595   2.839   6.466   3.745 -0.0874 -0.3616  0.5085
 3544TIP3    H110596   2.825   6.423   3.829 -1.6729  0.2965  0.6213
 3544TIP3    H210597   2.757   6.452   3.697  1.2165 -1.8477 -1.4766
 3545TIP3   OH210598   0.367   0.080   4.640  0.1440 -0.1859  0.1682
 3545TIP3    H110599   0.324   0.161   4.665 -0.4070 -0.3718 -0.1730
 3545TIP3    H210600   0.446   0.108   4.593 -0.2807  0.1484 -0.3439
 3546TIP3   OH210601   2.648   3.708   4.314  0.8597  0.7596 -0.1339
 3546TIP3    H110602   2.671   3.792   4.276  0.0773  1.0374 -0.0158
 3546TIP3    H210603   2.643   3.724   4.408 -0.0291  0.7687 -0.1764
 3547TIP3   OH210604   0.320   1.942   3.336 -0.5417  0.2399  0.8038
 3547TIP3    H110605   0.297   1.850   3.325 -1.4155  0.5996 -0.7978
 3547TIP3    H210606   0.369   1.964   3.257 -0.1895  1.1118  1.2517
 3548TIP3   OH210607   4.721   1.711   0.559  0.1127  0.0031  0.3252
 3548TIP3    H110608   4.732   1.662   0.641 -1.6755  0.1436  0.6843
 3548TIP3    H210609   4.629   1.735   0.558  0.5436  1.7972 -0.7409
 3549TIP3   OH210610   7.124   4.149   5.809  0.0502 -0.2782 -0.2557
 3549TIP3    H110611   7.089   4.196   5.885  0.0988 -2.2281  1.0568
 3549TIP3    H210612   7.094   4.200   5.733 -0.1981  1.5994  1.0433
 3550TIP3   OH210613   0.154   4.238   0.503 -0.3645 -0.1657 -0.3955
 3550TIP3    H110614   0.197   4.180   0.440  0.7851 -1.1784  1.2483
 3550TIP3    H210615   0.069   4.197   0.520 -0.1657 -0.5627 -0.3548
 3551TIP3   OH210616   1.190   0.252   4.669  0.0099  0.8845 -0.1846
 3551TIP3    H110617   1.101   0.259   4.705  1.1307  2.0108  2.6107
 3551TIP3    H210618   1.201   0.333   4.619 -0.4826  0.7687 -0.4974
 3552TIP3   OH210619   1.760   0.713   1.639  0.0427 -0.3496  0.0636
 3552TIP3    H110620   1.668   0.705   1.667  0.2495  0.6964  1.1135
 3552TIP3    H210621   1.757   0.772   1.564 -0.4092 -2.4540 -1.6930
 3553TIP3   OH210622   0.918   1.237   4.507 -0.3577  0.3538 -0.1536
 3553TIP3    H110623   0.955   1.149   4.503 -4.3403 -1.4867 -0.3507
 3553TIP3    H210624   0.943   1.270   4.594  0.0170 -1.5483  0.4981
 3554TIP3   OH210625   4.065   2.922   4.427 -0.1691  0.2815 -0.1445
 3554TIP3    H110626   4.051   3.010   4.392 -1.3834  0.0430 -0.3071
 3554TIP3    H210627   4.047   2.864   4.353  0.0837 -0.1293  0.1126
 3555TIP3   OH210628   2.084   2.294   0.597 -0.1348 -0.0282 -0.5091
 3555TIP3    H110629   2.055   2.357   0.531 -1.0177 -1.0169 -1.0914
 3555TIP3    H210630   2.082   2.342   0.679 -2.7494  0.1857 -0.6236
 3556TIP3   OH210631   5.423   4.703   4.314 -0.3479 -0.3445  0.1984
 3556TIP3    H110632   5.483   4.738   4.379 -1.2654  0.9251  0.4082
 3556TIP3    H210633   5.465   4.624   4.282  2.5563  1.6158 -1.3017
 3557TIP3   OH210634   6.680   4.355   4.898 -0.1392  0.6753  0.2806
 3557TIP3    H110635   6.653   4.432   4.948  4.3711  3.1095 -0.5883
 3557TIP3    H210636   6.642   4.368   4.811  1.3294  2.5153 -0.1298
 3558TIP3   OH210637   5.505   1.026   3.762  0.2829  0.3009 -0.0865
 3558TIP3    H110638   5.506   1.044   3.668  0.4523  0.2022 -0.1042
 3558TIP3    H210639   5.413   1.038   3.788 -0.2443 -1.8804 -0.7115
 3559TIP3   OH210640   3.871   0.036   2.164  0.0532  0.1587 -0.0018
 3559TIP3    H110641   3.826  -0.040   2.201  2.0155 -1.4575 -0.7321
 3559TIP3    H210642   3.928   0.067   2.234  1.1879 -0.7266 -0.4995
 3560TIP3   OH210643   0.191   0.818   5.342 -0.1093 -0.0421  0.1391
 3560TIP3    H110644   0.258   0.885   5.343  1.4222 -1.4898 -0.6155
 3560TIP3    H210645   0.109   0.865   5.357  0.9971  1.8408  0.5221
 3561TIP3   OH210646   6.296   2.440   5.003  0.0931  0.4881  0.6636
 3561TIP3    H110647   6.212   2.418   5.045 -0.9088 -0.0181 -1.4979
 3561TIP3    H210648   6.279   2.433   4.909  3.0472 -1.4131  0.1344
 3562TIP3   OH210649   0.926   0.917   2.517  0.0278  0.0846 -0.9380
 3562TIP3    H110650   0.910   0.904   2.610 -0.0139  0.0585 -0.9489
 3562TIP3    H210651   0.964   0.834   2.488 -2.1848 -0.8143 -1.4647
 3563TIP3   OH210652   4.055   0.273   3.845  0.4213  0.1739 -0.1054
 3563TIP3    H110653   4.024   0.359   3.818  0.8050  1.4303  3.0922
 3563TIP3    H210654   3.977   0.229   3.879  0.7604  0.5387  1.2055
 3564TIP3   OH210655   3.761   0.952   4.328 -0.1498  0.6689  0.4878
 3564TIP3    H110656   3.776   1.032   4.279  0.7960  0.0790 -0.2035
 3564TIP3    H210657   3.846   0.909   4.332 -0.0026  0.9982  3.2444
 3565TIP3   OH210658   4.593   5.655   3.193  0.1589  0.5319  0.3280
 3565TIP3    H110659   4.527   5.682   3.129 -0.8857 -1.2883  0.5879
 3565TIP3    H210660   4.663   5.616   3.141  0.1387  0.6748  0.1918
 3566TIP3   OH210661   1.962   6.543   4.373  0.5195  0.0415  0.0974
 3566TIP3    H110662   2.044   6.506   4.340  0.9878  0.9890  0.1507
 3566TIP3    H210663   1.990   6.603   4.442 -0.0076  1.9796 -1.2811
 3567TIP3   OH210664   2.693   5.438   0.282  0.2019  0.4481  0.5354
 3567TIP3    H110665   2.641   5.518   0.275 -1.5869 -0.7514 -1.1325
 3567TIP3    H210666   2.761   5.447   0.216 -0.1288  0.5136  0.2021
 3568TIP3   OH210667   7.171   6.264   2.253 -0.1054 -0.1922  0.0970
 3568TIP3    H110668   7.148   6.228   2.167 -0.3949  0.9951 -0.3517
 3568TIP3    H210669   7.245   6.322   2.235 -0.6549  0.6599  0.5091
 3569TIP3   OH210670   1.705   2.439   3.054 -0.2736  0.2571 -0.0031
 3569TIP3    H110671   1.659   2.379   2.995  0.0133 -0.2177  0.2527
 3569TIP3    H210672   1.760   2.383   3.107  2.3592  0.9559 -1.7903
 3570TIP3   OH210673   4.883   6.106   0.790  0.0161 -0.2266 -0.0923
 3570TIP3    H110674   4.868   6.047   0.716  0.1324 -1.6617  1.0126
 3570TIP3    H210675   4.795   6.133   0.817 -0.2315 -2.0402  1.0763
 3571TIP3   OH210676   3.933   6.680   2.712 -0.6199 -0.4950 -0.4047
 3571TIP3    H110677   3.952   6.586   2.712 -0.5308 -0.5128 -2.0039
 3571TIP3    H210678   3.840   6.685   2.736 -0.3593 -0.8934  0.7680
 3572TIP3   OH210679   6.776   1.559   5.131  0.3219  0.0810  0.3997
 3572TIP3    H110680   6.856   1.610   5.123 -0.1464  0.6346 -1.0804
 3572TIP3    H210681   6.724   1.584   5.055 -1.7763  0.6093  1.9256
 3573TIP3   OH210682   0.524   3.625   0.773  0.3153  0.5204  0.2254
 3573TIP3    H110683   0.594   3.580   0.821 -0.3205  1.3950  2.0529
 3573TIP3    H210684   0.526   3.715   0.806 -0.6782  0.9673 -0.8429
 3574TIP3   OH210685   0.996   2.026   3.574  0.0093  0.2882 -0.0929
 3574TIP3    H110686   0.988   2.121   3.582  1.8401  0.3881  1.2301
 3574TIP3    H210687   1.091   2.010   3.571 -0.2131 -1.5734  1.0640
 3575TIP3   OH210688   0.720   3.487   1.856  0.1652 -0.1622  0.1871
 3575TIP3    H110689   0.641   3.435   1.840 -0.1755  0.1307  0.8427
 3575TIP3    H210690   0.789   3.423   1.868 -0.0130 -0.4293 -0.1954
 3576TIP3   OH210691   0.470   5.368   3.745 -0.9573  0.0729  0.2405
 3576TIP3    H110692   0.532   5.340   3.677 -2.1651 -1.0708 -0.4356
 3576TIP3    H210693   0.522   5.368   3.826  0.5933  1.7740 -0.6807
 3577TIP3   OH210694   0.359   5.352   4.387  0.1208  0.8466 -0.0215
 3577TIP3    H110695   0.325   5.300   4.460 -1.5379  4.1749  1.8167
 3577TIP3    H210696   0.319   5.313   4.309  1.4399 -2.4185  0.7478
 3578TIP3   OH210697   7.040   4.610   3.681 -0.0548  0.0361  0.0760
 3578TIP3    H110698   7.091   4.640   3.756 -0.6397 -4.2908  2.5406
 3578TIP3    H210699   6.961   4.665   3.682  0.6583  1.0946  1.6422
 3579TIP3   OH210700   6.101   0.599   4.441  0.2344 -0.0231  0.0217
 3579TIP3    H110701   6.173   0.658   4.418  0.1977 -0.0434 -0.1407
 3579TIP3    H210702   6.043   0.653   4.496  0.9526 -0.3324  1.1242
 3580TIP3   OH210703   4.469   6.493   3.217 -0.1549 -0.0939 -0.2198
 3580TIP3    H110704   4.507   6.578   3.239  1.3800 -0.0671 -2.6067
 3580TIP3    H210705   4.461   6.447   3.301  1.7299  1.3266  0.7970
 3581TIP3   OH210706   2.584   2.661   0.520  0.4426  0.0683 -0.1469
 3581TIP3    H110707   2.575   2.669   0.614  0.8452 -0.2788 -0.0712
 3581TIP3    H210708   2.495   2.662   0.486  0.2784 -0.2383  0.2778
 3582TIP3   OH210709   0.863   1.353   1.594  0.1321 -0.0432 -0.2182
 3582TIP3    H110710   0.795   1.406   1.637  1.1820  0.8349  0.4035
 3582TIP3    H210711   0.906   1.413   1.534  0.0637 -0.7205 -0.9558
 3583TIP3   OH210712   0.270   3.421   2.595 -0.6383  0.2687  0.0869
 3583TIP3    H110713   0.344   3.376   2.553 -0.6205 -0.2423  0.6655
 3583TIP3    H210714   0.229   3.470   2.523  0.0751  0.3163 -0.3016
 3584TIP3   OH210715   0.831   3.189   5.554  0.3814  0.0453 -0.0132
 3584TIP3    H110716   0.895   3.260   5.541 -0.8297  1.4663  1.3044
 3584TIP3    H210717   0.847   3.159   5.644  1.1141 -1.6694 -0.6695
 3585TIP3   OH210718   0.468   2.337   5.627  0.4166  0.0352  0.4376
 3585TIP3    H110719   0.386   2.325   5.675  1.1570 -0.0836  1.7204
 3585TIP3    H210720   0.510   2.411   5.671  0.5950  0.6855 -0.7913
 3586TIP3   OH210721   0.124   3.114   4.036  0.2593  0.0224 -0.0528
 3586TIP3    H110722   0.176   3.076   3.965  0.8991  0.9794 -0.1179
 3586TIP3    H210723   0.034   3.092   4.013  0.5649 -1.0162 -0.3344
 3587TIP3   OH210724   4.053   1.844   5.300  0.0449  0.0201  0.3179
 3587TIP3    H110725   3.991   1.897   5.350 -1.7396 -0.5535 -1.1462
 3587TIP3    H210726   4.105   1.907   5.250 -1.8318  0.4978 -1.1627
 3588TIP3   OH210727   5.986   4.902   2.741 -0.3025  0.7523 -0.0070
 3588TIP3    H110728   5.970   4.946   2.825  2.1433  1.4154  0.2063
 3588TIP3    H210729   6.025   4.970   2.686 -0.6007 -0.0380 -1.2399
 3589TIP3   OH210730   0.184   3.667   2.925  0.1745 -0.2979 -1.1501
 3589TIP3    H110731   0.144   3.684   3.011  1.1212 -1.0210 -0.5497
 3589TIP3    H210732   0.111   3.642   2.869 -0.2620 -1.4510 -0.1158
 3590TIP3   OH210733   2.017   2.648   3.220  0.2405 -0.0859 -0.1186
 3590TIP3    H110734   1.968   2.569   3.241  0.8956 -0.0406  1.7314
 3590TIP3    H210735   1.954   2.720   3.230  0.2598 -0.1692  0.6653
 3591TIP3   OH210736   5.872   3.705   2.164 -0.0497 -0.2249 -0.3265
 3591TIP3    H110737   5.959   3.704   2.204  0.5169 -1.1063 -1.4818
 3591TIP3    H210738   5.815   3.660   2.226 -0.4446  3.0147  1.8818
 3592TIP3   OH210739   1.789   1.807   5.622  0.0519 -0.0730  0.1916
 3592TIP3    H110740   1.754   1.729   5.579 -0.6767 -0.0690  0.7523
 3592TIP3    H210741   1.783   1.875   5.555  0.0286 -0.3323 -0.0756
 3593TIP3   OH210742   5.162   4.480   5.762  0.1893  0.8111 -0.0739
 3593TIP3    H110743   5.247   4.436   5.761  1.1965  2.6236 -1.3753
 3593TIP3    H210744   5.170   4.544   5.832 -0.7758 -0.1482  0.9409
 3594TIP3   OH210745   3.940   3.180   3.732  0.1930  0.2502 -0.5103
 3594TIP3    H110746   4.004   3.130   3.681  0.5145 -0.8752  0.9132
 3594TIP3    H210747   3.937   3.266   3.689  1.2486 -0.2871 -1.7335
 3595TIP3   OH210748   2.644   6.794   1.413  0.1151 -0.4780 -0.1419
 3595TIP3    H110749   2.582   6.722   1.400  0.8408 -1.4745  1.5354
 3595TIP3    H210750   2.629   6.822   1.504  0.5440  0.8370 -0.4504
 3596TIP3   OH210751   0.373   4.964   3.872 -0.1887 -0.2175 -0.2588
 3596TIP3    H110752   0.303   5.006   3.822 -1.0976 -0.5984  0.6763
 3596TIP3    H210753   0.452   5.010   3.845 -0.7985  0.2628 -1.2816
 3597TIP3   OH210754   0.397   0.670   2.858 -0.4536 -0.3908  0.7303
 3597TIP3    H110755   0.404   0.692   2.951  0.2754 -0.1703  0.6258
 3597TIP3    H210756   0.390   0.574   2.857 -2.0918 -0.3113  1.0928
 3598TIP3   OH210757   3.533   4.432   2.632 -0.3780  0.1904 -0.2690
 3598TIP3    H110758   3.556   4.514   2.590  1.9728 -0.3322 -0.1148
 3598TIP3    H210759   3.540   4.449   2.726  0.7066 -0.3251 -0.2471
 3599TIP3   OH210760   3.198   0.484   1.259 -0.4888  0.0040  0.4885
 3599TIP3    H110761   3.154   0.559   1.219  0.1896  1.8987  3.0650
 3599TIP3    H210762   3.130   0.438   1.308 -0.1866  1.3659  2.2543
 3600TIP3   OH210763   3.190   0.256   0.975 -0.2876  0.0082  1.0560
 3600TIP3    H110764   3.238   0.234   0.896 -1.5463 -1.1918  0.5921
 3600TIP3    H210765   3.155   0.343   0.959 -0.0051  0.0295  0.5522
 3601TIP3   OH210766   1.431   6.215   5.164 -0.4222 -0.4874  0.4496
 3601TIP3    H110767   1.523   6.234   5.176 -0.6331  1.4396 -0.6649
 3601TIP3    H210768   1.425   6.179   5.075 -0.7056 -0.9922  0.6662
 3602TIP3   OH210769   5.909   0.991   5.279 -0.0440  0.2117  0.0085
 3602TIP3    H110770   5.848   1.004   5.207 -0.6278 -0.7995  0.2978
 3602TIP3    H210771   5.875   0.914   5.326  1.3299 -0.2546  0.2970
 3603TIP3   OH210772   3.238   6.272   4.170 -0.5848 -0.3474  0.3264
 3603TIP3    H110773   3.246   6.225   4.253 -1.2442  0.8938  1.1229
 3603TIP3    H210774   3.163   6.232   4.126 -0.1769 -1.0701  0.2647
 3604TIP3   OH210775   1.677   5.199   4.464 -0.2196 -0.3713  0.3687
 3604TIP3    H110776   1.673   5.267   4.531  0.0896  0.3929 -0.3602
 3604TIP3    H210777   1.589   5.196   4.427 -0.3526 -0.6907  0.7149
 3605TIP3   OH210778   4.194   0.891   2.844 -0.5478 -0.1425  0.0579
 3605TIP3    H110779   4.288   0.905   2.827 -0.0476 -0.3096  2.3835
 3605TIP3    H210780   4.162   0.978   2.869 -1.3235  0.1595 -1.8505
 3606TIP3   OH210781   6.629   3.432   4.161  0.1331 -0.0964 -0.2863
 3606TIP3    H110782   6.682   3.354   4.146  0.6403  0.1136  0.3734
 3606TIP3    H210783   6.693   3.503   4.169 -0.3022  0.3229 -0.5069
 3607TIP3   OH210784   5.393   4.840   5.184 -0.7365 -0.1233 -0.2821
 3607TIP3    H110785   5.397   4.752   5.222 -1.3602 -0.6289 -1.3592
 3607TIP3    H210786   5.454   4.838   5.111 -1.5267  0.0119 -0.9582
 3608TIP3   OH210787   6.040   2.659   0.009 -0.4333  0.3968 -0.1121
 3608TIP3    H110788   6.033   2.708   0.091  0.4273  0.3690 -0.0212
 3608TIP3    H210789   5.982   2.705  -0.052 -0.7137  0.6917  0.3751
 3609TIP3   OH210790   1.355   4.638   1.951 -0.7724 -0.5903 -0.4447
 3609TIP3    H110791   1.275   4.677   1.985  0.0095  0.1181  0.6634
 3609TIP3    H210792   1.346   4.544   1.967 -0.3956 -0.2805  1.9228
 3610TIP3   OH210793   5.921   1.857   4.550 -0.2669  0.1363  0.7608
 3610TIP3    H110794   5.980   1.864   4.625  0.2516 -0.1866  0.3878
 3610TIP3    H210795   5.856   1.925   4.565  0.5381  0.9025  0.8838
 3611TIP3   OH210796   1.068   5.317   5.627 -0.4910 -0.0496  0.4616
 3611TIP3    H110797   0.984   5.363   5.628  1.0675  3.0438 -0.3672
 3611TIP3    H210798   1.105   5.334   5.714  0.7582  1.6383 -0.3739
 3612TIP3   OH210799   4.027   0.185   3.590 -0.1186 -0.2940  0.0154
 3612TIP3    H110800   4.048   0.227   3.674 -2.4138 -0.8365  0.9217
 3612TIP3    H210801   4.098   0.121   3.578  1.6728  1.5649  0.1991
 3613TIP3   OH210802   3.757   2.087   0.920  0.1840 -0.4387 -0.3271
 3613TIP3    H110803   3.675   2.037   0.920 -0.4491  0.5574  0.8962
 3613TIP3    H210804   3.820   2.028   0.963  0.3078 -1.4542 -1.8201
 3614TIP3   OH210805   1.010   3.260   0.130  0.3496 -0.1031 -0.3591
 3614TIP3    H110806   1.058   3.206   0.193  0.8200  0.9598  0.2246
 3614TIP3    H210807   1.078   3.305   0.080  0.0056  1.2086  0.2951
 3615TIP3   OH210808   2.999   6.456   1.267  0.1464 -0.1922  0.0868
 3615TIP3    H110809   3.092   6.439   1.286  0.7115  1.6129 -0.8398
 3615TIP3    H210810   2.988   6.549   1.287 -1.6674 -0.5394  0.8628
 3616TIP3   OH210811   2.600   2.455   0.022  0.3032 -0.0339 -0.4039
 3616TIP3    H110812   2.608   2.387   0.089 -1.4832 -0.7096 -0.8397
 3616TIP3    H210813   2.683   2.451  -0.026  0.6500 -1.1584  0.2560
 3617TIP3   OH210814   3.607   3.380   1.472 -0.3336 -0.0370 -0.0203
 3617TIP3    H110815   3.642   3.355   1.387  2.1947  1.2530  0.5423
 3617TIP3    H210816   3.547   3.452   1.453 -1.4923 -1.1876 -0.8683
 3618TIP3   OH210817   5.651   3.779   5.197  0.4091  0.2840  0.4046
 3618TIP3    H110818   5.738   3.741   5.185  1.1942  1.7032  1.3190
 3618TIP3    H210819   5.593   3.720   5.149  1.7977 -0.9661  0.1613
 3619TIP3   OH210820   6.635   1.755   2.898 -0.2118 -0.4096 -0.0000
 3619TIP3    H110821   6.631   1.829   2.838 -0.0274 -1.8669 -1.9025
 3619TIP3    H210822   6.694   1.692   2.856  0.7896 -1.0820  2.2414
 3620TIP3   OH210823   3.740   6.782   2.508  0.3713 -0.3087 -0.2175
 3620TIP3    H110824   3.749   6.839   2.431  0.4143 -1.5031 -1.1157
 3620TIP3    H210825   3.736   6.694   2.473 -1.3094 -0.7863  1.0381
 3621TIP3   OH210826   1.133   3.414   2.734 -0.8807 -0.2918 -0.3268
 3621TIP3    H110827   1.045   3.394   2.701 -0.2360 -1.8799 -1.1634
 3621TIP3    H210828   1.155   3.342   2.792  0.9505 -1.4506 -2.3177
 3622TIP3   OH210829   0.654   2.303   1.056  0.2834 -0.5941  0.2502
 3622TIP3    H110830   0.701   2.237   1.107  2.7377 -0.3839 -1.5272
 3622TIP3    H210831   0.673   2.279   0.965 -1.7674  0.5211 -0.5186
 3623TIP3   OH210832   0.249   0.368   4.994 -0.3400 -0.0303  0.6748
 3623TIP3    H110833   0.291   0.402   5.073 -0.0484  2.2185 -0.3614
 3623TIP3    H210834   0.315   0.311   4.954  1.0585  1.8585  0.1223
 3624TIP3   OH210835   3.531   1.737   2.015 -0.2362 -0.3684 -0.5437
 3624TIP3    H110836   3.572   1.656   2.045 -0.3140  0.0302  0.7042
 3624TIP3    H210837   3.604   1.799   2.007 -0.0316 -0.7813 -2.4321
 3625TIP3   OH210838   7.005   0.934   1.755 -0.2763 -0.0425 -0.1478
 3625TIP3    H110839   7.042   0.856   1.713  1.5674 -0.0251  1.3357
 3625TIP3    H210840   6.973   0.903   1.840  1.9985  1.0199  1.1973
 3626TIP3   OH210841   1.497   5.216   5.851  0.3472  0.0542  0.1241
 3626TIP3    H110842   1.573   5.161   5.869  0.2748 -0.5391 -1.2050
 3626TIP3    H210843   1.516   5.299   5.894  2.4409  0.4320 -1.3544
 3627TIP3   OH210844   2.628   1.028   3.935 -0.0459 -0.3630  0.1551
 3627TIP3    H110845   2.661   1.104   3.888  0.1167 -0.4051  0.1993
 3627TIP3    H210846   2.557   1.062   3.989 -0.3966 -0.3607 -0.3041
 3628TIP3   OH210847   5.365   5.666   0.641  0.1013  0.6044  0.1840
 3628TIP3    H110848   5.420   5.744   0.630  2.0707 -0.7627 -0.4033
 3628TIP3    H210849   5.332   5.648   0.553  0.0253  0.5334  0.2273
 3629TIP3   OH210850   7.106   0.174   5.521  0.2375  0.3283  0.3557
 3629TIP3    H110851   7.050   0.206   5.451  1.0792 -0.6611 -0.8058
 3629TIP3    H210852   7.184   0.230   5.518  0.3701  0.1451  0.3665
 3630TIP3   OH210853   0.077   1.642   4.128  0.3874 -0.7903  0.3815
 3630TIP3    H110854   0.169   1.617   4.134  1.0221  1.3920  0.2639
 3630TIP3    H210855   0.072   1.700   4.052 -0.7532  0.4186  1.3306
 3631TIP3   OH210856   1.326   2.362   3.276  0.0567 -0.3244 -0.1601
 3631TIP3    H110857   1.253   2.330   3.223 -2.5816 -0.4443  3.1730
 3631TIP3    H210858   1.300   2.451   3.302 -0.6729 -1.4462  3.6536
 3632TIP3   OH210859   5.041   0.348   3.130 -0.3075 -0.4047 -0.6844
 3632TIP3    H110860   5.070   0.372   3.218 -1.0695 -0.9383 -0.2763
 3632TIP3    H210861   4.989   0.268   3.143  1.7418 -2.0251 -1.9310
 3633TIP3   OH210862   7.123   1.749   1.234  0.4227 -0.4544 -0.7321
 3633TIP3    H110863   7.183   1.797   1.177  0.7369  2.0627  1.5062
 3633TIP3    H210864   7.042   1.745   1.184  1.3625 -0.5406 -2.3142
 3634TIP3   OH210865   2.448   4.526   0.322 -0.2831 -0.0826 -0.2822
 3634TIP3    H110866   2.526   4.578   0.299 -0.3125 -0.0306 -0.2645
 3634TIP3    H210867   2.447   4.455   0.258 -1.0129  0.7056 -1.1686
 3635TIP3   OH210868   6.875   5.108   5.035 -0.1804 -0.0900  0.0493
 3635TIP3    H110869   6.799   5.115   5.092  0.0849  1.7768  0.2401
 3635TIP3    H210870   6.841   5.069   4.954 -0.7248 -1.9765  1.1245
 3636TIP3   OH210871   2.487   4.043   5.857 -0.2103  0.1046 -0.0865
 3636TIP3    H110872   2.575   4.006   5.845 -0.9423 -1.9454  0.5394
 3636TIP3    H210873   2.503   4.130   5.894  1.5955 -1.5510  3.5648
 3637TIP3   OH210874   3.095   6.057   3.555 -0.1184  0.4520  0.6069
 3637TIP3    H110875   3.015   6.020   3.518  1.5391 -2.7222 -0.1965
 3637TIP3    H210876   3.142   6.092   3.479  0.3252  0.0610  0.6987
 3638TIP3   OH210877   6.265   3.405   0.159  0.5092 -0.4493  0.3472
 3638TIP3    H110878   6.311   3.378   0.079 -1.8049 -1.6614 -0.6635
 3638TIP3    H210879   6.222   3.487   0.136 -0.2363 -0.8474  0.2888
 3639TIP3   OH210880   5.057   2.973   3.427 -0.2368 -0.0830  1.1982
 3639TIP3    H110881   5.021   2.891   3.392  0.5845 -0.3813  1.0346
 3639TIP3    H210882   5.046   3.036   3.356 -2.2817  0.3865  1.8462
 3640TIP3   OH210883   4.328   3.151   0.412  0.0002  0.4036 -0.8847
 3640TIP3    H110884   4.389   3.139   0.485  0.8770  2.4672 -1.2034
 3640TIP3    H210885   4.333   3.069   0.362 -0.2317 -0.8507  1.0422
 3641TIP3   OH210886   1.247   1.337   3.041 -0.2671 -0.1603 -0.0024
 3641TIP3    H110887   1.325   1.375   3.082 -0.0222  0.5391 -1.0652
 3641TIP3    H210888   1.279   1.256   3.000 -0.3839 -0.5457  0.6585
 3642TIP3   OH210889   4.665   4.011   0.264 -0.0207  0.2863 -0.1629
 3642TIP3    H110890   4.600   3.952   0.226  0.8830 -0.7817 -0.1083
 3642TIP3    H210891   4.656   4.092   0.214 -1.0270 -0.0109 -0.4980
 3643TIP3   OH210892   0.626   2.405   2.068 -0.3903  0.1599 -0.4918
 3643TIP3    H110893   0.689   2.459   2.115 -0.9146 -0.3165  0.8139
 3643TIP3    H210894   0.628   2.321   2.114 -1.0466 -0.2710 -1.2317
 3644TIP3   OH210895   6.598   2.571   5.263  0.2172 -0.2873  0.2098
 3644TIP3    H110896   6.596   2.485   5.221 -0.2591 -0.1684 -0.0198
 3644TIP3    H210897   6.585   2.553   5.356 -0.4051 -0.4292  0.0995
 3645TIP3   OH210898   4.173   2.117   4.549  0.4777  0.0923 -0.1240
 3645TIP3    H110899   4.163   2.028   4.515  0.1143  0.0662  0.0464
 3645TIP3    H210900   4.122   2.171   4.488 -1.5081 -0.1473  1.2348
 3646TIP3   OH210901   2.034   3.764   0.430 -0.6544  0.2864  0.1469
 3646TIP3    H110902   2.103   3.829   0.417  0.0563 -0.8047 -2.0196
 3646TIP3    H210903   2.058   3.720   0.512 -0.0923  1.4526  0.6299
 3647TIP3   OH210904   3.198   2.812   2.311 -0.0117  0.1032 -0.1542
 3647TIP3    H110905   3.223   2.883   2.369  0.9740  1.2906 -1.9527
 3647TIP3    H210906   3.120   2.844   2.266  1.0881  0.5794 -1.8013
 3648TIP3   OH210907   0.071   0.630   5.529  0.0158  0.2032 -0.0642
 3648TIP3    H110908  -0.007   0.675   5.561 -1.1528  1.3048 -3.9299
 3648TIP3    H210909   0.105   0.687   5.460  1.5332 -2.4018 -1.6295
 3649TIP3   OH210910   1.828   4.823   5.285 -0.4047 -0.2308  0.2801
 3649TIP3    H110911   1.767   4.767   5.334 -0.5554  0.8525  1.3699
 3649TIP3    H210912   1.797   4.912   5.301  0.7473  0.2631 -0.1418
 3650TIP3   OH210913   4.963   0.337   0.705 -0.0465 -0.4770  0.0481
 3650TIP3    H110914   5.052   0.351   0.675 -1.1180  0.4438 -3.0896
 3650TIP3    H210915   4.938   0.421   0.744  0.4004 -0.6990  0.8257
 3651TIP3   OH210916   0.642   3.361   2.173 -0.3563  0.0471  0.1204
 3651TIP3    H110917   0.622   3.295   2.106 -0.3778 -0.6941  0.8462
 3651TIP3    H210918   0.721   3.404   2.141 -1.1369  0.6841 -1.0801
 3652TIP3   OH210919   2.662   2.763   0.796  0.4058  0.1234 -0.4217
 3652TIP3    H110920   2.692   2.693   0.854  1.6574  0.8978 -0.0895
 3652TIP3    H210921   2.570   2.774   0.817  0.2200 -1.3076 -0.3782
 3653TIP3   OH210922   2.996   5.288   4.423  0.1812 -0.0394 -0.1079
 3653TIP3    H110923   2.924   5.230   4.449 -0.2234  0.2817 -0.5073
 3653TIP3    H210924   3.074   5.233   4.429 -0.3128 -0.9465 -1.4807
 3654TIP3   OH210925   3.650   2.577   4.685  0.1161  0.0180 -0.1085
 3654TIP3    H110926   3.556   2.598   4.689 -0.3981 -2.0439 -0.3483
 3654TIP3    H210927   3.675   2.600   4.596 -0.1062  0.7389  0.0051
 3655TIP3   OH210928   2.295   1.657   2.888 -0.1991 -0.3286 -0.0447
 3655TIP3    H110929   2.356   1.591   2.856  0.8469  1.1735 -1.3396
 3655TIP3    H210930   2.247   1.614   2.958  0.7853 -2.2770 -0.5036
 3656TIP3   OH210931   6.993   0.197   4.569  0.1253 -0.0358  0.5336
 3656TIP3    H110932   6.964   0.257   4.638 -2.2464 -0.2630 -0.1708
 3656TIP3    H210933   6.926   0.128   4.567 -0.2033  0.2293 -2.2910
 3657TIP3   OH210934   6.802   5.027   4.452 -0.4162  0.3504  0.3908
 3657TIP3    H110935   6.759   4.960   4.504 -0.3234  0.8532  1.1317
 3657TIP3    H210936   6.731   5.084   4.422 -0.2379  1.8065  2.5091
 3658TIP3   OH210937   1.468   0.120   2.196 -0.4774  0.2951 -0.2452
 3658TIP3    H110938   1.533   0.059   2.232 -1.0033 -0.0192  0.1914
 3658TIP3    H210939   1.464   0.191   2.260 -2.4768 -0.9608  1.1506
 3659TIP3   OH210940   6.698   3.735   2.043  0.4259  0.4299 -0.4208
 3659TIP3    H110941   6.780   3.763   2.082  0.4206 -1.7892  1.3667
 3659TIP3    H210942   6.633   3.797   2.077  0.5357 -1.0095  2.7568
 3660TIP3   OH210943   4.463   6.439   4.315 -0.3347 -0.4747  0.7337
 3660TIP3    H110944   4.371   6.466   4.310 -0.5410 -1.2094  0.3610
 3660TIP3    H210945   4.508   6.495   4.253 -0.5574 -0.2168  0.8018
 3661TIP3   OH210946   6.597   0.927   0.144 -0.3411 -0.2920 -0.0779
 3661TIP3    H110947   6.674   0.870   0.142 -0.0644  0.1001 -1.8817
 3661TIP3    H210948   6.523   0.867   0.152 -0.0303 -0.9283 -1.5682
 3662TIP3   OH210949   2.675   2.537   5.364  0.1483  0.0942  0.4707
 3662TIP3    H110950   2.716   2.584   5.437 -0.9742 -2.9032  3.2778
 3662TIP3    H210951   2.583   2.532   5.387  0.1790 -3.2934  0.3852
 3663TIP3   OH210952   5.342   3.420   3.066 -0.3907  0.0801 -0.2118
 3663TIP3    H110953   5.407   3.354   3.088 -0.0081  0.8336  1.0183
 3663TIP3    H210954   5.289   3.428   3.145 -0.8110  0.8124 -0.5601
 3664TIP3   OH210955   3.160   6.526   2.873  0.6574 -0.2102 -0.5596
 3664TIP3    H110956   3.212   6.581   2.931  0.0625  0.8196 -0.9902
 3664TIP3    H210957   3.086   6.497   2.927  0.1787  0.6324 -0.7454
 3665TIP3   OH210958   1.152   2.593   2.122 -0.1178 -0.2172  0.7536
 3665TIP3    H110959   1.127   2.554   2.206 -0.6687 -1.2863  0.1114
 3665TIP3    H210960   1.173   2.519   2.066 -0.3743  0.4488 -0.2497
 3666TIP3   OH210961   0.984   4.585   2.736 -0.2767 -0.4506  0.3818
 3666TIP3    H110962   0.901   4.571   2.783 -0.1561 -1.6271  0.2520
 3666TIP3    H210963   0.995   4.507   2.682  0.1245  0.4133 -0.8317
 3667TIP3   OH210964   5.440   0.463   4.891  0.0965 -0.3042  0.1243
 3667TIP3    H110965   5.415   0.476   4.799 -0.5322 -0.6051  0.2498
 3667TIP3    H210966   5.359   0.480   4.940  0.7888  1.4105  0.7507
 3668TIP3   OH210967   4.285   1.579   1.495 -0.1727 -0.1222  0.1103
 3668TIP3    H110968   4.196   1.613   1.509 -0.0848 -0.3309  1.2919
 3668TIP3    H210969   4.332   1.651   1.452 -1.2017 -0.4190 -1.6340
 3669TIP3   OH210970   7.021   2.909   0.103  0.0830  0.0516 -0.4675
 3669TIP3    H110971   7.060   2.912   0.191  0.5802 -0.2673 -0.6715
 3669TIP3    H210972   6.940   2.860   0.114 -0.4495  1.0001  0.0274
 3670TIP3   OH210973   3.204   4.692   2.161  0.4882 -0.6243  0.3944
 3670TIP3    H110974   3.160   4.615   2.196 -1.7126 -0.2064 -1.2678
 3670TIP3    H210975   3.211   4.677   2.067  2.9170 -0.1312  0.4328
 3671TIP3   OH210976   4.165   0.583   4.666 -0.4637  0.4959 -0.3242
 3671TIP3    H110977   4.248   0.599   4.709 -0.0580 -3.1564  0.5874
 3671TIP3    H210978   4.184   0.594   4.572  0.4014  1.8907 -0.0093
 3672TIP3   OH210979   3.412   5.906   3.053 -0.7212  0.3432 -1.0830
 3672TIP3    H110980   3.382   5.837   2.994  0.1368 -1.0063 -0.0373
 3672TIP3    H210981   3.375   5.882   3.138 -1.6192  2.0257 -0.9635
 3673TIP3   OH210982   6.928   5.735   5.875  0.0324 -0.3273 -0.4361
 3673TIP3    H110983   6.892   5.666   5.819  0.7318 -0.1449 -1.1429
 3673TIP3    H210984   6.951   5.805   5.813 -3.9220  2.1320  0.4846
 3674TIP3   OH210985   5.601   1.580   3.437  0.2102  0.0528 -0.2541
 3674TIP3    H110986   5.648   1.497   3.447  1.6623  0.9458  0.6260
 3674TIP3    H210987   5.508   1.555   3.438  0.6083 -1.6389 -0.9030
 3675TIP3   OH210988   3.771   5.543   4.616 -0.4518 -0.4011  0.4050
 3675TIP3    H110989   3.834   5.505   4.677 -0.4197  0.9136  1.2393
 3675TIP3    H210990   3.705   5.475   4.603  0.7259 -1.5194  0.1087
 3676TIP3   OH210991   0.536   3.990   2.182  0.1371 -0.1474  0.6034
 3676TIP3    H110992   0.479   4.015   2.254 -0.4355 -0.3001  0.2045
 3676TIP3    H210993   0.485   4.006   2.103  0.2240 -1.3251  0.2810
 3677TIP3   OH210994   3.590   3.672   3.183  0.6732  0.0725 -0.6283
 3677TIP3    H110995   3.587   3.693   3.089  1.1445  0.0844 -0.6403
 3677TIP3    H210996   3.653   3.734   3.220  2.7158 -1.7815 -0.7860
 3678TIP3   OH210997   1.757   6.528   5.565 -0.2304 -0.3689 -0.0891
 3678TIP3    H110998   1.827   6.561   5.508 -0.3183  1.7451  0.9006
 3678TIP3    H210999   1.803   6.496   5.642 -0.2820  1.8401  0.9529
 3679TIP3   OH211000   6.788   1.635   5.854 -0.2308 -0.0184  0.0111
 3679TIP3    H111001   6.807   1.564   5.916  0.9254 -0.6506 -1.0157
 3679TIP3    H211002   6.786   1.591   5.768 -1.5744  0.8690 -0.4522
 3680TIP3   OH211003   4.548   2.237   2.578  0.3624  0.3426 -0.1211
 3680TIP3    H111004   4.491   2.252   2.502 -0.9617 -0.0231  0.7574
 3680TIP3    H211005   4.531   2.146   2.604 -1.3734  1.2222  2.2539
 3681TIP3   OH211006   2.652   0.672   3.480 -0.1632  0.4557 -0.1262
 3681TIP3    H111007   2.728   0.729   3.485 -0.5808  1.1046 -0.9508
 3681TIP3    H211008   2.647   0.645   3.389 -0.9868  0.5262 -0.1132
 3682TIP3   OH211009   2.189   3.978   3.058  0.0686  0.3032 -0.3528
 3682TIP3    H111010   2.198   3.977   3.153  2.8330  0.7252 -0.5315
 3682TIP3    H211011   2.124   3.910   3.039  1.7739 -2.1055  1.7145
 3683TIP3   OH211012   3.046   5.994   3.157  0.4500 -0.2389  0.4302
 3683TIP3    H111013   3.093   5.911   3.143  1.7343  0.3279  1.1381
 3683TIP3    H211014   2.954   5.970   3.158  0.8026 -1.6836  0.7037
 3684TIP3   OH211015   5.127   6.166   4.693  0.2365  0.1966  0.4708
 3684TIP3    H111016   5.149   6.258   4.706  0.2398  0.5932 -1.9503
 3684TIP3    H211017   5.207   6.118   4.718  1.5374  1.1438 -1.5890
 3685TIP3   OH211018   2.839   6.229   1.985 -0.0211 -0.1369  0.4561
 3685TIP3    H111019   2.801   6.185   2.061  1.1767  0.3995  1.3912
 3685TIP3    H211020   2.844   6.321   2.010 -1.6538  0.4482 -1.1365
 3686TIP3   OH211021   1.756   4.938   2.412  0.2490 -0.4210  0.4310
 3686TIP3    H111022   1.793   4.910   2.496 -2.7906 -0.7533  1.8103
 3686TIP3    H211023   1.749   5.033   2.420 -0.9416 -0.5451  0.9971
 3687TIP3   OH211024   3.483   1.560   5.470  0.3469  0.1854  0.1391
 3687TIP3    H111025   3.498   1.635   5.529 -2.6616  0.3008  0.8885
 3687TIP3    H211026   3.392   1.535   5.485  0.5398 -2.1045 -1.9050
 3688TIP3   OH211027   1.536   1.172   4.140 -0.0740  0.0107 -0.2752
 3688TIP3    H111028   1.487   1.229   4.200 -0.8150 -0.1686 -0.6946
 3688TIP3    H211029   1.503   1.195   4.053 -0.0470 -0.7371 -0.4858
 3689TIP3   OH211030   6.572   2.456   4.343 -0.1795  0.0547  0.0977
 3689TIP3    H111031   6.498   2.462   4.283 -1.6891  1.0905  1.9259
 3689TIP3    H211032   6.576   2.543   4.385  1.5814 -0.2352  0.6020
 3690TIP3   OH211033   4.777   4.682   2.727 -0.0774 -0.1211 -0.1134
 3690TIP3    H111034   4.729   4.650   2.803  0.4966 -0.5584  0.0769
 3690TIP3    H211035   4.744   4.632   2.653 -0.1023 -0.2366 -0.0240
 3691TIP3   OH211036   0.284   1.721   5.103 -0.4550  0.4123 -0.5887
 3691TIP3    H111037   0.190   1.740   5.106 -0.5620 -0.1700  0.2466
 3691TIP3    H211038   0.326   1.807   5.092 -1.0491  0.7649 -0.1385
 3692TIP3   OH211039   1.606   6.751   5.803 -0.0735 -0.3093 -0.2853
 3692TIP3    H111040   1.606   6.656   5.790  0.4310 -0.6721  1.8339
 3692TIP3    H211041   1.524   6.781   5.765 -0.8459 -1.7902  0.1272
 3693TIP3   OH211042   3.124   3.877   4.867 -0.2534 -0.1043  0.3520
 3693TIP3    H111043   3.130   3.972   4.882 -0.5366 -0.2081  1.2000
 3693TIP3    H211044   3.033   3.864   4.840 -0.3230 -0.1770  0.6168
 3694TIP3   OH211045   6.439   2.242   1.927 -0.6377  0.5570  0.3530
 3694TIP3    H111046   6.409   2.325   1.891 -1.1146  0.8655  1.4136
 3694TIP3    H211047   6.394   2.176   1.875 -1.3314  0.9888  0.3944
 3695TIP3   OH211048   6.662   1.601   0.245 -0.0897 -0.0724  0.1097
 3695TIP3    H111049   6.580   1.647   0.264  0.5733  0.6556  1.3341
 3695TIP3    H211050   6.728   1.645   0.298  1.0480 -0.8811 -0.5619
 3696TIP3   OH211051   4.609   0.853   4.627 -0.6790  0.2473  0.4469
 3696TIP3    H111052   4.689   0.810   4.658  0.3357 -0.6673 -2.9838
 3696TIP3    H211053   4.635   0.945   4.617 -0.8214  0.4211  1.5141
 3697TIP3   OH211054   2.888   1.587   2.011  0.2923  0.1610  0.0150
 3697TIP3    H111055   2.868   1.534   1.934  2.1033 -0.0002 -0.4034
 3697TIP3    H211056   2.955   1.649   1.981 -0.2449  1.2791  1.0325
 3698TIP3   OH211057   2.374   1.625   3.949  0.3093 -0.1224 -0.3493
 3698TIP3    H111058   2.314   1.698   3.962  0.5155 -0.0753  0.4243
 3698TIP3    H211059   2.326   1.548   3.978  0.4723 -0.1399 -0.1181
 3699TIP3   OH211060   6.640   5.785   3.096  0.3849 -0.1284  0.4715
 3699TIP3    H111061   6.566   5.726   3.109  2.2587 -2.7275  0.2697
 3699TIP3    H211062   6.619   5.834   3.017 -1.1835 -0.6302  0.5561
 3700TIP3   OH211063   2.813   4.738   3.829  0.2024 -0.4556  0.1108
 3700TIP3    H111064   2.817   4.663   3.769 -1.5663 -0.4567 -0.0678
 3700TIP3    H211065   2.828   4.814   3.773  0.0733 -0.5562 -0.0626
 3701TIP3   OH211066   2.198   3.246   5.800 -0.7128 -0.4331  0.5536
 3701TIP3    H111067   2.247   3.302   5.739 -2.3311  0.9585  0.4665
 3701TIP3    H211068   2.242   3.258   5.884 -0.1460 -0.2187  0.2386
 3702TIP3   OH211069   0.065   2.110   3.852 -0.2478  0.3954 -0.2053
 3702TIP3    H111070   0.121   2.074   3.783  2.2650  3.5591 -0.0829
 3702TIP3    H211071  -0.004   2.156   3.806 -0.5628 -0.3343 -0.4771
 3703TIP3   OH211072   2.711   5.140   5.246 -0.3445 -0.1914 -0.2546
 3703TIP3    H111073   2.630   5.190   5.241 -0.3294 -0.1042  0.3292
 3703TIP3    H211074   2.688   5.053   5.212 -0.3891  0.1816 -1.1867
 3704TIP3   OH211075   4.321   2.900   1.661  0.0461 -0.2109  0.2624
 3704TIP3    H111076   4.282   2.863   1.582  2.1183 -2.6315  0.2609
 3704TIP3    H211077   4.325   2.994   1.644 -1.1060 -0.4785 -1.7809
 3705TIP3   OH211078   6.011   5.811   5.528  0.0305  0.0294  0.1509
 3705TIP3    H111079   6.062   5.814   5.447  0.5417 -1.4309  0.3787
 3705TIP3    H211080   6.071   5.774   5.593 -0.4322  0.9889  1.1583
 3706TIP3   OH211081   6.870   4.750   1.202  0.2006 -0.0092 -0.0159
 3706TIP3    H111082   6.802   4.694   1.240 -0.4407 -1.0995 -2.5960
 3706TIP3    H211083   6.869   4.829   1.257 -2.0655 -0.6334  0.9671
 3707TIP3   OH211084   0.624   2.741   2.162 -0.3017 -0.4581  0.7500
 3707TIP3    H111085   0.644   2.651   2.185  1.1934 -0.2263  0.4451
 3707TIP3    H211086   0.700   2.791   2.192 -0.5014  0.5065 -0.2815
 3708TIP3   OH211087   4.506   1.614   0.286 -0.2363 -0.4306 -0.3612
 3708TIP3    H111088   4.423   1.588   0.245 -0.4913 -0.4368  0.1436
 3708TIP3    H211089   4.549   1.531   0.307 -1.0276 -0.4860  1.2050
 3709TIP3   OH211090   7.135   5.975   5.052  0.4327  0.2097 -0.2143
 3709TIP3    H111091   7.211   5.927   5.083 -0.0969  0.5385  1.7856
 3709TIP3    H211092   7.060   5.924   5.083 -0.1387  1.2984  0.2730
 3710TIP3   OH211093   0.742   3.353   0.500 -0.0388 -0.0380  0.2692
 3710TIP3    H111094   0.708   3.270   0.533 -0.0100  0.1227  0.7080
 3710TIP3    H211095   0.667   3.413   0.503 -0.9969 -0.8655 -3.1389
 3711TIP3   OH211096   5.279   5.743   3.212  0.1988 -0.5279 -0.0641
 3711TIP3    H111097   5.266   5.801   3.288  2.1212  1.2908 -1.0250
 3711TIP3    H211098   5.277   5.655   3.249 -0.3855  0.2360  1.8588
 3712TIP3   OH211099   1.432   3.086   4.623  1.0567  0.6151  0.1037
 3712TIP3    H111100   1.494   3.064   4.553  0.1510  0.3300 -0.6308
 3712TIP3    H211101   1.479   3.067   4.704  1.3297 -1.3516 -0.4572
 3713TIP3   OH211102   3.184   2.456   1.015 -0.6344 -0.3453 -0.3114
 3713TIP3    H111103   3.164   2.438   1.106 -1.5107  2.6512  0.1994
 3713TIP3    H211104   3.111   2.417   0.966 -0.2222 -1.8505  0.2106
 3714TIP3   OH211105   2.057   6.171   2.636  0.4072  0.0235 -0.0238
 3714TIP3    H111106   2.051   6.143   2.545 -1.7391 -1.9441  0.6103
 3714TIP3    H211107   2.102   6.256   2.632 -0.1589  0.3112 -2.9549
 3715TIP3   OH211108   4.189   1.117   1.202 -0.2595 -0.1891  0.4661
 3715TIP3    H111109   4.233   1.103   1.286 -1.8541 -1.5251  1.1446
 3715TIP3    H211110   4.155   1.207   1.208 -1.5617 -0.7342  1.8942
 3716TIP3   OH211111   4.680   4.670   1.738 -0.4447  0.1398  0.0492
 3716TIP3    H111112   4.744   4.732   1.772  0.1081 -0.3814 -0.0330
 3716TIP3    H211113   4.600   4.689   1.789 -0.7819  1.9838 -1.0632
 3717TIP3   OH211114   3.823   0.223   5.319 -0.3179 -0.5338 -0.0090
 3717TIP3    H111115   3.895   0.215   5.255 -0.7894 -0.6202 -0.5335
 3717TIP3    H211116   3.760   0.157   5.293 -1.3017  0.5500 -0.4979
 3718TIP3   OH211117   2.002   2.054   2.037 -0.0926 -0.7970 -0.5261
 3718TIP3    H111118   2.067   1.995   2.076 -1.0662 -2.2977 -1.0815
 3718TIP3    H211119   1.920   2.005   2.041 -0.9058  0.4622 -1.2060
 3719TIP3   OH211120   3.722   3.126   5.798  0.0106  0.1575  0.1607
 3719TIP3    H111121   3.665   3.202   5.794  0.2850  0.3395 -0.5003
 3719TIP3    H211122   3.788   3.148   5.864  1.2308  1.3312 -1.3520
 3720TIP3   OH211123   6.275   3.986   0.181  0.2455  0.2642 -0.4796
 3720TIP3    H111124   6.323   3.980   0.099  0.7904  1.1972 -0.2444
 3720TIP3    H211125   6.337   3.958   0.248  0.7730  2.2621 -0.0842
 3721TIP3   OH211126   0.982   5.011   3.938  0.2315 -0.1980 -0.2016
 3721TIP3    H111127   1.042   4.958   3.991 -0.0626  0.8329  1.2202
 3721TIP3    H211128   0.895   4.982   3.965  0.0384  1.7558  1.4804
 3722TIP3   OH211129   5.604   4.166   5.424 -0.6363  0.1926 -0.2667
 3722TIP3    H111130   5.547   4.106   5.472 -3.0667  3.2717  1.0198
 3722TIP3    H211131   5.638   4.225   5.491  0.4399  1.1949 -1.6424
 3723TIP3   OH211132   6.460   5.471   1.404 -0.4202  0.0845  0.1041
 3723TIP3    H111133   6.471   5.413   1.479  0.4755 -0.6322 -0.5551
 3723TIP3    H211134   6.451   5.558   1.443 -1.5359 -0.4311  1.0983
 3724TIP3   OH211135   6.042   6.003   2.660  0.5100  0.0623 -0.0290
 3724TIP3    H111136   6.096   6.035   2.732 -0.3535  0.4085  0.4805
 3724TIP3    H211137   6.081   5.920   2.635  1.5606  0.5301  0.0090
 3725TIP3   OH211138   6.069   2.468   2.839  0.1813  0.1864 -0.8615
 3725TIP3    H111139   6.068   2.502   2.750 -4.5874 -2.2205 -2.1138
 3725TIP3    H211140   5.997   2.514   2.883  0.8106 -0.4502  0.9351
 3726TIP3   OH211141   4.680   2.134   4.699  0.4786  0.2529 -0.1264
 3726TIP3    H111142   4.743   2.166   4.634  0.2263  2.8912  0.7746
 3726TIP3    H211143   4.732   2.084   4.761  1.4445  1.0794 -0.2474
 3727TIP3   OH211144   0.765   3.074   3.437 -0.6439 -0.4420  0.6964
 3727TIP3    H111145   0.839   3.074   3.376 -0.6513 -1.0205  0.6882
 3727TIP3    H211146   0.690   3.045   3.384 -0.5698 -1.3517  1.0719
 3728TIP3   OH211147   3.443   0.013   2.197 -0.3259 -0.6764 -0.0715
 3728TIP3    H111148   3.375  -0.051   2.176 -1.3378  0.1885  0.4641
 3728TIP3    H211149   3.398   0.080   2.250  0.3157  1.2445 -1.8101
 3729TIP3   OH211150   4.230   0.542   1.465 -0.5140 -0.6053 -0.0392
 3729TIP3    H111151   4.277   0.468   1.504 -0.7566 -1.0136 -0.5059
 3729TIP3    H211152   4.290   0.616   1.474  0.0727 -1.0365 -0.2880
 3730TIP3   OH211153   0.587   5.162   1.645  0.7222  0.2470 -0.1939
 3730TIP3    H111154   0.676   5.128   1.631  0.6435 -0.4541  0.8936
 3730TIP3    H211155   0.580   5.172   1.740 -1.3674 -2.6702  0.1066
 3731TIP3   OH211156   3.882   5.038   0.560  0.6033 -0.2090  0.2962
 3731TIP3    H111157   3.918   5.065   0.644 -1.8013  2.5454  0.5997
 3731TIP3    H211158   3.902   5.110   0.501  2.7746 -2.3521 -1.7834
 3732TIP3   OH211159   0.109   2.329   3.596  0.2991 -0.5013 -0.0991
 3732TIP3    H111160   0.041   2.392   3.573 -0.3544 -0.7787  0.9897
 3732TIP3    H211161   0.077   2.245   3.562  0.9418 -0.3492 -1.1244
 3733TIP3   OH211162   3.646   0.582   1.795  0.8466  0.1301  0.6038
 3733TIP3    H111163   3.653   0.551   1.705  0.8420  2.3545 -0.2280
 3733TIP3    H211164   3.651   0.502   1.849 -1.1873 -1.4833 -1.4039
 3734TIP3   OH211165   1.818   0.763   3.379 -0.7183 -0.6777 -0.2940
 3734TIP3    H111166   1.841   0.708   3.304 -0.5700  0.1610 -0.8766
 3734TIP3    H211167   1.900   0.770   3.429  0.1776  1.5381 -1.8771
 3735TIP3   OH211168   0.323   5.205   3.199  0.4036  0.0574  0.6625
 3735TIP3    H111169   0.309   5.111   3.209 -0.2190  0.2621  1.9261
 3735TIP3    H211170   0.289   5.243   3.280 -0.4128  1.4751 -0.2951
 3736TIP3   OH211171   3.538   6.276   3.680 -0.0870  0.3222 -0.3638
 3736TIP3    H111172   3.445   6.280   3.702 -0.6805 -0.1243 -2.5260
 3736TIP3    H211173   3.540   6.242   3.590  2.2415 -1.2045  0.1663
 3737TIP3   OH211174   4.800   5.577   4.522  0.5997 -0.2680  0.2011
 3737TIP3    H111175   4.735   5.605   4.586  1.6563  0.6639  0.8888
 3737TIP3    H211176   4.884   5.593   4.564  1.2983 -1.5859 -0.6198
 3738TIP3   OH211177   6.895   4.075   3.621  0.0685  0.2529  0.8228
 3738TIP3    H111178   6.876   4.059   3.714 -0.1741 -2.1178  0.4246
 3738TIP3    H211179   6.844   4.009   3.574 -0.3466  1.8269 -1.0827
 3739TIP3   OH211180   4.128   0.995   3.239  0.0209  0.7388 -0.4096
 3739TIP3    H111181   4.179   0.927   3.284 -0.4725 -0.1200 -1.0909
 3739TIP3    H211182   4.065   0.945   3.186 -2.1840  1.7709  1.1250
 3740TIP3   OH211183   4.012   4.481   0.352 -0.4296  0.5840  0.4201
 3740TIP3    H111184   3.954   4.532   0.408 -1.5616  0.6049 -0.7215
 3740TIP3    H211185   4.099   4.494   0.389 -1.0375  1.2810  1.6469
 3741TIP3   OH211186   5.477   6.276   5.015 -0.3951  0.2035 -0.4634
 3741TIP3    H111187   5.464   6.371   5.016  1.5258  0.5524  1.5237
 3741TIP3    H211188   5.428   6.245   5.091  1.5238  0.1261  0.8191
 3742TIP3   OH211189   2.078   5.030   0.365  0.4410  0.6237  0.6551
 3742TIP3    H111190   2.088   5.093   0.294  1.0977  1.0521  1.1111
 3742TIP3    H211191   1.984   5.016   0.373  0.4131 -1.2504 -1.8471
 3743TIP3   OH211192   2.672   0.200   4.748 -0.0268  0.8565  0.3966
 3743TIP3    H111193   2.761   0.190   4.784 -0.2032  1.1342  0.9219
 3743TIP3    H211194   2.618   0.141   4.800  0.3747 -1.9064 -2.0651
 3744TIP3   OH211195   6.787   0.851   0.583  0.1929  0.1832 -0.0017
 3744TIP3    H111196   6.877   0.837   0.613 -0.7636  0.0348  3.0986
 3744TIP3    H211197   6.795   0.917   0.514  2.4907  2.0027  1.8446
 3745TIP3   OH211198   0.344   5.303   2.059 -0.4668 -0.0868  0.3736
 3745TIP3    H111199   0.272   5.304   1.996  0.1306  0.6068 -0.3286
 3745TIP3    H211200   0.302   5.289   2.144 -1.5806  1.5120  0.1309
 3746TIP3   OH211201   3.563   0.077   4.424  0.3634  1.0423 -0.5051
 3746TIP3    H111202   3.485   0.034   4.458  1.4108 -2.4649 -2.1486
 3746TIP3    H211203   3.532   0.124   4.346 -0.4716  1.8046  0.2563
 3747TIP3   OH211204   3.862   6.644   4.067 -0.2326  0.1895 -0.1657
 3747TIP3    H111205   3.955   6.654   4.087 -0.1251 -0.3165 -0.3945
 3747TIP3    H211206   3.818   6.647   4.152 -0.1547  1.8222 -0.1477
 3748TIP3   OH211207   6.694   4.302   2.835 -0.6114  0.3328 -0.1245
 3748TIP3    H111208   6.776   4.292   2.786 -0.8573 -2.0018 -0.1895
 3748TIP3    H211209   6.684   4.396   2.847  2.2745  0.6794  0.2087
 3749TIP3   OH211210   1.890   2.600   0.196  0.0997 -0.4885  0.2977
 3749TIP3    H111211   1.955   2.531   0.208 -1.4198 -1.8087  1.3757
 3749TIP3    H211212   1.818   2.576   0.254 -1.5799  0.6446 -1.1904
 3750TIP3   OH211213   2.627   5.542   3.111  0.2796  0.0772  0.3909
 3750TIP3    H111214   2.648   5.581   3.195 -1.2668  1.0912  0.3384
 3750TIP3    H211215   2.686   5.467   3.104  2.3319  1.5208  1.1462
 3751TIP3   OH211216   5.549   4.794   3.275  0.1980  1.0215  0.0550
 3751TIP3    H111217   5.517   4.820   3.361 -1.6529  2.4480 -0.9886
 3751TIP3    H211218   5.471   4.763   3.229  1.5705 -2.2355 -0.3108
 3752TIP3   OH211219   6.993   0.668   1.357 -0.0005 -0.1632 -0.2278
 3752TIP3    H111220   7.003   0.604   1.427 -0.8208 -0.9433 -0.7922
 3752TIP3    H211221   6.917   0.720   1.382 -0.0359 -0.1652 -0.3276
 3753TIP3   OH211222   7.178   4.940   0.572 -0.1158  0.2959 -0.4891
 3753TIP3    H111223   7.191   4.964   0.481 -0.6554 -0.5867 -0.8149
 3753TIP3    H211224   7.085   4.957   0.588 -0.3560 -0.9056 -0.5359
 3754TIP3   OH211225   4.163   3.884   0.587 -0.7120  0.1369 -0.5377
 3754TIP3    H111226   4.231   3.896   0.520 -1.3181 -0.6200 -1.3118
 3754TIP3    H211227   4.147   3.971   0.621 -0.3526  0.5360 -1.3548
 3755TIP3   OH211228   6.258   5.791  -0.026  0.0145  0.2541 -0.2139
 3755TIP3    H111229   6.267   5.869   0.028  1.3563  0.0489 -0.1143
 3755TIP3    H211230   6.271   5.718   0.035  1.1798  0.0141 -0.7354
 3756TIP3   OH211231   4.947   1.720   3.167 -0.5600  0.0602  0.2989
 3756TIP3    H111232   4.859   1.732   3.203 -0.9747  0.2840 -0.7394
 3756TIP3    H211233   4.934   1.661   3.092  0.4211 -1.2256  1.0891
 3757TIP3   OH211234   5.972   1.878   0.564  0.2739 -0.2479  0.2548
 3757TIP3    H111235   6.049   1.882   0.507  0.2762  0.9256  0.3195
 3757TIP3    H211236   5.922   1.803   0.531  0.2281  0.4468 -1.3579
 3758TIP3   OH211237   7.029   5.760   0.347 -0.4236  0.3821 -0.4092
 3758TIP3    H111238   7.096   5.802   0.294 -0.1698 -0.5301 -0.8407
 3758TIP3    H211239   7.056   5.668   0.351 -1.5824  0.0163 -0.4984
 3759TIP3   OH211240   2.382   5.286   2.773 -0.5594 -0.3963 -0.0405
 3759TIP3    H111241   2.476   5.272   2.782 -0.7013 -0.0591  4.2419
 3759TIP3    H211242   2.372   5.381   2.766 -0.5396 -0.1244  2.5484
 3760TIP3   OH211243   0.270   1.029   2.343  0.2134 -0.3972  0.1898
 3760TIP3    H111244   0.240   1.114   2.375 -0.8631  0.0411 -1.8191
 3760TIP3    H211245   0.200   0.999   2.284  1.4318 -1.7732 -0.6349
 3761TIP3   OH211246   6.820   1.204   1.723  0.1269  0.4367  0.1659
 3761TIP3    H111247   6.882   1.201   1.796  1.6472 -1.7640 -1.0921
 3761TIP3    H211248   6.823   1.295   1.692  2.5097  0.4875  0.3815
 3762TIP3   OH211249   4.425   6.782   5.043 -0.4890  0.3658 -0.3569
 3762TIP3    H111250   4.491   6.750   4.982 -1.3777  1.1098 -1.7843
 3762TIP3    H211251   4.474   6.819   5.116  0.6661  0.8697 -1.3661
 3763TIP3   OH211252   2.394   1.785   5.341  0.1240  0.1754 -0.0601
 3763TIP3    H111253   2.375   1.693   5.324 -3.5557  0.4727  1.5546
 3763TIP3    H211254   2.440   1.784   5.425 -0.7360 -0.1983  0.4265
 3764TIP3   OH211255   0.484   2.944   3.074  0.3879 -0.0495 -0.0706
 3764TIP3    H111256   0.464   3.036   3.092 -0.2953 -0.4695  1.4919
 3764TIP3    H211257   0.572   2.945   3.037  0.2735  1.2554 -0.3467
 3765TIP3   OH211258   3.143   0.989   0.278  0.2986 -0.0808 -0.2036
 3765TIP3    H111259   3.144   1.037   0.361  1.7908 -3.0203  1.6525
 3765TIP3    H211260   3.051   0.964   0.266  0.4558 -2.3777  2.4310
 3766TIP3   OH211261   6.099   5.495   5.507  0.6683 -0.2184  0.1731
 3766TIP3    H111262   6.010   5.469   5.485  1.4765 -1.6465 -1.6375
 3766TIP3    H211263   6.114   5.456   5.593  0.1130 -1.4943 -0.2787
 3767TIP3   OH211264   6.195   0.150   4.960 -0.1081  0.6034 -0.0483
 3767TIP3    H111265   6.127   0.204   4.920 -0.5613  0.8127  0.9712
 3767TIP3    H211266   6.166   0.137   5.050  1.7533  1.6614  0.7716
 3768TIP3   OH211267   2.905   3.977   0.055 -0.1676  0.5547 -0.3095
 3768TIP3    H111268   2.922   3.972   0.149 -1.2863  0.5237 -0.1008
 3768TIP3    H211269   2.905   4.071   0.036 -1.6139  0.6539  0.0600
 3769TIP3   OH211270   2.115   6.691   5.641  0.5303 -0.6768  0.2043
 3769TIP3    H111271   2.088   6.608   5.603  0.6093 -0.3615 -0.5605
 3769TIP3    H211272   2.194   6.670   5.691  1.6133 -0.7710 -1.4480
 3770TIP3   OH211273   1.865   1.860   4.045  0.1999  0.0805 -0.6441
 3770TIP3    H111274   1.933   1.914   4.085  1.5232 -0.6749 -1.8096
 3770TIP3    H211275   1.901   1.771   4.045 -2.2701 -1.1242  2.0459
 3771TIP3   OH211276   3.276   4.386   1.704  0.4414  0.6409 -1.1591
 3771TIP3    H111277   3.209   4.378   1.772  1.7196 -0.3454  0.0444
 3771TIP3    H211278   3.231   4.360   1.623 -0.4485 -0.8003 -0.2592
 3772TIP3   OH211279   0.701   6.646   3.395 -0.2307 -0.1363  0.0317
 3772TIP3    H111280   0.737   6.568   3.353  1.7578  0.2638  0.8668
 3772TIP3    H211281   0.675   6.617   3.482  0.5022  0.1112  0.3404
 3773TIP3   OH211282   5.401   0.882   4.976  0.2635 -0.4033 -0.1720
 3773TIP3    H111283   5.492   0.907   4.956 -0.1045 -0.4829 -2.1361
 3773TIP3    H211284   5.348   0.949   4.934 -0.6280 -1.3265 -0.5501
 3774TIP3   OH211285   1.863   3.807   1.994  0.0887  0.3476  0.1431
 3774TIP3    H111286   1.864   3.897   1.960  0.5449  0.0035 -0.8070
 3774TIP3    H211287   1.955   3.788   2.012 -0.1022  0.3586  1.1470
 3775TIP3   OH211288   0.233   3.541   3.326  0.2879  0.3947 -0.4205
 3775TIP3    H111289   0.312   3.533   3.273  2.3119 -0.4794  2.5059
 3775TIP3    H211290   0.175   3.597   3.274  2.5608  0.6189 -2.9310
 3776TIP3   OH211291   6.429   0.238   5.659  0.2069  0.0021  0.7071
 3776TIP3    H111292   6.492   0.182   5.613  0.2138 -0.2849  1.0626
 3776TIP3    H211293   6.453   0.327   5.633  0.4962 -0.1319  0.5098
 3777TIP3   OH211294   1.161   5.071   3.448  0.7035 -0.3200  0.1836
 3777TIP3    H111295   1.192   5.150   3.493 -1.9957  0.7992  0.3121
 3777TIP3    H211296   1.186   4.999   3.506 -1.2562  0.9421  2.8099
 3778TIP3   OH211297   4.068   6.055   2.667  0.3192 -0.0639 -0.2112
 3778TIP3    H111298   4.114   6.103   2.598 -0.2331  1.2131  0.2800
 3778TIP3    H211299   3.996   6.010   2.622  2.4875 -2.9237 -1.1799
 3779TIP3   OH211300   6.292   1.866   1.449  0.0634  0.0474  0.7283
 3779TIP3    H111301   6.257   1.953   1.428  0.9421  0.1251 -0.4801
 3779TIP3    H211302   6.373   1.883   1.495 -0.5259 -0.1456  1.8697
 3780TIP3   OH211303   6.956   0.036   5.263  0.3546  0.4830 -0.4180
 3780TIP3    H111304   7.051   0.030   5.268  0.3778  0.1757 -1.1215
 3780TIP3    H211305   6.936   0.124   5.295  0.8591  0.4762 -0.0757
 3781TIP3   OH211306   6.503   6.073   1.083 -0.1445  0.7254  0.1078
 3781TIP3    H111307   6.426   6.101   1.132  0.8548  1.6059  1.2455
 3781TIP3    H211308   6.488   6.105   0.995 -2.0499 -1.0086 -0.2906
 3782TIP3   OH211309   1.391   0.488   4.252  0.2407 -0.2015  0.2301
 3782TIP3    H111310   1.394   0.521   4.342  1.3980  0.9026 -0.1775
 3782TIP3    H211311   1.351   0.558   4.202 -0.5715 -0.8889 -0.1035
 3783TIP3   OH211312   4.114   4.163   0.673  0.2373  0.2872 -0.0101
 3783TIP3    H111313   4.163   4.240   0.700  0.8491 -0.4044  0.9157
 3783TIP3    H211314   4.085   4.183   0.584  0.0069  1.7487  0.3738
 3784TIP3   OH211315   6.807   4.348   1.553 -0.1785 -0.2708 -0.0267
 3784TIP3    H111316   6.871   4.409   1.516  0.4799 -1.1556 -0.3572
 3784TIP3    H211317   6.733   4.404   1.578  1.4931  1.0456  2.2576
 3785TIP3   OH211318   6.501   3.819   2.677  0.1173  0.2884 -0.4493
 3785TIP3    H111319   6.494   3.832   2.583 -0.4441 -1.6248 -0.7236
 3785TIP3    H211320   6.424   3.862   2.714 -1.1852 -1.2817 -1.1914
 3786TIP3   OH211321   1.919   3.012   0.955 -0.8496  0.2937 -0.4872
 3786TIP3    H111322   1.869   3.069   0.897 -1.0748  1.6399  0.9852
 3786TIP3    H211323   1.984   3.069   0.996 -0.7105 -0.6184  0.6145
 3787TIP3   OH211324   4.772   3.635   0.204 -0.3022  0.1259  0.3129
 3787TIP3    H111325   4.858   3.662   0.237 -0.4223 -0.7090  1.3418
 3787TIP3    H211326   4.787   3.547   0.168 -0.7467 -0.0825  0.6297
 3788TIP3   OH211327   0.996   1.125   1.546 -0.0826 -0.5098  0.7136
 3788TIP3    H111328   1.055   1.166   1.484  0.5199 -1.5671  0.5712
 3788TIP3    H211329   0.922   1.186   1.552 -1.0978 -1.2209 -2.4909
 3789TIP3   OH211330   3.311   5.101   3.282 -0.1151  0.0840  0.4535
 3789TIP3    H111331   3.400   5.070   3.267 -0.2999  0.4964 -1.7129
 3789TIP3    H211332   3.288   5.067   3.369  2.1787  0.1031  1.1153
 3790TIP3   OH211333   0.070   4.730   1.489 -0.5096  0.2240  0.4169
 3790TIP3    H111334   0.087   4.636   1.496  1.9284  0.4371 -1.3833
 3790TIP3    H211335   0.088   4.763   1.577  2.6381 -0.5476  0.2110
 3791TIP3   OH211336   6.960   2.550   4.790 -0.5144  0.0778  0.1111
 3791TIP3    H111337   6.916   2.483   4.738  0.5768  0.0290 -0.8079
 3791TIP3    H211338   7.047   2.513   4.807 -0.8159  0.1368  1.9240
 3792TIP3   OH211339   4.300   2.486   3.202  0.8964  0.2475  0.0173
 3792TIP3    H111340   4.358   2.465   3.275  1.0444  1.0445  0.1411
 3792TIP3    H211341   4.353   2.473   3.124  0.5291 -1.2881 -0.0022
 3793TIP3   OH211342   0.415   4.140   1.955 -0.2433 -0.7369  0.5717
 3793TIP3    H111343   0.432   4.233   1.969  0.4096 -1.0839  2.2019
 3793TIP3    H211344   0.323   4.128   1.980 -0.8390 -0.2567 -1.2234
 3794TIP3   OH211345   6.485   2.364   0.600 -0.0066  0.1872 -0.1860
 3794TIP3    H111346   6.480   2.430   0.531  2.0374  1.4330  0.7461
 3794TIP3    H211347   6.422   2.394   0.665 -0.8650 -0.1635 -0.8485
 3795TIP3   OH211348   1.409   5.976   0.997  0.1395  0.1962  0.3227
 3795TIP3    H111349   1.471   5.925   0.945 -0.8971 -1.5765  0.7126
 3795TIP3    H211350   1.449   6.062   1.005  1.8553 -0.4551 -0.6449
 3796TIP3   OH211351   1.790   6.042   5.840  0.1706  0.6391  0.2392
 3796TIP3    H111352   1.726   6.030   5.770  0.0815  0.1787  0.3998
 3796TIP3    H211353   1.872   6.062   5.794  0.9011 -2.7996 -0.2208
 3797TIP3   OH211354   6.534   4.027   1.356 -0.0372 -0.1580 -0.1221
 3797TIP3    H111355   6.597   4.032   1.284  1.6810  2.4166  1.3876
 3797TIP3    H211356   6.552   3.942   1.396  1.8843  0.0896 -0.3258
 3798TIP3   OH211357   1.849   1.723   1.284  0.0265 -0.3664 -0.2688
 3798TIP3    H111358   1.862   1.779   1.207  1.6368 -0.1212  0.1498
 3798TIP3    H211359   1.838   1.784   1.357  0.5836 -0.5935  0.0077
 3799TIP3   OH211360   2.423   4.373   0.780 -0.2009 -0.4793 -0.2427
 3799TIP3    H111361   2.466   4.398   0.698 -1.9827  0.7415 -0.8709
 3799TIP3    H211362   2.373   4.295   0.757  0.7352 -1.2194  0.1852
 3800TIP3   OH211363   4.383   4.453   3.774 -0.5651  0.2878 -0.2749
 3800TIP3    H111364   4.308   4.511   3.762 -0.0682  0.9389 -0.3050
 3800TIP3    H211365   4.444   4.479   3.705  0.1532  0.5356  0.4336
 3801TIP3   OH211366   3.175   1.753   2.882  0.0292  0.1066  0.2506
 3801TIP3    H111367   3.103   1.691   2.893 -0.6129  0.8891  0.5122
 3801TIP3    H211368   3.152   1.828   2.937  0.4122  0.9122 -0.6389
 3802TIP3   OH211369   3.170   4.855   4.713 -0.0240 -0.1501  0.3295
 3802TIP3    H111370   3.208   4.828   4.630 -0.2456 -1.4644  0.6327
 3802TIP3    H211371   3.195   4.948   4.722  0.0530 -0.0007 -1.1518
 3803TIP3   OH211372   1.361   6.333   2.220 -0.4057  0.0389 -0.1659
 3803TIP3    H111373   1.406   6.252   2.198 -0.4287  0.2521 -1.0719
 3803TIP3    H211374   1.399   6.398   2.160 -0.5755  0.6363  0.3602
 3804TIP3   OH211375   0.671   5.278   5.704  0.6089 -0.1615 -0.2707
 3804TIP3    H111376   0.725   5.339   5.755 -0.8485  0.2766  0.7950
 3804TIP3    H211377   0.684   5.193   5.746  1.9388 -0.4637 -1.2097
 3805TIP3   OH211378   0.890   3.582   4.816  0.3277  0.3855 -0.5683
 3805TIP3    H111379   0.895   3.525   4.893 -1.4491  0.6084 -0.2359
 3805TIP3    H211380   0.955   3.547   4.756  2.2448  0.6063  1.2599
 3806TIP3   OH211381   6.253   1.563   0.958 -0.2021 -0.9696  0.0038
 3806TIP3    H111382   6.208   1.647   0.970  1.8088  0.4409 -1.5535
 3806TIP3    H211383   6.235   1.515   1.039 -2.0128  0.6404  0.6570
 3807TIP3   OH211384   0.525   5.578   1.001  0.8333  0.3047  0.0981
 3807TIP3    H111385   0.493   5.598   0.913  0.0142  0.3294  0.3888
 3807TIP3    H211386   0.549   5.485   0.997  0.7686  0.2972 -0.1430
 3808TIP3   OH211387   2.777   5.832   3.171  0.3771  0.4378 -0.6453
 3808TIP3    H111388   2.689   5.867   3.157 -0.0968  0.7494  2.4047
 3808TIP3    H211389   2.785   5.760   3.108 -1.7930  0.8195 -1.4343
 3809TIP3   OH211390   3.755   3.030   2.954 -0.0501  0.4356 -0.3331
 3809TIP3    H111391   3.839   3.065   2.922 -0.5860  1.0579 -1.1064
 3809TIP3    H211392   3.776   2.991   3.039  0.7903  1.7043  0.0718
 3810TIP3   OH211393   4.334   4.521   3.335 -0.5153  0.0712 -0.3396
 3810TIP3    H111394   4.413   4.505   3.283  0.8684 -1.1034  1.9309
 3810TIP3    H211395   4.338   4.614   3.356 -0.5946  0.3515 -1.5117
 3811TIP3   OH211396   5.742   0.652   4.370 -0.2758  0.1448 -0.2845
 3811TIP3    H111397   5.761   0.573   4.319  0.2868 -0.6865  1.1121
 3811TIP3    H211398   5.732   0.722   4.306 -2.0437 -1.2830 -1.6589
 3812TIP3   OH211399   5.913   4.181   1.215 -0.5478  0.0133  0.9073
 3812TIP3    H111400   5.943   4.105   1.265 -0.8727 -0.5692  0.2447
 3812TIP3    H211401   5.823   4.194   1.243 -0.8030 -0.4547  0.3197
 3813TIP3   OH211402   5.792   6.753   4.123 -0.4945 -0.3807 -0.2311
 3813TIP3    H111403   5.746   6.728   4.203  0.0950 -1.9466 -0.3650
 3813TIP3    H211404   5.758   6.694   4.056 -0.5142  0.4953 -1.0189
 3814TIP3   OH211405   5.206   1.360   5.577  0.1981 -0.3936  0.1933
 3814TIP3    H111406   5.114   1.387   5.587 -0.4212 -1.2257 -2.5004
 3814TIP3    H211407   5.255   1.442   5.574 -0.9158  0.2603 -1.7754
 3815TIP3   OH211408   2.581   1.950   3.849  0.2005  0.3341  0.3910
 3815TIP3    H111409   2.579   1.885   3.919  0.6734 -0.4113 -0.2714
 3815TIP3    H211410   2.656   1.926   3.795 -0.8072  0.2004 -1.0152
 3816TIP3   OH211411   2.781   2.839   1.944  0.2519 -0.5035 -0.3811
 3816TIP3    H111412   2.849   2.773   1.935  2.8107  1.8780  0.1617
 3816TIP3    H211413   2.719   2.801   2.007  1.8403 -2.1934  0.2527
 3817TIP3   OH211414   5.785   4.771   3.158  0.1910  0.1973  0.0553
 3817TIP3    H111415   5.805   4.865   3.161 -1.0098  0.4819 -0.3701
 3817TIP3    H211416   5.711   4.761   3.217  0.4165 -0.5232  0.2241
 3818TIP3   OH211417   6.495   5.327   3.210  0.1010 -0.1658 -0.1545
 3818TIP3    H111418   6.462   5.296   3.125  0.0655 -0.3078 -0.0884
 3818TIP3    H211419   6.590   5.323   3.202  0.1193  0.6823 -0.5115
 3819TIP3   OH211420   4.066   2.142   0.451 -0.0368  0.3293  0.1201
 3819TIP3    H111421   4.110   2.220   0.484  0.5285 -0.2593  0.8138
 3819TIP3    H211422   4.053   2.159   0.358 -1.9873  2.1737  0.6565
 3820TIP3   OH211423   6.589   4.731   3.885 -0.4251 -0.4934 -0.5220
 3820TIP3    H111424   6.584   4.768   3.973 -0.3722 -1.6103 -0.0428
 3820TIP3    H211425   6.511   4.764   3.841 -0.9231 -0.6581  0.2269
 3821TIP3   OH211426   3.844   1.752   3.887  0.3738  0.4863  0.0080
 3821TIP3    H111427   3.793   1.683   3.847  0.8164  0.5090 -0.6141
 3821TIP3    H211428   3.865   1.720   3.974  1.2235 -0.5106 -0.5362
 3822TIP3   OH211429   0.126   6.200   5.768  0.6184 -0.6725 -0.1509
 3822TIP3    H111430   0.201   6.200   5.828  1.6552  0.8633 -1.3717
 3822TIP3    H211431   0.073   6.274   5.795  0.6968 -0.4290 -0.6499
 3823TIP3   OH211432   3.504   3.579   2.696  0.1740  0.2896  0.3407
 3823TIP3    H111433   3.554   3.509   2.737  1.3021  0.8203 -0.1087
 3823TIP3    H211434   3.569   3.631   2.649 -0.9172  0.4309 -1.0708
 3824TIP3   OH211435   3.836   2.435   5.145  0.5783  0.3723  0.1846
 3824TIP3    H111436   3.889   2.357   5.161  0.3363 -0.0080 -0.8342
 3824TIP3    H211437   3.755   2.420   5.193  2.2935  2.1170  4.0624
 3825TIP3   OH211438   3.285   0.688   2.788  0.0772  0.0441  0.1792
 3825TIP3    H111439   3.252   0.749   2.855  0.2929  1.4241 -0.9177
 3825TIP3    H211440   3.378   0.681   2.806 -0.1031 -0.7512  0.8857
 3826TIP3   OH211441   4.990   4.929   2.952  0.0978 -0.0535 -0.3689
 3826TIP3    H111442   4.955   4.913   3.040  0.7801  1.7756  0.2839
 3826TIP3    H211443   5.082   4.902   2.958  0.0967 -0.1009 -0.5698
 3827TIP3   OH211444   2.755   2.453   4.042  0.0470 -0.7430  0.0573
 3827TIP3    H111445   2.662   2.468   4.021 -0.6386 -4.2211  0.0966
 3827TIP3    H211446   2.801   2.521   3.993 -2.4996  1.7070  0.7619
 3828TIP3   OH211447   0.033   1.316   3.452  0.2152  0.4420  0.1391
 3828TIP3    H111448   0.100   1.261   3.413  1.3808  0.9121  1.3868
 3828TIP3    H211449   0.008   1.377   3.382 -1.7243 -2.0988 -1.5477
 3829TIP3   OH211450   5.948   3.822   5.902 -1.0810  0.5995 -0.1762
 3829TIP3    H111451   5.958   3.861   5.815 -3.3319 -0.5941 -1.0637
 3829TIP3    H211452   5.943   3.727   5.885  0.1078  0.2062  1.4557
 3830TIP3   OH211453   4.396   5.736   0.888  0.0917 -0.3034 -0.1349
 3830TIP3    H111454   4.406   5.787   0.968  0.9894 -0.8695  0.1343
 3830TIP3    H211455   4.382   5.646   0.919 -0.5597 -0.3720 -0.6110
 3831TIP3   OH211456   0.370   1.543   0.531  0.5864 -0.1164  0.4094
 3831TIP3    H111457   0.380   1.453   0.563  2.6276 -0.1455 -0.1829
 3831TIP3    H211458   0.400   1.540   0.440 -3.2631  0.3616 -1.0820
 3832TIP3   OH211459   3.306   0.831   2.548 -0.0874 -0.7839  0.2687
 3832TIP3    H111460   3.286   0.776   2.624  0.9534 -1.4847  0.0500
 3832TIP3    H211461   3.392   0.801   2.518  0.1538  0.4422 -0.3300
 3833TIP3   OH211462   6.261   0.637   2.894 -0.3930  0.4947 -0.0010
 3833TIP3    H111463   6.209   0.643   2.813  1.0597  1.1764 -0.9204
 3833TIP3    H211464   6.237   0.552   2.932 -2.2617  0.8416 -0.3053
 3834TIP3   OH211465   0.021   6.256   1.797  0.1641 -0.0873  0.2201
 3834TIP3    H111466   0.078   6.268   1.721  0.2203 -2.2775 -0.1710
 3834TIP3    H211467  -0.059   6.304   1.776  0.3273 -0.3611 -1.0841
 3835TIP3   OH211468   5.769   1.002   1.126  0.3928  0.5353 -0.5228
 3835TIP3    H111469   5.805   0.915   1.109  0.2439  0.4470 -0.3884
 3835TIP3    H211470   5.805   1.057   1.056  2.2693  0.8716  0.6476
 3836TIP3   OH211471   0.499   1.740   0.672 -0.0563  0.2189 -0.3123
 3836TIP3    H111472   0.457   1.676   0.615 -3.2656  1.2772  0.6502
 3836TIP3    H211473   0.567   1.780   0.618  0.1223 -1.9690 -1.8202
 3837TIP3   OH211474   0.365   2.436   2.258 -0.0880 -0.0502 -0.7944
 3837TIP3    H111475   0.339   2.350   2.227  0.8562 -0.3315 -0.8383
 3837TIP3    H211476   0.323   2.497   2.198 -1.8418 -0.4013  0.0108
 3838TIP3   OH211477   0.128   5.781   2.810  0.0842  0.4470 -0.1693
 3838TIP3    H111478   0.119   5.796   2.904 -1.3713 -0.7948 -0.0797
 3838TIP3    H211479   0.098   5.862   2.769  2.1719  1.5962  0.4010
 3839TIP3   OH211480   4.770   5.444   1.922  0.4270 -0.5023 -0.6932
 3839TIP3    H111481   4.847   5.440   1.865  0.4256 -0.6708 -0.6853
 3839TIP3    H211482   4.806   5.456   2.010  0.4305 -0.2735 -0.7250
 3840TIP3   OH211483   3.605   3.951   5.884 -0.1488  0.1438 -0.1954
 3840TIP3    H111484   3.656   3.870   5.877  0.8551  0.8076 -0.9297
 3840TIP3    H211485   3.668   4.020   5.863 -1.2371  1.0364 -0.5974
 3841TIP3   OH211486   1.572   4.401   2.839 -0.3085  0.1096  0.3032
 3841TIP3    H111487   1.561   4.467   2.907  0.4511  0.9222 -0.3338
 3841TIP3    H211488   1.526   4.437   2.763  1.4900  0.7204 -0.5522
 3842TIP3   OH211489   4.253   2.796   4.580  0.2221  0.2317  0.7305
 3842TIP3    H111490   4.288   2.790   4.491 -0.4935 -0.3873  0.4802
 3842TIP3    H211491   4.165   2.832   4.569  0.5001  1.1010  1.2831
 3843TIP3   OH211492   1.134   3.886   2.016  0.1215 -0.6105 -0.5432
 3843TIP3    H111493   1.062   3.859   1.960  0.4590  0.6895 -1.6629
 3843TIP3    H211494   1.164   3.969   1.979  0.8152 -0.0469  1.1596
 3844TIP3   OH211495   1.913   1.704   5.202 -1.0138 -0.4544 -0.1697
 3844TIP3    H111496   1.822   1.733   5.196 -1.0794 -0.7901 -1.0850
 3844TIP3    H211497   1.936   1.680   5.112  0.2972  0.5559 -0.1370
 3845TIP3   OH211498   3.062   3.830   3.922 -0.5265  0.1281 -0.7737
 3845TIP3    H111499   3.066   3.776   3.843  0.1304  1.4791 -1.7027
 3845TIP3    H211500   3.020   3.911   3.893  0.8855  1.1619 -0.0716
 3846TIP3   OH211501   6.438   0.084   4.868  0.1260  0.1824  0.2649
 3846TIP3    H111502   6.356   0.127   4.892  0.2772  2.0617 -2.1951
 3846TIP3    H211503   6.417   0.036   4.788  0.6101 -2.3918  1.5802
 3847TIP3   OH211504   6.152   2.383   5.754  0.2859  0.1028 -0.8509
 3847TIP3    H111505   6.221   2.416   5.812 -0.4477  1.6278 -0.8050
 3847TIP3    H211506   6.185   2.402   5.666  0.1040  0.4847 -0.8393
 3848TIP3   OH211507   2.498   5.705   4.014 -0.3573  0.1142  0.0401
 3848TIP3    H111508   2.473   5.796   3.999  0.0305  0.0955 -0.8015
 3848TIP3    H211509   2.437   5.654   3.960  0.1383 -0.0500 -0.3795
 3849TIP3   OH211510   0.102   2.057   1.751 -0.0071 -0.4649  0.2118
 3849TIP3    H111511   0.172   1.993   1.762 -0.8158 -1.4448 -0.2097
 3849TIP3    H211512   0.147   2.142   1.756  1.1269 -1.0526  0.4638
 3850TIP3   OH211513   0.567   0.768   1.049  0.4591 -0.2552 -0.8837
 3850TIP3    H111514   0.642   0.818   1.081 -0.6277  0.7659  0.1752
 3850TIP3    H211515   0.555   0.698   1.113 -0.9128  1.0128  0.3344
 3851TIP3   OH211516   2.653   2.429   5.889  0.8755  0.8009 -0.1945
 3851TIP3    H111517   2.668   2.334   5.891 -0.5801  0.5527  1.1931
 3851TIP3    H211518   2.739   2.467   5.870  1.4580 -0.7880 -0.8961
 3852TIP3   OH211519   0.307   0.262   4.208  0.2761 -0.0446  0.3053
 3852TIP3    H111520   0.358   0.313   4.270  0.3450  0.0456  0.1753
 3852TIP3    H211521   0.342   0.174   4.215 -0.1679 -0.1848  0.8830
 3853TIP3   OH211522   5.139   3.493   2.650  0.1489 -0.0859  0.0740
 3853TIP3    H111523   5.111   3.556   2.584 -1.0730  0.2146  0.8591
 3853TIP3    H211524   5.080   3.418   2.640 -0.7536  0.3884  1.4787
 3854TIP3   OH211525   2.335   1.989   1.127  0.3370 -0.2295 -0.0766
 3854TIP3    H111526   2.286   1.929   1.183 -1.2128  0.0499 -1.0829
 3854TIP3    H211527   2.314   2.076   1.160  2.2416 -0.1699  1.1058
 3855TIP3   OH211528   4.866   0.765   0.366  0.0089 -0.5688  0.0166
 3855TIP3    H111529   4.805   0.726   0.302  0.5632  0.3565 -1.1228
 3855TIP3    H211530   4.943   0.709   0.363  0.2991 -0.1556 -0.6632
 3856TIP3   OH211531   1.399   3.627   0.953  0.6927 -0.1255  0.0306
 3856TIP3    H111532   1.306   3.618   0.971  0.7778 -0.6247  0.2332
 3856TIP3    H211533   1.409   3.595   0.863  0.6362  0.1357 -0.0696
 3857TIP3   OH211534   6.008   1.945   3.257  0.3506  0.0598  0.2353
 3857TIP3    H111535   5.914   1.939   3.273  0.3158  0.5023  0.2251
 3857TIP3    H211536   6.016   1.956   3.162  0.3815  0.4899  0.2831
 3858TIP3   OH211537   0.659   6.117   1.270  0.0719 -0.4328 -0.0500
 3858TIP3    H111538   0.617   6.034   1.293 -1.1331  0.4485  1.1504
 3858TIP3    H211539   0.696   6.148   1.353  1.2446 -0.1605 -0.6620
 3859TIP3   OH211540   6.354   0.963   4.205 -0.1458  0.1334 -0.0714
 3859TIP3    H111541   6.370   0.882   4.158 -3.4923 -0.8909  0.2767
 3859TIP3    H211542   6.407   1.029   4.160  2.1705 -2.0581 -0.7558
 3860TIP3   OH211543   1.341   4.629   4.771 -0.4941 -0.3331 -0.3283
 3860TIP3    H111544   1.264   4.668   4.728  0.4835  2.1303 -0.0090
 3860TIP3    H211545   1.352   4.544   4.728 -1.1529  0.8671 -3.1182
 3861TIP3   OH211546   3.554   3.230   3.395  0.2913  0.3953 -0.3371
 3861TIP3    H111547   3.636   3.248   3.349  0.0894  0.1172 -0.8195
 3861TIP3    H211548   3.488   3.278   3.345 -0.2436 -1.5274 -1.5977
 3862TIP3   OH211549   4.666   2.530   1.683  0.2744 -0.0076  0.2362
 3862TIP3    H111550   4.622   2.497   1.605  0.6153  1.0002 -0.3962
 3862TIP3    H211551   4.595   2.548   1.745  0.0923 -2.3276  0.8105
 3863TIP3   OH211552   6.085   2.815   0.465  0.2838 -0.3293  0.0946
 3863TIP3    H111553   6.066   2.873   0.539 -1.7149  0.6107 -1.0675
 3863TIP3    H211554   6.014   2.752   0.465 -0.9998  0.9951 -2.2178
 3864TIP3   OH211555   1.680   3.749   5.267  0.2827 -0.0511 -0.2489
 3864TIP3    H111556   1.713   3.704   5.345 -0.2006 -0.7629 -0.4439
 3864TIP3    H211557   1.588   3.765   5.286 -0.0668 -1.0303 -1.0136
 3865TIP3   OH211558   5.879   2.182   3.725 -0.0463  0.4932  0.2388
 3865TIP3    H111559   5.962   2.159   3.767 -0.8122 -1.6655  0.6941
 3865TIP3    H211560   5.818   2.115   3.756 -2.0976  2.2954  0.2916
 3866TIP3   OH211561   1.654   0.003   1.628 -0.1044 -0.0729 -0.0919
 3866TIP3    H111562   1.662  -0.043   1.712  0.8405  1.3886  0.6606
 3866TIP3    H211563   1.737   0.049   1.618  0.2076 -1.0408 -2.3665
 3867TIP3   OH211564   6.659   6.077   5.430  0.4621 -0.0738  0.3254
 3867TIP3    H111565   6.638   6.007   5.368 -0.1335  0.6102 -0.2630
 3867TIP3    H211566   6.574   6.102   5.467  0.7623 -0.1766  1.0979
 3868TIP3   OH211567   6.034   6.552   0.351  0.2731 -0.6540 -0.2590
 3868TIP3    H111568   6.090   6.603   0.293 -0.7309  0.2863 -0.4109
 3868TIP3    H211569   6.066   6.573   0.439 -0.2042  0.3268 -0.3148
 3869TIP3   OH211570   2.580   3.225   3.167 -0.0190 -0.4580 -0.4309
 3869TIP3    H111571   2.611   3.145   3.210  0.7747  0.8064  1.4355
 3869TIP3    H211572   2.497   3.245   3.210  0.9404  1.0003  0.8525
 3870TIP3   OH211573   5.251   1.096   4.930  0.3491 -0.5119 -0.6989
 3870TIP3    H111574   5.190   1.119   4.860  0.1848  0.5471 -0.2226
 3870TIP3    H211575   5.212   1.133   5.010  0.8228 -1.1962 -0.1336
 3871TIP3   OH211576   3.478   0.385   2.453  0.1547  0.1497  0.3148
 3871TIP3    H111577   3.539   0.457   2.472  0.7643 -0.5242  0.9604
 3871TIP3    H211578   3.440   0.364   2.538 -0.7136  0.3127 -0.0246
 3872TIP3   OH211579   6.875   4.293   1.976  0.3752 -0.5228 -0.0202
 3872TIP3    H111580   6.900   4.380   2.005  0.1719 -0.6833  0.6513
 3872TIP3    H211581   6.921   4.281   1.893  0.1193  0.3586 -0.3027
 3873TIP3   OH211582   4.625   3.864   1.990  0.3180  0.2651  0.0419
 3873TIP3    H111583   4.582   3.805   1.929  0.4935  0.5195 -0.3345
 3873TIP3    H211584   4.674   3.925   1.934  0.0496  0.8350  0.4186
 3874TIP3   OH211585   4.364   0.951   4.244  0.5654  0.1157  0.3474
 3874TIP3    H111586   4.424   0.957   4.170 -2.3424  1.1396 -2.1094
 3874TIP3    H211587   4.356   1.041   4.276 -0.1436  0.1062  0.2126
 3875TIP3   OH211588   1.466   1.782   4.480 -0.3469  0.1293  0.2028
 3875TIP3    H111589   1.477   1.748   4.391 -0.8347 -0.3238  0.3065
 3875TIP3    H211590   1.527   1.855   4.486 -1.4661  1.2430 -1.0715
 3876TIP3   OH211591   6.585   4.580   5.748 -0.1799  0.2004  0.3617
 3876TIP3    H111592   6.607   4.578   5.842 -3.0098  0.1695  1.1049
 3876TIP3    H211593   6.505   4.529   5.741  1.1775 -1.8182 -2.5215
 3877TIP3   OH211594   5.492   3.570   5.119 -0.2192  0.8835 -0.0686
 3877TIP3    H111595   5.398   3.572   5.102 -0.2545 -0.6353 -0.1254
 3877TIP3    H211596   5.508   3.485   5.160  1.4607  0.1052 -2.1238
 3878TIP3   OH211597   4.462   2.407   4.554 -0.2269  0.1541 -0.4547
 3878TIP3    H111598   4.486   2.499   4.562  0.4461 -0.1501  2.2489
 3878TIP3    H211599   4.536   2.366   4.510  1.5202  0.3102  2.0760
 3879TIP3   OH211600   2.764   0.115   2.177  0.0505 -0.4075  0.3605
 3879TIP3    H111601   2.705   0.166   2.123  0.5651 -0.1762  0.0100
 3879TIP3    H211602   2.765   0.028   2.138  0.0238 -0.3815  0.3031
 3880TIP3   OH211603   0.848   4.868   0.134 -0.1228 -0.2293 -0.2038
 3880TIP3    H111604   0.926   4.861   0.079  1.0293  0.6178  1.2372
 3880TIP3    H211605   0.850   4.958   0.167 -0.0852 -1.0021  2.1047
 3881TIP3   OH211606   0.565   2.740   1.882  0.6114  0.1682  0.5447
 3881TIP3    H111607   0.617   2.812   1.845  0.1232  1.0485  1.5079
 3881TIP3    H211608   0.593   2.735   1.973 -0.1011 -0.1706  0.7513
 3882TIP3   OH211609   3.373   1.428   0.893  0.2905  0.2998  0.1063
 3882TIP3    H111610   3.331   1.492   0.836  1.3363  1.3910  0.5198
 3882TIP3    H211611   3.305   1.403   0.955 -0.0009  1.3962  0.2515
 3883TIP3   OH211612   0.387   0.110   2.451  0.3004 -0.0213  0.4727
 3883TIP3    H111613   0.372   0.029   2.500 -0.4072 -0.3414 -0.2426
 3883TIP3    H211614   0.469   0.096   2.404  0.1097 -0.3787  0.2461
 3884TIP3   OH211615   7.117   3.356   4.012  0.2418 -0.1013 -0.0051
 3884TIP3    H111616   7.029   3.380   3.982  0.6000 -1.5424 -2.4731
 3884TIP3    H211617   7.116   3.261   4.015  1.1729 -0.0998  1.9105
 3885TIP3   OH211618   5.451   3.056   1.571  0.1416  0.2407  0.1316
 3885TIP3    H111619   5.510   3.095   1.507 -0.4776  4.7650  1.8962
 3885TIP3    H211620   5.364   3.063   1.530  0.0717  0.3659  0.3005
 3886TIP3   OH211621   5.228   5.363   0.172  0.3708 -0.1563  0.4919
 3886TIP3    H111622   5.295   5.320   0.119  0.4086  1.2696 -0.6901
 3886TIP3    H211623   5.240   5.328   0.260 -0.3522 -3.3782 -0.5715
 3887TIP3   OH211624   1.545   1.019   3.770  0.2074  0.1643 -0.2485
 3887TIP3    H111625   1.504   0.982   3.848 -0.4223  0.8225 -0.2661
 3887TIP3    H211626   1.589   0.944   3.729 -0.2586 -0.3757  0.2240
 3888TIP3   OH211627   3.802   1.800   1.892  0.3528  0.2519  0.0442
 3888TIP3    H111628   3.826   1.717   1.932 -2.1080  0.7117  2.8101
 3888TIP3    H211629   3.870   1.862   1.920  1.4580 -0.4583 -0.9348
 3889TIP3   OH211630   6.079   5.170   3.142 -0.3248  0.0678 -0.2011
 3889TIP3    H111631   6.023   5.182   3.219  0.3069  1.4080  0.0765
 3889TIP3    H211632   6.145   5.107   3.170 -0.8888 -0.4727 -0.0859
 3890TIP3   OH211633   1.871   5.803   3.114 -0.4871  0.3487 -0.4106
 3890TIP3    H111634   1.802   5.770   3.172 -0.8032 -0.2858 -1.1452
 3890TIP3    H211635   1.828   5.817   3.030  0.5709 -1.5106 -1.3272
 3891TIP3   OH211636   3.151   3.166   0.992 -0.0388 -0.3630  0.9089
 3891TIP3    H111637   3.115   3.101   0.932 -0.1570  1.0285 -0.6143
 3891TIP3    H211638   3.224   3.121   1.035  1.3612 -0.9103 -1.7686
 3892TIP3   OH211639   5.063   3.187   4.066 -0.2598  0.1846  0.0673
 3892TIP3    H111640   5.081   3.279   4.087  1.0431  0.0488 -0.3274
 3892TIP3    H211641   4.970   3.184   4.046 -0.6224  1.1311  1.5259
 3893TIP3   OH211642   3.300   0.131   2.412 -0.4603 -0.4302  0.2038
 3893TIP3    H111643   3.237   0.201   2.394  0.6858  0.4840 -0.4400
 3893TIP3    H211644   3.357   0.166   2.480  1.0047 -0.0988 -1.1093
 3894TIP3   OH211645   4.597   2.220   1.733 -0.3736  0.1389 -0.6503
 3894TIP3    H111646   4.550   2.276   1.671 -1.5934 -0.2413 -0.1110
 3894TIP3    H211647   4.548   2.229   1.815  2.7833  2.8276  1.1633
 3895TIP3   OH211648   0.091   3.127   2.063 -0.4286  0.0928  0.4840
 3895TIP3    H111649   0.087   3.051   2.121  0.1109 -1.1092 -0.9850
 3895TIP3    H211650   0.002   3.137   2.030 -0.2475 -0.7493 -0.3150
 3896TIP3   OH211651   2.760   2.696   5.570  0.0515 -0.1169 -0.1199
 3896TIP3    H111652   2.749   2.636   5.644  1.8693 -2.4968 -1.5963
 3896TIP3    H211653   2.837   2.748   5.593  0.6162 -0.8551 -0.2723
 3897TIP3   OH211654   0.982   4.327   0.062  0.2486 -0.8346  0.1596
 3897TIP3    H111655   1.044   4.371   0.121  0.5640 -0.3573 -0.5108
 3897TIP3    H211656   1.000   4.234   0.073 -0.2618 -0.7974  1.4212
 3898TIP3   OH211657   4.280   3.252   1.702  0.5940  0.0344 -0.4448
 3898TIP3    H111658   4.269   3.294   1.787 -0.3266  1.7127 -1.3476
 3898TIP3    H211659   4.195   3.261   1.659  1.9387  2.5822 -2.9463
 3899TIP3   OH211660   3.970   3.753   1.009 -0.0055 -0.3025 -0.1224
 3899TIP3    H111661   4.065   3.755   1.013  0.0367  0.9412 -1.0257
 3899TIP3    H211662   3.950   3.719   0.921 -0.3929 -0.8086  0.1586
 3900TIP3   OH211663   7.004   6.531   3.670 -0.3236  0.0512  0.7282
 3900TIP3    H111664   6.926   6.565   3.626 -0.1748 -0.2306  0.2309
 3900TIP3    H211665   6.998   6.563   3.759 -0.5944  0.7057  0.4787
 3901TIP3   OH211666   3.626   5.677   1.725  0.0011 -0.2533  0.4653
 3901TIP3    H111667   3.620   5.743   1.656 -2.3915 -0.1097  0.7317
 3901TIP3    H211668   3.597   5.596   1.683  0.6032 -0.6280  0.7637
 3902TIP3   OH211669   1.445   1.165   1.117 -0.1220  0.2081  0.1165
 3902TIP3    H111670   1.434   1.128   1.029 -0.8068  1.1122 -0.2062
 3902TIP3    H211671   1.539   1.171   1.129 -0.0162 -0.0985 -0.4903
 3903TIP3   OH211672   1.501   3.186   1.195 -0.1389  0.3613 -0.3972
 3903TIP3    H111673   1.480   3.183   1.102  0.8915 -0.4448 -0.6088
 3903TIP3    H211674   1.444   3.120   1.235  1.3195 -1.2079 -0.8485
 3904TIP3   OH211675   4.095   2.012   2.252 -0.3352  0.3366  0.0654
 3904TIP3    H111676   4.085   2.101   2.286  0.1675  0.7994 -0.9589
 3904TIP3    H211677   4.189   1.999   2.247 -0.3464 -1.1401  2.3934
 3905TIP3   OH211678   2.530   0.130   2.501 -0.0592  0.0273 -0.3683
 3905TIP3    H111679   2.483   0.049   2.518 -0.6377 -0.2310 -2.8158
 3905TIP3    H211680   2.622   0.108   2.513 -0.3495 -0.1280  1.9814
 3906TIP3   OH211681   2.785   1.009   5.424  0.1616 -0.2229 -0.1943
 3906TIP3    H111682   2.782   1.082   5.362  0.1821 -0.2974 -0.2821
 3906TIP3    H211683   2.739   1.042   5.502 -0.4120 -0.3476 -0.4749
 3907TIP3   OH211684   1.606   2.085   2.211  0.0644 -0.2016 -0.2330
 3907TIP3    H111685   1.688   2.133   2.217 -0.9768  1.6114  0.0832
 3907TIP3    H211686   1.627   2.010   2.155  1.6778  0.7690 -1.0213
 3908TIP3   OH211687   4.500   2.951   5.297 -0.2983 -0.7048 -0.0195
 3908TIP3    H111688   4.431   2.948   5.231 -0.1414 -0.1502 -0.2209
 3908TIP3    H211689   4.543   3.036   5.282 -0.2079 -0.6112  0.7397
 3909TIP3   OH211690   2.212   5.564   4.592  0.7238  0.0203  0.4004
 3909TIP3    H111691   2.305   5.588   4.597  0.9751 -1.2125  3.1917
 3909TIP3    H211692   2.213   5.472   4.565  0.4017 -0.2695  1.3356
 3910TIP3   OH211693   5.736   3.179   0.517  0.1177  0.2097  0.1938
 3910TIP3    H111694   5.752   3.273   0.516 -1.5433  0.5259 -1.1394
 3910TIP3    H211695   5.643   3.170   0.494  0.7104 -1.8325 -1.7133
 3911TIP3   OH211696   4.804   1.148   4.835 -0.0058 -0.0738 -0.9150
 3911TIP3    H111697   4.743   1.117   4.902  0.5350 -0.3529 -0.5409
 3911TIP3    H211698   4.748   1.185   4.767 -0.5362  1.3100  0.2167
 3912TIP3   OH211699   6.723   4.928   1.835 -0.1006  0.0938 -0.3200
 3912TIP3    H111700   6.632   4.913   1.808 -0.8409  1.2636  1.3495
 3912TIP3    H211701   6.764   4.968   1.759 -0.9043 -0.6978 -1.1917
 3913TIP3   OH211702   3.352   5.670   1.617  0.0819  0.1997  0.4104
 3913TIP3    H111703   3.397   5.594   1.580  0.5673  0.7958 -0.2495
 3913TIP3    H211704   3.328   5.643   1.705  1.0955 -0.3806  0.5206
 3914TIP3   OH211705   2.347   1.415   3.006  0.6629 -0.0903 -0.0255
 3914TIP3    H111706   2.416   1.356   2.974  0.8847  0.2944 -0.2732
 3914TIP3    H211707   2.265   1.370   2.987  0.8493 -0.5398  0.2402
 3915TIP3   OH211708   0.333   3.977   0.995 -0.2614  0.0812 -0.2871
 3915TIP3    H111709   0.387   3.992   0.917  0.8818 -2.6308 -0.1188
 3915TIP3    H211710   0.276   3.904   0.972  0.2302 -0.9155  1.4233
 3916TIP3   OH211711   3.976   4.775   0.537  0.3655  0.0896 -0.0993
 3916TIP3    H111712   3.889   4.734   0.537  0.3012  0.1778  1.1362
 3916TIP3    H211713   3.959   4.868   0.520  0.2231  0.0815 -0.0088
 3917TIP3   OH211714   6.778   6.553   5.675  0.4195 -0.1660 -0.0592
 3917TIP3    H111715   6.714   6.609   5.631  1.2723  0.1397 -0.9457
 3917TIP3    H211716   6.847   6.612   5.703  0.8727 -0.6372 -0.1581
 3918TIP3   OH211717   0.506   3.956   0.268 -0.1501 -0.3898  0.2255
 3918TIP3    H111718   0.494   3.886   0.203 -0.6918 -1.3022  1.2792
 3918TIP3    H211719   0.531   3.910   0.348 -1.1059  0.5726  1.0943
 3919TIP3   OH211720   4.232   6.214   1.745 -0.0007 -0.3381  0.3424
 3919TIP3    H111721   4.225   6.292   1.801 -2.2568  0.0273 -0.3529
 3919TIP3    H211722   4.323   6.187   1.753  0.2609  0.9695  2.4818
 3920TIP3   OH211723   4.829   1.187   5.165  0.4989  0.5076 -0.8048
 3920TIP3    H111724   4.756   1.165   5.107  0.9679  0.9879 -1.6030
 3920TIP3    H211725   4.788   1.226   5.242 -0.3380 -2.4919  0.4352
 3921TIP3   OH211726   3.802   0.006   3.237  0.3565  0.0071  0.5580
 3921TIP3    H111727   3.750   0.077   3.198 -0.1398 -0.0109  1.1694
 3921TIP3    H211728   3.765  -0.074   3.198  2.5880  0.1373 -2.1338
 3922TIP3   OH211729   5.769   5.849   3.527  0.3142  0.7779  0.1543
 3922TIP3    H111730   5.720   5.912   3.475  1.8698  0.7928 -1.3967
 3922TIP3    H211731   5.837   5.901   3.570  0.7804  0.3629 -0.0684
 3923TIP3   OH211732   1.674   4.105   0.489 -0.2570  0.7937  0.0994
 3923TIP3    H111733   1.731   4.181   0.505 -0.7523  1.2414 -0.2384
 3923TIP3    H211734   1.605   4.139   0.433 -1.0580  0.3426  0.8050
 3924TIP3   OH211735   1.876   4.879   0.671  0.0374  0.5105 -0.4319
 3924TIP3    H111736   1.816   4.953   0.668  0.7571  1.3088  1.9449
 3924TIP3    H211737   1.823   4.803   0.648 -1.6144  1.3468  0.4373
 3925TIP3   OH211738   2.948   0.694   4.287  0.3152 -0.6343 -0.6873
 3925TIP3    H111739   2.873   0.634   4.278  0.0213 -0.5525  0.8803
 3925TIP3    H211740   2.923   0.752   4.359  1.6472 -0.2278 -0.5335
 3926TIP3   OH211741   2.828   4.191   4.907 -0.9624 -0.2172  0.5259
 3926TIP3    H111742   2.772   4.221   4.835  0.5236 -0.7662 -0.9153
 3926TIP3    H211743   2.810   4.098   4.914  2.0743 -1.1969 -2.2750
 3927TIP3   OH211744   3.542   1.619   0.425  0.1759  0.3276  0.6791
 3927TIP3    H111745   3.574   1.693   0.477  0.9251  0.2377  0.3722
 3927TIP3    H211746   3.468   1.654   0.376  0.0630  0.6702  1.0940
 3928TIP3   OH211747   5.036   0.239   1.294 -0.2289  0.8601 -0.1010
 3928TIP3    H111748   5.035   0.152   1.334  0.3056  0.5824 -0.6810
 3928TIP3    H211749   4.974   0.232   1.221  1.2760  0.3365 -1.4021
 3929TIP3   OH211750   2.978   6.514   3.067  0.4745  0.0547  0.1550
 3929TIP3    H111751   3.010   6.595   3.107  0.2607  0.5947 -0.7490
 3929TIP3    H211752   2.980   6.450   3.139  0.0768  0.9992  1.0348
 3930TIP3   OH211753   5.072   3.599   2.390 -0.0757  0.3681 -0.5090
 3930TIP3    H111754   4.981   3.590   2.418  0.6968  1.5847  2.8101
 3930TIP3    H211755   5.090   3.693   2.396  1.7611  0.0091  0.3544
 3931TIP3   OH211756   2.804   6.689   2.733 -0.0901  0.0004 -0.6398
 3931TIP3    H111757   2.799   6.607   2.782 -1.0047 -0.5651 -1.6223
 3931TIP3    H211758   2.896   6.714   2.737  0.5800 -2.0457 -1.8188
 3932TIP3   OH211759   0.890   3.064   4.247  0.8739 -0.1139  0.8597
 3932TIP3    H111760   0.932   3.137   4.293 -0.9706  1.2220  0.5166
 3932TIP3    H211761   0.796   3.077   4.261  0.4679 -2.4165  0.7432
 3933TIP3   OH211762   6.394   3.528   4.108  0.6338  0.0287  0.0202
 3933TIP3    H111763   6.401   3.571   4.023  1.5625  1.8829  0.9661
 3933TIP3    H211764   6.482   3.495   4.125  0.2620 -1.0352 -0.0647
 3934TIP3   OH211765   1.271   1.694   1.298 -0.4016 -0.3392  0.2148
 3934TIP3    H111766   1.317   1.634   1.238  0.6089 -0.0856  0.7214
 3934TIP3    H211767   1.292   1.661   1.385 -0.8429  0.0403  0.4661
 3935TIP3   OH211768   5.574   3.656   4.172  0.2596  0.2726 -0.3417
 3935TIP3    H111769   5.613   3.678   4.257 -1.4603  0.6962  0.3721
 3935TIP3    H211770   5.642   3.679   4.108  0.9416  1.5909  0.7948
 3936TIP3   OH211771   4.656   6.162   2.044  0.0480  0.1478 -0.5395
 3936TIP3    H111772   4.670   6.099   1.973  1.4782  0.2033 -0.3387
 3936TIP3    H211773   4.563   6.155   2.064 -0.3215 -0.1280 -2.1790
 3937TIP3   OH211774   6.319   0.835   0.796  0.4763 -0.4816 -0.5442
 3937TIP3    H111775   6.240   0.819   0.745  0.8529  0.9074 -1.6432
 3937TIP3    H211776   6.390   0.804   0.740  0.8695  0.6666 -0.7097
 3938TIP3   OH211777   0.534   2.863   2.388  0.3574  0.2884  0.0678
 3938TIP3    H111778   0.493   2.940   2.347  2.1746  1.3848  0.1945
 3938TIP3    H211779   0.560   2.807   2.315  1.6326  1.2095 -0.2223
 3939TIP3   OH211780   5.004   6.163   3.600 -0.4332 -0.5355 -0.1950
 3939TIP3    H111781   4.979   6.176   3.691  0.2229  1.2570 -0.2200
 3939TIP3    H211782   5.100   6.170   3.600 -0.4973  0.7782 -1.1649
 3940TIP3   OH211783   2.697   2.431   0.431  0.4159  0.0483  0.3989
 3940TIP3    H111784   2.638   2.495   0.471 -1.9795 -0.2182 -2.3312
 3940TIP3    H211785   2.734   2.476   0.355  0.0244 -1.1946 -0.5767
 3941TIP3   OH211786   6.748   5.392   2.235 -0.1552  0.1532 -0.5943
 3941TIP3    H111787   6.656   5.410   2.256 -0.2827 -0.1853 -0.8561
 3941TIP3    H211788   6.745   5.318   2.175  0.3966 -1.3287  1.1234
 3942TIP3   OH211789   0.194   6.220   3.493 -0.0074 -0.0454 -0.2276
 3942TIP3    H111790   0.159   6.204   3.405 -0.6932  0.2226 -0.0093
 3942TIP3    H211791   0.120   6.255   3.542 -0.2914 -2.2790  1.0975
 3943TIP3   OH211792   1.106   3.018   1.003  0.4393 -0.1097  0.2197
 3943TIP3    H111793   1.116   2.929   0.971 -1.2110  0.0191 -0.7853
 3943TIP3    H211794   1.099   3.071   0.924 -0.3425  0.6668  0.7908
 3944TIP3   OH211795   0.344   4.871   3.049  0.1771  0.2323 -0.2427
 3944TIP3    H111796   0.293   4.867   3.130  0.5056 -2.2868 -0.0808
 3944TIP3    H211797   0.284   4.841   2.981  1.2727 -2.6829 -0.0656
 3945TIP3   OH211798   3.874   2.247   2.479 -0.3928  0.2771 -0.1897
 3945TIP3    H111799   3.912   2.164   2.507  0.0947  0.9542  1.2579
 3945TIP3    H211800   3.780   2.236   2.494 -0.3122  0.0435  0.1579
 3946TIP3   OH211801   5.164   6.075   4.982  0.2429 -0.0034  0.0706
 3946TIP3    H111802   5.069   6.082   4.995  0.3720  1.0798  0.5517
 3946TIP3    H211803   5.202   6.103   5.066  0.9917  0.2841 -0.3498
 3947TIP3   OH211804   2.366   4.647   0.950  0.5825  0.2701  0.1812
 3947TIP3    H111805   2.363   4.719   0.887  0.1661 -0.6503 -0.8881
 3947TIP3    H211806   2.354   4.568   0.897 -1.2792 -0.4612  1.5835
 3948TIP3   OH211807   5.508   3.233   4.789  0.0847 -0.2790  0.1897
 3948TIP3    H111808   5.440   3.170   4.813  1.5935 -1.2372  2.2960
 3948TIP3    H211809   5.523   3.284   4.869  0.2777  1.4618 -0.9064
 3949TIP3   OH211810   6.094   0.960   5.632 -0.3631  0.0816  0.0950
 3949TIP3    H111811   6.045   0.888   5.673 -0.8403  0.3430 -0.0085
 3949TIP3    H211812   6.145   0.917   5.564 -0.9730 -0.1081 -0.2514
 3950TIP3   OH211813   1.197   5.789   0.788 -0.3511  0.7632  0.3833
 3950TIP3    H111814   1.130   5.739   0.741  0.0624  0.1396  0.4425
 3950TIP3    H211815   1.214   5.865   0.732 -1.5186  1.2384  0.6511
 3951TIP3   OH211816   0.346   6.687   0.346 -0.4019  0.0311  0.0627
 3951TIP3    H111817   0.312   6.599   0.361 -2.6739  0.7115 -0.6522
 3951TIP3    H211818   0.413   6.676   0.278 -1.0016 -1.0844 -0.3751
 3952TIP3   OH211819   1.144   2.316   5.640 -0.3706 -0.2804 -0.7400
 3952TIP3    H111820   1.138   2.373   5.717 -1.4149  1.0646 -1.7629
 3952TIP3    H211821   1.222   2.262   5.656  0.2191  0.9112  0.6215
 3953TIP3   OH211822   3.553   0.290   2.190 -0.1655 -0.2265  0.5548
 3953TIP3    H111823   3.543   0.195   2.189 -0.6059 -0.2228  1.9915
 3953TIP3    H211824   3.532   0.315   2.280  1.8709  1.0120  0.7626
 3954TIP3   OH211825   4.892   5.338   2.773 -0.8867 -0.1400 -0.5281
 3954TIP3    H111826   4.926   5.278   2.707 -1.9974 -0.5320 -0.7675
 3954TIP3    H211827   4.802   5.356   2.745 -1.3106 -0.1439  0.7596
 3955TIP3   OH211828   2.118   1.599   3.113 -0.8031  0.3603  0.0967
 3955TIP3    H111829   2.114   1.515   3.067  2.4150  0.4790 -0.6654
 3955TIP3    H211830   2.093   1.578   3.203 -0.9888 -1.2267 -0.2911
 3956TIP3   OH211831   3.352   0.613   5.033 -0.3626  0.1810  0.0070
 3956TIP3    H111832   3.333   0.526   5.069  0.0230  0.4652  0.9511
 3956TIP3    H211833   3.364   0.599   4.939 -0.7420 -0.7090  0.0843
 3957TIP3   OH211834   4.568   2.184   1.311  0.0025  0.4235 -0.0982
 3957TIP3    H111835   4.492   2.128   1.294  0.2758 -0.3902  1.1832
 3957TIP3    H211836   4.643   2.127   1.300  0.5075  1.3728 -1.9441
 3958TIP3   OH211837   2.417   6.596   3.707 -0.2658 -0.8179  0.4286
 3958TIP3    H111838   2.419   6.628   3.798  2.9636  2.3738 -0.5486
 3958TIP3    H211839   2.420   6.675   3.654  4.5987 -2.4181 -2.3037
 3959TIP3   OH211840   1.145   5.704   0.047 -0.4831 -0.3020 -0.3600
 3959TIP3    H111841   1.204   5.702  -0.028 -0.2412 -0.6081 -0.1647
 3959TIP3    H211842   1.197   5.670   0.120 -0.1336  1.6891  0.3766
 3960TIP3   OH211843   0.994   2.083   2.850  0.3012  0.7810 -0.4811
 3960TIP3    H111844   0.975   2.176   2.863 -1.0683  0.4364  0.1566
 3960TIP3    H211845   0.920   2.038   2.889  1.2362 -0.6132 -0.2499
 3961TIP3   OH211846   5.940   3.692   1.637 -0.3579  0.4229 -0.0174
 3961TIP3    H111847   6.002   3.734   1.697  1.4675 -0.4896 -1.1462
 3961TIP3    H211848   5.856   3.699   1.681  0.5949  1.3638  1.8093
 3962TIP3   OH211849   3.034   1.805   3.516  0.2914 -0.4831 -0.0760
 3962TIP3    H111850   3.073   1.832   3.600  0.6540  0.1960 -0.4581
 3962TIP3    H211851   3.031   1.709   3.521  1.6013 -0.5323  0.1547
 3963TIP3   OH211852   3.560   1.075   4.053  0.0435 -0.0789  0.4057
 3963TIP3    H111853   3.637   1.099   4.104  0.3117  0.2539 -0.1386
 3963TIP3    H211854   3.594   1.061   3.964 -0.5978  0.6172  0.0352
 3964TIP3   OH211855   5.278   3.739   4.793 -0.2920  0.3087 -0.5322
 3964TIP3    H111856   5.369   3.756   4.818 -0.1681 -0.2705 -0.5738
 3964TIP3    H211857   5.281   3.659   4.741 -0.8344  0.2493 -0.4852
 3965TIP3   OH211858   1.328   3.944   0.245 -0.7316 -0.0425 -0.2101
 3965TIP3    H111859   1.389   3.913   0.177 -2.3430 -2.0561 -0.8454
 3965TIP3    H211860   1.256   3.982   0.196 -0.9406  0.4330  0.4582
 3966TIP3   OH211861   5.144   6.457   5.612  0.0811  0.4558  0.2036
 3966TIP3    H111862   5.096   6.502   5.542 -2.7468 -1.2112  0.9506
 3966TIP3    H211863   5.159   6.369   5.578  0.6288  0.2809  0.8788
 3967TIP3   OH211864   3.518   4.206   0.910  0.0729  0.0248  0.6575
 3967TIP3    H111865   3.528   4.115   0.936 -1.9558 -0.7863 -1.1832
 3967TIP3    H211866   3.563   4.213   0.826 -0.9091  0.3461  0.1369
 3968TIP3   OH211867   2.823   0.612   0.699 -0.2107  0.6129 -0.3626
 3968TIP3    H111868   2.871   0.529   0.689  2.6665  2.1307 -0.2519
 3968TIP3    H211869   2.801   0.638   0.610 -0.6508  0.0028 -0.4388
 3969TIP3   OH211870   0.100   0.289   1.947  0.6311 -0.1579  0.1639
 3969TIP3    H111871   0.056   0.275   1.863  0.5673 -1.8860  0.4488
 3969TIP3    H211872   0.128   0.380   1.944 -1.5680  0.5725 -0.6940
 3970TIP3   OH211873   0.417   6.459   3.043 -0.4455 -0.1777  0.5538
 3970TIP3    H111874   0.425   6.404   3.121 -0.5638  0.6251  1.1391
 3970TIP3    H211875   0.507   6.468   3.011 -0.5224 -1.4911 -0.1151
 3971TIP3   OH211876   5.616   1.374   1.038  0.5921 -0.2906  0.3955
 3971TIP3    H111877   5.678   1.388   1.109 -1.5720  1.5164  2.0960
 3971TIP3    H211878   5.595   1.463   1.007  2.1502 -1.0038 -3.2864
 3972TIP3   OH211879   0.242   6.358   4.131  0.1959  0.2633 -0.5229
 3972TIP3    H111880   0.220   6.284   4.188  1.2638  0.6473  0.4158
 3972TIP3    H211881   0.169   6.419   4.142  0.5342  0.4757  0.7148
 3973TIP3   OH211882   5.417   2.767   3.492 -0.3010  0.3978  0.3216
 3973TIP3    H111883   5.372   2.786   3.410 -1.1558 -0.2453  0.6199
 3973TIP3    H211884   5.505   2.741   3.466 -0.9010 -0.9308 -0.4980
 3974TIP3   OH211885   3.406   5.482   4.164  0.4363  0.1282 -0.0464
 3974TIP3    H111886   3.396   5.389   4.182  0.3233  0.0298 -0.5851
 3974TIP3    H211887   3.321   5.520   4.184  0.9386  0.3851  1.6975
 3975TIP3   OH211888   3.411   5.203   4.214  0.6581 -0.1954 -0.2980
 3975TIP3    H111889   3.368   5.190   4.299 -0.1804  1.9416 -0.3380
 3975TIP3    H211890   3.504   5.201   4.234  0.5043  2.3280  1.1366
 3976TIP3   OH211891   0.922   5.136   0.136 -0.3336  0.1122 -0.1312
 3976TIP3    H111892   0.888   5.210   0.085  0.1680  0.9320  0.6925
 3976TIP3    H211893   1.013   5.128   0.108 -0.4418 -0.3453 -0.3699
 3977TIP3   OH211894   5.398   1.854   4.221 -0.0496 -0.7289  0.1968
 3977TIP3    H111895   5.340   1.778   4.226  0.5278 -1.1201  1.3019
 3977TIP3    H211896   5.454   1.836   4.145  0.3632 -1.6358  0.6895
 3978TIP3   OH211897   6.140   4.380   2.724 -0.8069 -0.4778 -0.2792
 3978TIP3    H111898   6.232   4.378   2.696 -0.5089 -0.2801  0.6427
 3978TIP3    H211899   6.119   4.473   2.730 -1.3546 -0.5179 -1.3504
 3979TIP3   OH211900   0.868   0.391   1.683 -0.0324 -0.0754  0.3147
 3979TIP3    H111901   0.861   0.375   1.589  1.7112 -0.7406  0.2718
 3979TIP3    H211902   0.777   0.397   1.713 -0.6255  0.7081 -1.4862
 3980TIP3   OH211903   6.557   1.394   4.852 -0.5254 -0.3605  0.4583
 3980TIP3    H111904   6.603   1.373   4.934 -0.9438  0.6832  0.9824
 3980TIP3    H211905   6.605   1.468   4.815 -1.0585 -0.0322  0.4025
 3981TIP3   OH211906   3.734   1.832   0.149  0.3164 -0.2937 -0.1214
 3981TIP3    H111907   3.638   1.828   0.148  0.2855  0.2845 -1.4035
 3981TIP3    H211908   3.761   1.750   0.190 -0.6351 -3.0107 -4.3667
 3982TIP3   OH211909   0.783   5.830   5.164 -0.0217  0.2833 -0.1852
 3982TIP3    H111910   0.823   5.821   5.077  1.0238 -1.6960  0.4302
 3982TIP3    H211911   0.834   5.898   5.207  0.6340  0.0225 -0.5235
 3983TIP3   OH211912   4.517   5.179   2.128 -0.1403  0.0755 -0.3612
 3983TIP3    H111913   4.601   5.160   2.085 -0.3839 -0.6830 -0.5199
 3983TIP3    H211914   4.539   5.189   2.220  0.1171 -0.1911 -0.3921
 3984TIP3   OH211915   1.247   5.525   5.580  0.2229  0.4024  0.1738
 3984TIP3    H111916   1.185   5.458   5.548  1.2659 -0.5097  0.0129
 3984TIP3    H211917   1.209   5.554   5.663 -1.7215  1.6919 -1.0699
 3985TIP3   OH211918   4.470   6.429   0.988  0.5030 -0.1168  0.4932
 3985TIP3    H111919   4.485   6.487   1.062  0.8098  1.4740 -0.7443
 3985TIP3    H211920   4.375   6.421   0.982  0.4823 -0.4087  1.1616
 3986TIP3   OH211921   5.479   1.136   0.946 -0.0466 -0.2467  0.2701
 3986TIP3    H111922   5.553   1.193   0.927 -1.3462  1.5506  0.3350
 3986TIP3    H211923   5.440   1.172   1.025 -2.8590  0.9407 -1.4822
 3987TIP3   OH211924   2.477   5.707   0.521 -0.1847  0.2746  0.1854
 3987TIP3    H111925   2.458   5.801   0.513  0.0177  0.2646 -0.4305
 3987TIP3    H211926   2.534   5.688   0.447  0.4648 -0.1588  0.7827
 3988TIP3   OH211927   3.158   0.087   5.158 -0.3473  0.7536 -0.3657
 3988TIP3    H111928   3.166   0.167   5.107  1.5853  0.5430 -0.4599
 3988TIP3    H211929   3.211   0.103   5.236  1.3700 -0.9339 -1.0883
 3989TIP3   OH211930   0.883   2.627   2.535  0.2192  0.1031  0.3095
 3989TIP3    H111931   0.835   2.627   2.618 -1.0489 -0.5431 -0.4098
 3989TIP3    H211932   0.816   2.632   2.467  1.1392 -0.9334 -0.7269
 3990TIP3   OH211933   2.297   0.836   2.378  0.2850  0.1741  0.2091
 3990TIP3    H111934   2.203   0.853   2.386  0.2071 -0.3389  0.4265
 3990TIP3    H211935   2.314   0.834   2.284 -0.5565 -3.0040  0.0211
 3991TIP3   OH211936   7.176   1.403   0.935  0.1885  0.3545  0.0522
 3991TIP3    H111937   7.099   1.397   0.992  0.3024  2.5104  0.5171
 3991TIP3    H211938   7.147   1.457   0.862  0.5193 -1.0452 -1.1617
 3992TIP3   OH211939   5.568   3.571   3.316 -0.4801 -0.2108  0.0085
 3992TIP3    H111940   5.583   3.645   3.258 -0.0126  0.9285  1.5341
 3992TIP3    H211941   5.635   3.507   3.291  0.3366  0.6575 -0.0632
 3993TIP3   OH211942   4.216   1.303   2.781  0.0045 -0.5249  0.2538
 3993TIP3    H111943   4.136   1.356   2.777  0.4931  0.1594 -1.3499
 3993TIP3    H211944   4.241   1.304   2.873  0.1390  2.3612  0.2773
 3994TIP3   OH211945   6.527   2.651   1.106 -0.4974 -0.0698 -0.2138
 3994TIP3    H111946   6.618   2.681   1.107 -0.2420 -0.7646 -1.0470
 3994TIP3    H211947   6.476   2.732   1.095 -0.2945  0.8235  3.9134
 3995TIP3   OH211948   2.636   4.677   0.676  0.0543 -0.0133  0.2458
 3995TIP3    H111949   2.613   4.609   0.613  1.2085 -0.5051  0.3234
 3995TIP3    H211950   2.628   4.759   0.629 -1.2640 -0.1964  0.1187
 3996TIP3   OH211951   2.538   4.597   2.504 -0.3102  0.5162 -0.2701
 3996TIP3    H111952   2.586   4.514   2.511 -0.4549  0.3468 -1.1834
 3996TIP3    H211953   2.448   4.575   2.527 -0.6512  0.0962 -1.8747
 3997TIP3   OH211954   1.848   3.785   5.646  0.3002 -0.0217 -0.1111
 3997TIP3    H111955   1.849   3.873   5.684  0.4201 -0.4566  0.8990
 3997TIP3    H211956   1.934   3.776   5.605  0.1965  0.4137 -0.4425
 3998TIP3   OH211957   2.893   4.564   4.682  0.3274 -0.1389 -0.3266
 3998TIP3    H111958   2.916   4.612   4.602 -2.5169 -0.0760 -1.2100
 3998TIP3    H211959   2.889   4.631   4.750  2.4844 -0.1518 -0.1195
 3999TIP3   OH211960   4.204   3.663   2.599 -0.1331 -0.8006 -0.2792
 3999TIP3    H111961   4.215   3.758   2.592 -0.8770 -0.6649  0.3473
 3999TIP3    H211962   4.292   3.630   2.618 -0.0464 -0.1389  0.4998
 4000TIP3   OH211963   4.099   6.372   5.281 -0.0812 -0.2056  0.3436
 4000TIP3    H111964   4.039   6.375   5.356 -0.6641 -0.6059 -0.0992
 4000TIP3    H211965   4.077   6.290   5.237  0.7859 -0.3443  0.1623
 4001TIP3   OH211966   2.304   1.101   3.186  0.1587  0.8325  0.4669
 4001TIP3    H111967   2.398   1.109   3.168  0.5245 -0.4744  1.6520
 4001TIP3    H211968   2.282   1.012   3.161  0.4060 -0.6863  4.8103
 4002TIP3   OH211969   3.497   5.623   1.240  0.1122  0.6132  0.4870
 4002TIP3    H111970   3.579   5.624   1.190  0.1244  2.7684  0.4511
 4002TIP3    H211971   3.468   5.532   1.237  1.7284  0.0901 -0.7700
 4003TIP3   OH211972   4.386   1.021   2.494  0.1335 -0.3722 -0.2219
 4003TIP3    H111973   4.449   0.952   2.470  2.1985  1.2891  0.0907
 4003TIP3    H211974   4.435   1.080   2.551 -1.3827  1.6069 -0.8189
 4004TIP3   OH211975   3.154   1.290   2.305  0.5204  0.3353 -0.7232
 4004TIP3    H111976   3.085   1.355   2.293 -0.0121  0.1346  0.9683
 4004TIP3    H211977   3.122   1.213   2.257 -0.6371  0.1253  0.3304
 4005TIP3   OH211978   5.386   3.751   4.474  0.1967 -0.0730 -0.2697
 4005TIP3    H111979   5.431   3.689   4.531  1.3955 -1.3644 -2.4874
 4005TIP3    H211980   5.293   3.741   4.495  0.5910 -0.7065  1.2158
 4006TIP3   OH211981   0.234   1.170   5.174 -0.0346  0.0031  0.2439
 4006TIP3    H111982   0.202   1.140   5.259  2.2159  1.1100  1.5702
 4006TIP3    H211983   0.228   1.265   5.177 -0.1306  0.0533 -0.9446
 4007TIP3   OH211984   1.946   0.563   1.052 -0.2465 -0.6356 -0.9159
 4007TIP3    H111985   1.927   0.615   0.974  1.4075 -0.1480 -1.0304
 4007TIP3    H211986   2.003   0.493   1.021  0.8627 -0.1411 -0.0908
 4008TIP3   OH211987   3.921   4.672   3.504  0.2265  0.2688  0.0260
 4008TIP3    H111988   3.983   4.702   3.438 -1.2146  0.5521 -1.2572
 4008TIP3    H211989   3.904   4.749   3.558  0.9302  0.2051  0.3427
 4009TIP3   OH211990   6.312   3.508   2.509 -0.2928  0.3252 -0.2720
 4009TIP3    H111991   6.332   3.422   2.472  1.5851  1.3686 -1.8510
 4009TIP3    H211992   6.397   3.548   2.525 -0.9939  2.9904 -2.4086
 4010TIP3   OH211993   6.725   1.282   5.079 -0.1936 -0.0163  0.6080
 4010TIP3    H111994   6.729   1.252   5.170  2.4708  0.0700  0.5981
 4010TIP3    H211995   6.750   1.374   5.083  0.2245 -0.0864 -0.2359
 4011TIP3   OH211996   4.903   2.685   3.757  0.0532  0.0064  0.4689
 4011TIP3    H111997   4.949   2.750   3.810  0.7303 -0.2451  0.2085
 4011TIP3    H211998   4.832   2.733   3.716 -0.2364  0.2930  1.2826
 4012TIP3   OH211999   6.383   5.294   2.965  0.0007 -0.6752  0.4557
 4012TIP3    H112000   6.372   5.337   2.880 -0.7657  1.0812  1.3989
 4012TIP3    H212001   6.333   5.212   2.957 -1.6299  0.3297 -0.2026
 4013TIP3   OH212002   7.237   3.694   3.189 -0.0201 -0.6011 -0.1368
 4013TIP3    H112003   7.201   3.737   3.267  0.5522 -0.2145 -0.0848
 4013TIP3    H212004   7.169   3.632   3.163 -0.8216  0.2612 -0.1591
 4014TIP3   OH212005   6.966   2.901   2.507  0.7248  0.4258 -0.5620
 4014TIP3    H112006   7.005   2.843   2.572  0.4609 -1.0396 -1.6310
 4014TIP3    H212007   6.885   2.931   2.546  0.8859  0.0899  0.0354
 4015TIP3   OH212008   1.626   0.786   4.525 -0.3839  0.1117 -0.0121
 4015TIP3    H112009   1.669   0.826   4.601 -0.8721 -2.3458  1.6783
 4015TIP3    H212010   1.549   0.841   4.509  0.9362  1.9750 -0.2342
 4016TIP3   OH212011   6.804   1.618   3.331  0.0588 -0.0969  0.2631
 4016TIP3    H112012   6.841   1.553   3.271 -0.7283  0.7903 -1.2277
 4016TIP3    H212013   6.826   1.585   3.418  2.4540 -0.7117 -0.4957
 4017TIP3   OH212014   4.980   0.597   3.519 -0.1139  0.1386 -0.0178
 4017TIP3    H112015   5.071   0.625   3.527 -0.3086  0.5495  0.8945
 4017TIP3    H212016   4.948   0.593   3.609 -1.1244  0.4230 -0.3458
 4018TIP3   OH212017   1.174   1.233   2.000 -0.4294  0.3443  0.3899
 4018TIP3    H112018   1.232   1.296   1.958 -0.4846  0.3449  0.3135
 4018TIP3    H212019   1.146   1.175   1.930 -1.3324  0.9648  0.2200
 4019TIP3   OH212020   0.021   3.927   5.702 -0.5758 -0.6079  0.7158
 4019TIP3    H112021   0.006   3.960   5.613 -3.9441 -1.3665  0.8697
 4019TIP3    H212022   0.006   4.002   5.759  0.2066 -0.4429  0.7059
 4020TIP3   OH212023   4.079   5.943   3.615 -0.1668  0.1446  0.0319
 4020TIP3    H112024   4.015   5.878   3.588 -2.4813  2.8354 -1.4262
 4020TIP3    H212025   4.034   5.997   3.679  0.9479  1.5569 -0.3139
 4021TIP3   OH212026   4.099   2.070   3.448 -0.5032  0.4609 -0.0063
 4021TIP3    H112027   4.091   2.121   3.367 -0.8005  0.1210 -0.1899
 4021TIP3    H212028   4.058   1.986   3.429 -1.3763  0.6913  0.7677
 4022TIP3   OH212029   4.452   5.707   2.952 -0.4681 -0.1516 -0.0571
 4022TIP3    H112030   4.531   5.664   2.920 -0.9415 -2.1242  1.3011
 4022TIP3    H212031   4.412   5.745   2.873  1.3353  0.1169 -0.8862
 4023TIP3   OH212032   1.606   2.604   4.227 -0.2748  0.0661 -0.2630
 4023TIP3    H112033   1.589   2.515   4.196  1.3562 -0.2647 -0.3170
 4023TIP3    H212034   1.585   2.601   4.320 -2.3788  0.2652 -0.6900
 4024TIP3   OH212035   3.379   4.412   3.748 -0.1207  0.3633  0.3174
 4024TIP3    H112036   3.450   4.421   3.812  1.0846  0.2081 -0.9480
 4024TIP3    H212037   3.350   4.501   3.732  0.2510  0.4919  0.3461
 4025TIP3   OH212038   5.438   1.683   1.480  0.2635 -0.5573  0.1587
 4025TIP3    H112039   5.355   1.635   1.474 -0.6085  0.7125  1.3344
 4025TIP3    H212040   5.438   1.741   1.405 -0.5123  0.2993  0.8037
 4026TIP3   OH212041   4.647   4.211   5.070  0.0238  0.1726 -0.2048
 4026TIP3    H112042   4.740   4.231   5.072  0.0685 -0.0647  0.2081
 4026TIP3    H212043   4.626   4.185   5.159  0.1179 -2.2597 -0.8339
 4027TIP3   OH212044   5.322   3.251   1.970  0.1444  0.0688  0.3160
 4027TIP3    H112045   5.361   3.272   2.055 -3.5527 -1.9844  2.8392
 4027TIP3    H212046   5.258   3.321   1.955 -0.0690 -0.2176 -0.1501
 4028TIP3   OH212047   1.155   3.661   0.454  0.0191 -0.1675 -0.2789
 4028TIP3    H112048   1.215   3.658   0.380  0.3271 -2.3204  0.0128
 4028TIP3    H212049   1.093   3.590   0.438  0.2000 -0.7876  1.5969
 4029TIP3   OH212050   4.688   0.749   0.968 -0.3898 -0.4320  0.0172
 4029TIP3    H112051   4.735   0.812   1.022  1.5018 -1.2620 -0.6046
 4029TIP3    H212052   4.684   0.790   0.881  3.0130 -2.0308 -1.0600
 4030TIP3   OH212053   3.972   5.425   4.049  0.0818 -0.0635 -0.3827
 4030TIP3    H112054   4.009   5.469   4.125 -0.0356 -2.3999  1.1380
 4030TIP3    H212055   4.041   5.429   3.983  0.9529  0.3512  0.5300
 4031TIP3   OH212056   3.105   2.986   3.784  0.1769 -0.0565  0.1426
 4031TIP3    H112057   3.134   2.908   3.831 -0.5913 -0.1488  0.4742
 4031TIP3    H212058   3.091   2.956   3.694  3.2584  0.4687 -0.6519
 4032TIP3   OH212059   2.300   0.316   5.835 -0.6453 -0.0954  0.5320
 4032TIP3    H112060   2.323   0.298   5.926 -0.4620  1.1660  0.7596
 4032TIP3    H212061   2.356   0.258   5.784 -0.7568 -0.8234  1.2149
 4033TIP3   OH212062   4.073   1.276   4.646  0.2163  0.1469  0.4218
 4033TIP3    H112063   4.054   1.202   4.704 -3.4970 -0.3245 -1.0959
 4033TIP3    H212064   4.143   1.244   4.589 -0.9810 -2.1234  0.0970
 4034TIP3   OH212065   3.419   6.479   5.581 -0.1204  0.0920  0.1177
 4034TIP3    H112066   3.412   6.514   5.492  0.5803 -0.2023 -0.0619
 4034TIP3    H212067   3.483   6.409   5.573  0.5153  0.5567  0.9975
 4035TIP3   OH212068   6.794   2.426   3.658  0.3028 -0.2312  0.0458
 4035TIP3    H112069   6.815   2.359   3.593 -0.5785 -1.3686  0.8779
 4035TIP3    H212070   6.702   2.447   3.641 -0.8956 -2.6776  2.6173
 4036TIP3   OH212071   5.010   4.512   2.982  0.0493  0.3676  0.5081
 4036TIP3    H112072   5.073   4.561   2.929  0.6132 -1.0223 -0.1744
 4036TIP3    H212073   5.053   4.502   3.067  0.7043 -0.4252  0.0989
 4037TIP3   OH212074   5.421   1.961   1.963 -0.1313  0.3103  0.3659
 4037TIP3    H112075   5.359   2.034   1.955  2.4286  2.5502 -0.6669
 4037TIP3    H212076   5.437   1.934   1.873 -0.2268 -0.8120  0.6800
 4038TIP3   OH212077   5.520   4.257   4.030 -0.5824 -0.4630  0.0845
 4038TIP3    H112078   5.472   4.287   3.953  0.0292  0.3764  0.0232
 4038TIP3    H212079   5.598   4.215   3.995 -1.3898 -2.1080  0.1734
 4039TIP3   OH212080   5.803   5.678   1.685 -0.3304  0.2935 -0.1159
 4039TIP3    H112081   5.832   5.660   1.596  1.0411  1.5475  0.0436
 4039TIP3    H212082   5.813   5.594   1.730 -2.9041 -0.8828 -1.5471
 4040TIP3   OH212083   2.611   2.232   5.414  0.6062 -0.7706 -0.6163
 4040TIP3    H112084   2.698   2.271   5.425 -0.3671  1.3038  0.3790
 4040TIP3    H212085   2.618   2.181   5.334  2.6264 -0.2993 -0.7969
 4041TIP3   OH212086   5.340   3.593   3.832 -0.2483  0.4664  0.0112
 4041TIP3    H112087   5.338   3.536   3.908  0.1807 -0.3226 -0.5604
 4041TIP3    H212088   5.253   3.633   3.830 -0.5805 -0.2243  0.3841
 4042TIP3   OH212089   5.446   2.727   1.869 -0.3959  0.1327 -0.2772
 4042TIP3    H112090   5.500   2.805   1.854 -0.9390  0.6793  0.5240
 4042TIP3    H212091   5.377   2.757   1.928 -1.9974 -0.3553 -1.7971
 4043TIP3   OH212092   4.935   5.547   4.812  0.4089 -0.5909  0.1293
 4043TIP3    H112093   4.898   5.598   4.884 -1.2894  1.3064 -1.9420
 4043TIP3    H212094   5.015   5.510   4.848 -0.9923 -0.8249  3.3589
 4044TIP3   OH212095   3.874   6.633   0.680 -0.0613  0.1158  0.0127
 4044TIP3    H112096   3.844   6.716   0.643  0.6427  0.4300  0.1301
 4044TIP3    H212097   3.815   6.567   0.643  0.3132  0.4765 -1.2572
 4045TIP3   OH212098   4.183   5.395   5.845 -0.4025  0.0548 -0.6261
 4045TIP3    H112099   4.164   5.412   5.938 -0.6146  0.6242 -0.7691
 4045TIP3    H212100   4.202   5.302   5.842 -0.4491  0.0163 -0.0141
 4046TIP3   OH212101   4.178   1.409   0.717 -0.1093 -0.1189  0.3449
 4046TIP3    H112102   4.179   1.502   0.737 -2.6717 -0.0929  0.6817
 4046TIP3    H212103   4.234   1.400   0.640  1.7048  1.3544  1.3975
 4047TIP3   OH212104   1.323   4.926   2.026 -0.6639 -0.0801 -0.1404
 4047TIP3    H112105   1.297   5.010   2.065  0.7551  0.4069 -0.1796
 4047TIP3    H212106   1.240   4.882   2.007 -1.4311  1.0705  0.3998
 4048TIP3   OH212107   3.688   5.486   2.370  0.3272 -0.1960  0.0168
 4048TIP3    H112108   3.663   5.538   2.293  2.2531  0.3243 -0.2935
 4048TIP3    H212109   3.604   5.458   2.407 -0.8485  3.0580  0.1733
 4049TIP3   OH212110   6.323   0.619   0.234  0.3862 -0.4008  0.0968
 4049TIP3    H112111   6.287   0.565   0.164 -0.4895 -0.3394  0.4805
 4049TIP3    H212112   6.390   0.564   0.275  1.7430 -0.0107 -1.5003
 4050TIP3   OH212113   7.168   1.481   3.227  0.0916  0.3039  0.0080
 4050TIP3    H112114   7.083   1.463   3.188  0.7654 -2.1230 -0.5234
 4050TIP3    H212115   7.230   1.430   3.175  1.6213  0.4924  1.5229
 4051TIP3   OH212116   3.602   4.009   3.417 -0.0181  0.1918 -0.0886
 4051TIP3    H112117   3.627   3.952   3.490  2.7466 -0.3601 -1.3086
 4051TIP3    H212118   3.619   4.098   3.448  1.1157 -0.0381  0.0007
 4052TIP3   OH212119   0.731   3.996   1.116 -0.2444 -0.5681  0.3482
 4052TIP3    H112120   0.713   4.090   1.111  0.5265 -0.4161  0.3626
 4052TIP3    H212121   0.796   3.987   1.185  2.3325 -0.6880 -1.9162
 4053TIP3   OH212122   4.849   3.771   2.880 -0.0333  0.0510 -0.7935
 4053TIP3    H112123   4.862   3.833   2.952  0.5219  2.2448 -2.6297
 4053TIP3    H212124   4.891   3.690   2.909  0.4467  0.9511  1.1943
 4054TIP3   OH212125   6.590   6.296   1.488 -0.1621  0.2825 -0.4006
 4054TIP3    H112126   6.559   6.379   1.450  0.3174  1.3789  1.4517
 4054TIP3    H212127   6.679   6.315   1.517  0.0912 -1.0134 -0.2698
 4055TIP3   OH212128   1.667   0.031   2.383  0.1478  0.1136 -0.4855
 4055TIP3    H112129   1.679   0.125   2.402  2.2348 -0.2430  0.2502
 4055TIP3    H212130   1.691  -0.013   2.465 -0.4285 -1.0993 -0.9427
 4056TIP3   OH212131   3.486   5.093   3.919 -0.1153 -0.5287 -0.1517
 4056TIP3    H112132   3.456   5.115   4.007 -1.3015 -0.1394 -0.6356
 4056TIP3    H212133   3.476   4.998   3.913 -0.1004 -0.5471  0.1038
 4057TIP3   OH212134   4.704   3.380   5.804  0.1557 -0.2412  0.0316
 4057TIP3    H112135   4.640   3.357   5.871  0.0625 -0.1668 -0.0320
 4057TIP3    H212136   4.713   3.300   5.751 -1.3000  0.3161 -1.1101
 4058TIP3   OH212137   2.996   2.169   3.598  0.3895 -0.3881 -0.3635
 4058TIP3    H112138   3.091   2.177   3.586  0.1899  1.1150 -1.1761
 4058TIP3    H212139   2.977   2.216   3.679  0.3667 -0.9440 -0.0425
 4059TIP3   OH212140   2.820   1.667   1.179  0.2019 -0.7493 -0.1149
 4059TIP3    H112141   2.822   1.661   1.084  0.4937  2.3780 -0.4027
 4059TIP3    H212142   2.727   1.663   1.201  0.0778 -0.7015 -0.6116
 4060TIP3   OH212143   3.570   5.671   3.997 -0.5403  0.7371  0.6495
 4060TIP3    H112144   3.558   5.578   4.016 -0.1079  0.3476 -0.8386
 4060TIP3    H212145   3.481   5.706   3.996 -0.7562  0.2025  0.6146
 4061TIP3   OH212146   1.862   5.583   3.889  0.6729 -0.0440  0.1670
 4061TIP3    H112147   1.789   5.521   3.882 -0.4348  1.3250 -0.9936
 4061TIP3    H212148   1.899   5.567   3.975  0.6154 -2.5094 -0.1916
 4062TIP3   OH212149   1.542   5.644   4.164  0.6849  0.6127 -0.0035
 4062TIP3    H112150   1.486   5.652   4.087  0.9712  1.1952 -0.1595
 4062TIP3    H212151   1.542   5.550   4.184  1.6353  0.2490 -1.4893
 4063TIP3   OH212152   6.235   2.935   3.096 -0.0027 -0.7882 -0.3768
 4063TIP3    H112153   6.318   2.946   3.049  0.1054  0.5738  0.0955
 4063TIP3    H212154   6.174   2.903   3.029 -0.2857  2.6315 -1.9812
 4064TIP3   OH212155   6.615   3.031   4.783  0.3426  0.4541 -0.1219
 4064TIP3    H112156   6.610   2.986   4.867  1.0322  2.2693  0.9359
 4064TIP3    H212157   6.547   3.099   4.787 -0.1292  0.0978 -1.3512
 4065TIP3   OH212158   5.367   4.881   1.269 -0.1464 -0.4818 -0.0808
 4065TIP3    H112159   5.392   4.790   1.254  0.3844 -0.2366 -0.7168
 4065TIP3    H212160   5.343   4.884   1.361 -0.5983 -1.3640 -0.1572
 4066TIP3   OH212161   6.506   2.495   3.657 -0.1399  0.2157 -0.6499
 4066TIP3    H112162   6.463   2.550   3.591 -0.6807  0.7674  0.1414
 4066TIP3    H212163   6.445   2.423   3.671 -0.5193  0.6561  0.0019
 4067TIP3   OH212164   1.039   3.044   0.575  0.2149  0.0362 -0.9887
 4067TIP3    H112165   1.062   2.953   0.594 -0.1772  0.0610 -0.3783
 4067TIP3    H212166   0.962   3.038   0.518 -0.3568 -0.0122 -0.2254
 4068TIP3   OH212167   0.117   0.698   2.248 -0.2933  0.4110  0.5352
 4068TIP3    H112168   0.141   0.609   2.273 -0.0581 -0.2412 -1.8394
 4068TIP3    H212169   0.140   0.751   2.324  2.7970 -1.0574  0.7723
 4069TIP3   OH212170   6.833   1.137   2.152  0.2083 -0.2465 -0.3956
 4069TIP3    H112171   6.838   1.070   2.219 -1.0113  1.0208  1.0410
 4069TIP3    H212172   6.740   1.150   2.136  0.2922  2.1278  0.5254
 4070TIP3   OH212173   1.392   6.537   5.085 -0.4167 -0.1012  0.6628
 4070TIP3    H112174   1.463   6.534   5.021 -0.7680 -1.6498  0.3136
 4070TIP3    H212175   1.390   6.449   5.123 -2.0323 -0.0372  0.7843
 4071TIP3   OH212176   4.867   4.336   0.248  0.5105  0.2435  0.8964
 4071TIP3    H112177   4.920   4.278   0.302 -0.1924 -0.4396  0.8650
 4071TIP3    H212178   4.928   4.403   0.217  1.1232  0.0865  1.7380
 4072TIP3   OH212179   0.334   3.847   3.973  0.3049 -0.0354  0.0036
 4072TIP3    H112180   0.239   3.842   3.979  0.2567  0.1555 -0.5483
 4072TIP3    H212181   0.355   3.809   3.888  0.6378  0.8490 -0.3272
 4073TIP3   OH212182   1.914   5.970   0.846  0.6021  0.2760  0.3678
 4073TIP3    H112183   1.921   5.921   0.928  1.4155  1.0413  0.7738
 4073TIP3    H212184   1.912   5.902   0.778 -3.5656 -0.5870  1.0949
 4074TIP3   OH212185   3.579   4.869   1.957  0.3627  0.5975 -0.1064
 4074TIP3    H112186   3.670   4.855   1.983  0.5513  2.9598  0.7352
 4074TIP3    H212187   3.582   4.883   1.862  0.8972  0.8950 -0.0443
 4075TIP3   OH212188   0.291   2.181   1.452 -0.6906  0.1555  0.4164
 4075TIP3    H112189   0.335   2.124   1.515  1.2690 -0.3204 -1.2641
 4075TIP3    H212190   0.240   2.120   1.398  0.2167  0.1232 -0.4396
 4076TIP3   OH212191   6.727   3.675   0.785  0.5125 -0.1787  0.4860
 4076TIP3    H112192   6.735   3.616   0.710 -2.3363 -0.0974  0.0045
 4076TIP3    H212193   6.815   3.678   0.823  1.3100 -2.7700 -0.9242
 4077TIP3   OH212194   0.552   3.633   5.837  0.0338  0.1606 -1.0533
 4077TIP3    H112195   0.510   3.686   5.769  0.0876 -0.7237 -1.8005
 4077TIP3    H212196   0.575   3.552   5.793  0.3451 -0.3197 -0.0405
 4078TIP3   OH212197   2.815   3.322   5.280  0.3466  0.1085 -0.6621
 4078TIP3    H112198   2.761   3.388   5.324 -0.3001 -1.2478  0.6618
 4078TIP3    H212199   2.888   3.372   5.243  1.9720  1.2489  3.4649
 4079TIP3   OH212200   6.075   3.414   2.241 -0.5422  0.1619 -0.2003
 4079TIP3    H112201   6.081   3.331   2.288 -0.1025  0.3873  0.1552
 4079TIP3    H212202   5.991   3.411   2.195 -0.8320 -0.1911  0.3564
 4080TIP3   OH212203   2.029   6.687   1.565 -0.5638  0.5180  0.1708
 4080TIP3    H112204   2.007   6.743   1.490  0.5034 -1.4352 -1.7274
 4080TIP3    H212205   2.122   6.704   1.580 -0.6993  0.6608  0.8524
 4081TIP3   OH212206   4.670   4.487   2.545  0.6508  0.4632 -0.0126
 4081TIP3    H112207   4.597   4.424   2.552 -0.2546  1.1964 -2.2130
 4081TIP3    H212208   4.738   4.440   2.498  0.8893  0.4018  0.3846
 4082TIP3   OH212209   4.679   0.886   2.716 -0.0554  0.0753 -0.1376
 4082TIP3    H112210   4.700   0.850   2.630  0.7972 -0.9788  0.4983
 4082TIP3    H212211   4.695   0.815   2.777  0.1164  1.0457  0.9864
 4083TIP3   OH212212   7.145   3.856   1.263 -0.0221  0.1503  0.3825
 4083TIP3    H112213   7.069   3.876   1.317  0.0879  2.5812 -0.2570
 4083TIP3    H212214   7.216   3.910   1.299  0.9652 -0.7685 -0.1051
 4084TIP3   OH212215   6.287   2.633   2.943 -0.1630 -0.4410 -0.0391
 4084TIP3    H112216   6.231   2.698   2.901  0.5854  0.0322 -0.3175
 4084TIP3    H212217   6.243   2.550   2.926 -1.3643  0.0080  0.6909
 4085TIP3   OH212218   2.202   1.805   4.923  0.9734 -0.0598  0.0692
 4085TIP3    H112219   2.284   1.758   4.909  0.5227 -1.1475  1.0119
 4085TIP3    H212220   2.228   1.885   4.968  1.7514  0.6989 -1.6351
 4086TIP3   OH212221   5.241   1.248   5.317  0.2065 -0.2099  0.0983
 4086TIP3    H112222   5.163   1.282   5.274  0.7419  1.6577  0.5120
 4086TIP3    H212223   5.248   1.298   5.398  1.8439 -0.2908  0.0481
 4087TIP3   OH212224   3.079   6.097   2.695  0.3968 -0.1417 -0.3566
 4087TIP3    H112225   3.014   6.123   2.630  0.3628  0.1955 -0.1883
 4087TIP3    H212226   3.050   6.010   2.724 -0.4865  0.3711  0.3595
 4088TIP3   OH212227   5.221   3.808   3.666 -0.0984 -0.3576 -0.5459
 4088TIP3    H112228   5.234   3.755   3.587 -0.0306 -0.0886 -0.7170
 4088TIP3    H212229   5.172   3.885   3.636  1.7202  0.7834 -0.7543
 4089TIP3   OH212230   3.843   6.252   0.278  0.2917  0.3863  0.7042
 4089TIP3    H112231   3.857   6.184   0.212  0.8052 -0.2561  1.4564
 4089TIP3    H212232   3.810   6.204   0.355 -0.8965  1.1975  0.7310
 4090TIP3   OH212233   3.488   6.342   1.683 -0.3021 -0.4503  0.2949
 4090TIP3    H112234   3.550   6.316   1.615  0.9319 -0.3991  1.3650
 4090TIP3    H212235   3.504   6.435   1.696 -1.0340 -0.3040  0.1579
 4091TIP3   OH212236   4.250   5.667   1.804 -0.1594  0.3347  0.4276
 4091TIP3    H112237   4.204   5.640   1.725 -1.2768  1.7172  0.5724
 4091TIP3    H212238   4.227   5.759   1.815  0.2577  0.2644  2.1641
 4092TIP3   OH212239   2.650   5.423   1.535  0.2376  0.2215 -0.0951
 4092TIP3    H112240   2.607   5.507   1.515  3.1679  1.5083 -1.5221
 4092TIP3    H212241   2.683   5.435   1.624 -0.5601 -0.0122  0.2462
 4093TIP3   OH212242   5.878   0.456   1.924  0.3750  0.5447 -0.1689
 4093TIP3    H112243   5.902   0.509   1.847  0.1567 -0.1211 -0.6974
 4093TIP3    H212244   5.827   0.384   1.889  2.4174 -1.2148  0.2727
 4094TIP3   OH212245   3.988   2.796   4.187 -0.2687 -0.2402 -0.4875
 4094TIP3    H112246   4.001   2.701   4.190 -0.2432 -0.2020  1.2293
 4094TIP3    H212247   4.037   2.824   4.109 -0.0521 -1.5892 -0.8627
 4095TIP3   OH212248   6.499   5.939   1.921 -0.3254 -0.3879 -0.2297
 4095TIP3    H112249   6.542   6.022   1.943  0.4344 -0.9832  0.6079
 4095TIP3    H212250   6.543   5.874   1.976  0.4316 -1.6774 -2.2609
 4096TIP3   OH212251   5.545   0.554   3.475  0.2427 -0.1210 -0.2681
 4096TIP3    H112252   5.601   0.602   3.536 -1.5625 -0.9124  2.1660
 4096TIP3    H212253   5.508   0.483   3.528 -1.6360 -0.7099 -2.2500
 4097TIP3   OH212254   5.892   1.606   0.076 -0.1917 -0.5741 -0.2300
 4097TIP3    H112255   5.944   1.684   0.093  0.1255 -0.9233  0.4459
 4097TIP3    H212256   5.838   1.629   0.000 -0.3862  0.4295  0.1994
 4098TIP3   OH212257   0.668   1.140   4.572  0.2300 -0.1849  0.2412
 4098TIP3    H112258   0.750   1.181   4.545  0.2457 -0.4167 -0.0700
 4098TIP3    H212259   0.657   1.167   4.663  0.1576  0.6315 -0.0076
 4099TIP3   OH212260   5.045   2.751   1.684  0.0765  0.0805 -1.0818
 4099TIP3    H112261   5.095   2.832   1.679 -0.6059  0.5380 -0.6340
 4099TIP3    H212262   5.109   2.682   1.669  1.0779  0.5870  0.6470
 4100TIP3   OH212263   6.016   0.345   2.513 -0.2733 -0.0661  0.0933
 4100TIP3    H112264   6.015   0.254   2.481 -1.7223  0.2636 -0.9306
 4100TIP3    H212265   5.966   0.342   2.595  1.4695 -0.5196  1.1816
 4101TIP3   OH212266   2.970   2.968   2.994 -0.5174 -0.2747  0.0212
 4101TIP3    H112267   2.927   2.890   3.029  0.7259 -0.9370  0.1153
 4101TIP3    H212268   2.915   3.041   3.023 -1.2726 -1.0583  0.5892
 4102TIP3   OH212269   3.808   1.958   2.232 -0.0532 -0.2346 -0.2118
 4102TIP3    H112270   3.883   1.994   2.278 -1.0099  1.4721  0.1038
 4102TIP3    H212271   3.829   1.865   2.220  2.3047  0.2786 -0.5871
 4103TIP3   OH212272   2.217   3.029   1.236 -0.1180 -0.0908  0.2432
 4103TIP3    H112273   2.142   3.029   1.295  0.6572  0.6937  1.2619
 4103TIP3    H212274   2.190   3.083   1.161 -0.8018 -0.3800  0.2827
 4104TIP3   OH212275   0.207   4.963   1.111  0.1653  0.2240 -0.3717
 4104TIP3    H112276   0.226   4.888   1.168  0.6483 -1.3433 -2.4575
 4104TIP3    H212277   0.280   5.023   1.125 -0.1397  0.2594  1.2162
 4105TIP3   OH212278   1.081   3.245   4.308 -0.1778 -0.4908 -0.0648
 4105TIP3    H112279   1.130   3.241   4.227  0.8309 -2.3304  0.5707
 4105TIP3    H212280   1.074   3.339   4.328  3.1813 -0.0916 -0.1532
 4106TIP3   OH212281   5.050   4.462   0.118 -0.6650 -0.0029 -0.3410
 4106TIP3    H112282   5.026   4.554   0.110 -2.2077 -0.4784 -1.7877
 4106TIP3    H212283   5.136   4.463   0.160 -0.8106  2.0620  0.0126
 4107TIP3   OH212284   0.080   1.187   0.651  0.0611  0.3495  0.3551
 4107TIP3    H112285   0.152   1.143   0.696 -0.0237 -0.7899 -0.5662
 4107TIP3    H212286   0.014   1.119   0.639 -1.0419  1.2921  0.8677
 4108TIP3   OH212287   2.578   3.006   0.410 -0.2153  0.8807  0.0310
 4108TIP3    H112288   2.492   3.042   0.431  0.2278  1.2765  1.2681
 4108TIP3    H212289   2.633   3.029   0.485  0.9762  0.6368 -0.7306
 4109TIP3   OH212290   1.502   0.044   1.152  0.5369 -0.1007  0.3384
 4109TIP3    H112291   1.440   0.016   1.085 -0.4468  2.5226  0.0327
 4109TIP3    H212292   1.447   0.074   1.224  1.5661 -1.8663  1.9592
 4110TIP3   OH212293   0.188   3.929   2.257  0.7131 -0.4680  0.0038
 4110TIP3    H112294   0.137   3.886   2.326  0.6804 -0.3288  0.0665
 4110TIP3    H212295   0.247   3.988   2.304  1.4192 -1.1283 -0.0227
 4111TIP3   OH212296   3.327   1.421   2.874 -0.1133  0.5159  0.3376
 4111TIP3    H112297   3.343   1.486   2.942  0.6268 -2.3571  3.1657
 4111TIP3    H212298   3.262   1.362   2.912 -0.8884 -0.3750 -2.1597
 4112TIP3   OH212299   1.373   2.575   2.958 -0.2190 -0.4086 -0.6515
 4112TIP3    H112300   1.312   2.643   2.985  0.6456  0.2140 -0.2316
 4112TIP3    H212301   1.458   2.603   2.992  0.0087 -2.1868  0.4098
 4113TIP3   OH212302   0.099   1.606   0.407  0.5622 -0.0904  0.1178
 4113TIP3    H112303   0.180   1.626   0.360  0.3816  0.6156  0.0964
 4113TIP3    H212304   0.091   1.511   0.401  0.0985  0.0330 -2.0164
 4114TIP3   OH212305   6.794   0.242   3.858  0.0537  0.2445  0.5372
 4114TIP3    H112306   6.769   0.268   3.947  1.0234  0.8270  0.6591
 4114TIP3    H212307   6.888   0.264   3.853 -0.3813  2.0192 -1.2473
 4115TIP3   OH212308   7.045   6.078   0.693  0.5061  0.3947  0.6298
 4115TIP3    H112309   7.126   6.127   0.704  1.0294 -0.5345  1.0432
 4115TIP3    H212310   7.038   6.065   0.598  1.7393 -0.9458  0.6879
 4116TIP3   OH212311   3.074   4.514   3.614 -0.6809  0.3148  0.6675
 4116TIP3    H112312   3.127   4.434   3.620 -1.3038 -0.1354  0.3480
 4116TIP3    H212313   3.130   4.583   3.650 -0.4353 -0.4059  1.7250
 4117TIP3   OH212314   6.809   2.712   1.281  0.1909  0.1366 -0.8420
 4117TIP3    H112315   6.863   2.733   1.204 -1.0188 -1.2588 -2.1242
 4117TIP3    H212316   6.871   2.712   1.354  1.4279  1.2320 -1.8252
 4118TIP3   OH212317   5.237   6.245   1.316 -0.0421  0.5507  0.2506
 4118TIP3    H112318   5.167   6.210   1.371 -0.2674  0.2320 -0.2357
 4118TIP3    H212319   5.200   6.325   1.278  0.1155  0.7741  0.5595
 4119TIP3   OH212320   3.442   1.875   1.563  0.1946  0.2648 -0.3583
 4119TIP3    H112321   3.534   1.886   1.585  0.3287  0.9194 -1.2497
 4119TIP3    H212322   3.396   1.929   1.627  0.3102 -1.1568  1.0076
 4120TIP3   OH212323   3.024   1.794   3.167 -0.2501 -0.3893  0.1661
 4120TIP3    H112324   2.968   1.825   3.095  0.5320 -0.1686 -0.3594
 4120TIP3    H212325   3.079   1.869   3.189  0.8250 -1.0157 -0.2941
 4121TIP3   OH212326   1.407   3.445   2.625  0.3753 -0.4452 -0.5663
 4121TIP3    H112327   1.312   3.447   2.638  0.6581  0.5944  1.8788
 4121TIP3    H212328   1.419   3.400   2.542 -2.1620 -2.2861 -0.0407
 4122TIP3   OH212329   0.258   0.964   2.883  0.1602 -0.0592  0.4165
 4122TIP3    H112330   0.259   1.034   2.817  1.7998 -0.4234  0.0141
 4122TIP3    H212331   0.195   0.901   2.849 -2.2530  1.6633  1.3528
 4123TIP3   OH212332   5.724   4.112   3.674  0.0957  0.2760 -0.0181
 4123TIP3    H112333   5.635   4.076   3.679  0.5401 -1.3578 -2.2824
 4123TIP3    H212334   5.781   4.038   3.694  1.0571  1.6894  3.1472
 4124TIP3   OH212335   0.247   5.484   3.633  0.1759  0.0629  0.3788
 4124TIP3    H112336   0.229   5.559   3.689 -1.5593  0.0565 -0.1231
 4124TIP3    H212337   0.313   5.434   3.681 -0.2514  0.7683  1.7583
 4125TIP3   OH212338   0.682   0.734   3.999  0.1950 -0.3403 -0.2017
 4125TIP3    H112339   0.717   0.692   3.920 -0.1279 -0.9355 -0.0378
 4125TIP3    H212340   0.592   0.756   3.975  0.9117  2.0971 -0.9710
 4126TIP3   OH212341   4.856   6.091   4.740  0.5592  0.8375  0.2310
 4126TIP3    H112342   4.950   6.108   4.748  0.9548 -0.6601 -0.8668
 4126TIP3    H212343   4.844   6.005   4.781 -0.1856  0.6310 -0.4065
 4127TIP3   OH212344   1.310   5.994   3.242 -0.1695  0.1019  0.2125
 4127TIP3    H112345   1.400   6.023   3.258 -0.1498 -0.1594  0.5923
 4127TIP3    H212346   1.257   6.048   3.301 -0.2341  0.0757  0.1780
 4128TIP3   OH212347   5.995   4.416   1.059  0.3565 -0.6302  0.0219
 4128TIP3    H112348   6.081   4.382   1.036  0.8624  0.8237 -0.2785
 4128TIP3    H212349   5.960   4.351   1.121  1.8547 -0.9892  0.5298
 4129TIP3   OH212350   2.093   5.361   4.853  0.6113  0.0979  0.1897
 4129TIP3    H112351   2.100   5.369   4.948  0.1932  1.3056  0.1370
 4129TIP3    H212352   2.006   5.397   4.832  1.0478  0.6746 -0.7220
 4130TIP3   OH212353   1.423   0.704   0.009 -0.4975  0.2905 -0.1434
 4130TIP3    H112354   1.492   0.725  -0.054  1.5856 -0.0410  1.8649
 4130TIP3    H212355   1.449   0.752   0.088 -2.0318 -0.6848  0.9951
 4131TIP3   OH212356   1.864   6.017   4.526  0.0761 -0.0716  0.6205
 4131TIP3    H112357   1.959   6.030   4.521 -0.0883  0.9181 -0.3142
 4131TIP3    H212358   1.849   5.982   4.614  1.1007  1.8640  1.6335
 4132TIP3   OH212359   2.493   5.048   5.759  0.1291 -0.5901  0.5395
 4132TIP3    H112360   2.425   4.995   5.801 -0.1325 -0.1399  0.6908
 4132TIP3    H212361   2.469   5.049   5.667 -0.3859  0.0216  0.6722
 4133TIP3   OH212362   6.947   0.825   2.018  0.4658 -0.2547  0.0514
 4133TIP3    H112363   6.990   0.849   2.100  1.9840 -2.6028  0.0523
 4133TIP3    H212364   6.857   0.803   2.043  0.2475  1.2556  0.6716
 4134TIP3   OH212365   3.932   2.038   5.052 -0.2063 -0.1536 -0.3272
 4134TIP3    H112366   3.942   2.094   5.128  0.3007 -0.6405 -0.0287
 4134TIP3    H212367   3.992   2.074   4.987 -0.8698  0.4512 -0.6138
 4135TIP3   OH212368   0.293   5.254   4.653 -0.0240  0.4362  0.2314
 4135TIP3    H112369   0.385   5.264   4.678  0.1575  0.2019 -0.3300
 4135TIP3    H212370   0.278   5.159   4.654 -0.9549  0.5260  2.7467
 4136TIP3   OH212371   4.737   2.712   5.552  0.2261  0.6258  0.2405
 4136TIP3    H112372   4.812   2.690   5.607  0.8518  0.8361 -0.5140
 4136TIP3    H212373   4.718   2.631   5.505 -0.6466  0.2890  1.1292
 4137TIP3   OH212374   4.374   0.222   3.731  0.6037  0.3466  0.0470
 4137TIP3    H112375   4.316   0.146   3.734 -0.7238  1.3221 -0.1486
 4137TIP3    H212376   4.334   0.286   3.790  1.0777  1.3114 -0.6487
 4138TIP3   OH212377   6.199   6.407   5.138 -0.0230 -0.6615 -0.8518
 4138TIP3    H112378   6.193   6.321   5.098  0.2429 -1.4009  0.6366
 4138TIP3    H212379   6.158   6.397   5.223  1.4325  0.2488 -0.0016
 4139TIP3   OH212380   2.331   0.039   5.530  0.5495  0.0735  0.1814
 4139TIP3    H112381   2.313   0.087   5.449  2.4624  0.3377 -0.1442
 4139TIP3    H212382   2.356  -0.049   5.501 -2.0497 -0.9137  0.7232
 4140TIP3   OH212383   6.269   1.199   4.355 -0.1059  0.2579  0.0179
 4140TIP3    H112384   6.286   1.127   4.294 -1.4347  0.6382 -0.8590
 4140TIP3    H212385   6.215   1.160   4.423 -2.8385  0.8264 -1.6642
 4141TIP3   OH212386   4.702   4.404   3.303 -0.4430  0.0858 -0.8254
 4141TIP3    H112387   4.749   4.456   3.368 -0.3318  0.0171 -0.8516
 4141TIP3    H212388   4.726   4.443   3.219  0.1936 -0.4420 -0.8984
 4142TIP3   OH212389   0.847   0.377   2.745 -0.6063  0.4627 -0.3806
 4142TIP3    H112390   0.833   0.357   2.652  1.3663 -1.4100 -0.3406
 4142TIP3    H212391   0.932   0.339   2.766 -2.2208 -1.8631  2.9269
 4143TIP3   OH212392   2.259   6.555   1.082 -0.2952  0.0089  0.0805
 4143TIP3    H112393   2.304   6.635   1.055 -1.4739  0.5778 -0.2590
 4143TIP3    H212394   2.237   6.511   1.000 -1.3293  0.2980  0.1872
 4144TIP3   OH212395   6.120   2.264   1.097  1.3032 -0.0355  0.2878
 4144TIP3    H112396   6.157   2.294   1.014  0.3168 -1.1180 -0.5739
 4144TIP3    H212397   6.087   2.343   1.139  0.8143  0.3819 -0.8654
 4145TIP3   OH212398   4.156   5.504   3.561 -0.3909 -0.2316  0.3589
 4145TIP3    H112399   4.141   5.417   3.524 -1.1303  0.3443 -0.7493
 4145TIP3    H212400   4.241   5.531   3.528  0.2371 -0.8552  1.3966
 4146TIP3   OH212401   5.922   5.065   0.548 -0.2270 -0.5524 -0.1252
 4146TIP3    H112402   5.908   5.110   0.631 -0.0545 -0.7087 -0.0102
 4146TIP3    H212403   5.863   5.109   0.486 -0.0459 -0.1578 -0.0201
 4147TIP3   OH212404   0.346   1.598   2.989 -0.2421 -0.1134  0.2190
 4147TIP3    H112405   0.363   1.512   3.027  1.7216  0.9769  1.9641
 4147TIP3    H212406   0.324   1.579   2.897  0.0877 -2.4488  0.5620
 4148TIP3   OH212407   5.475   0.137   2.879  0.0320  0.0425 -0.8535
 4148TIP3    H112408   5.487   0.223   2.919 -1.2876  0.6330 -1.6740
 4148TIP3    H212409   5.386   0.111   2.903 -0.0693 -0.4766 -1.7505
 4149TIP3   OH212410   1.125   4.621   1.367  0.2722  0.7875  0.0383
 4149TIP3    H112411   1.197   4.673   1.404  0.9126  0.0056 -0.0862
 4149TIP3    H212412   1.158   4.531   1.365 -0.7640  0.3884  0.1025
 4150TIP3   OH212413   1.396   2.101   2.361 -0.2254 -0.0507  0.0465
 4150TIP3    H112414   1.392   2.008   2.381  1.2494 -0.2507 -0.5025
 4150TIP3    H212415   1.477   2.112   2.311 -1.0697  1.2863 -1.1228
 4151TIP3   OH212416   2.301   1.896   0.576  0.2691  0.1613 -0.0031
 4151TIP3    H112417   2.304   1.982   0.536 -0.3395  0.0936 -0.2012
 4151TIP3    H212418   2.291   1.913   0.670  0.6927  0.3053  0.0195
 4152TIP3   OH212419   6.458   6.221   2.116  0.3859 -0.6632  0.6686
 4152TIP3    H112420   6.494   6.160   2.180  1.4173  0.1788  0.9285
 4152TIP3    H212421   6.522   6.221   2.044 -0.7324 -1.5687 -0.3808
 4153TIP3   OH212422   5.629   0.960   3.134  0.2059 -0.2844 -0.1712
 4153TIP3    H112423   5.593   0.893   3.192  1.2337 -0.6210  0.1015
 4153TIP3    H212424   5.560   1.026   3.126 -0.3009 -0.7108  0.6525
 4154TIP3   OH212425   3.089   4.601   2.902 -0.0304 -0.0322  0.5375
 4154TIP3    H112426   3.083   4.681   2.850 -3.4770 -1.1835 -1.1695
 4154TIP3    H212427   3.091   4.630   2.993  1.8075  1.9721 -0.0737
 4155TIP3   OH212428   3.609   3.101   2.351  0.0193  0.1651 -0.3832
 4155TIP3    H112429   3.611   3.023   2.407  0.0274  0.6584  0.3133
 4155TIP3    H212430   3.601   3.174   2.412 -0.4262  0.6876 -1.0572
 4156TIP3   OH212431   0.805   5.300   3.134  0.0505 -0.4547  0.0440
 4156TIP3    H112432   0.772   5.259   3.214 -2.0023 -0.1708 -0.5749
 4156TIP3    H212433   0.826   5.227   3.076  0.8860 -0.6517  0.5903
 4157TIP3   OH212434   1.103   0.841   3.225  0.7292 -0.9843 -0.2192
 4157TIP3    H112435   1.164   0.808   3.290  0.8660 -0.0673  0.1414
 4157TIP3    H212436   1.114   0.936   3.229  0.0751 -0.8714 -0.9311
 4158TIP3   OH212437   2.223   3.614   5.014  0.7657 -0.3703 -0.3562
 4158TIP3    H112438   2.277   3.538   5.030  0.9764 -0.3606 -0.9914
 4158TIP3    H212439   2.284   3.687   5.006  0.9040 -0.6628 -3.1016
 4159TIP3   OH212440   5.252   2.366   2.917  0.0227 -0.5756  0.2353
 4159TIP3    H112441   5.174   2.319   2.887  0.4713 -1.8324  0.9674
 4159TIP3    H212442   5.253   2.354   3.012 -1.3192  3.2373  0.9101
 4160TIP3   OH212443   3.579   4.692   2.516 -0.2991  0.0852  0.1212
 4160TIP3    H112444   3.665   4.701   2.477 -0.7614  0.4112 -0.8474
 4160TIP3    H212445   3.518   4.717   2.447 -1.0750  3.0509  1.6820
 4161TIP3   OH212446   1.660   1.882   5.168 -0.3973 -0.5435  0.6391
 4161TIP3    H112447   1.654   1.820   5.096  1.2172  0.6278 -0.6068
 4161TIP3    H212448   1.571   1.917   5.178 -0.8273 -1.3719 -0.1859
 4162TIP3   OH212449   2.997   5.084   5.263  0.5672  0.0283 -0.5402
 4162TIP3    H112450   3.007   5.117   5.173  1.7931  0.3560 -0.3014
 4162TIP3    H212451   2.904   5.096   5.282  0.0825 -0.9351 -2.0918
 4163TIP3   OH212452   2.508   1.888   1.653  0.3547  0.5623 -0.2092
 4163TIP3    H112453   2.588   1.916   1.698  1.1640 -2.7852  0.6993
 4163TIP3    H212454   2.537   1.866   1.565  0.8265 -1.8559  0.4738
 4164TIP3   OH212455   6.318   6.538   2.516  0.4444 -0.1223 -0.0693
 4164TIP3    H112456   6.364   6.515   2.435  1.1984  1.3967 -0.1159
 4164TIP3    H212457   6.384   6.585   2.568 -0.2357 -0.4468  1.1303
 4165TIP3   OH212458   1.336   4.340   5.684 -0.1674  0.0389 -0.0972
 4165TIP3    H112459   1.391   4.418   5.687  0.0807 -0.1456  0.2872
 4165TIP3    H212460   1.248   4.372   5.667  0.3928  0.1892 -3.4187
 4166TIP3   OH212461   5.373   1.409   4.263 -0.1968  0.2481 -0.2741
 4166TIP3    H112462   5.301   1.413   4.325  0.1304  1.4845  0.0661
 4166TIP3    H212463   5.334   1.374   4.183 -0.8824 -0.2854  0.2833
 4167TIP3   OH212464   3.865   2.600   3.069  0.2544  0.0737  0.0614
 4167TIP3    H112465   3.869   2.694   3.051 -1.0951  0.1964  0.2523
 4167TIP3    H212466   3.951   2.567   3.045  0.5625  1.2698 -0.5643
 4168TIP3   OH212467   0.265   0.802   3.304 -0.0609  0.3702 -0.0151
 4168TIP3    H112468   0.279   0.835   3.393  1.1921  0.6559 -0.2863
 4168TIP3    H212469   0.185   0.750   3.309  1.3048 -1.7652  1.8904
 4169TIP3   OH212470   7.035   0.761   5.612  0.2443  0.1236  0.2094
 4169TIP3    H112471   6.961   0.712   5.575 -0.5058  2.1901 -1.2033
 4169TIP3    H212472   7.059   0.712   5.691  0.7614 -3.5462 -1.9836
 4170TIP3   OH212473   3.244   1.480   1.540  0.3136  0.0041  0.2893
 4170TIP3    H112474   3.178   1.531   1.586  0.0300 -0.6839  0.6472
 4170TIP3    H212475   3.197   1.440   1.467  0.2624 -0.7286  0.7169
 4171TIP3   OH212476   4.330   5.587   0.646  0.1419  0.6903 -0.1419
 4171TIP3    H112477   4.376   5.600   0.729 -1.2761 -1.8604  1.1386
 4171TIP3    H212478   4.252   5.642   0.653  0.0241  0.4809  0.2256
 4172TIP3   OH212479   4.443   5.821   2.459 -0.2171  0.1113 -0.6960
 4172TIP3    H112480   4.478   5.760   2.395  1.3744  0.2595 -0.0017
 4172TIP3    H212481   4.461   5.907   2.423 -1.9962  0.2269 -1.4251
 4173TIP3   OH212482   7.125   3.964   0.368 -0.0196 -0.4161 -0.2497
 4173TIP3    H112483   7.090   3.902   0.432  1.1767  0.1624  1.0347
 4173TIP3    H212484   7.191   3.915   0.320  0.3120 -0.3980  0.1745
 4174TIP3   OH212485   5.419   2.443   3.867  0.2337 -0.1061 -0.1482
 4174TIP3    H112486   5.467   2.371   3.826  1.5719  1.1653 -0.9001
 4174TIP3    H212487   5.401   2.504   3.796 -0.9508  0.2887  0.4646
 4175TIP3   OH212488   2.984   2.429   3.008  0.4825 -0.1352 -0.3771
 4175TIP3    H112489   3.066   2.406   2.964  0.5248  1.0929 -0.9940
 4175TIP3    H212490   3.010   2.446   3.099  1.1704  1.4707 -0.8342
 4176TIP3   OH212491   2.392   1.203   2.184 -0.1652 -0.2886 -0.1978
 4176TIP3    H112492   2.438   1.194   2.267  1.0417  3.1991 -0.2981
 4176TIP3    H212493   2.461   1.201   2.118  0.0162  4.0596 -0.4212
 4177TIP3   OH212494   2.992   2.616   1.961  0.0394 -0.0984  0.1776
 4177TIP3    H112495   3.030   2.684   1.907 -0.7052  0.9481  0.9274
 4177TIP3    H212496   2.927   2.573   1.905 -1.1186  1.3353  0.3587
 4178TIP3   OH212497   0.302   1.069   0.777  0.8621 -0.3562 -0.1978
 4178TIP3    H112498   0.345   1.133   0.719 -1.0856 -0.0049 -1.3462
 4178TIP3    H212499   0.371   1.006   0.798  2.2678  0.8909 -0.8597
 4179TIP3   OH212500   5.367   2.748   2.873 -0.1695 -0.0399  0.0397
 4179TIP3    H112501   5.412   2.739   2.957 -0.3056 -0.1588  0.1023
 4179TIP3    H212502   5.432   2.723   2.808  0.4917  1.7276 -0.0274
 4180TIP3   OH212503   0.864   3.107   3.686  0.3795 -0.1574 -0.8114
 4180TIP3    H112504   0.809   3.084   3.612  1.6597 -0.2242 -1.7848
 4180TIP3    H212505   0.936   3.044   3.683  0.0112 -0.7122  1.0331
 4181TIP3   OH212506   3.781   2.729   4.460 -0.3745 -0.3339  0.0522
 4181TIP3    H112507   3.826   2.777   4.389  0.7454 -2.9907 -1.1885
 4181TIP3    H212508   3.732   2.796   4.507  0.1251  1.8157 -2.2636
 4182TIP3   OH212509   1.246   4.148   2.670  0.1661  0.3896 -0.0423
 4182TIP3    H112510   1.179   4.116   2.610  1.2239  0.3622 -1.2433
 4182TIP3    H212511   1.229   4.242   2.677 -0.2960  0.3007  0.0608
 4183TIP3   OH212512   4.456   1.908   4.703  0.4767 -0.0576 -0.2817
 4183TIP3    H112513   4.420   1.916   4.615 -1.3968 -0.0330  0.4463
 4183TIP3    H212514   4.498   1.992   4.719  0.2842  0.1650 -0.9105
 4184TIP3   OH212515   6.199   0.144   3.485  0.2077  0.0731 -0.2746
 4184TIP3    H112516   6.199   0.232   3.447 -1.5698  0.1949 -0.0671
 4184TIP3    H212517   6.169   0.087   3.414 -0.6814 -0.0598  0.1988
 4185TIP3   OH212518   6.189   0.437   0.660  0.0447  0.1190  0.0400
 4185TIP3    H112519   6.277   0.466   0.636 -0.1053  0.8428  0.3555
 4185TIP3    H212520   6.183   0.451   0.754  0.2774 -1.7877  0.3885
 4186TIP3   OH212521   7.161   5.420   3.787 -0.5225 -0.0954  0.0253
 4186TIP3    H112522   7.131   5.510   3.773 -1.0015  0.2766  2.7897
 4186TIP3    H212523   7.083   5.372   3.815 -0.1272 -1.2108 -0.7338
 4187TIP3   OH212524   1.019   0.976   4.171 -0.3012  0.7969  0.1180
 4187TIP3    H112525   0.963   0.900   4.187  0.2032  0.0146 -1.5314
 4187TIP3    H212526   0.980   1.018   4.093  0.6247  1.0085 -0.2416
 4188TIP3   OH212527   0.694   1.794   0.876  0.3326  0.0523 -0.4056
 4188TIP3    H112528   0.700   1.740   0.955 -0.1329 -0.9822 -1.0631
 4188TIP3    H212529   0.614   1.766   0.833 -0.7784  2.3716  0.0017
 4189TIP3   OH212530   1.825   1.803   3.377  0.1468  0.3249 -0.0744
 4189TIP3    H112531   1.884   1.854   3.322  0.0079 -0.0536 -0.5736
 4189TIP3    H212532   1.882   1.760   3.441  0.1888  1.9151  1.0382
 4190TIP3   OH212533   4.753   3.654   5.733 -0.7033 -0.3406  1.0164
 4190TIP3    H112534   4.712   3.585   5.784 -0.8997 -0.9840  0.0233
 4190TIP3    H212535   4.827   3.611   5.690 -1.9037 -0.4394 -1.0775
 4191TIP3   OH212536   7.089   3.568   0.255  0.0334 -0.3679 -0.4366
 4191TIP3    H112537   7.019   3.525   0.205  1.2132 -1.7083 -0.9989
 4191TIP3    H212538   7.160   3.504   0.257  0.8838  0.5662  0.9957
 4192TIP3   OH212539   6.417   2.018   3.827  0.7678  0.5106 -0.3534
 4192TIP3    H112540   6.469   1.973   3.894 -1.0187 -1.7424 -0.3863
 4192TIP3    H212541   6.425   1.963   3.749 -1.1033  0.4412 -0.5383
 4193TIP3   OH212542   6.128   4.666   2.737  0.3934  0.2243 -0.4793
 4193TIP3    H112543   6.219   4.665   2.764  0.4370  0.4999 -0.6081
 4193TIP3    H212544   6.103   4.758   2.740 -0.3912 -0.0069  1.2130
 4194TIP3   OH212545   6.681   0.783   3.736  0.4555  0.0851  0.2577
 4194TIP3    H112546   6.632   0.755   3.659 -1.0423  0.9201  0.8742
 4194TIP3    H212547   6.637   0.740   3.810  1.6888 -0.4749  0.6873
 4195TIP3   OH212548   3.301   1.528   0.191 -0.0254 -0.1946 -0.5151
 4195TIP3    H112549   3.254   1.451   0.222  1.7633 -0.6334  1.3328
 4195TIP3    H212550   3.266   1.600   0.244 -0.9425  0.1209 -1.5047
 4196TIP3   OH212551   6.377   1.619   0.331 -0.0699  0.5545  0.2870
 4196TIP3    H112552   6.324   1.699   0.327  0.0799  0.6164 -1.3364
 4196TIP3    H212553   6.314   1.548   0.322 -0.0614  0.5649  0.1296
 4197TIP3   OH212554   6.918   4.142   2.317 -0.5176 -0.5759  0.0761
 4197TIP3    H112555   6.984   4.124   2.383  0.2781 -0.8697 -0.7669
 4197TIP3    H212556   6.860   4.206   2.357  0.5276  0.0131  0.6832
 4198TIP3   OH212557   6.847   3.207   1.335  0.3530 -0.0506 -0.0319
 4198TIP3    H112558   6.800   3.274   1.384  0.4480  0.5044 -0.6878
 4198TIP3    H212559   6.779   3.149   1.302  0.2653 -0.2463  0.4811
 4199TIP3   OH212560   3.468   2.123   5.454  0.1108  0.0508  0.5607
 4199TIP3    H112561   3.431   2.201   5.495 -0.9059  0.1666 -0.5350
 4199TIP3    H212562   3.397   2.087   5.401  0.8462 -1.1041  0.3177
 4200TIP3   OH212563   6.639   0.109   2.421 -0.5116  0.1603 -0.3116
 4200TIP3    H112564   6.591   0.107   2.338  2.0073  1.7939 -1.9267
 4200TIP3    H212565   6.617   0.194   2.459 -1.2327 -0.3656  0.5047
 4201TIP3   OH212566   4.492   4.926   5.383 -0.3948  0.5366 -0.0565
 4201TIP3    H112567   4.533   4.894   5.464  0.2129  0.4235 -0.4023
 4201TIP3    H212568   4.435   4.854   5.356 -0.1568  0.3382 -0.0372
 4202TIP3   OH212569   2.443   1.783   2.668  0.8123  0.1812 -0.1947
 4202TIP3    H112570   2.456   1.718   2.600  1.0132 -0.3819  0.3732
 4202TIP3    H212571   2.419   1.733   2.745 -1.2838  0.9317 -0.3044
 4203TIP3   OH212572   0.845   1.844   5.036 -0.4945 -0.1421  0.0186
 4203TIP3    H112573   0.773   1.786   5.059 -0.9803  0.3487 -0.2423
 4203TIP3    H212574   0.818   1.930   5.069 -0.4980  0.2554 -0.9887
 4204TIP3   OH212575   0.976   6.438   1.632  0.3724  0.3112 -0.3874
 4204TIP3    H112576   0.975   6.527   1.667 -0.5163  0.1580  0.0010
 4204TIP3    H212577   1.058   6.401   1.663  0.3942  0.7515  0.0918
 4205TIP3   OH212578   4.500   0.369   3.129  0.3685  0.4351 -0.1945
 4205TIP3    H112579   4.582   0.413   3.108 -0.0105  0.8740 -0.7732
 4205TIP3    H212580   4.527   0.284   3.164  1.0543  0.2158 -1.2215
 4206TIP3   OH212581   0.304   3.113   3.666 -0.2951  0.5039  0.1249
 4206TIP3    H112582   0.272   3.087   3.752  2.0665 -0.0413  0.9035
 4206TIP3    H212583   0.352   3.194   3.681 -0.1653  0.6052 -0.7500
 4207TIP3   OH212584   2.970   0.596   5.624  0.1936  0.1408  0.0080
 4207TIP3    H112585   2.907   0.627   5.688 -1.0804  1.4086 -1.7574
 4207TIP3    H212586   3.035   0.667   5.617 -0.0179  0.2925 -0.5160
 4208TIP3   OH212587   0.503   5.626   4.476  0.2649 -0.3830 -0.4375
 4208TIP3    H112588   0.491   5.542   4.433  1.0601 -0.9320  0.3801
 4208TIP3    H212589   0.446   5.686   4.428  2.3697 -0.5544 -3.4741
 4209TIP3   OH212590   0.072   1.750   3.621  0.1009 -0.1516 -0.1825
 4209TIP3    H112591   0.054   1.738   3.528 -1.3823  1.7985 -0.2079
 4209TIP3    H212592   0.065   1.662   3.659 -0.7373 -0.7614 -1.6896
 4210TIP3   OH212593   6.136   5.191   5.057  0.3175 -0.4845  0.4346
 4210TIP3    H112594   6.101   5.117   5.007 -0.7374  1.4701 -1.8872
 4210TIP3    H212595   6.231   5.182   5.049  0.1768 -0.3520 -1.7833
 4211TIP3   OH212596   6.740   1.362   0.150  0.0106 -0.3115 -0.0625
 4211TIP3    H112597   6.682   1.314   0.209  0.4997  0.9910  1.5464
 4211TIP3    H212598   6.735   1.453   0.180  2.9770 -0.1557  0.2756
 4212TIP3   OH212599   6.860   3.056   5.222 -0.3667 -0.3907 -0.5670
 4212TIP3    H112600   6.828   3.144   5.204  0.6438  0.1338  0.1485
 4212TIP3    H212601   6.925   3.067   5.291 -0.5868 -1.7552 -0.1071
 4213TIP3   OH212602   7.159   6.498   2.828 -0.6247  0.0442 -0.3663
 4213TIP3    H112603   7.113   6.423   2.866  0.7386  0.2020  1.7463
 4213TIP3    H212604   7.240   6.460   2.792  0.6987  0.5453  1.8481
 4214TIP3   OH212605   2.361   2.448   0.405 -0.7633  0.6576  0.3985
 4214TIP3    H112606   2.403   2.503   0.338  2.7519  2.4446  3.6905
 4214TIP3    H212607   2.304   2.508   0.453 -1.0494  0.1060  0.7556
 4215TIP3   OH212608   4.210   5.968   2.865 -0.3060 -0.0355  0.0312
 4215TIP3    H112609   4.299   5.970   2.829 -0.1436  0.9117  0.4669
 4215TIP3    H212610   4.158   6.020   2.804 -0.2299  0.7408  0.6120
 4216TIP3   OH212611   2.955   5.915   5.240 -0.2628 -0.1361 -0.4708
 4216TIP3    H112612   2.999   5.943   5.321  0.7027 -2.0492 -0.2751
 4216TIP3    H212613   2.980   5.982   5.176  1.1668  0.0034  0.1788
 4217TIP3   OH212614   7.045   3.273   4.941 -0.3670  0.3244 -0.7810
 4217TIP3    H112615   6.969   3.273   4.883  0.3163  1.3872 -1.7289
 4217TIP3    H212616   7.095   3.350   4.914 -0.6080  1.5988  2.0161
 4218TIP3   OH212617   1.476   5.802   2.831  0.3385 -0.2839  0.4463
 4218TIP3    H112618   1.394   5.800   2.881  0.7961 -0.2504  1.2226
 4218TIP3    H212619   1.448   5.802   2.740 -0.5667  1.0001  0.6851
 4219TIP3   OH212620   5.256   6.754   4.103  0.2720 -0.4235 -0.0419
 4219TIP3    H112621   5.181   6.730   4.049 -1.2548  0.9543  1.3656
 4219TIP3    H212622   5.271   6.678   4.159 -0.1033 -0.6804 -0.2889
 4220TIP3   OH212623   1.094   6.616   4.912 -0.2857  0.1349 -0.3519
 4220TIP3    H112624   1.137   6.535   4.938  3.9756  1.6012 -2.0518
 4220TIP3    H212625   1.021   6.588   4.857 -0.4938 -2.5046  1.1088
 4221TIP3   OH212626   6.382   5.010   0.969 -0.3687 -0.1364  0.2171
 4221TIP3    H112627   6.443   4.973   1.034  0.4299 -3.3776 -2.0741
 4221TIP3    H212628   6.296   5.000   1.008  0.0539 -2.4390  0.7130
 4222TIP3   OH212629   3.162   6.189   2.955 -0.1057 -0.7247 -0.4361
 4222TIP3    H112630   3.105   6.154   3.023 -0.0333 -0.9055 -0.4707
 4222TIP3    H212631   3.107   6.190   2.876 -0.0462 -0.9429 -0.4802
 4223TIP3   OH212632   6.755   2.014   0.532  1.0851 -1.0394  0.6451
 4223TIP3    H112633   6.662   2.034   0.532  1.3132  0.1368  1.0418
 4223TIP3    H212634   6.760   1.920   0.514 -0.1450 -1.0316  0.1718
 4224TIP3   OH212635   6.922   4.728   2.983  0.0577 -0.1056 -0.1636
 4224TIP3    H112636   6.962   4.740   3.069  0.0756  0.4511 -0.2494
 4224TIP3    H212637   6.995   4.704   2.926  0.1145 -0.0437 -0.1173
 4225TIP3   OH212638   1.921   4.914   1.106 -0.1575 -0.4338  0.0114
 4225TIP3    H112639   1.972   4.839   1.075  1.1533  0.5089 -0.1737
 4225TIP3    H212640   1.975   4.990   1.085 -2.0578  0.6985 -1.0880
 4226TIP3   OH212641   2.363   5.956   2.482 -0.8604 -1.0740 -0.2191
 4226TIP3    H112642   2.335   5.868   2.510 -1.1476 -1.6333 -2.1119
 4226TIP3    H212643   2.290   6.013   2.507 -0.1236 -1.0914  2.2078
 4227TIP3   OH212644   6.954   1.216   4.460 -0.0927  0.0526 -0.1656
 4227TIP3    H112645   6.985   1.305   4.473  2.3216 -0.5663 -1.0868
 4227TIP3    H212646   7.000   1.164   4.526 -0.7303 -0.6548 -0.2563
 4228TIP3   OH212647   3.163   5.845   4.782 -0.0048  0.4972  0.1096
 4228TIP3    H112648   3.187   5.937   4.787  1.5910  0.1550 -0.6698
 4228TIP3    H212649   3.245   5.800   4.764 -0.6081 -1.1707  1.2695
 4229TIP3   OH212650   4.419   1.911   1.263 -0.0523  0.0591  0.1117
 4229TIP3    H112651   4.336   1.958   1.251 -1.8150 -2.7130  0.3411
 4229TIP3    H212652   4.446   1.888   1.174 -0.0871  0.1064  0.0885
 4230TIP3   OH212653   3.857   6.508   5.777 -0.1873 -0.2437  0.0037
 4230TIP3    H112654   3.829   6.518   5.686  1.4337 -0.6816 -0.5703
 4230TIP3    H212655   3.907   6.587   5.796  0.8621 -0.8797 -0.0357
 4231TIP3   OH212656   7.023   3.223   0.859 -0.1003  0.0340  0.1085
 4231TIP3    H112657   6.984   3.237   0.773 -0.7580 -0.5308  0.3042
 4231TIP3    H212658   6.957   3.257   0.920 -0.5262 -1.3649  0.4632
 4232TIP3   OH212659   4.618   1.610   2.762 -0.1879 -0.4903 -0.4214
 4232TIP3    H112660   4.679   1.543   2.732  0.2423 -0.6606  0.7913
 4232TIP3    H212661   4.657   1.644   2.843 -2.2881 -1.5001  1.1138
 4233TIP3   OH212662   1.153   2.443   1.359 -0.3399  0.2914 -0.3039
 4233TIP3    H112663   1.157   2.533   1.326 -1.6951  0.3159 -0.4566
 4233TIP3    H212664   1.086   2.401   1.305 -1.3944 -0.1432  1.2921
 4234TIP3   OH212665   5.980   0.669   1.502 -0.2550 -0.0082 -0.0709
 4234TIP3    H112666   6.066   0.705   1.478 -0.2029 -0.7931 -1.1052
 4234TIP3    H212667   5.986   0.576   1.483 -1.2694 -0.1104  0.0362
 4235TIP3   OH212668   2.051   2.525   5.055  0.5744 -0.4262 -0.3550
 4235TIP3    H112669   1.992   2.454   5.030  0.0960 -0.2669  0.2950
 4235TIP3    H212670   2.100   2.491   5.130 -0.3004  0.2250  0.5499
 4236TIP3   OH212671   2.504   3.108   3.443  0.1578 -0.5227  0.0301
 4236TIP3    H112672   2.565   3.163   3.491  0.2061 -0.0898 -0.5236
 4236TIP3    H212673   2.472   3.045   3.509 -0.7143  0.8250  0.9449
 4237TIP3   OH212674   1.764   5.138   5.642 -0.0085  0.1874  0.0152
 4237TIP3    H112675   1.785   5.067   5.702  2.1434  0.1951 -0.6136
 4237TIP3    H212676   1.675   5.119   5.611  0.5953 -2.4207 -0.3595
 4238TIP3   OH212677   6.191   0.100   5.609  0.1517  0.2792  0.1765
 4238TIP3    H112678   6.187   0.099   5.514  1.4498 -1.5090  0.0817
 4238TIP3    H212679   6.272   0.148   5.629  0.9360 -1.0299  0.2634
 4239TIP3   OH212680   2.579   3.958   0.382 -0.0580 -0.2180 -0.0821
 4239TIP3    H112681   2.517   3.938   0.452  2.7549  0.9601  2.9944
 4239TIP3    H212682   2.592   3.874   0.337 -3.2925 -0.6305 -0.5257
 4240TIP3   OH212683   4.607   6.224   0.176 -0.3256  0.7807 -0.2675
 4240TIP3    H112684   4.534   6.280   0.152 -0.3350  1.3381  0.9962
 4240TIP3    H212685   4.682   6.259   0.127 -0.0345  2.7580  1.4399
 4241TIP3   OH212686   2.523   0.973   3.680 -0.4130 -0.2039 -0.5232
 4241TIP3    H112687   2.611   0.985   3.645 -0.6360  1.8720 -0.4683
 4241TIP3    H212688   2.534   0.978   3.775 -0.5934  0.1098 -0.5177
 4242TIP3   OH212689   0.160   5.470   1.071  0.6245 -0.5763  0.1832
 4242TIP3    H112690   0.175   5.561   1.049  0.5211 -0.5340  0.2836
 4242TIP3    H212691   0.209   5.420   1.005  1.7748 -0.4418  0.9140
 4243TIP3   OH212692   5.088   0.981   3.048 -0.3358 -1.2354  0.1982
 4243TIP3    H112693   5.177   0.958   3.072 -1.1031 -3.2939  1.3205
 4243TIP3    H212694   5.047   0.898   3.025 -1.6716 -0.1969 -1.4589
 4244TIP3   OH212695   4.221   3.247   2.366  0.1130 -1.4170 -0.1717
 4244TIP3    H112696   4.209   3.187   2.292 -0.0097 -0.7432 -0.6983
 4244TIP3    H212697   4.146   3.306   2.362  0.5043 -0.8969  0.0342
 4245TIP3   OH212698   6.192   0.370   4.344  1.3236  0.0494 -0.0093
 4245TIP3    H112699   6.247   0.423   4.286  2.9128 -0.5140  0.9134
 4245TIP3    H212700   6.143   0.434   4.396  0.5507  0.5599 -1.3128
 4246TIP3   OH212701   0.919   3.789   3.834  0.0875 -0.6455  0.3689
 4246TIP3    H112702   0.872   3.844   3.897  0.2114  1.3887 -1.1862
 4246TIP3    H212703   0.995   3.841   3.809  1.9527 -2.8783  1.0754
 4247TIP3   OH212704   4.764   3.232   5.041 -0.9662  0.6227  0.0817
 4247TIP3    H112705   4.675   3.202   5.026 -0.4831 -2.4689  2.3171
 4247TIP3    H212706   4.819   3.158   5.015  0.9066  2.1250 -0.4552
 4248TIP3   OH212707   3.480   6.416   2.821 -0.3916  0.2053 -0.2673
 4248TIP3    H112708   3.401   6.391   2.774  1.3246 -3.8658 -1.3424
 4248TIP3    H212709   3.466   6.383   2.910 -0.5720  1.1657  0.0810
 4249TIP3   OH212710   5.637   6.053   3.383  0.2288  0.4037 -0.8369
 4249TIP3    H112711   5.586   6.021   3.308  1.1603  1.4722 -1.9720
 4249TIP3    H212712   5.582   6.036   3.459 -0.1555 -2.0579 -1.5710
 4250TIP3   OH212713   4.810   5.933   1.633 -0.3378 -0.0069 -0.5135
 4250TIP3    H112714   4.794   5.982   1.713 -1.2287  0.8200 -1.1778
 4250TIP3    H212715   4.905   5.924   1.629 -0.2470  0.5204  0.2971
 4251TIP3   OH212716   4.876   1.879   0.408  0.1841 -0.4648 -0.6717
 4251TIP3    H112717   4.813   1.819   0.449 -0.0275 -0.1238 -0.4901
 4251TIP3    H212718   4.926   1.824   0.348 -0.2170 -0.7645 -0.7378
 4252TIP3   OH212719   1.368   1.767   3.039 -0.4583  0.1139 -0.1172
 4252TIP3    H112720   1.394   1.676   3.023 -1.1977 -0.1628  0.1780
 4252TIP3    H212721   1.329   1.795   2.956 -0.5600  0.0411 -0.0941
 4253TIP3   OH212722   3.664   2.378   1.682 -0.5609  0.3623 -0.5224
 4253TIP3    H112723   3.616   2.461   1.689  0.9342  1.2470 -0.4152
 4253TIP3    H212724   3.751   2.402   1.651  0.0573 -1.1209 -0.0588
 4254TIP3   OH212725   5.155   1.381   4.445 -0.7753  0.0328  0.0776
 4254TIP3    H112726   5.121   1.291   4.441  0.2023 -0.3381 -0.1055
 4254TIP3    H212727   5.162   1.400   4.538  1.8645 -1.2156  0.2145
 4255TIP3   OH212728   4.933   5.514   3.110 -0.5650  0.1192 -0.1454
 4255TIP3    H112729   4.933   5.419   3.122  0.3917 -0.1663 -2.0601
 4255TIP3    H212730   4.853   5.531   3.060 -1.1977  0.4697  0.9460
 4256TIP3   OH212731   3.061   5.418   5.012 -0.3558 -0.4918  0.8291
 4256TIP3    H112732   3.082   5.325   5.023 -1.9768 -1.4923 -2.9124
 4256TIP3    H212733   2.978   5.429   5.058 -0.9188 -1.3494  0.0655
 4257TIP3   OH212734   3.953   5.420   2.382  0.2482  0.1765  0.4193
 4257TIP3    H112735   3.868   5.458   2.360 -0.2028 -0.7929  0.4337
 4257TIP3    H212736   4.013   5.454   2.315 -0.3660  0.0842 -0.1883
 4258TIP3   OH212737   3.971   6.547   5.128  0.1263 -0.7534  0.8855
 4258TIP3    H112738   4.021   6.478   5.172  0.7477 -1.2056 -0.4739
 4258TIP3    H212739   4.035   6.590   5.071 -0.9147 -1.0738 -0.5717
 4259TIP3   OH212740   6.122   5.850   1.553 -0.2957 -0.4186 -0.7820
 4259TIP3    H112741   6.034   5.867   1.518 -0.4845 -1.4675 -0.8498
 4259TIP3    H212742   6.105   5.805   1.636  0.1880 -1.4702 -1.2522
 4260TIP3   OH212743   1.171   6.250   1.744  0.3712 -0.1406 -0.0642
 4260TIP3    H112744   1.174   6.174   1.685 -1.1824  0.6605 -1.2474
 4260TIP3    H212745   1.086   6.244   1.787  1.1976 -0.3171  1.6439
 4261TIP3   OH212746   6.990   5.880   2.941  0.0260 -0.3651  0.2225
 4261TIP3    H112747   6.928   5.933   2.992 -1.1073  0.0846 -1.5442
 4261TIP3    H212748   7.027   5.941   2.877  1.4628 -0.9151  0.4843
 4262TIP3   OH212749   1.953   4.623   4.722  0.1023  0.3963  0.2228
 4262TIP3    H112750   2.007   4.610   4.644 -0.4035 -2.6698  0.2868
 4262TIP3    H212751   1.878   4.565   4.710 -1.4242  1.9394  1.7523
 4263TIP3   OH212752   1.922   1.791   2.993 -0.2171 -0.2053 -0.3199
 4263TIP3    H112753   1.919   1.698   3.014 -1.2638 -0.7777 -2.6556
 4263TIP3    H212754   1.905   1.835   3.076  0.5129 -2.0653  0.8805
 4264TIP3   OH212755   5.090   4.544   3.852  0.1246 -0.1355  0.0735
 4264TIP3    H112756   5.123   4.495   3.778  1.3764  0.2868  0.3248
 4264TIP3    H212757   5.052   4.623   3.814 -1.0095 -0.8281 -0.2531
 4265TIP3   OH212758   4.057   1.677   0.201 -0.6221 -0.0687  0.1183
 4265TIP3    H112759   3.969   1.681   0.238 -1.2069  0.4144 -1.2372
 4265TIP3    H212760   4.044   1.687   0.106  0.9326  0.5760 -0.0718
 4266TIP3   OH212761   4.486   0.447   0.648 -0.2212  0.4796 -0.0385
 4266TIP3    H112762   4.542   0.468   0.723 -0.8228 -0.8692  0.8155
 4266TIP3    H212763   4.465   0.354   0.659 -2.5296  0.9185 -0.4124
 4267TIP3   OH212764   6.407   3.371   1.230  0.3581  0.1580 -0.0763
 4267TIP3    H112765   6.478   3.408   1.283  0.4983 -0.9173  0.5206
 4267TIP3    H212766   6.438   3.378   1.140 -0.6399  3.7184 -0.3196
 4268TIP3   OH212767   2.744   1.579   4.602 -0.4032 -0.1023 -0.6077
 4268TIP3    H112768   2.697   1.659   4.625  1.1168  0.5135  0.5125
 4268TIP3    H212769   2.749   1.581   4.506 -2.2276  0.0318 -0.7247
 4269TIP3   OH212770   0.616   1.229   1.926 -0.0236  0.1493 -0.8506
 4269TIP3    H112771   0.668   1.302   1.894  0.2010 -0.1508 -1.1723
 4269TIP3    H212772   0.680   1.168   1.962 -0.1188 -0.3617 -1.5297
 4270TIP3   OH212773   0.407   2.026   1.985  0.7971 -0.4967  0.1830
 4270TIP3    H112774   0.493   2.012   2.023  0.0666 -1.5786  1.5418
 4270TIP3    H212775   0.384   1.941   1.946 -0.5769 -0.9615  1.8835
 4271TIP3   OH212776   6.769   3.834   3.540  0.0959 -0.0670  0.3935
 4271TIP3    H112777   6.727   3.789   3.614  0.6756  0.9540  1.3850
 4271TIP3    H212778   6.703   3.834   3.471 -0.1397 -1.8693  0.5605
 4272TIP3   OH212779   5.114   3.580   2.952  0.4569 -0.0751 -0.0751
 4272TIP3    H112780   5.195   3.529   2.957  0.1902 -0.5159 -0.1863
 4272TIP3    H212781   5.078   3.559   2.866  0.4294  0.4332 -0.1888
 4273TIP3   OH212782   0.193   2.565   3.432 -0.0779 -0.0334 -0.4002
 4273TIP3    H112783   0.208   2.471   3.421  1.7343  0.1104  0.5293
 4273TIP3    H212784   0.179   2.576   3.526  2.1382  0.8949 -0.1362
 4274TIP3   OH212785   2.784   2.598   1.001 -0.7087  0.2383 -0.2192
 4274TIP3    H112786   2.749   2.578   1.088 -0.6155 -2.3205 -0.6795
 4274TIP3    H212787   2.849   2.667   1.016 -1.9863  1.1334  1.4453
 4275TIP3   OH212788   1.265   5.811   3.014  0.1185 -0.1107 -0.0159
 4275TIP3    H112789   1.180   5.771   3.034  1.3187 -1.9414  1.8450
 4275TIP3    H212790   1.280   5.871   3.087  0.3292  0.3812 -0.4656
 4276TIP3   OH212791   5.233   6.336   3.464 -0.2066  0.0777  0.3922
 4276TIP3    H112792   5.250   6.291   3.381  2.8232  1.6708  0.0288
 4276TIP3    H212793   5.148   6.379   3.450  0.1620  0.2122 -1.8473
 4277TIP3   OH212794   1.651   3.755   3.061  0.1407  0.4097 -0.1425
 4277TIP3    H112795   1.659   3.679   3.118 -0.5362  1.3569  1.2941
 4277TIP3    H212796   1.563   3.748   3.024  0.3137  0.1786 -0.5228
 4278TIP3   OH212797   3.004   4.729   4.072  0.9076  0.2689 -0.6044
 4278TIP3    H112798   2.934   4.731   4.006 -0.3246 -0.0377  0.6577
 4278TIP3    H212799   3.064   4.662   4.041 -0.2293 -0.6627 -0.8513
 4279TIP3   OH212800   1.507   3.954   3.360  0.2388 -0.2183  0.1030
 4279TIP3    H112801   1.456   3.992   3.288  0.3734  1.0571  0.6505
 4279TIP3    H212802   1.598   3.960   3.332  0.2735  0.0495  0.2667
 4280TIP3   OH212803   0.879   5.997   5.565  0.4651  0.0510  0.1301
 4280TIP3    H112804   0.870   6.034   5.477  1.9038 -0.1609 -0.1165
 4280TIP3    H212805   0.788   5.989   5.596  0.0243  2.4434 -0.3387
 4281TIP3   OH212806  -0.013   5.274   3.531 -0.0612  0.3409  0.0744
 4281TIP3    H112807  -0.004   5.303   3.622 -0.5704 -1.6130  0.8116
 4281TIP3    H212808   0.074   5.285   3.493  0.7502 -0.8831  1.4850
 4282TIP3   OH212809   0.094   4.487   4.991 -0.0754  0.2802 -0.1902
 4282TIP3    H112810   0.100   4.402   5.036  0.6595  0.4964  0.1370
 4282TIP3    H212811   0.057   4.465   4.905  0.0598 -0.3694 -0.0939
 4283TIP3   OH212812   2.243   4.446   2.975  0.6073 -0.0904  0.2081
 4283TIP3    H112813   2.214   4.483   3.058  0.2268 -1.1641  0.5754
 4283TIP3    H212814   2.338   4.441   2.982  0.5826 -0.0852  0.5386
 4284TIP3   OH212815   4.463   6.613   1.256 -0.6130  0.7809 -0.1950
 4284TIP3    H112816   4.436   6.686   1.311  0.2620  0.4267  0.7471
 4284TIP3    H212817   4.557   6.627   1.243 -0.4551 -0.1194 -0.0734
 4285TIP3   OH212818   0.157   4.186   2.577 -0.1497  0.3704 -0.4137
 4285TIP3    H112819   0.222   4.203   2.509  1.7827 -0.2331  1.1859
 4285TIP3    H212820   0.174   4.252   2.644 -1.9166  0.8608 -0.3797
 4286TIP3   OH212821   4.399   3.258   0.923  0.3879  0.0505  0.2814
 4286TIP3    H112822   4.465   3.189   0.920 -1.1640 -1.5121  0.9438
 4286TIP3    H212823   4.336   3.235   0.856 -0.1358  0.8580  0.4775
 4287TIP3   OH212824   0.741   0.615   2.847 -0.0761 -0.3348 -0.3307
 4287TIP3    H112825   0.755   0.607   2.941 -2.3836 -0.4596  0.0703
 4287TIP3    H212826   0.781   0.537   2.810 -0.7268 -1.2391  0.7817
 4288TIP3   OH212827   2.836   0.321   0.538  0.3486 -0.1726 -0.1229
 4288TIP3    H112828   2.875   0.259   0.600 -1.0842 -1.1003 -0.1107
 4288TIP3    H212829   2.813   0.267   0.462 -1.8048  0.1103  0.2701
 4289TIP3   OH212830   1.908   3.135   0.425 -0.1591  0.5395  0.2560
 4289TIP3    H112831   1.939   3.046   0.410 -0.4697 -0.0840  2.8332
 4289TIP3    H212832   1.965   3.190   0.370 -0.4541 -1.2393 -1.9638
 4290TIP3   OH212833   4.622   5.448   4.167 -0.0753 -0.1404  0.0155
 4290TIP3    H112834   4.582   5.535   4.164 -0.3828 -0.3025 -0.8234
 4290TIP3    H212835   4.655   5.434   4.078  0.5322 -0.6263  0.3097
 4291TIP3   OH212836   1.983   5.881   2.191  0.0386  0.3892  0.0306
 4291TIP3    H112837   1.966   5.837   2.108  0.7171  0.5388 -0.2012
 4291TIP3    H212838   2.067   5.926   2.177 -0.1649  0.9582  0.5794
 4292TIP3   OH212839   2.575   6.290   4.534  0.7794 -0.7214  0.3349
 4292TIP3    H112840   2.492   6.247   4.552  0.2684 -0.4215 -1.1977
 4292TIP3    H212841   2.586   6.353   4.606 -2.5563  2.4649 -1.5910
 4293TIP3   OH212842   5.627   0.150   5.658 -0.0532  0.1194  0.6701
 4293TIP3    H112843   5.657   0.059   5.664 -1.4253 -0.3263  1.1824
 4293TIP3    H212844   5.708   0.201   5.648  0.7722 -1.1119  0.7500
 4294TIP3   OH212845   2.875   2.210   3.359 -0.0416 -0.0769  0.1432
 4294TIP3    H112846   2.900   2.175   3.445 -0.0980  1.7673  0.9771
 4294TIP3    H212847   2.784   2.237   3.370  0.0496  0.4702 -0.3827
 4295TIP3   OH212848   3.334   1.986   1.999 -0.5484 -0.0683 -0.1416
 4295TIP3    H112849   3.300   1.985   1.909 -0.8658 -1.7523 -0.0457
 4295TIP3    H212850   3.387   1.906   2.005 -1.9923 -0.9601  1.6798
 4296TIP3   OH212851   2.875   4.563   2.498 -0.1173 -0.2840 -0.2997
 4296TIP3    H112852   2.825   4.549   2.417  0.1950  1.2653 -0.7843
 4296TIP3    H212853   2.960   4.595   2.468  0.2822 -0.4547  0.6261
 4297TIP3   OH212854   1.650   6.146   4.078  0.6202  0.0899 -0.1846
 4297TIP3    H112855   1.710   6.104   4.017  0.1209 -2.7776  1.1518
 4297TIP3    H212856   1.692   6.138   4.163 -0.0093  1.3980  0.2759
 4298TIP3   OH212857   3.418   5.004   5.234 -0.3951  0.0009  0.0813
 4298TIP3    H112858   3.466   4.923   5.250 -1.7372 -0.3315  3.1958
 4298TIP3    H212859   3.464   5.070   5.285 -1.2977  0.4024  0.4017
 4299TIP3   OH212860   1.555   0.529   0.239 -0.3742  0.2653  0.0212
 4299TIP3    H112861   1.510   0.487   0.312 -0.9516  1.4404  0.3785
 4299TIP3    H212862   1.544   0.469   0.165 -1.4353 -0.0711  0.4339
 4300TIP3   OH212863   1.140   4.468   3.620 -0.3997 -0.1950 -0.0880
 4300TIP3    H112864   1.092   4.525   3.559 -0.8569 -1.6974 -1.1998
 4300TIP3    H212865   1.076   4.445   3.687 -0.3607  0.1866  0.0821
 4301TIP3   OH212866   5.763   4.120   3.400 -0.1944  0.5410  0.3903
 4301TIP3    H112867   5.747   4.038   3.354  0.4785  1.4211 -1.5342
 4301TIP3    H212868   5.751   4.099   3.492 -0.0174 -1.7134 -0.0472
 4302TIP3   OH212869   4.088   4.479   1.391 -0.5151  0.1395 -0.3303
 4302TIP3    H112870   4.144   4.486   1.468  0.7011 -2.0306 -0.9402
 4302TIP3    H212871   4.143   4.507   1.318 -0.7069 -0.5465 -0.7489
 4303TIP3   OH212872   4.242   4.232   1.751 -0.1367  0.1964  0.2078
 4303TIP3    H112873   4.232   4.139   1.729  1.2901 -0.4390  1.9591
 4303TIP3    H212874   4.335   4.241   1.772  0.6783  2.8923 -3.4690
 4304TIP3   OH212875   1.104   4.099   0.428 -0.1439 -0.7574 -0.7229
 4304TIP3    H112876   1.139   4.028   0.481  0.5755 -0.5617 -0.9309
 4304TIP3    H212877   1.121   4.074   0.338  2.8415  0.9920 -0.7661
 4305TIP3   OH212878   0.099   3.399   3.553  0.0748  0.2807  0.3589
 4305TIP3    H112879   0.158   3.439   3.490  0.4101  1.0646  1.1438
 4305TIP3    H212880   0.148   3.401   3.636 -0.3099 -0.8169  0.6258
 4306TIP3   OH212881   2.232   5.192   0.146 -0.4353  0.2098 -0.3325
 4306TIP3    H112882   2.273   5.136   0.081 -0.7024  2.2112 -2.3299
 4306TIP3    H212883   2.181   5.256   0.095 -1.4302  1.2956  1.8645
 4307TIP3   OH212884   4.049   3.134   4.947  0.4273 -0.0503 -0.3938
 4307TIP3    H112885   3.995   3.203   4.908  0.8272 -0.1743 -1.1809
 4307TIP3    H212886   4.084   3.086   4.872  1.1394 -0.3481  0.1225
 4308TIP3   OH212887   1.099   0.514   3.372 -0.5523 -0.0648  0.3140
 4308TIP3    H112888   1.123   0.599   3.408 -1.5649  0.8028 -0.9735
 4308TIP3    H212889   1.011   0.527   3.336 -0.0975 -1.2050 -1.3275
 4309TIP3   OH212890   1.306   0.698   2.948  0.5474 -0.3083  0.1090
 4309TIP3    H112891   1.303   0.648   3.030 -0.9628  1.5913  1.3039
 4309TIP3    H212892   1.397   0.728   2.942  0.8045 -0.9204  0.8121
 4310TIP3   OH212893   5.364   5.422   1.266  0.2142 -0.1961  0.2815
 4310TIP3    H112894   5.402   5.374   1.340  0.5648  0.2491  0.3972
 4310TIP3    H212895   5.371   5.514   1.291 -2.4377 -0.1153  1.0194
 4311TIP3   OH212896   4.939   1.506   0.355  0.0211 -0.3311  1.1289
 4311TIP3    H112897   4.934   1.568   0.428  2.0751  2.1136 -0.6517
 4311TIP3    H212898   5.032   1.488   0.345  0.0070  0.7941 -1.9170
 4312TIP3   OH212899   0.073   1.981   5.869  0.6709 -0.6302  0.0258
 4312TIP3    H112900   0.162   1.995   5.839  1.1480  0.7586  1.8831
 4312TIP3    H212901   0.078   1.903   5.925  0.2745 -1.7629 -1.4701
 4313TIP3   OH212902   6.864   3.400   3.919  0.1961  0.3973  0.3084
 4313TIP3    H112903   6.853   3.367   3.830  0.8880  1.8260 -0.3425
 4313TIP3    H212904   6.848   3.325   3.975  3.6157 -1.5948 -1.1162
 4314TIP3   OH212905   2.813   3.547   3.801  0.0507  0.2774  0.1267
 4314TIP3    H112906   2.906   3.526   3.802 -0.0814 -0.6279 -2.0196
 4314TIP3    H212907   2.771   3.469   3.838  0.1162  0.6751  1.0703
 4315TIP3   OH212908   4.119   6.478   3.192  0.0330 -0.0596 -0.4187
 4315TIP3    H112909   4.031   6.455   3.162 -0.6840  0.1636  1.3907
 4315TIP3    H212910   4.173   6.403   3.169 -0.8248 -0.6064 -0.6941
 4316TIP3   OH212911   3.284   4.700   5.451 -0.4038  0.2883  0.2467
 4316TIP3    H112912   3.329   4.728   5.531  0.0777  1.0986 -0.2974
 4316TIP3    H212913   3.240   4.779   5.420 -0.9949 -0.1438 -0.0329
 4317TIP3   OH212914   2.853   1.491   4.299 -1.1195  0.3951  0.7473
 4317TIP3    H112915   2.868   1.582   4.325 -0.5894  0.3349  0.6709
 4317TIP3    H212916   2.920   1.441   4.347 -1.3973  0.0459  0.7776
 4318TIP3   OH212917   5.575   5.045   0.339 -0.2435  0.2494  0.4846
 4318TIP3    H112918   5.559   5.004   0.424  1.2885  1.0097  1.1735
 4318TIP3    H212919   5.496   5.096   0.321 -1.5151 -1.6506  0.3665
 4319TIP3   OH212920   1.120   0.794   0.837  0.7811  0.4293  0.8707
 4319TIP3    H112921   1.094   0.702   0.844  0.5516  0.3976 -0.1909
 4319TIP3    H212922   1.199   0.793   0.784  1.2962  0.7792  1.6159
 4320TIP3   OH212923   1.390   4.041   3.091 -0.1904 -0.3264 -0.1408
 4320TIP3    H112924   1.301   4.063   3.117 -0.4255 -0.5645 -0.7124
 4320TIP3    H212925   1.380   3.970   3.028  0.5571 -2.1869  1.7397
 4321TIP3   OH212926   2.735   5.666   1.689  0.0368 -0.2077 -0.0482
 4321TIP3    H112927   2.725   5.716   1.770 -1.1407 -2.1585  1.0947
 4321TIP3    H212928   2.668   5.701   1.631 -0.3405 -0.0225  0.4931
 4322TIP3   OH212929   3.678   4.783   3.769  0.0598  0.0094  0.3950
 4322TIP3    H112930   3.621   4.748   3.700  1.1630  1.0104 -1.0692
 4322TIP3    H212931   3.617   4.812   3.837 -1.0389 -1.4169  0.0717
 4323TIP3   OH212932   2.190   2.424   3.249  0.6005 -0.0520  0.3597
 4323TIP3    H112933   2.189   2.500   3.307  2.1331  0.4740 -0.2471
 4323TIP3    H212934   2.100   2.415   3.219  0.1908  0.8662  1.2744
 4324TIP3   OH212935   2.529   3.474   0.800 -0.2868 -0.0019  0.5247
 4324TIP3    H112936   2.523   3.524   0.881 -1.1850 -0.7623  0.9484
 4324TIP3    H212937   2.478   3.524   0.737 -0.5182  0.0233  0.7299
 4325TIP3   OH212938   4.664   6.773   4.884 -0.8290  0.9950 -0.4595
 4325TIP3    H112939   4.725   6.846   4.870  0.4952 -0.0995 -0.5944
 4325TIP3    H212940   4.619   6.763   4.799 -0.1778  0.9151 -0.7988
 4326TIP3   OH212941   3.486   4.401   5.651 -0.6909 -0.2301  0.1024
 4326TIP3    H112942   3.426   4.359   5.712  1.3398 -0.2014  2.2396
 4326TIP3    H212943   3.538   4.330   5.614 -1.5312 -0.1857 -1.2535
 4327TIP3   OH212944   0.997   3.492   5.805 -0.1050  0.7322 -0.1058
 4327TIP3    H112945   1.021   3.482   5.713 -1.4112  2.0086 -0.6365
 4327TIP3    H212946   1.019   3.408   5.845  2.3375  0.8005 -1.1205
 4328TIP3   OH212947   1.930   1.569   0.343  0.6956  0.5238 -0.1913
 4328TIP3    H112948   1.991   1.641   0.360  1.5882  0.0310 -1.1972
 4328TIP3    H212949   1.986   1.495   0.318 -0.3115  0.2662 -1.8781
 4329TIP3   OH212950   5.400   1.857   1.285  0.0700  0.2197  0.2261
 4329TIP3    H112951   5.384   1.857   1.191 -0.5644  1.4686  0.3024
 4329TIP3    H212952   5.415   1.949   1.306 -0.0311 -0.0129  1.3762
 4330TIP3   OH212953   3.711   5.566   1.970 -0.0219  0.0447  0.0613
 4330TIP3    H112954   3.661   5.633   2.015 -0.3856  0.0597 -0.3600
 4330TIP3    H212955   3.692   5.580   1.877 -0.0861 -0.6250 -0.0308
 4331TIP3   OH212956   4.078   5.280   5.504  0.4597  0.4651  0.4050
 4331TIP3    H112957   4.090   5.221   5.579  1.1956  0.5850  0.3804
 4331TIP3    H212958   4.073   5.367   5.543  0.0116  0.4545  0.3814
 4332TIP3   OH212959   3.710   6.769   0.450  0.0642  0.5869 -0.1674
 4332TIP3    H112960   3.625   6.726   0.440 -0.1638  0.7235  1.1101
 4332TIP3    H212961   3.692   6.862   0.440  0.2431  0.5508 -0.9224
 4333TIP3   OH212962   0.062   0.423   0.589  0.0131 -0.4514 -0.5656
 4333TIP3    H112963  -0.029   0.394   0.588 -1.2545  3.0716 -1.4786
 4333TIP3    H212964   0.088   0.415   0.681 -1.3639 -1.0522 -0.2041
 4334TIP3   OH212965   1.455   5.618   3.609 -0.1967  0.3279 -0.6905
 4334TIP3    H112966   1.546   5.648   3.602  0.5174 -1.4370  0.1532
 4334TIP3    H212967   1.404   5.684   3.564  1.4637  1.6154 -0.7863
 4335TIP3   OH212968   4.431   1.670   0.548 -0.2752 -0.3427 -0.2546
 4335TIP3    H112969   4.462   1.704   0.464  0.7436  0.2782  0.3604
 4335TIP3    H212970   4.442   1.575   0.541 -0.5911 -0.3405 -0.9596
 4336TIP3   OH212971   6.204   5.526   4.149 -0.2421 -0.0878  0.2602
 4336TIP3    H112972   6.124   5.509   4.198 -2.2056  0.7860 -2.4296
 4336TIP3    H212973   6.221   5.619   4.161 -0.8463  0.1746 -0.7903
 4337TIP3   OH212974   0.249   3.726   0.565  0.3489  0.1640 -0.1587
 4337TIP3    H112975   0.219   3.775   0.487  2.2381  0.9831 -0.4182
 4337TIP3    H212976   0.190   3.651   0.570 -0.1157  0.3500 -2.1024
 4338TIP3   OH212977   0.611   0.099   4.294  0.2176  0.2466  0.0941
 4338TIP3    H112978   0.675   0.030   4.312  0.9243  1.1917  1.3745
 4338TIP3    H212979   0.574   0.076   4.208  0.0827 -1.9521  0.6954
 4339TIP3   OH212980   0.689   2.947   5.805  0.5058  0.4709  0.0921
 4339TIP3    H112981   0.694   2.854   5.829 -0.8553  0.2509 -0.3797
 4339TIP3    H212982   0.646   2.947   5.719 -1.6144  1.6249  1.0593
 4340TIP3   OH212983   3.767   3.870   1.131 -0.1836  0.0561 -0.5739
 4340TIP3    H112984   3.816   3.916   1.199 -0.9995  0.9647 -0.5861
 4340TIP3    H212985   3.833   3.817   1.086  0.8357  1.4324 -0.7513
 4341TIP3   OH212986   4.603   3.301   0.192  0.1063 -0.2089  0.0611
 4341TIP3    H112987   4.557   3.364   0.246 -2.6397 -2.0553  0.0532
 4341TIP3    H212988   4.603   3.220   0.243  0.2978 -1.1694 -1.3855
 4342TIP3   OH212989   2.825   5.199   3.383 -0.4830  0.6159 -0.3976
 4342TIP3    H112990   2.766   5.127   3.357 -1.1076  1.0230 -0.1353
 4342TIP3    H212991   2.813   5.206   3.478 -0.1869  0.8576 -0.3805
 4343TIP3   OH212992   4.720   6.643   2.865  0.1340 -0.8327  0.0151
 4343TIP3    H112993   4.725   6.699   2.943  2.6619 -2.9048  1.4934
 4343TIP3    H212994   4.651   6.580   2.886 -0.9416  0.1196 -0.5612
 4344TIP3   OH212995   5.701   3.456   5.416 -0.4671 -0.1413 -0.0592
 4344TIP3    H112996   5.651   3.424   5.340 -0.5265 -0.1687 -0.0093
 4344TIP3    H212997   5.762   3.385   5.436  0.1029  0.1912 -0.5748
 4345TIP3   OH212998   0.907   5.791   3.286  0.4106 -0.1474 -0.6216
 4345TIP3    H112999   0.828   5.807   3.234 -0.2869  1.5094  0.8526
 4345TIP3    H213000   0.962   5.736   3.229 -0.8990  0.3897 -2.5216
 4346TIP3   OH213001   4.839   1.221   1.958 -0.8759  0.0735 -0.3564
 4346TIP3    H113002   4.906   1.283   1.987  0.0022 -0.8792 -0.2929
 4346TIP3    H213003   4.881   1.171   1.888 -1.5899 -0.4069 -0.4534
 4347TIP3   OH213004   4.718   4.938   1.531 -0.2235 -0.1874 -0.6253
 4347TIP3    H113005   4.706   4.979   1.445 -1.3647 -0.0515 -0.4161
 4347TIP3    H213006   4.717   4.844   1.513 -0.3848 -0.1593 -0.7723
 4348TIP3   OH213007   6.149   6.689   0.972 -0.3550  0.2962  0.0997
 4348TIP3    H113008   6.159   6.745   0.894  2.2141  1.0925  0.9023
 4348TIP3    H213009   6.142   6.601   0.936  1.1605  0.6058 -1.0863
 4349TIP3   OH213010   3.970   3.380   2.322 -0.5136  0.2831 -0.0355
 4349TIP3    H113011   3.920   3.449   2.278 -0.7539 -0.1977 -0.5269
 4349TIP3    H213012   3.929   3.298   2.294  1.4643 -0.2210 -1.6921
 4350TIP3   OH213013   0.183   2.378   3.955  0.2930 -0.2711 -0.0861
 4350TIP3    H113014   0.261   2.350   3.906  0.1033  2.8347 -2.4408
 4350TIP3    H213015   0.124   2.303   3.951  1.6477 -1.3160 -1.6412
 4351TIP3   OH213016   5.940   2.780   3.241 -0.1577  0.2215  0.0850
 4351TIP3    H113017   5.911   2.827   3.163 -2.3511 -0.7951  0.1991
 4351TIP3    H213018   5.974   2.697   3.209  3.8904  1.7823 -0.1314
 4352TIP3   OH213019   2.573   5.160   2.376 -0.0708 -0.5930 -0.3549
 4352TIP3    H113020   2.566   5.068   2.403  2.3870 -0.4811  0.9435
 4352TIP3    H213021   2.592   5.156   2.282 -0.0458 -1.4231 -0.3220
 4353TIP3   OH213022   4.164   5.946   4.412  1.0546 -0.3506 -0.4464
 4353TIP3    H113023   4.244   5.999   4.415  1.4763 -0.9374 -0.8226
 4353TIP3    H213024   4.182   5.874   4.473  1.0614 -0.8097 -0.9872
 4354TIP3   OH213025   0.900   0.197   3.189 -0.4754  0.4153 -0.0604
 4354TIP3    H113026   0.849   0.127   3.229 -0.8904  0.8666  0.2089
 4354TIP3    H213027   0.969   0.217   3.253  0.1686 -0.3292 -0.5097
 4355TIP3   OH213028   7.116   5.154   3.058 -0.0214  0.2595  0.0105
 4355TIP3    H113029   7.119   5.249   3.065 -0.0827  0.1310  2.6252
 4355TIP3    H213030   7.028   5.136   3.025  0.4564  1.1026 -1.8652
 4356TIP3   OH213031   5.912   5.236   2.470 -0.2692  0.2011 -0.0745
 4356TIP3    H113032   5.951   5.203   2.551  0.3686  2.3769  0.5955
 4356TIP3    H213033   5.946   5.178   2.402  0.4577 -0.7395  1.0325
 4357TIP3   OH213034   4.864   3.476   3.935  0.2745  0.2072 -0.1642
 4357TIP3    H113035   4.932   3.532   3.898  0.7199 -0.7080 -0.8004
 4357TIP3    H213036   4.847   3.411   3.867 -0.0091 -0.5979  0.6481
 4358TIP3   OH213037   3.756   0.007   5.640  0.3842  0.7677 -0.5749
 4358TIP3    H113038   3.714   0.087   5.607 -0.6770  0.1969 -0.6368
 4358TIP3    H213039   3.763  -0.049   5.563 -0.2562  0.2212 -0.2440
 4359TIP3   OH213040   6.399   5.626   1.845 -0.2046 -0.3805  0.0432
 4359TIP3    H113041   6.421   5.625   1.751  1.3224  0.9710  0.3474
 4359TIP3    H213042   6.379   5.717   1.864  0.1852 -0.5109  1.1712
 4360TIP3   OH213043   0.742   4.531   2.831 -0.5878  0.5073 -0.0031
 4360TIP3    H113044   0.734   4.493   2.918 -0.8725  1.3103  0.3323
 4360TIP3    H213045   0.725   4.458   2.771  0.9020 -0.3539  0.5790
 4361TIP3   OH213046   2.745   3.194   2.094  0.9177  0.2567  1.2511
 4361TIP3    H113047   2.839   3.175   2.089  0.8697  0.3150 -0.7655
 4361TIP3    H213048   2.717   3.198   2.003 -1.4096 -1.4802  1.8038
 4362TIP3   OH213049   4.280   4.869   3.678  0.1553  0.1402  0.2529
 4362TIP3    H113050   4.230   4.939   3.722 -0.1545  0.0338  0.0711
 4362TIP3    H213051   4.365   4.909   3.659 -0.1775  0.6239 -0.2680
 4363TIP3   OH213052   5.328   3.537   4.260 -0.1687 -0.2582 -0.0191
 4363TIP3    H113053   5.274   3.568   4.332 -1.6007 -0.8838 -0.7921
 4363TIP3    H213054   5.394   3.605   4.249 -1.1177  0.7945  0.5987
 4364TIP3   OH213055   0.462   1.822   3.955 -0.0895 -0.8902 -0.6892
 4364TIP3    H113056   0.490   1.796   4.043 -0.4319 -2.6621 -1.0511
 4364TIP3    H213057   0.539   1.811   3.900  0.5601  1.7106 -0.3955
 4365TIP3   OH213058   3.545   3.612   0.899 -0.2444 -0.0303 -0.0302
 4365TIP3    H113059   3.623   3.565   0.929  0.1222  1.2452  1.1255
 4365TIP3    H213060   3.538   3.687   0.958 -0.2223  1.9568 -2.3573
 4366TIP3   OH213061   6.593   3.107   0.800  0.0894  0.3304 -0.1684
 4366TIP3    H113062   6.627   3.134   0.715  0.8824  0.9760  0.3456
 4366TIP3    H213063   6.502   3.135   0.799  0.1053  0.3834 -0.7749
 4367TIP3   OH213064   4.203   2.016   5.150 -0.0993  0.7875 -0.4038
 4367TIP3    H113065   4.267   2.003   5.081  0.3991 -0.9050  0.3229
 4367TIP3    H213066   4.252   2.060   5.220  1.1158 -2.6570  1.1532
 4368TIP3   OH213067   7.057   3.493   2.575  0.1491 -0.0724 -0.5477
 4368TIP3    H113068   7.126   3.501   2.510 -0.1399  0.3960 -0.7985
 4368TIP3    H213069   7.031   3.401   2.572  2.1071 -0.7411  0.9483
 4369TIP3   OH213070   3.684   4.562   1.667  0.2274  0.1434 -0.4961
 4369TIP3    H113071   3.775   4.536   1.681  0.2209  0.6093  0.5038
 4369TIP3    H213072   3.634   4.512   1.731 -0.0600  0.8806 -0.1367
 4370TIP3   OH213073   1.654   1.400   0.020  0.0545 -0.1307 -0.3683
 4370TIP3    H113074   1.570   1.355   0.006 -0.7880  0.5326  2.0822
 4370TIP3    H213075   1.630   1.482   0.063  2.0021 -0.3505  1.2751
 4371TIP3   OH213076   3.416   2.972   5.709  0.2307  0.0353  0.3464
 4371TIP3    H113077   3.452   2.969   5.798  0.1376  0.3689  0.3980
 4371TIP3    H213078   3.459   2.900   5.663  0.4841  0.0329  0.5848
 4372TIP3   OH213079   2.088   0.523   0.675  0.2115  0.4337 -0.0894
 4372TIP3    H113080   2.075   0.617   0.683 -1.3301  0.1591  0.9712
 4372TIP3    H213081   2.103   0.492   0.764 -0.1638 -0.4461 -0.3161
 4373TIP3   OH213082   3.160   5.602   1.410 -0.1351 -0.0441  0.0646
 4373TIP3    H113083   3.202   5.658   1.476 -2.5795  2.3128 -0.2065
 4373TIP3    H213084   3.077   5.578   1.449  0.6791 -3.3820  0.0111
 4374TIP3   OH213085   2.542   5.978   2.041  0.0806  0.8741 -0.5582
 4374TIP3    H113086   2.543   5.902   2.099 -0.0245  1.2727 -0.0214
 4374TIP3    H213087   2.552   5.942   1.953 -0.7945  0.1822 -0.3840
 4375TIP3   OH213088   4.045   1.179   5.069 -0.2152 -0.1122 -0.2336
 4375TIP3    H113089   4.001   1.205   4.989  1.5720 -1.6295 -1.8047
 4375TIP3    H213090   3.977   1.135   5.121 -1.2635  0.4020 -1.1443
 4376TIP3   OH213091   0.278   4.575   5.256  0.1087 -0.5061 -0.2652
 4376TIP3    H113092   0.352   4.580   5.195  2.3348  0.7134  2.2701
 4376TIP3    H213093   0.206   4.617   5.210  1.2458 -0.8376 -2.5087
 4377TIP3   OH213094   1.673   1.465   2.055 -0.1076 -0.4438 -0.4711
 4377TIP3    H113095   1.627   1.537   2.099 -0.4976 -0.6294 -0.5753
 4377TIP3    H213096   1.727   1.426   2.124  0.3167  0.1229 -0.4797
 4378TIP3   OH213097   4.722   6.615   0.525 -0.2782 -0.5439  0.1877
 4378TIP3    H113098   4.774   6.579   0.598 -2.2438 -0.0784  1.9216
 4378TIP3    H213099   4.664   6.543   0.500 -1.0419 -0.0465  0.5104
 4379TIP3   OH213100   1.089   0.267   0.371  0.1563 -0.3811  0.4801
 4379TIP3    H113101   0.995   0.260   0.388  0.3237 -0.4528  1.4704
 4379TIP3    H213102   1.101   0.234   0.282 -0.7181 -0.6508  0.4612
 4380TIP3   OH213103   0.855   1.793   0.298 -0.5022  0.2563 -0.3677
 4380TIP3    H113104   0.840   1.737   0.222 -1.6878 -0.3137  0.2506
 4380TIP3    H213105   0.851   1.882   0.263  1.9676  0.0076 -1.4569
 4381TIP3   OH213106   7.007   5.341   4.672  0.4036  0.4798  0.0044
 4381TIP3    H113107   7.097   5.371   4.662  0.6416 -0.5759 -1.2822
 4381TIP3    H213108   7.014   5.246   4.682 -0.5408  0.4454  0.4556
 4382TIP3   OH213109   7.018   5.408   3.060 -0.8193  1.1504 -0.2874
 4382TIP3    H113110   7.047   5.479   3.118 -0.9697  1.5755 -0.7349
 4382TIP3    H213111   7.004   5.450   2.976 -0.2605  0.4640 -0.7331
 4383TIP3   OH213112   0.070   4.269   0.886  0.0024 -0.0273 -0.2072
 4383TIP3    H113113   0.148   4.239   0.840 -0.0993 -0.6773  0.0404
 4383TIP3    H213114   0.081   4.364   0.893 -0.1659  0.1449 -1.9166
 4384TIP3   OH213115   3.020   5.759   3.829  0.5538  0.3217  0.3348
 4384TIP3    H113116   2.971   5.711   3.896 -0.0836 -0.9755 -1.0068
 4384TIP3    H213117   2.954   5.786   3.765  1.3278  0.2590 -0.5106
 4385TIP3   OH213118   6.151   2.034   4.029  0.1770 -0.3458  0.1650
 4385TIP3    H113119   6.179   2.072   3.945 -3.2156  0.0185 -0.9695
 4385TIP3    H213120   6.167   2.103   4.093  1.3244 -0.0020 -0.4726
 4386TIP3   OH213121   3.805   4.197   4.974 -0.0169 -0.0767 -0.0594
 4386TIP3    H113122   3.896   4.178   4.954  0.3710  1.6084 -0.1152
 4386TIP3    H213123   3.765   4.218   4.890 -0.4371 -0.6912 -0.0197
 4387TIP3   OH213124   3.535   1.367   3.890  0.4119  0.2981  0.4433
 4387TIP3    H113125   3.524   1.287   3.941  2.0483 -0.4616 -0.3368
 4387TIP3    H213126   3.550   1.435   3.956  0.3820 -0.2781  1.0534
 4388TIP3   OH213127   5.589   1.042   0.081  0.0592 -0.1988 -0.1899
 4388TIP3    H113128   5.499   1.067   0.060 -0.0124  0.4119  0.8027
 4388TIP3    H213129   5.588   0.946   0.077 -0.4419 -0.1697 -0.9434
 4389TIP3   OH213130   0.821   3.928   4.677 -0.3116  0.1924 -0.0715
 4389TIP3    H113131   0.791   3.886   4.597 -0.5275 -0.5393  0.3829
 4389TIP3    H213132   0.741   3.960   4.719 -0.1665  0.8827 -0.3187
 4390TIP3   OH213133   3.883   1.480   4.593  0.3097 -0.5498 -0.8850
 4390TIP3    H113134   3.821   1.487   4.666  0.7601 -0.8297 -0.4672
 4390TIP3    H213135   3.955   1.427   4.628  1.2545  0.5836 -1.0336
 4391TIP3   OH213136   1.600   6.396   2.679 -0.6279 -0.1264  0.0061
 4391TIP3    H113137   1.682   6.432   2.645 -1.0733  0.6079 -0.3060
 4391TIP3    H213138   1.603   6.303   2.656  0.0998 -0.1019 -0.0219
 4392TIP3   OH213139   4.752   3.438   3.039 -0.0889  0.5335  0.8048
 4392TIP3    H113140   4.825   3.455   3.099  0.6263  1.0907 -0.1821
 4392TIP3    H213141   4.681   3.494   3.072  0.5841  1.5327  0.6203
 4393TIP3   OH213142   3.965   0.273   2.517  0.0407 -0.4495  0.4709
 4393TIP3    H113143   3.895   0.270   2.583  0.5189  0.2771  1.0262
 4393TIP3    H213144   3.924   0.313   2.441 -0.0296  0.4333  0.9623
 4394TIP3   OH213145   0.478   1.662   5.824  0.5186  0.3822 -0.5566
 4394TIP3    H113146   0.562   1.709   5.826 -0.0136  1.3545  0.1475
 4394TIP3    H213147   0.486   1.596   5.893  1.0032 -0.1048 -1.0620
 4395TIP3   OH213148   2.861   0.955   0.404  0.2609 -0.1627 -0.5785
 4395TIP3    H113149   2.896   0.947   0.493 -1.7002 -1.4131  0.1534
 4395TIP3    H213150   2.820   1.041   0.401 -0.2426 -0.3764 -0.0215
 4396TIP3   OH213151   5.385   6.246   3.222 -0.1659 -0.2088  0.0417
 4396TIP3    H113152   5.424   6.193   3.292 -1.5269 -0.5680  0.5560
 4396TIP3    H213153   5.299   6.206   3.207 -0.3118  0.5079 -1.1178
 4397TIP3   OH213154   3.149   4.993   0.376 -0.4343 -0.4662  0.4282
 4397TIP3    H113155   3.221   5.016   0.435 -0.9522  0.0442  0.8700
 4397TIP3    H213156   3.073   4.983   0.433 -0.9819  0.2044 -0.1622
 4398TIP3   OH213157   1.901   4.112   0.959  0.4378 -0.0239 -0.1556
 4398TIP3    H113158   1.818   4.092   0.917  0.2578  1.9677 -0.8771
 4398TIP3    H213159   1.898   4.207   0.974  2.3207 -0.0002  0.3571
 4399TIP3   OH213160   5.468   3.946   1.821 -0.3002  0.0161  0.7582
 4399TIP3    H113161   5.414   3.892   1.878 -0.3167 -2.2191 -1.2478
 4399TIP3    H213162   5.410   3.973   1.750  0.7492 -1.0212 -0.5459
 4400TIP3   OH213163   5.296   2.841   0.984  0.1211  0.3918 -0.0093
 4400TIP3    H113164   5.211   2.881   1.000 -0.0181  0.8158 -1.6137
 4400TIP3    H213165   5.353   2.875   1.053 -1.0460 -0.0737  1.2097
 4401TIP3   OH213166   3.095   6.753   3.111 -0.0856 -0.0198  0.6381
 4401TIP3    H113167   3.157   6.781   3.044  0.7795 -0.6633  1.1512
 4401TIP3    H213168   3.108   6.814   3.183  0.2970 -0.4375  0.9296
 4402TIP3   OH213169   0.338   0.262   3.882  0.1936 -0.0980 -0.4602
 4402TIP3    H113170   0.345   0.347   3.924  1.1339  0.7124 -2.1809
 4402TIP3    H213171   0.288   0.209   3.944 -2.3375  2.3139 -0.2498
 4403TIP3   OH213172   6.002   1.531   5.276  0.7340 -0.5078 -0.4014
 4403TIP3    H113173   6.079   1.586   5.260  0.6352 -0.7012 -1.6824
 4403TIP3    H213174   5.935   1.592   5.307  0.9388 -0.0662 -0.8134
 4404TIP3   OH213175   5.461   4.854   3.559 -0.4925  0.0146 -0.6429
 4404TIP3    H113176   5.511   4.804   3.624  1.2434  1.8836 -0.4385
 4404TIP3    H213177   5.423   4.926   3.609 -1.8905 -0.3370 -1.1559
 4405TIP3   OH213178   5.930   3.479   1.049 -0.2346 -0.5361  0.2112
 4405TIP3    H113179   5.999   3.473   0.983  0.3687  3.4008  0.2412
 4405TIP3    H213180   5.972   3.451   1.130  1.2980  1.4548  0.1587
 4406TIP3   OH213181   0.313   4.859   1.661  0.3668  0.0679 -0.1650
 4406TIP3    H113182   0.241   4.894   1.713  1.1792  1.7988 -0.1308
 4406TIP3    H213183   0.340   4.932   1.605  2.6595 -0.2102  0.4665
 4407TIP3   OH213184   4.776   5.298   0.542 -0.0817 -0.1102 -0.1247
 4407TIP3    H113185   4.846   5.352   0.506 -1.3419  0.1931 -2.2757
 4407TIP3    H213186   4.700   5.316   0.486 -1.0373 -2.7671  0.1926
 4408TIP3   OH213187   7.087   2.593   0.789  0.0664  0.5823  0.5492
 4408TIP3    H113188   7.000   2.554   0.799 -0.2222  1.4688  1.7062
 4408TIP3    H213189   7.120   2.601   0.878  2.1778 -1.4998  0.0463
 4409TIP3   OH213190   6.278   1.807   5.695 -0.0521 -0.9898  0.1616
 4409TIP3    H113191   6.360   1.856   5.697 -1.6181  1.7828  0.8355
 4409TIP3    H213192   6.263   1.791   5.601  0.2496  0.2967 -0.1244
 4410TIP3   OH213193   4.617   6.647   2.365 -0.9249  0.0739 -0.5737
 4410TIP3    H113194   4.580   6.735   2.352 -1.8774 -0.1031  0.6994
 4410TIP3    H213195   4.550   6.587   2.333  0.0030 -0.2224 -2.0806
 4411TIP3   OH213196   5.849   2.001   1.150 -0.1349 -0.2548  0.0712
 4411TIP3    H113197   5.792   2.040   1.084 -0.5464 -0.0701  0.5254
 4411TIP3    H213198   5.936   2.035   1.129 -0.1739 -0.5928 -0.6681
 4412TIP3   OH213199   4.017   1.447   3.809 -0.6889  0.3426 -0.4503
 4412TIP3    H113200   3.952   1.439   3.740 -0.2457 -2.9268 -0.6130
 4412TIP3    H213201   3.998   1.376   3.870  3.7646 -2.1803 -1.5605
 4413TIP3   OH213202   0.855   6.232   4.449  0.4008 -0.2085 -0.0150
 4413TIP3    H113203   0.813   6.203   4.368  1.5252  0.4813 -0.8823
 4413TIP3    H213204   0.916   6.301   4.421  0.2645  0.5878  1.5249
 4414TIP3   OH213205   1.861   0.626   5.816 -0.9118 -0.7490 -0.5259
 4414TIP3    H113206   1.824   0.617   5.728 -0.7303 -2.4818 -0.4545
 4414TIP3    H213207   1.951   0.595   5.807 -0.0477  1.5101 -0.2475
 4415TIP3   OH213208   0.663   2.975   5.534  0.1407 -0.2683  0.4811
 4415TIP3    H113209   0.736   3.037   5.539  0.1874 -0.2880  0.0691
 4415TIP3    H213210   0.595   3.021   5.485  1.1671 -1.4680 -2.2754
 4416TIP3   OH213211   6.037   5.965   3.597 -0.9271  0.7202 -0.0203
 4416TIP3    H113212   6.132   5.973   3.611 -0.8043 -0.7575  0.1869
 4416TIP3    H213213   5.999   6.035   3.649  0.0074  0.6159  0.8407
 4417TIP3   OH213214   7.037   5.077   4.251 -0.3153  0.6137  0.1007
 4417TIP3    H113215   7.105   5.117   4.304 -0.5557  0.3296  0.6338
 4417TIP3    H213216   6.979   5.035   4.314  0.2139 -1.0306 -0.4457
 4418TIP3   OH213217   3.094   3.484   0.125  0.0298 -0.1422 -0.0220
 4418TIP3    H113218   3.045   3.423   0.179 -1.4704 -0.1276 -1.2775
 4418TIP3    H213219   3.079   3.569   0.165 -1.3272 -0.0890 -0.5732
 4419TIP3   OH213220   7.098   0.027   0.795 -0.0179 -0.5362 -0.0632
 4419TIP3    H113221   7.107   0.122   0.784  1.4188 -0.5826  0.4383
 4419TIP3    H213222   7.007   0.009   0.775 -0.2522  0.9192 -0.4335
 4420TIP3   OH213223   1.813   1.565   4.383  0.0861 -0.6786 -0.6086
 4420TIP3    H113224   1.776   1.522   4.306  1.2373 -0.5804 -1.2456
 4420TIP3    H213225   1.870   1.499   4.422  0.1729 -0.4443 -0.3303
 4421TIP3   OH213226   0.325   4.273   5.796 -0.6743  0.2145  0.6815
 4421TIP3    H113227   0.237   4.310   5.794 -0.4927  0.6281  0.1587
 4421TIP3    H213228   0.382   4.348   5.812 -0.2472  0.2840 -1.0100
 4422TIP3   OH213229   5.225   5.568   1.546 -0.3050  0.2287  0.4522
 4422TIP3    H113230   5.253   5.654   1.514  0.3802 -0.8321 -1.9997
 4422TIP3    H213231   5.130   5.577   1.558 -0.1362  1.5249  1.0093
 4423TIP3   OH213232   6.649   3.413   3.234  0.3334 -0.0264 -0.2118
 4423TIP3    H113233   6.701   3.397   3.312 -0.2788 -0.0525  0.1987
 4423TIP3    H213234   6.662   3.506   3.214  1.1986 -0.2244 -0.6115
 4424TIP3   OH213235   2.273   5.909   2.162  0.1127 -0.2103 -0.4865
 4424TIP3    H113236   2.295   5.973   2.094  0.3775 -0.0698 -0.2722
 4424TIP3    H213237   2.322   5.939   2.239  0.7497 -1.0450 -0.5615
 4425TIP3   OH213238   3.047   4.443   0.959  0.0787 -0.6707  0.1290
 4425TIP3    H113239   2.975   4.433   0.897  1.2079  1.0266 -1.5408
 4425TIP3    H213240   3.121   4.472   0.907  1.8685 -1.7735  1.8833
 4426TIP3   OH213241   4.135   3.855   4.889 -0.1897 -0.4959  0.1006
 4426TIP3    H113242   4.087   3.934   4.911  2.5417  2.1331 -2.4570
 4426TIP3    H213243   4.206   3.851   4.953  1.0993  0.6286 -1.1961
 4427TIP3   OH213244   4.858   6.427   1.447  0.0217  0.1933  0.9155
 4427TIP3    H113245   4.780   6.476   1.419  0.4103  0.7133  0.7363
 4427TIP3    H213246   4.860   6.438   1.542  0.1781  0.6373  0.8639
 4428TIP3   OH213247   2.604   1.759   4.033  0.1545 -0.2307  0.1143
 4428TIP3    H113248   2.537   1.691   4.026 -0.3138  0.3845 -2.2862
 4428TIP3    H213249   2.684   1.717   4.001 -0.2127  0.3755 -1.7127
 4429TIP3   OH213250   1.242   1.622   4.142  0.1659 -0.6980 -0.7824
 4429TIP3    H113251   1.233   1.688   4.211 -0.4797 -1.1856 -0.4020
 4429TIP3    H213252   1.176   1.646   4.077 -0.2119 -1.0872 -0.5456
 4430TIP3   OH213253   3.313   2.799   2.031  0.3620 -0.2051 -0.5481
 4430TIP3    H113254   3.285   2.814   2.121  0.1352 -1.7870 -0.3379
 4430TIP3    H213255   3.405   2.828   2.029  0.2405  0.2433  0.0589
 4431TIP3   OH213256   7.120   5.956   2.697 -0.0422  0.0225  0.8082
 4431TIP3    H113257   7.031   5.973   2.667 -0.0435  3.3604  2.2108
 4431TIP3    H213258   7.174   6.016   2.645  1.2100 -0.9534  0.9425
 4432TIP3   OH213259   1.302   3.002   3.527  0.1213  0.0874 -0.8077
 4432TIP3    H113260   1.333   2.926   3.479 -0.1923  0.0352 -0.9295
 4432TIP3    H213261   1.307   2.976   3.619  2.4405  0.8183 -0.6728
 4433TIP3   OH213262   3.326   4.813   1.684  0.7140  0.0036 -0.1544
 4433TIP3    H113263   3.293   4.768   1.762  1.8384  0.7771  0.8077
 4433TIP3    H213264   3.377   4.747   1.637  0.5085 -0.3132  0.0666
 4434TIP3   OH213265   0.391   2.676   3.747  0.3114  0.4284 -0.0471
 4434TIP3    H113266   0.437   2.593   3.755  1.8532  1.4386  3.1480
 4434TIP3    H213267   0.299   2.651   3.736  0.8620 -1.6598 -0.3326
 4435TIP3   OH213268   3.669   1.896   4.576 -0.1043 -0.1011 -0.2324
 4435TIP3    H113269   3.664   1.822   4.516 -1.4763  2.1503 -3.1345
 4435TIP3    H213270   3.761   1.920   4.578 -0.1873  0.6960 -2.7762
 4436TIP3   OH213271   3.774   2.779   1.274 -0.1636  0.3536 -0.9673
 4436TIP3    H113272   3.740   2.693   1.250 -0.4316  0.6982 -1.8781
 4436TIP3    H213273   3.864   2.779   1.241  0.6196 -0.3986  1.0566
 4437TIP3   OH213274   0.240   4.810   2.562 -0.8107  0.3422  0.2058
 4437TIP3    H113275   0.262   4.881   2.503  0.4790 -0.6573 -0.5740
 4437TIP3    H213276   0.295   4.737   2.534 -2.0087 -0.9467  1.0298
 4438TIP3   OH213277   3.784   4.870   5.596 -0.0349  0.4300 -0.2636
 4438TIP3    H113278   3.879   4.885   5.595  0.1950 -0.9455 -0.6282
 4438TIP3    H213279   3.774   4.776   5.586 -1.4414  0.4791  0.4113
 4439TIP3   OH213280   5.671   6.284   4.037  0.1188  0.0446 -0.6299
 4439TIP3    H113281   5.746   6.237   4.074 -1.0666 -0.6104  1.0715
 4439TIP3    H213282   5.703   6.373   4.024  1.8654 -0.7347 -2.1910
 4440TIP3   OH213283   1.125   5.900   2.441  0.2390 -0.2112  0.2504
 4440TIP3    H113284   1.163   5.861   2.363  1.5350  1.3622  0.0413
 4440TIP3    H213285   1.063   5.966   2.408 -1.0826 -1.2482  0.5854
 4441TIP3   OH213286   6.299   2.980   4.802 -0.0155 -0.1534  0.6618
 4441TIP3    H113287   6.313   3.062   4.850  4.1263 -0.6458  0.6514
 4441TIP3    H213288   6.349   2.991   4.721 -1.4911 -1.8011 -0.5498
 4442TIP3   OH213289   3.163   2.903   0.860  0.3390  0.3077  0.2334
 4442TIP3    H113290   3.127   2.923   0.774 -1.9280  0.0903  1.0643
 4442TIP3    H213291   3.195   2.813   0.852  0.8960  0.5699 -0.5946
 4443TIP3   OH213292   1.931   3.726   3.833  0.9881  1.0198 -0.6144
 4443TIP3    H113293   1.847   3.753   3.796  1.3118  2.2012 -0.5091
 4443TIP3    H213294   1.947   3.639   3.796 -1.0022  0.0847  0.5547
 4444TIP3   OH213295   4.600   1.091   5.005  0.0483 -0.4347 -0.0841
 4444TIP3    H113296   4.515   1.107   4.962 -0.1326  0.9070  0.7345
 4444TIP3    H213297   4.593   1.001   5.037 -0.4756 -0.8637 -1.3211
 4445TIP3   OH213298   3.947   5.643   5.144 -0.1807  0.0107  0.0702
 4445TIP3    H113299   4.007   5.570   5.154 -0.6598 -0.1835  1.9111
 4445TIP3    H213300   3.998   5.720   5.166  0.0148  0.1300 -0.7524
 4446TIP3   OH213301   3.096   1.740   4.169 -0.0278  0.0228  0.1010
 4446TIP3    H113302   3.133   1.656   4.198  0.9505  0.6930  0.8307
 4446TIP3    H213303   3.031   1.762   4.235 -0.2339 -0.1119 -0.0535
 4447TIP3   OH213304   0.225   4.750   1.296 -0.2237  0.8087  0.4701
 4447TIP3    H113305   0.155   4.753   1.361 -0.3213 -0.4517  0.4395
 4447TIP3    H213306   0.219   4.663   1.257  1.3158  0.6946  0.4029
 4448TIP3   OH213307   1.884   0.696   1.279 -0.0667 -0.3984  0.7403
 4448TIP3    H113308   1.796   0.659   1.283 -0.4258  0.3610  0.2136
 4448TIP3    H213309   1.926   0.650   1.206 -0.6183  0.4311 -0.1173
 4449TIP3   OH213310   6.532   5.546   2.057  0.5108 -0.0133  0.1079
 4449TIP3    H113311   6.473   5.562   1.983  1.5833 -0.2333 -0.8046
 4449TIP3    H213312   6.598   5.485   2.024  0.3946 -0.9902  1.5693
 4450TIP3   OH213313   3.226   6.344   2.687  0.3367 -0.1624  0.6473
 4450TIP3    H113314   3.168   6.270   2.705 -1.0092 -0.0745 -2.7070
 4450TIP3    H213315   3.202   6.409   2.753 -2.7594 -0.5250  0.0471
 4451TIP3   OH213316   7.090   0.209   4.078  0.2118  0.1683 -0.1199
 4451TIP3    H113317   7.120   0.300   4.070 -1.1132  0.5741 -0.7907
 4451TIP3    H213318   7.022   0.200   4.012 -0.1471 -1.1213  0.3909
 4452TIP3   OH213319   3.444   3.122   4.536  0.5636 -0.2894  0.0335
 4452TIP3    H113320   3.464   3.178   4.460  2.1702  0.6306  1.0831
 4452TIP3    H213321   3.373   3.169   4.581 -0.2341 -0.7188 -0.7218
 4453TIP3   OH213322   3.654   5.373   3.086 -0.2249  0.1960  0.3466
 4453TIP3    H113323   3.577   5.397   3.034  0.0719  0.2687 -0.0632
 4453TIP3    H213324   3.670   5.281   3.064  2.0930  1.1311 -2.5845
 4454TIP3   OH213325   4.637   0.241   2.794 -0.4672  0.1686 -0.6601
 4454TIP3    H113326   4.689   0.211   2.719  0.4894 -1.7314  0.6522
 4454TIP3    H213327   4.700   0.285   2.850 -0.7350 -0.1603 -0.0886
 4455TIP3   OH213328   4.996   3.260   2.637 -0.1265 -0.3583 -0.4077
 4455TIP3    H113329   5.066   3.219   2.688  0.1830  0.6378  0.0133
 4455TIP3    H213330   4.946   3.188   2.601 -1.2077 -1.1715  2.4725
 4456TIP3   OH213331   3.104   0.783   1.051  0.0022 -0.0608  0.4005
 4456TIP3    H113332   3.024   0.820   1.089 -0.3842  0.2442 -0.6786
 4456TIP3    H213333   3.165   0.856   1.049 -0.0843  0.0048  0.1423
 4457TIP3   OH213334   1.738   4.032   4.103 -0.5556  0.2921  0.0471
 4457TIP3    H113335   1.758   4.102   4.040 -1.8540 -1.0912 -2.0369
 4457TIP3    H213336   1.792   3.958   4.073 -0.3044 -0.0598  1.3226
 4458TIP3   OH213337   2.780   6.005   0.263 -0.2848 -0.2541 -0.0116
 4458TIP3    H113338   2.760   6.063   0.189 -0.0785 -1.9669 -1.4961
 4458TIP3    H213339   2.830   5.933   0.224 -0.6648 -1.5215  1.7033
 4459TIP3   OH213340   3.698   4.664   4.256 -0.1562 -0.0982 -0.3519
 4459TIP3    H113341   3.686   4.732   4.189 -0.4609  1.2739  1.0315
 4459TIP3    H213342   3.673   4.583   4.213 -2.3312  1.0065 -1.3026
 4460TIP3   OH213343   1.359   6.601   0.310  0.3257  0.1057 -0.4947
 4460TIP3    H113344   1.315   6.662   0.369 -0.9077  0.2918 -1.5601
 4460TIP3    H213345   1.316   6.517   0.326 -0.4097  0.2729 -1.4870
 4461TIP3   OH213346   3.877   2.667   2.523 -0.3908  0.4998 -0.0107
 4461TIP3    H113347   3.887   2.730   2.595  0.5603  1.0458 -0.6008
 4461TIP3    H213348   3.941   2.598   2.543  1.0946  1.4692 -1.1455
 4462TIP3   OH213349   1.641   6.678   3.736 -0.0800  0.1241  0.7341
 4462TIP3    H113350   1.703   6.637   3.675 -1.0348  0.3038 -0.3995
 4462TIP3    H213351   1.576   6.721   3.679 -1.2975 -0.1333  1.8698
 4463TIP3   OH213352   4.979   2.785   0.249  0.1580 -0.9335 -0.0569
 4463TIP3    H113353   4.991   2.690   0.257  2.3875 -0.6774  0.2528
 4463TIP3    H213354   4.963   2.815   0.339  0.6772 -0.8994  0.0303
 4464TIP3   OH213355   5.294   2.710   0.139  0.4435  0.7097 -0.4014
 4464TIP3    H113356   5.221   2.656   0.169  0.1877  0.1865 -1.8640
 4464TIP3    H213357   5.253   2.787   0.100  0.6782  0.6657 -0.7448
 4465TIP3   OH213358   5.525   4.864   4.937 -0.4724 -0.3231  0.2620
 4465TIP3    H113359   5.614   4.880   4.906 -0.7664 -0.4517 -0.6632
 4465TIP3    H213360   5.470   4.871   4.859 -1.3812  0.5417  0.9497
 4466TIP3   OH213361   3.040   3.835   2.718  0.0398  0.4821 -0.1685
 4466TIP3    H113362   3.043   3.917   2.768 -1.7040  0.1519  0.5630
 4466TIP3    H213363   3.114   3.784   2.751  0.5550  1.3730  0.0860
 4467TIP3   OH213364   5.736   3.326   4.630 -0.1256  0.6379 -0.4267
 4467TIP3    H113365   5.805   3.341   4.695  0.3484 -1.4549 -0.3659
 4467TIP3    H213366   5.661   3.298   4.681 -0.2240  0.4745 -0.6569
 4468TIP3   OH213367   3.767   2.815   2.193 -0.5448 -0.0199  0.0235
 4468TIP3    H113368   3.822   2.804   2.115 -1.3279 -0.7143 -0.4605
 4468TIP3    H213369   3.824   2.856   2.258  0.7463 -1.3287 -0.2343
 4469TIP3   OH213370   0.097   2.763   1.550  0.2867 -0.5906  0.3744
 4469TIP3    H113371   0.122   2.799   1.636 -1.5301  1.6027  0.0644
 4469TIP3    H213372   0.176   2.773   1.497  1.0714 -0.8836  1.4259
 4470TIP3   OH213373   7.027   1.189   3.306 -0.2517  0.2319  0.1026
 4470TIP3    H113374   7.079   1.223   3.379  0.6658 -0.1235 -0.3664
 4470TIP3    H213375   7.091   1.148   3.248 -1.0896 -0.4228 -0.3864
 4471TIP3   OH213376   4.309   1.500   0.140  0.1243  0.7034 -0.0871
 4471TIP3    H113377   4.315   1.424   0.082 -1.0926  0.1111  0.5117
 4471TIP3    H213378   4.218   1.529   0.130  0.5533  2.0352 -0.2356
 4472TIP3   OH213379   3.622   5.205   1.814 -0.4142  0.0381  0.1674
 4472TIP3    H113380   3.532   5.223   1.841 -0.8939 -1.1800 -0.5219
 4472TIP3    H213381   3.666   5.178   1.895 -1.4107 -2.0002  0.1056
 4473TIP3   OH213382   6.049   0.609   3.989 -0.4418  0.3120 -0.3673
 4473TIP3    H113383   6.138   0.579   4.005 -0.6230  0.2418  0.5407
 4473TIP3    H213384   6.018   0.555   3.916  0.8978  1.6199 -1.9793
 4474TIP3   OH213385   3.681   2.118   4.422  0.4448  0.1770  0.0472
 4474TIP3    H113386   3.654   2.049   4.483  0.9710 -0.9645 -0.9683
 4474TIP3    H213387   3.725   2.183   4.477 -0.5239 -0.0353  1.0993
 4475TIP3   OH213388   3.408   1.981   5.841  0.5137  0.2404 -0.3890
 4475TIP3    H113389   3.346   2.020   5.779 -0.7307  0.1672  0.7485
 4475TIP3    H213390   3.406   2.041   5.916 -0.7596 -1.4667  1.0296
 4476TIP3   OH213391   5.509   5.783   1.436 -0.2959 -0.4383 -0.1054
 4476TIP3    H113392   5.576   5.774   1.368 -0.3146  0.3390 -0.2392
 4476TIP3    H213393   5.464   5.865   1.414 -1.2748 -0.9319 -0.0059
 4477TIP3   OH213394   1.750   3.499   5.444  0.3575  0.4649  0.0868
 4477TIP3    H113395   1.752   3.501   5.539  0.1440  0.4828  0.0902
 4477TIP3    H213396   1.842   3.494   5.418  0.3730 -1.0057  0.3244
 4478TIP3   OH213397   0.087   2.013   5.314  0.3048 -0.1759 -0.0577
 4478TIP3    H113398   0.133   2.022   5.398 -1.1259  1.1864  0.6331
 4478TIP3    H213399   0.021   2.082   5.316  0.5366  0.1998 -2.5350
 4479TIP3   OH213400   5.913   6.707   4.755 -0.6826  0.0760  0.1262
 4479TIP3    H113401   5.956   6.630   4.720 -0.9940 -0.9595  1.8814
 4479TIP3    H213402   5.823   6.702   4.722 -0.4189  0.2943 -0.6383
 4480TIP3   OH213403   6.214   6.656   0.179 -0.4183  0.4765 -0.2150
 4480TIP3    H113404   6.275   6.607   0.236 -0.1853 -0.1114 -0.9592
 4480TIP3    H213405   6.270   6.693   0.111 -0.7606  0.7715 -0.3370
 4481TIP3   OH213406   7.219   4.424   4.015 -0.0042 -0.2139  0.3770
 4481TIP3    H113407   7.182   4.508   3.990 -0.0712 -0.4766 -0.4124
 4481TIP3    H213408   7.152   4.360   3.992  0.9273 -0.6957 -1.0757
 4482TIP3   OH213409   2.449   1.983   2.933 -0.0265  0.3435  0.0812
 4482TIP3    H113410   2.481   2.061   2.978  1.3928 -0.2425  0.1393
 4482TIP3    H213411   2.375   1.953   2.986  1.9809 -0.7159  2.5055
 4483TIP3   OH213412   3.545   5.796   1.443  0.1111  0.0192  0.3403
 4483TIP3    H113413   3.518   5.717   1.397  3.4373 -1.2537  0.2988
 4483TIP3    H213414   3.627   5.821   1.401 -0.9250  3.7728  0.1498
 4484TIP3   OH213415   1.362   3.552   5.190  0.5481  0.5802 -0.8439
 4484TIP3    H113416   1.296   3.619   5.203  0.9264  0.7741  0.0941
 4484TIP3    H213417   1.435   3.598   5.148  0.1675  0.4007 -1.7233
 4485TIP3   OH213418   1.458   5.328   0.927  0.0815  0.0881  0.6258
 4485TIP3    H113419   1.455   5.416   0.890  2.1238 -0.2422 -0.4847
 4485TIP3    H213420   1.416   5.337   1.013  1.3474  2.4440  1.0851
 4486TIP3   OH213421   6.266   1.797   1.906  0.0742 -0.1710  0.7976
 4486TIP3    H113422   6.198   1.756   1.853 -0.7057 -0.0858  1.7071
 4486TIP3    H213423   6.232   1.794   1.996  1.1826  0.0493  1.2454
 4487TIP3   OH213424   4.096   2.263   2.293  0.4180  0.4937 -0.1872
 4487TIP3    H113425   4.177   2.264   2.344  1.2658 -1.2614 -1.3824
 4487TIP3    H213426   4.029   2.292   2.354  1.9792  2.3344  0.7493
 4488TIP3   OH213427   1.750   0.895   2.366 -0.0804  0.2537  0.0637
 4488TIP3    H113428   1.703   0.904   2.449  1.0034 -1.3946  0.9055
 4488TIP3    H213429   1.703   0.826   2.319 -0.7909  1.2936 -0.8076
 4489TIP3   OH213430   2.319   4.617   5.182 -0.5026 -0.1472  0.0415
 4489TIP3    H113431   2.321   4.663   5.098  1.0278 -0.4391 -0.1194
 4489TIP3    H213432   2.400   4.566   5.183 -0.9276 -0.8484  1.3163
 4490TIP3   OH213433   5.040   1.247   1.083  0.3459 -0.0254 -0.1736
 4490TIP3    H113434   5.052   1.166   1.133 -0.4571 -0.0308  0.0321
 4490TIP3    H213435   4.961   1.231   1.031 -0.2010  0.8615  0.3645
 4491TIP3   OH213436   6.454   4.266   5.095 -0.1761  0.2823 -0.1100
 4491TIP3    H113437   6.452   4.330   5.024 -0.5936  1.3171  0.8143
 4491TIP3    H213438   6.377   4.287   5.148 -1.4042 -2.1336 -0.7479
 4492TIP3   OH213439   1.839   5.867   4.779 -0.2034  0.4487 -0.5146
 4492TIP3    H113440   1.929   5.836   4.788 -0.2134  0.7347  0.6300
 4492TIP3    H213441   1.785   5.793   4.807 -0.2270  1.3985  2.1746
 4493TIP3   OH213442   4.363   4.254   1.422  0.1045 -0.0890 -0.1197
 4493TIP3    H113443   4.325   4.328   1.470  0.2594  1.4248 -2.1666
 4493TIP3    H213444   4.300   4.237   1.352  0.3544 -1.5547 -0.0046
 4494TIP3   OH213445   1.883   5.248   2.360  0.0542 -0.1771 -0.3025
 4494TIP3    H113446   1.897   5.165   2.314 -1.2471 -0.7324  0.2479
 4494TIP3    H213447   1.971   5.281   2.378  0.6711 -2.2902  0.9765
 4495TIP3   OH213448   1.151   4.526   5.056  0.8354 -0.2755  0.2371
 4495TIP3    H113449   1.085   4.570   5.001  0.6133 -1.1619 -0.2230
 4495TIP3    H213450   1.229   4.581   5.047  0.9848 -0.6916 -1.4603
 4496TIP3   OH213451   0.512   6.682   4.303  0.1449  0.3151 -0.2587
 4496TIP3    H113452   0.534   6.589   4.299 -0.4901  0.1929 -1.1867
 4496TIP3    H213453   0.451   6.690   4.376  1.9424  0.4025  1.3288
 4497TIP3   OH213454   2.909   0.149   3.573 -0.4202  0.1263  0.2793
 4497TIP3    H113455   2.993   0.174   3.532 -0.4688  1.2077  0.7909
 4497TIP3    H213456   2.859   0.231   3.575 -0.8882 -0.1727  1.3900
 4498TIP3   OH213457   2.793   2.324   1.546  0.5357 -0.1940 -0.0931
 4498TIP3    H113458   2.885   2.303   1.534  0.7164  0.8195 -0.7062
 4498TIP3    H213459   2.768   2.368   1.464 -0.5218 -0.5624  0.0116
 4499TIP3   OH213460   6.555   6.047   2.345 -0.0781  0.4556  0.1167
 4499TIP3    H113461   6.483   6.080   2.400 -1.0108 -1.6035  0.2092
 4499TIP3    H213462   6.568   5.957   2.374  0.6979 -0.0801 -1.7729
 4500TIP3   OH213463   5.310   4.336   5.479  0.9076  0.3153  0.1191
 4500TIP3    H113464   5.380   4.346   5.544 -0.4609 -0.8980  1.8514
 4500TIP3    H213465   5.340   4.265   5.422  2.4783  1.9127 -1.1849
 4501TIP3   OH213466   2.118   0.519   5.818  0.0668  0.0886 -0.0313
 4501TIP3    H113467   2.175   0.443   5.818  0.8473  0.6238 -1.7012
 4501TIP3    H213468   2.167   0.586   5.866  0.4784  0.2708 -0.6876
 4502TIP3   OH213469   7.129   1.555   2.792 -0.0953 -0.4040 -0.0270
 4502TIP3    H113470   7.176   1.511   2.722 -0.8354 -0.5882 -0.4201
 4502TIP3    H213471   7.167   1.520   2.873  0.8096 -0.1381 -0.3218
 4503TIP3   OH213472   1.167   1.857   0.513 -0.4878 -0.3846 -0.0071
 4503TIP3    H113473   1.187   1.772   0.474 -0.8776 -0.4962  0.0400
 4503TIP3    H213474   1.091   1.889   0.465 -0.3491 -0.0630 -0.0199
 4504TIP3   OH213475   1.029   6.275   0.870  0.4645  0.0682  0.1628
 4504TIP3    H113476   1.067   6.237   0.949  0.3136 -1.0728 -0.2950
 4504TIP3    H213477   1.096   6.263   0.802 -0.1388 -0.6951 -0.3170
 4505TIP3   OH213478   1.446   3.572   1.913 -0.2618  0.1992  0.1384
 4505TIP3    H113479   1.356   3.599   1.925 -0.2059  0.7216 -0.5554
 4505TIP3    H213480   1.498   3.650   1.932  0.0686 -0.1832  0.8538
 4506TIP3   OH213481   5.377   6.096   0.388  0.2597  0.1256  0.5940
 4506TIP3    H113482   5.433   6.060   0.457 -0.1818 -0.6209  0.5763
 4506TIP3    H213483   5.382   6.191   0.399  2.0755  0.1174  0.1752
 4507TIP3   OH213484   1.730   3.219   4.236 -0.1746  0.5379 -0.3192
 4507TIP3    H113485   1.761   3.191   4.150 -0.3826  0.8199 -0.4869
 4507TIP3    H213486   1.709   3.311   4.226  0.2845  0.7063  0.1715
 4508TIP3   OH213487   2.082   1.918   4.516  0.1042 -0.2090  0.6795
 4508TIP3    H113488   2.046   1.997   4.476  0.8797 -0.7048 -1.1068
 4508TIP3    H213489   2.018   1.893   4.583 -1.3297  0.5975 -0.3510
 4509TIP3   OH213490   0.837   5.907   4.298 -0.0223 -0.2416 -0.2041
 4509TIP3    H113491   0.880   5.854   4.231 -0.5732 -0.7032 -0.1997
 4509TIP3    H213492   0.846   5.855   4.378 -3.1096 -1.7898 -0.7255
 4510TIP3   OH213493   5.900   2.840   3.899  0.0770 -0.0697  0.3236
 4510TIP3    H113494   5.944   2.917   3.863 -0.3370  0.2837  0.5651
 4510TIP3    H213495   5.810   2.868   3.913 -0.4592 -1.0298 -0.9795
 4511TIP3   OH213496   1.251   3.345   1.063 -0.3166 -0.0200 -0.0394
 4511TIP3    H113497   1.302   3.289   1.005 -3.0978  0.0200 -2.7160
 4511TIP3    H213498   1.186   3.287   1.102  0.9029  0.1514  2.4551
 4512TIP3   OH213499   0.169   1.177   5.780  1.1704 -0.1798  0.0640
 4512TIP3    H113500   0.215   1.201   5.700 -0.2609  0.1941 -0.6737
 4512TIP3    H213501   0.123   1.096   5.759 -1.3209  1.2719 -0.3857
 4513TIP3   OH213502   5.764   3.400   3.567  0.3541 -0.1162 -0.5400
 4513TIP3    H113503   5.728   3.466   3.626  0.3557 -1.1462  0.6547
 4513TIP3    H213504   5.692   3.381   3.506 -0.1497 -0.0750  0.0326
 4514TIP3   OH213505   2.974   1.201   1.758 -0.3920  0.2078 -0.5609
 4514TIP3    H113506   2.926   1.140   1.813  0.9483  0.1344  0.5987
 4514TIP3    H213507   2.909   1.236   1.698 -2.2174  1.0995  1.7618
 4515TIP3   OH213508   6.906   6.153   4.369 -0.1943 -0.1599  0.0397
 4515TIP3    H113509   6.904   6.110   4.455  0.7683 -0.4327 -0.0707
 4515TIP3    H213510   6.862   6.091   4.311  0.5898 -0.7093  0.0178
 4516TIP3   OH213511   5.501   4.688   0.940 -0.5977 -0.2202 -0.4325
 4516TIP3    H113512   5.507   4.651   0.852 -1.6254 -1.7118  0.0988
 4516TIP3    H213513   5.485   4.613   0.997 -0.8863  0.8320  0.9203
 4517TIP3   OH213514   1.163   1.144   0.938 -0.4485  0.2621 -0.3037
 4517TIP3    H113515   1.116   1.211   0.987  2.3097  1.0842  1.4996
 4517TIP3    H213516   1.188   1.079   1.004 -0.5450 -1.0087 -1.4921
 4518TIP3   OH213517   4.697   3.216   2.897 -0.1370 -0.1205 -0.3973
 4518TIP3    H113518   4.737   3.283   2.953 -1.1773 -1.4297  2.0622
 4518TIP3    H213519   4.614   3.254   2.869  1.0412  1.1335 -2.4195
 4519TIP3   OH213520   5.369   1.617   0.929 -0.3076 -0.1731 -0.8453
 4519TIP3    H113521   5.439   1.586   0.872  0.4372 -0.0525 -0.0196
 4519TIP3    H213522   5.297   1.554   0.915 -0.1441 -0.1454 -1.8935
 4520TIP3   OH213523   1.654   3.254   1.910  0.0387 -0.4855  0.1203
 4520TIP3    H113524   1.591   3.276   1.842 -0.1811 -2.3700 -0.3419
 4520TIP3    H213525   1.728   3.313   1.895 -0.1568 -0.6167 -1.5414
 4521TIP3   OH213526   3.699   3.433   0.099 -0.2166 -0.0246  0.4657
 4521TIP3    H113527   3.642   3.356   0.089  1.8881 -1.5679 -0.4457
 4521TIP3    H213528   3.699   3.450   0.193 -0.1708 -1.6489  0.8004
 4522TIP3   OH213529   1.158   1.529   2.888  0.0959  0.2298  0.2927
 4522TIP3    H113530   1.221   1.497   2.822 -1.6651 -0.3648 -1.1998
 4522TIP3    H213531   1.143   1.453   2.944  1.8094  0.8152  1.6373
 4523TIP3   OH213532   2.162   0.967   1.876 -0.4142 -0.7036 -0.4805
 4523TIP3    H113533   2.177   1.035   1.942 -1.3698 -0.0453 -0.9203
 4523TIP3    H213534   2.152   0.886   1.926  1.5665 -0.7028  0.0083
 4524TIP3   OH213535   2.954   1.202   1.402  1.0644 -0.1624  0.6603
 4524TIP3    H113536   2.946   1.114   1.366 -3.0005  0.1248  0.4311
 4524TIP3    H213537   2.913   1.196   1.488 -0.1301  1.6365  0.2696
 4525TIP3   OH213538   1.963   6.011   3.305  0.6357 -0.4501 -0.2670
 4525TIP3    H113539   2.031   6.058   3.257  1.3994 -1.2923 -0.0289
 4525TIP3    H213540   1.946   5.933   3.253  1.2131 -1.1918  0.6219
 4526TIP3   OH213541   4.392   3.119   1.455  0.0049  1.2806 -0.4595
 4526TIP3    H113542   4.297   3.116   1.461  0.1360  0.1471  3.2334
 4526TIP3    H213543   4.416   3.204   1.492  0.4645  0.9272  0.0779
 4527TIP3   OH213544  -0.001   3.099   5.633  0.2309  0.0892  0.2494
 4527TIP3    H113545   0.003   3.179   5.581 -1.9995  0.0213 -0.1258
 4527TIP3    H213546   0.088   3.063   5.630  1.3237  2.6044  0.5675
 4528TIP3   OH213547   3.095   5.318   3.535  0.5250 -0.0915 -0.0605
 4528TIP3    H113548   3.001   5.297   3.542  0.4953  0.2384  0.6684
 4528TIP3    H213549   3.103   5.404   3.576  1.3194 -0.6177  0.9535
 4529TIP3   OH213550   6.664   6.364   3.110  0.0327 -0.2467 -0.0939
 4529TIP3    H113551   6.589   6.382   3.167 -0.7615 -0.3179 -1.0907
 4529TIP3    H213552   6.657   6.429   3.040 -0.9790 -2.2495 -1.9546
 4530TIP3   OH213553   0.219   0.126   0.572  0.7889 -0.3580 -0.0669
 4530TIP3    H113554   0.209   0.221   0.566  1.9440 -0.2480 -0.4976
 4530TIP3    H213555   0.179   0.093   0.492  0.7760 -0.1962 -0.1281
 4531TIP3   OH213556   3.814   6.643   3.359 -0.2480  0.3046 -0.3104
 4531TIP3    H113557   3.827   6.551   3.335  0.2531  0.3160 -0.0956
 4531TIP3    H213558   3.820   6.644   3.455  2.3149  0.9231 -0.3957
 4532TIP3   OH213559   4.815   6.348   4.927  0.1425 -0.2174 -0.0508
 4532TIP3    H113560   4.762   6.417   4.967  0.9979 -0.1867  1.0744
 4532TIP3    H213561   4.829   6.377   4.837  0.2115  0.9195  0.3130
 4533TIP3   OH213562   4.124   6.423   2.870 -0.0123 -0.3911 -0.1152
 4533TIP3    H113563   4.146   6.381   2.953  0.6285  1.2741  0.6049
 4533TIP3    H213564   4.152   6.514   2.881 -1.3220  0.2479 -1.5971
 4534TIP3   OH213565   2.921   2.288   3.836 -0.6867 -0.1629  0.2247
 4534TIP3    H113566   2.985   2.334   3.890 -1.1957 -0.9975  1.5765
 4534TIP3    H213567   2.852   2.352   3.822 -0.0446  0.4135 -0.3853
 4535TIP3   OH213568   0.817   2.600   0.099  0.0602 -0.3990  0.2883
 4535TIP3    H113569   0.879   2.530   0.118  0.5558  0.3785  1.7355
 4535TIP3    H213570   0.869   2.681   0.107  0.0674  0.1604 -3.5255
 4536TIP3   OH213571   4.456   5.252   0.910 -0.4418 -0.0094  0.1499
 4536TIP3    H113572   4.425   5.169   0.946 -1.3881 -0.3121 -1.3262
 4536TIP3    H213573   4.419   5.257   0.823  2.0355  0.5617 -0.9742
 4537TIP3   OH213574   5.677   2.578   4.231 -0.1641  0.2013 -0.1392
 4537TIP3    H113575   5.703   2.571   4.139  1.5048 -1.3297  0.3992
 4537TIP3    H213576   5.625   2.500   4.247 -0.7443  0.6404  0.1523
 4538TIP3   OH213577   3.179   4.780   3.452 -0.1406 -0.0195 -0.3867
 4538TIP3    H113578   3.261   4.816   3.485 -1.6103  1.0816  2.4147
 4538TIP3    H213579   3.184   4.687   3.472  1.1244 -0.3486 -1.9859
 4539TIP3   OH213580   5.942   2.344   0.453  0.1490 -0.3416  0.4876
 4539TIP3    H113581   5.947   2.351   0.358 -0.0481 -0.5152  0.4640
 4539TIP3    H213582   5.971   2.429   0.485  1.7842 -0.8000  0.3238
 4540TIP3   OH213583   5.125   6.526   4.375 -0.7963  0.4770  0.3501
 4540TIP3    H113584   5.065   6.476   4.320  0.4103 -0.7767  0.1074
 4540TIP3    H213585   5.127   6.478   4.458  0.0589  0.3340  0.2587
 4541TIP3   OH213586   6.640   4.318   3.518 -0.6910  0.0312  0.1334
 4541TIP3    H113587   6.608   4.297   3.431 -1.1115 -1.0227  0.5207
 4541TIP3    H213588   6.722   4.365   3.503 -2.0358  2.1880 -0.8673
 4542TIP3   OH213589   6.000   6.335   2.750  0.2003  0.2708  0.6402
 4542TIP3    H113590   5.926   6.275   2.750  0.6562 -0.3291 -0.7060
 4542TIP3    H213591   5.968   6.413   2.796 -0.9996 -0.2874  0.7780
 4543TIP3   OH213592   3.012   3.246   2.095  0.3062 -0.0422  0.1385
 4543TIP3    H113593   3.071   3.180   2.059 -0.6629 -0.2261 -1.2124
 4543TIP3    H213594   3.034   3.250   2.188  0.1473 -2.5755  0.3656
 4544TIP3   OH213595   6.721   0.639   3.236 -0.0616  0.1274  0.7702
 4544TIP3    H113596   6.801   0.650   3.185  1.2392 -2.7708  1.9511
 4544TIP3    H213597   6.665   0.585   3.182 -1.3385  2.1882 -0.0717
 4545TIP3   OH213598   2.830   2.009   0.134  0.6248 -0.1346 -0.2011
 4545TIP3    H113599   2.825   2.096   0.175  1.3403 -0.8485  1.4985
 4545TIP3    H213600   2.792   2.022   0.047 -0.2745  1.6466  0.3887
 4546TIP3   OH213601   1.540   3.807   5.620 -0.1536 -0.0263  0.0586
 4546TIP3    H113602   1.631   3.782   5.638  0.1154  0.6531 -0.3036
 4546TIP3    H213603   1.489   3.728   5.637  0.5631 -0.5499 -0.1939
 4547TIP3   OH213604   0.441   1.324   5.357  0.2011  0.3690 -0.1324
 4547TIP3    H113605   0.494   1.388   5.310 -0.0231  1.3965  0.9603
 4547TIP3    H213606   0.505   1.276   5.411  0.3083 -0.0265 -0.6026
 4548TIP3   OH213607   7.128   1.906   4.548 -0.4634 -0.1043 -0.1639
 4548TIP3    H113608   7.106   1.999   4.542  0.7895  0.1480 -1.1022
 4548TIP3    H213609   7.143   1.878   4.458 -0.6595 -1.1938  0.1163
 4549TIP3   OH213610   5.053   5.113   1.322 -0.1471 -0.4161  0.5725
 4549TIP3    H113611   5.086   5.160   1.246 -1.3873 -1.3809 -0.6129
 4549TIP3    H213612   5.021   5.182   1.380  0.6390  0.3280  0.1521
 4550TIP3   OH213613   4.524   6.427   0.508 -0.4355 -0.1364 -0.4074
 4550TIP3    H113614   4.471   6.454   0.583  0.4321 -1.2327  0.6322
 4550TIP3    H213615   4.549   6.336   0.526  0.4729 -0.1677 -1.6266
 4551TIP3   OH213616   4.425   1.277   1.946 -0.1302 -0.7118 -0.1543
 4551TIP3    H113617   4.350   1.250   1.999  0.2085  1.5370  1.6147
 4551TIP3    H213618   4.386   1.319   1.869 -0.6629 -1.4533 -0.2935
 4552TIP3   OH213619   6.313   0.690   1.810 -0.4218 -0.6916 -0.1371
 4552TIP3    H113620   6.390   0.699   1.867  0.5073  1.3923 -1.5757
 4552TIP3    H213621   6.350   0.666   1.724 -1.5054 -0.7839 -0.5896
 4553TIP3   OH213622   4.151   0.073   4.614 -0.1490 -0.3386  0.2558
 4553TIP3    H113623   4.199   0.118   4.544 -0.0531  1.4526  1.4223
 4553TIP3    H213624   4.214   0.010   4.650 -0.0858 -1.0188 -0.9870
 4554TIP3   OH213625   2.331   0.406   4.869  0.2150 -0.1459  0.1855
 4554TIP3    H113626   2.245   0.415   4.909 -0.7583  0.3907 -1.8609
 4554TIP3    H213627   2.327   0.463   4.792  2.3042 -0.3540 -0.1361
 4555TIP3   OH213628   1.820   4.457   3.050  0.1776 -0.3438 -0.0126
 4555TIP3    H113629   1.746   4.489   2.999  0.4789 -1.6102 -1.2903
 4555TIP3    H213630   1.864   4.394   2.993  0.9572 -1.2744  1.5291
 4556TIP3   OH213631   1.291   1.046   4.210  0.1160 -0.3985 -0.0073
 4556TIP3    H113632   1.372   1.051   4.159 -0.0772 -1.7177 -0.4699
 4556TIP3    H213633   1.222   1.031   4.146 -0.5532  0.9701  0.3574
 4557TIP3   OH213634   7.062   4.208   4.216  0.4431 -0.6973  0.2926
 4557TIP3    H113635   7.126   4.185   4.148  0.2078  1.3482 -0.6814
 4557TIP3    H213636   6.977   4.200   4.172  0.2271 -0.2488  0.6293
 4558TIP3   OH213637   6.749   5.008   4.786 -0.0969 -0.5500 -0.3070
 4558TIP3    H113638   6.679   5.058   4.744  0.3384  0.4372  0.1111
 4558TIP3    H213639   6.830   5.053   4.760  0.2040 -0.1215  1.2876
 4559TIP3   OH213640   6.239   1.670   4.051  0.4445 -0.1924 -0.0173
 4559TIP3    H113641   6.258   1.578   4.029  1.6977  0.1025 -0.2877
 4559TIP3    H213642   6.326   1.709   4.062 -0.0427  1.1818 -0.8339
 4560TIP3   OH213643   1.344   5.714   3.969 -0.2720 -0.2429 -0.1783
 4560TIP3    H113644   1.307   5.634   3.932  0.0691 -0.5537  0.1418
 4560TIP3    H213645   1.280   5.742   4.035  0.4829 -1.2995  1.0455
 4561TIP3   OH213646   4.592   1.929   0.027 -0.3668  0.1746  0.0519
 4561TIP3    H113647   4.573   1.948   0.119  0.7565 -0.8988  0.5339
 4561TIP3    H213648   4.687   1.918   0.025 -0.4209 -0.1168 -1.1835
 4562TIP3   OH213649   4.553   6.318   5.595  0.5182  0.5075  0.2566
 4562TIP3    H113650   4.612   6.289   5.525 -0.7754 -1.4893 -0.0905
 4562TIP3    H213651   4.473   6.345   5.550 -0.8707 -2.1543  0.9058
 4563TIP3   OH213652   2.533   3.262   5.783  0.3338  0.1123 -0.3025
 4563TIP3    H113653   2.474   3.245   5.710 -1.2738 -1.0908  1.1924
 4563TIP3    H213654   2.603   3.199   5.773 -0.7837 -1.2418  0.0984
 4564TIP3   OH213655   5.414   2.606   5.606 -0.0938  0.0226 -0.0741
 4564TIP3    H113656   5.435   2.642   5.519 -2.0197 -0.4485 -0.7692
 4564TIP3    H213657   5.499   2.602   5.651  1.1341 -0.7622 -2.3112
 4565TIP3   OH213658   0.923   6.204   3.124  0.0067 -0.1401 -0.0758
 4565TIP3    H113659   0.995   6.167   3.073  2.1604  2.7017  0.6290
 4565TIP3    H213660   0.920   6.151   3.203  0.0801 -1.3941 -0.8788
 4566TIP3   OH213661   7.131   2.822   2.965 -0.3038  0.3556 -0.4452
 4566TIP3    H113662   7.202   2.886   2.964 -1.1729  1.3964  0.9320
 4566TIP3    H213663   7.113   2.807   3.058 -0.9129 -1.0040 -0.7588
 4567TIP3   OH213664   6.230   1.489   2.866 -0.5414 -0.0232  0.2710
 4567TIP3    H113665   6.180   1.532   2.934 -0.5883 -0.9632  0.8542
 4567TIP3    H213666   6.180   1.410   2.844  0.3217 -0.6276  0.3881
 4568TIP3   OH213667   5.118   0.219   5.088  0.5272 -0.6529  0.0495
 4568TIP3    H113668   5.194   0.263   5.125  0.2328 -0.2467  0.1763
 4568TIP3    H213669   5.154   0.156   5.025  0.9928 -0.8925  0.5569
 4569TIP3   OH213670   2.217   1.527   1.308  0.3885 -0.4211  0.1546
 4569TIP3    H113671   2.175   1.514   1.223  2.8235 -3.3724 -0.7785
 4569TIP3    H213672   2.193   1.449   1.358  0.0169  0.6919  1.8077
 4570TIP3   OH213673   4.407   3.698   4.321  0.5817  0.1851  0.1023
 4570TIP3    H113674   4.460   3.745   4.386 -1.2537 -0.2554  2.0268
 4570TIP3    H213675   4.339   3.761   4.296 -1.0025 -0.8494  1.5723
 4571TIP3   OH213676   6.865   4.736   4.584 -0.6034  0.1295  0.8411
 4571TIP3    H113677   6.855   4.683   4.505  0.4019  0.3295  0.5625
 4571TIP3    H213678   6.776   4.753   4.614 -1.0590  1.1550 -0.9782
 4572TIP3   OH213679   1.513   6.009   4.410  0.2897 -0.2996  0.0746
 4572TIP3    H113680   1.473   5.993   4.495  0.5179 -1.4764 -0.0187
 4572TIP3    H213681   1.555   5.926   4.387 -1.5768 -0.7750 -2.1476
 4573TIP3   OH213682   3.099   3.426   0.629  0.0694 -0.1421 -0.7272
 4573TIP3    H113683   3.045   3.489   0.581 -0.9012  1.4427  2.2059
 4573TIP3    H213684   3.188   3.440   0.596  0.0575  3.5288  0.4070
 4574TIP3   OH213685   0.768   6.699   2.209 -0.0076 -0.7598 -0.5264
 4574TIP3    H113686   0.787   6.618   2.255  0.3944 -0.3895 -0.0284
 4574TIP3    H213687   0.769   6.675   2.116 -0.1736 -1.3762 -0.3709
 4575TIP3   OH213688   6.864   3.433   5.171 -0.2659  0.2700 -0.5578
 4575TIP3    H113689   6.919   3.502   5.133 -1.6826  0.4044 -2.5112
 4575TIP3    H213690   6.849   3.372   5.099 -0.7745 -1.0015  0.5715
 4576TIP3   OH213691   2.932   3.450   2.433  0.0469 -0.2549  0.3389
 4576TIP3    H113692   2.993   3.377   2.421  0.3920  0.2489 -1.1101
 4576TIP3    H213693   2.876   3.447   2.356  0.1762  1.1189  0.1740
 4577TIP3   OH213694   0.097   6.529   1.467  0.9389 -0.3495 -0.2165
 4577TIP3    H113695   0.082   6.546   1.374  2.3610  0.3926 -0.3338
 4577TIP3    H213696   0.009   6.518   1.503  0.3927 -2.4507 -1.9465
 4578TIP3   OH213697   1.910   3.292   2.481 -0.2324 -0.3245 -0.3543
 4578TIP3    H113698   1.878   3.365   2.533 -1.0421 -0.8059 -0.1585
 4578TIP3    H213699   2.005   3.302   2.482 -0.3319  0.7749 -0.4193
 4579TIP3   OH213700   2.934   1.237   3.468  0.1794  0.0049  0.1465
 4579TIP3    H113701   2.994   1.188   3.411 -0.2545 -0.8302  0.4063
 4579TIP3    H213702   2.895   1.302   3.410 -0.6301 -1.1550 -0.6443
 4580TIP3   OH213703   2.795   3.297   4.859  1.0524  0.5969  0.6098
 4580TIP3    H113704   2.788   3.376   4.913  1.0147  0.9252  0.1310
 4580TIP3    H213705   2.705   3.278   4.833  1.1446  0.8322  0.1081
 4581TIP3   OH213706   3.180   1.454   2.628  0.1952  0.0643 -0.1605
 4581TIP3    H113707   3.223   1.388   2.575 -1.1934 -1.5388  0.6161
 4581TIP3    H213708   3.233   1.461   2.707  0.0495 -0.5486 -0.0052
 4582TIP3   OH213709   4.274   2.751   1.439 -0.4295 -0.3047  0.0811
 4582TIP3    H113710   4.366   2.746   1.412 -0.2375 -0.4851  0.7403
 4582TIP3    H213711   4.225   2.738   1.358  0.1271 -1.9720 -0.0346
 4583TIP3   OH213712   1.425   6.000   4.035 -0.2745  0.3570 -0.1395
 4583TIP3    H113713   1.493   6.055   4.072  0.3896 -0.3070 -0.3347
 4583TIP3    H213714   1.432   5.917   4.082 -1.5041  0.5366  0.4137
 4584TIP3   OH213715   2.369   0.664   1.694 -0.4345  0.5843  0.5199
 4584TIP3    H113716   2.395   0.711   1.615 -0.8828  0.0449  0.0445
 4584TIP3    H213717   2.286   0.622   1.671  0.7814 -1.8973  0.3168
 4585TIP3   OH213718   3.769   2.012   3.935 -0.0502 -0.2376  0.4261
 4585TIP3    H113719   3.762   1.922   3.902  1.8609 -0.2180 -0.1545
 4585TIP3    H213720   3.789   2.002   4.028  2.2868 -0.5328 -0.0450
 4586TIP3   OH213721   1.467   1.884   1.407  0.1855  0.2082 -0.4309
 4586TIP3    H113722   1.382   1.841   1.402 -0.2026  0.5880  1.8070
 4586TIP3    H213723   1.500   1.863   1.495  1.8304  1.1015 -0.7827
 4587TIP3   OH213724   5.739   6.326   4.914  0.0624  0.0572 -0.3949
 4587TIP3    H113725   5.732   6.418   4.889 -0.7306  0.0473 -0.2206
 4587TIP3    H213726   5.651   6.301   4.939  0.3417 -0.6604 -0.1067
 4588TIP3   OH213727   0.987   3.079   3.237 -0.1850 -0.1528 -0.2201
 4588TIP3    H113728   1.067   3.046   3.278  0.0905  0.9775  0.1959
 4588TIP3    H213729   0.993   3.050   3.146  0.1813 -0.9701  0.0553
 4589TIP3   OH213730   1.861   0.441   0.346  0.1155 -0.0129  0.0432
 4589TIP3    H113731   1.952   0.428   0.320 -0.4552 -0.3701 -1.9674
 4589TIP3    H213732   1.810   0.417   0.269 -1.6499  1.1637  0.7628
 4590TIP3   OH213733   4.633   5.912   1.869  0.2647 -0.0581  0.3282
 4590TIP3    H113734   4.601   5.825   1.889 -0.5450 -0.1704 -1.2826
 4590TIP3    H213735   4.727   5.901   1.856  0.2515 -0.5850  0.6717
 4591TIP3   OH213736   4.353   6.387   5.375 -0.2894  0.1271  0.1543
 4591TIP3    H113737   4.269   6.360   5.337 -1.3873 -0.2481  2.6800
 4591TIP3    H213738   4.358   6.481   5.359 -1.0288  0.0899 -0.3053
 4592TIP3   OH213739   1.406   1.151   0.816 -0.3041  0.3019  0.3032
 4592TIP3    H113740   1.425   1.153   0.722  2.8195  1.6020  0.8344
 4592TIP3    H213741   1.318   1.187   0.823  0.3369  2.6517 -1.9889
 4593TIP3   OH213742   5.157   1.321   3.109 -0.0323 -0.7199 -0.6291
 4593TIP3    H113743   5.097   1.271   3.164 -1.3151  1.8223  0.4453
 4593TIP3    H213744   5.231   1.340   3.165 -1.3744  1.9385  0.4279
 4594TIP3   OH213745   1.541   5.780   1.998  0.0744  0.7653 -0.7135
 4594TIP3    H113746   1.616   5.752   2.051 -0.9477  0.7036  0.7484
 4594TIP3    H213747   1.565   5.755   1.909  2.4087  2.0128 -0.5254
 4595TIP3   OH213748   2.238   6.071   0.819  0.5915  0.0334  0.4083
 4595TIP3    H113749   2.223   5.976   0.813 -0.2986  0.0120  2.3069
 4595TIP3    H213750   2.203   6.105   0.737 -1.7432 -1.0182  0.8843
 4596TIP3   OH213751   6.130   0.453   3.741 -0.1722 -0.3241 -0.1945
 4596TIP3    H113752   6.121   0.468   3.647 -1.4832 -0.8749 -0.1829
 4596TIP3    H213753   6.209   0.400   3.750  1.2293  1.5594 -0.7520
 4597TIP3   OH213754   4.627   3.854   5.098 -0.6933 -0.2093  0.1640
 4597TIP3    H113755   4.693   3.842   5.030  0.1073  0.0648  0.8662
 4597TIP3    H213756   4.677   3.883   5.175 -1.5101 -0.9379  1.0013
 4598TIP3   OH213757   6.821   1.898   1.888 -0.2693 -0.0934  0.6707
 4598TIP3    H113758   6.816   1.813   1.932 -1.9625  0.4053  1.5244
 4598TIP3    H213759   6.731   1.915   1.859 -0.1798  1.8376  1.4062
 4599TIP3   OH213760   5.457   0.051   2.628  0.1888  0.0224  0.0526
 4599TIP3    H113761   5.493   0.074   2.713  0.4480 -1.3148  0.3398
 4599TIP3    H213762   5.533   0.016   2.579 -0.4894 -2.0966  0.3888
 4600TIP3   OH213763   4.567   2.218   3.017 -0.4111  0.6799  0.1811
 4600TIP3    H113764   4.646   2.176   3.050 -0.8233 -1.0165 -0.8658
 4600TIP3    H213765   4.505   2.147   3.003 -1.9908  1.9117  0.5351
 4601TIP3   OH213766   6.316   5.710   4.735  0.0659 -0.6496  0.1414
 4601TIP3    H113767   6.410   5.728   4.738 -0.1958  0.7057  0.7730
 4601TIP3    H213768   6.274   5.795   4.746 -1.2507 -1.2054 -0.3009
 4602TIP3   OH213769   1.904   4.797   2.195 -0.4803  0.2659 -0.2603
 4602TIP3    H113770   1.884   4.890   2.187 -1.0493  0.1552 -0.1677
 4602TIP3    H213771   1.968   4.792   2.266  1.0936  0.7866 -1.5858
 4603TIP3   OH213772   1.363   5.532   0.201  0.1498  0.4662 -0.1524
 4603TIP3    H113773   1.395   5.489   0.122 -1.4522  0.8899 -1.0719
 4603TIP3    H213774   1.326   5.461   0.253  1.2496  0.1788  0.2651
 4604TIP3   OH213775   2.122   4.380   5.755  0.1819 -0.4887  1.0412
 4604TIP3    H113776   2.028   4.367   5.765  0.1991 -3.3783 -1.2170
 4604TIP3    H213777   2.161   4.309   5.806  1.2377  1.0757  2.5046
 4605TIP3   OH213778   0.714   5.386   2.621 -0.0061 -0.5872 -0.2635
 4605TIP3    H113779   0.651   5.384   2.693 -1.7196  4.0488 -1.2516
 4605TIP3    H213780   0.667   5.346   2.548 -0.0980 -1.0410  0.0385
 4606TIP3   OH213781   5.030   2.017   3.192 -0.1919 -0.1192  0.5657
 4606TIP3    H113782   5.068   2.036   3.106  0.2798 -0.9602  0.5807
 4606TIP3    H213783   5.019   1.922   3.194 -0.3023 -0.1028  1.3886
 4607TIP3   OH213784   4.122   2.073   5.786 -0.4093  0.0245 -0.7192
 4607TIP3    H113785   4.035   2.112   5.778 -0.0078  1.0754 -0.0565
 4607TIP3    H213786   4.132   2.021   5.706 -2.0811 -1.0135 -0.3108
 4608TIP3   OH213787   2.144   1.771   0.364 -0.4391 -0.2209 -0.1565
 4608TIP3    H113788   2.151   1.829   0.440  2.1006 -1.0377  0.3363
 4608TIP3    H213789   2.207   1.807   0.302 -0.4874 -1.1573 -0.7566
 4609TIP3   OH213790   6.162   2.494   4.434 -0.0726 -0.3494  0.2940
 4609TIP3    H113791   6.244   2.541   4.418  0.3990 -0.6854  1.6404
 4609TIP3    H213792   6.094   2.560   4.420  0.5360  0.5336  1.3225
 4610TIP3   OH213793   5.459   2.326   1.534  0.0203  0.3556  0.3789
 4610TIP3    H113794   5.500   2.354   1.616 -1.5720 -0.5668  1.5503
 4610TIP3    H213795   5.403   2.253   1.559  2.6182 -2.8436 -2.2409
 4611TIP3   OH213796   2.819   5.376   1.758 -0.0126  0.1704  0.9343
 4611TIP3    H113797   2.882   5.446   1.777  0.3570  0.7961 -2.0356
 4611TIP3    H213798   2.857   5.298   1.798  1.2302  1.0659  1.5662
 4612TIP3   OH213799   1.254   2.365   3.943  0.0387 -0.3898 -0.0565
 4612TIP3    H113800   1.170   2.332   3.911 -1.3190 -0.0428  2.7563
 4612TIP3    H213801   1.275   2.308   4.017  1.4184  0.5884  0.3548
 4613TIP3   OH213802   0.669   1.389   2.540 -0.0797  0.4827 -0.0184
 4613TIP3    H113803   0.628   1.306   2.564  0.5878  0.3535  0.7331
 4613TIP3    H213804   0.688   1.381   2.447  0.5592 -0.4853  0.1789
 4614TIP3   OH213805   4.640   2.274   4.386  0.1045  0.3232  0.1840
 4614TIP3    H113806   4.694   2.347   4.355 -0.1992  1.1748  1.5293
 4614TIP3    H213807   4.608   2.232   4.307  2.7667 -0.2685 -0.6744
 4615TIP3   OH213808   3.699   0.171   3.017  0.2233  0.3952 -0.1803
 4615TIP3    H113809   3.680   0.108   2.947 -1.0471  1.3933 -0.7646
 4615TIP3    H213810   3.663   0.253   2.985 -1.4674  0.6556  2.1540
 4616TIP3   OH213811   6.353   0.417   5.060 -0.0906  0.4534  0.2496
 4616TIP3    H113812   6.327   0.492   5.007 -0.4660 -0.4829 -0.9515
 4616TIP3    H213813   6.402   0.361   4.999 -1.5977 -1.2446  0.5273
 4617TIP3   OH213814   3.112   0.444   5.879 -0.0033  0.2264  0.0045
 4617TIP3    H113815   3.104   0.403   5.793 -0.2622 -0.0849  0.1732
 4617TIP3    H213816   3.206   0.461   5.889 -0.2354  3.1075 -1.6389
 4618TIP3   OH213817   5.867   0.296   5.593  0.8048  0.5525  0.0905
 4618TIP3    H113818   5.817   0.360   5.543 -1.5771 -1.1692  0.1048
 4618TIP3    H213819   5.918   0.248   5.527 -0.4283 -0.0855 -0.4215
 4619TIP3   OH213820   5.085   4.661   2.747  0.2087 -0.0426  0.4890
 4619TIP3    H113821   5.120   4.654   2.659  1.7704 -0.4329  1.1068
 4619TIP3    H213822   4.990   4.650   2.736  0.2472  1.0009 -1.2331
 4620TIP3   OH213823   4.086   5.730   2.441 -0.2308  0.0482  0.3348
 4620TIP3    H113824   4.128   5.644   2.430  0.0602  0.2764 -0.3611
 4620TIP3    H213825   4.157   5.790   2.462 -0.2625  0.3471 -0.3847
 4621TIP3   OH213826   1.226   0.904   1.069 -0.6292  0.1892  0.3600
 4621TIP3    H113827   1.209   0.848   1.144 -1.5178  0.3183  0.2616
 4621TIP3    H213828   1.182   0.860   0.996 -0.0381  0.2268 -0.0272
 4622TIP3   OH213829   1.758   5.487   5.658  0.1945 -0.5248  0.4938
 4622TIP3    H113830   1.673   5.444   5.656 -0.6486  0.9727  1.9890
 4622TIP3    H213831   1.799   5.462   5.575 -1.5240 -1.5739 -0.0984
 4623TIP3   OH213832   6.623   0.803   4.433  0.2241  0.2989  0.1184
 4623TIP3    H113833   6.644   0.850   4.353 -0.3496 -0.0778 -0.2581
 4623TIP3    H213834   6.683   0.729   4.435  0.9334  0.8763  0.5655
 4624TIP3   OH213835   1.696   6.100   0.524 -0.0236 -0.4973  0.2657
 4624TIP3    H113836   1.613   6.079   0.481 -0.0705  0.0175  0.1020
 4624TIP3    H213837   1.744   6.017   0.527 -0.8223 -0.9570  0.9685
 4625TIP3   OH213838   4.572   3.178   3.688  0.6851  0.2398  0.8299
 4625TIP3    H113839   4.565   3.090   3.725  1.5184  1.0809  3.1806
 4625TIP3    H213840   4.482   3.201   3.663  0.4641 -1.2715  0.1721
 4626TIP3   OH213841   4.126   4.822   0.313  0.3044 -0.3555 -0.0840
 4626TIP3    H113842   4.216   4.806   0.342  0.7321  1.4987 -0.2527
 4626TIP3    H213843   4.074   4.759   0.362  1.7528 -1.9852 -0.5336
 4627TIP3   OH213844   5.174   4.144   2.825 -0.4155 -0.3467  0.2975
 4627TIP3    H113845   5.183   4.049   2.816 -0.1213 -0.3248  0.3549
 4627TIP3    H213846   5.126   4.171   2.747  1.3168 -0.2758 -0.7930
 4628TIP3   OH213847   3.205   1.365   1.926 -0.2405  0.4174  0.1261
 4628TIP3    H113848   3.141   1.315   1.875 -1.7837 -0.2349  2.5565
 4628TIP3    H213849   3.163   1.450   1.940 -0.0879  0.3878  0.7826
 4629TIP3   OH213850   2.267   2.402   0.122  0.2151 -0.1223  0.3018
 4629TIP3    H113851   2.303   2.484   0.087  0.8070 -0.6180 -0.2599
 4629TIP3    H213852   2.337   2.369   0.179 -0.7467  0.6961  2.0326
 4630TIP3   OH213853   5.817   1.668   3.699 -0.3198  0.0043  0.5288
 4630TIP3    H113854   5.893   1.642   3.751  0.3738 -0.7066 -0.8154
 4630TIP3    H213855   5.802   1.595   3.639 -1.2733  0.6942 -0.1001
 4631TIP3   OH213856   0.564   1.599   2.047 -0.2119 -0.3499 -0.2563
 4631TIP3    H113857   0.593   1.564   2.131 -1.5565 -0.3099  0.2496
 4631TIP3    H213858   0.631   1.663   2.023  1.1893 -1.7420 -0.1724
 4632TIP3   OH213859   4.423   4.938   3.217  0.3557 -0.1771 -0.0214
 4632TIP3    H113860   4.427   4.883   3.139 -1.4600 -1.1109  0.4844
 4632TIP3    H213861   4.425   4.875   3.290 -1.3609  0.4021  0.5815
 4633TIP3   OH213862   2.302   1.250   5.369 -0.1974 -0.0767  0.0496
 4633TIP3    H113863   2.356   1.248   5.448 -0.2559  0.5434  0.1130
 4633TIP3    H213864   2.218   1.285   5.398 -0.1251  0.4384 -0.3345
 4634TIP3   OH213865   6.474   6.719   0.599 -0.0193 -0.5080 -0.3146
 4634TIP3    H113866   6.559   6.732   0.639 -0.2244 -1.6339  0.5444
 4634TIP3    H213867   6.422   6.673   0.665 -1.7170  1.2311 -0.3417
 4635TIP3   OH213868   1.017   2.755   0.237 -0.0908  0.2730  0.2138
 4635TIP3    H113869   1.058   2.769   0.152 -0.4874 -2.8270 -0.6002
 4635TIP3    H213870   1.081   2.705   0.287 -1.0465 -0.5911  0.6069
 4636TIP3   OH213871   4.822   2.191   2.645 -0.0433  0.6555 -0.2904
 4636TIP3    H113872   4.769   2.134   2.701 -1.0363  1.2231 -0.6366
 4636TIP3    H213873   4.759   2.234   2.587  0.9244  0.3477 -1.6170
 4637TIP3   OH213874   4.614   1.366   0.416  0.2530  0.0379 -0.6802
 4637TIP3    H113875   4.665   1.394   0.492 -0.9657  2.5024 -0.6523
 4637TIP3    H213876   4.562   1.292   0.448 -0.8657  1.5493  1.2477
 4638TIP3   OH213877   1.657   2.197   3.653  0.4854  0.1035 -0.1699
 4638TIP3    H113878   1.647   2.289   3.632 -0.9120  0.1139  0.4754
 4638TIP3    H213879   1.749   2.178   3.634  0.0590  0.7795 -3.5800
 4639TIP3   OH213880   5.445   3.257   0.127 -0.0151 -0.0359 -0.1705
 4639TIP3    H113881   5.447   3.234   0.035 -0.6298 -0.2519 -0.1363
 4639TIP3    H213882   5.466   3.350   0.129  0.3242 -0.1018 -0.4943
 4640TIP3   OH213883   6.412   4.518   4.516  0.5124 -0.1872 -0.2282
 4640TIP3    H113884   6.334   4.572   4.505 -1.5906 -3.1742 -1.4074
 4640TIP3    H213885   6.427   4.478   4.431  1.2915 -2.2115  0.7784
 4641TIP3   OH213886   4.509   1.909   3.610  0.2447 -0.3016  0.4195
 4641TIP3    H113887   4.423   1.870   3.627  0.4528 -0.5040  1.0183
 4641TIP3    H213888   4.497   1.959   3.529 -0.3696 -0.5359  0.3624
 4642TIP3   OH213889   1.545   6.110   3.307  0.0416  0.5909 -0.8354
 4642TIP3    H113890   1.587   6.053   3.372  0.3018 -0.3199 -1.7858
 4642TIP3    H213891   1.613   6.125   3.241  0.4070  3.0235 -0.0304
 4643TIP3   OH213892   3.163   5.939   0.752 -0.6163 -0.5559  0.2848
 4643TIP3    H113893   3.089   5.997   0.734  1.5485  2.8312  1.4434
 4643TIP3    H213894   3.212   5.982   0.822  2.3783 -2.7276 -0.2546
 4644TIP3   OH213895   2.453   5.258   5.206  0.3144 -0.2660 -0.1561
 4644TIP3    H113896   2.370   5.251   5.254  0.7277 -0.0261  0.6061
 4644TIP3    H213897   2.429   5.293   5.120 -0.1108  2.1682  0.8856
 4645TIP3   OH213898   2.419   2.527   3.650 -0.2952  0.0713  0.1522
 4645TIP3    H113899   2.357   2.541   3.578 -0.1191 -0.2593 -0.0716
 4645TIP3    H213900   2.472   2.606   3.652 -2.8345  1.8669  2.5243
 4646TIP3   OH213901   6.418   1.191   3.741 -0.3453  0.0768 -0.0468
 4646TIP3    H113902   6.451   1.108   3.709 -0.8415  0.6714 -2.2364
 4646TIP3    H213903   6.331   1.170   3.777 -0.0655 -0.4949  0.3112
 4647TIP3   OH213904   0.520   0.210   4.859 -0.2952 -0.2188  0.0972
 4647TIP3    H113905   0.544   0.212   4.766 -1.1566  1.8377 -0.1351
 4647TIP3    H213906   0.566   0.285   4.897 -0.5466 -0.5994  1.1805
 4648TIP3   OH213907   5.643   3.782   1.956 -0.5794 -0.0411 -0.3880
 4648TIP3    H113908   5.734   3.814   1.955 -0.1075 -1.2445  0.7747
 4648TIP3    H213909   5.593   3.850   1.911  0.4877  1.9745  1.2899
 4649TIP3   OH213910   6.454   2.061   5.033 -0.0326  0.7374  0.6620
 4649TIP3    H113911   6.478   1.969   5.045  0.0100  0.5978 -0.4208
 4649TIP3    H213912   6.360   2.065   5.051 -0.6449 -0.0755 -1.9715
 4650TIP3   OH213913   1.955   0.226   2.322  0.7632 -0.4900 -0.2886
 4650TIP3    H113914   1.976   0.158   2.386 -2.3947 -0.2769  1.1719
 4650TIP3    H213915   2.017   0.296   2.339  0.9594 -1.0599  1.5381
 4651TIP3   OH213916   2.132   2.758   2.932  0.1282 -0.1076  0.6850
 4651TIP3    H113917   2.048   2.763   2.977 -1.2858 -0.2635 -1.7557
 4651TIP3    H213918   2.109   2.757   2.839  2.8188 -0.8382 -0.0501
 4652TIP3   OH213919   0.229   0.460   2.378  0.5386 -0.3074 -0.6353
 4652TIP3    H113920   0.322   0.463   2.355  0.4434  0.6954 -0.9347
 4652TIP3    H213921   0.199   0.376   2.342  1.3852 -0.7862 -0.2678
 4653TIP3   OH213922   5.530   1.844   0.959 -0.0290  0.7273  0.0343
 4653TIP3    H113923   5.461   1.779   0.946  0.5726  0.1938 -0.6021
 4653TIP3    H213924   5.503   1.919   0.906  0.1580  0.3019 -0.6705
 4654TIP3   OH213925   5.554   5.168   1.180 -0.2718 -0.5496  0.1020
 4654TIP3    H113926   5.539   5.085   1.134  2.4225  0.0975 -2.2853
 4654TIP3    H213927   5.524   5.235   1.118 -0.5086  0.2942  1.1140
 4655TIP3   OH213928   2.527   4.456   3.416 -0.4082 -0.0241 -0.6797
 4655TIP3    H113929   2.450   4.451   3.473 -0.4362  0.5431 -0.6556
 4655TIP3    H213930   2.566   4.369   3.420  0.4205  0.3845  1.3925
 4656TIP3   OH213931   6.614   5.591   0.956  0.3462  0.2213 -0.1181
 4656TIP3    H113932   6.595   5.499   0.939  1.5701 -0.1476  0.3810
 4656TIP3    H213933   6.705   5.602   0.928  0.3421  1.1836  0.2119
 4657TIP3   OH213934   2.271   0.497   2.577  0.3036  0.2700 -0.0541
 4657TIP3    H113935   2.291   0.590   2.586  2.9507 -0.3851  1.8109
 4657TIP3    H213936   2.355   0.453   2.591 -0.8483 -2.4178 -1.0158
 4658TIP3   OH213937   5.263   2.357   3.539 -0.7857  0.1915  0.2935
 4658TIP3    H113938   5.226   2.425   3.482 -2.5553 -3.1809 -3.0347
 4658TIP3    H213939   5.353   2.347   3.508 -1.3705 -0.7757 -1.2367
 4659TIP3   OH213940   0.870   5.076   1.592  0.1710 -0.7858 -0.2217
 4659TIP3    H113941   0.892   5.000   1.647 -0.9516 -0.7554  0.2891
 4659TIP3    H213942   0.870   5.040   1.503  0.6324 -1.1535 -0.0826
 4660TIP3   OH213943   3.700   4.805   4.499 -0.4088  0.3966 -0.7475
 4660TIP3    H113944   3.672   4.891   4.467 -0.4622  0.1495 -1.3775
 4660TIP3    H213945   3.730   4.759   4.421  0.8458  0.2988 -0.2385
 4661TIP3   OH213946   1.072   1.312   1.286 -0.0377  0.5133 -0.1751
 4661TIP3    H113947   1.073   1.408   1.285  1.6452  0.5325 -0.0192
 4661TIP3    H213948   1.163   1.287   1.300 -0.4677 -1.1240 -0.0375
 4662TIP3   OH213949   6.403   2.951   4.030 -0.0130  0.7367  0.4874
 4662TIP3    H113950   6.334   3.012   4.004 -0.4573 -0.0243 -0.1426
 4662TIP3    H213951   6.402   2.882   3.963  1.5431  0.8436  0.3040
 4663TIP3   OH213952   2.199   2.601   4.654 -0.2378 -0.1832 -0.0455
 4663TIP3    H113953   2.174   2.512   4.681 -0.2365 -0.5949 -1.3702
 4663TIP3    H213954   2.116   2.647   4.646 -0.1920  0.3600  1.9180
 4664TIP3   OH213955   1.385   3.877   5.904 -0.1073 -0.9690  0.1506
 4664TIP3    H113956   1.317   3.818   5.872 -0.4085 -0.5170 -0.0470
 4664TIP3    H213957   1.391   3.945   5.837 -0.1222 -0.4986  0.6273
 4665TIP3   OH213958   0.121   2.587   3.706  0.3027  0.1259  0.1479
 4665TIP3    H113959   0.076   2.638   3.773 -0.0134  0.7503 -0.5326
 4665TIP3    H213960   0.084   2.499   3.714  1.1162 -0.1147  1.5716
 4666TIP3   OH213961   7.114   2.313   4.174  0.1823 -0.2186 -0.5018
 4666TIP3    H113962   7.047   2.361   4.126 -0.7850 -0.5553  0.4534
 4666TIP3    H213963   7.172   2.381   4.209  0.5457  0.0555 -1.6066
 4667TIP3   OH213964   5.036   5.088   3.235 -0.6145  0.4433  0.6048
 4667TIP3    H113965   4.981   5.066   3.311 -0.0299 -1.0213  0.6350
 4667TIP3    H213966   4.978   5.138   3.177 -1.4596  0.4289  1.4083
 4668TIP3   OH213967   0.281   4.366   2.755 -0.4606 -0.1188 -0.1456
 4668TIP3    H113968   0.323   4.342   2.838 -0.7342  3.8916  1.3322
 4668TIP3    H213969   0.347   4.419   2.710 -1.4114  0.2454 -1.1348
 4669TIP3   OH213970   6.984   3.886   3.262  0.7666 -0.5259  0.1155
 4669TIP3    H113971   7.068   3.921   3.232  2.0950 -1.8041  2.1461
 4669TIP3    H213972   6.962   3.939   3.338  0.2637 -0.8867  0.2218
 4670TIP3   OH213973   6.998   6.669   5.812 -0.1940  0.2305 -0.6286
 4670TIP3    H113974   7.000   6.764   5.796  0.0258  0.3685  0.1562
 4670TIP3    H213975   7.006   6.661   5.907  0.4085 -0.6016 -0.7405
 4671TIP3   OH213976   3.908   1.211   5.612 -0.2453 -0.1478  0.2813
 4671TIP3    H113977   3.922   1.231   5.519 -0.2339 -0.4740  0.2124
 4671TIP3    H213978   3.825   1.254   5.633 -0.2715 -0.1101  0.1072
 4672TIP3   OH213979   1.477   3.950   3.810 -0.2560  0.3986 -0.0209
 4672TIP3    H113980   1.501   4.020   3.749  1.1189  0.0278  0.0731
 4672TIP3    H213981   1.468   3.994   3.894  0.2261  0.5204 -0.0329
 4673TIP3   OH213982   3.127   5.299   5.861 -0.7089 -0.0896 -0.5416
 4673TIP3    H113983   3.106   5.388   5.892 -1.9453 -0.7767  0.7273
 4673TIP3    H213984   3.071   5.287   5.785  0.7044  0.7997 -1.7744
 4674TIP3   OH213985   6.293   0.300   5.890 -0.2696  0.4153 -0.2587
 4674TIP3    H113986   6.353   0.270   5.822  0.2390 -1.1885  0.8310
 4674TIP3    H213987   6.338   0.374   5.931  0.1581  0.3567 -0.6164
 4675TIP3   OH213988   0.467   1.185   2.593  0.2910  0.2199  0.1597
 4675TIP3    H113989   0.532   1.129   2.637  0.6277  0.8447  0.4751
 4675TIP3    H213990   0.477   1.165   2.500 -0.7923 -1.5053  0.3904
 4676TIP3   OH213991   1.612   6.306   0.257 -0.4751 -0.4069 -0.1605
 4676TIP3    H113992   1.519   6.303   0.279 -0.3115  1.0757  0.9037
 4676TIP3    H213993   1.657   6.285   0.339  0.1194  2.3136  0.3201
 4677TIP3   OH213994   4.296   1.352   3.929  0.6232  0.2866  0.5949
 4677TIP3    H113995   4.267   1.441   3.910  0.2211  0.2079  0.8319
 4677TIP3    H213996   4.343   1.325   3.850  0.9026  0.7726  0.5920
 4678TIP3   OH213997   0.445   2.063   0.966  0.7129  0.3329  0.7050
 4678TIP3    H113998   0.536   2.093   0.966  0.6027  0.6843  1.1982
 4678TIP3    H213999   0.424   2.049   1.058 -0.4986  2.7116  0.8856
 4679TIP3   OH214000   0.879   1.207   3.663 -0.1920 -0.3900  0.4765
 4679TIP3    H114001   0.816   1.135   3.658 -0.6911  0.1015 -0.6270
 4679TIP3    H214002   0.888   1.238   3.573 -0.0827  1.0019  0.9376
 4680TIP3   OH214003   4.476   5.330   5.550 -0.2396  0.5564 -0.0339
 4680TIP3    H114004   4.539   5.314   5.480 -0.4169  0.0764 -0.0858
 4680TIP3    H214005   4.530   5.347   5.627 -0.0286 -0.9421  0.1728
 4681TIP3   OH214006   5.128   3.382   0.705 -0.8065 -0.2089  0.1954
 4681TIP3    H114007   5.068   3.309   0.720 -1.0525  0.2134  1.3991
 4681TIP3    H214008   5.207   3.341   0.670 -0.5892 -1.1938  1.7231
 4682TIP3   OH214009   5.236   3.661   2.160  0.0722  0.3916 -0.3585
 4682TIP3    H114010   5.166   3.635   2.220 -1.3113 -1.0335 -2.4773
 4682TIP3    H214011   5.204   3.741   2.118 -0.2033 -0.1178 -1.1404
 4683TIP3   OH214012   6.361   5.709   1.524 -0.2506 -0.4507  0.2080
 4683TIP3    H114013   6.296   5.771   1.556  0.3717  0.7910 -0.8589
 4683TIP3    H214014   6.444   5.755   1.531  0.1159 -0.8099 -1.4448
 4684TIP3   OH214015   0.476   3.878   4.910  0.0259 -0.1764 -0.1470
 4684TIP3    H114016   0.396   3.850   4.953  0.1105 -1.1538 -0.6047
 4684TIP3    H214017   0.538   3.807   4.925  0.6903  0.3885 -0.1385
 4685TIP3   OH214018   7.199   2.343   3.123 -0.1690 -0.0240 -0.0927
 4685TIP3    H114019   7.147   2.414   3.159 -0.5754  0.4587 -1.5418
 4685TIP3    H214020   7.150   2.264   3.146  0.7637  0.0428  2.3180
 4686TIP3   OH214021   6.421   5.584   1.149  0.8264  0.3928 -0.1556
 4686TIP3    H114022   6.502   5.620   1.113  0.1416 -0.7027 -3.0850
 4686TIP3    H214023   6.450   5.529   1.222  2.4008  2.1511  0.6227
 4687TIP3   OH214024   5.206   5.428   0.693 -0.0826 -0.0076  0.1098
 4687TIP3    H114025   5.261   5.505   0.676  0.0221 -0.1503 -0.2028
 4687TIP3    H214026   5.175   5.440   0.782  1.7757 -0.7190  0.9028
 4688TIP3   OH214027   2.076   6.684   2.695  0.0302  0.2271 -0.5841
 4688TIP3    H114028   2.010   6.737   2.650 -1.5823  0.8294  2.2520
 4688TIP3    H214029   2.157   6.735   2.689 -0.1800  0.3889 -2.4847
 4689TIP3   OH214030   3.157   1.075   4.304  0.1882 -0.2675  0.3788
 4689TIP3    H114031   3.247   1.101   4.323  1.1434 -2.6471 -0.4422
 4689TIP3    H214032   3.162   1.033   4.218 -1.0217 -3.3249  1.6605
 4690TIP3   OH214033   1.943   5.668   4.528  0.4261 -0.2334 -0.0993
 4690TIP3    H114034   1.897   5.622   4.457  2.3319 -1.6885 -0.4534
 4690TIP3    H214035   2.021   5.616   4.544  1.8159  1.9683  0.7126
 4691TIP3   OH214036   2.490   4.950   3.050  0.0453 -0.4313 -0.2636
 4691TIP3    H114037   2.437   4.874   3.073  0.5751 -0.4399  0.9711
 4691TIP3    H214038   2.541   4.969   3.128 -0.1230  1.2391 -0.5146
 4692TIP3   OH214039   0.294   3.496   2.229  0.5257  0.6254 -0.3842
 4692TIP3    H114040   0.279   3.517   2.137 -0.5556  1.7327  0.0147
 4692TIP3    H214041   0.318   3.580   2.269  3.4851 -0.2442 -0.0908
 4693TIP3   OH214042   0.534   1.541   5.566  0.4075  0.2097  0.0542
 4693TIP3    H114043   0.571   1.618   5.609  0.4486  0.2967 -0.1355
 4693TIP3    H214044   0.561   1.467   5.620  0.8312  0.2752 -0.0649
 4694TIP3   OH214045   6.927   5.371   2.442 -0.0688  0.2840 -0.3856
 4694TIP3    H114046   6.865   5.385   2.371  0.3728 -0.5415 -0.9461
 4694TIP3    H214047   6.881   5.402   2.521 -0.1873  2.1728 -1.1354
 4695TIP3   OH214048   1.197   0.305   3.180 -0.4067  0.6607 -1.0309
 4695TIP3    H114049   1.147   0.369   3.231  0.8221  0.8975 -0.0860
 4695TIP3    H214050   1.236   0.247   3.245 -0.3827 -0.2252 -1.8123
 4696TIP3   OH214051   4.330   0.107   5.601  0.1520 -0.5196  0.7110
 4696TIP3    H114052   4.363   0.139   5.518  1.8663  0.9039  1.8534
 4696TIP3    H214053   4.392   0.038   5.627  0.4609  0.0053  1.4205
 4697TIP3   OH214054   0.740   3.182   2.357  0.4603 -0.5186 -0.2847
 4697TIP3    H114055   0.693   3.247   2.304 -0.3500 -0.7027  0.1967
 4697TIP3    H214056   0.719   3.098   2.316 -0.8543 -0.7449  0.8012
 4698TIP3   OH214057   3.501   3.239   1.158  0.3780  0.4092 -0.2286
 4698TIP3    H114058   3.462   3.325   1.141  0.4789  0.5199  0.1079
 4698TIP3    H214059   3.431   3.188   1.199  0.1193  0.1258 -0.9993
 4699TIP3   OH214060   4.194   0.057   0.309 -0.4685  0.1875 -0.1243
 4699TIP3    H114061   4.139   0.088   0.236  0.2277  1.4481 -0.1478
 4699TIP3    H214062   4.276   0.031   0.268 -0.0927  0.8537  0.1947
 4700TIP3   OH214063   2.871   5.795   1.319  0.2197  0.1045 -0.7628
 4700TIP3    H114064   2.841   5.875   1.362  0.8380  0.4382 -0.9423
 4700TIP3    H214065   2.857   5.727   1.385 -0.2852  0.3574 -0.5996
 4701TIP3   OH214066   2.674   5.117   1.872 -0.5293  0.0628  0.1106
 4701TIP3    H114067   2.761   5.145   1.899  0.2926 -2.6058  0.5980
 4701TIP3    H214068   2.665   5.147   1.782  0.6732  0.8664  0.2417
 4702TIP3   OH214069   3.350   2.210   4.874  0.4872 -0.0225  0.1008
 4702TIP3    H114070   3.406   2.251   4.940  0.4905  1.1696 -0.5990
 4702TIP3    H214071   3.407   2.149   4.828  0.6033 -0.5176  0.8888
 4703TIP3   OH214072   1.289   2.088   5.555  0.4623  0.5768  0.0701
 4703TIP3    H114073   1.311   2.116   5.466  0.8022  1.3285  0.3814
 4703TIP3    H214074   1.369   2.046   5.586  0.5559  0.8705  0.2340
 4704TIP3   OH214075   1.048   6.215   3.858 -0.4424 -0.0157  0.0973
 4704TIP3    H114076   1.092   6.297   3.835 -0.8576  0.0702 -0.4333
 4704TIP3    H214077   1.118   6.150   3.858 -0.2442  0.1848 -0.3577
 4705TIP3   OH214078   1.882   6.427   4.043  0.3794  0.0104  0.2178
 4705TIP3    H114079   1.788   6.445   4.053  0.3816  0.2181 -0.0866
 4705TIP3    H214080   1.904   6.369   4.115 -0.2500 -1.0322 -0.4107
 4706TIP3   OH214081   3.499   1.840   3.983 -0.4553  0.1936 -0.0234
 4706TIP3    H114082   3.562   1.809   4.048  1.1773 -1.2328 -2.1571
 4706TIP3    H214083   3.431   1.773   3.982 -1.6793  1.3186  1.6828
 4707TIP3   OH214084   3.197   6.526   0.147 -0.1475  0.0327  0.2459
 4707TIP3    H114085   3.142   6.495   0.074  0.1533 -0.7518  0.3426
 4707TIP3    H214086   3.143   6.591   0.192 -0.4772  0.2588 -0.4626
 4708TIP3   OH214087   0.365   2.240   2.897  0.1233 -0.2013 -0.3595
 4708TIP3    H114088   0.276   2.259   2.865 -0.0670  1.6105  1.0609
 4708TIP3    H214089   0.406   2.326   2.905  0.7970 -0.6777  2.3373
 4709TIP3   OH214090   3.523   1.921   0.985 -0.1077 -0.1107 -0.0328
 4709TIP3    H114091   3.457   1.945   1.050 -0.6393  0.6813 -0.8428
 4709TIP3    H214092   3.568   1.846   1.024 -0.4545  0.2961  1.2131
 4710TIP3   OH214093   2.115   4.622   0.579  0.4010 -0.1798 -0.0353
 4710TIP3    H114094   2.119   4.696   0.639 -0.1607 -0.5748  0.4992
 4710TIP3    H214095   2.115   4.661   0.491 -0.5558  0.4785  0.2471
 4711TIP3   OH214096   4.972   1.431   2.222  0.4585  0.2290  0.1107
 4711TIP3    H114097   5.035   1.417   2.152  0.3757 -0.5337  0.1852
 4711TIP3    H214098   4.969   1.527   2.233  0.0290  0.3978 -1.3280
 4712TIP3   OH214099   5.139   5.181   0.573  0.1627  0.1054 -0.3591
 4712TIP3    H114100   5.177   5.186   0.485 -0.1280  1.9450 -0.4139
 4712TIP3    H214101   5.163   5.264   0.614  0.2594 -0.7118  1.3062
 4713TIP3   OH214102   3.092   0.210   2.122  0.7666  0.4253  0.4702
 4713TIP3    H114103   3.093   0.247   2.210 -0.2378 -0.6915  0.9851
 4713TIP3    H214104   3.108   0.116   2.135  1.9489  0.4285 -0.6699
 4714TIP3   OH214105   1.495   0.489   2.629  0.5485  0.2111  0.1074
 4714TIP3    H114106   1.409   0.486   2.671  0.6811 -0.0389  0.3586
 4714TIP3    H214107   1.551   0.534   2.692  0.4820  0.8633 -0.2785
 4715TIP3   OH214108   2.490   4.290   4.519  0.0885 -0.1626 -0.7810
 4715TIP3    H114109   2.422   4.309   4.455 -0.8009 -1.2337 -0.1788
 4715TIP3    H214110   2.549   4.228   4.475  0.6172  0.6455 -1.2464
 4716TIP3   OH214111   4.945   3.448   4.978  0.0246  0.6354  0.3862
 4716TIP3    H114112   4.981   3.437   4.889 -1.1383  0.7667 -0.1146
 4716TIP3    H214113   4.913   3.361   5.002 -3.1291  1.3021 -0.9034
 4717TIP3   OH214114   0.419   3.300   2.374 -0.3609  0.4528  0.4992
 4717TIP3    H114115   0.359   3.359   2.327  0.2348  0.7565  0.0922
 4717TIP3    H214116   0.443   3.234   2.309  0.1071  0.6051  0.5140
 4718TIP3   OH214117   0.714   2.091   5.084 -0.0869  0.0652 -0.0985
 4718TIP3    H114118   0.676   2.110   4.998 -1.9988  0.1320  0.7298
 4718TIP3    H214119   0.640   2.094   5.145  1.2112 -0.0494  1.5580
 4719TIP3   OH214120   4.905   4.962   0.328  0.0366 -0.3359 -0.3748
 4719TIP3    H114121   4.900   5.055   0.309  0.9216 -0.3400 -0.6672
 4719TIP3    H214122   4.998   4.942   0.324 -0.2217 -1.4451 -1.3078
 4720TIP3   OH214123   3.313   2.748   4.893 -0.1696  0.2136  0.1175
 4720TIP3    H114124   3.342   2.786   4.810  2.6954  0.1337  0.9770
 4720TIP3    H214125   3.337   2.656   4.887  0.0018  0.1942  0.9914
 4721TIP3   OH214126   6.301   5.530   4.514  0.1265  0.1796  0.9634
 4721TIP3    H114127   6.214   5.489   4.511  0.6975 -1.4059  3.4539
 4721TIP3    H214128   6.294   5.596   4.582  0.6882  0.5783  0.6413
 4722TIP3   OH214129   1.877   3.918   0.010 -0.0261  0.3711  0.1256
 4722TIP3    H114130   1.855   3.993   0.065  0.5117  1.1191 -0.6371
 4722TIP3    H214131   1.817   3.925  -0.065  0.8616  0.7952 -0.5729
 4723TIP3   OH214132   5.790   3.561   4.022  0.0948  0.2700 -0.6490
 4723TIP3    H114133   5.759   3.492   4.080  1.7957  0.2739  0.3375
 4723TIP3    H214134   5.883   3.541   4.008  0.4412  1.9101 -0.9673
 4724TIP3   OH214135   1.056   0.846   5.557  0.3056  0.4209 -0.0638
 4724TIP3    H114136   1.031   0.777   5.619  1.2338  1.0625  1.0831
 4724TIP3    H214137   1.092   0.799   5.482  1.5008 -0.3576  0.9592
 4725TIP3   OH214138   3.223   3.426   4.027 -0.7385 -0.1954 -0.0703
 4725TIP3    H114139   3.232   3.360   4.096 -0.1168 -0.2414 -0.1943
 4725TIP3    H214140   3.269   3.503   4.062  0.4523 -0.5363 -0.8388
 4726TIP3   OH214141   6.269   6.713   2.869 -0.2526  0.4999 -0.1472
 4726TIP3    H114142   6.274   6.782   2.802  0.7568 -0.0621 -0.6802
 4726TIP3    H214143   6.355   6.716   2.912 -0.6574  0.4031  0.6756
 4727TIP3   OH214144   5.623   3.559   3.755  0.2070  0.6829 -0.0049
 4727TIP3    H114145   5.676   3.548   3.834 -0.8536 -1.1391  0.5016
 4727TIP3    H214146   5.537   3.585   3.787 -0.1297  0.2974 -0.5753
 4728TIP3   OH214147   6.552   1.735   2.196  0.2849 -0.1328 -0.5886
 4728TIP3    H114148   6.509   1.652   2.177 -0.3749  0.1547 -0.4001
 4728TIP3    H214149   6.546   1.784   2.114  0.6705 -0.2702 -0.6987
 4729TIP3   OH214150   5.677   0.464   5.471 -0.7185 -0.0299 -0.1090
 4729TIP3    H114151   5.693   0.482   5.378  2.2768  0.7995  0.4781
 4729TIP3    H214152   5.594   0.507   5.490  0.7301  3.7108 -1.4247
 4730TIP3   OH214153   1.837   4.053   2.563 -0.5173 -0.0955 -0.0748
 4730TIP3    H114154   1.831   4.148   2.569 -0.1983 -0.0491 -0.5110
 4730TIP3    H214155   1.815   4.022   2.651 -2.2501  0.2996 -0.3366
 4731TIP3   OH214156   0.083   3.641   1.167 -0.9520  0.7334 -0.0834
 4731TIP3    H114157   0.015   3.704   1.190 -1.5400 -0.2307  0.9140
 4731TIP3    H214158   0.132   3.628   1.248  0.0960  1.0162 -0.6629
 4732TIP3   OH214159   0.789   0.825   5.250 -0.2696  0.3923  0.3900
 4732TIP3    H114160   0.754   0.884   5.183  2.3439  1.6119 -0.0383
 4732TIP3    H214161   0.834   0.757   5.200 -2.1857 -1.3337  0.9143
 4733TIP3   OH214162   5.667   1.510   4.567  0.3542 -0.0829 -0.0667
 4733TIP3    H114163   5.619   1.433   4.535  0.2592 -0.4724  0.9841
 4733TIP3    H214164   5.691   1.558   4.487 -1.2664 -0.1813 -0.6427
 4734TIP3   OH214165   0.218   0.284   0.980 -0.1298 -0.3214  0.0534
 4734TIP3    H114166   0.139   0.287   1.034 -1.6230 -1.8679 -1.8897
 4734TIP3    H214167   0.254   0.196   0.996 -1.1004 -1.1664 -2.0090
 4735TIP3   OH214168   1.920   1.351   0.570 -0.2235 -0.3382  0.3750
 4735TIP3    H114169   1.844   1.370   0.515  0.0119  1.5227  0.6102
 4735TIP3    H214170   1.987   1.320   0.509 -0.6092 -0.2469 -0.1008
 4736TIP3   OH214171   1.687   3.217   3.898 -0.0177 -0.0323 -0.4277
 4736TIP3    H114172   1.613   3.162   3.924 -0.4575 -0.2754 -2.0847
 4736TIP3    H214173   1.708   3.189   3.809  1.1321  1.0341 -0.5246
 4737TIP3   OH214174   1.848   0.711   2.660  0.1927  0.4121  0.5037
 4737TIP3    H114175   1.892   0.636   2.701  1.6652  0.7292 -0.4409
 4737TIP3    H214176   1.914   0.780   2.659 -0.5808  1.1563 -0.2625
 4738TIP3   OH214177   6.442   1.432   3.630  1.1120  0.0775  0.1800
 4738TIP3    H114178   6.434   1.422   3.535 -0.6790  0.2224  0.2873
 4738TIP3    H214179   6.434   1.343   3.664  0.4106  0.1669  0.2615
 4739TIP3   OH214180   4.360   0.806   2.082  0.2903 -0.2520 -0.2408
 4739TIP3    H114181   4.332   0.816   1.991  0.1373  0.4657 -0.1154
 4739TIP3    H214182   4.404   0.720   2.084  1.7731  0.4387 -1.3690
 4740TIP3   OH214183   4.197   6.742   0.363  0.0254  0.9253  0.1247
 4740TIP3    H114184   4.276   6.693   0.341  0.0956  0.3817  1.5310
 4740TIP3    H214185   4.126   6.690   0.326  0.2775  1.3520 -1.0360
 4741TIP3   OH214186   1.810   6.799   3.526  0.7743  0.3973 -0.5868
 4741TIP3    H114187   1.769   6.753   3.452  0.5936  0.4053 -0.4929
 4741TIP3    H214188   1.886   6.746   3.549  2.1560  1.5605 -2.2217
 4742TIP3   OH214189   4.905   2.924   1.232 -0.2776 -0.2905  0.3973
 4742TIP3    H114190   4.991   2.893   1.259  0.8958  2.5082  0.1955
 4742TIP3    H214191   4.866   2.960   1.312 -0.2121  0.6726  0.0037
 4743TIP3   OH214192   5.720   0.480   4.897 -0.1351 -0.0719  0.0895
 4743TIP3    H114193   5.740   0.570   4.921  0.8868 -0.8070  2.3423
 4743TIP3    H214194   5.624   0.474   4.906 -0.0040  0.2038  2.6137
 4744TIP3   OH214195   5.194   6.204   2.176 -0.3169  0.4211  0.5423
 4744TIP3    H114196   5.139   6.275   2.208 -0.0384 -0.0110  2.0663
 4744TIP3    H214197   5.133   6.133   2.155 -0.5314  0.8289 -0.2271
 4745TIP3   OH214198   1.727   4.934   4.549 -0.3523 -0.2081 -0.4238
 4745TIP3    H114199   1.681   4.910   4.629  1.5067  2.1876  1.5193
 4745TIP3    H214200   1.734   5.029   4.552  0.4461 -0.0763 -3.1046
 4746TIP3   OH214201   6.976   5.067   4.655  0.0524  0.4176 -0.7078
 4746TIP3    H114202   6.921   5.061   4.577 -1.9852 -1.3528  0.7518
 4746TIP3    H214203   7.014   4.980   4.665  1.7572  1.1181 -0.6564
 4747TIP3   OH214204   0.462   6.011   3.336  0.4099  0.6615 -0.2504
 4747TIP3    H114205   0.391   5.967   3.384 -0.0998  2.4642  0.7628
 4747TIP3    H214206   0.532   6.021   3.399  0.6157  1.0513 -0.5307
 4748TIP3   OH214207   1.993   5.498   0.126  0.5851  0.0573  0.6544
 4748TIP3    H114208   2.033   5.423   0.081  1.1446  1.3457 -1.1390
 4748TIP3    H214209   1.899   5.488   0.110  0.2958 -1.7231  2.8858
 4749TIP3   OH214210   2.014   1.191   1.138 -0.1004 -0.3767  0.0254
 4749TIP3    H114211   2.102   1.214   1.168  0.5304 -1.4983 -0.8681
 4749TIP3    H214212   1.992   1.112   1.187 -0.1400 -0.7425 -0.5818
 4750TIP3   OH214213   3.516   0.970   4.454 -0.1912  0.0855  0.2543
 4750TIP3    H114214   3.605   0.949   4.425  0.6523  3.0762  0.2982
 4750TIP3    H214215   3.482   1.026   4.385 -2.0076 -0.8364  0.3590
 4751TIP3   OH214216   0.873   5.239   3.424 -0.0961 -0.3380  0.7708
 4751TIP3    H114217   0.836   5.201   3.503  0.5565 -0.8548  0.8356
 4751TIP3    H214218   0.919   5.317   3.453 -1.8214  0.7897  0.5786
 4752TIP3   OH214219   4.699   4.652   4.718 -0.1097  0.2831  0.2264
 4752TIP3    H114220   4.714   4.578   4.776 -0.1205  0.5914  0.6283
 4752TIP3    H214221   4.637   4.620   4.652 -1.0827  0.2955  1.1206
 4753TIP3   OH214222   4.252   3.946   4.266  0.8551  0.2577  0.0716
 4753TIP3    H114223   4.231   4.033   4.298  1.0856  0.2468  0.2504
 4753TIP3    H214224   4.167   3.907   4.245  0.8006  0.8090 -0.7612
 4754TIP3   OH214225   2.562   5.795   2.236  0.1919  0.2263 -0.1747
 4754TIP3    H114226   2.503   5.733   2.278 -0.8656  1.5242  0.3207
 4754TIP3    H214227   2.617   5.828   2.308  0.1635  0.5033 -0.2792
 4755TIP3   OH214228   0.279   0.416   0.399 -0.1914 -0.7495 -0.3406
 4755TIP3    H114229   0.198   0.399   0.447 -0.3673  1.2761  0.1572
 4755TIP3    H214230   0.263   0.382   0.312 -1.9488  0.4004 -0.5178
 4756TIP3   OH214231   0.026   2.880   5.126  0.1915 -0.4678  0.0599
 4756TIP3    H114232  -0.034   2.904   5.055 -0.8173 -1.5975  0.5006
 4756TIP3    H214233   0.039   2.962   5.175  0.8561  0.3172 -1.3658
 4757TIP3   OH214234   0.487   3.728   4.162  0.2067  0.0941  0.2477
 4757TIP3    H114235   0.430   3.749   4.088  1.3107  0.2600 -0.5848
 4757TIP3    H214236   0.465   3.638   4.185 -0.4001  0.1670 -0.0444
 4758TIP3   OH214237   6.961   1.600   5.571 -0.1412 -0.0036 -0.3586
 4758TIP3    H114238   6.875   1.643   5.571 -0.3222 -0.3585 -0.7049
 4758TIP3    H214239   7.012   1.649   5.507  0.2494  0.8527  0.5910
 4759TIP3   OH214240   3.880   4.300   5.640  0.6601 -0.1629  0.6218
 4759TIP3    H114241   3.805   4.241   5.647  0.0347  0.7149  1.7154
 4759TIP3    H214242   3.952   4.244   5.611  0.6202 -1.9568  3.5544
 4760TIP3   OH214243   4.200   6.504   1.357 -0.3921 -0.2323 -0.2814
 4760TIP3    H114244   4.289   6.518   1.324  0.5867 -2.2672  1.2899
 4760TIP3    H214245   4.195   6.410   1.374 -1.4554  0.3388  3.3672
 4761TIP3   OH214246   2.392   4.698   3.095  0.1317  0.1345  0.0510
 4761TIP3    H114247   2.310   4.688   3.144  0.3760 -0.6742  0.3064
 4761TIP3    H214248   2.371   4.666   3.007 -0.1552  1.0785 -0.2393
 4762TIP3   OH214249   5.202   0.700   1.787  0.0923  0.5891 -0.1940
 4762TIP3    H114250   5.179   0.659   1.870 -1.0312 -0.3793 -0.9469
 4762TIP3    H214251   5.199   0.629   1.723  3.9221  0.6478 -0.6723
 4763TIP3   OH214252   0.590   1.550   0.326  0.5368  0.2007  0.4242
 4763TIP3    H114253   0.566   1.642   0.337 -0.8383 -0.3343  2.4414
 4763TIP3    H214254   0.656   1.551   0.257 -1.6781  2.3428 -1.8692
 4764TIP3   OH214255   1.870   6.494   2.617  0.1975 -0.0522 -0.0345
 4764TIP3    H114256   1.909   6.514   2.532  0.9150  2.0872  0.7215
 4764TIP3    H214257   1.923   6.544   2.679 -2.4809  1.3962  1.2729
 4765TIP3   OH214258   1.080   2.795   0.872 -0.0840  0.6610 -0.3001
 4765TIP3    H114259   1.055   2.825   0.785  2.8382  2.4490 -0.6551
 4765TIP3    H214260   1.110   2.705   0.860 -1.2199  0.3285 -0.7862
 4766TIP3   OH214261   2.820   0.241   1.196  0.3715  0.2141  0.1603
 4766TIP3    H114262   2.848   0.333   1.191 -0.8859  0.6091  0.2080
 4766TIP3    H214263   2.751   0.241   1.263  0.1733 -0.7210 -0.0417
 4767TIP3   OH214264   1.312   3.580   0.214 -0.3539 -0.1712 -0.5443
 4767TIP3    H114265   1.401   3.612   0.197 -0.9475  2.1661  0.3872
 4767TIP3    H214266   1.262   3.609   0.137 -0.6610  0.0683 -0.2553
 4768TIP3   OH214267   5.988   0.290   0.222 -0.4247  0.8211 -0.1178
 4768TIP3    H114268   5.895   0.271   0.209 -0.7228  1.6075  0.7880
 4768TIP3    H214269   6.020   0.315   0.135 -0.7052 -0.8580 -0.7329
 4769TIP3   OH214270   2.481   5.659   4.610  0.5084 -0.0842 -0.4727
 4769TIP3    H114271   2.517   5.572   4.626  1.1754  0.2188 -0.2907
 4769TIP3    H214272   2.472   5.698   4.697 -1.4941 -0.6191 -0.4011
 4770TIP3   OH214273   3.636   0.617   3.804 -0.0424  0.2849  0.7556
 4770TIP3    H114274   3.551   0.623   3.760 -1.5450  1.7674  3.5864
 4770TIP3    H214275   3.619   0.565   3.882  1.3500  1.5244  1.9460
 4771TIP3   OH214276   3.383   4.927   3.543 -0.2574 -0.4232 -0.2869
 4771TIP3    H114277   3.387   5.016   3.577 -1.2561 -0.9030  1.1611
 4771TIP3    H214278   3.474   4.904   3.523  0.2571  0.2183  1.2074
 4772TIP3   OH214279   6.700   1.903   5.324  0.1599  0.2413  0.5390
 4772TIP3    H114280   6.719   1.997   5.326 -2.1132  0.8416 -1.4402
 4772TIP3    H214281   6.753   1.869   5.253  0.4650  0.1523  0.8072
 4773TIP3   OH214282   4.792   2.875   3.930 -0.5657  0.3750  0.0673
 4773TIP3    H114283   4.712   2.828   3.952 -1.0421  0.4952 -1.3527
 4773TIP3    H214284   4.770   2.968   3.943 -0.2200  0.3470  0.9751
 4774TIP3   OH214285   1.971   3.379   2.984  0.6601  0.2585  0.5355
 4774TIP3    H114286   2.003   3.297   2.946  0.4656 -0.4564  1.8768
 4774TIP3    H214287   2.047   3.437   2.985  1.5296 -0.8587  2.1549
 4775TIP3   OH214288   3.789   1.167   4.172 -0.2923 -0.4066  0.1450
 4775TIP3    H114289   3.839   1.193   4.094 -0.5583  1.9325  0.6604
 4775TIP3    H214290   3.823   1.224   4.241 -0.6766 -1.8318  1.5590
 4776TIP3   OH214291   5.073   5.225   5.213  0.6286 -0.1958  0.3727
 4776TIP3    H114292   5.147   5.285   5.207  0.6636 -0.3305 -0.6261
 4776TIP3    H214293   5.034   5.244   5.298  1.0178  0.7997  0.3409
 4777TIP3   OH214294   5.042   5.556   5.831  0.3589 -0.0838  0.6302
 4777TIP3    H114295   5.123   5.606   5.818  0.4713 -0.2108  0.8386
 4777TIP3    H214296   5.027   5.558   5.925 -0.3104  0.6153  0.5211
 4778TIP3   OH214297   3.635   0.505   4.989  0.3179  0.1044 -0.2684
 4778TIP3    H114298   3.596   0.478   5.072  0.7548  0.7085  0.1468
 4778TIP3    H214299   3.705   0.442   4.974 -0.6026 -0.7933 -0.8559
 4779TIP3   OH214300   3.352   0.520   3.167 -0.1560 -0.2700  0.8653
 4779TIP3    H114301   3.338   0.470   3.248  1.2867  0.0544  1.3420
 4779TIP3    H214302   3.446   0.539   3.167 -0.7463  3.1708  1.1398
 4780TIP3   OH214303   5.065   0.783   5.828  0.0915  0.4201  0.0455
 4780TIP3    H114304   4.978   0.820   5.817 -0.2266 -0.2470  0.2743
 4780TIP3    H214305   5.105   0.835   5.898 -0.4476  0.1708  0.5451
 4781TIP3   OH214306   1.351   5.605   4.555  0.0751 -0.3331  0.1367
 4781TIP3    H114307   1.416   5.551   4.508 -0.2729  0.6921 -1.6008
 4781TIP3    H214308   1.393   5.690   4.564 -1.2435  0.5807 -1.7046
 4782TIP3   OH214309   1.780   1.938   4.489 -0.5048 -0.3034 -0.8053
 4782TIP3    H114310   1.817   2.026   4.490 -0.5685 -0.2773 -0.6105
 4782TIP3    H214311   1.728   1.934   4.408  0.6192 -0.6408 -1.5352
 4783TIP3   OH214312   2.567   4.736   3.499 -0.7661  0.4256  0.3440
 4783TIP3    H114313   2.642   4.681   3.522  0.4086  1.8176 -0.0587
 4783TIP3    H214314   2.516   4.682   3.437  1.4321  0.4778 -1.6613
 4784TIP3   OH214315   7.086   3.109   3.914  0.2456  0.0346  0.3322
 4784TIP3    H114316   7.023   3.038   3.902  0.8710 -0.2294 -2.0278
 4784TIP3    H214317   7.094   3.149   3.827  1.8358  1.3417  1.0127
 4785TIP3   OH214318   6.406   3.682   1.238 -0.3586 -0.5776  0.5717
 4785TIP3    H114319   6.354   3.604   1.216 -0.8651 -0.0683 -0.0673
 4785TIP3    H214320   6.462   3.695   1.162  0.1120 -0.6255  0.9066
 4786TIP3   OH214321   1.602   3.398   4.473  0.2466 -0.5090 -0.2146
 4786TIP3    H114322   1.578   3.317   4.427  2.4571 -1.0210 -0.5570
 4786TIP3    H214323   1.622   3.370   4.562 -0.3842 -0.0861  0.0686
 4787TIP3   OH214324   6.648   1.923   3.153 -0.5092  0.1216  0.0329
 4787TIP3    H114325   6.615   1.974   3.227  0.0964  1.0937 -0.3427
 4787TIP3    H214326   6.569   1.887   3.112 -0.8356 -0.6833  1.3053
 4788TIP3   OH214327   3.137   4.946   2.022  0.5662  0.0473  0.5108
 4788TIP3    H114328   3.123   4.874   2.083 -1.1038  0.2232  0.3715
 4788TIP3    H214329   3.145   4.904   1.936 -0.8461  0.0172  0.3686
 4789TIP3   OH214330   0.170   1.670   0.762 -1.1661  0.5345  0.5845
 4789TIP3    H114331   0.217   1.648   0.682 -1.6522 -0.9005  0.6572
 4789TIP3    H214332   0.078   1.667   0.737 -1.3712 -0.7877  1.3442
 4790TIP3   OH214333   2.563   6.464   4.742 -0.0508 -0.3964 -0.5489
 4790TIP3    H114334   2.645   6.510   4.761  0.1933 -0.7935 -0.6329
 4790TIP3    H214335   2.533   6.432   4.826 -0.4409  0.2682 -0.4249
 4791TIP3   OH214336   0.477   4.709   3.288  0.0812 -0.3024  0.2211
 4791TIP3    H114337   0.514   4.698   3.200  1.0416 -0.4509  0.6265
 4791TIP3    H214338   0.409   4.775   3.277 -0.2068 -0.7318 -0.7366
 4792TIP3   OH214339   3.739   4.468   3.578  0.0246  0.4249 -0.3511
 4792TIP3    H114340   3.812   4.524   3.551 -0.3621  1.0985 -0.0494
 4792TIP3    H214341   3.712   4.504   3.663 -0.0226 -0.4425  0.0106
 4793TIP3   OH214342   6.044   5.806   4.265 -0.6131  0.6565 -0.4522
 4793TIP3    H114343   5.992   5.753   4.326 -0.6069 -0.4173 -1.3342
 4793TIP3    H214344   5.993   5.806   4.184 -0.4318  1.7250 -0.5850
 4794TIP3   OH214345   4.808   3.795   3.828  0.2837 -0.3178  0.0785
 4794TIP3    H114346   4.725   3.753   3.807  0.2904 -0.5398  0.4794
 4794TIP3    H214347   4.783   3.873   3.878  0.3412 -0.8235  0.9215
 4795TIP3   OH214348   5.310   4.123   4.233  0.4010  0.1093  0.0617
 4795TIP3    H114349   5.347   4.194   4.180 -0.8677 -0.0699 -1.1293
 4795TIP3    H214350   5.293   4.164   4.318  0.3071  1.0709 -0.3975
 4796TIP3   OH214351   0.765   0.750   2.210 -0.6552  0.1037 -0.2199
 4796TIP3    H114352   0.743   0.842   2.222 -0.4228  0.0464  0.7769
 4796TIP3    H214353   0.724   0.706   2.285 -1.1284 -0.6684 -0.9199
 4797TIP3   OH214354   3.617   4.201   2.904 -0.2447 -0.4111 -0.0364
 4797TIP3    H114355   3.622   4.295   2.885  1.2035 -0.3850  0.3209
 4797TIP3    H214356   3.662   4.191   2.988 -0.3580 -1.4310 -0.0855
 4798TIP3   OH214357   0.904   1.530   2.981  0.0021 -0.0149 -0.3275
 4798TIP3    H114358   0.987   1.561   2.946 -0.5410  2.4039  0.3641
 4798TIP3    H214359   0.859   1.491   2.906  0.9299  0.4497 -1.1365
 4799TIP3   OH214360   6.647   5.821   1.415  0.1538 -0.2612 -0.7958
 4799TIP3    H114361   6.705   5.830   1.339 -0.2672  1.9881 -0.9058
 4799TIP3    H214362   6.682   5.882   1.480 -0.2115 -1.2615  0.3969
 4800TIP3   OH214363   5.952   0.764   1.049  0.2289 -0.1230 -0.0920
 4800TIP3    H114364   6.047   0.771   1.045  0.3481 -0.6262  1.2001
 4800TIP3    H214365   5.928   0.715   0.970  1.1260 -0.6856 -0.0295
 4801TIP3   OH214366   0.142   1.992   1.339 -0.5147  0.3678 -0.2240
 4801TIP3    H114367   0.128   1.924   1.405 -3.2590  0.4976 -0.5870
 4801TIP3    H214368   0.175   1.944   1.263 -0.3873 -0.2369  0.1982
 4802TIP3   OH214369   1.703   3.039   2.064  0.0590 -0.4073  0.0498
 4802TIP3    H114370   1.686   3.119   2.014  0.5600 -0.6864 -0.5718
 4802TIP3    H214371   1.705   3.068   2.155  0.5854  0.3513 -0.1927
 4803TIP3   OH214372   3.785   2.547   0.676 -0.0352  0.0630 -0.0732
 4803TIP3    H114373   3.722   2.483   0.644  0.0254  0.0942 -0.2564
 4803TIP3    H214374   3.839   2.498   0.738  0.2493 -0.1634 -0.4931
 4804TIP3   OH214375   1.560   0.931   0.625  0.1563  0.4077  0.3672
 4804TIP3    H114376   1.560   1.000   0.559 -0.1249 -0.4995 -0.6018
 4804TIP3    H214377   1.649   0.931   0.660  0.3735  0.7368 -0.1824
 4805TIP3   OH214378   3.851   4.814   4.744 -0.2801 -0.3705 -0.3836
 4805TIP3    H114379   3.803   4.824   4.662  0.4232  1.0052 -0.6520
 4805TIP3    H214380   3.792   4.851   4.810 -0.9537 -1.7094 -0.2026
 4806TIP3   OH214381   2.222   3.267   4.196  0.1286 -0.2214 -0.0318
 4806TIP3    H114382   2.227   3.229   4.108 -1.1714 -0.4866 -0.0062
 4806TIP3    H214383   2.160   3.339   4.187 -1.0833 -1.1012  0.9426
 4807TIP3   OH214384   2.600   2.259   0.224  0.4389 -0.4340 -0.1911
 4807TIP3    H114385   2.602   2.295   0.313  0.6306  0.7389 -0.6407
 4807TIP3    H214386   2.516   2.214   0.218 -0.4059  1.0342  0.0244
 4808TIP3   OH214387   1.480   6.567   4.265 -0.3675  0.4726 -0.2179
 4808TIP3    H114388   1.555   6.621   4.291 -0.5638  1.0485 -0.8362
 4808TIP3    H214389   1.420   6.572   4.339  0.7370 -1.0332  0.8462
 4809TIP3   OH214390   5.737   5.387   1.076 -0.2569 -0.0096 -0.4060
 4809TIP3    H114391   5.814   5.441   1.092  0.6313 -1.6857  1.4086
 4809TIP3    H214392   5.734   5.327   1.150 -2.4328 -1.0238 -1.2321
 4810TIP3   OH214393   4.790   5.749   2.112  0.3037  0.0285  0.3149
 4810TIP3    H114394   4.811   5.656   2.121 -1.7320 -0.5521 -0.4625
 4810TIP3    H214395   4.825   5.773   2.026  1.4958  0.2146  0.8275
 4811TIP3   OH214396   2.291   1.547   2.285 -0.3149 -0.1775  0.1910
 4811TIP3    H114397   2.360   1.605   2.254 -1.2159  1.1735  0.6239
 4811TIP3    H214398   2.307   1.537   2.379 -0.5935 -0.0192  0.2561
 4812TIP3   OH214399   4.205   1.021   5.455 -0.1757  0.5327  0.4829
 4812TIP3    H114400   4.213   0.929   5.478 -0.0652  0.4723  0.1940
 4812TIP3    H214401   4.198   1.066   5.540  0.1914  0.3008  0.6362
 4813TIP3   OH214402   0.686   1.707   3.057 -0.2797 -0.2185  0.0500
 4813TIP3    H114403   0.759   1.665   3.013  0.1765 -0.1912  0.7665
 4813TIP3    H214404   0.610   1.654   3.032 -0.0624 -0.1195 -0.8698
 4814TIP3   OH214405   5.893   4.532   3.669  0.0267 -0.4235  0.5669
 4814TIP3    H114406   5.846   4.468   3.722  0.9474  0.1138  2.0774
 4814TIP3    H214407   5.870   4.617   3.707 -0.5991  0.1192 -0.9511
 4815TIP3   OH214408   0.307   5.769   2.061 -0.4596  0.0093 -0.1913
 4815TIP3    H114409   0.265   5.707   2.121 -1.7878 -0.1226 -1.2278
 4815TIP3    H214410   0.299   5.854   2.106  1.1552 -0.4753  1.1228
 4816TIP3   OH214411   4.957   4.244   4.884 -0.2491  0.2918 -0.0673
 4816TIP3    H114412   5.052   4.258   4.885 -0.0038 -1.1580  0.8735
 4816TIP3    H214413   4.936   4.219   4.974 -1.4725  0.2573 -0.3437
 4817TIP3   OH214414   6.040   1.261   3.584 -0.1978  0.1123 -0.3065
 4817TIP3    H114415   6.022   1.168   3.600 -1.4247  0.3945  0.0383
 4817TIP3    H214416   6.111   1.261   3.520 -1.6025 -1.0696 -1.9270
 4818TIP3   OH214417   2.354   3.676   3.552 -0.5275  0.1752 -0.0103
 4818TIP3    H114418   2.396   3.637   3.629  2.3145  0.9207 -1.0570
 4818TIP3    H214419   2.388   3.765   3.548 -3.6203  1.4539 -0.0537
 4819TIP3   OH214420   1.511   6.169   2.872 -0.1863  0.3300  0.1326
 4819TIP3    H114421   1.550   6.151   2.787 -1.4169 -2.0756  0.0037
 4819TIP3    H214422   1.581   6.153   2.935 -0.0525 -0.7583 -0.2794
 4820TIP3   OH214423   5.060   5.185   2.069  0.2013  0.3324  0.3191
 4820TIP3    H114424   5.147   5.203   2.106  1.2620 -0.3848 -1.6681
 4820TIP3    H214425   5.054   5.089   2.070 -0.5117  0.3722  0.2997
 4821TIP3   OH214426   3.323   2.375   5.477  0.2253 -0.1012  0.1883
 4821TIP3    H114427   3.228   2.378   5.462  0.1966 -0.3797  0.2989
 4821TIP3    H214428   3.362   2.407   5.396 -0.0109  2.3384  0.9644
 4822TIP3   OH214429   0.740   2.956   1.816  0.3062 -0.1516 -0.3147
 4822TIP3    H114430   0.675   3.002   1.870  0.1913 -1.9199  1.1561
 4822TIP3    H214431   0.803   3.023   1.792  0.8574  0.6547  2.8269
 4823TIP3   OH214432   5.209   1.418   0.333  0.0227 -0.7685 -0.0493
 4823TIP3    H114433   5.273   1.463   0.278 -0.0581 -0.9310 -0.2767
 4823TIP3    H214434   5.222   1.325   0.316 -0.1980 -0.8079 -0.0160
 4824TIP3   OH214435   6.025   1.287   0.627  0.0268 -0.2833  0.8308
 4824TIP3    H114436   6.109   1.287   0.672 -0.0601 -0.0576  0.9966
 4824TIP3    H214437   5.974   1.356   0.671  0.6730  1.4562 -1.0196
 4825TIP3   OH214438   3.922   2.967   3.369 -0.8528  0.2976 -0.1464
 4825TIP3    H114439   3.924   2.880   3.409 -0.4433  1.2919  2.1884
 4825TIP3    H214440   3.948   2.953   3.278  1.8917 -1.6878  0.8209
 4826TIP3   OH214441   5.432   1.288   3.274 -0.9061  0.3720  1.1127
 4826TIP3    H114442   5.405   1.365   3.323  0.2413  1.4618  0.1203
 4826TIP3    H214443   5.522   1.307   3.247 -1.5579  0.0042 -1.6342
 4827TIP3   OH214444   1.452   3.356   4.926 -0.2270  0.3252 -0.4382
 4827TIP3    H114445   1.432   3.271   4.963 -2.0937  1.2179  0.7590
 4827TIP3    H214446   1.547   3.357   4.916  0.0173 -1.1428  1.3755
 4828TIP3   OH214447   6.908   2.876   3.446  0.3097 -0.4115  0.2633
 4828TIP3    H114448   6.840   2.808   3.450 -0.3479  0.2946  2.6638
 4828TIP3    H214449   6.868   2.946   3.394 -1.2581  0.3749  2.3919
 4829TIP3   OH214450   2.433   2.487   2.054 -0.1508  0.5360 -0.4027
 4829TIP3    H114451   2.511   2.437   2.078  0.9848  2.6181  0.5326
 4829TIP3    H214452   2.419   2.468   1.961 -0.9268 -2.8795  0.2820
 4830TIP3   OH214453   5.691   4.640   0.375  1.0739 -0.2835  0.3623
 4830TIP3    H114454   5.776   4.596   0.366  1.5417  0.8402 -1.2185
 4830TIP3    H214455   5.711   4.732   0.357 -0.1998  0.2815  1.7107
 4831TIP3   OH214456   3.102   3.981   0.786  0.6146  0.3999 -0.3993
 4831TIP3    H114457   3.117   4.018   0.700 -2.0257  1.3630 -0.5452
 4831TIP3    H214458   3.135   3.891   0.780  3.1514  1.3118 -1.4148
 4832TIP3   OH214459   5.067   6.360   0.086 -0.2733  0.3773 -0.6473
 4832TIP3    H114460   5.063   6.316   0.000 -0.2465 -0.7213 -0.1061
 4832TIP3    H214461   5.040   6.292   0.148 -1.4708  1.4956  0.1123
 4833TIP3   OH214462   0.761   6.568   1.349 -0.7913 -0.1294  0.1197
 4833TIP3    H114463   0.842   6.618   1.357 -0.3264 -0.5545 -1.6010
 4833TIP3    H214464   0.694   6.625   1.385  0.2928  0.0715  1.9844
 4834TIP3   OH214465   2.174   4.123   3.774  0.0659 -0.4710  0.1123
 4834TIP3    H114466   2.256   4.101   3.819  0.6441  0.1606 -0.5975
 4834TIP3    H214467   2.201   4.143   3.684 -0.9198 -0.5969 -0.2239
 4835TIP3   OH214468   2.192   4.367   4.043  0.2170  0.3479  0.3574
 4835TIP3    H114469   2.126   4.308   4.078 -0.4506  1.3099  0.7279
 4835TIP3    H214470   2.159   4.391   3.956  0.8415 -0.3684 -0.0946
 4836TIP3   OH214471   6.214   2.684   5.740 -0.0688  0.0906 -0.1629
 4836TIP3    H114472   6.247   2.595   5.753 -1.4916 -0.6170 -1.0466
 4836TIP3    H214473   6.287   2.732   5.702  1.1626 -0.2959  1.5905
 4837TIP3   OH214474   6.403   5.077   5.818 -0.2435 -0.0089  0.0260
 4837TIP3    H114475   6.309   5.093   5.809 -0.6651 -1.5058  1.1907
 4837TIP3    H214476   6.417   4.995   5.770  0.2344 -0.3643  0.7557
 4838TIP3   OH214477   6.969   3.059   1.934  0.3474 -0.7224  0.2662
 4838TIP3    H114478   6.938   2.971   1.913  0.2483 -1.3090  2.5749
 4838TIP3    H214479   6.900   3.117   1.901  0.4377 -1.4611 -1.3259
 4839TIP3   OH214480   4.362   3.557   1.793  0.6808 -0.2094  0.4035
 4839TIP3    H114481   4.275   3.542   1.754  0.3466 -0.2163  1.1255
 4839TIP3    H214482   4.413   3.481   1.766 -0.0366 -1.0615  1.3146
 4840TIP3   OH214483   3.516   3.250   2.580  0.2396  0.2124 -0.0161
 4840TIP3    H114484   3.443   3.210   2.626  0.4982 -2.4635 -1.7487
 4840TIP3    H214485   3.477   3.326   2.536 -1.2698 -0.5456 -0.0557
 4841TIP3   OH214486   2.802   6.149   4.608 -0.3215 -0.0290 -0.3281
 4841TIP3    H114487   2.732   6.194   4.561 -1.2184 -0.1350  0.8612
 4841TIP3    H214488   2.759   6.075   4.650  0.5059 -0.0911  0.4344
 4842TIP3   OH214489   2.761   1.985   1.821 -0.5984  0.4356 -0.0390
 4842TIP3    H114490   2.765   1.972   1.916 -0.6144  0.0341 -0.0919
 4842TIP3    H214491   2.851   2.009   1.797 -0.4668  0.0150  0.0079
 4843TIP3   OH214492   1.770   3.961   2.882  0.0391 -0.2371 -0.1645
 4843TIP3    H114493   1.707   4.029   2.906 -1.3753 -1.2680 -0.7782
 4843TIP3    H214494   1.760   3.895   2.950  0.0303 -0.6607 -0.5719
 4844TIP3   OH214495   2.151   2.677   5.399  0.1659  0.6002  0.0821
 4844TIP3    H114496   2.112   2.759   5.430 -0.2562  1.2581 -1.9791
 4844TIP3    H214497   2.079   2.632   5.355  0.9478  0.2567 -0.8856
 4845TIP3   OH214498   1.273   2.958   2.703  0.5856  0.2558 -0.0935
 4845TIP3    H114499   1.331   2.893   2.743 -1.2120 -0.1039  2.1165
 4845TIP3    H214500   1.211   2.906   2.652  0.3523  0.4014  0.0437
 4846TIP3   OH214501   4.178   1.921   3.058  0.3646  0.5588  0.0363
 4846TIP3    H114502   4.248   1.894   3.118 -1.1433 -0.8254  1.2681
 4846TIP3    H214503   4.101   1.933   3.114 -0.6470  1.0619 -1.3977
 4847TIP3   OH214504   7.147   1.574   0.638  0.2632  0.0614  0.0508
 4847TIP3    H114505   7.222   1.583   0.579 -0.2638  0.2848 -0.6006
 4847TIP3    H214506   7.072   1.563   0.579 -0.4494  1.4947  0.6443
 4848TIP3   OH214507   2.746   1.630   1.742  0.6442  0.3203  0.4043
 4848TIP3    H114508   2.666   1.627   1.795  0.6400  0.7795  0.4321
 4848TIP3    H214509   2.722   1.685   1.667  0.3799 -1.0366 -0.5368
 4849TIP3   OH214510   0.656   5.650   2.790 -0.2010  0.0125  0.1564
 4849TIP3    H114511   0.620   5.593   2.723 -1.4323 -2.4202  2.6769
 4849TIP3    H214512   0.718   5.595   2.838  1.8109  2.1169  0.1241
 4850TIP3   OH214513   0.697   3.967   4.321  0.0404  0.4184 -0.1499
 4850TIP3    H114514   0.656   3.881   4.315 -1.0071  0.8144  0.8378
 4850TIP3    H214515   0.704   3.997   4.231  0.4060 -0.6830 -0.5074
 4851TIP3   OH214516   1.783   1.391   3.305 -0.5816  0.6488  0.3802
 4851TIP3    H114517   1.811   1.300   3.316  0.7753  0.6766 -2.0572
 4851TIP3    H214518   1.698   1.395   3.349 -0.8772 -1.9311  0.2283
 4852TIP3   OH214519   3.574   2.406   0.173  0.0418  0.1707 -0.4496
 4852TIP3    H114520   3.633   2.458   0.119 -0.6599  0.8807 -0.5562
 4852TIP3    H214521   3.616   2.320   0.180  1.4311  0.8749  0.0825
 4853TIP3   OH214522   3.657   5.692   3.469 -0.0046  0.1275  0.5926
 4853TIP3    H114523   3.596   5.761   3.495 -0.2696 -1.1705  3.8323
 4853TIP3    H214524   3.736   5.709   3.518  0.2219 -1.3749  0.8067
 4854TIP3   OH214525   5.493   4.491   3.498 -0.3621 -0.5566  0.2603
 4854TIP3    H114526   5.467   4.487   3.590  1.3079  0.6439  0.8400
 4854TIP3    H214527   5.414   4.468   3.450 -1.4678 -0.5579  1.9665
 4855TIP3   OH214528   2.408   4.128   0.922 -0.2365 -0.3455 -0.0024
 4855TIP3    H114529   2.321   4.157   0.896 -0.0552 -1.2088 -1.7610
 4855TIP3    H214530   2.446   4.203   0.968 -1.3612  0.5863 -0.5419
 4856TIP3   OH214531   5.698   2.900   3.509 -0.3023 -0.0010 -0.5615
 4856TIP3    H114532   5.744   2.977   3.542  0.1518 -0.5533  0.1368
 4856TIP3    H214533   5.754   2.827   3.535 -1.2268 -0.6405 -0.3372
 4857TIP3   OH214534   1.761   0.511   2.443 -0.2084 -1.0175  0.6103
 4857TIP3    H114535   1.721   0.445   2.500  0.9090 -1.4273  0.9392
 4857TIP3    H214536   1.769   0.589   2.499  0.8989 -1.4230  1.0354
 4858TIP3   OH214537   1.254   6.629   2.207  0.2744  0.5102 -0.1753
 4858TIP3    H114538   1.255   6.549   2.260 -0.6456 -0.0261 -0.9400
 4858TIP3    H214539   1.194   6.687   2.255 -0.1332  0.2288 -0.3432
 4859TIP3   OH214540   6.135   4.218   0.606  0.4924  0.2906 -0.1414
 4859TIP3    H114541   6.040   4.218   0.591  0.0426 -0.5349  2.2765
 4859TIP3    H214542   6.171   4.176   0.529 -1.0781  0.7935 -1.2030
 4860TIP3   OH214543   3.146   5.908   1.761 -0.4203  0.3859 -0.2803
 4860TIP3    H114544   3.170   5.902   1.854 -2.3563  1.7728  0.3649
 4860TIP3    H214545   3.051   5.914   1.761 -0.5112 -0.2730 -2.4412
 4861TIP3   OH214546   3.707   4.510   5.034 -0.5735  0.5363 -0.6154
 4861TIP3    H114547   3.682   4.578   4.972 -0.6014 -0.0705 -1.2947
 4861TIP3    H214548   3.675   4.429   4.994  0.8105 -0.0520 -0.6137
 4862TIP3   OH214549   6.911   3.127   0.284  0.0309 -0.2621  0.0347
 4862TIP3    H114550   6.904   3.209   0.236  2.7268  0.0269 -0.0171
 4862TIP3    H214551   6.955   3.067   0.224 -1.1880 -1.5358  0.3496
 4863TIP3   OH214552   6.541   1.781   2.485  0.0050  0.9214 -1.2817
 4863TIP3    H114553   6.538   1.747   2.396  1.4426 -0.2821 -0.8960
 4863TIP3    H214554   6.461   1.748   2.526  0.7407 -0.9899 -1.3002
 4864TIP3   OH214555   2.991   3.809   5.428 -0.4231  0.5122 -0.0639
 4864TIP3    H114556   2.983   3.900   5.397  0.4904 -0.0159 -1.9849
 4864TIP3    H214557   3.051   3.815   5.502 -0.6843  1.5207  0.0928
 4865TIP3   OH214558   4.471   1.608   5.352 -0.6328 -0.1962 -0.4566
 4865TIP3    H114559   4.427   1.629   5.270  0.4927  0.1105 -1.0089
 4865TIP3    H214560   4.433   1.524   5.379 -2.8082  0.8938  0.0549
 4866TIP3   OH214561   4.842   6.434   0.902 -0.3203 -0.3043 -0.1424
 4866TIP3    H114562   4.757   6.392   0.908 -0.3920 -0.3138 -1.0493
 4866TIP3    H214563   4.853   6.453   0.809  1.3686 -1.7669 -0.3025
 4867TIP3   OH214564   3.578   5.207   0.164 -0.7203  0.4311  0.1073
 4867TIP3    H114565   3.613   5.118   0.170  0.2104  0.8686  1.4583
 4867TIP3    H214566   3.541   5.212   0.075  0.5398 -0.8091 -0.5249
 4868TIP3   OH214567   2.402   2.389   4.376 -0.1927 -0.0688 -0.3870
 4868TIP3    H114568   2.409   2.370   4.469 -0.4485  0.0210 -0.3478
 4868TIP3    H214569   2.328   2.450   4.370  0.3163  0.5397 -0.5596
 4869TIP3   OH214570   6.795   0.033   1.440  0.8082  0.0429  0.1783
 4869TIP3    H114571   6.806   0.028   1.535  1.3532 -1.1321  0.0720
 4869TIP3    H214572   6.711   0.079   1.428  0.2996 -0.5718  1.2485
 4870TIP3   OH214573   6.035   5.195   4.293  0.1738  0.6523  0.3293
 4870TIP3    H114574   6.088   5.121   4.322  1.0848  0.8485 -0.7703
 4870TIP3    H214575   5.997   5.166   4.210  1.1879  1.6743 -0.5319
 4871TIP3   OH214576   5.473   2.899   2.446 -0.0509  0.4368  0.0905
 4871TIP3    H114577   5.565   2.877   2.435  0.0435 -0.1417  1.8017
 4871TIP3    H214578   5.426   2.833   2.396  0.4252 -0.1585  0.4265
 4872TIP3   OH214579   7.136   6.103   2.005  0.5728  0.0410 -0.2228
 4872TIP3    H114580   7.157   6.146   1.922  0.4470  0.1260 -0.2115
 4872TIP3    H214581   7.048   6.068   1.993  0.9468 -0.8303 -0.4761
 4873TIP3   OH214582   1.608   6.125   2.620 -0.0285  0.0852  0.1019
 4873TIP3    H114583   1.673   6.056   2.614  0.3736  0.5010 -0.5038
 4873TIP3    H214584   1.554   6.114   2.542  0.0873  0.4950 -0.0416
 4874TIP3   OH214585   2.796   5.509   5.082  0.1142 -0.1157  0.2698
 4874TIP3    H114586   2.831   5.540   5.165 -2.6781 -0.3651  1.6819
 4874TIP3    H214587   2.741   5.581   5.051 -2.1131 -1.4424  0.8309
 4875TIP3   OH214588   3.724   2.700   4.099  0.5229  0.0828 -0.6701
 4875TIP3    H114589   3.801   2.754   4.119  0.9680 -1.1706  1.2789
 4875TIP3    H214590   3.735   2.678   4.006  0.8235  2.4732 -1.2714
 4876TIP3   OH214591   0.955   0.634   3.609 -0.2262 -0.3610  0.3342
 4876TIP3    H114592   1.023   0.606   3.670  1.0067 -0.2259 -0.9115
 4876TIP3    H214593   0.992   0.712   3.567 -0.5995 -1.0064 -1.2629
 4877TIP3   OH214594   1.008   6.690   4.191 -0.2263 -0.2595 -0.7458
 4877TIP3    H114595   1.103   6.690   4.175 -0.2287 -0.7412 -0.7751
 4877TIP3    H214596   0.987   6.781   4.211  0.4568 -0.3659  0.5408
 4878TIP3   OH214597   7.064   5.840   0.936 -0.0763  0.1465 -0.3365
 4878TIP3    H114598   7.098   5.777   0.873 -0.9509 -0.6233 -0.0536
 4878TIP3    H214599   7.002   5.791   0.989 -1.8674  1.5562 -1.0232
 4879TIP3   OH214600   5.172   1.821   3.404  0.0699  0.5274 -0.2560
 4879TIP3    H114601   5.172   1.915   3.386 -1.9449  0.2882 -1.8819
 4879TIP3    H214602   5.090   1.806   3.452  1.2897 -0.1698  1.7652
 4880TIP3   OH214603   6.814   5.220   4.213 -0.3551 -0.1739  0.2714
 4880TIP3    H114604   6.811   5.162   4.137 -0.3977 -2.2256  1.7546
 4880TIP3    H214605   6.902   5.207   4.249 -0.3877  0.6632  0.6724
 4881TIP3   OH214606   1.412   1.166   5.920  0.1906  0.0981  0.4113
 4881TIP3    H114607   1.389   1.103   5.851  0.8783 -0.9100  1.0965
 4881TIP3    H214608   1.386   1.251   5.883 -0.5538 -0.5468 -0.6091
 4882TIP3   OH214609   2.383   4.935   3.958 -0.3726 -0.3004 -0.1183
 4882TIP3    H114610   2.406   4.960   4.048 -1.4941 -1.8897  0.6580
 4882TIP3    H214611   2.413   5.009   3.905  1.9718 -0.0913  1.3228
 4883TIP3   OH214612   6.108   4.157   5.456  0.2663 -0.2628  0.0535
 4883TIP3    H114613   6.036   4.162   5.519 -0.1728  2.9809 -0.5002
 4883TIP3    H214614   6.091   4.077   5.407 -2.3368 -0.2256  0.6987
 4884TIP3   OH214615   5.676   1.331   3.835  0.4325  0.6707 -0.8445
 4884TIP3    H114616   5.585   1.328   3.804 -0.1866  1.5696  0.7904
 4884TIP3    H214617   5.670   1.360   3.926  2.0268 -3.1903  0.7095
 4885TIP3   OH214618   2.962   2.879   2.183  0.4066  0.6160  0.3102
 4885TIP3    H114619   2.908   2.859   2.107 -1.3294 -0.7008  1.8062
 4885TIP3    H214620   2.927   2.962   2.216 -0.6377 -0.1447  1.1726
 4886TIP3   OH214621   2.151   3.376   2.642  0.1003  0.1602  0.2742
 4886TIP3    H114622   2.180   3.464   2.664 -1.4039  1.2890 -1.9045
 4886TIP3    H214623   2.094   3.351   2.714  1.7669  0.2581  1.7040
 4887TIP3   OH214624   1.032   3.800   4.446 -0.0575  0.6326 -0.0391
 4887TIP3    H114625   1.029   3.767   4.536 -1.8241  1.2006  0.1390
 4887TIP3    H214626   1.126   3.807   4.426  0.3597 -0.6340  1.3191
 4888TIP3   OH214627   4.769   3.991   1.797 -0.1733  0.2726  0.4647
 4888TIP3    H114628   4.696   4.030   1.748  0.0545  0.2341  0.0899
 4888TIP3    H214629   4.812   3.933   1.734 -0.3120 -0.3352  0.9256
 4889TIP3   OH214630   0.652   0.228   1.941 -0.3448 -0.2277 -0.7511
 4889TIP3    H114631   0.564   0.260   1.958 -0.4364  1.3629 -3.5893
 4889TIP3    H214632   0.642   0.167   1.867  1.0987  1.9986 -2.9468
 4890TIP3   OH214633   4.922   6.219   2.161 -0.0271 -0.3524 -0.4022
 4890TIP3    H114634   4.830   6.210   2.138 -0.2037  0.2821  0.0322
 4890TIP3    H214635   4.925   6.210   2.256  0.2411  0.4281 -0.3222
 4891TIP3   OH214636   4.200   0.391   2.516  0.1205 -0.6385 -0.1401
 4891TIP3    H114637   4.114   0.351   2.505 -0.3300  0.1563  0.3799
 4891TIP3    H214638   4.228   0.364   2.604  0.6994 -1.4080 -0.5398
 4892TIP3   OH214639   6.531   4.341   4.669  0.1689  0.1450 -0.4055
 4892TIP3    H114640   6.481   4.372   4.593  0.2694 -0.9902 -0.9620
 4892TIP3    H214641   6.469   4.284   4.716  0.3847  0.1385 -0.1322
 4893TIP3   OH214642   3.099   2.111   2.720  0.0209 -0.1310 -0.0687
 4893TIP3    H114643   3.086   2.016   2.722  1.0921 -0.3350 -1.4909
 4893TIP3    H214644   3.045   2.142   2.648  0.0747  0.2600  0.0569
 4894TIP3   OH214645   6.463   5.808   0.849 -1.1941 -0.1985  0.0709
 4894TIP3    H114646   6.484   5.730   0.899 -0.1518 -0.5927 -0.9380
 4894TIP3    H214647   6.424   5.775   0.767 -0.3758  0.2977 -0.5346
 4895TIP3   OH214648   6.916   4.620   4.088  0.0361  0.1088  0.5102
 4895TIP3    H114649   7.001   4.633   4.044  0.0138  0.4818  0.5764
 4895TIP3    H214650   6.879   4.707   4.093 -0.5056 -0.0985  0.1831
 4896TIP3   OH214651   4.141   4.145   4.404  0.9109 -0.8958 -1.2561
 4896TIP3    H114652   4.144   4.199   4.483  1.2629 -0.7808 -1.3438
 4896TIP3    H214653   4.052   4.110   4.401  0.1170  1.0403 -2.1213
 4897TIP3   OH214654   4.167   5.525   3.835 -0.1580  0.4646  0.6382
 4897TIP3    H114655   4.181   5.537   3.741 -1.4972  1.9162  0.5764
 4897TIP3    H214656   4.116   5.602   3.862 -2.7094 -1.5337  1.9153
 4898TIP3   OH214657   5.488   3.312   3.460  0.3134 -0.0435 -0.1800
 4898TIP3    H114658   5.420   3.376   3.480  0.4506 -0.7633  3.1272
 4898TIP3    H214659   5.441   3.229   3.452  0.4015  0.0513 -2.1430
 4899TIP3   OH214660   5.710   4.223   4.553 -0.2470  0.2589  0.2523
 4899TIP3    H114661   5.721   4.252   4.462 -1.3387  2.0873  0.6501
 4899TIP3    H214662   5.636   4.161   4.549 -1.4096  1.5972  0.0774
 4900TIP3   OH214663   5.773   1.851   2.989 -0.0523 -0.5051 -0.4749
 4900TIP3    H114664   5.730   1.768   2.969 -0.4558 -0.0121 -1.7712
 4900TIP3    H214665   5.866   1.834   2.976 -0.2170 -0.4847 -1.9087
 4901TIP3   OH214666   5.078   5.815   4.918 -0.1966 -0.6513 -0.1523
 4901TIP3    H114667   5.117   5.900   4.942 -0.3839 -0.7294  0.4635
 4901TIP3    H214668   5.146   5.771   4.868 -0.6600  0.4941 -1.8993
 4902TIP3   OH214669   3.937   4.017   3.457 -0.5396  0.0389 -0.3329
 4902TIP3    H114670   3.923   3.923   3.443  0.1850 -0.4602  1.8896
 4902TIP3    H214671   3.853   4.049   3.490 -0.0162 -0.4525  1.5759
 4903TIP3   OH214672   0.451   3.371   5.346 -0.3704 -0.4993  0.3005
 4903TIP3    H114673   0.396   3.394   5.272  0.3848  1.4424  0.2809
 4903TIP3    H214674   0.429   3.435   5.414  0.9352 -0.4795  0.7445
 4904TIP3   OH214675   5.794   0.687   2.115  0.1072  0.1464 -0.0478
 4904TIP3    H114676   5.724   0.656   2.171 -0.9020  0.1871 -1.2478
 4904TIP3    H214677   5.806   0.616   2.051 -1.1665  1.4879 -1.8799
 4905TIP3   OH214678   4.919   2.222   2.271 -0.0996  0.7479  0.2215
 4905TIP3    H114679   4.872   2.292   2.316 -0.8748 -0.2003  0.9388
 4905TIP3    H214680   4.854   2.154   2.259  0.5440  0.3084 -0.8320
 4906TIP3   OH214681   2.694   1.231   5.236  0.0945  0.0152  0.5763
 4906TIP3    H114682   2.619   1.192   5.190  1.5296 -0.3220 -1.6280
 4906TIP3    H214683   2.672   1.324   5.241  0.1653  0.2169 -1.5918
 4907TIP3   OH214684   6.683   2.346   1.873  0.0463  0.2107 -0.3963
 4907TIP3    H114685   6.652   2.436   1.881  0.3204  0.1925  1.3610
 4907TIP3    H214686   6.608   2.292   1.899 -0.3096 -0.1337 -2.0101
 4908TIP3   OH214687   5.585   6.097   5.839  0.4129  0.4299  0.5926
 4908TIP3    H114688   5.678   6.088   5.817  0.8231 -1.4434  2.7607
 4908TIP3    H214689   5.561   6.183   5.804  3.1208  1.2593  0.5188
 4909TIP3   OH214690   6.517   1.771   5.018  0.0511  0.3704 -0.3742
 4909TIP3    H114691   6.578   1.708   4.979  0.1461  0.8395 -0.9971
 4909TIP3    H214692   6.529   1.760   5.112  0.2382 -0.3754 -0.4775
 4910TIP3   OH214693   0.679   0.427   0.665 -0.1680 -0.3972 -0.4003
 4910TIP3    H114694   0.666   0.411   0.571  0.5080 -1.0743 -0.3866
 4910TIP3    H214695   0.652   0.346   0.707  0.1103 -0.3159 -0.0589
 4911TIP3   OH214696   0.990   6.644   1.828  0.4569  0.3990 -0.8881
 4911TIP3    H114697   0.913   6.696   1.853  0.6947  1.1490 -1.6863
 4911TIP3    H214698   1.041   6.702   1.773  1.2382 -0.3543 -0.9728
 4912TIP3   OH214699   2.268   3.613   2.660  0.1631 -0.2246  0.0921
 4912TIP3    H114700   2.185   3.660   2.654 -0.7835 -1.5522  1.8653
 4912TIP3    H214701   2.329   3.678   2.695 -0.3626  0.4893 -0.2683
 4913TIP3   OH214702   4.921   5.192   0.758  1.0378 -0.1393 -0.7153
 4913TIP3    H114703   4.855   5.231   0.701  2.5662 -0.5643 -2.9026
 4913TIP3    H214704   4.994   5.171   0.700  2.3152 -1.5363  1.2507
 4914TIP3   OH214705   2.575   1.621   0.754  0.1529  0.2439  0.0320
 4914TIP3    H114706   2.545   1.531   0.761  0.3007  0.2992  2.0900
 4914TIP3    H214707   2.549   1.649   0.666 -2.1138 -1.0243  0.2190
 4915TIP3   OH214708   0.550   1.303   1.470  0.0017  0.5065  0.1715
 4915TIP3    H114709   0.601   1.366   1.520 -0.0156  0.6861 -0.0346
 4915TIP3    H214710   0.465   1.345   1.458  0.1093  0.6008 -0.2796
 4916TIP3   OH214711   4.385   4.780   3.433 -0.2319 -0.1526  0.2177
 4916TIP3    H114712   4.459   4.724   3.457  1.2297  0.9637 -1.3760
 4916TIP3    H214713   4.352   4.813   3.517  1.8155  0.1654  0.9688
 4917TIP3   OH214714   2.637   2.635   2.862  0.0218 -0.1272  0.2936
 4917TIP3    H114715   2.729   2.625   2.837  0.5757  0.7156  1.8133
 4917TIP3    H214716   2.629   2.586   2.944 -1.3027 -1.5074 -0.6223
 4918TIP3   OH214717   7.014   2.060   4.951 -0.5344  0.0047 -0.4168
 4918TIP3    H114718   6.987   2.093   4.865  0.2136  1.2778 -0.1887
 4918TIP3    H214719   7.072   1.987   4.932  1.0145  1.3502 -1.0758
 4919TIP3   OH214720   4.083   0.291   1.211 -0.0113 -0.1994 -0.5859
 4919TIP3    H114721   4.114   0.221   1.269 -1.2060  0.3950  0.8200
 4919TIP3    H214722   4.048   0.244   1.135  1.2568 -1.0096 -0.7054
 4920TIP3   OH214723   3.425   4.267   4.113  0.1832 -0.2594 -0.0763
 4920TIP3    H114724   3.457   4.176   4.108 -1.4765 -0.8626 -0.2938
 4920TIP3    H214725   3.371   4.268   4.192  1.1273  0.8790  0.5810
 4921TIP3   OH214726   2.053   3.737   3.041  0.0565  0.3224 -0.1329
 4921TIP3    H114727   2.032   3.743   3.134 -0.3260  0.7481 -0.2450
 4921TIP3    H214728   2.116   3.665   3.036 -1.7957 -1.4269  0.1447
 4922TIP3   OH214729   4.852   2.558   0.522  0.5788 -0.0861  0.5353
 4922TIP3    H114730   4.828   2.579   0.612  2.0205  2.9639  0.2960
 4922TIP3    H214731   4.802   2.620   0.469  0.5505 -1.1496 -0.7285
 4923TIP3   OH214732   3.316   0.482   1.857 -0.5152 -0.3541  0.2161
 4923TIP3    H114733   3.396   0.431   1.861 -0.3367 -0.1497 -0.5972
 4923TIP3    H214734   3.249   0.425   1.894 -0.0446 -0.6157  0.6727
 4924TIP3   OH214735   3.075   1.417   1.319 -0.3531  0.6688  0.0031
 4924TIP3    H114736   3.078   1.419   1.223 -1.7481  2.2909 -0.0590
 4924TIP3    H214737   3.037   1.332   1.340 -0.4905  0.4889 -0.9145
 4925TIP3   OH214738   6.679   2.548   3.935 -0.5230  0.2092 -0.0628
 4925TIP3    H114739   6.723   2.600   3.868  1.1606 -0.2318  0.6371
 4925TIP3    H214740   6.649   2.469   3.890 -0.5741  0.5149 -0.5617
 4926TIP3   OH214741   4.921   3.878   0.258 -0.4506 -0.2752  0.1459
 4926TIP3    H114742   4.853   3.946   0.259  1.3742  1.6557  1.2890
 4926TIP3    H214743   4.991   3.916   0.204  0.3550 -1.5674  0.2522
 4927TIP3   OH214744   0.795   0.012   5.252  0.1684  0.2280 -0.1078
 4927TIP3    H114745   0.757   0.038   5.335  1.3781 -0.3865  0.6619
 4927TIP3    H214746   0.720  -0.000   5.194 -0.6592  1.1581  0.7332
 4928TIP3   OH214747   6.082   5.299   3.572  0.1875  0.2016 -0.0159
 4928TIP3    H114748   6.065   5.248   3.494  0.4762 -0.5215  0.3870
 4928TIP3    H214749   6.143   5.246   3.623  0.9693  1.2100  0.1310
 4929TIP3   OH214750   5.706   4.963   2.655 -0.2622  0.2253 -0.1862
 4929TIP3    H114751   5.777   4.917   2.610 -1.2091 -1.0740 -0.3850
 4929TIP3    H214752   5.667   5.019   2.588 -0.7261 -0.5952 -0.6052
 4930TIP3   OH214753   4.641   0.626   1.990  0.0530  0.4833  0.2126
 4930TIP3    H114754   4.647   0.672   2.074 -2.1242 -0.7653  1.1380
 4930TIP3    H214755   4.601   0.690   1.931 -3.2204 -0.1524  1.5564
 4931TIP3   OH214756   1.475   2.327   4.961 -0.0911  0.5679  0.3855
 4931TIP3    H114757   1.517   2.283   5.034  0.4628 -0.5297 -0.5733
 4931TIP3    H214758   1.389   2.353   4.994  0.4070  0.6935  1.6175
 4932TIP3   OH214759   4.866   2.427   3.619  0.5514 -0.1699  0.7031
 4932TIP3    H114760   4.882   2.508   3.667  1.0290 -1.4434  2.8416
 4932TIP3    H214761   4.914   2.360   3.669  0.3321 -1.7529 -1.0851
 4933TIP3   OH214762   5.195   6.439   1.813 -0.1946  0.4527 -0.4144
 4933TIP3    H114763   5.134   6.425   1.885  0.0185  2.2725  0.1857
 4933TIP3    H214764   5.165   6.521   1.773  1.4463  1.0539 -0.4945
 4934TIP3   OH214765   4.107   1.651   3.233 -0.1590 -0.4323 -0.2184
 4934TIP3    H114766   4.049   1.585   3.271 -0.4589  0.7112  1.4673
 4934TIP3    H214767   4.061   1.680   3.154 -0.9912 -0.8312  0.1071
 4935TIP3   OH214768   5.401   2.160   5.391  0.0764 -0.0051  0.2168
 4935TIP3    H114769   5.380   2.146   5.484  0.9874  0.2093  0.4664
 4935TIP3    H214770   5.321   2.197   5.354 -1.0000 -1.9921  0.4312
 4936TIP3   OH214771   0.800   5.901   1.420  0.4061  0.2665 -0.1962
 4936TIP3    H114772   0.746   5.953   1.479  0.1296 -0.7496  0.4879
 4936TIP3    H214773   0.770   5.811   1.434  2.2208 -0.3220  0.1571
 4937TIP3   OH214774   4.799   0.967   5.848 -0.1915 -0.0509  0.0282
 4937TIP3    H114775   4.723   1.025   5.855  0.6705  0.8704  2.5570
 4937TIP3    H214776   4.870   1.024   5.820 -0.2095 -0.7871 -1.6694
 4938TIP3   OH214777   2.846   3.898   2.024  0.0263 -0.4520 -0.2856
 4938TIP3    H114778   2.829   3.814   2.068 -1.3346 -0.0484 -0.0211
 4938TIP3    H214779   2.921   3.879   1.967  0.8184 -1.4094  0.9942
 4939TIP3   OH214780   5.142   2.459   5.266 -0.1887  0.1869  0.2723
 4939TIP3    H114781   5.100   2.379   5.297 -0.3092  0.5206  0.9753
 4939TIP3    H214782   5.076   2.500   5.209 -1.0654  0.9874  1.7989
 4940TIP3   OH214783   2.067   6.219   1.059  0.2022 -0.0230  0.3528
 4940TIP3    H114784   2.065   6.245   0.968 -0.6563  4.4298  1.4109
 4940TIP3    H214785   2.157   6.194   1.076  0.1233 -2.1512 -1.8735
 4941TIP3   OH214786   2.865   3.397   0.306 -0.1661  0.0586 -0.0739
 4941TIP3    H114787   2.898   3.334   0.369 -0.1420 -0.5292 -0.6636
 4941TIP3    H214788   2.789   3.355   0.266  0.5367 -0.1064 -1.3023
 4942TIP3   OH214789   3.710   6.374   1.186 -0.1351  0.3805 -0.3518
 4942TIP3    H114790   3.748   6.311   1.124 -1.1369  0.0016 -0.6046
 4942TIP3    H214791   3.679   6.446   1.131  0.8062  1.0102 -0.0835
 4943TIP3   OH214792   1.708   5.236   3.178  0.3806 -0.7616  0.0650
 4943TIP3    H114793   1.781   5.185   3.212  1.7387  0.9919 -0.1020
 4943TIP3    H214794   1.706   5.315   3.232 -2.7302 -1.5923  1.4246
 4944TIP3   OH214795   6.713   3.585   2.348  0.2874 -0.2613 -0.3322
 4944TIP3    H114796   6.748   3.674   2.349 -1.3569  0.4195  0.5887
 4944TIP3    H214797   6.784   3.532   2.313  2.1708  1.0601  1.2408
 4945TIP3   OH214798   3.476   5.754   2.823 -0.3486 -0.1682 -0.0245
 4945TIP3    H114799   3.418   5.814   2.777 -0.1491 -0.6476 -0.9336
 4945TIP3    H214800   3.563   5.772   2.787 -0.2862 -0.9789 -0.3098
 4946TIP3   OH214801   2.701   2.147   4.026  0.1171 -0.3102 -0.4826
 4946TIP3    H114802   2.748   2.229   4.011  0.3668  0.2153  2.5372
 4946TIP3    H214803   2.663   2.125   3.940  0.9467  2.3446 -1.6416
 4947TIP3   OH214804   0.054   0.212   1.694 -0.0191  0.2687  0.3170
 4947TIP3    H114805   0.000   0.283   1.660 -0.1206 -0.2749 -0.6680
 4947TIP3    H214806   0.136   0.219   1.645 -0.4184 -0.9359 -0.5531
 4948TIP3   OH214807   4.708   5.407   4.795 -0.5362  0.6558 -0.7257
 4948TIP3    H114808   4.778   5.471   4.784 -0.9732  1.0030 -1.5936
 4948TIP3    H214809   4.680   5.386   4.706 -2.3239  1.4185 -0.4014
 4949TIP3   OH214810   6.279   4.558   1.126 -0.1054  0.6174  0.5618
 4949TIP3    H114811   6.271   4.463   1.133  0.9339  0.6493  2.8768
 4949TIP3    H214812   6.194   4.592   1.154 -1.1842  0.4315 -2.1091
 4950TIP3   OH214813   4.560   2.670   4.542 -0.1771 -0.7206  0.0686
 4950TIP3    H114814   4.604   2.658   4.625 -0.6892 -2.0152  0.1810
 4950TIP3    H214815   4.506   2.749   4.554  0.9316  0.0054  0.4118
 4951TIP3   OH214816   1.802   2.307   0.762 -0.0576 -0.7983 -0.0248
 4951TIP3    H114817   1.820   2.311   0.856  0.8797 -2.3650 -0.1013
 4951TIP3    H214818   1.796   2.399   0.735 -0.3476 -0.3198  1.5508
 4952TIP3   OH214819   0.699   4.910   2.908 -0.3364  0.0751 -0.5325
 4952TIP3    H114820   0.670   4.995   2.940 -1.2391  0.0074 -1.1280
 4952TIP3    H214821   0.779   4.891   2.957 -0.1259  1.2636 -0.3931
 4953TIP3   OH214822   0.947   0.444   5.103 -0.0535 -0.4889 -0.5548
 4953TIP3    H114823   0.972   0.361   5.063  1.0169 -0.5593  0.2055
 4953TIP3    H214824   0.876   0.421   5.163  0.3693 -0.9071 -0.2028
 4954TIP3   OH214825   3.992   5.486   1.040 -0.0645  0.6970 -0.0842
 4954TIP3    H114826   4.080   5.522   1.052  0.4956 -1.0788  1.5754
 4954TIP3    H214827   4.005   5.392   1.034 -1.6778  0.5358 -2.3294
 4955TIP3   OH214828   1.457   0.166   3.092  0.3212  0.2577  0.0924
 4955TIP3    H114829   1.523   0.120   3.144  1.1689  0.9610 -0.3375
 4955TIP3    H214830   1.376   0.118   3.108  0.8668 -0.4155  0.9002
 4956TIP3   OH214831   0.895   5.544   1.554 -0.1092  0.5936 -0.3570
 4956TIP3    H114832   0.838   5.606   1.507 -0.3471  0.0464 -0.7996
 4956TIP3    H214833   0.978   5.591   1.564 -0.3139  1.0178 -0.6179
 4957TIP3   OH214834   6.395   1.428   4.016 -0.5478 -0.1743 -0.3760
 4957TIP3    H114835   6.455   1.446   4.089 -1.5431 -2.0585  1.0327
 4957TIP3    H214836   6.441   1.458   3.938  2.1224 -1.2271  0.6640
 4958TIP3   OH214837   1.752   1.397   4.697  0.0378 -0.0792  0.5237
 4958TIP3    H114838   1.672   1.375   4.745  0.5397 -0.8525  1.0265
 4958TIP3    H214839   1.771   1.319   4.645 -0.3740  0.6651 -0.7868
 4959TIP3   OH214840   1.020   0.968   1.306  0.3591 -0.3691 -0.0358
 4959TIP3    H114841   1.095   1.024   1.290  0.0179  0.1844  0.2866
 4959TIP3    H214842   1.046   0.913   1.380  0.8279 -0.8945 -0.5817
 4960TIP3   OH214843   5.999   4.484   2.370  0.0986 -0.4244 -0.1241
 4960TIP3    H114844   5.948   4.517   2.296 -1.1310 -0.9616  0.4518
 4960TIP3    H214845   6.078   4.447   2.330  1.0649  2.1973 -0.8773
 4961TIP3   OH214846   6.418   2.604   0.437  0.1008  0.4081  0.0375
 4961TIP3    H114847   6.428   2.668   0.507 -1.1061  0.6168  0.0262
 4961TIP3    H214848   6.384   2.654   0.363 -1.1811 -0.2978  0.1368
 4962TIP3   OH214849   6.696   6.684   1.680  0.2293  0.2707  0.0390
 4962TIP3    H114850   6.762   6.709   1.745 -1.2204  1.7219  1.0367
 4962TIP3    H214851   6.730   6.718   1.597  0.5213  1.4610  0.6223
 4963TIP3   OH214852   2.525   4.417   2.950 -0.8179  0.5494  0.0029
 4963TIP3    H114853   2.516   4.495   2.895  1.7469 -0.7470 -2.5251
 4963TIP3    H214854   2.585   4.444   3.020 -1.5161  1.3431  0.3150
 4964TIP3   OH214855   5.610   1.997   0.036 -0.4461  0.1702 -0.3301
 4964TIP3    H114856   5.685   1.972   0.090  0.1952  1.0583 -0.7746
 4964TIP3    H214857   5.583   2.082   0.071 -0.8311  0.1587 -0.5936
 4965TIP3   OH214858   6.239   4.633   1.826  0.0424  0.1169  0.2249
 4965TIP3    H114859   6.286   4.691   1.766  0.0531  0.4382  0.5475
 4965TIP3    H214860   6.196   4.691   1.888  1.1550 -0.2454  1.3720
 4966TIP3   OH214861   7.047   5.572   4.048 -0.3466  0.1175  0.3062
 4966TIP3    H114862   7.051   5.613   4.135 -1.2054  0.0409  0.3890
 4966TIP3    H214863   6.968   5.520   4.050 -0.4781  0.2681 -0.5998
 4967TIP3   OH214864   0.689   6.578   5.729 -0.0646  0.8483 -0.1759
 4967TIP3    H114865   0.689   6.638   5.654 -0.0504  0.2621 -0.6509
 4967TIP3    H214866   0.624   6.512   5.707 -0.8877  1.2897  0.8459
 4968TIP3   OH214867   0.746   4.826   3.888 -0.7550  0.1180  0.9973
 4968TIP3    H114868   0.759   4.869   3.973 -0.6112 -0.4696  1.2811
 4968TIP3    H214869   0.820   4.766   3.881 -1.4549 -0.7765  1.0522
 4969TIP3   OH214870   1.855   5.460   2.155  0.8852 -0.2956  0.0890
 4969TIP3    H114871   1.870   5.388   2.216  1.9241  0.1461  0.3864
 4969TIP3    H214872   1.943   5.495   2.138  0.8094 -1.2013 -2.6441
 4970TIP3   OH214873   1.822   0.153   5.624  0.2250  0.5487  0.0049
 4970TIP3    H114874   1.845   0.233   5.577  2.2051 -0.6693 -1.2504
 4970TIP3    H214875   1.903   0.127   5.667 -1.0975  0.6983  2.8505
 4971TIP3   OH214876   2.649   1.422   4.045  0.3026  0.6430 -0.7627
 4971TIP3    H114877   2.583   1.377   4.098  0.1632  0.7373 -0.8561
 4971TIP3    H214878   2.730   1.411   4.094  0.3489 -0.0843 -0.9995
 4972TIP3   OH214879   0.638   1.625   2.756  1.1475  0.6461 -0.1285
 4972TIP3    H114880   0.639   1.536   2.722  1.0049  0.2070  0.9880
 4972TIP3    H214881   0.697   1.673   2.699  0.8103 -0.0319 -1.0709
 4973TIP3   OH214882   5.502   0.636   2.299 -0.0145  0.3238 -0.2435
 4973TIP3    H114883   5.479   0.551   2.337  2.4642 -0.8195 -1.0451
 4973TIP3    H214884   5.479   0.628   2.207 -0.1773  0.7048 -0.2380
 4974TIP3   OH214885   1.424   2.418   4.360  0.3268  0.2312 -0.2457
 4974TIP3    H114886   1.353   2.482   4.357 -0.5529 -0.7025 -0.0268
 4974TIP3    H214887   1.449   2.415   4.453  0.4211  0.3188 -0.2684
 4975TIP3   OH214888   0.527   1.115   2.932  0.1901 -0.3034  0.3664
 4975TIP3    H114889   0.479   1.044   2.975 -0.1168  1.1224  2.5531
 4975TIP3    H214890   0.572   1.073   2.859  0.4921 -2.8716  1.9008
 4976TIP3   OH214891   3.307   1.332   3.362 -0.1262  0.0071  0.3590
 4976TIP3    H114892   3.261   1.398   3.414  1.2567 -0.3354  2.1182
 4976TIP3    H214893   3.269   1.248   3.390 -0.4115 -0.0865 -0.3012
 4977TIP3   OH214894   4.046   4.243   3.635 -0.5980  0.4288 -0.1979
 4977TIP3    H114895   4.056   4.302   3.561 -1.6453 -1.1860 -1.7160
 4977TIP3    H214896   3.973   4.186   3.611  2.0594 -3.3707 -0.2114
 4978TIP3   OH214897   4.888   4.696   0.773  0.4598  0.0561  0.3753
 4978TIP3    H114898   4.962   4.677   0.830  0.5042  1.0266  0.6565
 4978TIP3    H214899   4.862   4.786   0.796 -1.2751 -0.5174  0.7986
 4979TIP3   OH214900   1.357   2.997   3.172  0.1579 -0.2443  0.6783
 4979TIP3    H114901   1.423   3.033   3.113 -0.4545 -0.0386  0.1072
 4979TIP3    H214902   1.302   3.072   3.195 -0.4564 -0.6008  0.3774
 4980TIP3   OH214903   2.957   1.827   0.930  0.4348  0.3657  0.3952
 4980TIP3    H114904   2.900   1.863   0.997  1.3454  0.8296  0.9510
 4980TIP3    H214905   2.946   1.886   0.855  0.6149  0.7912  0.7004
 4981TIP3   OH214906   1.175   2.595   3.262 -0.2799 -0.3417 -0.7269
 4981TIP3    H114907   1.090   2.592   3.307  0.0471 -0.3260 -0.0975
 4981TIP3    H214908   1.155   2.632   3.176 -0.7660  0.6161 -0.2200
 4982TIP3   OH214909   1.945   5.163   2.865  0.0017  0.5693  0.1439
 4982TIP3    H114910   1.908   5.250   2.881  0.2967  0.8062 -0.4321
 4982TIP3    H214911   2.006   5.176   2.793 -2.6573 -0.7293 -2.5781
 4983TIP3   OH214912   3.024   3.573   5.282 -0.7506  0.2494 -0.9285
 4983TIP3    H114913   2.980   3.635   5.341 -1.1840 -0.4494 -0.4963
 4983TIP3    H214914   3.068   3.512   5.341 -1.0321 -0.3443 -1.3266
 4984TIP3   OH214915   2.110   1.641   2.613  0.0091  0.4710 -0.4692
 4984TIP3    H114916   2.125   1.720   2.664 -1.6005  1.2030 -1.0331
 4984TIP3    H214917   2.193   1.593   2.615  0.2822  0.9562  1.9467
 4985TIP3   OH214918   2.952  -0.023   1.718 -0.4304  0.4439  0.2675
 4985TIP3    H114919   2.983   0.048   1.663 -0.8182  0.6398  0.2966
 4985TIP3    H214920   2.856  -0.014   1.717 -0.5429 -0.5549 -0.3903
 4986TIP3   OH214921   2.096   0.135   5.668  0.0245 -0.1063  0.4408
 4986TIP3    H114922   2.163   0.136   5.599 -0.0614  0.1634  0.3609
 4986TIP3    H214923   2.131   0.193   5.735 -0.1940  0.1394  0.3398
 4987TIP3   OH214924   1.850   2.580   0.967 -0.5745  0.4585  0.3341
 4987TIP3    H114925   1.785   2.541   0.909  1.2354  2.1660 -3.2052
 4987TIP3    H214926   1.804   2.652   1.011 -1.7884 -0.3243  0.3961
 4988TIP3   OH214927   5.943   5.790   3.068 -0.0243 -0.3901  0.0307
 4988TIP3    H114928   5.967   5.827   3.153  1.4565 -0.8975 -0.1510
 4988TIP3    H214929   5.982   5.849   3.004 -1.5288  0.2587 -0.3515
 4989TIP3   OH214930   0.875   6.449   5.421 -0.5055 -0.2087 -0.2964
 4989TIP3    H114931   0.881   6.487   5.333 -1.1264  0.2379 -0.1470
 4989TIP3    H214932   0.875   6.524   5.480  0.0873 -0.5173  0.1041
 4990TIP3   OH214933   4.083   2.104   4.114 -0.5905  0.7119  0.2764
 4990TIP3    H114934   4.120   2.038   4.054  0.4040  1.5360 -0.0572
 4990TIP3    H214935   3.998   2.069   4.139 -0.5618 -0.1715 -0.7765
 4991TIP3   OH214936   1.408   2.807  -0.008 -0.5385 -0.3284  0.0799
 4991TIP3    H114937   1.499   2.783  -0.023 -0.8126 -0.1592 -2.2583
 4991TIP3    H214938   1.412   2.892   0.035  0.4545  0.2954 -1.1784
 4992TIP3   OH214939   2.878   2.235   0.548 -0.0023  0.0771  0.0074
 4992TIP3    H114940   2.828   2.165   0.590 -1.4804 -0.6128 -2.6879
 4992TIP3    H214941   2.817   2.309   0.545 -0.1595 -0.0825 -1.3791
 4993TIP3   OH214942   2.852   4.245   4.420  0.2505 -0.0889 -0.0443
 4993TIP3    H114943   2.895   4.243   4.334  1.0514  2.4445  0.2134
 4993TIP3    H214944   2.822   4.335   4.429 -1.3750 -0.7511  1.6338
 4994TIP3   OH214945   6.341   5.808   5.390  0.4045  0.5016  0.1004
 4994TIP3    H114946   6.265   5.844   5.344  0.0063  0.0508  0.3992
 4994TIP3    H214947   6.340   5.715   5.369  0.9296  0.5094  0.0311
 4995TIP3   OH214948   4.049   0.397   0.800 -0.7938  0.0400 -0.7628
 4995TIP3    H114949   4.105   0.474   0.812  0.7466 -0.9652 -1.2243
 4995TIP3    H214950   3.961   0.428   0.821  0.2128  1.0580  2.5121
 4996TIP3   OH214951   6.858   4.336   3.803 -0.2375 -0.1116 -0.3483
 4996TIP3    H114952   6.949   4.306   3.803  0.4425  1.7780  1.2013
 4996TIP3    H214953   6.824   4.309   3.717  0.7934 -3.5716  0.1630
 4997TIP3   OH214954   6.405   2.385   1.020  0.5160 -0.2485  0.1493
 4997TIP3    H114955   6.367   2.466   1.052 -0.5764 -1.0070  0.8356
 4997TIP3    H214956   6.372   2.376   0.931  4.4863  2.4652 -1.8942
 4998TIP3   OH214957   4.599   1.709   4.832 -0.0909  0.2600  0.0657
 4998TIP3    H114958   4.547   1.776   4.787  0.8188  0.2717 -1.0208
 4998TIP3    H214959   4.667   1.759   4.878  0.7261  0.0991 -0.9299
 4999TIP3   OH214960   1.862   0.290   3.140 -0.6292 -0.1091 -0.7307
 4999TIP3    H114961   1.909   0.326   3.215 -1.2701 -1.6001  0.4517
 4999TIP3    H214962   1.781   0.340   3.136 -1.6996 -1.5549  1.1496
 5000TIP3   OH214963   3.211   3.434   0.888 -0.2308 -0.7866 -0.3228
 5000TIP3    H114964   3.204   3.343   0.918  1.6066 -0.9803 -0.3694
 5000TIP3    H214965   3.167   3.434   0.803 -2.8556 -0.9035  0.9148
 5001TIP3   OH214966   2.020   4.371   3.806  0.1999 -0.3692  0.0588
 5001TIP3    H114967   2.019   4.398   3.714 -0.1036  0.7882  0.3807
 5001TIP3    H214968   2.085   4.301   3.810  1.0975  0.3866 -0.8234
 5002TIP3   OH214969   3.564   3.216   3.671 -0.7401  0.7054 -0.2137
 5002TIP3    H114970   3.574   3.201   3.577  0.6732  0.6048 -0.0655
 5002TIP3    H214971   3.469   3.208   3.686 -0.8633 -0.5417 -1.4121
 5003TIP3   OH214972   6.378   2.548   3.237  0.7418 -0.4819 -0.1213
 5003TIP3    H114973   6.408   2.619   3.181  0.3301 -0.7097 -0.6548
 5003TIP3    H214974   6.427   2.471   3.207 -0.5730 -0.9319 -1.2431
 5004TIP3   OH214975   3.387   2.649   1.319 -0.7713 -0.1839  0.0985
 5004TIP3    H114976   3.411   2.665   1.228 -0.2975  0.1527  0.2800
 5004TIP3    H214977   3.428   2.721   1.368  0.3147 -1.2162  0.7648
 5005TIP3   OH214978   2.747   5.828   1.033  0.1472  0.4475 -0.2224
 5005TIP3    H114979   2.840   5.832   1.014  0.1028  0.1165 -0.5057
 5005TIP3    H214980   2.707   5.793   0.953 -0.5153  2.8831 -1.0249
 5006TIP3   OH214981   0.718   4.064   5.421 -0.5930 -1.0826  0.2360
 5006TIP3    H114982   0.625   4.058   5.443 -0.1379  1.1577  3.5451
 5006TIP3    H214983   0.720   4.100   5.333 -2.9698  1.7488  1.1926
 5007TIP3   OH214984   6.175   0.869   2.456 -0.5819 -0.0617 -0.6369
 5007TIP3    H114985   6.094   0.911   2.485 -0.9543  0.3788 -2.2085
 5007TIP3    H214986   6.157   0.841   2.366  1.2600  0.8114 -1.3341
 5008TIP3   OH214987   6.407   1.710   0.759 -0.2035 -0.3089  0.4495
 5008TIP3    H114988   6.365   1.659   0.829 -0.1434  1.1706  1.6193
 5008TIP3    H214989   6.467   1.769   0.806 -1.4480  1.9691 -0.6786
 5009TIP3   OH214990   0.001   5.012   3.415 -0.0186  0.8798 -0.1869
 5009TIP3    H114991   0.011   4.947   3.485  1.7285  0.6109 -0.6435
 5009TIP3    H214992   0.015   5.096   3.459  0.7247  0.7370 -0.1472
 5010TIP3   OH214993   0.619   2.409   4.209  0.9449 -0.8499  0.4793
 5010TIP3    H114994   0.592   2.348   4.141  0.3944  1.3424 -1.3957
 5010TIP3    H214995   0.699   2.449   4.176  0.0822  1.0479  0.5584
 5011TIP3   OH214996   0.539   4.883   5.183  0.1356  0.6196  0.0594
 5011TIP3    H114997   0.454   4.896   5.141  0.5235 -0.6022 -1.1686
 5011TIP3    H214998   0.591   4.959   5.156  0.0889  0.3040 -0.9281
 5012TIP3   OH214999   5.565   5.822   4.760 -0.2366 -0.2218  0.4733
 5012TIP3    H115000   5.476   5.836   4.791  0.0368  0.8726  0.8344
 5012TIP3    H215001   5.577   5.727   4.760 -1.5024 -0.3911  0.0993
 5013TIP3   OH215002   3.434   2.312   0.498  0.0741  0.2361  0.0513
 5013TIP3    H115003   3.422   2.365   0.419 -0.8151 -0.6727 -0.4596
 5013TIP3    H215004   3.350   2.318   0.543 -0.3455 -1.3628 -0.4410
 5014TIP3   OH215005   3.425   3.783   5.244  0.1676 -0.1139 -0.0959
 5014TIP3    H115006   3.352   3.745   5.196  0.8510 -1.1042 -0.3875
 5014TIP3    H215007   3.460   3.850   5.186 -0.8911  0.8193  0.3131
 5015TIP3   OH215008   3.956   3.571   4.333 -0.0011  0.6588  0.2310
 5015TIP3    H115009   4.003   3.588   4.252  0.1279 -1.6343 -0.2406
 5015TIP3    H215010   3.972   3.649   4.387  0.6023  1.8559 -1.5904
 5016TIP3   OH215011   6.467   4.164   3.692 -0.5501 -0.2031  0.4454
 5016TIP3    H115012   6.534   4.183   3.627 -0.8756 -1.3141 -0.2449
 5016TIP3    H215013   6.385   4.195   3.652 -0.3676  2.1878  1.7457
 5017TIP3   OH215014   1.291   1.550   4.927  0.1066 -0.1902  0.1904
 5017TIP3    H115015   1.357   1.617   4.908  1.3573 -1.0542  1.3167
 5017TIP3    H215016   1.220   1.568   4.866  1.1643  1.0982 -0.7041
 5018TIP3   OH215017   6.286   2.423   0.776  0.5754 -0.1301 -0.2686
 5018TIP3    H115018   6.296   2.515   0.799  1.8127 -0.0934 -0.8605
 5018TIP3    H215019   6.199   2.418   0.737  0.8814  1.0163 -1.1784
 5019TIP3   OH215020   5.941   6.156   4.791  0.6878 -0.4167 -0.2229
 5019TIP3    H115021   5.919   6.095   4.720  1.8174  1.4505 -2.3254
 5019TIP3    H215022   5.857   6.193   4.818  0.1771 -1.5969 -0.1270
 5020TIP3   OH215023   1.889   0.924   4.079 -0.6289 -0.2202  0.0241
 5020TIP3    H115024   1.847   1.004   4.111 -2.8646 -1.4021  0.2824
 5020TIP3    H215025   1.886   0.932   3.983 -1.5432 -0.3126  0.0377
 5021TIP3   OH215026   3.011   2.870   4.438  0.0639 -0.2172 -0.2093
 5021TIP3    H115027   3.011   2.862   4.342 -1.2665  0.3101 -0.2756
 5021TIP3    H215028   2.939   2.813   4.467 -2.4047  2.8095  0.1026
 5022TIP3   OH215029   1.650   1.097   2.537 -0.1299  0.0477  0.1415
 5022TIP3    H115030   1.559   1.096   2.507 -0.0720 -0.8772 -0.0408
 5022TIP3    H215031   1.674   1.190   2.538 -1.3759  0.3814  1.1397
 5023TIP3   OH215032   2.666   0.297   0.809  0.2028 -0.3766 -0.1062
 5023TIP3    H115033   2.668   0.201   0.798  1.4433 -0.7935  2.8493
 5023TIP3    H215034   2.675   0.331   0.720  0.1178 -2.9798 -1.2282
 5024TIP3   OH215035   5.705   4.647   5.767 -0.2340 -0.3503  0.0921
 5024TIP3    H115036   5.652   4.717   5.728 -0.6736 -1.0625 -0.6385
 5024TIP3    H215037   5.643   4.599   5.822 -0.0342 -0.4117  0.2628
 5025TIP3   OH215038   4.387   6.772   4.351  0.2731 -0.4072 -0.1730
 5025TIP3    H115039   4.335   6.784   4.431  0.1409 -1.1021 -0.1465
 5025TIP3    H215040   4.434   6.690   4.366  0.6052 -0.2978 -0.6163
 5026TIP3   OH215041   6.913   1.129   0.136  0.0647  0.1004  0.6202
 5026TIP3    H115042   6.914   1.079   0.054 -0.2287 -0.0259  0.6932
 5026TIP3    H215043   6.845   1.195   0.122  0.9827  1.0006  0.2169
 5027TIP3   OH215044   4.183   1.227   2.076  0.1022 -0.0748  0.4837
 5027TIP3    H115045   4.197   1.292   2.145  2.4919  0.7946 -0.7106
 5027TIP3    H215046   4.127   1.161   2.117  1.5922  0.2769  3.3643
 5028TIP3   OH215047   0.587   3.462   2.667  0.2849  0.4204  0.1053
 5028TIP3    H115048   0.626   3.379   2.692 -0.1532  0.5789  1.3371
 5028TIP3    H215049   0.643   3.493   2.595  0.6904 -0.7271 -0.0948
 5029TIP3   OH215050   1.296   6.740   4.126  0.4598 -0.2296 -0.4322
 5029TIP3    H115051   1.296   6.679   4.053  2.1254 -0.6322 -0.1313
 5029TIP3    H215052   1.338   6.692   4.198  0.2972  0.7007  0.3092
 5030TIP3   OH215053   3.176   0.073   4.308  0.6210  0.0916  0.1131
 5030TIP3    H115054   3.104   0.010   4.309  2.5086 -2.2023 -0.1491
 5030TIP3    H215055   3.211   0.071   4.397  1.8857 -0.7045 -0.3880
 5031TIP3   OH215056   1.041   3.558   3.029 -0.3666  0.4103  0.1533
 5031TIP3    H115057   1.101   3.613   3.081  0.5500  1.2183 -1.6772
 5031TIP3    H215058   1.015   3.488   3.090  1.9407  0.3839  1.2509
 5032TIP3   OH215059   3.948   4.541   1.980 -0.1635 -0.4408  0.0610
 5032TIP3    H115060   3.921   4.537   1.888 -0.7322  1.1656  0.1261
 5032TIP3    H215061   4.044   4.540   1.976 -0.1793 -0.1497 -0.5675
 5033TIP3   OH215062   7.064   3.535   5.426 -0.1640  0.0149  0.2385
 5033TIP3    H115063   6.972   3.562   5.433  0.1861  0.9978  1.2943
 5033TIP3    H215064   7.105   3.605   5.375  0.2290  0.1551  0.7459
 5034TIP3   OH215065   3.780   6.791   3.856 -0.5873  0.4232  0.5770
 5034TIP3    H115066   3.799   6.728   3.925 -2.1235 -1.3745 -0.5324
 5034TIP3    H215067   3.693   6.825   3.878 -0.9116  0.1409 -0.2079
 5035TIP3   OH215068   2.552   4.365   1.012  0.0830 -0.4472 -0.2127
 5035TIP3    H115069   2.527   4.358   0.920  0.3355 -0.7493 -0.2619
 5035TIP3    H215070   2.534   4.456   1.035 -0.9099 -0.6164 -0.2804
 5036TIP3   OH215071   3.577   4.114   1.189  0.1651  0.1179 -0.2205
 5036TIP3    H115072   3.594   4.021   1.175 -1.4713 -0.0421 -1.5571
 5036TIP3    H215073   3.616   4.133   1.274  1.6723 -1.4612 -0.4922
 5037TIP3   OH215074   1.687   6.049   1.922  0.0712  0.1690  0.0241
 5037TIP3    H115075   1.764   6.101   1.942  0.3530  0.2803 -1.2502
 5037TIP3    H215076   1.721   5.961   1.904 -0.1430  0.1176 -0.1405
 5038TIP3   OH215077   0.144   5.770   5.138 -0.1193 -0.2247 -0.5761
 5038TIP3    H115078   0.217   5.791   5.079  0.8951  0.6174  0.9017
 5038TIP3    H215079   0.115   5.683   5.111  3.5348 -2.0494  0.7215
 5039TIP3   OH215080   1.911   5.781   3.665  0.4495  0.0007 -0.4663
 5039TIP3    H115081   1.887   5.736   3.746 -0.2769 -0.1016 -0.7315
 5039TIP3    H215082   1.992   5.738   3.637  1.0589  0.4471  0.5186
 5040TIP3   OH215083   4.046   3.886   2.749  0.6393  0.0571  0.0988
 5040TIP3    H115084   3.974   3.927   2.797  1.1327 -1.3804  2.1693
 5040TIP3    H215085   4.041   3.794   2.771  1.5034 -0.5392 -1.9078
 5041TIP3   OH215086   6.952   5.584   2.840  0.1380 -0.2796 -0.2700
 5041TIP3    H115087   6.984   5.593   2.750  0.4975 -0.1187 -0.1240
 5041TIP3    H215088   6.969   5.668   2.881  0.7878 -0.6383  0.2117
 5042TIP3   OH215089   5.961   4.169   2.642 -0.0104  0.3559 -0.2328
 5042TIP3    H115090   5.969   4.214   2.558  1.5847  0.3935 -0.0961
 5042TIP3    H215091   6.028   4.209   2.697 -0.4357 -0.2837  0.7755
 5043TIP3   OH215092   0.961   5.378   5.132  0.1465  0.1402  0.0180
 5043TIP3    H115093   1.019   5.332   5.193 -2.0279 -2.8719  0.0539
 5043TIP3    H215094   0.933   5.456   5.180  2.1349  0.3706  0.9280
 5044TIP3   OH215095   1.385   3.537   0.686  0.2254 -0.3111  0.7801
 5044TIP3    H115096   1.414   3.620   0.647  0.9123  0.2321  2.3765
 5044TIP3    H215097   1.423   3.470   0.630  0.1137  0.4281 -0.2212
 5045TIP3   OH215098   3.758   6.193   5.477  0.2981 -0.1915 -0.8032
 5045TIP3    H115099   3.765   6.168   5.569  0.7491 -1.3601 -1.1305
 5045TIP3    H215100   3.816   6.268   5.467  0.5749 -0.3290 -0.2301
 5046TIP3   OH215101   2.891   6.244   5.380  0.0229 -0.6175  0.2738
 5046TIP3    H115102   2.909   6.170   5.437 -0.5286 -2.8954 -2.3244
 5046TIP3    H215103   2.978   6.272   5.349  0.1730 -0.7762  0.5465
 5047TIP3   OH215104   5.054   6.791   4.339 -0.1511  0.4812 -0.1813
 5047TIP3    H115105   5.097   6.707   4.356 -1.1614  0.2075  1.1610
 5047TIP3    H215106   5.060   6.838   4.422 -0.5152  1.3301 -0.6204
 5048TIP3   OH215107   6.254   1.709   4.922  0.2930  0.5829  0.3778
 5048TIP3    H115108   6.338   1.735   4.961  0.7236 -0.5986  0.2592
 5048TIP3    H215109   6.278   1.650   4.851 -0.5593  1.6946 -0.8813
 5049TIP3   OH215110   2.105   6.707   3.512  0.0759  0.4144  0.3377
 5049TIP3    H115111   2.095   6.616   3.541 -0.7871  0.2124 -0.5543
 5049TIP3    H215112   2.186   6.737   3.554 -0.7697 -0.0547  2.4259
 5050TIP3   OH215113   5.891   0.730   5.650 -0.2622 -0.3071 -0.4010
 5050TIP3    H115114   5.833   0.659   5.622 -1.1567 -0.9229  2.5959
 5050TIP3    H215115   5.834   0.807   5.657 -0.4422 -0.5450  1.0850
 5051TIP3   OH215116   6.540   1.899   5.706  0.6340 -0.1674  0.1858
 5051TIP3    H115117   6.588   1.845   5.644  4.2388 -0.2161  2.7069
 5051TIP3    H215118   6.536   1.985   5.664  1.1575 -0.6585 -0.9202
 5052TIP3   OH215119   5.513   4.440   4.254  0.2380 -0.1047  0.5012
 5052TIP3    H115120   5.601   4.477   4.260 -0.4252  1.6897 -0.2568
 5052TIP3    H215121   5.517   4.378   4.182  1.0994 -0.7582  1.0923
 5053TIP3   OH215122   0.937   0.238   4.247  0.0258  0.2818  0.8713
 5053TIP3    H115123   0.858   0.216   4.198  0.3824  3.2587 -1.3056
 5053TIP3    H215124   0.980   0.153   4.263 -0.8990 -1.0580 -2.7199
 5054TIP3   OH215125   4.131   3.011   0.832  0.3917  0.3429 -0.0647
 5054TIP3    H115126   4.148   3.099   0.798 -1.6759  0.5660 -0.6479
 5054TIP3    H215127   4.036   3.008   0.845  0.1079 -2.4122 -1.8964
 5055TIP3   OH215128   7.180   6.704   3.038  0.1315  0.0698 -0.1034
 5055TIP3    H115129   7.174   6.635   2.971 -0.4585 -1.7204  1.6731
 5055TIP3    H215130   7.244   6.670   3.101 -0.5768  0.8866  1.1016
 5056TIP3   OH215131   4.487   6.037   4.886  0.1440  0.2008 -0.1051
 5056TIP3    H115132   4.557   5.983   4.923 -1.1272 -1.5084 -0.0816
 5056TIP3    H215133   4.419   5.975   4.860 -1.9503  1.8519  1.0636
 5057TIP3   OH215134   6.385   0.128   0.323 -0.5182 -0.1968  0.2043
 5057TIP3    H115135   6.297   0.114   0.357 -0.3545  0.6834  0.9948
 5057TIP3    H215136   6.439   0.061   0.366 -0.4640  0.4067  1.0904
 5058TIP3   OH215137   5.646   2.955   2.837 -0.2519 -0.0221 -0.1806
 5058TIP3    H115138   5.641   3.036   2.786  0.7094  1.2230  1.6379
 5058TIP3    H215139   5.584   2.896   2.793 -0.8784  1.6259 -1.6291
 5059TIP3   OH215140   4.655   3.077   0.333  0.1826 -0.2253 -0.1693
 5059TIP3    H115141   4.736   3.078   0.283 -0.7712  1.2061 -1.8032
 5059TIP3    H215142   4.679   3.110   0.419  1.4230 -0.3667 -0.4497
 5060TIP3   OH215143   3.962   6.612   0.306 -0.4003 -0.4408  0.2120
 5060TIP3    H115144   3.875   6.632   0.339 -0.2786  1.0411 -0.2745
 5060TIP3    H215145   3.949   6.587   0.215 -0.2929  0.0445  0.0626
 5061TIP3   OH215146   4.907   5.658   2.786 -0.0014 -0.4021 -0.6346
 5061TIP3    H115147   4.854   5.736   2.803 -0.7069 -1.3441  2.0746
 5061TIP3    H215148   4.995   5.682   2.815 -0.2653 -0.6199  0.4136
 5062TIP3   OH215149   4.891   5.253   3.053  0.4788  0.0759  0.6501
 5062TIP3    H115150   4.812   5.202   3.071  0.5971  0.4550  2.4260
 5062TIP3    H215151   4.882   5.279   2.962 -2.2159  1.3381  1.1549
 5063TIP3   OH215152   0.398   5.528   3.006  0.0731 -0.0778 -0.4053
 5063TIP3    H115153   0.329   5.543   3.071  0.8638 -0.0480  0.4492
 5063TIP3    H215154   0.459   5.601   3.019  0.9456 -0.8150 -0.2204
 5064TIP3   OH215155   6.235   0.345   2.852  0.2733 -0.3734  0.2623
 5064TIP3    H115156   6.320   0.349   2.895 -0.2224 -1.2235  1.3673
 5064TIP3    H215157   6.236   0.262   2.803 -0.0676 -0.5913  0.6179
 5065TIP3   OH215158   5.241   3.857   3.085 -0.3156 -0.2415 -0.1459
 5065TIP3    H115159   5.279   3.810   3.011 -1.0992  0.9213 -1.3265
 5065TIP3    H215160   5.146   3.844   3.075 -0.4527  0.3412  0.3621
 5066TIP3   OH215161   4.915   0.528   2.338 -0.5570  0.1005 -0.0653
 5066TIP3    H115162   4.823   0.504   2.337  0.1365 -3.0376 -0.1811
 5066TIP3    H215163   4.950   0.496   2.254  0.6083  1.4912 -0.1606
 5067TIP3   OH215164   3.935   2.960   2.392 -0.2088 -0.0065 -0.7063
 5067TIP3    H115165   4.011   2.909   2.364 -0.2683 -0.3725 -0.2197
 5067TIP3    H215166   3.898   2.910   2.465  0.0183  0.9911  0.1075
 5068TIP3   OH215167   6.175   3.974   3.353 -0.3906 -0.2448 -0.8988
 5068TIP3    H115168   6.258   3.984   3.401 -0.6817  0.7021 -0.5756
 5068TIP3    H215169   6.159   3.879   3.352  0.3835 -0.3887 -0.4338
 5069TIP3   OH215170   1.770   4.817   3.575 -0.0855  0.9208  0.2319
 5069TIP3    H115171   1.863   4.827   3.596  0.5542 -1.0917 -1.2993
 5069TIP3    H215172   1.767   4.815   3.479 -1.7220  1.0549  0.2523
 5070TIP3   OH215173   7.057   0.845   4.144  0.0651  0.1448  0.0826
 5070TIP3    H115174   7.011   0.789   4.082  0.5785 -0.7008  0.4385
 5070TIP3    H215175   7.013   0.930   4.138 -0.9036 -0.3677 -0.2771
 5071TIP3   OH215176   0.677   1.873   0.506  0.4693 -0.4311  0.1640
 5071TIP3    H115177   0.702   1.820   0.430 -0.0276 -0.8852  0.3140
 5071TIP3    H215178   0.752   1.930   0.520  0.8141 -0.7567 -0.3020
 5072TIP3   OH215179  -0.003   4.653   0.101 -0.0171 -0.0656  0.5394
 5072TIP3    H115180   0.003   4.592   0.175  0.4328 -2.4529 -1.3373
 5072TIP3    H215181   0.086   4.682   0.087  0.0772 -0.4497  0.3120
 5073TIP3   OH215182   2.157   5.164   0.815  0.1639  0.0390 -0.0511
 5073TIP3    H115183   2.172   5.070   0.806 -0.6579 -0.1905  0.8802
 5073TIP3    H215184   2.242   5.203   0.795  1.2419 -1.0542  2.1098
 5074TIP3   OH215185   2.627   0.552   3.192 -0.1659  0.0200 -0.7937
 5074TIP3    H115186   2.698   0.496   3.161  0.1861  0.3379 -0.5737
 5074TIP3    H215187   2.613   0.614   3.121  0.6980  0.8012 -0.2949
 5075TIP3   OH215188   6.989   6.396   5.064 -0.3152 -0.0338  0.4484
 5075TIP3    H115189   6.949   6.346   4.992 -1.0770  0.0680  0.7896
 5075TIP3    H215190   6.949   6.360   5.143  0.9782 -0.5647  0.8773
 5076TIP3   OH215191   4.591   2.277   5.369 -0.4793 -0.1963  0.5111
 5076TIP3    H115192   4.664   2.309   5.423 -1.2846  2.5975  0.1002
 5076TIP3    H215193   4.633   2.248   5.288  0.3660 -0.8141  1.1416
 5077TIP3   OH215194   2.146   3.059   3.236 -0.2447  0.3113 -0.0591
 5077TIP3    H115195   2.123   3.023   3.322  1.3758  1.2498  0.8058
 5077TIP3    H215196   2.234   3.027   3.219 -0.5880  0.0481 -1.4492
 5078TIP3   OH215197   6.580   3.755   1.026  0.0297 -0.4690  0.0930
 5078TIP3    H115198   6.593   3.743   0.932  2.3517  0.5941  0.2094
 5078TIP3    H215199   6.538   3.841   1.034  0.4000 -0.2805  0.0402
 5079TIP3   OH215200   4.183   0.764   5.518 -0.0991  0.3431 -0.4304
 5079TIP3    H115201   4.260   0.729   5.563 -0.2170  0.5335 -0.0754
 5079TIP3    H215202   4.180   0.716   5.435 -0.0010 -0.1703 -0.1467
 5080TIP3   OH215203   4.642   0.172   1.640 -0.6604 -0.5574  0.1473
 5080TIP3    H115204   4.550   0.179   1.615 -0.4581 -2.6861 -1.5295
 5080TIP3    H215205   4.672   0.262   1.650 -3.2776  0.1929  2.3201
 5081TIP3   OH215206   5.204   5.019   0.346  0.8488  0.0420 -0.0496
 5081TIP3    H115207   5.265   4.978   0.407  0.4836  0.2091  0.4266
 5081TIP3    H215208   5.249   5.013   0.261 -0.0430 -3.2440 -0.4285
 5082TIP3   OH215209   4.865   5.706   5.042  0.3032 -0.3724 -0.0983
 5082TIP3    H115210   4.902   5.682   5.127  1.5600 -2.4178 -1.1313
 5082TIP3    H215211   4.940   5.738   4.992 -0.4492  0.9222 -0.4345
 5083TIP3   OH215212   0.428   3.799   5.382 -0.2567  0.2864 -0.0994
 5083TIP3    H115213   0.459   3.817   5.293 -2.6713 -0.4923 -1.1833
 5083TIP3    H215214   0.376   3.719   5.373 -0.8835  0.4198  1.9540
 5084TIP3   OH215215   4.021   3.724   3.204  0.1222 -0.2038 -0.4459
 5084TIP3    H115216   4.106   3.768   3.211  0.2848 -0.6720  0.5925
 5084TIP3    H215217   4.010   3.709   3.110  0.5928  1.0040 -0.7206
 5085TIP3   OH215218   6.969   3.748   2.578 -0.7070 -1.0025 -0.2144
 5085TIP3    H115219   7.050   3.796   2.559 -1.1808  1.0846  2.4720
 5085TIP3    H215220   6.994   3.656   2.571  1.6727 -0.4097 -0.3392
 5086TIP3   OH215221   4.769   5.672   2.502  0.5163 -0.3632  0.5679
 5086TIP3    H115222   4.710   5.600   2.481  1.3728 -1.3842  1.5248
 5086TIP3    H215223   4.799   5.654   2.591  2.0439  0.2467  0.2227
 5087TIP3   OH215224   0.518   0.763   5.639  0.3049  0.4811 -0.1939
 5087TIP3    H115225   0.594   0.714   5.672 -1.7759 -1.9981  1.3405
 5087TIP3    H215226   0.522   0.752   5.544 -0.1939 -3.1792  0.0459
 5088TIP3   OH215227   2.653   1.711   3.119  0.0227  0.0927 -0.3004
 5088TIP3    H115228   2.625   1.625   3.152  1.1888 -0.6015 -1.0489
 5088TIP3    H215229   2.676   1.760   3.197 -1.8366  0.1835  0.2322
 5089TIP3   OH215230   4.180   3.673   0.245 -0.0856 -0.0236  0.1714
 5089TIP3    H115231   4.209   3.698   0.157  0.1364 -0.6085  0.0733
 5089TIP3    H215232   4.247   3.611   0.276  1.2081  2.0230  1.7312
 5090TIP3   OH215233   4.346   1.261   3.034 -0.3863  0.1189  0.6169
 5090TIP3    H115234   4.339   1.291   3.125 -0.0642 -1.5059  1.1966
 5090TIP3    H215235   4.434   1.225   3.027 -0.7714 -0.7134 -0.0471
 5091TIP3   OH215236   4.332   3.916   2.290 -0.6582 -0.2435  0.4840
 5091TIP3    H115237   4.266   3.959   2.235 -0.8087  0.3767  1.1287
 5091TIP3    H215238   4.297   3.923   2.379  1.5950  2.8099  1.2791
 5092TIP3   OH215239   1.434   3.692   4.143  0.5730 -0.0292  0.3290
 5092TIP3    H115240   1.520   3.731   4.126  0.7816 -0.2849  0.7683
 5092TIP3    H215241   1.429   3.618   4.083  0.9223 -0.3768  0.7119
 5093TIP3   OH215242   1.580   4.761   4.404 -0.0550 -0.2502  0.0562
 5093TIP3    H115243   1.565   4.790   4.315  0.8519 -1.4055 -0.5079
 5093TIP3    H215244   1.606   4.840   4.452  0.1191  0.2573 -0.8656
 5094TIP3   OH215245   3.614   2.347   2.629  0.0968 -0.1632 -0.2215
 5094TIP3    H115246   3.535   2.298   2.608 -0.0352  0.1382 -0.4295
 5094TIP3    H215247   3.597   2.436   2.597  0.9763 -0.3740 -1.3333
 5095TIP3   OH215248   1.725   1.230   1.193  0.2369  0.1363 -0.0878
 5095TIP3    H115249   1.783   1.262   1.262  0.3153 -1.0113  0.4096
 5095TIP3    H215250   1.785   1.202   1.123  0.2044  0.4718 -0.2479
 5096TIP3   OH215251   2.332   4.278   1.961  0.3464  0.4782  0.3186
 5096TIP3    H115252   2.424   4.268   1.938  0.6778  1.6581  1.0615
 5096TIP3    H215253   2.311   4.369   1.939 -0.7611  0.1158 -0.2102
 5097TIP3   OH215254   4.713   1.549   2.294 -0.1766  0.4339  0.3064
 5097TIP3    H115255   4.777   1.479   2.308  0.6864  1.2449  0.4833
 5097TIP3    H215256   4.739   1.619   2.354 -1.1566  0.8396  0.2879
 5098TIP3   OH215257   3.111   2.460   3.950 -0.9031 -0.6466  0.3546
 5098TIP3    H115258   3.150   2.498   4.029 -2.2030  2.4549 -0.3333
 5098TIP3    H215259   3.186   2.421   3.904  0.1510 -1.0505  2.2747
 5099TIP3   OH215260   1.872   1.159   3.893  0.1293 -0.1197  0.2465
 5099TIP3    H115261   1.962   1.187   3.911 -0.3831  2.1532 -0.3985
 5099TIP3    H215262   1.875   1.120   3.806  0.7262 -1.4004  0.8234
 5100TIP3   OH215263   4.754   1.677   5.077  0.2958 -0.1814  0.4443
 5100TIP3    H115264   4.660   1.690   5.064  0.5297  0.3244 -0.9530
 5100TIP3    H215265   4.779   1.614   5.009  0.6092 -1.9939  2.1613
 5101TIP3   OH215266   3.261   1.013   4.055  0.6964  0.3151  0.1438
 5101TIP3    H115267   3.283   0.936   4.002  3.2948  0.6901  0.5343
 5101TIP3    H215268   3.290   1.088   4.003  0.7705  0.8485  0.9383
 5102TIP3   OH215269   5.738   6.536   3.969 -0.3439 -0.0891  0.1136
 5102TIP3    H115270   5.812   6.516   3.911  1.1035  0.5932  1.6586
 5102TIP3    H215271   5.671   6.573   3.911 -0.0292 -1.9351 -1.5287
 5103TIP3   OH215272   2.860   5.829   3.629  0.1776 -0.0096  0.2122
 5103TIP3    H115273   2.856   5.863   3.539 -1.2430 -0.8362 -0.0854
 5103TIP3    H215274   2.771   5.841   3.662 -0.0038 -2.0566  0.5849
 5104TIP3   OH215275   4.598   0.237   0.920  0.8077  0.4821  0.2854
 5104TIP3    H115276   4.504   0.241   0.940  0.8665 -0.8364  0.9362
 5104TIP3    H215277   4.619   0.325   0.888 -0.4603  1.0635  0.9466
 5105TIP3   OH215278   3.329   0.099   0.800  0.0949  0.4044 -0.1520
 5105TIP3    H115279   3.380   0.104   0.719  1.5235  2.2746  0.7920
 5105TIP3    H215280   3.395   0.093   0.870 -1.0996 -2.0380  0.9061
 5106TIP3   OH215281   0.520   2.388   4.749  0.4158  0.0272 -0.0971
 5106TIP3    H115282   0.478   2.456   4.802 -0.1110  0.2066 -0.7161
 5106TIP3    H215283   0.571   2.437   4.684 -0.2494 -0.1500 -0.7698
 5107TIP3   OH215284   5.951   0.369   1.364  0.7379  0.0838 -0.3825
 5107TIP3    H115285   5.871   0.393   1.317 -0.5319 -0.1754  1.5593
 5107TIP3    H215286   5.948   0.274   1.371 -0.2067  0.2414  2.0266
 5108TIP3   OH215287   1.293   4.086   1.381  0.0434  0.1642  1.2587
 5108TIP3    H115288   1.271   4.050   1.295 -0.6890  0.0044  1.5047
 5108TIP3    H215289   1.335   4.013   1.427 -3.0325 -1.0608  2.3996
 5109TIP3   OH215290   2.862   3.701   0.847 -0.1367  0.1935 -0.3920
 5109TIP3    H115291   2.956   3.716   0.838  0.0225 -0.5132  0.0416
 5109TIP3    H215292   2.853   3.652   0.928 -0.9317  0.6901 -0.1702
 5110TIP3   OH215293   0.860   3.595   2.826 -0.0157  0.1942  0.9029
 5110TIP3    H115294   0.827   3.507   2.810  0.1285  0.0754  1.2465
 5110TIP3    H215295   0.911   3.587   2.906  2.2786  0.0063 -0.4885
 5111TIP3   OH215296   6.155   6.183   4.977 -0.0502 -0.4195 -0.8298
 5111TIP3    H115297   6.119   6.193   4.889 -0.2237 -0.3588 -0.7517
 5111TIP3    H215298   6.243   6.148   4.963 -0.2229 -0.7916 -1.0149
 5112TIP3   OH215299   0.816   4.662   0.301  0.1696 -0.3120 -0.3371
 5112TIP3    H115300   0.821   4.734   0.238  0.2608  1.1122  1.2371
 5112TIP3    H215301   0.821   4.583   0.247  1.0952  0.8452 -2.0386
 5113TIP3   OH215302   5.707   3.102   4.469 -0.2721 -0.6531 -0.8641
 5113TIP3    H115303   5.747   3.183   4.500  0.4102 -1.1828 -0.3064
 5113TIP3    H215304   5.712   3.107   4.374 -1.3095  0.4736 -0.8818
 5114TIP3   OH215305   0.846   6.297   4.016 -0.0721 -0.3294 -0.0760
 5114TIP3    H115306   0.777   6.350   3.975 -0.1037  0.1828  0.6183
 5114TIP3    H215307   0.901   6.269   3.943 -0.6481 -0.2042 -0.5657
 5115TIP3   OH215308   2.837   6.270   5.014  0.0029 -0.2851  0.6135
 5115TIP3    H115309   2.904   6.222   5.064  1.0123 -0.0349 -0.4604
 5115TIP3    H215310   2.876   6.284   4.928 -1.6939 -0.6927 -0.2738
 5116TIP3   OH215311   5.338   5.963   4.567 -0.3202  0.3076  0.0671
 5116TIP3    H115312   5.385   6.013   4.635 -0.2430  0.0601  0.1967
 5116TIP3    H215313   5.316   5.880   4.610  2.2811 -1.0801 -1.0622
 5117TIP3   OH215314   7.185   4.613   0.487 -0.3337  0.2882 -0.2792
 5117TIP3    H115315   7.240   4.574   0.420  0.3994  1.9584 -0.7232
 5117TIP3    H215316   7.127   4.672   0.439 -0.7509  0.4635  0.4273
 5118TIP3   OH215317   1.497   6.155   0.718 -0.3099  0.2991 -0.1431
 5118TIP3    H115318   1.554   6.147   0.642 -1.0717  2.0287 -0.9377
 5118TIP3    H215319   1.441   6.230   0.699 -0.7378  0.5897  1.9990
 5119TIP3   OH215320   4.861   4.971   0.919  0.4160 -0.7937 -0.3270
 5119TIP3    H115321   4.936   4.958   0.976 -0.3044 -1.3798  0.5017
 5119TIP3    H215322   4.872   5.060   0.885  1.3369 -0.7769 -0.0060
 5120TIP3   OH215323   4.766   6.183   5.301  0.0528  0.3409  0.1637
 5120TIP3    H115324   4.792   6.138   5.381 -0.4619  0.5697  0.4639
 5120TIP3    H215325   4.671   6.186   5.305 -0.4651 -3.7476 -2.6455
 5121TIP3   OH215326   5.203   3.883   4.134 -0.2308  0.5239  0.1813
 5121TIP3    H115327   5.248   3.902   4.051  0.4819 -0.3097  0.3597
 5121TIP3    H215328   5.233   3.952   4.193  1.1477 -0.2113  0.3990
 5122TIP3   OH215329   1.258   4.628   1.689  0.0482 -0.4120 -0.2839
 5122TIP3    H115330   1.317   4.665   1.754  0.7902 -1.5187 -0.3076
 5122TIP3    H215331   1.280   4.674   1.608 -0.8792  0.9670  0.2129
 5123TIP3   OH215332   3.497   4.198   2.499  0.0453 -0.2017 -0.2725
 5123TIP3    H115333   3.411   4.239   2.499  0.4305  0.6720  0.7719
 5123TIP3    H215334   3.555   4.265   2.537  0.6477 -1.8111  1.8520
 5124TIP3   OH215335   2.808   2.196   2.941 -0.0706 -0.3742  0.2036
 5124TIP3    H115336   2.728   2.228   2.901 -1.1197 -2.2651  0.6898
 5124TIP3    H215337   2.849   2.274   2.978 -0.6756  0.9224 -1.7167
 5125TIP3   OH215338   2.155   6.627   4.868 -0.3254 -0.1761  0.0979
 5125TIP3    H115339   2.138   6.591   4.781 -0.4568 -1.5437  0.6498
 5125TIP3    H215340   2.184   6.551   4.919 -0.4600  0.5550  1.2947
 5126TIP3   OH215341   1.158   2.316   0.510 -0.3307 -0.3727 -0.2621
 5126TIP3    H115342   1.251   2.334   0.519 -0.3911 -0.3901  0.4717
 5126TIP3    H215343   1.117   2.403   0.508 -0.2432 -0.3434 -1.3676
 5127TIP3   OH215344   4.467   0.420   0.318 -0.1480 -0.0852  0.1934
 5127TIP3    H115345   4.494   0.331   0.339 -1.8764 -1.0811 -1.5136
 5127TIP3    H215346   4.372   0.419   0.326 -0.3987  0.9866 -1.8570
 5128TIP3   OH215347   4.963   0.913   4.220 -0.3732 -0.0904  0.0385
 5128TIP3    H115348   4.969   0.894   4.126  0.6950  2.3155 -0.4533
 5128TIP3    H215349   4.881   0.960   4.230 -1.9761 -2.8147  0.9037
 5129TIP3   OH215350   4.336   6.072   4.028  0.1653 -0.0944  0.2053
 5129TIP3    H115351   4.256   6.051   4.077  0.9672 -1.2522  1.0759
 5129TIP3    H215352   4.404   6.078   4.095  0.8024  1.0509 -0.5038
 5130TIP3   OH215353   1.362   1.090   1.630  0.0609  0.4559  0.1876
 5130TIP3    H115354   1.349   1.020   1.694 -1.8326 -0.9832 -1.6733
 5130TIP3    H215355   1.453   1.083   1.604  0.8194  0.9195  2.4543
 5131TIP3   OH215356   6.491   3.997   1.067  0.9638 -0.3562 -0.3065
 5131TIP3    H115357   6.443   4.063   1.118  1.5001 -0.5672  0.4910
 5131TIP3    H215358   6.543   4.048   1.005  1.3740 -0.0152  0.3047
 5132TIP3   OH215359   1.867   1.638   2.220  0.1258  0.2061 -0.4659
 5132TIP3    H115360   1.846   1.713   2.275  1.1541  0.4322 -0.3589
 5132TIP3    H215361   1.871   1.564   2.280  0.0927  0.2423 -0.4191
 5133TIP3   OH215362   4.911   4.448   5.251 -0.4713 -0.1597 -0.1627
 5133TIP3    H115363   4.907   4.367   5.200 -1.0824  0.2924 -0.8588
 5133TIP3    H215364   4.905   4.419   5.342 -2.5929 -0.8185 -0.4465
 5134TIP3   OH215365   5.792   2.033   4.889 -0.3510 -0.3717 -0.0559
 5134TIP3    H115366   5.732   1.967   4.854 -0.0161 -1.3703  1.1765
 5134TIP3    H215367   5.836   2.069   4.813 -0.6949 -1.4340 -0.7783
 5135TIP3   OH215368   1.756   0.362   0.077 -0.7848 -0.2679  0.0953
 5135TIP3    H115369   1.786   0.306   0.006 -1.4716 -0.3418 -0.1409
 5135TIP3    H215370   1.777   0.451   0.048 -0.3558 -0.3431  0.1546
 5136TIP3   OH215371   3.720   4.284   1.830 -0.1080  0.4163 -0.0601
 5136TIP3    H115372   3.672   4.297   1.911  0.8834 -0.1054  0.6324
 5136TIP3    H215373   3.807   4.255   1.858  0.0352 -0.4507 -1.3185
 5137TIP3   OH215374   2.205   0.825   2.816  0.1931  0.7227 -0.3898
 5137TIP3    H115375   2.273   0.781   2.767 -1.1316 -0.4713 -1.2216
 5137TIP3    H215376   2.144   0.858   2.749 -1.9997 -1.5170  0.3515
 5138TIP3   OH215377   6.568   1.179   4.440  0.1566 -0.2933 -0.5527
 5138TIP3    H115378   6.631   1.240   4.478 -0.8210  1.0596 -1.0215
 5138TIP3    H215379   6.533   1.224   4.364 -0.7433 -1.3651 -0.8095
 5139TIP3   OH215380   6.470   4.812   1.148 -0.6786  0.4147  0.4150
 5139TIP3    H115381   6.538   4.751   1.179 -1.5377 -0.6099  0.3330
 5139TIP3    H215382   6.398   4.756   1.121 -1.4476  1.4777  0.1990
 5140TIP3   OH215383   3.820   6.617   3.641 -0.4689 -0.3276 -0.2272
 5140TIP3    H115384   3.804   6.669   3.720  0.2238 -0.4523  0.0085
 5140TIP3    H215385   3.884   6.551   3.668 -0.6242 -0.7047 -0.7613
 5141TIP3   OH215386   1.395   4.810   5.263 -0.0658  0.6536 -0.2861
 5141TIP3    H115387   1.470   4.794   5.320 -1.6314  0.0806  1.7488
 5141TIP3    H215388   1.399   4.741   5.197  1.1368  0.6063 -0.1832
 5142TIP3   OH215389   5.275   5.310   4.183  0.0512  0.9851  0.6200
 5142TIP3    H115390   5.363   5.334   4.211  0.9679  0.4758 -1.6040
 5142TIP3    H215391   5.280   5.216   4.166 -1.1060  0.8272  1.0693
 5143TIP3   OH215392   3.724   0.203   3.701 -0.2426  0.4287 -0.0695
 5143TIP3    H115393   3.778   0.270   3.661 -1.0218  0.3957 -1.2485
 5143TIP3    H215394   3.742   0.124   3.650  0.7538 -0.3164  1.3694
 5144TIP3   OH215395   6.815   3.174   2.403 -0.0294  0.2146 -0.5721
 5144TIP3    H115396   6.885   3.188   2.338  1.1707  1.4513  0.9081
 5144TIP3    H215397   6.858   3.129   2.475  0.0838  3.4999  1.6270
 5145TIP3   OH215398   0.863   4.235   0.505  0.1090  0.1984  0.1711
 5145TIP3    H115399   0.937   4.174   0.502  0.1034  0.0613  1.8272
 5145TIP3    H215400   0.787   4.181   0.483  0.3384  0.0488 -0.2650
 5146TIP3   OH215401   4.109   4.468   5.457  0.0271  0.8091  0.1172
 5146TIP3    H115402   4.124   4.373   5.454  2.0250  1.0724  0.6226
 5146TIP3    H215403   4.126   4.498   5.368  0.6298  0.8352  0.2342
 5147TIP3   OH215404   3.505   0.155   4.154  0.3511  0.1872 -0.0894
 5147TIP3    H115405   3.579   0.094   4.155  0.5009  0.2693 -1.9231
 5147TIP3    H215406   3.494   0.177   4.061 -0.9230  1.4671  0.3301
 5148TIP3   OH215407   6.816   4.683   3.404  0.1032 -0.0126 -0.7172
 5148TIP3    H115408   6.736   4.732   3.386 -0.8057 -0.9866  0.5124
 5148TIP3    H215409   6.808   4.658   3.496  1.6958 -0.3768 -0.6522
 5149TIP3   OH215410   2.899   2.846   3.431  0.5620  0.3563  0.3487
 5149TIP3    H115411   2.985   2.884   3.446  0.8788  0.5767 -1.7355
 5149TIP3    H215412   2.867   2.890   3.352 -1.1409 -0.2661  0.6444
 5150TIP3   OH215413   2.152   3.280   0.643  0.4824  0.5574 -0.2959
 5150TIP3    H115414   2.171   3.299   0.734 -1.5813  1.6138 -0.0250
 5150TIP3    H215415   2.057   3.281   0.637  0.5571  2.2249 -2.7970
 5151TIP3   OH215416   4.926   1.434   4.271 -0.0268  0.4615  0.4240
 5151TIP3    H115417   4.961   1.448   4.183  0.9152  0.3500  0.7687
 5151TIP3    H215418   5.001   1.446   4.329 -0.0874 -1.7082  1.0423
 5152TIP3   OH215419   6.336   4.460   5.837  0.4593 -0.1323  0.3254
 5152TIP3    H115420   6.299   4.372   5.822 -0.2333  0.4031 -1.4358
 5152TIP3    H215421   6.279   4.498   5.904  0.6844 -0.9791  1.0104
 5153TIP3   OH215422   5.155   6.135   3.237  0.0745  0.5928  0.0443
 5153TIP3    H115423   5.161   6.052   3.284 -0.0970  0.3325 -0.3780
 5153TIP3    H215424   5.067   6.134   3.199  0.6144  0.2547 -1.2532
 5154TIP3   OH215425   6.450   5.524   4.951  0.1984 -0.2026  0.1951
 5154TIP3    H115426   6.450   5.576   5.031 -1.0959  1.0421 -0.5763
 5154TIP3    H215427   6.358   5.520   4.924  0.6436 -0.2855 -1.4296
 5155TIP3   OH215428   6.444   2.016   4.660  0.6947  0.4144  0.7157
 5155TIP3    H115429   6.503   2.045   4.589 -0.1984  0.8661  0.1395
 5155TIP3    H215430   6.373   1.970   4.615 -0.6288  1.9405  1.1632
 5156TIP3   OH215431   0.542   0.792   0.418  0.1927  0.5397  0.3538
 5156TIP3    H115432   0.637   0.805   0.421  0.5371 -1.6108  2.1071
 5156TIP3    H215433   0.521   0.757   0.505 -1.3489 -3.5824 -1.4079
 5157TIP3   OH215434   2.288   3.444   5.633 -0.0088  0.2320 -0.0672
 5157TIP3    H115435   2.326   3.382   5.570 -0.7885 -0.6701  0.3165
 5157TIP3    H215436   2.324   3.529   5.609 -0.7577  0.0197 -2.1340
 5158TIP3   OH215437   6.963   1.404   1.106 -0.7159  0.3845 -0.0092
 5158TIP3    H115438   6.956   1.342   1.178  0.1452 -0.9384 -0.9961
 5158TIP3    H215439   6.947   1.489   1.145 -2.2508 -0.4788  1.3486
 5159TIP3   OH215440   4.827   0.344   5.698  0.4451 -0.0989 -0.4302
 5159TIP3    H115441   4.883   0.414   5.664 -0.4622  2.8381  3.4107
 5159TIP3    H215442   4.739   0.367   5.668  0.1122  0.6490  1.0272
 5160TIP3   OH215443   2.842   4.473   0.782 -0.1934 -0.3731  0.6503
 5160TIP3    H115444   2.840   4.383   0.747 -2.0024 -0.3589  0.6490
 5160TIP3    H215445   2.761   4.513   0.751  0.3655  1.1360  1.0449
 5161TIP3   OH215446   3.338   1.744   1.318  0.2689 -0.1134  0.4651
 5161TIP3    H115447   3.244   1.750   1.331 -0.0060  2.1611 -1.8707
 5161TIP3    H215448   3.375   1.797   1.389 -0.0829 -1.6652  1.8755
 5162TIP3   OH215449   5.324   2.798   5.872 -0.1550  0.7693  0.7262
 5162TIP3    H115450   5.267   2.800   5.949  1.1979  1.8409  1.7449
 5162TIP3    H215451   5.299   2.718   5.825 -2.9140  1.4935  0.7777
 5163TIP3   OH215452   4.335   4.183   5.250  0.2315 -0.7698 -0.1059
 5163TIP3    H115453   4.266   4.198   5.315  1.2867  0.3385  0.7924
 5163TIP3    H215454   4.389   4.114   5.289 -0.8154 -2.2555 -1.1975
 5164TIP3   OH215455   0.967   4.143   1.327  0.7196  0.3758 -0.0346
 5164TIP3    H115456   0.913   4.078   1.373  1.1065 -0.2907 -0.5123
 5164TIP3    H215457   1.029   4.174   1.394  2.0434 -1.4377 -0.3692
 5165TIP3   OH215458   6.001   6.214   4.238  0.2390  0.0362 -0.1220
 5165TIP3    H115459   6.006   6.308   4.219  3.7788 -0.1088 -0.4776
 5165TIP3    H215460   6.021   6.172   4.154  1.9681 -0.9287  0.7308
 5166TIP3   OH215461   0.720   4.193   1.476 -0.2928 -0.0830 -0.1402
 5166TIP3    H115462   0.625   4.198   1.484 -0.2878  1.6449 -0.7665
 5166TIP3    H215463   0.744   4.271   1.426  1.5039 -0.2682  0.3729
 5167TIP3   OH215464   2.580   2.101   2.672 -0.0897 -0.6846  0.2347
 5167TIP3    H115465   2.660   2.070   2.630  0.3248 -2.3745  2.1161
 5167TIP3    H215466   2.604   2.184   2.713 -0.1691  0.3385 -1.6598
 5168TIP3   OH215467   3.124   2.744   3.614 -0.3476 -0.2403  0.0913
 5168TIP3    H115468   3.166   2.764   3.698 -0.7565 -0.6616  0.4000
 5168TIP3    H215469   3.167   2.803   3.551  0.4951 -0.4482  0.4507
 5169TIP3   OH215470   4.184   0.055   3.956  0.0599  0.4337  0.6837
 5169TIP3    H115471   4.125   0.117   3.913  1.0591  1.0216  0.1061
 5169TIP3    H215472   4.170  -0.027   3.908 -1.4028  0.1236  1.5710
 5170TIP3   OH215473   5.064   0.101   0.545  0.3444 -0.7569 -0.5623
 5170TIP3    H115474   5.150   0.143   0.534 -0.7653  1.8519 -0.1281
 5170TIP3    H215475   5.077   0.039   0.616  1.3460  1.5479  1.4233
 5171TIP3   OH215476   1.778   6.561   2.060 -0.1765  0.2984  0.2225
 5171TIP3    H115477   1.780   6.580   1.966 -0.7404  1.1689  0.3832
 5171TIP3    H215478   1.803   6.643   2.102  0.0882 -0.0925  0.8432
 5172TIP3   OH215479   1.715   0.615   5.581  0.7173 -1.2915 -0.1974
 5172TIP3    H115480   1.770   0.615   5.502 -2.5921 -1.5676 -2.7100
 5172TIP3    H215481   1.663   0.535   5.574  0.0841 -1.1748  2.1701
 5173TIP3   OH215482   1.554   6.176   5.433 -0.2625 -1.0976 -0.0401
 5173TIP3    H115483   1.531   6.253   5.485  0.6636 -0.9692  0.1934
 5173TIP3    H215484   1.602   6.211   5.358 -0.2326 -1.4077 -0.1694
 5174TIP3   OH215485   2.882   5.389   2.712  0.0845 -0.2626 -0.4313
 5174TIP3    H115486   2.933   5.320   2.754 -0.5522 -0.2582  0.3609
 5174TIP3    H215487   2.947   5.443   2.667  0.4522 -2.5420 -2.8743
 5175TIP3   OH215488   6.479   4.986   2.418 -0.4431  0.3651 -0.1906
 5175TIP3    H115489   6.522   5.040   2.484 -1.1596  1.4840 -0.6261
 5175TIP3    H215490   6.394   4.965   2.457 -0.9494  1.1968 -0.8257
 5176TIP3   OH215491   7.077   0.318   3.817  0.2876 -0.3564  0.5653
 5176TIP3    H115492   7.083   0.414   3.812 -0.4977 -0.2898  0.7906
 5176TIP3    H215493   7.119   0.288   3.736  0.5781  0.1760  0.5111
 5177TIP3   OH215494   2.636   5.798   5.518 -0.0807  0.5243 -0.0961
 5177TIP3    H115495   2.567   5.778   5.581  0.0610  3.4076  1.1476
 5177TIP3    H215496   2.593   5.851   5.451  0.1979 -0.8523 -1.4213
 5178TIP3   OH215497   4.077   3.435   0.995  0.3685  0.1251 -0.1244
 5178TIP3    H115498   4.041   3.455   1.082  1.1588  2.4808 -0.2484
 5178TIP3    H215499   4.163   3.479   0.994  0.4120  0.1003 -2.0599
 5179TIP3   OH215500   5.298   1.645   2.629 -0.6886  0.4932 -0.3642
 5179TIP3    H115501   5.235   1.708   2.594  0.4693  1.0966 -1.4247
 5179TIP3    H215502   5.315   1.585   2.557  0.0360  0.4066 -0.1269
 5180TIP3   OH215503   6.182   3.282   5.751  0.4181 -0.1951  0.0810
 5180TIP3    H115504   6.219   3.248   5.833  1.8764  0.4714 -0.2661
 5180TIP3    H215505   6.181   3.207   5.692 -0.4631 -0.6340  0.6312
 5181TIP3   OH215506   7.022   6.456   0.443  0.1826 -0.6243  0.6673
 5181TIP3    H115507   6.979   6.377   0.477 -1.4969 -0.1455 -0.2270
 5181TIP3    H215508   7.026   6.515   0.518  0.9935 -1.3513  1.2172
 5182TIP3   OH215509   5.835   0.451   4.632  0.4520 -0.1598 -0.7445
 5182TIP3    H115510   5.925   0.481   4.642  1.1016 -1.7917 -1.3542
 5182TIP3    H215511   5.797   0.458   4.720  2.3355 -2.9475  0.4244
 5183TIP3   OH215512   5.356   0.532   1.145 -0.0193 -0.1043  0.3425
 5183TIP3    H115513   5.362   0.486   1.228 -0.6733  1.4025  1.2665
 5183TIP3    H215514   5.383   0.467   1.079 -1.0552 -1.8181  1.5405
 5184TIP3   OH215515   4.437   1.654   1.869  0.0022  0.0653 -0.4011
 5184TIP3    H115516   4.488   1.638   1.948 -1.4894  2.1866  1.1097
 5184TIP3    H215517   4.388   1.573   1.855 -0.0410 -0.1943  1.1014
 5185TIP3   OH215518   0.207   6.393   2.832 -0.0731  0.2806 -0.4167
 5185TIP3    H115519   0.235   6.376   2.742  0.7565 -1.2761  0.0924
 5185TIP3    H215520   0.288   6.390   2.883 -0.5673  0.8786  0.4149
 5186TIP3   OH215521   4.277   4.203   3.815 -0.6884  0.0265  0.2311
 5186TIP3    H115522   4.199   4.216   3.761 -0.7540 -0.0182  0.3148
 5186TIP3    H215523   4.338   4.272   3.786 -0.3182 -0.6366 -0.6256
 5187TIP3   OH215524   5.405   0.129   5.839  0.3710 -0.3900  0.1243
 5187TIP3    H115525   5.497   0.128   5.811 -0.1870  1.2753 -1.9824
 5187TIP3    H215526   5.358   0.083   5.769 -0.4496 -1.1208  1.1229
 5188TIP3   OH215527   2.165   1.466   1.032 -0.6057 -0.0731  0.2296
 5188TIP3    H115528   2.102   1.422   0.975 -2.0924  0.7235  1.1860
 5188TIP3    H215529   2.202   1.396   1.086 -2.7086 -0.2820  1.5194
 5189TIP3   OH215530   6.541   3.778   5.206 -0.2988  0.0370  0.3066
 5189TIP3    H115531   6.574   3.807   5.291  0.1125 -1.3052  0.6329
 5189TIP3    H215532   6.519   3.685   5.219 -0.6426 -0.0737 -0.9303
 5190TIP3   OH215533   5.457   3.502   2.543  0.3673 -0.8379 -0.3122
 5190TIP3    H115534   5.370   3.490   2.506 -0.3909  0.7785  0.8207
 5190TIP3    H215535   5.449   3.472   2.634  0.6611  0.3568  0.1243
 5191TIP3   OH215536   4.510   1.063   3.758 -0.4070 -0.5074 -0.2131
 5191TIP3    H115537   4.451   1.137   3.762 -1.5994 -1.4957  1.5313
 5191TIP3    H215538   4.457   0.992   3.722 -0.3609 -1.4288  1.4416
 5192TIP3   OH215539   4.345   1.908   4.175 -0.5904  0.1601 -0.4650
 5192TIP3    H115540   4.404   1.859   4.119  0.4194  0.7103  0.0777
 5192TIP3    H215541   4.342   1.996   4.137  0.4012  0.6476  0.5006
 5193TIP3   OH215542   5.959   5.409   5.060  0.0982  0.3806  0.4535
 5193TIP3    H115543   6.008   5.329   5.079 -1.4118 -1.0904 -1.4759
 5193TIP3    H215544   6.017   5.458   5.001  0.4612  0.0751  0.5499
 5194TIP3   OH215545   4.368   1.570   4.693  0.2323  0.1043 -0.0926
 5194TIP3    H115546   4.274   1.579   4.709  0.0165  1.9798 -1.9597
 5194TIP3    H215547   4.410   1.617   4.765 -0.4407  2.3936 -1.1139
 5195TIP3   OH215548   1.697   2.212   4.405  0.1030  0.0066  0.4246
 5195TIP3    H115549   1.761   2.165   4.351 -0.2060  0.7571 -0.6292
 5195TIP3    H215550   1.621   2.154   4.408 -0.2484  0.3695 -0.8030
 5196TIP3   OH215551   4.051   5.018   3.218  0.0323  0.3179  0.0292
 5196TIP3    H115552   3.973   5.017   3.163  0.0943 -0.1580 -0.0515
 5196TIP3    H215553   4.044   5.100   3.268 -0.9593 -0.1227  0.6526
 5197TIP3   OH215554   4.207   2.806   3.692 -0.0411  0.0389 -0.1223
 5197TIP3    H115555   4.219   2.728   3.637 -0.2755 -0.2971  0.3055
 5197TIP3    H215556   4.120   2.796   3.730 -0.5336  1.0558 -0.9278
 5198TIP3   OH215557   2.355   5.485   3.101  0.1440  0.3393  0.0287
 5198TIP3    H115558   2.307   5.549   3.049  1.3765  0.6514 -0.7578
 5198TIP3    H215559   2.446   5.513   3.097  0.5547 -0.8075  0.6439
 5199TIP3   OH215560   0.553   4.802   0.727 -0.1468 -0.4246  0.0663
 5199TIP3    H115561   0.565   4.741   0.800  1.3071  0.5926  0.7475
 5199TIP3    H215562   0.621   4.777   0.664  1.6251  1.4609  1.1057
 5200TIP3   OH215563   6.496   1.521   0.564 -0.3654 -0.1895  0.4663
 5200TIP3    H115564   6.475   1.573   0.486 -1.5268 -0.6443  0.4649
 5200TIP3    H215565   6.474   1.577   0.638  0.5574  0.1705  0.4778
 5201TIP3   OH215566   2.043   5.038   5.215 -0.1254 -0.4863 -0.4424
 5201TIP3    H115567   2.090   5.087   5.282 -0.1850 -2.3808  1.1045
 5201TIP3    H215568   1.992   4.973   5.265 -1.1347 -1.1822 -2.2762
 5202TIP3   OH215569   1.906   1.616   5.781 -0.3484 -0.0023  0.2514
 5202TIP3    H115570   1.895   1.681   5.712  1.0609 -1.3434 -1.3317
 5202TIP3    H215571   1.827   1.562   5.777  0.0730 -0.5651 -0.9078
 5203TIP3   OH215572   6.709   5.039   1.089 -0.1930  0.0984  0.2616
 5203TIP3    H115573   6.672   5.040   1.177  1.4030  1.3876  0.9703
 5203TIP3    H215574   6.775   4.970   1.090 -0.1903  0.0952  0.0669
 5204TIP3   OH215575   3.831   3.338   5.126 -0.6170 -0.1524 -0.4223
 5204TIP3    H115576   3.840   3.362   5.034 -0.0932  0.4785 -0.2118
 5204TIP3    H215577   3.902   3.277   5.143 -0.8202 -0.4074 -0.4763
 5205TIP3   OH215578   3.970   4.770   4.335  0.4660  0.0364  0.6204
 5205TIP3    H115579   3.893   4.740   4.288  0.7209  1.5302 -0.8229
 5205TIP3    H215580   4.025   4.691   4.344 -0.1393 -0.5273 -0.5043
 5206TIP3   OH215581   3.144   0.160   3.396 -0.6487  0.0857 -0.2936
 5206TIP3    H115582   3.060   0.162   3.350 -1.2602  0.1318  0.7899
 5206TIP3    H215583   3.167   0.068   3.400 -1.1644 -0.0243  0.2982
 5207TIP3   OH215584   4.632   3.002   4.619  0.2551  0.0731  0.0490
 5207TIP3    H115585   4.572   2.964   4.683 -1.8506  0.8343 -1.3453
 5207TIP3    H215586   4.630   3.096   4.638  0.5505  0.1633 -0.3525
 5208TIP3   OH215587   4.559   6.424   2.138  0.2173 -0.3408  0.2253
 5208TIP3    H115588   4.559   6.379   2.223 -2.2748  0.0543  0.4969
 5208TIP3    H215589   4.598   6.361   2.078 -0.3873 -1.6827  1.1817
 5209TIP3   OH215590   3.509   2.651   5.792 -0.4290  0.0633  0.0747
 5209TIP3    H115591   3.524   2.656   5.698 -0.0453 -1.1597  0.0569
 5209TIP3    H215592   3.561   2.723   5.828  0.3575 -0.1695 -0.5575
 5210TIP3   OH215593   0.181   5.008   4.738  0.1188  0.3534 -0.5899
 5210TIP3    H115594   0.213   5.037   4.823  1.2310  0.6171 -1.0775
 5210TIP3    H215595   0.190   4.913   4.740 -1.0831  0.2428  0.0552
 5211TIP3   OH215596   5.405   4.309   3.764  0.0619  0.4926 -0.0027
 5211TIP3    H115597   5.415   4.257   3.684 -0.6638 -1.1345  0.9054
 5211TIP3    H215598   5.312   4.332   3.767  0.3096  1.5493 -0.2072
 5212TIP3   OH215599   0.924   4.742   4.258  0.4596 -0.4886  0.3073
 5212TIP3    H115600   0.941   4.684   4.184  0.4392 -0.4784  0.2945
 5212TIP3    H215601   0.851   4.700   4.304 -0.0727 -0.0624 -0.1412
 5213TIP3   OH215602   2.763   5.363   1.056  0.0935  0.1819  0.5291
 5213TIP3    H115603   2.736   5.323   1.139  0.5258  0.3760  0.7725
 5213TIP3    H215604   2.824   5.433   1.082  0.4116  0.0961  0.0389
 5214TIP3   OH215605   6.559   5.998   3.952 -0.2659 -0.1601  0.0357
 5214TIP3    H115606   6.576   5.921   4.006 -1.9724 -1.2231 -0.8694
 5214TIP3    H215607   6.481   6.038   3.990  0.4135  0.9917  0.3026
 5215TIP3   OH215608   5.814   6.334   1.401 -0.4464 -0.1387  0.1253
 5215TIP3    H115609   5.730   6.378   1.414  0.3388  2.1546 -1.7016
 5215TIP3    H215610   5.827   6.334   1.306  1.8279  0.0981  0.3667
 5216TIP3   OH215611   5.349   1.580   5.540 -0.5814  0.5474 -0.4611
 5216TIP3    H115612   5.322   1.666   5.573  0.9500  1.1455 -0.6943
 5216TIP3    H215613   5.333   1.585   5.446 -0.8476  0.4230 -0.4250
 5217TIP3   OH215614   5.654   6.406   3.567 -0.4025 -0.6596  0.0050
 5217TIP3    H115615   5.674   6.470   3.636 -0.3916  0.3574 -0.9114
 5217TIP3    H215616   5.729   6.346   3.568 -0.0855 -0.2665  0.4323
 5218TIP3   OH215617   1.532   5.729   0.290 -0.4403 -0.4461 -0.6802
 5218TIP3    H115618   1.471   5.657   0.275 -0.9514 -0.8717  2.7282
 5218TIP3    H215619   1.607   5.689   0.333 -0.7226  0.9536  1.2789
 5219TIP3   OH215620   5.135   4.368   0.716 -0.4239 -0.2578 -0.0904
 5219TIP3    H115621   5.127   4.456   0.682  0.2584 -0.9362 -2.1405
 5219TIP3    H215622   5.208   4.373   0.778 -0.7388  0.6988  0.2205
 5220TIP3   OH215623   3.519   3.284   4.328  0.2147  0.4545 -1.1179
 5220TIP3    H115624   3.438   3.274   4.280 -0.9071  1.2619  0.4962
 5220TIP3    H215625   3.516   3.374   4.361  0.8791 -0.0621  0.4517
 5221TIP3   OH215626   5.692   0.303   1.812 -0.2378  0.1266 -0.5312
 5221TIP3    H115627   5.735   0.309   1.727  2.4824 -1.4280  0.6146
 5221TIP3    H215628   5.645   0.220   1.810 -0.3957  0.2201 -0.6345
 5222TIP3   OH215629   3.212   2.949   3.446  0.0695  0.0275  0.0484
 5222TIP3    H115630   3.229   3.043   3.451  0.2678  0.1908 -2.3019
 5222TIP3    H215631   3.235   2.926   3.356  0.0285 -2.2893  0.5674
 5223TIP3   OH215632   1.440   3.547   5.677  0.6489 -0.2031  0.0937
 5223TIP3    H115633   1.394   3.519   5.756  0.3430  0.3305  0.1045
 5223TIP3    H215634   1.406   3.490   5.608 -0.2138  0.3482  0.0566
 5224TIP3   OH215635   3.792   4.531   0.487  0.5007 -0.0407 -0.1254
 5224TIP3    H115636   3.710   4.563   0.525  1.0420  1.5356 -0.2184
 5224TIP3    H215637   3.769   4.509   0.397  0.6087  2.5608 -0.8648
 5225TIP3   OH215638   0.104   0.428   4.098  0.1116 -0.6485  0.4281
 5225TIP3    H115639   0.154   0.350   4.125 -0.3215 -0.6009  1.4057
 5225TIP3    H215640   0.171   0.491   4.073  0.4598 -1.8172 -1.8902
 5226TIP3   OH215641   6.191   0.045   5.262  0.2992  0.3429 -0.2738
 5226TIP3    H115642   6.128   0.108   5.299  0.6756  0.4482  0.1974
 5226TIP3    H215643   6.138  -0.011   5.205 -0.3319  0.0785  0.5435
 5227TIP3   OH215644   5.482   6.308   5.449 -0.0855 -0.0856  0.2974
 5227TIP3    H115645   5.415   6.347   5.393  0.6532  0.5669 -0.1491
 5227TIP3    H215646   5.564   6.343   5.416  0.4208 -0.2774  1.3206
 5228TIP3   OH215647   4.221   3.988   1.570  0.0140 -0.4049 -0.3993
 5228TIP3    H115648   4.258   3.950   1.490  1.4626 -3.6883  1.6015
 5228TIP3    H215649   4.129   3.965   1.567  0.3069 -1.6312 -0.5986
 5229TIP3   OH215650   5.877   1.999   0.775 -0.1652  0.6008 -0.5835
 5229TIP3    H115651   5.956   1.996   0.829 -0.1157 -0.1339 -0.6843
 5229TIP3    H215652   5.902   1.956   0.693 -0.9346 -0.5332 -0.2464
 5230TIP3   OH215653   5.888   4.214   5.606  0.3895  0.4064  0.2670
 5230TIP3    H115654   5.850   4.299   5.584  1.7720  0.5275 -1.8858
 5230TIP3    H215655   5.869   4.204   5.700 -3.6008  1.0634 -0.2616
 5231TIP3   OH215656   3.306   5.090   0.175 -0.2062 -0.1265  0.0631
 5231TIP3    H115657   3.252   5.072   0.252  0.3769 -2.1420  0.0610
 5231TIP3    H215658   3.379   5.142   0.209 -0.8774  0.5413  0.5107
 5232TIP3   OH215659   3.632   6.754   5.816  0.3412 -0.9617 -0.5076
 5232TIP3    H115660   3.685   6.675   5.826  1.6708  0.0868  1.6366
 5232TIP3    H215661   3.678   6.805   5.750  1.5788 -0.4628  0.6803
 5233TIP3   OH215662   3.962   5.259   5.095  0.4589 -0.3708  0.1538
 5233TIP3    H115663   3.973   5.227   5.006  2.5586 -2.8666  1.1876
 5233TIP3    H215664   4.027   5.328   5.105  1.0548 -0.9234  0.1040
 5234TIP3   OH215665   7.022   4.764   0.336  0.4306  0.1721 -0.1865
 5234TIP3    H115666   6.993   4.680   0.300 -0.7235  1.2651 -1.9374
 5234TIP3    H215667   6.942   4.805   0.370  0.8550  0.8356  0.0362
 5235TIP3   OH215668   4.161   4.476   1.110 -0.3293  0.1900 -0.2130
 5235TIP3    H115669   4.130   4.558   1.072 -0.7403 -0.0033 -0.2974
 5235TIP3    H215670   4.235   4.450   1.055 -0.6839  0.1073 -0.6520
 5236TIP3   OH215671   1.301   6.392   3.716  0.3975 -0.3861  0.4339
 5236TIP3    H115672   1.342   6.375   3.631  0.4676  0.2818  0.3249
 5236TIP3    H215673   1.349   6.338   3.778  0.4106 -0.8022  0.0620
 5237TIP3   OH215674   5.790   1.197   1.464  0.4013  0.2391  0.0796
 5237TIP3    H115675   5.818   1.181   1.554 -0.2444  2.5375  0.7407
 5237TIP3    H215676   5.861   1.161   1.411  1.5541  0.2549  1.5393
 5238TIP3   OH215677   4.933   4.180   5.164  0.0853  0.4342  0.9499
 5238TIP3    H115678   4.898   4.098   5.199 -0.3271 -0.3360 -1.1409
 5238TIP3    H215679   5.027   4.173   5.177  0.0365 -0.3098  0.9406
 5239TIP3   OH215680   2.306   0.083   3.619  0.2733  0.2665 -0.4424
 5239TIP3    H115681   2.311   0.175   3.593  0.3954 -0.2804 -2.5923
 5239TIP3    H215682   2.256   0.084   3.700  0.2380  2.2298 -0.4324
 5240TIP3   OH215683   3.037   6.173   1.688 -0.1490 -0.0578  0.3731
 5240TIP3    H115684   3.108   6.196   1.628 -0.1923 -1.5149 -0.2561
 5240TIP3    H215685   2.980   6.250   1.687  0.9303  0.7682  0.1786
 5241TIP3   OH215686   6.136   5.202   2.238 -0.6553 -0.1206 -0.3103
 5241TIP3    H115687   6.149   5.295   2.260  0.0575  0.3161 -2.3207
 5241TIP3    H215688   6.218   5.177   2.195  0.1258 -2.4039  2.2287
 5242TIP3   OH215689   0.978   4.858   4.505  0.0777  0.0242  0.2697
 5242TIP3    H115690   1.072   4.856   4.523  0.4721  0.3295 -1.5770
 5242TIP3    H215691   0.958   4.770   4.475  0.1879  0.4444 -1.1112
 5243TIP3   OH215692   7.082   2.991   4.906  0.0502 -1.0143 -0.0363
 5243TIP3    H115693   7.122   3.072   4.935 -0.6713 -0.4487 -0.5720
 5243TIP3    H215694   6.992   2.994   4.941 -0.4792 -0.8267 -1.3424
 5244TIP3   OH215695   0.678   6.071   1.607  0.3003  0.3694  0.2725
 5244TIP3    H115696   0.745   6.139   1.615  1.8224 -1.2729  2.6575
 5244TIP3    H215697   0.606   6.101   1.662  1.0114  0.0771  1.4008
 5245TIP3   OH215698   6.137   2.586   5.275  0.7511  0.2248  0.0532
 5245TIP3    H115699   6.094   2.610   5.357  0.3563  0.4136 -0.2101
 5245TIP3    H215700   6.101   2.646   5.210 -0.1207 -0.9532 -0.5769
 5246TIP3   OH215701   5.184   5.872   2.829 -0.1235 -0.0132 -0.0917
 5246TIP3    H115702   5.166   5.800   2.889  1.1066 -0.2333  0.0396
 5246TIP3    H215703   5.272   5.855   2.796  0.4523  1.7287  0.4067
 5247TIP3   OH215704   5.091   2.433   0.453 -0.1243 -0.2212  0.7074
 5247TIP3    H115705   5.110   2.428   0.546 -1.4095  0.2072  1.0117
 5247TIP3    H215706   4.998   2.455   0.448  0.3450  1.8072 -0.6541
 5248TIP3   OH215707   6.079   3.458   4.237  0.2773 -0.4562  0.1222
 5248TIP3    H115708   6.054   3.419   4.321  0.8676 -1.0730  0.0177
 5248TIP3    H215709   6.061   3.552   4.248 -1.9782 -0.8367  0.0775
 5249TIP3   OH215710   6.162   3.705   3.324 -0.3078  0.3324  0.5687
 5249TIP3    H115711   6.075   3.671   3.344  0.3760  0.0674  3.5420
 5249TIP3    H215712   6.222   3.644   3.367  1.3375  1.0073 -0.6567
 5250TIP3   OH215713   2.185   3.036   2.554 -0.5007 -0.4891  0.4213
 5250TIP3    H115714   2.126   3.101   2.593 -0.8507 -1.6746  1.9602
 5250TIP3    H215715   2.139   3.007   2.474 -0.5281  0.8155 -0.0647
 5251TIP3   OH215716   3.796   2.269   3.836  0.5487  0.3093  0.1302
 5251TIP3    H115717   3.741   2.290   3.760 -1.6698  0.7006  1.7564
 5251TIP3    H215718   3.759   2.187   3.870  0.9078  0.6275  1.3267
 5252TIP3   OH215719   0.278   5.835   3.435  0.3082 -0.0669 -0.7000
 5252TIP3    H115720   0.197   5.792   3.464  0.8981  0.0593  1.2451
 5252TIP3    H215721   0.341   5.764   3.427  0.0639 -0.1611 -2.1965
 5253TIP3   OH215722   2.099   6.600   4.050  0.2337  0.0458 -0.0595
 5253TIP3    H115723   2.073   6.685   4.087 -2.2890 -0.0171 -1.4469
 5253TIP3    H215724   2.020   6.568   4.007  1.6878 -2.1152 -1.2843
 5254TIP3   OH215725   3.925   0.409   5.502 -0.1344  0.7343 -0.4567
 5254TIP3    H115726   3.901   0.338   5.442  0.4047  0.4514 -0.3451
 5254TIP3    H215727   3.976   0.366   5.570 -1.4159  0.9170  0.6567
 5255TIP3   OH215728   4.645   3.186   5.320  0.0760 -0.1882  0.2594
 5255TIP3    H115729   4.715   3.130   5.354  0.3309 -0.1979 -0.2579
 5255TIP3    H215730   4.689   3.242   5.256 -0.8608 -2.1578 -2.2653
 5256TIP3   OH215731   6.360   3.961   1.859  0.0272  0.1108  0.2820
 5256TIP3    H115732   6.365   4.051   1.890  2.1187 -0.2873  1.3055
 5256TIP3    H215733   6.384   3.965   1.767  1.0385  0.5099  0.5577
 5257TIP3   OH215734   3.490   5.851   0.290 -0.1955  0.0484  0.0600
 5257TIP3    H115735   3.551   5.923   0.277 -0.6511  0.3441 -0.5029
 5257TIP3    H215736   3.486   5.839   0.385 -0.5474  1.1450  0.1982
 5258TIP3   OH215737   3.467   2.720   2.338  0.0924  0.7315  0.0110
 5258TIP3    H115738   3.502   2.698   2.252 -1.6748 -4.2561  0.2556
 5258TIP3    H215739   3.375   2.740   2.322 -0.1956 -0.0147  0.6719
 5259TIP3   OH215740   5.614   2.629   2.762  0.1836 -0.1785 -0.0631
 5259TIP3    H115741   5.701   2.607   2.795 -0.5227 -2.7635  0.3250
 5259TIP3    H215742   5.617   2.606   2.669 -0.7374 -2.7890  0.4670
 5260TIP3   OH215743   1.751   1.569   5.459 -0.5858  0.0549  0.2034
 5260TIP3    H115744   1.728   1.572   5.366 -0.6808 -0.0681  0.2239
 5260TIP3    H215745   1.832   1.518   5.462  0.5508  1.7632 -0.0456
 5261TIP3   OH215746   0.674   5.941   3.179  0.1277 -0.4086 -0.0028
 5261TIP3    H115747   0.587   5.969   3.207 -0.2842 -0.0832 -1.5000
 5261TIP3    H215748   0.713   6.018   3.139  0.7787 -0.7728 -0.0864
 5262TIP3   OH215749   5.185   0.936   0.714 -0.7341 -0.1224  0.0469
 5262TIP3    H115750   5.272   0.937   0.753 -1.7054 -1.9254  2.5429
 5262TIP3    H215751   5.156   1.027   0.718  0.4137  0.2345  0.7128
 5263TIP3   OH215752   5.605   5.559   2.718 -0.5606  1.1626  0.1730
 5263TIP3    H115753   5.517   5.556   2.681  0.2246  1.2301 -1.8231
 5263TIP3    H215754   5.598   5.510   2.800 -2.0308 -0.5872 -0.9078
 5264TIP3   OH215755   3.403   0.973   5.716 -0.1902  0.1654 -0.0079
 5264TIP3    H115756   3.398   1.013   5.803 -0.7617 -0.3452  0.1906
 5264TIP3    H215757   3.486   1.007   5.680 -0.0322  0.5128  0.6608
 5265TIP3   OH215758   4.133   2.084   4.860 -0.3093 -0.0923 -0.2952
 5265TIP3    H115759   4.136   2.153   4.794  1.1086 -0.0730 -0.2496
 5265TIP3    H215760   4.218   2.089   4.903 -0.6894 -1.0133  0.6011
 5266TIP3   OH215761   4.886   1.106   1.517  0.8717 -0.0390  0.2379
 5266TIP3    H115762   4.965   1.106   1.463  0.9120  2.4402  0.2002
 5266TIP3    H215763   4.917   1.085   1.605  0.9727 -2.8449 -0.3676
 5267TIP3   OH215764   2.731   0.602   4.547  0.1200 -0.1976  0.1428
 5267TIP3    H115765   2.773   0.633   4.627 -1.0377  2.7410 -0.2636
 5267TIP3    H215766   2.703   0.682   4.502 -1.5072 -1.8319 -1.9734
 5268TIP3   OH215767   5.612   5.431   2.972  0.1799 -0.4284 -0.2610
 5268TIP3    H115768   5.628   5.346   2.932 -1.2773  0.1940 -2.3597
 5268TIP3    H215769   5.518   5.432   2.990 -0.0974  1.2127 -1.5860
 5269TIP3   OH215770   1.522   1.245   2.310 -0.2775 -0.1491 -0.1418
 5269TIP3    H115771   1.438   1.235   2.265 -0.4761  0.4516  0.0777
 5269TIP3    H215772   1.582   1.188   2.262 -1.3909 -2.6925  1.3189
 5270TIP3   OH215773   3.700   6.515   2.433 -0.0764  0.5965  0.2588
 5270TIP3    H115774   3.758   6.494   2.360 -0.9286 -1.1490  0.0061
 5270TIP3    H215775   3.716   6.445   2.496 -1.3311  0.5079  0.5041
 5271TIP3   OH215776   3.480   0.088   1.039  0.3815 -0.2453 -0.5806
 5271TIP3    H115777   3.427   0.132   1.105 -0.3376 -0.2752 -1.1274
 5271TIP3    H215778   3.496   0.001   1.076  0.7074  0.0234 -0.0761
 5272TIP3   OH215779   5.750   4.232   4.861 -0.0036  0.6932  0.5535
 5272TIP3    H115780   5.739   4.325   4.845  2.0707  0.8180 -0.4774
 5272TIP3    H215781   5.746   4.191   4.775  0.3928 -0.0040  0.8538
 5273TIP3   OH215782   5.515   4.849   0.500 -0.1111  0.2065 -0.4698
 5273TIP3    H115783   5.527   4.754   0.494  0.4096  0.3812 -3.3809
 5273TIP3    H215784   5.580   4.877   0.565  0.2195 -1.3233 -0.0905
 5274TIP3   OH215785   4.246   1.257   5.356 -0.1350 -0.2661  0.7165
 5274TIP3    H115786   4.195   1.176   5.359  0.0189 -0.4034 -0.0779
 5274TIP3    H215787   4.298   1.256   5.436  0.0502 -1.0821  0.5971
 5275TIP3   OH215788   0.207   3.725   4.457 -0.4667 -0.6615 -0.0967
 5275TIP3    H115789   0.283   3.668   4.469  1.2390  1.2948 -1.0069
 5275TIP3    H215790   0.207   3.782   4.534 -1.1151 -0.7294 -0.0383
 5276TIP3   OH215791   0.879   1.900   4.092 -0.6708 -0.0973 -0.1313
 5276TIP3    H115792   0.846   1.957   4.022  1.1882  0.3985 -0.6460
 5276TIP3    H215793   0.829   1.927   4.169 -1.7657  0.3064 -0.9463
 5277TIP3   OH215794   1.580   2.254   3.300 -0.3634  0.1030  0.1902
 5277TIP3    H115795   1.510   2.299   3.253 -1.9875 -2.5227 -0.0316
 5277TIP3    H215796   1.569   2.281   3.391 -0.7231  0.8081 -0.0490
 5278TIP3   OH215797   4.463   3.786   0.568  0.1562  0.0658 -0.4969
 5278TIP3    H115798   4.552   3.760   0.544  0.7228  0.9612  0.5205
 5278TIP3    H215799   4.429   3.830   0.490  0.7752  0.1357 -0.7350
 5279TIP3   OH215800   0.471   2.273   0.730  0.0828 -0.7753  0.1189
 5279TIP3    H115801   0.419   2.213   0.784  0.9840 -1.9971 -0.3192
 5279TIP3    H215802   0.413   2.295   0.657  0.1071 -2.0172 -0.3016
 5280TIP3   OH215803   0.841   0.159   0.898 -0.1035 -0.4861 -0.1235
 5280TIP3    H115804   0.827   0.253   0.905 -1.5726 -0.7802  1.5439
 5280TIP3    H215805   0.888   0.136   0.978  0.4770 -1.1612 -0.6381
 5281TIP3   OH215806   3.933   3.745   5.438  0.1612  0.4105  0.5283
 5281TIP3    H115807   3.953   3.654   5.413 -1.6133  0.2848 -0.6030
 5281TIP3    H215808   4.006   3.796   5.403  0.5167 -0.4314 -0.0019
 5282TIP3   OH215809   2.274   3.886   5.833  0.3781 -0.1474 -0.7653
 5282TIP3    H115810   2.217   3.959   5.810 -1.6785 -1.0495  1.0467
 5282TIP3    H215811   2.362   3.923   5.835 -0.5233  2.1206 -0.5236
 5283TIP3   OH215812   2.127   2.108   4.844 -0.6564  0.1641  0.2536
 5283TIP3    H115813   2.195   2.047   4.816  1.1531  2.1903 -0.0398
 5283TIP3    H215814   2.046   2.073   4.807  0.5002 -1.3537 -0.9536
 5284TIP3   OH215815   2.836   6.187   2.549 -0.4702 -0.3417  0.0754
 5284TIP3    H115816   2.858   6.164   2.459 -0.8853  1.7330 -0.6044
 5284TIP3    H215817   2.750   6.148   2.564 -0.1427 -1.1859 -0.2176
 5285TIP3   OH215818   5.397   1.096   0.541  0.3075 -0.0744 -0.0398
 5285TIP3    H115819   5.481   1.067   0.504  0.5288  0.8430 -0.2784
 5285TIP3    H215820   5.369   1.023   0.595  1.9718  0.1346  1.2060
 5286TIP3   OH215821   6.273   6.310   3.634  0.2295  0.1102 -0.3306
 5286TIP3    H115822   6.335   6.237   3.644 -0.5506 -0.5070  0.0852
 5286TIP3    H215823   6.191   6.277   3.671  0.0447  1.4479  0.5243
 5287TIP3   OH215824   6.261   2.690   4.724  0.1345  0.6127 -0.0482
 5287TIP3    H115825   6.213   2.767   4.694  0.1715  0.1175 -1.4624
 5287TIP3    H215826   6.195   2.634   4.765  0.1315  1.4377  1.1119
 5288TIP3   OH215827   0.921   2.152   0.458 -0.1931 -0.3780 -0.2373
 5288TIP3    H115828   0.853   2.155   0.525  0.7570 -1.9532  0.8498
 5288TIP3    H215829   0.997   2.192   0.500 -0.6600  2.4859 -1.8356
 5289TIP3   OH215830   2.416   4.300   0.147 -0.0990 -0.4956 -0.5013
 5289TIP3    H115831   2.332   4.263   0.175 -1.0113  1.4691 -0.4696
 5289TIP3    H215832   2.405   4.318   0.054  0.0649  0.2655 -0.3839
 5290TIP3   OH215833   1.899   4.406   1.703  0.1061 -0.1069 -0.4957
 5290TIP3    H115834   1.890   4.370   1.791  0.2160 -3.1646 -1.6316
 5290TIP3    H215835   1.992   4.428   1.695  0.2206 -0.4265 -0.0607
 5291TIP3   OH215836   6.366   2.504   1.819  0.0568  0.5665 -0.3210
 5291TIP3    H115837   6.386   2.587   1.862  0.6967  0.0756  0.3389
 5291TIP3    H215838   6.417   2.506   1.738 -0.3984  1.0669 -0.6075
 5292TIP3   OH215839   2.901   5.810   4.754  0.2853 -0.1870  0.1831
 5292TIP3    H115840   2.996   5.815   4.765  0.0904  1.4176  1.5971
 5292TIP3    H215841   2.866   5.877   4.813 -1.6964 -0.0892 -1.0068
 5293TIP3   OH215842   3.329   5.994   2.728 -0.0209 -0.4005  0.3402
 5293TIP3    H115843   3.398   6.041   2.774 -1.0547 -0.7466  2.3560
 5293TIP3    H215844   3.251   6.046   2.741 -0.5895 -1.1514  0.0284
 5294TIP3   OH215845   2.162   3.229   5.361 -0.3293 -0.0505  0.0306
 5294TIP3    H115846   2.225   3.238   5.289  0.8279 -1.1306  0.8753
 5294TIP3    H215847   2.120   3.315   5.366  1.7289  1.0299  0.0169
 5295TIP3   OH215848   4.534   1.867   3.950 -0.3762  0.2033  0.0244
 5295TIP3    H115849   4.628   1.862   3.934 -0.5086 -3.0508 -0.5293
 5295TIP3    H215850   4.505   1.945   3.902  1.8255  0.4711 -0.9917
 5296TIP3   OH215851   3.336   1.252   2.529  0.7579 -0.2011  0.8519
 5296TIP3    H115852   3.321   1.288   2.441  0.5864 -0.6647  0.6890
 5296TIP3    H215853   3.423   1.212   2.524  1.5554  1.3943  1.4361
 5297TIP3   OH215854   6.292   5.190   0.016  0.4912 -0.7671 -0.1979
 5297TIP3    H115855   6.363   5.226   0.069  0.0028 -1.5699  1.0383
 5297TIP3    H215856   6.214   5.198   0.072 -0.3511 -0.1873 -1.4113
 5298TIP3   OH215857   6.703   1.627   4.863 -0.1115  0.1481  0.4751
 5298TIP3    H115858   6.780   1.573   4.844 -0.1463 -0.5782  2.2132
 5298TIP3    H215859   6.720   1.710   4.819 -0.0215 -1.1778 -2.2336
 5299TIP3   OH215860   5.515   6.378   2.729 -0.2999  0.5328  0.2063
 5299TIP3    H115861   5.479   6.433   2.660  1.8837  0.7724 -0.7968
 5299TIP3    H215862   5.455   6.390   2.803 -2.1076  1.0643 -1.2859
 5300TIP3   OH215863   1.512   4.378   1.831 -0.5545 -0.0510 -0.2177
 5300TIP3    H115864   1.548   4.460   1.866 -0.4938 -1.6383  4.0441
 5300TIP3    H215865   1.583   4.315   1.837 -1.1146 -0.8886 -1.7563
 5301TIP3   OH215866   5.939   1.033   4.182  0.0629 -0.9993  0.6193
 5301TIP3    H115867   5.965   0.975   4.110  1.7598  0.6200 -0.1554
 5301TIP3    H215868   5.982   1.117   4.162 -1.2431  0.1497  2.3690
 5302TIP3   OH215869   0.458   5.766   0.062 -0.2036  0.6655  0.1685
 5302TIP3    H115870   0.546   5.798   0.079 -0.3568  0.9597  0.4243
 5302TIP3    H215871   0.464   5.671   0.070  0.0985  0.6809  0.1344
 5303TIP3   OH215872   4.486   2.456   0.464 -0.5618  0.5505  0.4333
 5303TIP3    H115873   4.554   2.449   0.531  1.9224 -1.5623 -2.1029
 5303TIP3    H215874   4.478   2.551   0.449 -0.1877  0.9938  2.6375
 5304TIP3   OH215875   3.970   4.342   2.812  0.3910  0.2601  0.6378
 5304TIP3    H115876   4.044   4.327   2.871  0.0320  1.5821  1.4721
 5304TIP3    H215877   3.938   4.430   2.836 -1.9489 -0.5849  0.8790
 5305TIP3   OH215878   6.427   5.122   1.595 -0.0943  0.3904 -0.3688
 5305TIP3    H115879   6.439   5.106   1.501  0.7806  1.5321 -0.4727
 5305TIP3    H215880   6.441   5.216   1.606 -2.3513  0.6742  0.6038
 5306TIP3   OH215881   0.438   1.010   0.296 -0.0220  0.3076 -0.2449
 5306TIP3    H115882   0.459   0.933   0.348  1.7657  1.9826  1.7466
 5306TIP3    H215883   0.517   1.065   0.303 -0.7911  1.8397 -2.4899
 5307TIP3   OH215884   4.002   1.122   2.936  0.7675 -0.3733 -0.5154
 5307TIP3    H115885   4.011   1.099   3.029  1.1530 -0.9804 -0.6919
 5307TIP3    H215886   4.023   1.215   2.932  0.7009 -0.3317  0.0149
 5308TIP3   OH215887   7.232   6.480   0.266 -0.2289 -0.1742  0.0531
 5308TIP3    H115888   7.153   6.506   0.313 -0.2906  0.3964 -0.3603
 5308TIP3    H215889   7.229   6.384   0.266  0.4755 -0.2616  2.3763
 5309TIP3   OH215890   5.299   5.563   5.774 -0.5646 -0.1899  0.5397
 5309TIP3    H115891   5.390   5.588   5.790 -0.7437 -0.0539  1.3991
 5309TIP3    H215892   5.301   5.518   5.690  0.3178 -0.2982  0.6108
 5310TIP3   OH215893   3.892   5.506   0.635 -0.1174 -0.2385 -0.5286
 5310TIP3    H115894   3.902   5.513   0.541  1.2716  1.1969 -0.2995
 5310TIP3    H215895   3.964   5.556   0.672 -1.2634  0.1762  1.3122
 5311TIP3   OH215896   0.274   4.043   4.523 -0.3767 -0.6731 -0.1615
 5311TIP3    H115897   0.273   3.985   4.600  0.9848 -0.5278 -0.0096
 5311TIP3    H215898   0.362   4.033   4.488 -0.8852 -0.4771 -1.5230
 5312TIP3   OH215899   1.417   1.353   4.289 -0.2129  0.1283  0.2674
 5312TIP3    H115900   1.323   1.371   4.285 -0.2666  0.0620  1.0147
 5312TIP3    H215901   1.442   1.375   4.379  0.6116  0.7098 -0.0882
 5313TIP3   OH215902   4.541   3.325   1.762  0.0084 -0.4198 -0.1317
 5313TIP3    H115903   4.591   3.251   1.796  1.2911  0.9988  1.2853
 5313TIP3    H215904   4.452   3.292   1.752  0.2558 -1.8286  1.6471
 5314TIP3   OH215905   3.392   0.846   4.233 -0.7278 -0.2666 -0.3589
 5314TIP3    H115906   3.347   0.914   4.182  0.0001  0.1123 -0.5072
 5314TIP3    H215907   3.474   0.831   4.186  0.6499  1.1396  1.4583
 5315TIP3   OH215908   5.239   5.920   5.762  0.0700 -0.4498  0.8025
 5315TIP3    H115909   5.305   5.870   5.809 -0.2328 -0.6783  0.9918
 5315TIP3    H215910   5.237   6.005   5.805  2.8505  0.9362 -1.4791
 5316TIP3   OH215911   3.494   1.315   4.834  0.2536  0.4710 -0.2542
 5316TIP3    H115912   3.526   1.248   4.774  0.2252  0.1856  0.0484
 5316TIP3    H215913   3.442   1.374   4.779 -1.0451 -0.6293 -0.2551
 5317TIP3   OH215914   2.202   3.236   1.836  0.1030  0.1583 -0.1491
 5317TIP3    H115915   2.221   3.327   1.861  0.3924  0.0795 -0.0756
 5317TIP3    H215916   2.270   3.185   1.881 -0.8941 -0.2404  0.9482
 5318TIP3   OH215917   2.205   2.572   4.349 -0.0119 -0.2974  0.3885
 5318TIP3    H115918   2.224   2.637   4.281 -2.6568  0.7741  0.5362
 5318TIP3    H215919   2.144   2.617   4.408 -0.6805 -2.4153  1.4022
 5319TIP3   OH215920   6.690   6.353   3.589  0.4544 -0.1601  0.2925
 5319TIP3    H115921   6.709   6.445   3.571  2.3842 -0.4420  0.6273
 5319TIP3    H215922   6.699   6.344   3.683 -0.4049 -0.5766  0.3474
 5320TIP3   OH215923   3.415   0.158   0.066  0.0087 -0.1405 -0.0913
 5320TIP3    H115924   3.443   0.087   0.123 -0.8824 -0.8544 -0.5019
 5320TIP3    H215925   3.384   0.114  -0.013 -1.1078  0.6470 -0.1280
 5321TIP3   OH215926   0.130   1.765   2.876  0.3976 -0.0565 -0.5724
 5321TIP3    H115927   0.145   1.671   2.865  4.1410  0.1398  1.3073
 5321TIP3    H215928   0.174   1.806   2.801  1.8823  0.2531  0.4286
 5322TIP3   OH215929   0.208   2.877   4.208 -0.9165 -1.0685  0.1914
 5322TIP3    H115930   0.216   2.927   4.126 -1.2646 -1.5258 -0.1224
 5322TIP3    H215931   0.205   2.786   4.180  0.1811 -1.3056  0.7940
 5323TIP3   OH215932   6.868   4.583   5.479  0.0132 -0.2848 -0.5442
 5323TIP3    H115933   6.891   4.605   5.389  2.0985 -0.2366 -0.0398
 5323TIP3    H215934   6.798   4.518   5.471  0.3841 -0.5208 -2.1858
 5324TIP3   OH215935   2.992   2.774   1.027 -0.0289  0.5780  0.0739
 5324TIP3    H115936   3.055   2.740   1.090  1.3220  0.7752 -1.1172
 5324TIP3    H215937   3.041   2.837   0.975 -1.3534  1.1192 -0.5860
 5325TIP3   OH215938   5.709   0.770   0.492  0.1685  0.0299 -0.3378
 5325TIP3    H115939   5.717   0.732   0.404  1.0785  0.7265 -0.5689
 5325TIP3    H215940   5.647   0.712   0.537 -0.8501  0.0409 -1.6434
 5326TIP3   OH215941   4.157   4.024   0.912 -0.5640  0.1759  0.0056
 5326TIP3    H115942   4.148   4.072   0.830  0.9429  1.4097  0.4950
 5326TIP3    H215943   4.068   4.000   0.937 -1.3249  2.1964 -0.5938
 5327TIP3   OH215944   3.436   0.527   4.800 -0.0594 -0.6210  0.5559
 5327TIP3    H115945   3.478   0.604   4.764 -0.2835 -1.5611 -1.9049
 5327TIP3    H215946   3.496   0.495   4.867  0.8037  0.7307  0.4560
 5328TIP3   OH215947   6.289   1.092   4.939  0.3240  0.0699 -0.1637
 5328TIP3    H115948   6.248   1.092   5.025  1.1950  0.5515  0.2629
 5328TIP3    H215949   6.282   1.183   4.910  1.5462  0.2709  0.1420
 5329TIP3   OH215950   3.308   6.060   4.505  0.0185  0.2109  0.1155
 5329TIP3    H115951   3.372   6.129   4.521  1.0033 -0.6502  0.0309
 5329TIP3    H215952   3.357   5.992   4.459 -0.8973 -0.5877  0.2774
 5330TIP3   OH215953   1.883   3.987   4.451  0.8556 -0.3587  0.2057
 5330TIP3    H115954   1.877   3.916   4.515  1.1593 -0.8715 -0.3233
 5330TIP3    H215955   1.921   3.946   4.373  1.0211  0.3821 -0.1135
 5331TIP3   OH215956   1.691   4.615   1.200  0.4666  0.4330 -0.0565
 5331TIP3    H115957   1.734   4.683   1.251  1.0176 -0.1341  0.2470
 5331TIP3    H215958   1.750   4.540   1.204  0.9117  0.5959 -2.1587
 5332TIP3   OH215959   1.111   3.630   4.646 -0.3442 -0.3595 -0.1206
 5332TIP3    H115960   1.167   3.590   4.580 -0.0193  2.9171 -2.0588
 5332TIP3    H215961   1.169   3.642   4.722  0.7222  0.2013 -0.9997
 5333TIP3   OH215962   4.277   6.170   0.417 -0.5320  0.8011  0.5641
 5333TIP3    H115963   4.338   6.135   0.352 -1.2702 -1.0343  0.8115
 5333TIP3    H215964   4.219   6.228   0.367 -1.6880 -1.3058 -0.6637
 5334TIP3   OH215965   6.182   5.957   4.768  0.7181 -0.1711  0.3196
 5334TIP3    H115966   6.101   6.008   4.773  0.3813 -0.2624 -2.6690
 5334TIP3    H215967   6.244   6.013   4.722  1.7890 -0.7950  0.9522
 5335TIP3   OH215968   3.116   2.584   2.772 -0.5635  0.8922 -0.2958
 5335TIP3    H115969   3.153   2.500   2.800 -0.4626  0.7799 -0.7638
 5335TIP3    H215970   3.172   2.650   2.812 -0.0559  0.7266 -0.7202
 5336TIP3   OH215971   0.626   2.625   1.137  0.3869  0.2671  0.1175
 5336TIP3    H115972   0.674   2.543   1.130  1.2704  0.5737  1.9808
 5336TIP3    H215973   0.538   2.604   1.106  0.7629 -1.2028 -0.0359
 5337TIP3   OH215974   3.697   6.500   0.931 -0.4088  0.1376  0.0402
 5337TIP3    H115975   3.681   6.575   0.874  0.3015 -1.2727 -2.0968
 5337TIP3    H215976   3.647   6.428   0.892 -0.0373 -0.8535  1.3073
 5338TIP3   OH215977   4.182   4.618   3.679 -0.7020  0.2561 -0.3869
 5338TIP3    H115978   4.222   4.705   3.684 -0.2601  0.0392 -0.1444
 5338TIP3    H215979   4.089   4.636   3.663 -0.5581  0.7659 -0.6769
 5339TIP3   OH215980   3.858   6.660   0.001 -0.6954 -0.1946 -0.4000
 5339TIP3    H115981   3.831   6.749   0.024 -1.1782 -0.4673  0.0859
 5339TIP3    H215982   3.952   6.668  -0.017 -0.8868  0.5519 -1.0900
 5340TIP3   OH215983   2.594   4.966   0.083 -0.0755 -0.1251  0.1956
 5340TIP3    H115984   2.587   5.059   0.101  0.7390 -0.1971  0.9274
 5340TIP3    H215985   2.519   4.927   0.129  0.0999  0.0697  0.6474
 5341TIP3   OH215986   1.256   0.521   2.245 -0.4511  0.2620  0.5290
 5341TIP3    H115987   1.168   0.490   2.265 -0.7991  2.7328  3.7080
 5341TIP3    H215988   1.312   0.444   2.256 -2.0795 -1.3424 -1.5046
 5342TIP3   OH215989   6.877   3.675   1.719 -0.4153  0.1825 -0.5277
 5342TIP3    H115990   6.785   3.655   1.736 -0.3180  0.9965  1.1422
 5342TIP3    H215991   6.925   3.624   1.784  0.1580  1.5302  0.1420
 5343TIP3   OH215992   5.365   1.959   3.645 -0.0019  0.1378  0.2253
 5343TIP3    H115993   5.455   1.930   3.630  0.0952  0.5999 -0.1253
 5343TIP3    H215994   5.319   1.935   3.564  0.5306  2.6909 -0.9455
 5344TIP3   OH215995   2.202   6.080   3.152  0.2834 -0.2280  0.1453
 5344TIP3    H115996   2.249   6.004   3.119 -0.8159 -1.1435  0.6489
 5344TIP3    H215997   2.232   6.090   3.242  0.3272 -0.1335  0.1211
 5345TIP3   OH215998   1.612   0.114   5.797 -0.5081 -0.4462  0.2474
 5345TIP3    H115999   1.693   0.123   5.746  0.3575 -0.0914  1.6415
 5345TIP3    H216000   1.605   0.196   5.845 -2.1820 -0.1177 -0.4976
 5346TIP3   OH216001   1.246   1.454   0.166  0.8050 -0.1774 -0.0026
 5346TIP3    H116002   1.173   1.491   0.217 -0.2995  1.1018 -2.3246
 5346TIP3    H216003   1.296   1.531   0.138  2.5306 -0.9865  0.7716
 5347TIP3   OH216004   4.209   3.797   4.621 -0.2209 -0.4372 -0.0217
 5347TIP3    H116005   4.194   3.791   4.716  1.0537  1.4374  0.3583
 5347TIP3    H216006   4.173   3.883   4.597  0.8779 -0.2163 -0.9218
 5348TIP3   OH216007   2.038   4.331   2.808  0.4803  0.2321  0.1130
 5348TIP3    H116008   2.094   4.263   2.771 -1.7374 -2.4595  1.3333
 5348TIP3    H216009   2.093   4.376   2.872  1.8998 -0.6950 -0.4064
 5349TIP3   OH216010   2.942   5.296   0.679 -0.0587  0.2991  0.4736
 5349TIP3    H116011   3.021   5.347   0.659 -0.8673  1.1556 -0.7446
 5349TIP3    H216012   2.974   5.215   0.718  1.3877  0.8720  0.5294
 5350TIP3   OH216013   6.884   6.779   0.972 -0.2327  0.2698  0.0302
 5350TIP3    H116014   6.848   6.695   0.943 -0.6517  0.2603  0.5557
 5350TIP3    H216015   6.930   6.813   0.896  1.2618 -1.1512  0.2487
 5351TIP3   OH216016   6.384   6.803   4.674  0.2241 -0.3477 -0.1242
 5351TIP3    H116017   6.301   6.846   4.694  0.0613 -0.4341 -0.6078
 5351TIP3    H216018   6.385   6.724   4.729 -0.5003 -0.9104 -0.8978
 5352TIP3   OH216019   3.375   5.484   2.228  0.1337  0.4811  0.1794
 5352TIP3    H116020   3.401   5.454   2.315  0.9904  2.4153  0.6500
 5352TIP3    H216021   3.332   5.568   2.244 -0.4663  0.4538 -1.2050
 5353TIP3   OH216022   0.212   0.542   2.634  0.1636  0.1571 -0.2118
 5353TIP3    H116023   0.178   0.631   2.630  2.1357  0.9057 -1.7122
 5353TIP3    H216024   0.228   0.518   2.543 -1.6530 -2.3225  0.0173
 5354TIP3   OH216025   0.784   6.266   1.084 -0.1494 -0.4137 -0.4334
 5354TIP3    H116026   0.715   6.316   1.042 -1.4014 -1.7713 -0.0884
 5354TIP3    H216027   0.738   6.206   1.142  1.2848 -1.8326 -0.6881
 5355TIP3   OH216028   1.439   3.352   1.736 -0.3091 -0.0515 -0.3984
 5355TIP3    H116029   1.412   3.368   1.646  1.4557 -1.6755 -1.2976
 5355TIP3    H216030   1.435   3.438   1.779 -1.8500  0.6146 -1.8093
 5356TIP3   OH216031   5.622   1.082   4.017 -0.0428 -0.1364 -0.1421
 5356TIP3    H116032   5.572   1.068   3.936 -1.5551 -0.4017  0.7981
 5356TIP3    H216033   5.641   1.176   4.017  1.1807 -0.3461 -1.4465
 5357TIP3   OH216034   6.326   1.868   2.795 -0.7839  0.8746  0.0534
 5357TIP3    H116035   6.279   1.915   2.725 -1.4529  0.7773  0.4221
 5357TIP3    H216036   6.329   1.777   2.766 -2.3966  0.5397  0.7960
 5358TIP3   OH216037   1.955   2.437   2.705 -0.1027 -0.5378 -0.1668
 5358TIP3    H116038   1.860   2.438   2.693  0.1526  0.9785 -3.0336
 5358TIP3    H216039   1.982   2.529   2.696  1.6107 -0.8472  1.2034
 5359TIP3   OH216040   5.802   5.159   0.284  0.7990 -0.2687  0.0819
 5359TIP3    H116041   5.787   5.248   0.317  0.6478 -1.0456  2.2711
 5359TIP3    H216042   5.716   5.118   0.286  0.7733 -0.3523 -1.4271
 5360TIP3   OH216043   1.041   1.695   3.990 -0.0676 -0.3784  0.2944
 5360TIP3    H116044   1.008   1.711   3.902  0.3538  1.0080  0.3673
 5360TIP3    H216045   0.975   1.734   4.048  1.3818  2.0216  0.4556
 5361TIP3   OH216046   6.728   0.551   4.665  0.5921  0.5792  0.4415
 5361TIP3    H116047   6.758   0.642   4.660 -2.8179  1.9261  1.7401
 5361TIP3    H216048   6.677   0.538   4.585  0.0924  0.2286  0.8071
 5362TIP3   OH216049   3.424   0.460   0.696  0.7836  0.4606 -0.4602
 5362TIP3    H116050   3.343   0.506   0.672  1.6411  2.3405  0.0628
 5362TIP3    H216051   3.491   0.529   0.697  2.7129 -1.2478 -2.2904
 5363TIP3   OH216052   1.598   0.390   3.064  0.5550 -0.1412 -0.0020
 5363TIP3    H116053   1.531   0.444   3.106 -0.3561 -0.2121 -1.2948
 5363TIP3    H216054   1.562   0.301   3.067  0.6834 -0.2137 -0.5218
 5364TIP3   OH216055   4.087   1.270   5.839 -0.2184 -0.3624 -0.1769
 5364TIP3    H116056   4.028   1.340   5.866 -0.2109 -0.7859  1.0224
 5364TIP3    H216057   4.038   1.219   5.775  0.0384  1.1362 -1.6270
 5365TIP3   OH216058   5.519   2.312   1.264 -0.1664  0.1701 -0.3437
 5365TIP3    H116059   5.488   2.318   1.355 -0.5544  1.2534 -0.5256
 5365TIP3    H216060   5.465   2.375   1.217  0.3063 -0.0952 -1.2584
 5366TIP3   OH216061   5.181   0.979   5.301 -0.0348 -0.1439  0.1603
 5366TIP3    H116062   5.202   1.072   5.302 -1.1342  0.1317 -0.4502
 5366TIP3    H216063   5.112   0.970   5.235  0.5869 -1.5197 -0.3452
 5367TIP3   OH216064   6.196   4.755   2.318 -0.9337 -0.2462 -0.1964
 5367TIP3    H116065   6.281   4.752   2.275  0.1823  0.5824  1.8116
 5367TIP3    H216066   6.182   4.666   2.350 -1.2376 -0.5834 -1.2214
 5368TIP3   OH216067   5.764   5.337   5.246 -0.7044  0.3142 -0.0361
 5368TIP3    H116068   5.823   5.370   5.179 -2.6758  0.9135 -1.5791
 5368TIP3    H216069   5.782   5.390   5.323  1.2460 -0.0342 -0.1951
 5369TIP3   OH216070   2.143   1.289   2.481  0.5411 -0.3174  0.2022
 5369TIP3    H116071   2.211   1.336   2.530  0.0190 -0.7335  1.3598
 5369TIP3    H216072   2.138   1.334   2.397  0.9391  0.8840  0.8054
 5370TIP3   OH216073   5.302   0.549   5.581 -0.0341 -0.4829 -0.0803
 5370TIP3    H116074   5.314   0.602   5.502  0.3179  0.1833  0.4083
 5370TIP3    H216075   5.282   0.462   5.549 -0.0052 -0.1917 -0.9076
 5371TIP3   OH216076   0.541   3.538   5.576  0.8519  0.3091 -0.5893
 5371TIP3    H116077   0.532   3.633   5.576  1.2983  0.4150  1.7027
 5371TIP3    H216078   0.634   3.523   5.557  0.7097  0.3036 -1.2969
 5372TIP3   OH216079   2.926   4.945   0.547  0.7411 -0.0538 -0.1107
 5372TIP3    H116080   2.946   4.979   0.635  3.5813 -1.0102 -0.2784
 5372TIP3    H216081   2.931   4.850   0.556 -1.8133 -0.3101 -0.7644
 5373TIP3   OH216082   4.242   4.723   0.992  0.2515  0.0633 -0.0877
 5373TIP3    H116083   4.326   4.690   0.960  0.5697 -0.1408  0.9437
 5373TIP3    H216084   4.257   4.744   1.084 -0.4405  1.3635 -0.2329
 5374TIP3   OH216085   1.129   0.988   4.858  0.0977 -0.1805 -0.4425
 5374TIP3    H116086   1.203   0.982   4.918  1.3073  1.1185 -1.7069
 5374TIP3    H216087   1.142   0.917   4.795 -0.6596 -0.9603  0.2482
 5375TIP3   OH216088   3.231   1.675   4.564 -0.3248  0.2889  0.3454
 5375TIP3    H116089   3.152   1.710   4.606 -1.0993 -0.2895 -0.5715
 5375TIP3    H216090   3.298   1.679   4.631 -0.7657  2.1143  0.7445
 5376TIP3   OH216091   5.732   2.201   2.716 -0.0864 -0.1556  0.4038
 5376TIP3    H116092   5.744   2.207   2.811  1.1311  1.1137  0.2007
 5376TIP3    H216093   5.721   2.292   2.687  1.7599 -0.2880 -0.9074
 5377TIP3   OH216094   5.524   2.227   3.720 -0.0445  0.4785  0.5308
 5377TIP3    H116095   5.435   2.214   3.687  0.1256 -0.9008  0.5896
 5377TIP3    H216096   5.575   2.157   3.681  1.1689  1.6194  0.0170
 5378TIP3   OH216097   6.069   0.843   1.853  0.1507  0.3336 -0.3657
 5378TIP3    H116098   5.992   0.790   1.835 -0.7461  1.4140  0.1585
 5378TIP3    H216099   6.143   0.788   1.828 -0.7045 -1.4535  0.8370
 5379TIP3   OH216100   6.558   4.189   2.609 -0.1023 -0.3347 -0.2361
 5379TIP3    H116101   6.562   4.098   2.638  0.8252 -0.5832 -1.0803
 5379TIP3    H216102   6.569   4.241   2.689  0.0782 -0.9757  0.1564
 5380TIP3   OH216103   0.152   4.705   4.187  0.1275 -0.0769 -0.4767
 5380TIP3    H116104   0.221   4.654   4.145 -0.1333 -0.6644 -0.2024
 5380TIP3    H216105   0.080   4.704   4.123  0.1822  0.0773 -0.5389
 5381TIP3   OH216106   3.482   5.448   3.576 -0.9272 -0.2561 -0.6200
 5381TIP3    H116107   3.522   5.467   3.491  0.8554  0.9784  0.4126
 5381TIP3    H216108   3.496   5.528   3.627 -1.2531 -1.2333  1.0850
 5382TIP3   OH216109   1.373   5.587   0.882  0.4382 -0.0634 -0.6509
 5382TIP3    H116110   1.445   5.642   0.911  1.1877  0.3287 -3.0542
 5382TIP3    H216111   1.300   5.648   0.868  0.0635 -0.2571  0.3944
 5383TIP3   OH216112   3.850   5.158   4.037  0.0005 -0.4696  0.0707
 5383TIP3    H116113   3.881   5.153   3.947  0.0403  1.9134 -0.1329
 5383TIP3    H216114   3.831   5.251   4.050 -0.4669 -0.8233  2.3810
 5384TIP3   OH216115   6.681   4.210   5.504  0.2684  0.3136 -0.0770
 5384TIP3    H116116   6.728   4.153   5.443  0.2595 -0.3076  0.4887
 5384TIP3    H216117   6.631   4.150   5.560 -0.9890  0.9536 -0.4861
 5385TIP3   OH216118   6.353   5.249   1.997 -0.2148  0.4854  0.3125
 5385TIP3    H116119   6.388   5.164   1.969 -0.4623  0.4722  0.0341
 5385TIP3    H216120   6.393   5.264   2.082 -0.9411 -0.3991  0.8389
 5386TIP3   OH216121   3.026   2.423   3.298  0.3840  0.4702  0.3070
 5386TIP3    H116122   2.985   2.337   3.306  1.2429  0.0415  0.1812
 5386TIP3    H216123   3.005   2.468   3.380  0.8438 -0.2664  0.8389
 5387TIP3   OH216124   6.124   5.175   1.475  0.4887 -0.0883  0.2759
 5387TIP3    H116125   6.177   5.100   1.503 -0.6416 -0.6587  0.9670
 5387TIP3    H216126   6.137   5.240   1.544  2.3660  0.8577 -0.8727
 5388TIP3   OH216127   2.705   5.637   0.808 -0.7014  0.3754  0.2453
 5388TIP3    H116128   2.617   5.622   0.842  0.0782 -1.2549  1.7209
 5388TIP3    H216129   2.709   5.583   0.728 -0.4631 -1.1878  1.2580
 5389TIP3   OH216130   1.068   5.140   3.204 -0.4013 -0.4074  0.0872
 5389TIP3    H116131   1.115   5.115   3.284  0.2621  1.2933  0.2861
 5389TIP3    H216132   0.988   5.181   3.236 -0.4911 -0.4022 -0.1423
 5390TIP3   OH216133   4.346   3.431   4.828  0.0644  0.4968  0.3252
 5390TIP3    H116134   4.304   3.369   4.768  0.8326 -1.0278  1.3009
 5390TIP3    H216135   4.436   3.400   4.836 -0.2704  0.0072  3.0577
 5391TIP3   OH216136   0.496   4.465   4.972 -0.1274 -0.1265 -0.7313
 5391TIP3    H116137   0.541   4.511   5.042  0.3430 -0.9199 -0.5022
 5391TIP3    H216138   0.416   4.431   5.012  0.6632 -1.5111 -0.2732
 5392TIP3   OH216139   6.001   3.234   5.161  0.7521 -0.0826  0.0326
 5392TIP3    H116140   5.946   3.159   5.138  0.0983  0.5799 -0.5978
 5392TIP3    H216141   5.964   3.265   5.244  0.6828 -0.1355  0.0222
 5393TIP3   OH216142   6.554   0.204   1.637 -0.4372  0.2945 -0.2013
 5393TIP3    H116143   6.549   0.197   1.541 -1.4538  1.1329 -0.2271
 5393TIP3    H216144   6.620   0.140   1.662 -0.0273  0.1836 -1.4832
 5394TIP3   OH216145   3.624   2.961   3.364 -0.9237  0.0135 -0.2004
 5394TIP3    H116146   3.609   3.055   3.353 -0.8444  0.0101 -0.3350
 5394TIP3    H216147   3.718   2.953   3.381 -0.7060 -0.1463 -1.3799
 5395TIP3   OH216148   0.135   6.459   0.549 -0.0430  0.3723 -0.0321
 5395TIP3    H116149   0.185   6.421   0.476 -0.5474 -0.6732  0.1491
 5395TIP3    H216150   0.056   6.493   0.508  0.1956  0.8196 -0.1282
 5396TIP3   OH216151   4.100   4.395   3.395  0.0887  0.9798 -0.5104
 5396TIP3    H116152   4.183   4.430   3.363  0.8570 -0.6387 -0.3875
 5396TIP3    H216153   4.035   4.461   3.371  1.1112  1.3481 -2.4484
 5397TIP3   OH216154   4.149   4.816   1.839  0.3465 -0.1285 -0.1842
 5397TIP3    H116155   4.123   4.833   1.930 -1.1291  0.9067 -0.7599
 5397TIP3    H216156   4.114   4.891   1.790 -1.3418 -2.0224 -2.0327
 5398TIP3   OH216157   4.148   2.209   3.209 -0.5357  0.5006  0.5420
 5398TIP3    H116158   4.066   2.217   3.160 -0.5122 -1.2816  0.1304
 5398TIP3    H216159   4.207   2.272   3.167 -0.6030 -0.7642 -1.6370
 5399TIP3   OH216160   4.600   4.316   0.296 -0.0403  0.0247 -0.3063
 5399TIP3    H116161   4.686   4.311   0.256  0.3293 -2.8641  0.6826
 5399TIP3    H216162   4.610   4.278   0.383 -2.4634 -1.3043 -0.5054
 5400TIP3   OH216163   0.349   3.662   1.865  0.8419 -0.3894  0.0328
 5400TIP3    H116164   0.443   3.647   1.849  0.7680 -0.0224 -0.8086
 5400TIP3    H216165   0.315   3.689   1.780  0.1857  0.5501  0.5779
 5401TIP3   OH216166   6.448   3.236   5.384 -0.3505  0.0425  0.7016
 5401TIP3    H116167   6.510   3.181   5.432 -0.3697 -2.1317 -1.5337
 5401TIP3    H216168   6.370   3.181   5.375 -0.2857  0.2522 -1.8443
 5402TIP3   OH216169   6.988   4.087   5.011  0.3482  0.0506 -0.1595
 5402TIP3    H116170   6.903   4.114   5.044  0.4407  1.4939 -0.9989
 5402TIP3    H216171   6.982   4.098   4.916  1.4608  0.1697 -0.2290
 5403TIP3   OH216172   6.061   2.908   0.162 -0.2644  0.1332  0.2235
 5403TIP3    H116173   6.072   2.895   0.256 -1.5885 -0.5097  0.3116
 5403TIP3    H216174   5.978   2.955   0.153 -0.2676 -0.0054 -0.6227
 5404TIP3   OH216175   6.896   0.603   4.231  0.4648  0.0665 -0.2157
 5404TIP3    H116176   6.932   0.665   4.293  0.2489 -2.1321  2.2753
 5404TIP3    H216177   6.888   0.521   4.280 -2.4550 -1.0861 -2.2861
 5405TIP3   OH216178   1.835   6.222   3.709 -0.2453  0.1484  0.3928
 5405TIP3    H116179   1.874   6.158   3.651  2.1911  1.5962  0.3251
 5405TIP3    H216180   1.849   6.187   3.797  0.0263  0.0316  0.3020
 5406TIP3   OH216181   2.962   2.452   2.493 -0.1057  0.2789 -0.2209
 5406TIP3    H116182   2.934   2.540   2.519 -1.0392  0.5231 -1.9029
 5406TIP3    H216183   2.960   2.454   2.397  0.3276 -1.4406 -0.2901
 5407TIP3   OH216184   3.557   2.899   2.523  0.2889  0.4019 -0.1817
 5407TIP3    H116185   3.496   2.872   2.591  0.0839 -1.5958 -1.0864
 5407TIP3    H216186   3.534   2.844   2.448  1.8327  1.1102 -1.2075
 5408TIP3   OH216187   5.883   6.741   5.325  0.3482 -0.4746 -0.5371
 5408TIP3    H116188   5.871   6.652   5.358  0.2333 -0.1999  0.1734
 5408TIP3    H216189   5.807   6.756   5.269  0.3447 -0.8037 -0.6230
 5409TIP3   OH216190   2.690   2.509   3.103 -0.4030 -0.0932 -0.1563
 5409TIP3    H116191   2.693   2.527   3.197  1.2377 -2.1964  0.2588
 5409TIP3    H216192   2.646   2.424   3.096  0.6525 -0.5919 -1.1557
 5410TIP3   OH216193   0.729   0.375   4.110 -0.2359  0.9076  1.0862
 5410TIP3    H116194   0.660   0.310   4.126  0.0969  0.3045  0.1990
 5410TIP3    H216195   0.712   0.406   4.021  1.7720 -0.7556  0.0138
 5411TIP3   OH216196   2.584   0.983   4.880  0.4239 -0.3824  0.1100
 5411TIP3    H116197   2.661   1.034   4.855 -1.4236  1.7102 -1.6417
 5411TIP3    H216198   2.567   0.926   4.805  0.2719 -0.9014  0.5253
 5412TIP3   OH216199   5.222   0.041   3.266 -0.4234  0.5763 -0.0463
 5412TIP3    H116200   5.231  -0.048   3.300  0.4803  0.6810  0.0061
 5412TIP3    H216201   5.266   0.097   3.330  0.3396  0.8885 -0.8147
 5413TIP3   OH216202   1.067   2.641   3.929 -0.4641 -0.5961 -0.0107
 5413TIP3    H116203   1.150   2.624   3.974 -0.4261 -1.8075 -0.5065
 5413TIP3    H216204   1.031   2.718   3.973 -0.4347 -1.7204  2.0969
 5414TIP3   OH216205   2.757   3.940   3.286 -0.3834 -0.3393  0.7235
 5414TIP3    H116206   2.673   3.961   3.244 -0.5042 -0.9566  0.6429
 5414TIP3    H216207   2.754   3.846   3.300  0.6569 -0.4998 -0.0438
 5415TIP3   OH216208   5.053   2.291   3.772 -0.3557  0.0050 -0.2068
 5415TIP3    H116209   5.119   2.336   3.719 -0.9181  2.1495  0.8073
 5415TIP3    H216210   5.083   2.200   3.775  1.2081  0.4095 -1.7957
 5416TIP3   OH216211   4.744   4.111   0.512 -0.2139  0.3199  0.2916
 5416TIP3    H116212   4.704   4.064   0.439 -0.3181  1.2036 -0.2278
 5416TIP3    H216213   4.832   4.133   0.481  0.2437 -0.5146  0.9581
 5417TIP3   OH216214  -0.013   1.501   3.674 -0.0517  0.1435  0.2427
 5417TIP3    H116215   0.067   1.469   3.715 -0.2121 -1.5344 -0.6680
 5417TIP3    H216216  -0.030   1.440   3.602 -0.2306  2.4582 -1.8243
 5418TIP3   OH216217   6.018   6.316   3.214  0.1812  0.1802 -0.1357
 5418TIP3    H116218   5.957   6.298   3.285  0.5557 -2.0198 -0.2879
 5418TIP3    H216219   6.086   6.249   3.223 -1.4358 -2.4493 -4.3853
 5419TIP3   OH216220   7.044   6.564   1.562  0.1548 -0.3166 -0.2677
 5419TIP3    H116221   7.002   6.582   1.646  0.1277 -0.3595 -0.2721
 5419TIP3    H216222   7.036   6.647   1.514  0.8034 -0.0744  0.0399
 5420TIP3   OH216223   3.133   5.828   1.242 -0.0018  0.0660  0.5450
 5420TIP3    H116224   3.197   5.808   1.311  0.5504 -1.4908 -0.3533
 5420TIP3    H216225   3.048   5.805   1.282  0.3210 -0.9327  0.7061
 5421TIP3   OH216226   4.606   0.645   4.172  0.2282 -0.9456 -0.2101
 5421TIP3    H116227   4.558   0.572   4.133 -1.8484 -0.3574  1.1030
 5421TIP3    H216228   4.551   0.674   4.245  0.5095  2.4717 -1.1776
 5422TIP3   OH216229   3.487   3.514   4.834  0.1928 -0.7536  0.4530
 5422TIP3    H116230   3.484   3.471   4.919 -0.3632  1.3925  1.5924
 5422TIP3    H216231   3.399   3.552   4.823 -0.0321 -1.7113 -1.5059
 5423TIP3   OH216232   7.074   0.825   2.257  0.2626  0.1650 -0.0388
 5423TIP3    H116233   7.066   0.737   2.294  0.9440  1.1421  2.6343
 5423TIP3    H216234   7.158   0.824   2.211  0.7867 -0.2951  0.8964
 5424TIP3   OH216235   1.885   1.434   1.391 -0.1238  0.2435  0.3729
 5424TIP3    H116236   1.869   1.525   1.418  0.0857 -0.1885  2.1026
 5424TIP3    H216237   1.969   1.412   1.433 -0.1650 -0.7432 -0.0567
 5425TIP3   OH216238   3.459   5.946   3.602 -0.8822  0.1108  0.1913
 5425TIP3    H116239   3.398   5.981   3.537  1.4978  0.8948 -1.7304
 5425TIP3    H216240   3.513   6.021   3.628  1.0099 -1.0600 -0.2053
 5426TIP3   OH216241   4.206   3.191   5.790  0.3959  0.4845  1.2188
 5426TIP3    H116242   4.166   3.145   5.716 -1.1827  2.8710  0.4442
 5426TIP3    H216243   4.298   3.165   5.788  0.0370 -0.8618 -0.4935
 5427TIP3   OH216244   1.987   0.767   5.163 -0.1795 -0.6854  0.9731
 5427TIP3    H116245   1.995   0.689   5.108 -1.2553  0.8944 -1.5666
 5427TIP3    H216246   1.893   0.775   5.179 -0.1250  0.3514  0.8085
 5428TIP3   OH216247   6.837   5.964   4.560  0.2479 -0.7749 -0.1045
 5428TIP3    H116248   6.881   5.892   4.606  0.1696 -0.8407 -0.1323
 5428TIP3    H216249   6.784   6.007   4.627 -0.2079 -1.1405 -0.2288
 5429TIP3   OH216250   6.380   4.978   4.801  0.6068 -0.3175 -0.3693
 5429TIP3    H116251   6.315   4.925   4.847 -0.3868  2.1731  1.3304
 5429TIP3    H216252   6.402   5.048   4.863  1.5436  1.4743 -2.5811
 5430TIP3   OH216253   2.751   4.524   1.565 -0.5400 -0.0600  0.4286
 5430TIP3    H116254   2.698   4.517   1.486  0.5000  0.1946 -0.3123
 5430TIP3    H216255   2.781   4.435   1.582  1.3445  0.2355 -0.9929
 5431TIP3   OH216256   3.594   2.785   0.403 -0.2039 -0.6235 -0.2363
 5431TIP3    H116257   3.687   2.762   0.401 -0.1264 -0.3645  0.4191
 5431TIP3    H216258   3.551   2.708   0.440 -0.3274 -0.9732 -1.0776
 5432TIP3   OH216259   3.814   1.120   3.217  0.2732  0.0871 -0.0378
 5432TIP3    H116260   3.724   1.139   3.194  0.1375 -0.9579 -0.4013
 5432TIP3    H216261   3.809   1.045   3.277  0.7942  1.1091  1.3550
 5433TIP3   OH216262   6.870   6.129   1.020 -0.8432  0.5218  0.2445
 5433TIP3    H116263   6.804   6.060   1.026  0.7013 -0.9451  1.2528
 5433TIP3    H216264   6.875   6.165   1.108  0.2589  0.0647  0.3771
 5434TIP3   OH216265   1.967   3.707   4.591 -0.1811 -0.1795 -0.3162
 5434TIP3    H116266   2.016   3.629   4.617 -0.3546 -0.8975 -2.0238
 5434TIP3    H216267   1.943   3.749   4.674  0.4195 -1.6123  0.6247
 5435TIP3   OH216268   0.537   0.737   3.608  0.1535  0.3111  0.2591
 5435TIP3    H116269   0.505   0.673   3.544 -0.5976 -0.0696  1.0109
 5435TIP3    H216270   0.603   0.688   3.659  1.2956  0.8217 -0.6668
 5436TIP3   OH216271   3.884   1.612   5.488 -0.3999 -0.1230 -0.1070
 5436TIP3    H116272   3.957   1.550   5.498  0.5590  0.8566 -0.7061
 5436TIP3    H216273   3.870   1.615   5.393 -0.3002  0.7038 -0.1003
 5437TIP3   OH216274   2.196   5.712   5.056 -0.5427 -0.0438  0.1584
 5437TIP3    H116275   2.171   5.703   5.148 -2.7301 -2.2283 -0.5212
 5437TIP3    H216276   2.279   5.665   5.049 -0.3794  0.0986  1.0018
 5438TIP3   OH216277   1.158   6.201   4.420  0.2235  0.0386 -0.0851
 5438TIP3    H116278   1.081   6.186   4.365  0.7036 -1.8361 -0.3422
 5438TIP3    H216279   1.149   6.136   4.490 -0.1849  2.1233  1.8977
 5439TIP3   OH216280   4.998   2.497   2.659  0.0976 -0.4332  0.6313
 5439TIP3    H116281   5.009   2.414   2.705 -0.9010 -0.3380  1.0715
 5439TIP3    H216282   5.046   2.560   2.712 -0.2388 -0.4996  1.0240
 5440TIP3   OH216283   3.901   3.941   1.870 -0.1874 -0.2568 -0.0405
 5440TIP3    H116284   3.912   3.909   1.960 -1.6973 -1.4344 -0.2271
 5440TIP3    H216285   3.924   4.033   1.874  0.3195 -0.4160  1.4294
 5441TIP3   OH216286   5.204   3.310   0.266  0.0669 -0.0215 -0.2275
 5441TIP3    H116287   5.203   3.231   0.320  1.3627 -0.0154 -0.1768
 5441TIP3    H216288   5.280   3.299   0.209  0.4460  1.3191 -0.0088
 5442TIP3   OH216289   5.333   1.491   1.774  0.2720 -0.0365 -0.1462
 5442TIP3    H116290   5.247   1.517   1.741  0.4156 -0.4511 -0.8757
 5442TIP3    H216291   5.366   1.569   1.819 -0.0704  0.4387 -0.7068
 5443TIP3   OH216292   3.243   5.970   0.479  0.5214  0.0335 -0.0263
 5443TIP3    H116293   3.199   5.887   0.457  0.9285 -0.3863  0.6877
 5443TIP3    H216294   3.212   5.990   0.567 -0.8011  1.4943 -0.7782
 5444TIP3   OH216295   0.319   2.194   2.458 -0.1831  0.4002  0.2828
 5444TIP3    H116296   0.313   2.205   2.363  1.6664 -0.5351  0.0158
 5444TIP3    H216297   0.228   2.185   2.487 -0.7695  0.5331 -1.4079
 5445TIP3   OH216298   4.854   3.027   4.475 -0.0023  0.3351  0.4799
 5445TIP3    H116299   4.772   3.023   4.523 -0.7642  0.2246 -0.8032
 5445TIP3    H216300   4.862   2.941   4.434  0.8055  0.3152  0.6600
 5446TIP3   OH216301   5.956   2.783   1.987 -0.1712 -0.0489 -0.6007
 5446TIP3    H116302   6.016   2.712   1.965  0.1170 -0.3141  0.8786
 5446TIP3    H216303   5.872   2.739   2.005 -0.5117  0.1995 -1.5077
 5447TIP3   OH216304   2.774   0.671   0.425  0.2931 -0.5533  0.0546
 5447TIP3    H116305   2.690   0.643   0.389  0.5003 -0.6506 -0.3528
 5447TIP3    H216306   2.781   0.764   0.402  0.4620 -0.6354 -0.2239
 5448TIP3   OH216307   1.866   5.794   1.906 -0.0598  0.7594 -0.9562
 5448TIP3    H116308   1.833   5.750   1.984 -0.2171  1.9369 -0.3475
 5448TIP3    H216309   1.941   5.741   1.879  1.7468  1.8166  1.6125
 5449TIP3   OH216310   0.577   0.098   3.915 -0.4200 -0.4784 -0.1064
 5449TIP3    H116311   0.523   0.062   3.984 -0.2235 -1.3775 -0.4082
 5449TIP3    H216312   0.566   0.038   3.842 -0.0628  0.0651 -0.6221
 5450TIP3   OH216313   4.781   2.271   0.593 -0.1293 -0.0020  0.1603
 5450TIP3    H116314   4.751   2.214   0.522  1.2225 -0.8122  0.2128
 5450TIP3    H216315   4.800   2.354   0.550 -2.1338  0.4755  0.0829
 5451TIP3   OH216316   0.775   5.186   1.171  0.0929 -0.0870  0.4191
 5451TIP3    H116317   0.724   5.218   1.096  0.0243  0.2778  0.6181
 5451TIP3    H216318   0.789   5.264   1.225 -0.1273 -0.4036  0.9438
 5452TIP3   OH216319   2.454   5.925   4.460  0.2861 -0.0198 -0.1567
 5452TIP3    H116320   2.446   5.834   4.489 -0.7164  0.6311  1.7838
 5452TIP3    H216321   2.520   5.962   4.518  0.4084  0.6048 -0.6865
 5453TIP3   OH216322   0.762   2.755   4.259 -0.1418 -0.0458  0.7137
 5453TIP3    H116323   0.809   2.837   4.273  0.9177 -0.2326 -1.3564
 5453TIP3    H216324   0.675   2.783   4.230  0.6866  0.4301 -1.4755
 5454TIP3   OH216325   4.812   2.661   2.546  0.0844 -0.5356 -0.0231
 5454TIP3    H116326   4.877   2.611   2.596 -0.6613 -0.6606  0.8456
 5454TIP3    H216327   4.735   2.664   2.602  0.1879  1.8728  0.1157
 5455TIP3   OH216328   1.502   2.239   1.848  0.4925 -0.3324  0.7573
 5455TIP3    H116329   1.496   2.222   1.754  0.7848  0.3762  0.6037
 5455TIP3    H216330   1.595   2.237   1.867  0.4844  0.2529  0.8860
 5456TIP3   OH216331   1.076   1.590   1.577  0.1444  0.3217 -0.5758
 5456TIP3    H116332   1.171   1.599   1.579  0.2162 -0.4494  0.0859
 5456TIP3    H216333   1.042   1.671   1.615  0.5870  0.0115  0.5163
 5457TIP3   OH216334   2.359   5.514   0.374 -0.3430  0.4589 -0.7360
 5457TIP3    H116335   2.270   5.544   0.356 -0.9191  0.5054  1.8368
 5457TIP3    H216336   2.395   5.579   0.434  0.3637 -1.0527  0.5489
 5458TIP3   OH216337   5.302   4.165   4.684  0.4803  0.0918  0.4325
 5458TIP3    H116338   5.286   4.231   4.617  0.6119 -0.8599 -0.5776
 5458TIP3    H216339   5.304   4.082   4.636  2.3733 -0.4624  1.3505
 5459TIP3   OH216340   4.938   0.587   0.813  0.0015  0.4642  0.5112
 5459TIP3    H116341   5.009   0.578   0.877 -1.2724  3.3660  2.5561
 5459TIP3    H216342   4.931   0.682   0.799 -1.0431  0.0351 -2.5601
 5460TIP3   OH216343   7.105   5.593   3.223  1.1524  0.3798 -0.6898
 5460TIP3    H116344   7.158   5.600   3.302  1.3168 -0.4327 -0.7216
 5460TIP3    H216345   7.112   5.679   3.182  2.4942  0.2770 -0.7186
 5461TIP3   OH216346   2.695   2.963   2.308  0.0545  0.2733  0.5782
 5461TIP3    H116347   2.676   3.038   2.252 -0.1587  0.2904  0.6697
 5461TIP3    H216348   2.653   2.985   2.392 -2.8126 -1.2934 -0.2925
 5462TIP3   OH216349   3.321   5.196   0.877  0.2186 -0.6670 -0.5448
 5462TIP3    H116350   3.372   5.228   0.803  3.1336 -0.0217  1.5546
 5462TIP3    H216351   3.289   5.274   0.921 -0.8763 -1.0217 -0.6679
 5463TIP3   OH216352   2.203   6.408   2.672 -0.0668  0.2675  0.5218
 5463TIP3    H116353   2.203   6.367   2.759 -2.9175  0.5033  0.7287
 5463TIP3    H216354   2.174   6.498   2.688  1.0820  0.8495 -0.5180
 5464TIP3   OH216355   0.301   5.762   4.895 -0.2887 -0.4400 -0.6172
 5464TIP3    H116356   0.277   5.670   4.890  0.8926 -0.7270 -1.4733
 5464TIP3    H216357   0.388   5.762   4.933 -0.1676  0.2957 -0.8771
 5465TIP3   OH216358   3.704   1.966   3.328 -0.3917  0.0327  0.1957
 5465TIP3    H116359   3.684   1.873   3.326 -0.4260 -0.0041  1.6983
 5465TIP3    H216360   3.730   1.984   3.418  4.1922  0.5519 -0.9835
 5466TIP3   OH216361   4.234   2.370   0.535  0.1862 -0.4733  0.0854
 5466TIP3    H116362   4.278   2.340   0.615 -1.0751 -0.6439  0.7430
 5466TIP3    H216363   4.305   2.400   0.479  1.2223 -1.6069  0.7269
 5467TIP3   OH216364   6.671   2.140   4.491  0.1413 -0.2663 -0.0105
 5467TIP3    H116365   6.713   2.208   4.543  1.5896 -0.1908 -1.1955
 5467TIP3    H216366   6.672   2.175   4.401 -2.7144 -0.1715 -0.0772
 5468TIP3   OH216367   0.551   6.444   2.426  0.1205 -0.2627  0.1971
 5468TIP3    H116368   0.606   6.431   2.503  0.0139 -1.0275  0.1515
 5468TIP3    H216369   0.481   6.504   2.456  0.7221  0.3674  0.3672
 5469TIP3   OH216370   2.629   6.148   5.429  0.4101  0.2220 -0.5057
 5469TIP3    H116371   2.706   6.194   5.394 -0.9339  1.9873 -1.3294
 5469TIP3    H216372   2.591   6.105   5.352  0.2883 -0.2047 -0.2055
 5470TIP3   OH216373   1.125   2.536   2.403  0.7777 -0.4046 -0.0335
 5470TIP3    H116374   1.193   2.530   2.470  1.3288 -1.9948 -0.6833
 5470TIP3    H216375   1.044   2.550   2.453  1.5009  1.2639  0.7580
 5471TIP3   OH216376   5.136   1.603   2.966  0.2747  0.2609 -0.3021
 5471TIP3    H116377   5.132   1.521   3.015  0.7038 -0.9869 -2.2349
 5471TIP3    H216378   5.226   1.634   2.978  0.7663 -0.7095 -1.2553
 5472TIP3   OH216379   4.468   3.816   3.491  0.2192  0.2103  0.0334
 5472TIP3    H116380   4.510   3.901   3.502 -0.2743  0.3513  0.9179
 5472TIP3    H216381   4.376   3.831   3.513  0.4242 -0.8831  1.8774
 5473TIP3   OH216382   4.235   3.926   3.836  0.6780  0.2910 -0.6854
 5473TIP3    H116383   4.284   3.867   3.893  0.6720  1.9025  1.1144
 5473TIP3    H216384   4.285   4.008   3.838 -1.1581  1.4544 -0.1482
 5474TIP3   OH216385   3.143   5.138   4.086  0.0230 -0.3025  0.1746
 5474TIP3    H116386   3.183   5.091   4.013  0.5163 -0.0096  0.2529
 5474TIP3    H216387   3.201   5.122   4.160 -0.5924 -0.7881  0.5733
 5475TIP3   OH216388   6.037   3.593   0.330 -0.5708  0.2694 -0.4855
 5475TIP3    H116389   6.039   3.611   0.424 -0.4148  0.3505 -0.5031
 5475TIP3    H216390   6.038   3.680   0.289 -2.9878  0.3169 -0.5474
 5476TIP3   OH216391   3.649   2.955   4.556  0.1736 -0.1237 -0.3116
 5476TIP3    H116392   3.567   3.004   4.562  0.1604 -0.1323 -0.4156
 5476TIP3    H216393   3.698   2.997   4.485 -0.7904 -1.6365 -1.9682
 5477TIP3   OH216394   2.987   4.677   0.561 -0.4729 -0.2026  0.3204
 5477TIP3    H116395   3.008   4.644   0.473  1.7591  0.1340  0.6944
 5477TIP3    H216396   2.960   4.599   0.609  4.4065 -1.7306  1.0944
 5478TIP3   OH216397   6.878   2.120   1.443  0.1513  0.1442 -0.1209
 5478TIP3    H116398   6.868   2.213   1.422 -1.1672  0.2260  0.7426
 5478TIP3    H216399   6.973   2.107   1.449  0.4219  1.0493 -1.7979
 5479TIP3   OH216400   5.418   6.281   4.590 -0.2532  0.1005 -0.3103
 5479TIP3    H116401   5.419   6.255   4.498 -2.4075 -0.4532 -0.2215
 5479TIP3    H216402   5.404   6.375   4.588 -2.5808 -0.2046 -0.5797
 5480TIP3   OH216403   6.339   1.940   0.620  0.0947  0.4038  0.2074
 5480TIP3    H116404   6.353   1.861   0.672 -1.4979 -0.6172 -0.8582
 5480TIP3    H216405   6.299   2.002   0.681  0.5456  0.1084  0.8155
 5481TIP3   OH216406   0.909   3.570   1.133  0.1746 -0.3358 -0.0120
 5481TIP3    H116407   0.842   3.634   1.110  1.5698  0.4598 -2.2572
 5481TIP3    H216408   0.873   3.486   1.106 -0.8000 -0.2256  0.9056
 5482TIP3   OH216409   5.815   2.902   3.036 -0.3414  0.2522 -0.1771
 5482TIP3    H116410   5.757   2.901   2.960 -0.3920 -1.4047 -0.1535
 5482TIP3    H216411   5.877   2.973   3.018 -0.3215 -0.1314 -1.7835
 5483TIP3   OH216412   3.408   1.162   4.272  0.0812 -0.1230 -0.3872
 5483TIP3    H116413   3.434   1.138   4.183  1.6007 -0.7682  0.1948
 5483TIP3    H216414   3.465   1.234   4.296 -0.0190 -0.2319  0.2159
 5484TIP3   OH216415   5.944   0.339   0.694 -0.0927 -0.3326  0.0627
 5484TIP3    H116416   6.029   0.378   0.673 -1.2438  1.7745 -1.0140
 5484TIP3    H216417   5.928   0.277   0.622 -1.4596  2.6918 -2.4669
 5485TIP3   OH216418   1.758   0.449   3.441  0.5947 -0.1170  0.5240
 5485TIP3    H116419   1.673   0.415   3.412 -0.9213  2.3505  1.6858
 5485TIP3    H216420   1.763   0.536   3.400  2.2941  0.0305  0.9779
 5486TIP3   OH216421   5.037   3.452   1.493  0.0337  0.3039  0.0237
 5486TIP3    H116422   4.949   3.421   1.517  0.6542 -0.6036  1.2399
 5486TIP3    H216423   5.023   3.503   1.413 -1.8069  1.3369  0.9298
 5487TIP3   OH216424   6.601   5.744   4.713 -0.0558 -0.5983  0.2239
 5487TIP3    H116425   6.596   5.734   4.618 -1.1581 -2.0990  0.4015
 5487TIP3    H216426   6.614   5.837   4.727 -3.0815  0.1581 -1.3356
 5488TIP3   OH216427   2.409   3.821   5.033 -0.9478 -0.4546  0.3561
 5488TIP3    H116428   2.453   3.877   4.969 -1.9450 -1.3973 -1.2295
 5488TIP3    H216429   2.476   3.803   5.100  0.2391  0.2971 -0.5890
 5489TIP3   OH216430   0.017  -0.000   1.863  0.1465  0.2711 -0.3819
 5489TIP3    H116431   0.041   0.048   1.942 -0.3629  0.8344 -0.5706
 5489TIP3    H216432   0.032   0.062   1.792 -1.6793  0.5953 -0.5325
 5490TIP3   OH216433   4.181   0.909   2.306  0.7334  0.0950  0.7337
 5490TIP3    H116434   4.230   0.832   2.279  0.6356  0.3431 -0.1856
 5490TIP3    H216435   4.226   0.939   2.385  3.7096  1.7612 -1.3796
 5491TIP3   OH216436   0.750   2.365   2.415  0.1201  0.3475 -0.8706
 5491TIP3    H116437   0.783   2.287   2.371  0.2957  0.2009 -0.4807
 5491TIP3    H216438   0.787   2.360   2.504  1.1261  1.5122 -1.2114
 5492TIP3   OH216439   2.981   4.737   4.467 -0.1250 -0.2760 -0.1064
 5492TIP3    H116440   3.070   4.766   4.485  0.2923 -0.3956 -1.7576
 5492TIP3    H216441   2.959   4.778   4.383 -1.9266  0.3670  0.6245
 5493TIP3   OH216442   6.727   1.352   4.577 -0.1563  0.3680  0.2650
 5493TIP3    H116443   6.818   1.381   4.587  0.0047 -0.5604  1.7613
 5493TIP3    H216444   6.704   1.314   4.662 -1.7507  0.0299 -0.2822
 5494TIP3   OH216445   6.363   1.279   0.520  0.0057 -0.3801  0.0555
 5494TIP3    H116446   6.316   1.296   0.438 -2.9291  0.3366  1.7438
 5494TIP3    H216447   6.379   1.366   0.557  1.9440 -0.6627 -0.0229
 5495TIP3   OH216448   4.308   1.319   0.948  0.1026 -1.1004  0.1298
 5495TIP3    H116449   4.266   1.345   1.029  1.1525  1.3628 -0.0439
 5495TIP3    H216450   4.254   1.357   0.879  1.5412  0.5604 -0.1428
 5496TIP3   OH216451   2.684   1.818   2.882  0.0269 -0.2084 -0.3258
 5496TIP3    H116452   2.608   1.866   2.850 -0.1693 -1.3363 -1.6306
 5496TIP3    H216453   2.658   1.787   2.969 -0.7019  0.0682 -0.4400
 5497TIP3   OH216454   4.395   4.996   1.712  0.1371  0.4556 -0.4280
 5497TIP3    H116455   4.306   5.032   1.711 -0.0095  0.1129 -1.7211
 5497TIP3    H216456   4.448   5.063   1.668  0.8189  1.3165  1.6072
 5498TIP3   OH216457   2.000   1.621   3.774 -0.6592 -0.3411 -0.0811
 5498TIP3    H116458   2.073   1.654   3.827  1.1641 -2.6371 -0.9657
 5498TIP3    H216459   1.934   1.594   3.838 -0.7012  1.6059  0.7509
 5499TIP3   OH216460   7.010   0.505   1.116  0.1673 -0.3306 -0.1275
 5499TIP3    H116461   6.990   0.557   1.194  0.8427 -1.6595  0.9861
 5499TIP3    H216462   6.925   0.482   1.079 -0.2725 -1.3070  1.3784
 5500TIP3   OH216463   4.243   2.824   1.028 -0.5420  0.0362  0.1774
 5500TIP3    H116464   4.320   2.863   1.070 -2.3304  1.1435  2.6151
 5500TIP3    H216465   4.213   2.890   0.966 -0.0742 -0.0395 -0.1393
 5501TIP3   OH216466   2.493   4.855   1.514  0.0231  0.2876  0.3932
 5501TIP3    H116467   2.554   4.839   1.442 -0.2274  2.3069 -0.3353
 5501TIP3    H216468   2.513   4.944   1.543 -1.4811  0.3877  1.2357
 5502TIP3   OH216469   4.206   2.261   2.939 -0.2806 -0.1059 -0.2478
 5502TIP3    H116470   4.113   2.279   2.959  0.0846 -0.6603  2.4028
 5502TIP3    H216471   4.241   2.346   2.910 -1.0323  0.8439  1.4487
 5503TIP3   OH216472   6.617   0.499   3.020 -0.0858 -0.2882 -0.1500
 5503TIP3    H116473   6.559   0.423   3.015 -1.9354  0.8736  1.8786
 5503TIP3    H216474   6.640   0.518   2.929 -1.2729 -2.0097 -0.8557
 5504TIP3   OH216475   3.070   0.422   0.086  0.3363 -0.0821  0.3217
 5504TIP3    H116476   3.127   0.411   0.010  0.6677 -1.4599  0.7405
 5504TIP3    H216477   3.129   0.418   0.161 -0.2302 -0.9726  0.7392
 5505TIP3   OH216478   6.178   4.657   4.733 -0.8031  0.5503 -0.0825
 5505TIP3    H116479   6.193   4.592   4.665 -2.2266  0.1080 -0.0040
 5505TIP3    H216480   6.184   4.608   4.815 -3.4106  0.1058 -0.0623
 5506TIP3   OH216481   4.260   0.911   1.404 -0.1466  0.0705 -0.4111
 5506TIP3    H116482   4.352   0.936   1.403 -0.1404  0.1354  0.7099
 5506TIP3    H216483   4.231   0.928   1.494 -0.8201 -1.5030 -0.2955
 5507TIP3   OH216484   4.772   2.790   4.357  0.3306  0.0181 -0.1164
 5507TIP3    H116485   4.844   2.735   4.325  0.4508 -0.0700  0.3081
 5507TIP3    H216486   4.720   2.732   4.412  0.1811  0.2000 -0.0664
 5508TIP3   OH216487   4.191   4.606   3.075  0.3514 -0.7241  0.2801
 5508TIP3    H116488   4.251   4.608   3.149  0.4357  0.4274  0.2010
 5508TIP3    H216489   4.235   4.658   3.007 -0.9640  0.6177  0.4116
 5509TIP3   OH216490   6.573   5.138   0.620 -0.2076 -0.3137 -0.1733
 5509TIP3    H116491   6.636   5.103   0.684 -1.2066  0.5725  1.3580
 5509TIP3    H216492   6.601   5.229   0.606  0.1556 -0.5717 -1.2372
 5510TIP3   OH216493   7.168   2.612   4.470  0.3977  0.1333 -0.5449
 5510TIP3    H116494   7.127   2.685   4.518  1.0738  0.6821 -0.7806
 5510TIP3    H216495   7.095   2.559   4.440 -0.0586 -0.3488  1.2629
 5511TIP3   OH216496   5.386   6.670   2.829 -0.0866  0.2024 -0.3121
 5511TIP3    H116497   5.458   6.732   2.818 -1.1798  1.6277  0.1107
 5511TIP3    H216498   5.380   6.657   2.924  0.2893 -0.7743 -0.4124
 5512TIP3   OH216499   1.724   6.382   4.263  0.5601  0.1276  0.2628
 5512TIP3    H116500   1.753   6.450   4.323  0.7229  0.7374 -0.4947
 5512TIP3    H216501   1.768   6.303   4.294  0.9925  0.5240  0.6790
 5513TIP3   OH216502   1.271   0.118   0.517  0.2958 -0.4851  0.0569
 5513TIP3    H116503   1.343   0.153   0.465  0.5565 -2.5616 -1.0657
 5513TIP3    H216504   1.192   0.146   0.471  0.4619 -0.4880 -0.2310
 5514TIP3   OH216505   0.777   3.797   5.236 -0.1338  0.0964  0.3038
 5514TIP3    H116506   0.773   3.702   5.250 -0.2223  0.0965  0.2779
 5514TIP3    H216507   0.838   3.828   5.303  0.2907 -0.0455 -0.0129
 5515TIP3   OH216508   1.344   6.811   5.156  0.3699  0.2027  0.0419
 5515TIP3    H116509   1.380   6.724   5.140 -0.2657 -0.1453  0.4954
 5515TIP3    H216510   1.307   6.838   5.072 -0.2470 -0.3481  0.1340
 5516TIP3   OH216511   4.056   4.565   5.198 -0.1280 -0.1536  0.4761
 5516TIP3    H116512   4.099   4.565   5.112 -1.9099 -1.8089 -0.4999
 5516TIP3    H216513   4.008   4.648   5.201  1.0502  0.5546  0.5143
 5517TIP3   OH216514   1.447   6.785   4.878 -0.5168 -0.0028 -0.0598
 5517TIP3    H116515   1.468   6.795   4.785 -2.8707 -0.9305 -0.7638
 5517TIP3    H216516   1.508   6.718   4.909  2.3607  2.4147 -0.0836
 5518TIP3   OH216517   5.449   0.064   4.438  0.6835  0.1273  0.1363
 5518TIP3    H116518   5.372   0.009   4.421  0.9974 -0.0718 -0.7133
 5518TIP3    H216519   5.413   0.150   4.458  0.2380  0.2323 -1.0038
 5519TIP3   OH216520   3.594   4.597   3.367  0.2332 -0.3838  0.0497
 5519TIP3    H116521   3.533   4.524   3.358  0.5603 -0.4842 -1.7317
 5519TIP3    H216522   3.664   4.563   3.422  0.4289 -1.4718 -0.8345
 5520TIP3   OH216523   5.750   5.709   1.288  0.0703  0.0463 -0.4801
 5520TIP3    H116524   5.814   5.642   1.313  0.0309 -0.4972 -1.7833
 5520TIP3    H216525   5.733   5.694   1.195 -0.2450  1.6123 -0.7160
 5521TIP3   OH216526   4.726   4.599   5.104 -0.5806  0.0272  0.2161
 5521TIP3    H116527   4.784   4.563   5.171 -0.6968  0.2645  0.4459
 5521TIP3    H216528   4.748   4.550   5.024  0.5953  0.7627  0.0771
 5522TIP3   OH216529   2.944   4.142   1.319 -0.2585 -0.2343  0.6743
 5522TIP3    H116530   2.915   4.054   1.343 -1.5959  0.2148  0.8164
 5522TIP3    H216531   2.889   4.166   1.244  0.9349  0.0213 -0.1585
 5523TIP3   OH216532   2.113   4.102   5.769 -0.0236 -0.0341 -0.3633
 5523TIP3    H116533   2.021   4.083   5.752  0.3556 -1.0696 -1.3565
 5523TIP3    H216534   2.159   4.074   5.690  1.2364 -0.2580  0.4134
 5524TIP3   OH216535   2.185   2.942   5.505  0.2651  0.1151 -0.1651
 5524TIP3    H116536   2.128   3.017   5.488 -1.3436 -1.1100 -0.4743
 5524TIP3    H216537   2.179   2.929   5.600 -0.2507 -0.1984 -0.2345
 5525TIP3   OH216538   0.739   1.418   4.865  0.1132 -0.0896 -0.6908
 5525TIP3    H116539   0.755   1.497   4.916  1.4378  0.5624 -2.0373
 5525TIP3    H216540   0.650   1.391   4.889 -0.6407  2.1885 -0.6905
 5526TIP3   OH216541   4.855   2.138   1.368  0.2606  0.9896  0.1210
 5526TIP3    H116542   4.849   2.159   1.461 -0.9113  1.8214 -0.1294
 5526TIP3    H216543   4.926   2.194   1.336  0.6914  0.6740  0.5150
 5527TIP3   OH216544   3.716   6.657   4.810 -1.0749  0.0127 -0.4737
 5527TIP3    H116545   3.654   6.718   4.771 -2.3971 -1.1956 -0.3543
 5527TIP3    H216546   3.711   6.675   4.904  1.5911  2.4423 -0.6415
 5528TIP3   OH216547   1.326   2.236   4.178  0.0535  0.0955 -0.4497
 5528TIP3    H116548   1.336   2.281   4.262  1.0615 -1.8051  0.5177
 5528TIP3    H216549   1.275   2.157   4.199  0.1710 -0.3299 -1.6600
 5529TIP3   OH216550   6.178   1.653   3.401  0.0030 -0.2963  0.2187
 5529TIP3    H116551   6.091   1.626   3.373  0.3737 -1.2194 -0.0855
 5529TIP3    H216552   6.169   1.671   3.495 -0.0633 -2.5142  0.6820
 5530TIP3   OH216553   6.380   4.809   5.207 -0.1845  0.1194  0.1189
 5530TIP3    H116554   6.295   4.838   5.238 -0.5030  0.2810 -0.8623
 5530TIP3    H216555   6.419   4.764   5.282 -0.7228  0.8883  0.8757
 5531TIP3   OH216556   2.690   1.839   1.460 -0.8840 -0.1559  0.4611
 5531TIP3    H116557   2.739   1.775   1.409  0.5440  1.1003  0.1560
 5531TIP3    H216558   2.756   1.877   1.519 -1.8614  0.4826  1.1646
 5532TIP3   OH216559   4.942   1.418   0.664 -0.5168  0.1676 -0.0952
 5532TIP3    H116560   4.862   1.462   0.696  0.4027  1.5979  0.3548
 5532TIP3    H216561   5.013   1.472   0.698  0.7927 -2.4166  1.6141
 5533TIP3   OH216562   0.673   2.857   5.161  0.5113  0.6471 -0.6347
 5533TIP3    H116563   0.589   2.838   5.203  0.1764  0.5405 -1.3351
 5533TIP3    H216564   0.670   2.808   5.079  1.1377  0.8788 -0.8011
 5534TIP3   OH216565   0.967   1.460   0.082 -0.1595 -0.0756  0.0718
 5534TIP3    H116566   0.960   1.502   0.168 -2.6622  0.6126 -0.3825
 5534TIP3    H216567   1.047   1.408   0.087  1.2190  2.0372  1.8604
 5535TIP3   OH216568   6.813   1.864   2.242  0.4477  0.2752  0.5653
 5535TIP3    H116569   6.791   1.917   2.318 -1.4238  0.3146  0.0309
 5535TIP3    H216570   6.729   1.841   2.203  1.3190  2.0760 -2.7737
 5536TIP3   OH216571   1.793   3.100   2.657 -0.5143 -0.1774  0.4901
 5536TIP3    H116572   1.701   3.090   2.632  0.2382 -0.1948 -2.6888
 5536TIP3    H216573   1.819   3.184   2.619  0.9309 -0.4363  0.8538
 5537TIP3   OH216574   0.593   5.239   1.907 -0.4223  0.0693  0.0046
 5537TIP3    H116575   0.528   5.292   1.953  1.3598  1.6391  0.8743
 5537TIP3    H216576   0.613   5.167   1.967  0.1947  0.8120  0.7141
 5538TIP3   OH216577   2.419   4.126   3.306 -0.4564 -0.0754  0.6911
 5538TIP3    H116578   2.330   4.112   3.339  0.2547 -2.2815  1.8389
 5538TIP3    H216579   2.409   4.128   3.211 -1.7124 -0.4365  0.7975
 5539TIP3   OH216580   3.363   2.255   2.593  0.5288 -0.4038 -0.2417
 5539TIP3    H116581   3.310   2.326   2.555 -0.1150  0.4482  2.0266
 5539TIP3    H216582   3.335   2.176   2.547 -1.6677  0.2696 -0.1729
 5540TIP3   OH216583   1.013   1.352   3.188 -0.1085  0.5341 -0.1123
 5540TIP3    H116584   1.103   1.343   3.157 -0.0757  1.0495 -0.1771
 5540TIP3    H216585   0.975   1.420   3.133  0.1462  1.9432  1.3867
 5541TIP3   OH216586   4.795   0.609   3.323 -0.2195  0.5382  0.0714
 5541TIP3    H116587   4.811   0.515   3.314 -2.4864  0.0547  0.4208
 5541TIP3    H216588   4.850   0.636   3.397  1.0848 -0.3218 -0.5628
 5542TIP3   OH216589   5.308   5.666   1.956 -0.1086  0.0144  0.4899
 5542TIP3    H116590   5.302   5.761   1.964 -1.3063 -0.0561  0.5826
 5542TIP3    H216591   5.318   5.651   1.862  0.4365  0.2372  0.5062
 5543TIP3   OH216592   1.352   5.052   0.299 -1.1890  0.6923 -0.3847
 5543TIP3    H116593   1.294   5.111   0.348 -0.5053  1.1747 -0.1285
 5543TIP3    H216594   1.302   5.028   0.222 -1.0204  2.7069 -1.1935
 5544TIP3   OH216595   3.070   4.382   4.800  0.0900  0.0612 -0.1456
 5544TIP3    H116596   3.129   4.456   4.812 -1.1069  0.6139  3.3834
 5544TIP3    H216597   2.993   4.420   4.758 -0.1971  0.7002  0.9184
 5545TIP3   OH216598   1.210   0.556   2.716  0.0812 -0.5055  0.0679
 5545TIP3    H116599   1.209   0.533   2.809 -1.4984 -2.5317 -0.3859
 5545TIP3    H216600   1.212   0.652   2.715 -0.4926 -0.4222  2.1810
 5546TIP3   OH216601   6.484   2.672   4.866 -0.0921 -0.3797 -0.4649
 5546TIP3    H116602   6.429   2.662   4.944 -0.0026  0.0349 -0.3428
 5546TIP3    H216603   6.423   2.675   4.793 -0.1999 -0.4122 -0.3765
 5547TIP3   OH216604   5.820   4.573   2.184  0.1160  0.1610 -0.3434
 5547TIP3    H116605   5.781   4.660   2.197 -0.0028  0.3846 -2.0364
 5547TIP3    H216606   5.764   4.514   2.234 -0.1720  0.9664  0.3172
 5548TIP3   OH216607   3.199   0.202   1.767 -0.0027  0.6710 -0.1545
 5548TIP3    H116608   3.287   0.233   1.745  0.6696 -1.1702 -0.2542
 5548TIP3    H216609   3.157   0.185   1.683  0.3383 -0.4574 -0.1190
 5549TIP3   OH216610   6.867   4.284   5.715  0.4444  0.3143 -0.4462
 5549TIP3    H116611   6.846   4.310   5.625 -1.9634 -1.0772 -0.3817
 5549TIP3    H216612   6.847   4.191   5.718 -3.4023  0.9906  2.4234
 5550TIP3   OH216613   2.112   5.594   0.349 -0.1525 -0.2812  0.4463
 5550TIP3    H116614   2.067   5.538   0.413 -0.7810 -0.7609 -0.4056
 5550TIP3    H216615   2.061   5.586   0.269 -0.1233  1.3424  0.2232
 5551TIP3   OH216616   5.000   0.276   4.688  0.0920 -1.1280  0.3654
 5551TIP3    H116617   4.929   0.317   4.638  0.5490 -0.6172  0.1208
 5551TIP3    H216618   5.023   0.341   4.755  0.0834 -1.4424  0.6749
 5552TIP3   OH216619   6.515   1.946   1.595 -0.3845 -0.2132 -0.2014
 5552TIP3    H116620   6.571   1.869   1.583 -1.1492 -0.4750 -2.6726
 5552TIP3    H216621   6.570   2.009   1.640  0.6670 -1.7497  0.7829
 5553TIP3   OH216622   5.184   6.166   5.858 -0.3651  0.0205  0.0834
 5553TIP3    H116623   5.198   6.244   5.913  1.2928  1.5110 -2.2992
 5553TIP3    H216624   5.107   6.187   5.806 -0.2187 -0.1349 -0.1996
 5554TIP3   OH216625   5.094   3.020   1.039  0.6434  0.5313  0.2796
 5554TIP3    H116626   5.088   3.115   1.049  1.6791  0.5614  0.7864
 5554TIP3    H216627   5.010   2.987   1.070  0.0261  1.3184 -0.5240
 5555TIP3   OH216628   6.436   6.221   0.802  0.8273 -0.5443 -0.3075
 5555TIP3    H116629   6.440   6.253   0.711 -0.2485 -2.1868 -0.9915
 5555TIP3    H216630   6.382   6.142   0.796  2.8889 -2.1771  1.3438
 5556TIP3   OH216631   1.387   2.306   1.345 -0.2077 -0.1020  0.3032
 5556TIP3    H116632   1.399   2.392   1.386  1.1265 -0.7089  1.2662
 5556TIP3    H216633   1.306   2.314   1.295 -0.2359  1.6383  0.5726
 5557TIP3   OH216634   2.637   4.823   5.831 -0.0959 -0.0669 -0.3961
 5557TIP3    H116635   2.592   4.903   5.801  0.7508 -0.3100 -2.4389
 5557TIP3    H216636   2.714   4.856   5.878 -0.5288  0.3147  0.0659
 5558TIP3   OH216637   4.788   0.288   4.135  0.6770 -0.1244 -0.0342
 5558TIP3    H116638   4.812   0.256   4.048 -0.7591 -0.3107 -0.3939
 5558TIP3    H216639   4.793   0.383   4.128  1.7644 -0.1655  0.0606
 5559TIP3   OH216640   1.173   0.941   2.208 -0.1539  0.4581  0.1278
 5559TIP3    H116641   1.181   0.871   2.272  1.2158 -0.2951 -0.8211
 5559TIP3    H216642   1.108   0.910   2.145  0.9174 -0.2791 -0.6458
 5560TIP3   OH216643   2.849   6.731   0.363  0.2838 -0.0972  0.3651
 5560TIP3    H116644   2.840   6.746   0.269  2.4003  0.5984  0.2177
 5560TIP3    H216645   2.774   6.776   0.401 -0.8373 -0.7200 -0.9828
 5561TIP3   OH216646   1.434   1.071   3.449 -0.4396  0.1917 -0.8683
 5561TIP3    H116647   1.480   0.992   3.420  1.4179  1.6221 -2.0646
 5561TIP3    H216648   1.446   1.133   3.377 -3.3675  1.0436 -0.7423
 5562TIP3   OH216649   3.885   4.781   5.146 -0.4843  0.2784  0.1873
 5562TIP3    H116650   3.794   4.801   5.170 -0.3865  0.4954  0.3830
 5562TIP3    H216651   3.902   4.836   5.070 -0.0934  1.2559  0.9552
 5563TIP3   OH216652   5.750   1.988   1.710  0.7365  0.3918 -0.0758
 5563TIP3    H116653   5.747   2.033   1.626  0.1544  0.5160  0.0074
 5563TIP3    H216654   5.719   2.052   1.773  1.0081  0.2442  0.2104
 5564TIP3   OH216655   4.240   6.698   3.001  0.1514  0.0744  0.2635
 5564TIP3    H116656   4.306   6.629   3.014  1.2808  1.0098 -0.3412
 5564TIP3    H216657   4.208   6.716   3.089  0.4876 -0.6025  0.5355
 5565TIP3   OH216658   3.271   3.690   2.786 -0.2993  0.1690 -0.1661
 5565TIP3    H116659   3.312   3.775   2.799  0.1033 -0.0668  0.1207
 5565TIP3    H216660   3.344   3.628   2.779 -0.5735 -0.0930 -0.8363
 5566TIP3   OH216661   3.099   0.656   0.809  0.4355  0.7439  0.3936
 5566TIP3    H116662   3.035   0.584   0.815  0.8417  0.3565  0.0954
 5566TIP3    H216663   3.109   0.686   0.900  0.4133  0.2953  0.5463
 5567TIP3   OH216664   5.272   3.875   1.109 -0.3830 -0.7550 -0.2383
 5567TIP3    H116665   5.325   3.830   1.175  0.7618  1.3263  0.3469
 5567TIP3    H216666   5.215   3.806   1.073 -0.0147 -2.2569  1.8671
 5568TIP3   OH216667   4.226   5.490   2.328  0.3188 -0.3459 -0.0964
 5568TIP3    H116668   4.222   5.394   2.322 -1.8286 -0.2814 -0.3474
 5568TIP3    H216669   4.304   5.507   2.381  0.4240 -2.2476  0.4449
 5569TIP3   OH216670   5.737   2.477   0.217  0.1390 -0.4697 -0.4370
 5569TIP3    H116671   5.736   2.571   0.234 -1.3203 -0.4367 -0.5159
 5569TIP3    H216672   5.823   2.460   0.179  0.2589  0.9211 -0.8672
 5570TIP3   OH216673   0.805   2.546   2.225 -0.2178  0.3094 -0.0325
 5570TIP3    H116674   0.794   2.505   2.310 -0.1748 -0.2765 -0.3076
 5570TIP3    H216675   0.885   2.508   2.189  0.6790  1.7600  0.3505
 5571TIP3   OH216676   5.738   5.217   4.555  0.0080  0.1987  0.2421
 5571TIP3    H116677   5.672   5.239   4.621 -1.4094 -2.3690 -0.1916
 5571TIP3    H216678   5.813   5.186   4.606 -0.3266  0.0799  0.6635
 5572TIP3   OH216679   4.888   4.458   4.059  0.2660 -0.0959  0.2347
 5572TIP3    H116680   4.950   4.416   4.119  1.5243  0.4200 -0.6682
 5572TIP3    H216681   4.942   4.487   3.986 -0.9683  0.9235 -0.2947
 5573TIP3   OH216682   1.627   3.359   5.229 -0.1856 -0.3122  0.4785
 5573TIP3    H116683   1.668   3.394   5.308  0.2033  1.0882 -0.3108
 5573TIP3    H216684   1.651   3.267   5.229  0.9844 -0.0386  1.2693
 5574TIP3   OH216685   1.976   3.259   3.498 -0.3822  0.2745 -0.2744
 5574TIP3    H116686   2.061   3.237   3.460 -0.2421 -0.5478  0.5070
 5574TIP3    H216687   1.913   3.231   3.431 -0.1673 -1.7001  0.2884
 5575TIP3   OH216688   4.718   5.445   3.894 -0.2437  0.3545 -0.4984
 5575TIP3    H116689   4.651   5.508   3.869  0.6201  1.5268  0.0285
 5575TIP3    H216690   4.747   5.408   3.811 -0.6549  0.7784 -0.8397
 5576TIP3   OH216691   4.452   3.116   5.776  0.1452  0.1793 -0.2023
 5576TIP3    H116692   4.495   3.068   5.705  0.1935  0.4514 -0.3591
 5576TIP3    H216693   4.495   3.085   5.856 -0.1487 -0.3834 -0.2582
 5577TIP3   OH216694   5.230   5.018   5.005 -0.0151  0.1772 -0.2834
 5577TIP3    H116695   5.254   4.965   5.081  2.2657 -0.8157 -1.5839
 5577TIP3    H216696   5.314   5.047   4.968 -1.1253  2.5633 -1.1284
 5578TIP3   OH216697   3.172   0.915   0.726 -0.2122 -0.1676  0.1719
 5578TIP3    H116698   3.170   0.823   0.752  1.4206 -0.0693  0.8095
 5578TIP3    H216699   3.232   0.917   0.651  1.7324  0.6468  1.6552
 5579TIP3   OH216700   2.643   2.346   3.761  0.8199  0.9147 -0.4865
 5579TIP3    H116701   2.580   2.297   3.813  2.5190 -1.1231 -0.2201
 5579TIP3    H216702   2.591   2.413   3.717 -1.3420 -0.0726  0.4275
 5580TIP3   OH216703   6.409   1.387   5.728 -0.1843  0.1157 -0.4522
 5580TIP3    H116704   6.436   1.296   5.721 -0.8298 -0.1224  0.0553
 5580TIP3    H216705   6.319   1.384   5.759  0.2353  0.9398  0.9507
 5581TIP3   OH216706   6.772   6.077   3.275 -0.0327 -0.3895 -0.0229
 5581TIP3    H116707   6.752   5.984   3.287 -1.3581 -0.1050  0.0534
 5581TIP3    H216708   6.762   6.092   3.181 -0.9798 -0.0692  0.1243
 5582TIP3   OH216709   0.278   2.962   5.712 -0.0784 -0.1742  0.1311
 5582TIP3    H116710   0.291   2.922   5.626 -0.3798 -0.2113  0.1031
 5582TIP3    H216711   0.333   2.910   5.771  0.1262 -0.1520 -0.0352
 5583TIP3   OH216712   6.476   6.356   0.194  0.3694  1.0417  0.2493
 5583TIP3    H116713   6.508   6.281   0.144  1.1462  1.0178  0.7720
 5583TIP3    H216714   6.381   6.348   0.190  0.3908  1.1661 -1.4165
 5584TIP3   OH216715   6.970   2.515   0.334 -1.0692 -0.0644  0.5242
 5584TIP3    H116716   6.900   2.517   0.399 -1.2377  0.5344  0.3332
 5584TIP3    H216717   6.926   2.522   0.250 -0.7767  0.4033  0.4061
 5585TIP3   OH216718   3.372   4.403   0.578  0.3921  0.7101 -0.1246
 5585TIP3    H116719   3.336   4.450   0.502  0.3549 -0.4336 -0.8528
 5585TIP3    H216720   3.454   4.447   0.597  0.1577  1.3336 -0.5162
 5586TIP3   OH216721   2.705   4.026   2.871 -0.6367 -0.3614 -0.1576
 5586TIP3    H116722   2.795   4.047   2.896 -0.3347 -1.8324  0.0701
 5586TIP3    H216723   2.673   3.970   2.941 -0.9398 -1.7263 -1.3394
 5587TIP3   OH216724   0.184   5.082   2.262  0.0047 -0.2362 -0.0379
 5587TIP3    H116725   0.238   5.157   2.286  3.3829 -2.9746  1.8345
 5587TIP3    H216726   0.140   5.056   2.343  0.4262 -1.3494 -0.1397
 5588TIP3   OH216727   4.756   5.143   4.038 -0.1585 -0.5385  0.2809
 5588TIP3    H116728   4.840   5.187   4.049  0.1986 -0.6952 -1.5067
 5588TIP3    H216729   4.766   5.058   4.080 -0.0416  0.1171  1.6282
 5589TIP3   OH216730   0.059   4.435   4.328  0.4234  0.0100 -0.1240
 5589TIP3    H116731  -0.025   4.419   4.287 -0.3156  2.7873  0.1330
 5589TIP3    H216732   0.115   4.469   4.258  0.9642 -0.6602 -0.0302
 5590TIP3   OH216733   0.418   2.991   0.306  0.4755 -0.3765  0.2005
 5590TIP3    H116734   0.434   3.071   0.356  1.3171  0.3068 -1.1047
 5590TIP3    H216735   0.389   2.928   0.372 -1.2030  1.2529  1.1356
 5591TIP3   OH216736   2.064   3.903   1.031 -0.2600  0.1560 -0.0560
 5591TIP3    H116737   2.038   3.987   0.994  1.9774  0.0770 -2.0598
 5591TIP3    H216738   2.033   3.838   0.968  0.7490 -0.2421 -0.1628
 5592TIP3   OH216739   4.027   1.155   0.550  0.1896 -0.3160  0.3114
 5592TIP3    H116740   3.945   1.106   0.537  0.2502 -0.1171 -0.8393
 5592TIP3    H216741   4.048   1.140   0.643  0.2538 -2.5512  0.0058
 5593TIP3   OH216742   4.266   1.301   1.418  0.0730 -0.3944  0.4608
 5593TIP3    H116743   4.248   1.391   1.443 -1.0553 -0.5594  0.3168
 5593TIP3    H216744   4.340   1.275   1.472 -0.9338 -0.0503  2.0870
 5594TIP3   OH216745   1.596   5.694   1.748  0.2334 -0.2058 -0.3389
 5594TIP3    H116746   1.555   5.672   1.664 -0.4784 -0.4276  0.0584
 5594TIP3    H216747   1.689   5.704   1.728  0.0650 -0.2510 -1.1547
 5595TIP3   OH216748   2.138   5.177   2.677 -0.0049  0.2887  0.6752
 5595TIP3    H116749   2.217   5.202   2.725 -0.5075 -0.0235  1.6961
 5595TIP3    H216750   2.165   5.104   2.621  0.2519 -0.3590  1.6241
 5596TIP3   OH216751   4.844   4.942   2.717  0.2637 -0.2118 -0.5715
 5596TIP3    H116752   4.914   4.938   2.783 -0.7855 -0.9750  0.5522
 5596TIP3    H216753   4.827   4.851   2.695 -1.7971 -0.2346  0.7913
 5597TIP3   OH216754   3.622   4.928   0.402  0.2076 -0.0184 -0.8316
 5597TIP3    H116755   3.636   4.927   0.308  1.5263  2.1429 -0.7263
 5597TIP3    H216756   3.710   4.930   0.440 -0.2863 -1.3721  0.4925
 5598TIP3   OH216757   2.839   2.678   4.466 -0.2869  0.3625 -0.3103
 5598TIP3    H116758   2.899   2.604   4.456 -0.6953 -0.0697  0.3532
 5598TIP3    H216759   2.765   2.658   4.410 -0.6017  0.0408  0.2099
 5599TIP3   OH216760   0.107   1.302   3.995  0.2130 -0.0287  0.3162
 5599TIP3    H116761   0.028   1.339   4.033  1.2767 -0.6329  3.4328
 5599TIP3    H216762   0.082   1.213   3.970 -0.3847  0.2103  0.0339
 5600TIP3   OH216763   0.682   0.396   3.145  0.0840  0.0313  0.0018
 5600TIP3    H116764   0.748   0.326   3.152 -0.0189 -0.0205  0.4857
 5600TIP3    H216765   0.615   0.372   3.209  0.7348  1.3174  1.2079
 5601TIP3   OH216766   0.937   1.505   2.658 -0.0229 -0.5589 -1.5368
 5601TIP3    H116767   0.973   1.422   2.688  1.2643  0.8183  1.0623
 5601TIP3    H216768   0.855   1.481   2.615 -0.3129 -3.0974  0.2034
 5602TIP3   OH216769   0.714   4.445   0.141 -0.0576  0.4846 -0.1091
 5602TIP3    H116770   0.691   4.440   0.048  0.7926  1.9646 -0.4273
 5602TIP3    H216771   0.686   4.361   0.177  0.4914 -0.5239 -1.9077
 5603TIP3   OH216772   0.354   3.961   1.536 -0.3970  0.4650 -0.0348
 5603TIP3    H116773   0.379   3.953   1.444 -1.6872  0.0624 -0.3855
 5603TIP3    H216774   0.329   3.872   1.561 -0.2266  0.6088  0.6566
 5604TIP3   OH216775   3.554   0.088   1.745  0.4539  0.3454 -0.0135
 5604TIP3    H116776   3.536   0.145   1.671 -1.3340  0.1393  0.2128
 5604TIP3    H216777   3.626   0.032   1.716 -0.4056  0.0590 -1.7143
 5605TIP3   OH216778   2.102   4.831   1.664 -0.8767  0.5602 -0.7385
 5605TIP3    H116779   2.109   4.783   1.582  1.8692 -1.7751  0.6999
 5605TIP3    H216780   2.166   4.902   1.657 -0.0901 -0.1016 -0.3638
 5606TIP3   OH216781   2.210   5.080   1.652 -0.3754  0.5399  0.4669
 5606TIP3    H116782   2.256   5.158   1.682  0.1740  0.3349  0.1831
 5606TIP3    H216783   2.225   5.078   1.557  0.8184 -0.6613  0.6538
 5607TIP3   OH216784   4.019   5.165   1.091  0.0958  0.6818 -0.1117
 5607TIP3    H116785   4.035   5.103   1.020  0.7373  1.7109 -0.8932
 5607TIP3    H216786   3.972   5.114   1.157  1.3819 -0.8805 -0.3357
 5608TIP3   OH216787   7.189   1.062   1.173 -0.4758 -0.1183 -0.0696
 5608TIP3    H116788   7.165   0.982   1.127  0.6314  0.7043 -2.2172
 5608TIP3    H216789   7.257   1.102   1.119  1.3618  0.6683  2.6029
 5609TIP3   OH216790   1.069   5.146   0.437  0.3321 -0.6025  0.2646
 5609TIP3    H116791   1.008   5.128   0.366 -0.5665 -1.8765  1.2929
 5609TIP3    H216792   1.080   5.061   0.481  1.4576 -0.0145  1.1825
 5610TIP3   OH216793   4.230   5.115   4.660  0.1791  0.0808 -0.0636
 5610TIP3    H116794   4.216   5.136   4.753  0.4534  1.9836 -0.4029
 5610TIP3    H216795   4.322   5.089   4.655  0.1788  0.0294  0.1857
 5611TIP3   OH216796   6.865   1.876   1.291 -0.3530  0.2674  0.1196
 5611TIP3    H116797   6.857   1.959   1.339 -3.0432  0.5216 -0.6056
 5611TIP3    H216798   6.850   1.900   1.199  2.0184 -0.6123 -0.5741
 5612TIP3   OH216799   6.233   0.629   2.100  0.5801  0.1047 -0.6652
 5612TIP3    H116800   6.238   0.624   2.004  0.3438  0.0141 -0.6737
 5612TIP3    H216801   6.207   0.541   2.127  0.5271  0.1632 -0.5261
 5613TIP3   OH216802   4.513   4.803   0.761 -0.2167  0.6915 -0.2471
 5613TIP3    H116803   4.540   4.711   0.751 -0.4456  0.5271  0.5327
 5613TIP3    H216804   4.565   4.850   0.697 -0.1713 -0.0010 -0.7355
 5614TIP3   OH216805   3.223   5.676   0.842 -0.0567 -0.3678  0.0958
 5614TIP3    H116806   3.276   5.723   0.907 -1.6055  1.0350  0.4038
 5614TIP3    H216807   3.214   5.737   0.769 -1.8466 -0.2539  0.3651
 5615TIP3   OH216808   6.973   3.798   4.324 -0.8598  0.5474 -0.0121
 5615TIP3    H116809   6.919   3.805   4.403 -1.4688 -0.8623 -0.2819
 5615TIP3    H216810   6.991   3.889   4.299 -1.9913  1.0255  0.8382
 5616TIP3   OH216811   0.284   3.726   2.664 -0.2297  0.4139  0.9158
 5616TIP3    H116812   0.260   3.645   2.709  0.5766  0.0650  0.7235
 5616TIP3    H216813   0.334   3.776   2.729  1.9314 -0.5861  0.0948
 5617TIP3   OH216814   6.468   1.065   0.724  0.0676  0.0308  0.5048
 5617TIP3    H116815   6.401   1.018   0.774 -0.0712 -0.6116 -0.2627
 5617TIP3    H216816   6.425   1.145   0.694 -0.6571 -0.7926 -0.7358
 5618TIP3   OH216817   2.818   1.273   0.881  0.0156 -0.3399 -0.0830
 5618TIP3    H116818   2.810   1.250   0.974  1.1200  0.0970  0.1330
 5618TIP3    H216819   2.768   1.354   0.872  2.7887  1.6001  0.9377
 5619TIP3   OH216820   0.592   4.358   5.667  0.0587 -0.4894 -0.0506
 5619TIP3    H116821   0.526   4.387   5.604 -0.5992 -0.3310  0.6810
 5619TIP3    H216822   0.549   4.368   5.752  0.7801 -1.0659  0.3984
 5620TIP3   OH216823   3.258   5.436   0.977  0.4802 -0.6228  0.2086
 5620TIP3    H116824   3.231   5.446   1.068 -0.8051 -0.8379 -0.1323
 5620TIP3    H216825   3.246   5.524   0.939 -2.7409 -1.3380 -0.6881
 5621TIP3   OH216826   0.849   5.825   4.862 -0.0260 -0.4341 -0.4754
 5621TIP3    H116827   0.774   5.800   4.809  0.2846  0.1863 -1.2407
 5621TIP3    H216828   0.858   5.920   4.848  0.9139 -0.5027 -0.4233
 5622TIP3   OH216829   2.348   5.507   0.725 -0.2719 -0.2675  0.0251
 5622TIP3    H116830   2.369   5.567   0.796 -0.0018 -0.5412  0.1806
 5622TIP3    H216831   2.392   5.544   0.648  0.4235 -0.6034  0.2561
 5623TIP3   OH216832   3.144   1.542   5.018  0.0189  0.4678  0.5777
 5623TIP3    H116833   3.081   1.610   5.039  0.4719  0.7106  1.2015
 5623TIP3    H216834   3.219   1.560   5.075  0.8213  0.4346 -0.4235
 5624TIP3   OH216835   0.899   1.609   5.797  0.0601  0.0044 -0.2180
 5624TIP3    H116836   0.827   1.650   5.749 -0.2985  0.4719  0.6749
 5624TIP3    H216837   0.891   1.645   5.886  2.8372  2.0049 -0.6310
 5625TIP3   OH216838   0.065   4.724   0.714  0.3516 -0.2921 -0.2969
 5625TIP3    H116839   0.035   4.670   0.641  0.6416  0.0632 -0.6820
 5625TIP3    H216840   0.036   4.813   0.692  0.8456 -0.1073 -0.2087
 5626TIP3   OH216841   3.029   2.849   4.153 -0.1864 -0.2351 -0.1220
 5626TIP3    H116842   2.981   2.804   4.083 -0.4813 -0.1633  0.0318
 5626TIP3    H216843   3.049   2.935   4.116 -2.6655  0.8394  0.7676
 5627TIP3   OH216844   1.194   6.456   1.406 -0.0659 -0.2353 -0.3784
 5627TIP3    H116845   1.228   6.371   1.378 -0.3609 -0.0276 -1.3998
 5627TIP3    H216846   1.100   6.443   1.413 -0.0857 -0.0492 -0.2856
 5628TIP3   OH216847   6.705   1.723   5.549 -0.4193  0.0045 -0.5293
 5628TIP3    H116848   6.713   1.783   5.475 -0.0871  1.4793  0.6425
 5628TIP3    H216849   6.675   1.641   5.511 -0.8117  0.8873 -2.2160
 5629TIP3   OH216850   0.711   5.894   0.091  0.2110 -0.3200 -0.0237
 5629TIP3    H116851   0.748   5.975   0.126  0.2060 -1.1384  1.9872
 5629TIP3    H216852   0.745   5.888   0.002  3.5324 -0.1630  1.1250
 5630TIP3   OH216853   6.629   4.574   1.584 -0.4069  0.1993  0.0850
 5630TIP3    H116854   6.539   4.601   1.603  0.4681  3.2649  0.4476
 5630TIP3    H216855   6.672   4.574   1.669 -0.0478 -1.5374 -0.0492
 5631TIP3   OH216856   2.786   0.204   3.024  0.0700  0.3280  0.2832
 5631TIP3    H116857   2.809   0.131   2.967  0.8983 -0.0807  1.1070
 5631TIP3    H216858   2.766   0.164   3.108  2.2506  1.1122  1.2567
 5632TIP3   OH216859   4.429   5.404   2.525 -0.1243  0.5637  0.2661
 5632TIP3    H116860   4.472   5.348   2.461 -0.5064  1.6520 -0.9934
 5632TIP3    H216861   4.342   5.364   2.537 -0.1727  0.5417 -0.1499
 5633TIP3   OH216862   1.271   1.956   1.660 -0.3641 -0.1732  0.1495
 5633TIP3    H116863   1.193   1.917   1.620  0.3126 -3.2044  1.4696
 5633TIP3    H216864   1.239   1.996   1.741 -0.6181 -1.2810  0.6158
 5634TIP3   OH216865   5.719   1.929   3.806  0.2323  0.3104 -0.5917
 5634TIP3    H116866   5.797   1.906   3.755 -0.7201 -0.1967 -1.8645
 5634TIP3    H216867   5.647   1.887   3.760 -1.1423  2.8028 -0.9287
 5635TIP3   OH216868   5.480   3.262   3.785 -0.1044  0.0322  1.0225
 5635TIP3    H116869   5.490   3.302   3.872 -2.1191  0.1079  1.2674
 5635TIP3    H216870   5.502   3.332   3.724 -1.0959  0.7676  1.4732
 5636TIP3   OH216871   6.490   5.307   5.332 -0.3582  0.6038  0.5324
 5636TIP3    H116872   6.496   5.213   5.314  1.7512  0.8052 -0.0783
 5636TIP3    H216873   6.396   5.324   5.341 -0.8584 -1.3365 -0.5307
 5637TIP3   OH216874   6.161   1.459   1.782  0.9317  0.0538 -0.4287
 5637TIP3    H116875   6.125   1.423   1.701 -0.3325 -1.3845  0.7046
 5637TIP3    H216876   6.235   1.513   1.754  0.2343 -0.0077 -2.5562
 5638TIP3   OH216877   0.754   0.240   3.455 -0.3792  0.2541 -0.1356
 5638TIP3    H116878   0.817   0.290   3.507 -0.0435 -0.1948 -0.1016
 5638TIP3    H216879   0.690   0.304   3.426  0.2296  0.7556 -0.3753
 5639TIP3   OH216880   0.890   5.659   0.163 -0.5115  0.1564  0.1850
 5639TIP3    H116881   0.842   5.739   0.143 -0.6431  0.2123  0.7147
 5639TIP3    H216882   0.979   5.675   0.131 -1.0129 -0.2376 -1.5155
 5640TIP3   OH216883   0.349   1.874   2.411  0.3102  0.0577  0.6868
 5640TIP3    H116884   0.406   1.950   2.421  0.7032 -0.3601  1.7905
 5640TIP3    H216885   0.306   1.887   2.327  0.2886  1.5561  0.9036
 5641TIP3   OH216886   3.879   6.424   2.231  0.0997  1.0098 -0.1090
 5641TIP3    H116887   3.829   6.356   2.185 -1.7801  0.7777  2.0905
 5641TIP3    H216888   3.969   6.410   2.203 -0.7903  0.3721 -2.9974
 5642TIP3   OH216889   4.771   5.301   1.451 -0.8074  0.1026 -0.2757
 5642TIP3    H116890   4.862   5.312   1.479 -1.1768 -0.1757  1.1013
 5642TIP3    H216891   4.745   5.386   1.417  0.1596  0.0039 -1.3025
 5643TIP3   OH216892   5.383   2.435   2.690 -0.1436  0.6752 -0.4032
 5643TIP3    H116893   5.453   2.489   2.725  0.4987 -0.0814 -0.4891
 5643TIP3    H216894   5.325   2.419   2.765  0.0513  0.8803 -0.2101
 5644TIP3   OH216895   3.991   1.022   2.135 -0.0761  0.3296  0.1818
 5644TIP3    H116896   3.983   1.053   2.225 -1.1480 -0.4634  0.3760
 5644TIP3    H216897   4.071   0.969   2.134  0.6921  1.4397  0.3155
 5645TIP3   OH216898   6.221   4.943   4.302 -0.5303  0.5952 -0.3783
 5645TIP3    H116899   6.238   4.850   4.287  1.6405  1.2913 -3.1639
 5645TIP3    H216900   6.262   4.962   4.386  0.8552 -0.5786 -0.7515
 5646TIP3   OH216901   2.027   1.991   2.535 -0.5080 -0.6690  0.3825
 5646TIP3    H116902   2.057   2.081   2.523  0.1644 -1.1900 -2.5008
 5646TIP3    H216903   2.099   1.947   2.581 -0.6229  0.0959  1.3247
 5647TIP3   OH216904   4.206   4.632   5.001 -0.3937 -0.1546  0.4080
 5647TIP3    H116905   4.172   4.720   4.983  0.4420 -0.2326 -1.9621
 5647TIP3    H216906   4.301   4.641   4.997 -0.2873 -1.1034  0.4211
 5648TIP3   OH216907   1.154   3.892   0.594 -0.0699  0.8038 -0.1160
 5648TIP3    H116908   1.158   3.805   0.554 -2.0445 -0.4700  2.1767
 5648TIP3    H216909   1.226   3.892   0.658  0.4607  1.2173 -0.7007
 5649TIP3   OH216910   2.452   4.977   2.730  0.2710 -0.1473  0.0831
 5649TIP3    H116911   2.476   5.066   2.755  0.6004 -0.1468 -0.2211
 5649TIP3    H216912   2.435   4.932   2.812  0.7424  0.0198  0.2741
 5650TIP3   OH216913   5.941   1.962  -0.004  0.7116 -0.1764  0.1995
 5650TIP3    H116914   5.945   1.904   0.072 -1.5891  0.0920  0.6049
 5650TIP3    H216915   6.002   2.033   0.017  1.6127 -1.1093  0.8623
 5651TIP3   OH216916   3.720   0.719   0.021 -0.2725  0.1977  0.0182
 5651TIP3    H116917   3.720   0.693   0.113  0.6356  2.5048  0.7369
 5651TIP3    H216918   3.755   0.643  -0.025 -2.5559 -1.7721  1.2751
 5652TIP3   OH216919   0.986   6.092   1.363 -0.1383 -0.0974 -0.3257
 5652TIP3    H116920   0.922   6.021   1.355  0.5977 -0.8609  0.4091
 5652TIP3    H216921   0.936   6.164   1.402 -0.2689 -1.1574  1.5994
 5653TIP3   OH216922   6.952   1.178   1.290 -0.3136  0.6672  0.6493
 5653TIP3    H116923   7.004   1.178   1.370  0.1040  0.5143  0.3816
 5653TIP3    H216924   6.999   1.120   1.230 -1.8439 -1.1135  1.0679
 5654TIP3   OH216925   6.813   0.880   1.408 -0.5359 -0.9136 -0.6639
 5654TIP3    H116926   6.861   0.932   1.472 -0.9748 -0.9071 -0.3378
 5654TIP3    H216927   6.789   0.942   1.340 -0.4566 -0.8297 -0.6155
 5655TIP3   OH216928   4.615   2.323   3.598 -0.5551 -0.4971  0.3964
 5655TIP3    H116929   4.704   2.358   3.602  0.5437 -3.1512  2.4747
 5655TIP3    H216930   4.575   2.347   3.681 -2.3007  1.6291 -0.9468
 5656TIP3   OH216931   0.201   3.238   2.820 -0.3465  0.1700 -0.3462
 5656TIP3    H116932   0.218   3.291   2.743  0.0245 -1.8671 -1.7565
 5656TIP3    H216933   0.266   3.167   2.815 -1.0064 -0.6094  1.2582
 5657TIP3   OH216934   0.501   0.029   5.385  0.4567  0.4666  0.4584
 5657TIP3    H116935   0.572   0.035   5.449 -0.1599  0.6011  1.1379
 5657TIP3    H216936   0.436  -0.027   5.425 -0.2913  1.1919  0.2926
 5658TIP3   OH216937   6.874   1.624   2.812 -0.4157 -0.2897  0.2737
 5658TIP3    H116938   6.832   1.571   2.743 -0.1643 -0.7913  0.5046
 5658TIP3    H216939   6.966   1.626   2.788 -0.2142 -1.0394  0.9640
 5659TIP3   OH216940   2.110   5.435   5.118  0.0425  0.1794  0.0495
 5659TIP3    H116941   2.176   5.431   5.187  1.5866 -0.6850 -1.4129
 5659TIP3    H216942   2.098   5.529   5.101  1.8341  0.3326 -0.5085
 5660TIP3   OH216943   0.676   3.205   5.288 -0.3730 -0.1027 -0.7411
 5660TIP3    H116944   0.707   3.145   5.356  2.0276  2.2291  0.4215
 5660TIP3    H216945   0.593   3.238   5.323 -1.0840 -1.7159 -0.8047
 5661TIP3   OH216946   4.858   0.351   2.926 -0.0293 -0.3265  0.0809
 5661TIP3    H116947   4.917   0.380   2.995 -1.3922  0.6437  0.8932
 5661TIP3    H216948   4.904   0.280   2.883  2.1461  1.0328  0.0165
 5662TIP3   OH216949   6.789   1.255   3.519 -0.2758  0.4229  0.0670
 5662TIP3    H116950   6.779   1.224   3.609 -1.7575  2.6966  0.7970
 5662TIP3    H216951   6.839   1.336   3.527  0.2547  0.2458 -1.2535
 5663TIP3   OH216952   1.881   2.581   4.647  0.0585 -0.3644 -0.2690
 5663TIP3    H116953   1.920   2.505   4.690 -0.7951 -0.6855 -0.0376
 5663TIP3    H216954   1.818   2.544   4.585 -0.4788  0.1513 -0.0452
 5664TIP3   OH216955   3.407   4.855   0.566 -0.0307 -0.2000 -0.1621
 5664TIP3    H116956   3.488   4.862   0.515 -0.1856 -0.8233 -0.5015
 5664TIP3    H216957   3.343   4.817   0.505 -1.1571  2.0988 -0.5393
 5665TIP3   OH216958   1.334   4.221   0.807 -0.0040  0.2052  0.0797
 5665TIP3    H116959   1.342   4.247   0.898 -0.2940 -2.3669  0.9316
 5665TIP3    H216960   1.253   4.261   0.777  0.6279  1.9370  0.5920
 5666TIP3   OH216961   4.300   5.706   4.018  0.6487 -0.3556 -0.4817
 5666TIP3    H116962   4.217   5.732   3.977  0.8459  1.1005  0.0078
 5666TIP3    H216963   4.274   5.641   4.084  0.1796 -1.6680 -1.8751
 5667TIP3   OH216964   3.229   0.597   0.569  0.2238  0.0032 -0.6145
 5667TIP3    H116965   3.175   0.559   0.500 -0.3475 -0.3068 -0.0110
 5667TIP3    H216966   3.169   0.607   0.643  0.4519  1.7277 -0.6230
 5668TIP3   OH216967   6.311   3.027   0.467 -0.0719 -0.1962 -0.2429
 5668TIP3    H116968   6.239   2.969   0.444  0.5014 -1.4788  0.9778
 5668TIP3    H216969   6.371   2.971   0.517  1.8341  0.7885 -1.3117
 5669TIP3   OH216970   1.608   3.008   0.422  0.6178 -0.4829 -0.9444
 5669TIP3    H116971   1.697   3.030   0.392  1.2321 -1.0070  0.4083
 5669TIP3    H216972   1.558   3.088   0.408  1.5614  0.1540 -0.7741
 5670TIP3   OH216973   0.990   6.219   5.335 -0.0942  0.0571 -0.2686
 5670TIP3    H116974   0.953   6.305   5.354  0.0388 -0.1342  0.8976
 5670TIP3    H216975   1.083   6.236   5.322 -0.2053  0.2062 -0.8961
 5671TIP3   OH216976   0.624   1.658   4.988 -0.1970 -0.0858 -0.5936
 5671TIP3    H116977   0.549   1.631   4.934 -0.9958 -0.6741  0.7662
 5671TIP3    H216978   0.592   1.651   5.078  0.7256  1.9790 -0.0462
 5672TIP3   OH216979   5.747   2.142   0.521 -0.1585  0.1914 -0.1890
 5672TIP3    H116980   5.807   2.191   0.465 -0.4603 -1.5332 -2.1788
 5672TIP3    H216981   5.802   2.103   0.588  0.6671  0.1524 -0.8755
 5673TIP3   OH216982   6.934   2.864   0.849 -0.2578  0.2511 -0.1754
 5673TIP3    H116983   6.959   2.911   0.929  0.3329 -0.9339  0.3666
 5673TIP3    H216984   6.994   2.790   0.845  0.6484  1.0108 -2.4815
 5674TIP3   OH216985   0.022   4.684   1.965  0.4808  0.5066  0.0608
 5674TIP3    H116986  -0.025   4.606   1.992 -1.2365  1.1479 -0.9005
 5674TIP3    H216987   0.038   4.732   2.046 -0.8571  0.4263  0.3819
 5675TIP3   OH216988   5.672   4.309   1.305  0.0368  0.4484  0.0344
 5675TIP3    H116989   5.637   4.339   1.221  1.4688  0.7335 -0.5066
 5675TIP3    H216990   5.656   4.382   1.365 -0.4546  0.4888 -0.1424
 5676TIP3   OH216991   2.714   3.668   3.327  0.3763 -0.3333  0.3426
 5676TIP3    H116992   2.757   3.608   3.388  1.2762  2.0944  2.2409
 5676TIP3    H216993   2.622   3.640   3.328  0.2663 -0.2016  3.1601
 5677TIP3   OH216994   3.890   1.367   4.337  0.0810  0.3911 -0.0774
 5677TIP3    H116995   3.980   1.357   4.306 -0.0793  2.7383 -1.5171
 5677TIP3    H216996   3.899   1.394   4.428  0.8634  0.8729 -0.2822
 5678TIP3   OH216997   3.677   3.972   4.252  0.0952 -0.3667 -0.3848
 5678TIP3    H116998   3.725   3.911   4.196  1.8716 -1.2194  1.9500
 5678TIP3    H216999   3.653   3.922   4.329  0.5144  1.5366  1.0648
 5679TIP3   OH217000   1.521   2.713   1.359 -0.2993 -0.2473 -0.2699
 5679TIP3    H117001   1.461   2.727   1.432  0.5932 -0.4725  0.5332
 5679TIP3    H217002   1.566   2.797   1.349 -0.5060 -0.1803 -0.6454
 5680TIP3   OH217003   5.369   3.036   4.937  0.0883  0.2850 -0.1214
 5680TIP3    H117004   5.401   2.977   5.006  1.8740  2.3647  0.9623
 5680TIP3    H217005   5.304   2.985   4.889 -0.4558 -1.6250  2.4513
 5681TIP3   OH217006   0.187   6.121   0.511  0.4270 -0.0877 -0.0384
 5681TIP3    H117007   0.146   6.142   0.595  1.4267  1.1859  0.1645
 5681TIP3    H217008   0.270   6.080   0.535 -0.0232 -1.2889 -0.4416
 5682TIP3   OH217009   2.562   4.650   2.786  0.0620  0.1931  0.0167
 5682TIP3    H117010   2.513   4.644   2.704  0.5885 -2.3577 -0.1668
 5682TIP3    H217011   2.648   4.614   2.766 -0.0664 -1.3020  1.8745
 5683TIP3   OH217012   4.927   0.106   0.875  0.0016  0.0544 -0.1118
 5683TIP3    H117013   4.944   0.198   0.855  0.2213 -0.2901 -1.6086
 5683TIP3    H217014   4.990   0.058   0.822 -0.4670 -0.9878  0.2491
 5684TIP3   OH217015   5.077   5.165   2.678 -0.4685  0.3782 -0.0772
 5684TIP3    H117016   5.086   5.152   2.772  1.2507  0.7553 -0.1545
 5684TIP3    H217017   5.053   5.078   2.644 -0.6195  0.1344  0.6428
 5685TIP3   OH217018   3.489   2.882   1.414  0.2571  0.3311 -0.1812
 5685TIP3    H117019   3.577   2.889   1.378  0.0986  0.7570 -0.4866
 5685TIP3    H217020   3.474   2.965   1.458 -0.6572  0.9760 -1.6363
 5686TIP3   OH217021   6.494   4.861   3.642  0.2822  0.1936  0.4986
 5686TIP3    H117022   6.401   4.860   3.620  0.1799  1.3121  0.8124
 5686TIP3    H217023   6.538   4.879   3.559  0.3710 -2.0674 -0.0013
 5687TIP3   OH217024   4.364   2.200   4.707  0.1743  0.8056 -0.3386
 5687TIP3    H117025   4.414   2.271   4.666  1.6467 -0.1813 -0.3479
 5687TIP3    H217026   4.307   2.168   4.638  1.9188 -0.1908 -1.3937
 5688TIP3   OH217027   2.634   1.144   0.214 -0.6451 -0.0786  0.1767
 5688TIP3    H117028   2.571   1.090   0.165 -1.2930  0.9513 -0.1812
 5688TIP3    H217029   2.599   1.147   0.303 -1.6534  1.2493 -0.2331
 5689TIP3   OH217030   0.466   2.969   1.485 -0.1403  0.0296 -0.2609
 5689TIP3    H117031   0.429   2.880   1.489  0.0230 -0.0592 -0.6686
 5689TIP3    H217032   0.426   3.008   1.406 -0.2101  0.3183 -0.0844
 5690TIP3   OH217033   4.978   2.254   4.671 -0.2127  0.3430  0.0529
 5690TIP3    H117034   4.956   2.257   4.764 -1.8471 -1.4473 -0.2249
 5690TIP3    H217035   5.071   2.236   4.668 -0.1887  0.2230  1.3439
 5691TIP3   OH217036   6.951   2.682   2.324  0.3699 -0.2083  0.0040
 5691TIP3    H117037   6.938   2.762   2.374 -1.6959 -0.1935 -0.4681
 5691TIP3    H217038   6.961   2.711   2.233 -0.2141 -0.4608 -0.1455
 5692TIP3   OH217039   4.796   4.900   4.161  0.4352  0.1645 -0.7120
 5692TIP3    H117040   4.760   4.923   4.247  0.9513 -0.7361 -0.2444
 5692TIP3    H217041   4.775   4.807   4.150 -2.5748  0.9701 -3.0487
 5693TIP3   OH217042   0.158   5.623   2.234  0.4695  0.9274  0.0371
 5693TIP3    H117043   0.207   5.617   2.317  1.6043 -0.4541 -0.7000
 5693TIP3    H217044   0.075   5.580   2.252  1.2431 -0.5912  0.1103
 5694TIP3   OH217045   0.432   5.160   0.753  0.2027  0.0723  0.6685
 5694TIP3    H117046   0.371   5.090   0.731 -1.1120  0.7269  2.0656
 5694TIP3    H217047   0.500   5.117   0.806  0.1412 -0.3744  0.3931
 5695TIP3   OH217048   0.308   3.036   5.038  0.4179  0.1117  0.6207
 5695TIP3    H117049   0.228   2.985   5.056  0.9729 -1.3959 -0.8914
 5695TIP3    H217050   0.281   3.127   5.047 -0.5393 -0.3487  3.8082
 5696TIP3   OH217051   5.150   5.659   2.569 -0.6846  0.2296  0.4301
 5696TIP3    H117052   5.210   5.704   2.510 -0.0299  0.7093  1.4353
 5696TIP3    H217053   5.063   5.684   2.539 -0.3601  0.4270 -0.3506
 5697TIP3   OH217054   1.746   3.253   1.281 -0.3145 -0.2047 -0.0138
 5697TIP3    H117055   1.703   3.281   1.362 -2.1314 -0.9653 -0.6509
 5697TIP3    H217056   1.676   3.212   1.230  0.9730 -0.5341 -1.6042
 5698TIP3   OH217057   6.188   4.128   0.853 -0.0748  0.6695  0.3712
 5698TIP3    H117058   6.164   4.159   0.765  0.5785  1.1351  0.3541
 5698TIP3    H217059   6.107   4.088   0.886 -0.3097  0.4293 -0.4631
 5699TIP3   OH217060   2.967   0.016   2.367 -0.4667 -0.0554 -0.2675
 5699TIP3    H117061   2.912   0.032   2.290 -0.1117  0.7430 -0.3651
 5699TIP3    H217062   3.055   0.000   2.331 -0.0291  1.5766  0.0101
 5700TIP3   OH217063   1.434   1.971   3.955 -0.3786  0.0165  0.3687
 5700TIP3    H117064   1.433   2.058   3.915 -1.3975 -0.6201 -1.0986
 5700TIP3    H217065   1.345   1.958   3.987 -0.2692 -0.5152  0.4678
 5701TIP3   OH217066   5.550   4.620   2.546  0.3171 -0.0170 -0.0351
 5701TIP3    H117067   5.507   4.624   2.632  2.2714  0.3034  0.9777
 5701TIP3    H217068   5.642   4.640   2.564  1.1554 -1.7806 -1.9577
 5702TIP3   OH217069   4.596   0.172   0.301 -0.1112  0.3480  0.0782
 5702TIP3    H117070   4.646   0.138   0.376  0.4414  1.2109  0.1222
 5702TIP3    H217071   4.663   0.194   0.236 -0.5888 -0.4059 -0.6913
 5703TIP3   OH217072   5.052   6.171   1.044 -0.0392 -0.0896  0.2831
 5703TIP3    H117073   5.015   6.105   0.986 -1.5340  2.0467 -1.3892
 5703TIP3    H217074   5.108   6.122   1.104 -0.6968 -2.7682 -1.1206
 5704TIP3   OH217075   4.245   1.845   1.511  0.1732 -0.3615  0.0014
 5704TIP3    H117076   4.186   1.918   1.526  1.7906  1.9387 -3.5231
 5704TIP3    H217077   4.330   1.876   1.543  0.6803 -1.0900 -0.6048
 5705TIP3   OH217078   7.070   5.591   5.364 -0.0760 -0.5788 -0.7367
 5705TIP3    H117079   7.144   5.648   5.345 -0.6258  0.9639  1.3682
 5705TIP3    H217080   7.109   5.510   5.396  0.7108  0.0068 -0.1862
 5706TIP3   OH217081   3.412   0.698   3.666  0.1891  0.5912 -0.4957
 5706TIP3    H117082   3.372   0.785   3.656 -0.4317  0.2363 -1.1688
 5706TIP3    H217083   3.357   0.640   3.614  1.2435 -0.0144 -0.9625
 5707TIP3   OH217084   0.081   3.790   2.508  0.0675 -0.1222 -0.0649
 5707TIP3    H117085   0.149   3.760   2.569  2.1906  0.9460 -1.7717
 5707TIP3    H217086   0.061   3.879   2.537 -0.3611 -0.3010  0.2050
 5708TIP3   OH217087   4.908   4.339   2.782  0.6110 -1.0784 -0.1797
 5708TIP3    H117088   4.956   4.391   2.845  0.0865  1.9122 -2.0170
 5708TIP3    H217089   4.962   4.341   2.703 -1.4534  0.6443 -1.6605
 5709TIP3   OH217090   0.220   5.088   3.708 -0.1082  0.1576  0.1875
 5709TIP3    H117091   0.145   5.028   3.712  0.4524 -0.5529  0.2366
 5709TIP3    H217092   0.202   5.153   3.776 -1.0732  0.4684 -0.3439
 5710TIP3   OH217093   3.163   5.589   3.671 -0.3672  0.1368 -0.1916
 5710TIP3    H117094   3.253   5.590   3.703 -0.4045  1.0781 -0.0915
 5710TIP3    H217095   3.113   5.638   3.736 -0.6979  0.8325 -0.9454
 5711TIP3   OH217096   5.743   4.372   3.793 -0.4001  0.9063 -0.2664
 5711TIP3    H117097   5.691   4.312   3.740  2.1982 -1.6830 -0.0940
 5711TIP3    H217098   5.755   4.327   3.876  1.5202  1.7242 -0.0625
 5712TIP3   OH217099   6.322   0.073   3.140  0.6056 -0.2808 -0.1360
 5712TIP3    H117100   6.269   0.007   3.095  2.0329 -1.0410 -0.7652
 5712TIP3    H217101   6.378   0.022   3.198  1.5027  0.4011 -0.3901
 5713TIP3   OH217102   4.069   0.560   3.295 -0.3786 -0.6604  0.1204
 5713TIP3    H117103   4.164   0.551   3.297 -0.4639 -1.8375 -0.5819
 5713TIP3    H217104   4.038   0.501   3.364 -0.5006  2.0712  2.6035
 5714TIP3   OH217105   6.202   3.943   3.657  0.2378  0.2913  0.3379
 5714TIP3    H117106   6.277   3.964   3.602  0.7117 -0.3464  0.7159
 5714TIP3    H217107   6.225   3.977   3.743  0.3516 -0.3955  0.5887
 5715TIP3   OH217108   2.410   2.024   5.558 -0.3223  0.0381  0.2994
 5715TIP3    H117109   2.391   2.086   5.488 -2.0732 -1.5315 -0.7276
 5715TIP3    H217110   2.374   2.064   5.637 -0.8889  0.6138 -0.2401
 5716TIP3   OH217111   4.645   6.635   0.193 -0.4497  0.6816  0.0163
 5716TIP3    H117112   4.669   6.697   0.262  1.8716 -0.5301  0.3784
 5716TIP3    H217113   4.556   6.606   0.217  0.0538  0.7506  2.1665
 5717TIP3   OH217114   5.447   0.119   5.468 -0.0870  0.0730  0.3548
 5717TIP3    H117115   5.365   0.088   5.508 -0.6213  1.5636  0.4827
 5717TIP3    H217116   5.506   0.134   5.541  0.4165 -1.2178  0.2481
 5718TIP3   OH217117   5.296   3.030   3.194  0.5837 -0.1511 -0.6331
 5718TIP3    H117118   5.316   3.063   3.282 -0.2774 -0.4374 -0.3166
 5718TIP3    H217119   5.201   3.037   3.187  0.6566 -0.0648 -1.5767
 5719TIP3   OH217120   3.455   6.311   0.624  0.2829 -0.1044 -0.2747
 5719TIP3    H117121   3.466   6.264   0.542  0.6296  0.8009 -0.7636
 5719TIP3    H217122   3.375   6.363   0.611  0.6908  0.5315 -0.2939
 5720TIP3   OH217123   0.621   4.583   0.952  0.5103 -0.3103 -0.1440
 5720TIP3    H117124   0.552   4.545   0.897  0.4336 -0.2912 -0.0624
 5720TIP3    H217125   0.698   4.587   0.895  0.3437  0.0148 -0.3517
 5721TIP3   OH217126   2.801   4.572   1.871  0.0785 -0.2612  0.0927
 5721TIP3    H117127   2.790   4.575   1.776 -2.2014  1.0998  0.3245
 5721TIP3    H217128   2.763   4.488   1.897  0.0490 -0.3145 -0.1217
 5722TIP3   OH217129   6.073   5.555   2.555 -0.2465 -0.0012 -1.1778
 5722TIP3    H117130   5.981   5.570   2.573 -0.0500  0.2643 -0.3461
 5722TIP3    H217131   6.115   5.640   2.570  0.5581 -0.7401  1.4840
 5723TIP3   OH217132   2.113   4.357   0.552  0.2702  0.7361 -0.2071
 5723TIP3    H117133   2.169   4.321   0.483  0.9619 -1.7908  1.5566
 5723TIP3    H217134   2.121   4.452   0.541 -0.2101  0.4907 -3.9824
 5724TIP3   OH217135   0.525   3.545   4.763 -0.0693  0.8834  0.7649
 5724TIP3    H117136   0.439   3.533   4.804 -0.4648 -0.7657 -0.4454
 5724TIP3    H217137   0.587   3.540   4.836 -0.9252  0.8661  1.5057
 5725TIP3   OH217138   7.176   1.975   0.195 -0.5241  0.2085  0.3365
 5725TIP3    H117139   7.162   2.069   0.202 -0.3906  0.1439  1.9768
 5725TIP3    H217140   7.095   1.941   0.156 -1.5945  0.7554  1.9858
 5726TIP3   OH217141   6.367   2.696   4.445 -0.5992 -0.5310  0.2901
 5726TIP3    H117142   6.345   2.690   4.538 -0.3502  2.3984  0.6218
 5726TIP3    H217143   6.302   2.757   4.409  1.0640  0.6947 -0.7830
 5727TIP3   OH217144   7.099   1.260   5.526  0.0021 -0.4541 -0.2640
 5727TIP3    H117145   7.035   1.307   5.474  0.6565 -0.1485 -0.8026
 5727TIP3    H217146   7.046   1.203   5.583 -0.7265 -0.8207 -1.2676
 5728TIP3   OH217147   4.268   0.832   0.693  0.3187 -0.1979 -0.5086
 5728TIP3    H117148   4.289   0.914   0.737 -0.7219 -0.9748  1.5701
 5728TIP3    H217149   4.173   0.835   0.682  0.4926 -0.2656 -2.2934
 5729TIP3   OH217150   3.405   3.505   1.125  0.5387 -0.6490  0.1217
 5729TIP3    H117151   3.416   3.551   1.042  0.8598  0.4632  0.7569
 5729TIP3    H217152   3.311   3.510   1.143  0.8049  1.6154  1.1770
 5730TIP3   OH217153   3.494   1.495   1.648 -0.1313  0.1453 -0.3441
 5730TIP3    H117154   3.477   1.476   1.740  0.3521  0.0354 -0.2754
 5730TIP3    H217155   3.411   1.477   1.604  0.3683 -2.5099 -0.3539
 5731TIP3   OH217156   1.249   2.918   3.777 -0.3291 -0.1530  0.2166
 5731TIP3    H117157   1.260   2.843   3.718  0.4885 -0.3115  0.5630
 5731TIP3    H217158   1.164   2.904   3.818 -1.4070  0.4884 -1.6605
 5732TIP3   OH217159   4.705   0.022   2.567  0.1732  0.0134  0.1442
 5732TIP3    H117160   4.740   0.111   2.559  1.4399 -0.2310  2.2485
 5732TIP3    H217161   4.771  -0.026   2.617 -0.8503 -1.9253 -0.2457
 5733TIP3   OH217162   2.055   5.824   2.462 -1.1567  0.0295  0.0183
 5733TIP3    H117163   2.009   5.876   2.396 -0.6151  0.4227 -0.0580
 5733TIP3    H217164   2.138   5.801   2.420  0.0103  1.8242  1.1842
 5734TIP3   OH217165   1.739   3.288   4.930  0.1320 -0.3877  0.5737
 5734TIP3    H117166   1.746   3.294   5.026  1.0261 -2.4737  0.6910
 5734TIP3    H217167   1.824   3.255   4.902  0.7888  2.4659 -1.2662
 5735TIP3   OH217168   3.700   0.708   1.271 -0.0449  0.3105  0.1898
 5735TIP3    H117169   3.606   0.722   1.286 -0.4605  0.5209 -2.2410
 5735TIP3    H217170   3.738   0.796   1.276  0.1027  0.1864  1.5074
 5736TIP3   OH217171   2.975   1.316   4.486 -0.3225  0.0462  0.1221
 5736TIP3    H117172   2.931   1.366   4.554  0.8343  1.4560 -0.1223
 5736TIP3    H217173   3.061   1.296   4.523 -0.8088 -2.0056  0.2962
 5737TIP3   OH217174   1.613   1.992   4.231  0.1794  0.0064 -0.0330
 5737TIP3    H117175   1.571   1.911   4.202 -0.5943  0.1840  0.5647
 5737TIP3    H217176   1.541   2.050   4.254  0.7281  0.8320 -0.3302
 5738TIP3   OH217177   1.697   0.894   1.447  0.0655  0.3167  0.3170
 5738TIP3    H117178   1.682   0.870   1.356  1.7465  1.4308 -0.3090
 5738TIP3    H217179   1.632   0.962   1.465 -0.0450  0.3383 -0.1597
 5739TIP3   OH217180   5.465   3.600   0.644  0.5539 -0.3019  0.0849
 5739TIP3    H117181   5.397   3.564   0.587 -0.7372  0.1132  1.2831
 5739TIP3    H217182   5.418   3.661   0.701  1.5571 -1.4422  2.2799
 5740TIP3   OH217183   1.058   1.659   4.806 -0.3495 -0.7226  0.1633
 5740TIP3    H117184   1.072   1.633   4.715  2.8425  1.5223 -0.1556
 5740TIP3    H217185   0.985   1.721   4.802 -0.3080 -0.7146 -0.8665
 5741TIP3   OH217186   4.384   0.950   1.087  0.2485 -0.2095  0.4225
 5741TIP3    H117187   4.416   0.897   1.160 -0.4086  0.9711  1.6353
 5741TIP3    H217188   4.318   1.007   1.127  0.9618  1.5428 -0.7899
 5742TIP3   OH217189   3.618   4.466   2.901 -0.3976  0.3156  0.7059
 5742TIP3    H117190   3.607   4.495   2.991 -0.2285 -1.6777  1.4129
 5742TIP3    H217191   3.689   4.521   2.867  0.0550  0.5972  2.0283
 5743TIP3   OH217192   2.973   0.352   3.211  0.0948  0.6323 -0.1770
 5743TIP3    H117193   2.954   0.411   3.139 -2.7922  0.2557  0.1448
 5743TIP3    H217194   2.938   0.267   3.183  0.9260 -0.0675  0.8009
 5744TIP3   OH217195   2.400   6.328   0.682 -0.1503  0.4379 -0.1211
 5744TIP3    H117196   2.448   6.245   0.682 -1.7868 -0.5535 -0.3410
 5744TIP3    H217197   2.308   6.302   0.678 -0.8858  2.1950  2.9224
 5745TIP3   OH217198   6.405   4.380   0.702 -0.6766 -0.3831 -0.0504
 5745TIP3    H117199   6.432   4.290   0.682  1.2820 -0.1268  1.2413
 5745TIP3    H217200   6.310   4.374   0.711 -0.6167 -2.2839 -0.1751
 5746TIP3   OH217201   6.125   0.092   2.054 -0.4393 -0.7804  0.0010
 5746TIP3    H117202   6.167   0.128   1.976  0.9541 -1.5202  0.3760
 5746TIP3    H217203   6.118  -0.002   2.036 -1.8501 -0.6934  0.0036
 5747TIP3   OH217204   5.492   3.447   1.127  0.1312  0.5350 -0.4444
 5747TIP3    H117205   5.459   3.367   1.087 -1.5665  0.6433  0.6487
 5747TIP3    H217206   5.554   3.416   1.194 -1.2409  0.0516  0.6402
 5748TIP3   OH217207   4.048   1.391   2.979 -0.2034  0.4511  0.0371
 5748TIP3    H117208   4.113   1.416   3.045  0.9460  2.5679 -1.7553
 5748TIP3    H217209   3.992   1.468   2.969 -0.0627  0.3812 -1.7171
 5749TIP3   OH217210   2.420   4.333   5.575 -0.6382 -0.3643  0.6419
 5749TIP3    H117211   2.354   4.275   5.613 -0.7643 -0.0274  0.9408
 5749TIP3    H217212   2.499   4.278   5.569 -1.2826 -1.1715 -0.9617
 5750TIP3   OH217213   2.831   3.093   1.481 -0.2226 -0.0877  0.1388
 5750TIP3    H117214   2.853   3.186   1.488  0.3342 -0.1043 -1.1774
 5750TIP3    H217215   2.739   3.092   1.456 -0.6684  0.0517  1.6282
 5751TIP3   OH217216   3.558   2.438   2.262 -0.6402  0.1882  0.2378
 5751TIP3    H117217   3.558   2.343   2.252 -1.3992  0.2556 -0.5612
 5751TIP3    H217218   3.487   2.456   2.323 -0.6560  0.2496  0.2021
 5752TIP3   OH217219   5.953   4.058   0.989 -0.2756  0.6441 -0.1134
 5752TIP3    H117220   5.935   4.110   1.067 -2.2867 -2.1718  1.5072
 5752TIP3    H217221   5.884   4.081   0.927 -1.2067 -0.0493  0.6296
 5753TIP3   OH217222   3.130   2.132   3.265  0.2775  0.0970  0.4190
 5753TIP3    H117223   3.146   2.225   3.249 -0.5056  0.4278  1.4225
 5753TIP3    H217224   3.047   2.131   3.313 -0.2860 -1.2019 -0.5403
 5754TIP3   OH217225   5.977   5.433   3.192 -0.4791 -1.2699  0.4553
 5754TIP3    H117226   6.001   5.345   3.164 -1.2453 -1.0327 -1.0756
 5754TIP3    H217227   6.009   5.490   3.122 -1.4540 -0.5219  0.5856
 5755TIP3   OH217228   5.094   1.225   1.387 -0.2612 -0.3484 -0.3555
 5755TIP3    H117229   5.157   1.192   1.323  2.1999  2.3067  0.4546
 5755TIP3    H217230   5.067   1.310   1.353  1.0843  1.1229  1.9539
 5756TIP3   OH217231   6.422   1.537   0.024  0.5472 -0.2848  0.6554
 5756TIP3    H117232   6.458   1.500   0.105 -0.7726 -2.8700  0.1556
 5756TIP3    H217233   6.491   1.524  -0.041  0.5624 -0.7546  0.7627
 5757TIP3   OH217234   0.276   5.898   1.521  0.2975 -0.1453  0.1538
 5757TIP3    H117235   0.334   5.904   1.596  1.6170  1.1942 -0.8937
 5757TIP3    H217236   0.328   5.930   1.448 -1.8305  1.3697 -0.8194
 5758TIP3   OH217237   0.212   5.414   0.349  0.3010 -0.0174 -0.1592
 5758TIP3    H117238   0.199   5.338   0.293 -0.2401 -1.2061  1.4894
 5758TIP3    H217239   0.307   5.425   0.354  0.4810 -1.6775  0.9057
 5759TIP3   OH217240   1.041   0.244   3.426 -0.4636  0.1028 -0.3280
 5759TIP3    H117241   1.089   0.200   3.496  0.3400 -1.1239 -1.5952
 5759TIP3    H217242   1.037   0.336   3.454  1.5845  0.0187  0.4066
 5760TIP3   OH217243   3.446   3.151   1.490  0.1162  0.0810  0.5291
 5760TIP3    H117244   3.373   3.202   1.453  1.0553 -0.7523 -2.8342
 5760TIP3    H217245   3.514   3.215   1.507 -0.2208  0.4652  0.4554
 5761TIP3   OH217246   5.506   2.498   0.936  0.0627 -0.3438 -0.4371
 5761TIP3    H117247   5.598   2.500   0.964  0.1158 -1.6951 -0.4236
 5761TIP3    H217248   5.509   2.525   0.844  0.2920  0.9590 -0.0593
 5762TIP3   OH217249   5.031   6.568   3.608 -0.1524 -0.0963  0.1666
 5762TIP3    H117250   4.946   6.597   3.576  0.3414 -0.3284 -1.4613
 5762TIP3    H217251   5.091   6.639   3.587  0.5276 -1.0231 -1.1903
 5763TIP3   OH217252   7.041   2.250   3.732 -0.6474 -0.4457 -0.5242
 5763TIP3    H117253   6.991   2.174   3.703  0.7680 -1.0316 -1.5298
 5763TIP3    H217254   7.034   2.313   3.660  0.6309 -0.8294 -1.0147
 5764TIP3   OH217255   1.380   5.383   1.854  0.3005  0.4385  0.2732
 5764TIP3    H117256   1.452   5.360   1.913  1.3860  0.6046 -0.9662
 5764TIP3    H217257   1.331   5.450   1.901  0.5626 -0.1360  1.4010
 5765TIP3   OH217258   6.447   0.542   0.634 -0.3401 -0.0949  0.0453
 5765TIP3    H117259   6.539   0.524   0.649 -0.7598 -0.2079  2.9300
 5765TIP3    H217260   6.445   0.635   0.608  0.6634 -0.5486 -1.8646
 5766TIP3   OH217261   5.720   4.256   2.249  0.4363  0.6499  0.3083
 5766TIP3    H117262   5.663   4.305   2.307 -0.1617 -1.2460  1.4056
 5766TIP3    H217263   5.715   4.166   2.280  1.7291 -0.0865 -1.4147
 5767TIP3   OH217264   0.617   3.065   4.657  0.7299  0.2237  0.0213
 5767TIP3    H117265   0.654   3.068   4.745  0.9408 -0.3645 -0.0400
 5767TIP3    H217266   0.648   3.145   4.615  1.1570  0.1953  0.2760
 5768TIP3   OH217267   3.767   5.815   5.419 -0.0761  0.1445 -0.0260
 5768TIP3    H117268   3.770   5.832   5.513  0.9267 -0.0207 -0.0164
 5768TIP3    H217269   3.788   5.722   5.411  1.1127  0.4364 -0.4809
 5769TIP3   OH217270   5.375   1.450   1.227  0.7976 -0.0711 -0.2389
 5769TIP3    H117271   5.433   1.477   1.156 -0.7165  1.7243 -0.9017
 5769TIP3    H217272   5.304   1.515   1.225 -0.4722 -1.3182  1.4459
 5770TIP3   OH217273   1.041   0.502   0.524 -0.2130  0.0988  0.0056
 5770TIP3    H117274   1.067   0.580   0.475 -1.1780 -0.5877 -1.7059
 5770TIP3    H217275   1.073   0.429   0.471  1.6148 -0.7341  2.0980
 5771TIP3   OH217276   0.906   6.530   5.163 -0.2570  0.1154 -0.1264
 5771TIP3    H117277   0.944   6.472   5.097 -0.2838 -1.3761  1.1130
 5771TIP3    H217278   0.840   6.580   5.115  0.0193 -0.6126 -1.3165
 5772TIP3   OH217279   3.845   4.588   2.809  0.5840  0.0183  0.4234
 5772TIP3    H117280   3.880   4.659   2.862  0.0150  1.0669 -0.5506
 5772TIP3    H217281   3.874   4.608   2.720 -2.4729  1.0222 -0.4703
 5773TIP3   OH217282   5.264   3.523   5.415 -0.1497 -0.3047 -0.3049
 5773TIP3    H117283   5.182   3.477   5.397 -0.1454 -1.0066  1.3419
 5773TIP3    H217284   5.246   3.574   5.494  1.6152 -2.1952  1.4081
 5774TIP3   OH217285   6.598   6.455   1.872  0.6117  0.0393 -0.2665
 5774TIP3    H117286   6.506   6.430   1.869  0.8538 -1.1577  1.1844
 5774TIP3    H217287   6.608   6.521   1.802 -1.2253 -0.1184 -0.7112
 5775TIP3   OH217288   0.388   5.480  -0.005 -0.1753  0.3027 -0.1660
 5775TIP3    H117289   0.342   5.403  -0.039  1.8438 -1.8755  1.6941
 5775TIP3    H217290   0.385   5.470   0.090  0.4775  2.3494  0.1211
 5776TIP3   OH217291   3.929   5.661   3.593  0.2068 -0.5198 -0.1257
 5776TIP3    H117292   4.003   5.610   3.560  0.5259  0.4881 -1.0393
 5776TIP3    H217293   3.899   5.613   3.670  1.1160 -1.5356 -0.3801
 5777TIP3   OH217294   4.527   5.587   1.262  0.2156  0.0008 -0.3579
 5777TIP3    H117295   4.511   5.597   1.355  0.2031  0.6513 -0.4202
 5777TIP3    H217296   4.619   5.561   1.256  1.6875  4.2718 -0.2706
 5778TIP3   OH217297   6.932   4.218   4.686  0.0769 -0.1996 -0.3426
 5778TIP3    H117298   6.846   4.176   4.693 -0.4977  0.8934 -0.6057
 5778TIP3    H217299   6.977   4.170   4.616 -0.6844 -0.2016 -0.8409
 5779TIP3   OH217300   5.741   2.565   5.201  0.3418 -0.5110 -0.3565
 5779TIP3    H117301   5.699   2.512   5.134  0.1312  1.6221 -2.0375
 5779TIP3    H217302   5.828   2.584   5.165  0.5778 -0.0989  0.4143
 5780TIP3   OH217303   0.925   2.064   3.866  0.0211  0.0992  0.8940
 5780TIP3    H117304   0.847   2.073   3.812  0.6027 -0.0481  0.0084
 5780TIP3    H217305   0.978   2.141   3.845  1.4287 -1.2243 -0.7574
 5781TIP3   OH217306   3.723   2.205   1.338  0.2062 -0.4609 -0.0144
 5781TIP3    H117307   3.786   2.223   1.269 -0.3782  2.0924  0.0323
 5781TIP3    H217308   3.764   2.240   1.417  0.1710 -1.9002  0.6802
 5782TIP3   OH217309   4.738   4.358   1.109 -0.0379  0.1519  0.0146
 5782TIP3    H117310   4.804   4.290   1.120  0.9078  0.9006 -0.8567
 5782TIP3    H217311   4.783   4.439   1.134 -0.1686  0.8600 -1.8929
 5783TIP3   OH217312   2.759   1.128   5.723  0.3514 -0.2403  0.2967
 5783TIP3    H117313   2.832   1.187   5.739  2.9289 -2.8336 -0.9625
 5783TIP3    H217314   2.739   1.089   5.808  2.7213 -1.8234  0.2316
 5784TIP3   OH217315   4.880   4.652   5.682  0.1545  0.1443 -0.5337
 5784TIP3    H117316   4.908   4.572   5.636  2.1137 -0.0471  0.8662
 5784TIP3    H217317   4.946   4.717   5.661 -0.8132  1.0927 -0.7412
 5785TIP3   OH217318   0.679   0.456   4.856  0.3134  0.4896 -0.3412
 5785TIP3    H117319   0.667   0.497   4.942  0.1132  0.3698 -0.3113
 5785TIP3    H217320   0.699   0.528   4.797  2.4101  0.3875  0.1662
 5786TIP3   OH217321   1.578   4.785   4.744 -0.0578 -0.0036  0.1257
 5786TIP3    H117322   1.618   4.710   4.700  0.6415  0.5847 -0.2708
 5786TIP3    H217323   1.486   4.760   4.756  0.0768 -0.7612 -0.3502
 5787TIP3   OH217324   2.258   5.332   4.470  0.1440 -0.9317 -0.0387
 5787TIP3    H117325   2.270   5.259   4.410  0.3745 -1.7559  0.9898
 5787TIP3    H217326   2.165   5.332   4.491 -0.1070 -0.0909 -1.0550
 5788TIP3   OH217327   7.024   4.221   1.270  0.0891  0.2061 -0.2752
 5788TIP3    H117328   7.048   4.219   1.177 -0.4481 -1.1547 -0.4066
 5788TIP3    H217329   7.005   4.313   1.287  0.2592  0.4919 -1.5013
 5789TIP3   OH217330   2.101   0.588   1.587 -0.1905 -0.3384  0.1216
 5789TIP3    H117331   2.063   0.674   1.573 -2.3792 -0.9823  1.6129
 5789TIP3    H217332   2.042   0.528   1.540  1.4936 -1.0379 -1.1991
 5790TIP3   OH217333   5.925   1.998   4.288 -0.3602  0.3254  0.6076
 5790TIP3    H117334   5.944   1.974   4.378  1.1673  3.4991  1.2986
 5790TIP3    H217335   5.984   1.944   4.235  1.5806  1.1200  1.8606
 5791TIP3   OH217336   4.855   0.776   1.729 -0.3999  0.0710  0.4631
 5791TIP3    H117337   4.766   0.780   1.766 -0.1274  3.0462  1.0650
 5791TIP3    H217338   4.906   0.731   1.796 -1.5408 -2.3970 -0.2353
 5792TIP3   OH217339   5.238   4.378   4.961  0.1322 -0.3823 -0.3012
 5792TIP3    H117340   5.303   4.334   4.906  0.5843  0.9876 -0.9061
 5792TIP3    H217341   5.268   4.469   4.966 -0.6886 -0.1614  1.0452
 5793TIP3   OH217342   0.459   2.767   0.148 -0.4971 -0.3507  0.4308
 5793TIP3    H117343   0.393   2.699   0.156 -0.5570 -0.4167 -0.5136
 5793TIP3    H217344   0.418   2.846   0.184 -0.7840 -0.5859  0.6160
 5794TIP3   OH217345   0.376   1.221   2.074 -0.1329 -0.6282  0.0752
 5794TIP3    H117346   0.458   1.214   2.026 -0.0643  1.2926 -0.1387
 5794TIP3    H217347   0.308   1.209   2.007 -0.0323 -1.0372  0.0449
 5795TIP3   OH217348   5.314   1.669   3.837  0.1046  0.0903 -0.4126
 5795TIP3    H117349   5.394   1.653   3.888  0.2288 -2.5906 -1.2731
 5795TIP3    H217350   5.337   1.741   3.779  0.5360  2.0518  1.9969
 5796TIP3   OH217351   4.808   2.953   2.785 -0.0512  0.2740  0.3327
 5796TIP3    H117352   4.760   3.032   2.762 -0.9923 -0.7468 -1.5231
 5796TIP3    H217353   4.742   2.883   2.781  0.9945 -0.7647  0.7046
 5797TIP3   OH217354   2.573   0.659   1.894  0.4568  0.5362 -0.8427
 5797TIP3    H117355   2.543   0.709   1.969  1.4563 -0.5617  0.3454
 5797TIP3    H217356   2.503   0.666   1.829 -1.6551 -0.6433  1.1860
 5798TIP3   OH217357   1.564   1.261   5.262  0.5150 -0.4246  0.0773
 5798TIP3    H117358   1.493   1.323   5.247  0.3786 -0.2500  1.3710
 5798TIP3    H217359   1.520   1.182   5.296  0.7953 -0.8621 -0.5553
 5799TIP3   OH217360   5.578   0.020   1.836 -0.1912 -0.5979 -0.3835
 5799TIP3    H117361   5.535   0.018   1.922 -0.3528 -3.0859 -0.4439
 5799TIP3    H217362   5.658  -0.031   1.849  0.1428 -0.3844 -1.5463
 5800TIP3   OH217363   2.859   4.577   5.023  0.1842  0.5979 -0.3224
 5800TIP3    H117364   2.908   4.501   4.991  0.2469  1.4896 -2.5237
 5800TIP3    H217365   2.908   4.653   4.990 -1.2390  1.5394 -0.3665
 5801TIP3   OH217366   6.150   0.895   4.014  0.0917 -0.9130  0.8134
 5801TIP3    H117367   6.226   0.888   4.071 -0.7622 -0.2704  2.0901
 5801TIP3    H217368   6.102   0.813   4.028  0.2885 -1.1043  0.3877
 5802TIP3   OH217369   0.254   1.004   4.532 -0.3144 -0.1631  0.1619
 5802TIP3    H117370   0.232   0.924   4.483 -0.3715  0.2014 -0.4150
 5802TIP3    H217371   0.192   1.069   4.500 -0.1713  0.1535  0.5262
 5803TIP3   OH217372   2.805   0.309   4.985  0.1087  0.3835 -0.1059
 5803TIP3    H117373   2.777   0.280   5.072  0.1914 -0.1617 -0.2593
 5803TIP3    H217374   2.734   0.365   4.954  0.0013  0.4424  0.2387
 5804TIP3   OH217375   6.958   1.558   2.466  0.0775  0.8139  0.4236
 5804TIP3    H117376   6.878   1.539   2.515  0.0212 -0.6787 -0.1886
 5804TIP3    H217377   6.990   1.640   2.503 -1.1552  0.8810  1.4125
 5805TIP3   OH217378   7.182   0.287   0.304  0.1621 -0.1666  0.1235
 5805TIP3    H117379   7.180   0.210   0.360  1.5493  0.1015  0.5780
 5805TIP3    H217380   7.249   0.267   0.238 -1.2153 -0.3558 -1.2949
 5806TIP3   OH217381   4.206   3.620   0.716  0.4156  0.2770  0.2462
 5806TIP3    H117382   4.280   3.607   0.775  1.8001 -0.4588 -1.5660
 5806TIP3    H217383   4.228   3.699   0.666 -0.6068  0.7467  0.5031
 5807TIP3   OH217384   5.708   1.586   3.020  0.1075  0.3992  0.3949
 5807TIP3    H117385   5.635   1.567   2.961  1.7840 -1.2352 -1.3172
 5807TIP3    H217386   5.693   1.529   3.095 -1.4796  1.6949  1.1168
 5808TIP3   OH217387   0.793   4.583   0.742  0.2634  0.2920 -0.0530
 5808TIP3    H117388   0.744   4.543   0.670 -0.7083  0.6524  0.3848
 5808TIP3    H217389   0.854   4.514   0.771 -0.9614 -0.6866  0.2951
 5809TIP3   OH217390   2.994   0.083   0.373 -0.4916  0.2956 -0.2303
 5809TIP3    H117391   3.088   0.095   0.389 -0.8377  2.1695  0.6246
 5809TIP3    H217392   2.959   0.056   0.458 -1.0257  1.6693  0.0024
 5810TIP3   OH217393   0.584   2.450   3.480 -0.4556 -0.1411  0.0542
 5810TIP3    H117394   0.606   2.543   3.487 -0.7064 -0.1292  0.7699
 5810TIP3    H217395   0.530   2.444   3.401 -0.0386  0.2408 -0.2624
 5811TIP3   OH217396   2.910   6.755   4.999 -0.8914  0.0791  0.0807
 5811TIP3    H117397   2.978   6.688   4.999 -0.4603  0.4696 -1.6732
 5811TIP3    H217398   2.956   6.836   4.975 -2.1913 -0.0192 -3.3143
 5812TIP3   OH217399   0.538   3.155   2.566  0.2222 -0.0860 -0.0423
 5812TIP3    H117400   0.627   3.167   2.534  1.0117  0.9602  2.2838
 5812TIP3    H217401   0.484   3.204   2.504  1.2828 -0.3753 -1.2539
 5813TIP3   OH217402   2.310   0.716   1.085 -0.2312 -0.3764  0.0735
 5813TIP3    H117403   2.250   0.708   1.159  0.4819  1.2532  0.8716
 5813TIP3    H217404   2.384   0.659   1.107  0.5181  0.9876  1.2135
 5814TIP3   OH217405   2.058   3.369   1.243  0.4877  0.3408  0.1893
 5814TIP3    H117406   1.964   3.358   1.228  0.3110  0.6943  1.0214
 5814TIP3    H217407   2.099   3.316   1.174 -0.3173 -0.6584  0.4525
 5815TIP3   OH217408   5.713   0.072   3.798 -0.2174 -0.4555  0.0457
 5815TIP3    H117409   5.645   0.140   3.794 -0.4320 -0.7277 -2.0411
 5815TIP3    H217410   5.795   0.118   3.783 -0.0366 -0.3204  1.2804
 5816TIP3   OH217411   1.698   5.772   4.340  0.2588  0.3889  0.2445
 5816TIP3    H117412   1.656   5.732   4.264 -0.9607  1.7177  0.1719
 5816TIP3    H217413   1.787   5.789   4.312  0.4235 -1.0031 -0.1672
 5817TIP3   OH217414   6.120   5.057   5.817 -0.4484  0.5027 -0.1431
 5817TIP3    H117415   6.141   5.137   5.864 -0.8720  0.0401  0.8830
 5817TIP3    H217416   6.026   5.045   5.832 -0.1471 -0.9077  0.9410
 5818TIP3   OH217417   3.315   1.991   2.508 -0.7774 -0.0495  0.1508
 5818TIP3    H117418   3.234   1.965   2.465 -0.5416 -0.7080  0.0901
 5818TIP3    H217419   3.312   1.949   2.594  0.1077 -1.2233 -0.3625
 5819TIP3   OH217420   1.372   1.135   2.907  0.6518  0.6110 -0.0403
 5819TIP3    H117421   1.382   1.071   2.836 -1.3157 -0.7133  0.7670
 5819TIP3    H217422   1.432   1.105   2.975 -1.2685 -1.3660  0.9111
 5820TIP3   OH217423   7.189   3.638   3.657  0.1382  0.3861 -0.0477
 5820TIP3    H117424   7.171   3.709   3.596 -0.8934  0.7079  0.6136
 5820TIP3    H217425   7.247   3.579   3.608  0.5507  1.3870 -0.7949
 5821TIP3   OH217426   6.280   6.280   1.461  0.3197 -0.5547  0.2757
 5821TIP3    H117427   6.259   6.225   1.537  0.1949 -0.4049  0.3503
 5821TIP3    H217428   6.375   6.274   1.452  0.2759 -1.0543  0.0781
 5822TIP3   OH217429   4.575   1.162   4.353  0.4596  0.1172 -0.3737
 5822TIP3    H117430   4.664   1.178   4.322  0.7022  0.3297  0.4205
 5822TIP3    H217431   4.521   1.221   4.300  0.9281  0.8644 -0.0338
 5823TIP3   OH217432   0.190   2.681   5.018  0.1899  0.2458  0.4246
 5823TIP3    H117433   0.249   2.648   5.086 -0.7899 -0.9148  0.7362
 5823TIP3    H217434   0.132   2.741   5.064  1.9683  2.5478 -0.1412
 5824TIP3   OH217435   1.994   3.406   4.175  0.0840  0.1410  0.6161
 5824TIP3    H117436   1.949   3.464   4.236  1.8820  3.4652 -0.9641
 5824TIP3    H217437   1.939   3.406   4.097 -0.6969 -1.6726  1.1159
 5825TIP3   OH217438   2.221   6.503   3.326 -0.0499  0.8752  0.0140
 5825TIP3    H117439   2.196   6.475   3.414  0.6965  1.4025  0.4091
 5825TIP3    H217440   2.149   6.560   3.297 -0.6433  0.1290 -0.0241
 5826TIP3   OH217441   6.026   5.180   1.759  0.0428  0.2003 -0.3254
 5826TIP3    H117442   5.947   5.171   1.812  0.5932 -0.6549  0.3945
 5826TIP3    H217443   6.079   5.245   1.806  1.6360 -2.3619  1.6828
 5827TIP3   OH217444   4.558   3.251   4.091  0.0894 -0.6291  0.3137
 5827TIP3    H117445   4.566   3.346   4.094  1.5978 -0.6909 -0.6454
 5827TIP3    H217446   4.601   3.220   4.170 -0.5271 -0.5283  0.6983
 5828TIP3   OH217447   6.230   0.646   1.080 -0.0325 -0.5286 -0.1298
 5828TIP3    H117448   6.309   0.672   1.033  0.2696  0.0246  0.6592
 5828TIP3    H217449   6.207   0.560   1.043  1.8220 -1.4387  0.6880
 5829TIP3   OH217450   3.753   4.191   3.589  0.0962 -0.0837 -0.0575
 5829TIP3    H117451   3.740   4.278   3.552  2.8857  0.1479 -0.7011
 5829TIP3    H217452   3.758   4.205   3.683 -0.4754  0.2829 -0.0768
 5830TIP3   OH217453   0.502   1.437   0.907 -0.6854  0.0045  0.1547
 5830TIP3    H117454   0.555   1.516   0.895 -0.8576 -0.1460 -2.0293
 5830TIP3    H217455   0.428   1.466   0.959  0.2174  0.8228  1.0342
 5831TIP3   OH217456   1.774   3.148   0.779 -0.5277 -0.3358 -0.0289
 5831TIP3    H117457   1.705   3.201   0.818 -0.7149 -1.0980  0.6985
 5831TIP3    H217458   1.818   3.207   0.718 -0.6309  0.6994  0.8823
 5832TIP3   OH217459   5.308   3.947   0.450 -0.5569  0.7604 -0.4565
 5832TIP3    H117460   5.348   4.032   0.471  2.5316 -0.3011 -1.4183
 5832TIP3    H217461   5.295   3.950   0.355 -1.0099  0.3930 -0.4061
 5833TIP3   OH217462   5.205   3.720   0.263 -0.7071 -0.0760  0.1212
 5833TIP3    H117463   5.120   3.684   0.239  0.3092 -1.7412 -1.1745
 5833TIP3    H217464   5.226   3.677   0.347 -0.4104 -0.9932 -0.4070
 5834TIP3   OH217465   4.927   5.298   2.358 -0.2538 -0.1491 -0.0731
 5834TIP3    H117466   5.007   5.264   2.318  1.2253  3.0975 -0.1337
 5834TIP3    H217467   4.955   5.333   2.442 -1.8852 -0.1098  0.4934
 5835TIP3   OH217468   5.755   1.989   5.578  0.0009  0.5556  0.0739
 5835TIP3    H117469   5.816   1.986   5.504  0.0070 -1.3391  0.1287
 5835TIP3    H217470   5.793   1.932   5.644  0.2083  2.5522  1.7711
 5836TIP3   OH217471   5.670   0.706   2.759  0.2981 -0.0940 -0.2194
 5836TIP3    H117472   5.709   0.623   2.787  0.8686  0.8588  2.0667
 5836TIP3    H217473   5.582   0.705   2.797 -0.5397 -0.5667 -2.0823
 5837TIP3   OH217474   5.233   0.061   2.983  0.1262 -0.0859 -0.8251
 5837TIP3    H117475   5.307   0.010   3.015 -0.3556 -0.7276 -0.7144
 5837TIP3    H217476   5.188   0.091   3.062 -0.7718 -1.2445 -0.8711
 5838TIP3   OH217477   6.123   6.271   4.535  0.3454 -0.8360 -0.3463
 5838TIP3    H117478   6.110   6.192   4.483  1.4221 -0.9377 -0.4741
 5838TIP3    H217479   6.197   6.250   4.592  0.7832  0.1551 -0.5337
 5839TIP3   OH217480   5.791   5.323   1.951 -0.1878  0.2672  0.3174
 5839TIP3    H117481   5.785   5.316   1.856 -2.0202 -0.5356  0.4623
 5839TIP3    H217482   5.704   5.351   1.979  0.7865  2.2615  1.6512
 5840TIP3   OH217483   6.097   5.793   4.999  0.2168  0.1288  0.4208
 5840TIP3    H117484   6.131   5.848   4.928  2.6396  1.3543  2.3672
 5840TIP3    H217485   6.002   5.802   4.992  0.2087 -1.0132 -3.4959
 5841TIP3   OH217486   6.520   5.996   0.595 -0.1841  0.1070 -0.6680
 5841TIP3    H117487   6.553   5.991   0.505 -0.9510 -2.4879 -0.8915
 5841TIP3    H217488   6.456   5.925   0.601 -1.1126  1.0356  1.5723
 5842TIP3   OH217489   3.464   6.409   4.115 -0.2287 -0.2736  0.1287
 5842TIP3    H117490   3.439   6.461   4.039  0.4944 -1.0689 -0.6700
 5842TIP3    H217491   3.390   6.350   4.129  0.1244 -0.9423 -0.7136
 5843TIP3   OH217492   1.807   0.019   3.813  0.0284  0.0050 -0.2014
 5843TIP3    H117493   1.891  -0.008   3.850  1.4536  3.3221 -0.6441
 5843TIP3    H217494   1.769   0.077   3.879 -0.8560  0.2894 -0.9417
 5844TIP3   OH217495   4.595   5.818   1.503 -0.3935 -0.3548  0.1980
 5844TIP3    H117496   4.617   5.736   1.546  1.7887  0.2866  0.4816
 5844TIP3    H217497   4.650   5.883   1.547 -0.7073  0.9305 -1.2076
 5845TIP3   OH217498   1.517   6.108   2.144 -0.4057  0.9315 -0.0739
 5845TIP3    H117499   1.517   6.067   2.057 -1.7946  0.3779  0.1497
 5845TIP3    H217500   1.608   6.106   2.172 -0.0584  0.3657 -1.1775
 5846TIP3   OH217501   1.469   3.011   0.150 -0.2526  0.1064 -0.0705
 5846TIP3    H117502   1.440   3.054   0.069 -0.3297  1.8476  0.8291
 5846TIP3    H217503   1.564   3.006   0.142 -0.2740  0.1248 -0.3416
 5847TIP3   OH217504   2.986   3.144   5.807 -0.5692 -0.2400  0.2556
 5847TIP3    H117505   3.026   3.110   5.887 -1.5473  1.2680  1.4645
 5847TIP3    H217506   3.054   3.135   5.740  0.3080 -1.4760  1.2666
 5848TIP3   OH217507   0.871   0.865   2.768  0.0385  0.4897 -0.0747
 5848TIP3    H117508   0.963   0.867   2.794 -0.8447  0.9067  3.5460
 5848TIP3    H217509   0.840   0.780   2.798 -0.8996  0.5937 -0.7141
 5849TIP3   OH217510   1.875   6.758   5.891  0.6436 -0.0948 -0.0501
 5849TIP3    H117511   1.781   6.773   5.897  0.6378 -0.5643  1.3588
 5849TIP3    H217512   1.883   6.667   5.865  0.7043 -0.4219  1.0913
 5850TIP3   OH217513   5.013   3.796   5.680 -0.2462 -0.2888  0.3369
 5850TIP3    H117514   5.079   3.727   5.676 -1.1048 -1.3393  2.6810
 5850TIP3    H217515   5.053   3.865   5.733  0.5861  1.0775 -1.9466
 5851TIP3   OH217516   1.810   3.552   5.131  0.2725 -0.1552 -0.0888
 5851TIP3    H117517   1.736   3.492   5.123  0.8535 -0.8846 -0.0680
 5851TIP3    H217518   1.773   3.630   5.171 -0.3902 -0.6935  0.3621
 5852TIP3   OH217519   5.372   0.291   5.236  0.0517  0.1151  0.2394
 5852TIP3    H117520   5.457   0.310   5.197 -0.1479 -2.3062 -1.5838
 5852TIP3    H217521   5.392   0.233   5.309 -0.0308 -0.9066 -0.5296
 5853TIP3   OH217522   5.956   5.256   4.791  0.4622  0.3236 -0.0002
 5853TIP3    H117523   5.923   5.308   4.864  0.0225  0.9062 -0.5990
 5853TIP3    H217524   5.997   5.180   4.832 -0.2595  0.3674  0.8313
 5854TIP3   OH217525   6.192   0.955   4.720 -0.5025 -0.0631 -0.4663
 5854TIP3    H117526   6.274   0.966   4.673  0.0277 -1.1474  0.1626
 5854TIP3    H217527   6.203   1.005   4.800  1.2173 -3.2930  1.5559
 5855TIP3   OH217528   4.125   6.333   0.288 -0.6420  0.1833  0.0397
 5855TIP3    H117529   4.054   6.284   0.246 -1.1792  1.5248 -0.6660
 5855TIP3    H217530   4.097   6.424   0.285  1.0518  0.7339 -0.1241
 5856TIP3   OH217531   0.599   5.710   2.070  0.1930 -0.4581 -0.1423
 5856TIP3    H117532   0.647   5.746   1.995 -0.3540  0.3614 -0.1055
 5856TIP3    H217533   0.509   5.737   2.056 -0.2386 -1.8026 -0.0936
 5857TIP3   OH217534   2.653   0.042   4.152 -0.3678  0.0956 -0.1562
 5857TIP3    H117535   2.579  -0.010   4.183  0.6225 -1.4244 -0.1905
 5857TIP3    H217536   2.640   0.128   4.190 -1.8749 -0.2798  0.2476
 5858TIP3   OH217537   3.462   1.668   0.007 -0.7428 -0.4154  0.2590
 5858TIP3    H117538   3.420   1.736   0.059 -0.7806  0.3058 -0.6845
 5858TIP3    H217539   3.439   1.586   0.051 -1.0713  0.1491  1.1541
 5859TIP3   OH217540   4.660   0.019   1.401  0.4974 -0.0867 -0.3372
 5859TIP3    H117541   4.590   0.071   1.364 -0.0707  0.1426  0.9970
 5859TIP3    H217542   4.670   0.052   1.491  1.4437 -0.9608 -0.0948
 5860TIP3   OH217543   5.310   5.055   4.104 -0.0218 -0.1778 -0.1576
 5860TIP3    H117544   5.341   4.973   4.066  0.2201  0.8563 -2.4099
 5860TIP3    H217545   5.215   5.051   4.094  0.0601  0.2340 -1.3241
 5861TIP3   OH217546   0.058   2.429   0.316  0.3660  0.3214  0.1473
 5861TIP3    H117547   0.041   2.347   0.363 -0.3549 -0.1665 -0.9012
 5861TIP3    H217548  -0.012   2.488   0.346 -0.2719 -0.0842 -0.5087
 5862TIP3   OH217549   6.982   3.663   0.867 -0.0667  0.3081  0.0598
 5862TIP3    H117550   7.030   3.734   0.910 -1.2135  0.4249  1.2115
 5862TIP3    H217551   7.044   3.591   0.864  1.2717  1.4297 -1.5118
 5863TIP3   OH217552   1.083   0.389   2.929 -0.0591  0.5270 -0.5675
 5863TIP3    H117553   1.056   0.478   2.953 -1.0369  0.3002 -0.7552
 5863TIP3    H217554   1.076   0.339   3.011  0.9373  0.7232 -0.3625
 5864TIP3   OH217555   1.864   4.433   5.797 -0.6845 -0.3896  0.0123
 5864TIP3    H117556   1.842   4.393   5.881  1.3692  0.3174  0.9431
 5864TIP3    H217557   1.830   4.371   5.732 -1.0980 -1.6484  1.3665
 5865TIP3   OH217558   5.151   1.312   1.640  0.1705  0.3211  0.2494
 5865TIP3    H117559   5.149   1.404   1.615  0.3937  0.5545  1.0493
 5865TIP3    H217560   5.118   1.265   1.564 -1.0792  1.1604  0.2515
 5866TIP3   OH217561   6.998   6.562   2.595  0.3095 -0.7584 -0.5800
 5866TIP3    H117562   6.915   6.515   2.582 -0.3360  0.1739  0.0022
 5866TIP3    H217563   7.012   6.560   2.690  0.5414 -0.2476 -0.6013
 5867TIP3   OH217564   6.566   2.795   4.278  0.0254 -0.1657 -0.2678
 5867TIP3    H117565   6.505   2.756   4.341 -0.2288 -0.1999 -0.5341
 5867TIP3    H217566   6.510   2.844   4.218  0.3214  0.4624 -0.0449
 5868TIP3   OH217567   0.759   4.962   1.942  0.0276  0.2037  0.1236
 5868TIP3    H117568   0.683   4.905   1.948  0.3275 -0.1498  0.6203
 5868TIP3    H217569   0.793   4.948   1.854 -1.7632  2.0262 -0.9422
 5869TIP3   OH217570   1.608   3.891   4.836 -0.3678  0.2764  0.7433
 5869TIP3    H117571   1.567   3.890   4.750  1.2835 -0.6829 -0.0730
 5869TIP3    H217572   1.659   3.972   4.838  0.5007 -0.2502  0.3521
 5870TIP3   OH217573   1.346   4.797   2.878  0.1525 -0.4650 -0.0427
 5870TIP3    H117574   1.290   4.725   2.909 -0.3784 -0.9193 -1.9038
 5870TIP3    H217575   1.285   4.867   2.856  0.4203 -0.4925 -0.8909
 5871TIP3   OH217576   5.441   3.040   4.604 -0.1801  0.3926  0.5274
 5871TIP3    H117577   5.518   3.055   4.549  0.5052  2.6121  1.9478
 5871TIP3    H217578   5.473   3.052   4.693 -1.8953 -0.1332  1.2540
 5872TIP3   OH217579   4.644   6.255   3.688 -0.1809 -0.1973  0.2584
 5872TIP3    H117580   4.595   6.190   3.636 -0.8542 -0.9280  1.7506
 5872TIP3    H217581   4.694   6.203   3.750  0.7683  0.6617  0.2318
 5873TIP3   OH217582   1.531   1.590   2.850  0.0925  0.1044 -0.1611
 5873TIP3    H117583   1.466   1.528   2.818  0.7841 -0.6281 -0.1469
 5873TIP3    H217584   1.526   1.663   2.788 -0.0204 -0.3962 -0.7488
 5874TIP3   OH217585   0.357   2.077   4.067  0.1866 -0.3934  0.1471
 5874TIP3    H117586   0.386   2.010   4.005  2.2723 -0.4642  1.1064
 5874TIP3    H217587   0.321   2.028   4.140 -1.9245 -0.3171 -0.7739
 5875TIP3   OH217588   7.030   3.172   5.836 -0.3556 -0.1206 -0.1729
 5875TIP3    H117589   6.997   3.255   5.801 -0.0009 -0.1114 -0.4914
 5875TIP3    H217590   7.094   3.142   5.771 -1.6509 -1.4667 -0.8816
 5876TIP3   OH217591   2.888   0.173   0.103  0.6373  0.1962  0.5702
 5876TIP3    H117592   2.915   0.152   0.192  0.7901 -1.3659  0.1874
 5876TIP3    H217593   2.967   0.207   0.061  0.7353  0.3170  0.8533
 5877TIP3   OH217594   3.606   0.889   0.868  0.3502  0.2757 -0.0692
 5877TIP3    H117595   3.563   0.938   0.938  2.5744 -0.3988  1.8917
 5877TIP3    H217596   3.554   0.909   0.790 -2.8237  0.3470  1.8639
 5878TIP3   OH217597   5.089   2.320   1.255 -0.5794 -0.0722 -0.2706
 5878TIP3    H117598   5.133   2.280   1.180 -1.1070  0.2370 -0.7601
 5878TIP3    H217599   5.152   2.315   1.326  0.1073  0.0309 -0.8601
 5879TIP3   OH217600   1.035   4.143   4.681 -0.3749 -0.0646  0.0538
 5879TIP3    H117601   0.963   4.081   4.696 -0.9538  0.8263  1.2117
 5879TIP3    H217602   1.005   4.198   4.609 -0.8307  0.2297  0.4577
 5880TIP3   OH217603   0.679   4.190   0.767  0.5680  0.2344  0.1839
 5880TIP3    H117604   0.775   4.189   0.768  0.5834 -1.9060  0.0880
 5880TIP3    H217605   0.656   4.178   0.675  0.1149  3.4575 -0.2584
 5881TIP3   OH217606   4.430   3.951   0.942 -0.1279  0.0846 -0.0920
 5881TIP3    H117607   4.472   4.036   0.935  0.6843 -0.3999 -1.4330
 5881TIP3    H217608   4.337   3.969   0.926  0.3473  0.4484 -3.0641
 5882TIP3   OH217609   5.185   2.903   4.737 -0.4797 -0.3079  0.0074
 5882TIP3    H117610   5.211   2.898   4.645 -0.9146  0.8487 -0.1957
 5882TIP3    H217611   5.099   2.862   4.740 -0.7254  0.1760 -0.2259
 5883TIP3   OH217612   6.085   4.928   4.065  0.6737  0.2208  0.1208
 5883TIP3    H117613   6.011   4.987   4.073 -0.7162 -1.6893  3.5844
 5883TIP3    H217614   6.139   4.947   4.142  0.1950 -2.7969  1.3375
 5884TIP3   OH217615   2.075   4.697   1.413  0.1589 -0.6191  0.6407
 5884TIP3    H117616   2.083   4.609   1.378 -0.8399 -0.5567  0.2402
 5884TIP3    H217617   1.981   4.716   1.412  0.3126  0.2454  1.2229
 5885TIP3   OH217618   1.328   0.471   3.535 -0.0674 -0.0954  0.7470
 5885TIP3    H117619   1.254   0.470   3.475 -0.1107  0.1156  0.7929
 5885TIP3    H217620   1.301   0.415   3.608  0.6708 -1.7481 -0.2175
 5886TIP3   OH217621   2.163   4.398   5.255 -0.1264 -0.4486 -0.0430
 5886TIP3    H117622   2.211   4.477   5.230  1.1526  0.4249  4.2943
 5886TIP3    H217623   2.075   4.412   5.219  0.4417  2.2918 -0.6249
 5887TIP3   OH217624   4.300   4.526   5.743 -0.3934 -0.8014 -0.1543
 5887TIP3    H117625   4.341   4.445   5.775 -1.5393 -1.1833  0.4008
 5887TIP3    H217626   4.207   4.516   5.765 -0.9003 -0.2201 -1.8883
 5888TIP3   OH217627   1.333   5.292   3.544 -0.3726 -0.1483  0.2357
 5888TIP3    H117628   1.346   5.358   3.475 -1.5352 -1.6512 -1.4996
 5888TIP3    H217629   1.416   5.245   3.548 -0.3666 -0.1887 -0.2975
 5889TIP3   OH217630   5.756   4.448   2.948  0.0048 -0.5591  0.2267
 5889TIP3    H117631   5.792   4.529   2.912  1.7178 -0.5168  1.8565
 5889TIP3    H217632   5.673   4.474   2.989 -0.9135 -0.2259 -1.7380
 5890TIP3   OH217633   2.613   3.300   0.540 -0.4651 -0.0150  0.0892
 5890TIP3    H117634   2.602   3.375   0.599  0.4373  0.6685 -0.5721
 5890TIP3    H217635   2.633   3.227   0.598  1.7188  0.9032  0.6337
 5891TIP3   OH217636   2.472   2.389   1.298  0.2195  0.4049 -0.1242
 5891TIP3    H117637   2.440   2.473   1.267  1.1721  0.9873  0.4041
 5891TIP3    H217638   2.400   2.328   1.283 -0.5109  1.3285 -0.4461
 5892TIP3   OH217639   0.184   1.439   5.195 -0.1171 -0.2743  0.2985
 5892TIP3    H117640   0.261   1.494   5.183  0.1481 -0.5928  0.5400
 5892TIP3    H217641   0.128   1.488   5.256  0.3741 -0.5206  0.9652
 5893TIP3   OH217642   3.613   6.553   1.426  0.4034  0.8546 -0.8286
 5893TIP3    H117643   3.612   6.550   1.331  1.9942  0.8578 -0.8666
 5893TIP3    H217644   3.654   6.636   1.448  2.0352 -0.0630 -0.1914
 5894TIP3   OH217645   4.214   2.256   2.541 -0.2501 -0.5992  0.1100
 5894TIP3    H117646   4.298   2.250   2.495 -0.8715 -0.6575 -1.0362
 5894TIP3    H217647   4.209   2.175   2.591 -0.0190 -1.0028 -0.5097
 5895TIP3   OH217648   7.188   4.970   0.306 -1.0125  0.2717  0.6631
 5895TIP3    H117649   7.146   5.042   0.260 -1.3509  0.1800  0.8274
 5895TIP3    H217650   7.124   4.900   0.306 -0.5625 -0.1485  0.2165
 5896TIP3   OH217651   1.540   0.518   1.015  0.0450  0.0481 -0.1249
 5896TIP3    H117652   1.494   0.559   1.088 -1.0004 -0.6723 -0.3501
 5896TIP3    H217653   1.563   0.590   0.957  0.5768  0.5893  0.7359
 5897TIP3   OH217654   3.110   3.134   4.446  0.3346  0.7547  0.1755
 5897TIP3    H117655   3.073   3.046   4.452 -1.0813  1.3185 -0.0675
 5897TIP3    H217656   3.095   3.172   4.533  1.6621  0.5012  0.5376
 5898TIP3   OH217657   4.246   3.575   3.524 -0.3796  0.3575 -0.4052
 5898TIP3    H117658   4.287   3.571   3.611  0.7050  1.0980 -0.8591
 5898TIP3    H217659   4.187   3.651   3.530 -0.1510  0.5331 -0.3871
 5899TIP3   OH217660   1.911   5.862   1.205  0.1704 -0.3323 -0.4968
 5899TIP3    H117661   1.964   5.811   1.144  0.3387 -2.2178  1.1259
 5899TIP3    H217662   1.970   5.880   1.279 -0.6577 -0.0630  0.1117
 5900TIP3   OH217663   1.402   0.668   1.501  0.3026 -0.4330  0.0138
 5900TIP3    H117664   1.432   0.707   1.583  2.2243  0.4078 -1.0446
 5900TIP3    H217665   1.343   0.598   1.529 -0.2853  0.7894  2.0593
 5901TIP3   OH217666   2.705   0.890   3.072 -0.2729  0.4552  0.1070
 5901TIP3    H117667   2.659   0.927   3.148 -1.6373 -0.5000 -0.2168
 5901TIP3    H217668   2.639   0.838   3.027  0.5328  0.9502 -1.7266
 5902TIP3   OH217669   4.742   2.032   3.648 -0.0902  0.3033  0.3808
 5902TIP3    H117670   4.671   1.969   3.661  0.6981 -0.5823  0.5528
 5902TIP3    H217671   4.699   2.117   3.645 -1.1730 -0.2347  0.2690
 5903TIP3   OH217672   3.207   1.541   3.091  0.6272 -0.8750 -0.1583
 5903TIP3    H117673   3.160   1.622   3.110  0.2000 -1.2782  0.5504
 5903TIP3    H217674   3.279   1.540   3.155  2.0694  0.0961 -1.7011
 5904TIP3   OH217675   3.936   1.868   1.402 -0.5928  0.6871 -0.0548
 5904TIP3    H117676   3.882   1.794   1.375 -0.4993  0.4412  0.4187
 5904TIP3    H217677   3.925   1.872   1.497  0.9148  0.0502  0.1875
 5905TIP3   OH217678   6.148   2.031   2.148 -0.9735 -0.3243 -0.7373
 5905TIP3    H117679   6.213   2.059   2.212 -0.8612  0.3220 -1.1243
 5905TIP3    H217680   6.168   1.939   2.132  1.4419  0.4417 -2.6755
 5906TIP3   OH217681   2.346   2.202   0.555  0.1106  0.2202 -0.7015
 5906TIP3    H117682   2.369   2.260   0.482 -1.0858  0.4059 -0.9460
 5906TIP3    H217683   2.252   2.215   0.569  0.4613  0.9045  1.5046
 5907TIP3   OH217684   4.621   4.147   5.334 -0.8126  0.6157 -0.0646
 5907TIP3    H117685   4.571   4.079   5.378  0.6268 -0.7729 -0.4615
 5907TIP3    H217686   4.671   4.189   5.403 -1.0004  0.6435  0.0550
 5908TIP3   OH217687   1.535   3.851   2.622 -0.0344  0.3307  0.2306
 5908TIP3    H117688   1.577   3.774   2.662  1.3650  1.0739  0.2543
 5908TIP3    H217689   1.491   3.895   2.694  0.3169  0.2900  0.4710
 5909TIP3   OH217690   3.227   4.908   3.078 -0.1581  0.5284  0.2130
 5909TIP3    H117691   3.152   4.943   3.126 -0.9477  0.8454 -1.1875
 5909TIP3    H217692   3.278   4.985   3.053  0.0399  0.4014  0.2206
 5910TIP3   OH217693   0.410   5.959   4.090 -0.8933  0.3376 -0.1627
 5910TIP3    H117694   0.493   5.958   4.042 -0.2785 -0.4652  0.8567
 5910TIP3    H217695   0.359   5.887   4.052 -0.3390 -0.4089  0.4718
 5911TIP3   OH217696   3.379   0.989   1.098  0.4738  0.2007  0.1777
 5911TIP3    H117697   3.310   1.039   1.053 -1.1748 -0.1008  2.2059
 5911TIP3    H217698   3.458   1.043   1.089 -0.1225  0.7950 -1.8001
 5912TIP3   OH217699   2.865   6.194   0.462 -0.3701  0.3901 -0.1743
 5912TIP3    H117700   2.854   6.113   0.413  2.5115 -0.9602  1.1439
 5912TIP3    H217701   2.888   6.260   0.396  0.3482 -0.6296 -0.9719
 5913TIP3   OH217702   4.171   1.693   5.712 -0.8561  0.1799  0.4894
 5913TIP3    H117703   4.145   1.615   5.663  0.2057  0.4390 -0.5248
 5913TIP3    H217704   4.117   1.690   5.791 -2.2626 -0.5077 -0.4593
 5914TIP3   OH217705   0.087   2.564   0.585 -0.4129  0.2402 -0.0706
 5914TIP3    H117706   0.114   2.656   0.586 -1.8091  0.6681  0.3290
 5914TIP3    H217707  -0.002   2.565   0.619 -0.6918 -1.1915 -0.6921
 5915TIP3   OH217708   3.878   5.643   4.404  0.1024  0.3661  0.1226
 5915TIP3    H117709   3.806   5.684   4.356 -0.5874  0.9370  1.5579
 5915TIP3    H217710   3.834   5.593   4.473  1.0409 -0.7150 -0.0381
 5916TIP3   OH217711   2.528   0.881   5.794 -0.2904  0.5240  0.0812
 5916TIP3    H117712   2.457   0.833   5.837 -0.8598  0.6453 -0.7047
 5916TIP3    H217713   2.542   0.958   5.849 -0.8477  0.5524  0.1897
 5917TIP3   OH217714   2.072   5.956   1.405  0.2812 -0.0075 -0.4812
 5917TIP3    H117715   2.117   6.040   1.406  1.7953 -0.7683  1.1319
 5917TIP3    H217716   2.028   5.951   1.490  0.9672 -1.1828 -0.1604
 5918TIP3   OH217717   5.345   5.371   0.983  0.4953 -0.2677  0.1556
 5918TIP3    H117718   5.341   5.420   1.065  1.0632 -1.1301  0.7190
 5918TIP3    H217719   5.278   5.304   0.992 -0.0013  0.1498 -0.4373
 5919TIP3   OH217720   1.322   6.317   0.937 -0.3742  0.6080  0.5223
 5919TIP3    H117721   1.268   6.281   1.007 -2.5467  1.1754 -0.7553
 5919TIP3    H217722   1.390   6.251   0.922 -2.0550 -1.2559  0.7185
 5920TIP3   OH217723   7.167   2.958   0.381 -0.0563  0.5859  0.3181
 5920TIP3    H117724   7.254   2.930   0.410  0.8795  2.2721 -0.7055
 5920TIP3    H217725   7.146   3.033   0.437 -1.7310 -0.9112  1.8185
 5921TIP3   OH217726   3.992   3.170   4.004  0.2712 -0.0727 -0.5951
 5921TIP3    H117727   3.997   3.165   3.909  0.8748 -0.6524 -0.5361
 5921TIP3    H217728   3.904   3.139   4.025 -0.0562  0.5708 -0.9928
 5922TIP3   OH217729   6.488   2.328   5.157  0.1417 -0.1888 -0.1921
 5922TIP3    H117730   6.423   2.373   5.103 -0.6872  0.2516  1.1058
 5922TIP3    H217731   6.511   2.249   5.108 -0.7056  0.0982 -1.0827
 5923TIP3   OH217732   6.919   6.420   0.147 -0.0000 -0.4316 -0.0349
 5923TIP3    H117733   6.941   6.445   0.237  0.1193 -0.9643  0.0824
 5923TIP3    H217734   6.834   6.376   0.155  0.1165 -0.6761 -0.1560
 5924TIP3   OH217735   0.648   3.350   4.967 -0.2659 -0.0756  0.6784
 5924TIP3    H117736   0.741   3.371   4.959 -0.1768 -0.8943 -0.9096
 5924TIP3    H217737   0.644   3.255   4.955 -1.0224 -0.5369  3.8415
 5925TIP3   OH217738   1.842   6.499   1.675  0.0819  0.4263  0.5208
 5925TIP3    H117739   1.916   6.533   1.626  0.1473  0.6030  0.7445
 5925TIP3    H217740   1.813   6.571   1.730 -0.8432  0.6589 -0.2400
 5926TIP3   OH217741   0.831   5.578   5.270  0.0268  0.4335  0.6394
 5926TIP3    H117742   0.893   5.605   5.338  0.3253  0.6198  0.2978
 5926TIP3    H217743   0.806   5.660   5.226 -1.2207  0.4894  1.3998
 5927TIP3   OH217744   3.199   1.658   2.145 -0.7476 -0.2350 -0.2987
 5927TIP3    H117745   3.230   1.736   2.099 -2.0587 -0.3580 -1.4500
 5927TIP3    H217746   3.186   1.687   2.235  0.6727  0.3423 -0.2599
 5928TIP3   OH217747   1.189   0.354   2.007  0.0399  0.3413 -0.4227
 5928TIP3    H117748   1.124   0.310   2.062  0.8809 -1.6776 -0.9610
 5928TIP3    H217749   1.223   0.424   2.063 -1.9506  0.9381  0.1591
 5929TIP3   OH217750   3.817   5.034   5.812 -0.4555 -0.1645  0.4495
 5929TIP3    H117751   3.752   5.089   5.769 -0.2776  0.4873  1.0054
 5929TIP3    H217752   3.819   4.954   5.759 -0.5549  0.4451 -0.5038
 5930TIP3   OH217753   0.545   5.934   2.269 -0.5626 -0.1217  0.3564
 5930TIP3    H117754   0.633   5.964   2.292 -0.3553 -1.1369  0.9307
 5930TIP3    H217755   0.556   5.893   2.183 -0.5646  0.1570  0.2225
 5931TIP3   OH217756   0.031   4.044   3.218  0.0227 -0.5473  0.0955
 5931TIP3    H117757   0.047   4.005   3.132  1.1443 -0.3176  0.1839
 5931TIP3    H217758  -0.005   4.131   3.198 -1.8569 -1.3265 -0.1020
 5932TIP3   OH217759   3.549   4.645   4.678 -0.1173 -0.1814 -0.0901
 5932TIP3    H117760   3.621   4.680   4.627  0.8913 -1.6715  0.2295
 5932TIP3    H217761   3.478   4.631   4.615  0.3974 -0.0931 -0.6930
 5933TIP3   OH217762   5.141   4.704   4.442  0.0434  0.0037  0.1473
 5933TIP3    H117763   5.164   4.685   4.532  0.3286  4.0051  1.1166
 5933TIP3    H217764   5.082   4.780   4.447 -0.9953 -0.4130 -2.9943
 5934TIP3   OH217765   2.359   1.355   4.998 -0.6834 -0.8164 -0.5165
 5934TIP3    H117766   2.300   1.425   4.974  1.5460  1.3631 -0.0317
 5934TIP3    H217767   2.446   1.387   4.972  1.0102 -1.4059  3.6538
 5935TIP3   OH217768   4.919   5.660   5.319 -0.1701 -0.1288 -0.0502
 5935TIP3    H117769   4.917   5.723   5.391  0.9823 -1.2733  1.0565
 5935TIP3    H217770   5.011   5.633   5.315 -0.4325 -0.8905 -1.2327
 5936TIP3   OH217771   6.545   5.416   2.429 -0.3739 -0.0407  0.2658
 5936TIP3    H117772   6.583   5.344   2.479  1.0325  0.8784  0.5844
 5936TIP3    H217773   6.599   5.491   2.451 -2.1286  1.2584  0.3546
 5937TIP3   OH217774   1.122   3.241   5.601 -0.4893  0.3507 -0.2756
 5937TIP3    H117775   1.212   3.216   5.623 -0.6594  0.0403  0.0905
 5937TIP3    H217776   1.130   3.329   5.564  0.1193 -0.2281 -1.5532
 5938TIP3   OH217777   3.452   5.198   1.429 -0.1843 -0.4189 -0.3550
 5938TIP3    H117778   3.535   5.163   1.397 -0.0649 -0.5803  0.1203
 5938TIP3    H217779   3.394   5.122   1.434 -0.1213 -0.4392  0.0639
 5939TIP3   OH217780   5.786   2.413   2.249 -0.1946  0.2597 -0.3749
 5939TIP3    H117781   5.793   2.336   2.306 -0.3246  1.2453  1.0424
 5939TIP3    H217782   5.866   2.413   2.198  0.2038 -0.3489  0.2344
 5940TIP3   OH217783   4.997   3.103   4.909 -0.2019  0.1595  0.4277
 5940TIP3    H117784   5.023   3.029   4.854 -1.2463  0.8845 -1.1057
 5940TIP3    H217785   5.022   3.180   4.858  1.6378  0.9546  2.3427
 5941TIP3   OH217786   5.640   1.511   2.319  0.1559 -0.2584  0.2686
 5941TIP3    H117787   5.561   1.538   2.271 -0.0825  1.6887  1.6194
 5941TIP3    H217788   5.611   1.442   2.378 -0.4409  0.1200  0.4223
 5942TIP3   OH217789   1.513   5.397   2.668  0.4913  0.0615  0.0535
 5942TIP3    H117790   1.439   5.445   2.706  0.3558 -0.2974  0.2458
 5942TIP3    H217791   1.533   5.330   2.732 -0.5298 -1.3363 -1.0268
 5943TIP3   OH217792   3.848   1.767   2.476  0.1269  0.1448  0.0387
 5943TIP3    H117793   3.819   1.804   2.559 -1.7486  2.4763 -1.5395
 5943TIP3    H217794   3.904   1.834   2.437  0.1696 -0.4835 -1.0287
 5944TIP3   OH217795   6.706   0.667   4.029  0.0877 -0.3504 -0.0509
 5944TIP3    H117796   6.755   0.631   4.103 -0.0216  0.3643  0.3823
 5944TIP3    H217797   6.708   0.599   3.963 -0.5879 -1.3846  0.9563
 5945TIP3   OH217798   4.878   2.381   0.827 -0.1790 -0.3099 -1.1635
 5945TIP3    H117799   4.821   2.330   0.770 -0.1286 -0.8183 -0.7638
 5945TIP3    H217800   4.897   2.323   0.900 -2.2392  1.1550  0.6614
 5946TIP3   OH217801   3.672   5.867   5.726 -0.3975 -0.6590  0.1278
 5946TIP3    H117802   3.586   5.833   5.703 -0.7868  0.5253 -0.2262
 5946TIP3    H217803   3.696   5.821   5.806 -1.3338 -1.0399  0.1959
 5947TIP3   OH217804   4.859   2.443   1.886  0.0233  0.3555  0.0793
 5947TIP3    H117805   4.809   2.489   1.953  1.0425  0.6327  0.6652
 5947TIP3    H217806   4.809   2.457   1.805 -1.2729 -0.0566  0.7613
 5948TIP3   OH217807   3.565   4.759   5.245 -0.3421 -0.0555 -0.6710
 5948TIP3    H117808   3.494   4.727   5.300  0.5802 -1.2857 -0.1275
 5948TIP3    H217809   3.618   4.681   5.227  1.4681  0.9749 -0.1324
 5949TIP3   OH217810   6.778   0.875   2.842  0.3299 -0.1013  0.1182
 5949TIP3    H117811   6.785   0.900   2.934  1.9205 -1.4620  0.4058
 5949TIP3    H217812   6.686   0.848   2.831 -0.1271  1.0057  1.0202
 5950TIP3   OH217813   1.177   2.005   4.034  0.2255 -0.0034  0.3776
 5950TIP3    H117814   1.118   1.947   4.083  1.1497 -1.7603 -0.4771
 5950TIP3    H217815   1.120   2.048   3.970 -0.1096 -2.1511 -0.8678
 5951TIP3   OH217816   3.606   2.663   2.789  0.7921  0.1211 -0.1703
 5951TIP3    H117817   3.606   2.638   2.697 -1.2701 -1.1980  0.1185
 5951TIP3    H217818   3.576   2.754   2.789  1.9381  0.5297 -0.8250
 5952TIP3   OH217819   0.424   3.075   2.194  0.1515 -0.0825  0.0521
 5952TIP3    H117820   0.362   3.012   2.157  0.4289 -0.6960  0.6127
 5952TIP3    H217821   0.477   3.102   2.119  0.0971 -0.5926 -0.1762
 5953TIP3   OH217822   2.116   5.077   5.750 -0.2119  0.6842 -0.3700
 5953TIP3    H117823   2.178   5.024   5.800  0.8178  0.3096 -1.9801
 5953TIP3    H217824   2.031   5.053   5.786  0.4628  0.2348  1.0132
 5954TIP3   OH217825   3.440   0.611   1.081  0.5395  0.0874 -0.5177
 5954TIP3    H117826   3.419   0.684   1.139  1.2432  0.9531 -1.3206
 5954TIP3    H217827   3.366   0.551   1.092 -0.8732  1.6390 -1.0095
 5955TIP3   OH217828   5.416   2.076   3.264 -0.3593 -0.1500  0.4896
 5955TIP3    H117829   5.338   2.094   3.317  0.0888 -0.5839  1.3310
 5955TIP3    H217830   5.424   1.981   3.265  0.3713 -0.0986  0.7216
 5956TIP3   OH217831   3.205   4.820   0.164 -0.2880 -0.0095 -0.5129
 5956TIP3    H117832   3.190   4.901   0.212 -1.2633  0.2792 -1.2767
 5956TIP3    H217833   3.178   4.751   0.224  1.9164  0.0864  0.7150
 5957TIP3   OH217834   4.053   0.825   4.444 -0.1156  0.1793 -0.2201
 5957TIP3    H117835   4.045   0.920   4.449  1.3632  0.3208 -0.0937
 5957TIP3    H217836   4.144   0.807   4.469  0.0908 -1.1323 -1.7622
 5958TIP3   OH217837   2.288   4.261   3.530 -0.0836 -0.0915 -0.3777
 5958TIP3    H117838   2.220   4.289   3.469 -1.3493  0.1859  1.0817
 5958TIP3    H217839   2.294   4.333   3.594 -0.3996 -1.2804  1.0603
 5959TIP3   OH217840   1.615   4.158   2.975 -0.1971 -0.3180 -0.5669
 5959TIP3    H117841   1.598   4.238   2.927 -4.4340 -2.8684 -4.0764
 5959TIP3    H217842   1.538   4.147   3.032  0.6347 -1.5497  0.3835
 5960TIP3   OH217843   0.861   5.955   2.215  0.1320 -0.0613 -0.0341
 5960TIP3    H117844   0.893   6.027   2.271 -1.8698  1.8622 -1.1973
 5960TIP3    H217845   0.887   5.981   2.127  0.5963 -1.5316 -0.3528
 5961TIP3   OH217846   1.948   6.567   2.332 -0.0995  0.5319 -0.0200
 5961TIP3    H117847   1.900   6.602   2.257 -1.7464  0.6815  1.0574
 5961TIP3    H217848   2.035   6.546   2.298 -1.0863 -0.2885 -2.1930
 5962TIP3   OH217849   2.734   6.127   1.011  0.4531  0.1209 -0.1637
 5962TIP3    H117850   2.733   6.120   1.106 -4.4168 -0.3265 -0.0112
 5962TIP3    H217851   2.744   6.037   0.981  0.3762  0.0670 -0.0291
 5963TIP3   OH217852   3.855   4.134   4.362  0.1717  0.3414 -0.1402
 5963TIP3    H117853   3.841   4.125   4.456 -1.0417  1.8078 -0.1643
 5963TIP3    H217854   3.776   4.099   4.322  0.3539  0.4512 -0.6037
 5964TIP3   OH217855   1.949   0.792   4.684 -0.9437 -0.2937  0.1288
 5964TIP3    H117856   1.893   0.855   4.728 -0.3030 -0.0296  0.5750
 5964TIP3    H217857   1.991   0.842   4.614  1.1069  0.3479  1.7031
 5965TIP3   OH217858   6.701   4.805   2.745 -0.0710 -0.2864  0.6757
 5965TIP3    H117859   6.621   4.850   2.719 -1.2611 -2.2215  0.7962
 5965TIP3    H217860   6.690   4.789   2.839 -0.5384 -2.3614  0.3160
 5966TIP3   OH217861   1.335   4.734   0.183  0.3026  0.0250 -0.7750
 5966TIP3    H117862   1.394   4.795   0.227  0.9346 -0.2466 -1.2395
 5966TIP3    H217863   1.392   4.674   0.136 -0.3065 -1.0562 -0.1729
 5967TIP3   OH217864   4.528   6.186   0.644 -0.1762  0.5294  0.1934
 5967TIP3    H117865   4.472   6.108   0.642  1.6379 -0.9264  1.9585
 5967TIP3    H217866   4.558   6.190   0.735  1.1043  2.3395 -0.2780
 5968TIP3   OH217867   5.313   5.211   2.211  0.0210 -0.2898 -0.2804
 5968TIP3    H117868   5.334   5.118   2.212 -0.6884 -0.5553  3.1461
 5968TIP3    H217869   5.308   5.236   2.304 -1.0679  2.8774 -1.0396
 5969TIP3   OH217870   3.874   6.130   2.247  0.1395 -0.2585  0.3455
 5969TIP3    H117871   3.803   6.110   2.308 -0.1814  0.0027  0.0625
 5969TIP3    H217872   3.908   6.044   2.222  0.1174 -0.3743  0.7075
 5970TIP3   OH217873   5.894   3.913   3.550 -0.0659 -0.2314 -0.1178
 5970TIP3    H117874   5.985   3.936   3.533  0.6521 -1.8436  1.2431
 5970TIP3    H217875   5.873   3.846   3.486 -0.0820 -0.3500  0.0124
 5971TIP3   OH217876   3.491   1.134   5.030  0.5676 -0.0967  0.0444
 5971TIP3    H117877   3.492   1.208   4.969  1.2633  1.4594  1.8284
 5971TIP3    H217878   3.583   1.108   5.038  0.7088  0.7613  1.5650
 5972TIP3   OH217879   4.497   0.999   2.192  0.0768 -0.4452 -0.6891
 5972TIP3    H117880   4.440   0.952   2.131  0.6260 -1.6565 -0.2934
 5972TIP3    H217881   4.461   0.981   2.278  0.7575 -0.7985 -0.4730
 5973TIP3   OH217882   1.842   3.444   3.955 -0.2722 -0.1933  0.0715
 5973TIP3    H117883   1.888   3.447   3.872  1.4960 -0.4088  0.9885
 5973TIP3    H217884   1.777   3.375   3.944 -0.7392  0.4462 -1.4243
 5974TIP3   OH217885   1.358   3.898   0.814  0.5729 -0.8308  0.4621
 5974TIP3    H117886   1.418   3.873   0.744 -0.8002  0.0734 -1.0801
 5974TIP3    H217887   1.385   3.986   0.839 -0.4042 -0.2203 -0.5887
 5975TIP3   OH217888   1.822   3.023   4.576  0.3114 -0.2303 -0.2835
 5975TIP3    H117889   1.744   3.000   4.526  0.3139 -0.3363 -0.2402
 5975TIP3    H217890   1.886   3.051   4.510  0.4022 -0.6228 -0.3641
 5976TIP3   OH217891   3.279   0.749   5.392  0.3137  0.4389 -0.5831
 5976TIP3    H117892   3.332   0.770   5.315  0.1085  1.3471 -0.4851
 5976TIP3    H217893   3.196   0.795   5.378 -0.7008 -1.3948 -0.9996
 5977TIP3   OH217894   3.731   1.346   1.303 -0.9918 -0.4555  0.2967
 5977TIP3    H117895   3.651   1.372   1.258 -0.8694 -0.3866  0.1172
 5977TIP3    H217896   3.705   1.334   1.394 -1.6200 -2.2450 -0.0691
 5978TIP3   OH217897   4.791   6.079   1.349  0.5800  0.0473 -0.1999
 5978TIP3    H117898   4.738   6.092   1.428 -1.0400 -0.4500 -1.1404
 5978TIP3    H217899   4.743   6.126   1.281  1.0632 -0.8649 -1.1962
 5979TIP3   OH217900   6.840   6.068   0.220 -0.5726  0.1789 -0.2831
 5979TIP3    H117901   6.900   6.051   0.148 -1.2036  1.7218 -1.2114
 5979TIP3    H217902   6.777   6.130   0.185 -1.9602 -0.3996  1.0688
 5980TIP3   OH217903   5.876   3.639   5.147  0.2422 -0.1762  0.4097
 5980TIP3    H117904   5.938   3.597   5.207  0.2831  1.1136  1.3197
 5980TIP3    H217905   5.931   3.685   5.084  0.2008  0.1263  0.5962
 5981TIP3   OH217906   0.782   2.120   5.364 -0.0486  0.0624 -0.5437
 5981TIP3    H117907   0.872   2.127   5.334  0.2865 -2.2541 -0.2429
 5981TIP3    H217908   0.768   2.197   5.418  2.3955 -0.4608  0.9847
 5982TIP3   OH217909   2.468   6.652   2.726 -0.0339  0.2548  0.8641
 5982TIP3    H117910   2.475   6.622   2.817  0.1382 -0.6992  0.5440
 5982TIP3    H217911   2.496   6.578   2.674  0.3697  0.9681  0.0358
 5983TIP3   OH217912   6.972   1.301   3.759  0.4083  0.4271 -0.3862
 5983TIP3    H117913   6.999   1.318   3.849 -1.4296  0.8857  0.1175
 5983TIP3    H217914   7.004   1.213   3.741 -0.2807 -0.1883  1.1856
 5984TIP3   OH217915   4.793   2.744   1.062 -0.1248  0.1323 -0.7031
 5984TIP3    H117916   4.813   2.668   1.117  0.0257  0.3267 -0.4917
 5984TIP3    H217917   4.829   2.819   1.109 -2.8220  0.7470  0.5778
 5985TIP3   OH217918   5.018   6.140   0.241  0.2342  0.0559  0.1471
 5985TIP3    H117919   4.944   6.115   0.298 -0.6154  1.7344 -0.1716
 5985TIP3    H217920   5.061   6.057   0.222 -0.2471 -0.7302  2.1419
 5986TIP3   OH217921   0.909   5.519   2.104 -0.3177  0.1137 -0.0011
 5986TIP3    H117922   0.842   5.508   2.037 -0.8307  1.6561  0.2009
 5986TIP3    H217923   0.866   5.573   2.171  1.0678  1.0238  0.1949
 5987TIP3   OH217924   2.901   6.375   0.256  0.1171  0.0702  0.3497
 5987TIP3    H117925   2.811   6.364   0.226 -0.5747  0.0731  2.2979
 5987TIP3    H217926   2.953   6.325   0.193 -1.0940  0.9220 -1.4173
 5988TIP3   OH217927   2.461   5.636   5.088  0.3164 -0.3564 -0.3293
 5988TIP3    H117928   2.476   5.631   5.182 -1.3318  1.4656  0.0948
 5988TIP3    H217929   2.443   5.545   5.061 -0.0689 -0.7843  1.2865
 5989TIP3   OH217930   5.424   4.014   0.205 -0.3133 -0.2229 -0.2411
 5989TIP3    H117931   5.493   4.078   0.190 -1.3197  0.5781 -1.7139
 5989TIP3    H217932   5.439   3.947   0.138 -0.3666 -0.5806  0.0999
 5990TIP3   OH217933   2.967   4.930   4.253  0.3174  0.4647 -0.4387
 5990TIP3    H117934   2.972   4.859   4.189 -2.1705  0.6823 -0.9776
 5990TIP3    H217935   3.010   5.004   4.211  1.2043 -0.1592 -0.6687
 5991TIP3   OH217936   0.959   2.400   1.144 -0.8922 -0.0286  0.3868
 5991TIP3    H117937   0.897   2.329   1.130 -0.2935 -0.4871  0.0511
 5991TIP3    H217938   1.036   2.377   1.092 -0.2423  0.2907  1.1799
 5992TIP3   OH217939   6.415   4.369   0.160  0.2306  0.1016 -0.4164
 5992TIP3    H117940   6.510   4.357   0.161  0.3591  1.1030 -0.3804
 5992TIP3    H217941   6.389   4.337   0.073  0.5115 -0.7183 -0.2152
 5993TIP3   OH217942   0.470   2.028   1.241  0.5739  0.5226 -0.3067
 5993TIP3    H117943   0.483   2.063   1.329 -1.5882 -0.5017  0.4937
 5993TIP3    H217944   0.546   1.972   1.226  0.2502 -0.5429  1.6083
 5994TIP3   OH217945   1.472   3.956   1.718  0.7347 -0.1039  0.5188
 5994TIP3    H117946   1.402   4.022   1.711  0.8056 -0.0476  0.3202
 5994TIP3    H217947   1.506   3.966   1.807  0.0513 -0.5785  0.8335
 5995TIP3   OH217948   1.463   6.021   1.347  0.6576 -0.1645  0.6003
 5995TIP3    H117949   1.544   5.981   1.377  0.8877 -1.7541 -1.8808
 5995TIP3    H217950   1.468   6.017   1.252 -1.5436  1.3694  0.3488
 5996TIP3   OH217951   6.198   3.450   3.089  0.2725 -0.4332 -0.0147
 5996TIP3    H117952   6.138   3.376   3.077  0.5063 -0.9039  1.4390
 5996TIP3    H217953   6.189   3.472   3.182  1.9302 -0.1477  0.1011
 5997TIP3   OH217954   0.558   1.113   1.131  0.4128 -0.4544 -0.4593
 5997TIP3    H117955   0.631   1.124   1.193 -0.4612  0.6405  0.4254
 5997TIP3    H217956   0.582   1.166   1.055  0.8051 -0.5754 -0.4211
 5998TIP3   OH217957   2.180   0.254   3.217  0.4508 -0.2094  0.9964
 5998TIP3    H117958   2.162   0.164   3.245 -3.3828  0.3421  0.8032
 5998TIP3    H217959   2.131   0.308   3.279 -0.8176  1.5024 -1.3767
 5999TIP3   OH217960   5.919   2.811   2.687  0.5541  0.4047  0.2132
 5999TIP3    H117961   5.953   2.742   2.631  1.2987 -0.0356  1.1731
 5999TIP3    H217962   5.865   2.864   2.629 -0.4215 -1.2357 -0.4408
 6000TIP3   OH217963   6.275   5.694   0.667 -0.4321 -0.4849 -0.0757
 6000TIP3    H117964   6.180   5.685   0.678 -0.6248 -0.7247 -1.6502
 6000TIP3    H217965   6.309   5.606   0.682 -0.4657 -0.4286  0.3514
 6001TIP3   OH217966   5.574   5.404   0.843 -0.3553 -0.9218  0.2899
 6001TIP3    H117967   5.488   5.374   0.870 -1.9069  2.1340 -0.7571
 6001TIP3    H217968   5.625   5.409   0.924 -1.6867 -1.1973  1.1724
 6002TIP3   OH217969   5.656   4.820   4.129 -0.3429 -0.7482 -0.0134
 6002TIP3    H117970   5.683   4.738   4.170  0.9853 -0.1572  0.3262
 6002TIP3    H217971   5.647   4.799   4.036 -0.4023 -1.3633  0.1261
 6003TIP3   OH217972   1.544   5.135   3.495  0.3122  0.0122 -0.3833
 6003TIP3    H117973   1.517   5.058   3.545  0.3136 -0.1689 -0.6601
 6003TIP3    H217974   1.637   5.145   3.514  0.4394 -0.3902 -0.7928
 6004TIP3   OH217975   1.738   3.863   1.075 -0.0079  0.3352 -0.0828
 6004TIP3    H117976   1.813   3.922   1.083  0.8329 -0.7651  0.4628
 6004TIP3    H217977   1.707   3.852   1.165 -0.3688  0.2127 -0.2215
 6005TIP3   OH217978  -0.019   3.254   3.368 -0.2476 -0.2472  0.1654
 6005TIP3    H117979   0.034   3.312   3.423 -0.0484  2.7142 -2.7895
 6005TIP3    H217980   0.026   3.255   3.283 -2.0610 -2.1846 -0.9020
 6006TIP3   OH217981   6.331   6.146   2.520 -0.0700 -0.8600 -0.1336
 6006TIP3    H117982   6.257   6.206   2.528  0.5898  0.0554 -0.5815
 6006TIP3    H217983   6.297   6.061   2.546 -1.3900 -0.5458 -0.7588
 6007TIP3   OH217984   7.233   1.242   1.655  0.2981  0.2638 -0.0592
 6007TIP3    H117985   7.197   1.330   1.649  0.3700  0.2477 -0.8632
 6007TIP3    H217986   7.175   1.189   1.600  0.5592 -0.0927  0.0033
 6008TIP3   OH217987   3.018   2.720   2.549  0.0598 -0.4390  0.2176
 6008TIP3    H117988   3.099   2.766   2.525  0.2062 -0.2340  1.0609
 6008TIP3    H217989   3.043   2.667   2.625 -0.9613  0.8142  1.4774
 6009TIP3   OH217990   3.561   4.036   4.011 -0.0886 -0.2671 -0.2009
 6009TIP3    H117991   3.608   4.005   4.088 -0.2493 -1.2424 -0.4907
 6009TIP3    H217992   3.503   3.964   3.987 -2.3448  1.1666  0.6308
 6010TIP3   OH217993   3.196   1.929   5.566  0.5734 -0.2240 -0.0603
 6010TIP3    H117994   3.166   1.870   5.497 -1.1094 -0.3700  0.7486
 6010TIP3    H217995   3.289   1.908   5.576  1.0495  0.2788 -2.7116
 6011TIP3   OH217996   4.521   3.355   0.650  0.2337 -0.2752 -0.3068
 6011TIP3    H117997   4.473   3.272   0.654 -0.0713 -0.0782  0.1604
 6011TIP3    H217998   4.537   3.378   0.741  0.7318 -0.0509 -0.4436
 6012TIP3   OH217999   3.094   5.587   5.495 -0.1882 -0.4350 -0.0875
 6012TIP3    H118000   3.146   5.599   5.575  1.7836 -1.8572 -1.0486
 6012TIP3    H218001   3.025   5.653   5.500  1.1855  0.9536  1.7369
 6013TIP3   OH218002   3.666   4.237   0.687 -0.4061 -0.2369 -0.1806
 6013TIP3    H118003   3.696   4.257   0.599  0.4557  1.0295  0.3625
 6013TIP3    H218004   3.744   4.245   0.742 -1.2282  0.6625  0.9264
 6014TIP3   OH218005   7.131   6.399   5.895  0.1299  0.2411 -0.3126
 6014TIP3    H118006   7.106   6.486   5.862  0.2287 -0.4930 -2.5252
 6014TIP3    H218007   7.052   6.346   5.882 -0.5196  0.3170  2.6306
 6015TIP3   OH218008   3.910   0.919   3.930 -0.4321 -0.2030 -0.2876
 6015TIP3    H118009   3.818   0.939   3.913  0.0014  2.2651 -0.1093
 6015TIP3    H218010   3.958   0.990   3.888  1.3846 -1.2928 -0.1269
 6016TIP3   OH218011   1.187   5.539   2.436  0.0246  0.1259  0.5962
 6016TIP3    H118012   1.102   5.527   2.479  0.3862 -1.7507  0.9066
 6016TIP3    H218013   1.243   5.578   2.503 -0.1038 -0.4256  1.0383
 6017TIP3   OH218014   1.675   2.415   2.669 -0.2049 -0.2855  0.0967
 6017TIP3    H118015   1.596   2.468   2.679  0.5014  0.3962  2.6129
 6017TIP3    H218016   1.658   2.337   2.722  0.9691  0.1034  1.0881
 6018TIP3   OH218017   0.925   4.423   3.814 -0.1025  0.5007  0.6016
 6018TIP3    H118018   0.899   4.415   3.906  0.5170  1.5255  0.8781
 6018TIP3    H218019   0.842   4.421   3.766 -0.3875 -0.7930  1.1116
 6019TIP3   OH218020   3.437   5.884   1.841  0.5369 -0.1989  0.1775
 6019TIP3    H118021   3.470   5.795   1.833  0.9804 -0.0159 -0.0492
 6019TIP3    H218022   3.342   5.875   1.835  0.0507 -1.2877  5.0327
 6020TIP3   OH218023   5.148   5.402   2.845  0.2386  0.4837  0.4219
 6020TIP3    H118024   5.130   5.477   2.901  1.8336  0.8927  0.4266
 6020TIP3    H218025   5.061   5.371   2.818 -0.5754  0.6432  2.5996
 6021TIP3   OH218026   3.388   1.281   5.451 -0.5148  0.0763  0.4457
 6021TIP3    H118027   3.453   1.226   5.494  0.1549 -0.7246 -1.4698
 6021TIP3    H218028   3.317   1.289   5.515 -0.3415 -2.4703  1.0714
 6022TIP3   OH218029   0.445   6.683   3.606 -0.2854 -0.4587  0.2705
 6022TIP3    H118030   0.532   6.651   3.630 -0.3837 -0.7083  0.2927
 6022TIP3    H218031   0.460   6.774   3.580 -0.2584  0.0549  1.9409
 6023TIP3   OH218032   5.443   6.757   5.018 -0.7752  0.1801 -0.2019
 6023TIP3    H118033   5.383   6.809   4.964 -1.6766 -0.0057  0.5950
 6023TIP3    H218034   5.393   6.679   5.041 -0.0728 -0.1808  0.1362
 6024TIP3   OH218035   2.463   1.053   0.966  0.5082 -0.6185  0.0415
 6024TIP3    H118036   2.453   1.022   0.876 -0.3055  1.1635 -0.5355
 6024TIP3    H218037   2.422   1.140   0.966 -0.3191 -0.9336  2.3537
 6025TIP3   OH218038   6.238   0.659   5.741  0.1836  0.1389 -0.2134
 6025TIP3    H118039   6.163   0.601   5.757 -0.8921  1.2239 -1.1104
 6025TIP3    H218040   6.229   0.728   5.806  0.5128  0.1663 -0.1995
 6026TIP3   OH218041   5.550   0.746   4.582 -0.5505 -0.5558 -0.3165
 6026TIP3    H118042   5.618   0.704   4.529 -1.4278 -0.6960 -1.3539
 6026TIP3    H218043   5.596   0.818   4.627  0.2502 -0.5648 -1.0991
 6027TIP3   OH218044   6.717   6.238   0.039 -0.3328 -0.2629  0.2986
 6027TIP3    H118045   6.628   6.206   0.051 -0.1224 -1.3959 -0.8542
 6027TIP3    H218046   6.729   6.239  -0.056 -0.1713  2.9462  0.2417
 6028TIP3   OH218047   1.389   2.831   0.621  0.2954 -0.5988 -0.0141
 6028TIP3    H118048   1.403   2.796   0.533  2.5414 -0.9996  0.4420
 6028TIP3    H218049   1.379   2.753   0.677  1.2784 -0.4376  0.4110
 6029TIP3   OH218050   2.245   1.246   0.825  0.5565 -0.4626  0.2133
 6029TIP3    H118051   2.158   1.282   0.840  0.3364 -0.6417 -0.6315
 6029TIP3    H218052   2.233   1.179   0.759  1.5466  0.5585 -1.0662
 6030TIP3   OH218053   4.186   5.270   4.277 -0.5091  0.0618  0.5835
 6030TIP3    H118054   4.273   5.252   4.241 -0.0604  4.0506 -0.8665
 6030TIP3    H218055   4.137   5.190   4.261  1.9168 -1.1324 -1.8663
 6031TIP3   OH218056   1.252   2.012   3.611  0.3519 -0.1982  0.5235
 6031TIP3    H118057   1.293   2.081   3.663 -2.6684  2.1068  0.1538
 6031TIP3    H218058   1.243   1.939   3.672  0.4000  1.0472  2.1089
 6032TIP3   OH218059   4.515   6.362   1.402 -0.2269  0.1526 -0.5699
 6032TIP3    H118060   4.489   6.447   1.365 -0.4628  0.1353 -0.4417
 6032TIP3    H218061   4.530   6.306   1.326 -0.6316  0.1400 -0.6379
 6033TIP3   OH218062   3.727   6.041   3.881  0.3212  0.4788  0.0446
 6033TIP3    H118063   3.730   5.947   3.894 -1.5234  0.3706 -0.0744
 6033TIP3    H218064   3.665   6.073   3.947 -0.8097  1.3014 -1.3528
 6034TIP3   OH218065   1.447   0.126   2.663 -0.2597  0.0443  0.3615
 6034TIP3    H118066   1.407   0.201   2.707 -0.9510 -0.4470  0.5839
 6034TIP3    H218067   1.514   0.164   2.606  1.1022  0.6610  2.2844
 6035TIP3   OH218068   6.812   3.633   1.105 -0.8043 -0.4245  0.0959
 6035TIP3    H118069   6.730   3.659   1.065 -0.2886  0.0100 -0.7016
 6035TIP3    H218070   6.880   3.669   1.048 -0.0587 -1.1588  0.4892
 6036TIP3   OH218071   1.860   4.255   4.759  0.2791  0.9075  0.0040
 6036TIP3    H118072   1.844   4.286   4.848 -2.9436 -1.2886  0.3816
 6036TIP3    H218073   1.896   4.167   4.771 -1.5612 -0.0098 -0.7197
 6037TIP3   OH218074   5.867   5.120   0.002 -0.0351  0.4894  0.5910
 6037TIP3    H118075   5.837   5.127   0.093 -0.3663  0.5892  0.4747
 6037TIP3    H218076   5.819   5.189  -0.044 -1.5697 -1.0054 -0.1194
 6038TIP3   OH218077   5.666   4.177   0.395 -0.1205  0.1045  0.1640
 6038TIP3    H118078   5.577   4.143   0.403  0.4672 -1.6642 -0.3671
 6038TIP3    H218079   5.673   4.207   0.305 -0.2426  0.4919  0.2795
 6039TIP3   OH218080   1.031   6.348   4.963 -0.4157  0.5472  0.1006
 6039TIP3    H118081   1.008   6.304   4.881 -3.2793  3.7072 -1.0642
 6039TIP3    H218082   1.024   6.280   5.029  0.4832 -1.7963 -2.0541
 6040TIP3   OH218083   5.142   0.890   3.647  0.1995  0.0437  0.0535
 6040TIP3    H118084   5.122   0.902   3.555  0.2877  0.6661  0.1153
 6040TIP3    H218085   5.058   0.904   3.691  0.0992 -0.5176  0.0508
 6041TIP3   OH218086   1.879   2.890   3.338  0.4497 -0.4189  0.8131
 6041TIP3    H118087   1.955   2.891   3.396  0.1687  0.6734  1.1919
 6041TIP3    H218088   1.833   2.972   3.358  0.6241  0.2597 -1.3253
 6042TIP3   OH218089   6.079   2.362   5.139  0.6943  0.2582  0.1835
 6042TIP3    H118090   6.091   2.443   5.190 -1.4058  2.6996 -2.8372
 6042TIP3    H218091   6.007   2.317   5.183  1.3042  0.4424  1.4135
 6043TIP3   OH218092   5.257   2.705   1.352  0.4023 -0.0705  0.8014
 6043TIP3    H118093   5.346   2.736   1.371  0.6449 -1.3605  1.9282
 6043TIP3    H218094   5.265   2.661   1.268  0.9240 -0.5461  1.0975
 6044TIP3   OH218095   5.417   2.472   0.336  0.1485 -0.0155 -0.0817
 6044TIP3    H118096   5.464   2.509   0.262 -0.1783  3.2652  1.1947
 6044TIP3    H218097   5.324   2.486   0.315 -0.0068 -0.4649  0.2800
 6045TIP3   OH218098   1.591   1.645   3.328  0.0821  0.4764 -0.2765
 6045TIP3    H118099   1.665   1.702   3.351  0.2153  0.2561 -0.1448
 6045TIP3    H218100   1.545   1.632   3.411 -0.5113  1.1787 -0.4894
 6046TIP3   OH218101   6.706   1.868   3.537  0.2256 -0.4553  0.2347
 6046TIP3    H118102   6.770   1.851   3.468 -0.8851 -1.4514 -0.6052
 6046TIP3    H218103   6.626   1.825   3.506 -0.4520 -0.4670  1.9004
 6047TIP3   OH218104   6.681   1.173   5.366  0.2535  0.2101 -0.1514
 6047TIP3    H118105   6.687   1.096   5.422  0.6487  0.7133  0.5086
 6047TIP3    H218106   6.587   1.188   5.355  0.0645 -2.0149 -2.6222
 6048TIP3   OH218107   4.854   2.727   2.999  0.0138 -0.1975 -0.8093
 6048TIP3    H118108   4.936   2.678   2.988  0.2627 -0.0023  0.1052
 6048TIP3    H218109   4.862   2.801   2.938  0.4116 -0.3116 -0.8997
 6049TIP3   OH218110   1.155   4.831   0.983 -0.0988 -0.3984  0.4093
 6049TIP3    H118111   1.152   4.805   0.891 -3.5827  0.7620  0.0445
 6049TIP3    H218112   1.238   4.877   0.992  0.5187 -0.8532 -2.0348
 6050TIP3   OH218113   4.944   4.048   2.178  0.3126 -0.2897  0.1401
 6050TIP3    H118114   5.014   3.988   2.150  2.0662  1.5630  0.3447
 6050TIP3    H218115   4.909   4.084   2.097  0.8503  0.1043  0.0717
 6051TIP3   OH218116   2.634   1.871   0.880 -0.4748  0.1058 -0.1371
 6051TIP3    H118117   2.569   1.803   0.894 -0.2890 -0.0993 -0.2668
 6051TIP3    H218118   2.585   1.945   0.844 -0.5740 -0.1705 -0.5693
 6052TIP3   OH218119   4.378   2.081   3.447  0.4131 -0.0194 -0.3449
 6052TIP3    H118120   4.383   2.140   3.372 -2.6052 -0.4548 -1.0061
 6052TIP3    H218121   4.285   2.070   3.463  0.9092 -2.6490  1.3291
 6053TIP3   OH218122   0.469   2.303   3.218  0.0185  0.3250 -0.4216
 6053TIP3    H118123   0.457   2.398   3.221 -0.1283  0.2713  1.0794
 6053TIP3    H218124   0.384   2.267   3.244  0.1338 -0.2206 -0.7814
 6054TIP3   OH218125   2.118   2.384   5.451 -0.5113  0.7335  0.5163
 6054TIP3    H118126   2.192   2.338   5.489 -0.9497 -1.1443 -0.7721
 6054TIP3    H218127   2.150   2.417   5.367 -0.8762  0.6868  0.3555
 6055TIP3   OH218128   4.942   5.686   3.332  0.6576  0.4250  0.1142
 6055TIP3    H118129   4.957   5.614   3.271 -2.5762  0.1327 -0.5191
 6055TIP3    H218130   4.897   5.646   3.406 -0.0230  1.5687  0.3453
 6056TIP3   OH218131   1.518   1.466   5.540 -0.1275  0.5077 -0.7397
 6056TIP3    H118132   1.557   1.378   5.540 -1.1374  0.0151 -1.8987
 6056TIP3    H218133   1.591   1.525   5.523  0.3892 -0.2233 -1.1233
 6057TIP3   OH218134   5.969   3.468   4.752 -0.0642  0.2078  0.1969
 6057TIP3    H118135   6.014   3.428   4.826 -0.8747  0.2800  0.7436
 6057TIP3    H218136   5.895   3.515   4.791 -0.8592 -0.2444 -0.7014
 6058TIP3   OH218137   7.155   0.830   5.156  0.7544  0.5788 -0.4111
 6058TIP3    H118138   7.175   0.867   5.242 -1.4141  0.1816  0.3280
 6058TIP3    H218139   7.106   0.899   5.111 -1.0077 -0.3711 -0.0287
 6059TIP3   OH218140   5.985   4.376   4.532  0.3120  0.2780 -0.5273
 6059TIP3    H118141   5.909   4.323   4.554  1.6673 -1.4363  0.2734
 6059TIP3    H218142   5.993   4.370   4.437  0.3363 -0.8458 -0.4660
 6060TIP3   OH218143   6.108   3.516   5.293 -0.0416 -0.1595 -0.2978
 6060TIP3    H118144   6.167   3.548   5.225  0.1632 -1.0492 -0.5522
 6060TIP3    H218145   6.136   3.561   5.372  0.0061  0.5541 -0.7115
 6061TIP3   OH218146   2.376   1.003   0.694  0.1387  0.6802 -0.6241
 6061TIP3    H118147   2.409   1.056   0.622 -0.2447  0.1133 -1.2234
 6061TIP3    H218148   2.382   0.913   0.663 -0.3992  0.4562 -0.1000
 6062TIP3   OH218149   4.186   6.507   4.346  0.4701  0.1623 -0.0292
 6062TIP3    H118150   4.115   6.451   4.315 -0.5334  0.8102  1.0141
 6062TIP3    H218151   4.178   6.506   4.442  0.4461  2.0396  0.0286
 6063TIP3   OH218152   7.134   4.872   5.105  0.2726  0.3873 -0.6319
 6063TIP3    H118153   7.084   4.805   5.057 -0.4912  1.5089 -1.4410
 6063TIP3    H218154   7.149   4.833   5.191  1.8303 -1.7618 -1.7902
 6064TIP3   OH218155   3.490   5.790   0.540 -0.4852  0.9640 -0.0915
 6064TIP3    H118156   3.464   5.810   0.630  0.3448  0.3526  0.3001
 6064TIP3    H218157   3.585   5.798   0.540 -0.1977 -1.6491 -0.2154
 6065TIP3   OH218158   3.584   0.121   4.691 -0.0275 -0.0756  0.6938
 6065TIP3    H118159   3.674   0.139   4.717  0.4142  0.0346 -0.7886
 6065TIP3    H218160   3.587   0.120   4.595 -1.1601 -2.3594  0.6163
 6066TIP3   OH218161   2.986   2.678   0.668 -0.2363 -0.3283 -0.5048
 6066TIP3    H118162   2.931   2.600   0.654  0.2282 -0.7968  0.1937
 6066TIP3    H218163   2.930   2.751   0.643 -1.8627 -0.6592  1.8155
 6067TIP3   OH218164   3.937   0.417   1.786  0.5426 -0.3237 -0.1886
 6067TIP3    H118165   3.990   0.475   1.841 -0.3950 -0.8840  1.3833
 6067TIP3    H218166   3.900   0.353   1.848 -0.4934 -1.0437 -1.4999
 6068TIP3   OH218167   0.119   0.400   1.440  0.4985 -0.1529  0.4024
 6068TIP3    H118168   0.136   0.486   1.478 -0.5170  0.7313 -1.0635
 6068TIP3    H218169   0.096   0.418   1.349 -1.8887 -1.7877  0.6149
 6069TIP3   OH218170   3.134   4.950   5.675  0.1311 -0.0763  0.0988
 6069TIP3    H118171   3.173   4.919   5.757  2.0103  1.1550 -0.2736
 6069TIP3    H218172   3.203   4.939   5.609 -1.5334 -1.6370 -1.5147
 6070TIP3   OH218173   2.951   1.915   4.584  0.8323 -0.2073 -0.2487
 6070TIP3    H118174   3.000   1.884   4.659  2.0350 -0.5155 -1.1354
 6070TIP3    H218175   3.015   1.963   4.531 -0.5951  2.6066  0.3390
 6071TIP3   OH218176   5.592   2.445   1.719  0.6069  0.1389 -0.0280
 6071TIP3    H118177   5.679   2.484   1.715 -0.2694  2.2495  0.0963
 6071TIP3    H218178   5.546   2.496   1.786 -0.5389 -1.3413  0.3557
 6072TIP3   OH218179   1.543   4.410   3.547  0.1239 -0.3773  0.1218
 6072TIP3    H118180   1.464   4.398   3.495  0.6583 -0.1372 -0.7688
 6072TIP3    H218181   1.527   4.490   3.598 -0.1345 -0.2248 -0.2004
 6073TIP3   OH218182   6.292   3.544   5.819 -0.1809 -0.0331  0.1993
 6073TIP3    H118183   6.261   3.454   5.805 -2.2068  0.8442 -1.3516
 6073TIP3    H218184   6.222   3.586   5.868 -0.0301  1.1485 -0.5652
 6074TIP3   OH218185   6.844   1.363   5.722  0.6357 -0.0276 -0.0973
 6074TIP3    H118186   6.931   1.403   5.717  0.1115  1.2603  0.6744
 6074TIP3    H218187   6.860   1.269   5.711  2.0059  0.2796 -0.9796
 6075TIP3   OH218188   6.309   0.233   3.985 -0.3134 -0.2169 -0.0379
 6075TIP3    H118189   6.347   0.320   3.989 -1.1331  0.2235 -1.2204
 6075TIP3    H218190   6.314   0.208   3.893 -2.1287 -0.4447 -0.1242
 6076TIP3   OH218191   4.833   6.404   1.708  0.3384  0.5787 -0.2024
 6076TIP3    H118192   4.880   6.334   1.753  0.9675  1.1242  0.0129
 6076TIP3    H218193   4.815   6.468   1.777  0.9826  1.2539 -0.6433
 6077TIP3   OH218194   2.867   4.436   3.833 -0.2300 -0.4513  0.4561
 6077TIP3    H118195   2.947   4.473   3.797  0.9048 -2.4152  0.8277
 6077TIP3    H218196   2.850   4.486   3.912 -0.2051  0.9296 -0.3919
 6078TIP3   OH218197   5.558   1.288   2.452 -0.0030 -0.2226  0.4028
 6078TIP3    H118198   5.477   1.272   2.501 -0.8961  2.2161 -0.1551
 6078TIP3    H218199   5.574   1.205   2.406 -1.3307 -1.2549  1.6831
 6079TIP3   OH218200   3.924   0.647   2.202  0.3644  0.3650 -0.1256
 6079TIP3    H118201   3.919   0.686   2.289 -1.3014 -0.9312  0.4244
 6079TIP3    H218202   3.856   0.691   2.152  1.2804  1.0685 -0.7916
 6080TIP3   OH218203   3.835   1.603   5.205  0.3427  0.2131  0.0824
 6080TIP3    H118204   3.788   1.530   5.164 -1.2556 -0.5274  2.9724
 6080TIP3    H218205   3.927   1.577   5.202 -0.0790 -1.3646 -0.0486
 6081TIP3   OH218206   5.930   1.888   5.094  0.3660 -0.1704  0.3408
 6081TIP3    H118207   5.893   1.938   5.021 -0.5273 -1.4529 -0.1174
 6081TIP3    H218208   5.882   1.805   5.094 -0.2220  0.0772  2.8747
 6082TIP3   OH218209   4.484   6.052   2.767 -0.2795 -0.1691 -0.7340
 6082TIP3    H118210   4.527   6.112   2.827  0.7117 -0.3724 -1.2167
 6082TIP3    H218211   4.554   6.024   2.708 -1.1659 -0.2056 -1.7863
 6083TIP3   OH218212   4.361   4.089   2.757 -0.3868  0.3696 -0.0519
 6083TIP3    H118213   4.448   4.059   2.784 -0.6403  1.3609  2.0758
 6083TIP3    H218214   4.371   4.183   2.743 -0.7925  0.2420 -1.3862
 6084TIP3   OH218215   0.644   1.429   3.177 -0.6885  0.5729 -0.2813
 6084TIP3    H118216   0.712   1.412   3.241 -1.2570  1.0296  0.4671
 6084TIP3    H218217   0.688   1.426   3.093 -0.1633 -1.3481  0.0124
 6085TIP3   OH218218   2.495   0.392   2.603 -0.2433  0.8277  0.4847
 6085TIP3    H118219   2.546   0.385   2.684 -3.3756 -0.8305  2.5238
 6085TIP3    H218220   2.475   0.302   2.579 -2.2952  1.3856 -0.0877
 6086TIP3   OH218221   6.267   4.207   0.356 -0.5747  0.0050 -0.1886
 6086TIP3    H118222   6.223   4.135   0.311 -0.1472 -0.3696 -0.0192
 6086TIP3    H218223   6.292   4.268   0.287 -0.7905 -0.0918 -0.3518
 6087TIP3   OH218224   0.595   2.728   3.515  0.2306 -0.2254  0.2711
 6087TIP3    H118225   0.560   2.748   3.601  1.6506  0.2415  0.7711
 6087TIP3    H218226   0.580   2.806   3.462  0.9093  0.1502  0.6223
 6088TIP3   OH218227   1.358   5.598   0.576  0.6806 -0.5313 -0.1496
 6088TIP3    H118228   1.362   5.579   0.670 -0.5478 -1.2094 -0.2129
 6088TIP3    H218229   1.351   5.694   0.572 -0.6048 -0.5663  0.5420
 6089TIP3   OH218230   2.989   5.542   1.126 -0.0484  0.1270  0.6249
 6089TIP3    H118231   2.974   5.623   1.077  1.5423  0.6355  0.9003
 6089TIP3    H218232   3.011   5.572   1.215  1.3697 -0.5181  0.5255
 6090TIP3   OH218233   1.191   3.206   1.347  0.1712 -0.0210 -0.3012
 6090TIP3    H118234   1.109   3.253   1.337 -0.1707 -0.5699 -0.0928
 6090TIP3    H218235   1.173   3.118   1.314  0.3037 -0.5287  0.9131
 6091TIP3   OH218236   2.498   5.524   2.649 -0.4967 -0.4735 -0.6429
 6091TIP3    H118237   2.538   5.485   2.572 -1.1102  0.1876 -1.3174
 6091TIP3    H218238   2.568   5.526   2.715  0.2185 -0.4580 -1.3910
 6092TIP3   OH218239   1.831   3.037   3.112  0.0897 -0.0810 -0.6577
 6092TIP3    H118240   1.840   2.970   3.180 -1.1385 -0.4396 -0.8118
 6092TIP3    H218241   1.908   3.092   3.121  0.3931 -0.6633  0.4353
 6093TIP3   OH218242   1.210   5.373   0.364  0.2120  0.7511 -0.1225
 6093TIP3    H118243   1.152   5.301   0.391 -1.0995  1.9960  0.4822
 6093TIP3    H218244   1.233   5.417   0.446  0.4887  1.4158 -0.5478
 6094TIP3   OH218245   4.970   6.528   5.836 -0.0993 -0.2927 -0.0570
 6094TIP3    H118246   4.884   6.504   5.801 -0.1539 -1.4578  0.7998
 6094TIP3    H218247   5.030   6.517   5.762 -0.8987  2.3213 -1.1875
 6095TIP3   OH218248   4.098   1.571   4.770  0.1521 -0.0761  0.1419
 6095TIP3    H118249   4.015   1.534   4.739 -0.0691  0.5392 -0.0307
 6095TIP3    H218250   4.078   1.664   4.782  1.3300  0.4569 -1.7083
 6096TIP3   OH218251   1.298   0.069   4.492 -0.1288 -0.1154  0.3720
 6096TIP3    H118252   1.233   0.137   4.511 -0.5660 -0.4685  0.1515
 6096TIP3    H218253   1.302   0.017   4.572 -0.9625 -0.7751  0.0069
 6097TIP3   OH218254   7.042   1.467   4.476 -0.8889 -0.1699  0.4229
 6097TIP3    H118255   7.103   1.496   4.544  0.3394  0.4722 -0.8816
 6097TIP3    H218256   6.982   1.541   4.465 -1.3171 -0.4198  1.0486
 6098TIP3   OH218257   6.488   2.096   0.466 -0.4397 -0.2641 -0.3277
 6098TIP3    H118258   6.477   2.187   0.495  0.7596  0.4979 -2.0737
 6098TIP3    H218259   6.429   2.046   0.523 -1.6912  1.6839  0.2207
 6099TIP3   OH218260   2.273   5.270   0.408  0.0139  0.0412 -0.2222
 6099TIP3    H118261   2.278   5.245   0.316 -0.6720 -0.5999 -0.0882
 6099TIP3    H218262   2.299   5.362   0.408  0.7778 -0.1521 -0.9505
 6100TIP3   OH218263   2.882   2.255   5.677  0.5718 -0.1236 -0.5051
 6100TIP3    H118264   2.850   2.269   5.588 -0.3360 -1.0180 -0.3366
 6100TIP3    H218265   2.932   2.173   5.671  0.8173  0.0094 -0.2679
 6101TIP3   OH218266   3.040   4.212   3.436 -0.2816  0.1254 -0.7698
 6101TIP3    H118267   3.091   4.226   3.516  0.8055 -0.3767 -1.3579
 6101TIP3    H218268   2.978   4.285   3.435  0.5326  0.8604 -0.1195
 6102TIP3   OH218269   2.021   3.765   3.316 -0.5461 -0.1816 -0.3848
 6102TIP3    H118270   2.032   3.707   3.391 -0.7080 -1.2062 -1.1275
 6102TIP3    H218271   2.066   3.846   3.341 -2.1570  0.1930  1.5480
 6103TIP3   OH218272   4.944   4.225   0.910 -0.4863 -0.0857 -0.3551
 6103TIP3    H118273   5.010   4.289   0.883 -0.6262  0.1494 -0.1488
 6103TIP3    H218274   4.869   4.243   0.853 -0.9020  0.6329  0.3960
 6104TIP3   OH218275   4.801   3.966   0.737 -0.3225 -0.4523  0.0708
 6104TIP3    H118276   4.744   3.992   0.664  0.2542 -1.1002 -0.6280
 6104TIP3    H218277   4.889   3.965   0.699  0.0429 -0.3477  0.9039
 6105TIP3   OH218278   0.374   5.283   5.170  0.2978  0.0170 -0.3727
 6105TIP3    H118279   0.361   5.377   5.183  0.0500  0.1236 -1.3068
 6105TIP3    H218280   0.450   5.261   5.224 -0.7485  0.3695  1.3269
 6106TIP3   OH218281   5.788   6.123   2.514 -0.4087 -0.0884 -0.3440
 6106TIP3    H118282   5.848   6.049   2.523  1.3560  1.0125 -2.1786
 6106TIP3    H218283   5.803   6.175   2.593  1.6571  0.5128 -1.0563
 6107TIP3   OH218284   2.282   0.060   2.835 -0.5885  0.0964 -0.4948
 6107TIP3    H118285   2.372   0.038   2.811 -0.6786  0.8473 -1.6260
 6107TIP3    H218286   2.282   0.061   2.930  0.7321  0.5623 -0.4755
 6108TIP3   OH218287   3.647   1.008   5.605  0.0342  0.8756  0.0588
 6108TIP3    H118288   3.657   0.957   5.524 -0.6360 -0.2754  0.6691
 6108TIP3    H218289   3.733   1.005   5.646  0.0112  0.2199  0.0771
 6109TIP3   OH218290   0.301   4.132   0.275  0.0432 -0.0352  0.4370
 6109TIP3    H118291   0.371   4.067   0.272  1.0863  1.0684 -1.1680
 6109TIP3    H218292   0.344   4.214   0.249 -1.3268  1.2010  1.8511
 6110TIP3   OH218293   3.661   4.085   2.301  0.2479 -0.0293  0.4160
 6110TIP3    H118294   3.588   4.113   2.356  1.1009  2.0235  0.6149
 6110TIP3    H218295   3.731   4.065   2.364 -0.5810 -3.8999  0.3698
 6111TIP3   OH218296   4.598   4.086   1.536 -0.5114  0.7726  0.4932
 6111TIP3    H118297   4.535   4.151   1.502 -0.1570  0.3383 -1.0801
 6111TIP3    H218298   4.561   4.002   1.510 -0.1414  0.4191  1.1025
 6112TIP3   OH218299   6.531   2.587   5.509 -0.4290 -0.1379  0.5102
 6112TIP3    H118300   6.444   2.548   5.507 -0.2796 -0.4497 -0.2715
 6112TIP3    H218301   6.518   2.672   5.552 -1.3527  0.3879 -0.7659
 6113TIP3   OH218302   1.818   6.772   5.071 -0.0580  0.3013 -0.2425
 6113TIP3    H118303   1.796   6.853   5.116  1.2647  0.5108  0.0731
 6113TIP3    H218304   1.903   6.746   5.109 -0.1331 -0.8556 -0.8273
 6114TIP3   OH218305   6.303   3.842   1.460 -0.1585  0.0074  0.7961
 6114TIP3    H118306   6.297   3.788   1.382 -0.8651  0.1186  0.7652
 6114TIP3    H218307   6.316   3.780   1.532 -2.6217 -0.3936  0.9859
 6115TIP3   OH218308   0.579   5.418   1.532  0.4084 -0.1916  0.1469
 6115TIP3    H118309   0.505   5.418   1.472  0.7157 -0.2319 -0.2393
 6115TIP3    H218310   0.588   5.327   1.559  0.6337 -0.2814 -0.2137
 6116TIP3   OH218311   3.422   2.080   0.767 -0.2150  0.2330 -0.0584
 6116TIP3    H118312   3.477   2.007   0.795 -2.5143 -2.2173 -1.4563
 6116TIP3    H218313   3.361   2.093   0.839 -2.2995 -2.0269 -1.2605
 6117TIP3   OH218314   3.756   1.674   3.410 -0.5335 -1.3749 -0.2697
 6117TIP3    H118315   3.662   1.663   3.422 -0.3578 -1.2143  1.5709
 6117TIP3    H218316   3.781   1.606   3.347 -1.7080 -2.1145  0.0352
 6118TIP3   OH218317   2.028   2.378   4.293 -0.2362  0.1363 -0.2170
 6118TIP3    H118318   2.094   2.435   4.332  0.4930 -2.0992  2.0810
 6118TIP3    H218319   1.982   2.433   4.230  2.4508  2.3404 -0.3955
 6119TIP3   OH218320   6.484   6.251   5.666 -0.1665  0.3137  0.1005
 6119TIP3    H118321   6.410   6.296   5.626 -0.4987  1.1944  1.6205
 6119TIP3    H218322   6.538   6.321   5.701  0.7941 -0.3756  0.0310
 6120TIP3   OH218323   6.829   3.996   3.897  0.1335 -0.4369 -0.0630
 6120TIP3    H118324   6.813   3.905   3.921 -0.1225 -0.6621 -1.0251
 6120TIP3    H218325   6.744   4.039   3.907 -1.4231 -1.6091 -5.0609
 6121TIP3   OH218326   3.368   6.489   4.388  0.1289 -0.1695 -0.5052
 6121TIP3    H118327   3.441   6.466   4.445 -0.3855  0.9953  0.6870
 6121TIP3    H218328   3.389   6.448   4.304  2.0744  0.0246 -0.1654
 6122TIP3   OH218329   6.372   0.918   2.039  0.2603  0.2116 -0.0563
 6122TIP3    H118330   6.321   0.848   2.078 -0.8591 -0.3756 -2.3930
 6122TIP3    H218331   6.440   0.873   1.989  0.3145  0.8383 -0.5579
 6123TIP3   OH218332   5.013   0.010   4.620 -0.3986 -0.0373  0.3546
 6123TIP3    H118333   5.050  -0.033   4.697 -2.0358 -0.9749  0.6572
 6123TIP3    H218334   5.013   0.103   4.642  0.4126 -0.1630  0.9158
 6124TIP3   OH218335   2.091   5.661   5.290 -0.2638  0.4934 -0.7617
 6124TIP3    H118336   2.004   5.641   5.325  0.6687 -2.0893  0.3725
 6124TIP3    H218337   2.149   5.657   5.366  1.0400  0.8348 -1.7024
 6125TIP3   OH218338   6.724   0.582   0.631  0.1799 -0.3050 -0.5331
 6125TIP3    H118339   6.754   0.597   0.720  0.5932 -0.6754 -0.6061
 6125TIP3    H218340   6.734   0.667   0.587  1.4662 -0.4926 -0.6481
 6126TIP3   OH218341   1.041   2.316   3.773 -0.7273 -0.4061 -0.5420
 6126TIP3    H118342   1.088   2.330   3.691 -1.1561  1.7954 -0.4945
 6126TIP3    H218343   1.002   2.401   3.792  0.9943 -0.1983  2.9562
 6127TIP3   OH218344   6.888   3.375   5.682  0.2792 -0.8400  0.0972
 6127TIP3    H118345   6.813   3.335   5.726 -0.4749 -1.0112 -1.2656
 6127TIP3    H218346   6.856   3.392   5.593  0.2126  3.6008  0.7528
 6128TIP3   OH218347   4.904   0.848   1.103 -0.6244  0.4057  1.0230
 6128TIP3    H118348   4.929   0.763   1.067 -3.1891 -0.0004 -0.0569
 6128TIP3    H218349   4.987   0.895   1.114  0.6289 -0.4081 -3.0975
 6129TIP3   OH218350   1.361   2.670   1.733 -0.4873 -0.3050  0.1488
 6129TIP3    H118351   1.386   2.757   1.704  0.7026 -0.4327  0.6989
 6129TIP3    H218352   1.276   2.681   1.775  0.0516  0.7525  0.9931
 6130TIP3   OH218353   6.413   0.986   4.553  0.7868 -0.0822  0.3791
 6130TIP3    H118354   6.438   1.063   4.502  0.9896  0.0316  0.6505
 6130TIP3    H218355   6.464   0.914   4.516 -0.8074 -0.4923 -1.1686
 6131TIP3   OH218356   5.803   3.267   0.895  0.6233  0.3085 -0.3663
 6131TIP3    H118357   5.742   3.314   0.837  1.1565  0.7482 -0.5800
 6131TIP3    H218358   5.809   3.322   0.973  1.2229  0.5812 -0.6017
 6132TIP3   OH218359   4.945   0.583   1.938  0.1242  0.6696 -0.0041
 6132TIP3    H118360   4.989   0.634   2.005 -0.5906 -0.1705  1.1427
 6132TIP3    H218361   4.916   0.504   1.983  0.5529 -0.4228 -1.5487
 6133TIP3   OH218362   3.981   2.058   3.708 -0.3054  0.2472  0.3022
 6133TIP3    H118363   4.039   2.077   3.634 -1.6755 -0.3199 -0.9632
 6133TIP3    H218364   3.955   2.145   3.739  0.4094  0.4959  0.2394
 6134TIP3   OH218365   5.334   6.625   0.823  0.1950 -0.3763 -0.0133
 6134TIP3    H118366   5.303   6.564   0.755 -0.0458 -1.1162  0.7492
 6134TIP3    H218367   5.298   6.590   0.904  0.2445  0.6674  0.4666
 6135TIP3   OH218368   4.104   6.546   0.584 -0.2580 -0.2410 -0.4758
 6135TIP3    H118369   4.017   6.553   0.623 -0.3867 -2.6271 -0.1534
 6135TIP3    H218370   4.088   6.553   0.490 -0.8544 -0.8712 -0.4299
 6136TIP3   OH218371   1.297   3.901   2.780  0.1412  0.1311 -0.2139
 6136TIP3    H118372   1.296   3.988   2.740  2.0771 -0.0492 -0.7644
 6136TIP3    H218373   1.245   3.847   2.720 -0.2575  0.6913 -0.3869
 6137TIP3   OH218374   5.453   1.605   4.718  0.1103  0.4587  0.1681
 6137TIP3    H118375   5.474   1.571   4.805  1.0514  0.2588 -0.1310
 6137TIP3    H218376   5.530   1.587   4.665  0.3562  2.3377 -0.2153
 6138TIP3   OH218377   6.535   1.697   3.952  0.0296 -0.4512  0.2694
 6138TIP3    H118378   6.562   1.689   4.043  0.8680  0.9988  0.1807
 6138TIP3    H218379   6.613   1.677   3.902  0.2401  1.0084 -0.0510
 6139TIP3   OH218380   5.017   2.934   0.775  0.3365 -0.6435 -0.1505
 6139TIP3    H118381   5.023   2.941   0.870 -0.3367 -0.4111 -0.1160
 6139TIP3    H218382   5.088   2.876   0.750  1.1760  0.1310  0.3863
 6140TIP3   OH218383   0.299   6.681   4.521  0.3552 -0.5273  0.5651
 6140TIP3    H118384   0.290   6.605   4.579  0.1338 -1.1152 -0.2037
 6140TIP3    H218385   0.222   6.734   4.539 -0.6289 -1.5659 -0.3618
 6141TIP3   OH218386   3.988   2.428   3.720 -0.4489 -0.1169 -0.1822
 6141TIP3    H118387   3.947   2.349   3.756  1.8899 -1.5906 -0.5422
 6141TIP3    H218388   3.996   2.410   3.626  1.5946 -0.2406 -0.0376
 6142TIP3   OH218389   6.401   3.428   1.540  0.4255 -0.2978 -0.0247
 6142TIP3    H118390   6.353   3.346   1.553 -0.4748  0.4171  1.6581
 6142TIP3    H218391   6.365   3.464   1.459 -0.8854 -0.4893  0.4329
 6143TIP3   OH218392   0.704   0.528   5.583 -0.5350  0.0319  0.3826
 6143TIP3    H118393   0.776   0.488   5.535 -0.5760  0.4472 -0.0407
 6143TIP3    H218394   0.638   0.546   5.516 -0.9236 -0.1062  0.7237
 6144TIP3   OH218395   1.163   5.680   1.531  0.3636  0.6982 -0.4440
 6144TIP3    H118396   1.252   5.648   1.546  0.2221 -0.4725 -1.8381
 6144TIP3    H218397   1.174   5.749   1.466  0.2483  0.3861 -0.8009
 6145TIP3   OH218398   5.801   2.253   0.863  0.2831 -0.5130 -0.0879
 6145TIP3    H118399   5.833   2.189   0.800  2.0583 -1.2810  1.4832
 6145TIP3    H218400   5.727   2.211   0.906 -0.4090 -0.3119 -1.0570
 6146TIP3   OH218401   1.579   0.448   4.568  0.0598 -0.3395 -0.0414
 6146TIP3    H118402   1.612   0.372   4.519  0.0732 -0.0304 -0.5251
 6146TIP3    H218403   1.484   0.439   4.565 -0.0010  0.3969 -1.3362
 6147TIP3   OH218404   4.623   4.050   2.771 -0.2783  0.8605  0.4575
 6147TIP3    H118405   4.640   4.024   2.680  0.3359  1.4968  0.3808
 6147TIP3    H218406   4.710   4.062   2.809 -0.5413  1.6109  0.8335
 6148TIP3   OH218407   5.046   0.741   5.537  0.3048  0.0205 -0.3300
 6148TIP3    H118408   5.036   0.834   5.513  0.9563  0.2753  0.3533
 6148TIP3    H218409   5.050   0.741   5.633 -0.3975 -0.7927 -0.2925
 6149TIP3   OH218410   0.762   6.681   2.659  0.0269 -0.7804 -0.3759
 6149TIP3    H118411   0.746   6.770   2.628  0.3851 -0.8415 -0.7453
 6149TIP3    H218412   0.733   6.682   2.750  1.7902  0.2297  0.2134
 6150TIP3   OH218413   5.855   3.445   0.138  0.4498 -0.0061 -0.6106
 6150TIP3    H118414   5.922   3.497   0.182  0.7769 -0.0212 -1.0784
 6150TIP3    H218415   5.840   3.491   0.055  1.7110 -1.3672 -1.6480
 6151TIP3   OH218416   3.674   2.002   5.824  0.9525  0.0309  0.2923
 6151TIP3    H118417   3.582   1.996   5.848  0.8443  1.2244  0.2449
 6151TIP3    H218418   3.687   1.931   5.762 -0.0927  0.2182 -0.1668
 6152TIP3   OH218419   2.558   5.218   0.209  0.7916 -0.1651 -0.3544
 6152TIP3    H118420   2.606   5.297   0.236  1.1054  0.1051 -1.6413
 6152TIP3    H218421   2.517   5.186   0.290 -0.0521  1.7892  0.0373
 6153TIP3   OH218422   3.958   6.690   4.664 -0.1902  0.3402 -0.1154
 6153TIP3    H118423   3.948   6.656   4.575 -0.6254  0.6483 -0.1911
 6153TIP3    H218424   3.876   6.667   4.708  0.5629 -1.0149  0.6315
 6154TIP3   OH218425   4.634   1.125   4.627  0.2964  0.0506 -0.1273
 6154TIP3    H118426   4.556   1.179   4.641  1.0624  1.1228  0.0743
 6154TIP3    H218427   4.653   1.134   4.534  0.4334  0.1365 -0.0906
 6155TIP3   OH218428   5.463   0.335   2.329  0.4905 -0.6009 -0.4331
 6155TIP3    H118429   5.479   0.349   2.235  1.1202 -1.1013 -0.4095
 6155TIP3    H218430   5.444   0.242   2.335  0.9312 -0.6671 -0.0049
 6156TIP3   OH218431   1.908   4.520   5.231  0.0599 -0.2931 -0.1760
 6156TIP3    H118432   1.831   4.577   5.239  0.8259  0.8099 -0.3631
 6156TIP3    H218433   1.954   4.553   5.154  0.9850 -0.6037  0.2286
 6157TIP3   OH218434   0.161   5.437   0.619 -0.5535  0.5145 -0.0528
 6157TIP3    H118435   0.097   5.507   0.614 -0.1304  0.8428 -1.1980
 6157TIP3    H218436   0.185   5.419   0.527  0.3469 -0.1817  0.2965
 6158TIP3   OH218437   4.351   4.616   0.041 -0.1083  0.3130 -0.0888
 6158TIP3    H118438   4.264   4.586   0.015  0.0343  1.0790 -1.5356
 6158TIP3    H218439   4.340   4.709   0.062  0.5910  0.7832 -1.6476
 6159TIP3   OH218440   3.273   4.028   3.855  0.5038  0.1664 -0.1622
 6159TIP3    H118441   3.353   3.976   3.843  1.0063  0.6999  0.7229
 6159TIP3    H218442   3.205   3.963   3.871  1.1872 -0.2388  1.2837
 6160TIP3   OH218443   5.840   3.301   2.142  0.4028 -0.5527  0.0191
 6160TIP3    H118444   5.849   3.206   2.130 -1.5777 -0.5779 -1.8243
 6160TIP3    H218445   5.745   3.316   2.146  0.6696  1.1397  2.7656
 6161TIP3   OH218446   6.819   6.287   5.567 -0.4409 -0.0650  0.3518
 6161TIP3    H118447   6.742   6.250   5.525  0.6013  1.1957 -3.0170
 6161TIP3    H218448   6.792   6.374   5.595 -0.2847  0.4586 -1.0151
 6162TIP3   OH218449   5.734   6.434   1.142  0.4091 -0.2353 -0.2350
 6162TIP3    H118450   5.794   6.508   1.142  0.5193 -0.3003  1.0017
 6162TIP3    H218451   5.647   6.474   1.146  0.4306 -0.1645 -0.4627
 6163TIP3   OH218452   5.280   1.199   0.763 -0.1421  0.0278  0.0355
 6163TIP3    H118453   5.345   1.187   0.833  0.8679  1.0693 -0.6766
 6163TIP3    H218454   5.323   1.166   0.685 -0.2308  1.2566 -0.5515
 6164TIP3   OH218455   2.014   2.505   3.704 -0.1125 -0.4710  0.1199
 6164TIP3    H118456   2.001   2.435   3.769 -1.5016  1.7037  2.3847
 6164TIP3    H218457   1.939   2.496   3.644 -0.1034 -1.0949  0.1896
 6165TIP3   OH218458   6.095   4.877   0.835  0.2917 -0.4066  0.2474
 6165TIP3    H118459   6.124   4.838   0.752  2.7792  0.3428  0.6744
 6165TIP3    H218460   6.109   4.808   0.900  1.1910 -0.0438  0.4549
 6166TIP3   OH218461   0.030   3.146   0.071 -0.7619 -0.2351  0.4040
 6166TIP3    H118462   0.105   3.088   0.083 -0.4078  0.5001  1.9731
 6166TIP3    H218463  -0.046   3.088   0.074 -0.2887 -0.9723 -1.0941
 6167TIP3   OH218464   4.709   3.647   0.508  0.7935 -0.2031 -0.0493
 6167TIP3    H118465   4.803   3.667   0.510  0.9729 -1.0093  1.5810
 6167TIP3    H218466   4.700   3.582   0.438  1.2328  0.8184 -1.0727
 6168TIP3   OH218467   0.746   1.632   0.105  0.0431 -0.3656 -0.5097
 6168TIP3    H118468   0.739   1.718   0.063  0.7322  1.1761  2.3193
 6168TIP3    H218469   0.818   1.589   0.058  0.5353  1.0982 -1.1721
 6169TIP3   OH218470   6.441   5.998   1.379 -0.3800 -0.1412  0.1586
 6169TIP3    H118471   6.443   5.992   1.474 -0.9594  2.4768  0.4312
 6169TIP3    H218472   6.522   5.958   1.350  0.8934  1.0085  1.9582
 6170TIP3   OH218473   2.168   5.082   2.323 -0.2904  0.7466 -0.6006
 6170TIP3    H118474   2.191   5.007   2.377  0.2189  1.5995  0.3832
 6170TIP3    H218475   2.192   5.056   2.234 -1.7155 -0.9114 -0.5558
 6171TIP3   OH218476   1.078   6.724   5.248 -0.3264 -0.2958  0.2829
 6171TIP3    H118477   1.140   6.744   5.177 -0.3649 -0.6702  0.1415
 6171TIP3    H218478   1.013   6.667   5.207 -0.8002  0.1401  0.4169
 6172TIP3   OH218479   6.556   2.318   5.756 -0.0489 -0.0352 -0.5246
 6172TIP3    H118480   6.627   2.378   5.734 -0.4505  0.3746 -0.7063
 6172TIP3    H218481   6.560   2.250   5.688 -1.1959  1.1508 -1.8353
 6173TIP3   OH218482   5.316   4.633   4.958  0.2924 -0.3801  0.2441
 6173TIP3    H118483   5.351   4.712   4.916  0.4144 -0.7441 -0.3632
 6173TIP3    H218484   5.258   4.665   5.027  0.1714  0.2465 -0.1410
 6174TIP3   OH218485   0.829   3.991   1.777  0.0391  0.0450 -0.2093
 6174TIP3    H118486   0.739   3.989   1.810  0.3518  1.1605  0.7639
 6174TIP3    H218487   0.853   4.083   1.776  1.1518 -0.2279 -0.5481
 6175TIP3   OH218488   3.575   2.856   1.086  0.5696  0.1676  0.0765
 6175TIP3    H118489   3.597   2.806   1.008  0.8693  0.9701 -0.3650
 6175TIP3    H218490   3.642   2.832   1.150 -0.5723 -1.7021  0.6575
 6176TIP3   OH218491   4.790   0.780   4.995 -0.0143  0.2830  0.3171
 6176TIP3    H118492   4.788   0.686   5.012  0.9211  0.3968  1.1630
 6176TIP3    H218493   4.704   0.811   5.025 -0.2888 -0.2884  0.1259
 6177TIP3   OH218494   4.078   4.486   0.079 -0.0276  0.0219 -0.4505
 6177TIP3    H118495   4.080   4.493   0.174  1.7066  0.4793 -0.4866
 6177TIP3    H218496   3.995   4.528   0.053 -0.5203 -0.1255  0.8399
 6178TIP3   OH218497   5.466   6.617   1.911  0.7856  0.1703 -0.0719
 6178TIP3    H118498   5.424   6.673   1.846 -0.5950  0.4298  1.0060
 6178TIP3    H218499   5.453   6.661   1.994 -0.7378 -1.9165  0.8810
 6179TIP3   OH218500   1.110   0.250   1.737 -0.0423 -0.0249 -0.4067
 6179TIP3    H118501   1.038   0.310   1.716  0.0838 -0.1314 -1.1771
 6179TIP3    H218502   1.127   0.265   1.830 -0.3968  0.7160 -0.4512
 6180TIP3   OH218503   3.050   4.503   5.624 -0.2448  0.2608 -0.2845
 6180TIP3    H118504   3.068   4.570   5.558 -0.5714 -0.0158 -0.6627
 6180TIP3    H218505   3.002   4.549   5.693  0.1179  0.5573 -0.2236
 6181TIP3   OH218506   4.260   3.387   3.004  0.3738  0.2430 -0.3432
 6181TIP3    H118507   4.318   3.386   3.080 -1.3883  1.1305  1.0722
 6181TIP3    H218508   4.276   3.471   2.962  0.9644 -0.0293 -0.6866
 6182TIP3   OH218509   2.916   4.396   3.024  0.5154 -0.2349 -0.1865
 6182TIP3    H118510   2.913   4.444   2.942  0.3141 -0.4690 -0.3171
 6182TIP3    H218511   2.940   4.462   3.090 -1.6151  0.4574 -0.0453
 6183TIP3   OH218512   1.372   2.341   0.056  0.1099  0.7372  0.3809
 6183TIP3    H118513   1.467   2.357   0.052  0.0926  0.4694 -2.3310
 6183TIP3    H218514   1.361   2.281   0.129  1.9926  0.9764  0.9113
 6184TIP3   OH218515   4.159   3.144   4.223  0.4516 -0.2700  0.4669
 6184TIP3    H118516   4.229   3.098   4.176  1.6567  2.4203 -0.5914
 6184TIP3    H218517   4.083   3.140   4.165  1.3102  1.1923 -0.8407
 6185TIP3   OH218518   6.433   0.761   4.040  0.4434  1.3101 -0.7536
 6185TIP3    H118519   6.405   0.742   3.950  0.3540 -1.2164 -0.2741
 6185TIP3    H218520   6.527   0.746   4.039  0.2949  0.2746 -0.2288
 6186TIP3   OH218521   7.132   1.696   1.764  0.1080 -0.0733 -0.4068
 6186TIP3    H118522   7.051   1.676   1.811  0.4332 -1.7694 -0.5059
 6186TIP3    H218523   7.114   1.778   1.719 -1.5090 -0.3334 -0.2870
 6187TIP3   OH218524   3.265   2.857   4.596 -0.3968 -0.0342  0.9445
 6187TIP3    H118525   3.200   2.869   4.527 -0.1373  0.6998  0.8178
 6187TIP3    H218526   3.297   2.946   4.615  1.4494 -0.4780  0.1383
 6188TIP3   OH218527   4.921   3.369   1.195 -1.1962 -0.2867 -0.0754
 6188TIP3    H118528   4.991   3.356   1.131 -0.7078  0.8024  0.2023
 6188TIP3    H218529   4.925   3.463   1.215 -1.1126 -0.6454  1.7777
 6189TIP3   OH218530   4.833   1.004   2.474 -0.3304 -0.2212 -0.4240
 6189TIP3    H118531   4.882   1.054   2.409 -1.0933  1.2211  0.0707
 6189TIP3    H218532   4.776   1.068   2.516 -1.8192 -1.6212 -0.1866
 6190TIP3   OH218533   2.942   0.962   5.859  0.3877  0.4815  0.2295
 6190TIP3    H118534   3.000   0.917   5.798  1.5945 -0.2276  1.8287
 6190TIP3    H218535   2.856   0.961   5.816  1.3997  1.0760 -1.9478
 6191TIP3   OH218536   1.460   0.324   0.804  0.4162 -0.5631 -0.2995
 6191TIP3    H118537   1.546   0.326   0.762 -0.0322  1.2344 -1.2565
 6191TIP3    H218538   1.470   0.380   0.881  0.4536 -1.4942  0.3897
 6192TIP3   OH218539   1.189   1.092   3.284  0.3113  0.1694 -0.3350
 6192TIP3    H118540   1.270   1.144   3.290 -0.0990  0.6770  0.8775
 6192TIP3    H218541   1.123   1.155   3.254  0.3576 -0.2718 -1.4351
 6193TIP3   OH218542   5.532   3.493   4.475 -0.7284 -0.8996 -0.4455
 6193TIP3    H118543   5.490   3.453   4.399 -0.7584 -1.7507  0.0067
 6193TIP3    H218544   5.597   3.428   4.503 -0.8758 -0.6979  0.3905
 6194TIP3   OH218545   2.532   6.356   1.037 -0.1431 -0.1424 -0.0686
 6194TIP3    H118546   2.538   6.446   1.069 -0.3616  0.7970 -2.4659
 6194TIP3    H218547   2.622   6.335   1.010 -0.5122  0.3240 -1.7980
 6195TIP3   OH218548   4.833   4.481   0.618  0.3216  0.4244  0.4563
 6195TIP3    H118549   4.879   4.553   0.661  0.7538 -0.7512  2.0838
 6195TIP3    H218550   4.890   4.456   0.545  0.1503  1.7185 -0.1433
 6196TIP3   OH218551   7.211   2.505   1.685  0.4013 -0.4687  0.4219
 6196TIP3    H118552   7.135   2.454   1.659  0.9192 -1.2473  0.4087
 6196TIP3    H218553   7.235   2.555   1.606 -0.5327  0.3577  0.6426
 6197TIP3   OH218554   4.440   5.707   5.358  0.5588  0.1265 -0.6755
 6197TIP3    H118555   4.535   5.695   5.348  0.5528  0.7606 -1.5926
 6197TIP3    H218556   4.402   5.626   5.326  0.8200 -0.5668  0.6994
 6198TIP3   OH218557   3.738   1.869   2.751 -0.3904 -0.0629  0.3352
 6198TIP3    H118558   3.711   1.949   2.795 -1.7436  0.2333 -0.9252
 6198TIP3    H218559   3.746   1.804   2.820  0.4672  1.0753  1.3446
 6199TIP3   OH218560   3.170   2.333   2.864  0.5014  0.4042  0.2511
 6199TIP3    H118561   3.129   2.251   2.839  0.2949  0.3123  0.8705
 6199TIP3    H218562   3.258   2.328   2.828  0.7143 -0.3879  0.8484
 6200TIP3   OH218563   1.568   2.198   4.683 -0.2932 -0.0409  0.1549
 6200TIP3    H118564   1.536   2.249   4.757 -2.7307  0.5163 -1.1770
 6200TIP3    H218565   1.623   2.131   4.722 -0.1441  1.2401  2.2970
 6201TIP3   OH218566   3.689   1.400   5.540 -0.5069 -0.1734 -0.7053
 6201TIP3    H118567   3.611   1.452   5.521  0.4941  1.0816 -1.5311
 6201TIP3    H218568   3.760   1.464   5.542  0.6113 -1.3866 -0.6654
 6202TIP3   OH218569   5.260   1.167   0.298 -0.3206 -0.1614  0.0481
 6202TIP3    H118570   5.168   1.149   0.318 -0.1059  0.7011  2.1325
 6202TIP3    H218571   5.309   1.108   0.356  0.4964 -1.1960 -1.6153
 6203TIP3   OH218572   5.153   1.837   2.506  0.1963 -0.3354  0.1182
 6203TIP3    H118573   5.097   1.913   2.523 -0.1945 -0.0973 -1.9996
 6203TIP3    H218574   5.208   1.863   2.433  1.4477 -1.4269  0.6299
 6204TIP3   OH218575   3.553   2.206   1.950  0.2446  0.0465 -0.0347
 6204TIP3    H118576   3.517   2.288   1.917  0.9367  0.1382 -0.5868
 6204TIP3    H218577   3.477   2.159   1.985 -0.0535  1.2218  0.9720
 6205TIP3   OH218578   3.439   5.876   2.235 -0.6292 -0.7313 -0.4284
 6205TIP3    H118579   3.383   5.952   2.217 -1.1692 -0.5205  1.9079
 6205TIP3    H218580   3.377   5.807   2.259  0.0257 -0.9319  0.7125
 6206TIP3   OH218581   2.749   1.947   1.123 -0.1389  0.4117  0.4904
 6206TIP3    H118582   2.742   1.912   1.212  1.1720 -1.1797  0.0223
 6206TIP3    H218583   2.673   1.910   1.077 -1.0900  1.6255  1.0298
 6207TIP3   OH218584   3.400   5.755   4.690 -1.0089  0.2647 -0.3502
 6207TIP3    H118585   3.420   5.793   4.604  0.5423 -3.1460 -1.6823
 6207TIP3    H218586   3.482   5.761   4.738 -1.7501  1.7456  0.7826
 6208TIP3   OH218587   0.346   5.844   4.367 -0.2259  0.0832  0.1888
 6208TIP3    H118588   0.373   5.874   4.280  2.4273  0.5288  1.0748
 6208TIP3    H218589   0.263   5.887   4.383 -0.2118  0.8825 -1.6697
 6209TIP3   OH218590   1.587   4.177   0.739  0.3645  0.5628 -0.2130
 6209TIP3    H118591   1.500   4.194   0.776  0.4133  2.5218 -0.8986
 6209TIP3    H218592   1.569   4.143   0.652  0.2979 -1.7977  0.6356
 6210TIP3   OH218593   3.184   2.676   5.293  0.1490 -0.2468  0.7008
 6210TIP3    H118594   3.165   2.741   5.225  0.7589 -0.3674  0.4141
 6210TIP3    H218595   3.276   2.655   5.281 -0.2525 -1.8390  0.2065
 6211TIP3   OH218596   3.388   3.830   3.431  0.6517  0.6988 -0.2180
 6211TIP3    H118597   3.457   3.896   3.443  0.8205  0.6739 -0.9738
 6211TIP3    H218598   3.311   3.881   3.404  0.9663  0.5479 -1.4792
 6212TIP3   OH218599   2.885   4.113   3.039 -0.3832  0.4268  0.3784
 6212TIP3    H118600   2.892   4.208   3.031  0.8087  0.2838 -0.4245
 6212TIP3    H218601   2.913   4.094   3.129  0.0903  0.7733  0.3060
 6213TIP3   OH218602   6.029   6.576   1.375  0.0421 -0.2061  0.1969
 6213TIP3    H118603   5.980   6.522   1.437  1.0921 -0.2869  1.0037
 6213TIP3    H218604   6.045   6.658   1.423  1.0337 -0.3443  0.1187
 6214TIP3   OH218605   0.353   6.484   4.931 -0.1994 -0.3117  0.2068
 6214TIP3    H118606   0.302   6.456   4.855  0.3122  2.4769 -1.3473
 6214TIP3    H218607   0.442   6.451   4.914  0.0078  0.6374 -0.6976
 6215TIP3   OH218608   3.945   4.520   3.176 -0.1594 -0.2998 -0.3262
 6215TIP3    H118609   3.871   4.581   3.164 -0.4499 -0.1825  1.7820
 6215TIP3    H218610   4.017   4.563   3.130 -0.2190  1.9856  1.4958
 6216TIP3   OH218611   1.064   6.527   3.694  0.0444 -0.1830  0.1575
 6216TIP3    H118612   1.049   6.491   3.606  1.6952 -1.1773  0.2391
 6216TIP3    H218613   1.154   6.503   3.714  0.7449  2.7375  0.8874
 6217TIP3   OH218614   6.527   1.116   2.191 -0.6256  0.0731  0.4768
 6217TIP3    H118615   6.526   1.176   2.116 -3.7248  1.2612  1.3302
 6217TIP3    H218616   6.471   1.043   2.163  0.5802 -0.9502  0.6259
 6218TIP3   OH218617   5.107   3.661   0.742  0.4330  0.0484 -0.1436
 6218TIP3    H118618   5.108   3.566   0.732  0.0673 -0.0492  0.6468
 6218TIP3    H218619   5.040   3.691   0.681 -1.7471 -0.5148  1.8668
 6219TIP3   OH218620   5.405   0.047   1.630  0.1496 -0.0988  0.3976
 6219TIP3    H118621   5.367   0.135   1.625  0.5126  0.0155 -0.7381
 6219TIP3    H218622   5.470   0.053   1.700 -0.1767  0.3976  0.6629
 6220TIP3   OH218623   0.541   2.425   3.751  0.0038  0.4313  0.3343
 6220TIP3    H118624   0.562   2.422   3.657  1.2807 -2.1390  0.6066
 6220TIP3    H218625   0.459   2.377   3.759  0.9027 -1.1266  0.6825
 6221TIP3   OH218626   2.086   5.146   1.096  0.1506 -0.1078 -0.5551
 6221TIP3    H118627   2.165   5.104   1.131  0.4978  1.3986  0.5874
 6221TIP3    H218628   2.113   5.182   1.011  0.3120 -0.7264 -0.7698
 6222TIP3   OH218629   2.090   5.502   2.674 -0.3981  0.0496  0.3332
 6222TIP3    H118630   2.045   5.526   2.593 -1.4319  0.1189  0.9060
 6222TIP3    H218631   2.110   5.409   2.664 -0.1508  0.1534 -0.1605
 6223TIP3   OH218632   6.030   6.080   1.887 -0.6881 -0.2788 -0.4605
 6223TIP3    H118633   5.988   6.008   1.935 -0.7977 -0.2351 -0.4920
 6223TIP3    H218634   6.089   6.119   1.951 -1.7985  0.6138  0.0479
 6224TIP3   OH218635   3.715   5.527   5.443  0.0117  0.0655 -0.7520
 6224TIP3    H118636   3.746   5.445   5.405 -0.2148  1.0794 -3.2814
 6224TIP3    H218637   3.641   5.501   5.499 -0.0487 -1.4632 -1.4894
 6225TIP3   OH218638   5.238   2.584   1.607 -0.2156 -1.2728  0.0822
 6225TIP3    H118639   5.324   2.600   1.646 -0.2513 -3.6595  1.3432
 6225TIP3    H218640   5.242   2.627   1.522  0.8021  1.9973  1.6063
 6226TIP3   OH218641   2.070   0.358   0.902  0.0711 -0.1375  0.3893
 6226TIP3    H118642   2.151   0.323   0.939  1.1038  1.0937 -0.6294
 6226TIP3    H218643   2.035   0.286   0.849  0.3190 -0.7785  1.0695
 6227TIP3   OH218644   5.183   2.250   0.985 -0.3757 -0.1417 -0.6703
 6227TIP3    H118645   5.149   2.200   0.910 -0.6457  2.0956 -2.1305
 6227TIP3    H218646   5.245   2.312   0.947  2.7474 -1.6769  1.5116
 6228TIP3   OH218647   0.347   4.875   2.326  0.2157 -0.2131 -0.3587
 6228TIP3    H118648   0.304   4.935   2.265 -0.7258  1.0140  1.4299
 6228TIP3    H218649   0.440   4.897   2.317  0.0994 -0.0279 -1.2984
 6229TIP3   OH218650   1.943   4.725   5.561  0.1231 -0.0532  0.8497
 6229TIP3    H118651   1.878   4.656   5.571  0.4089 -0.4787 -0.1527
 6229TIP3    H218652   1.938   4.751   5.469  1.4252 -0.1706  0.7190
 6230TIP3   OH218653   1.957   4.054   1.866  0.7760 -0.2225  0.4262
 6230TIP3    H118654   1.887   4.119   1.868 -2.0282 -2.9885  1.3496
 6230TIP3    H218655   2.011   4.079   1.791 -3.3609  0.1451 -2.8682
 6231TIP3   OH218656   2.288   5.687   2.507  0.3216  0.1424  0.5169
 6231TIP3    H118657   2.276   5.610   2.563 -1.1784  0.0812  0.1469
 6231TIP3    H218658   2.339   5.655   2.433 -0.3417 -0.5195  0.3373
 6232TIP3   OH218659   0.243   6.276   2.586  0.2237 -0.4810  0.5397
 6232TIP3    H118660   0.155   6.240   2.578  0.0300  0.3596 -2.1251
 6232TIP3    H218661   0.300   6.206   2.554  0.4885 -0.7892  1.6549
 6233TIP3   OH218662   0.187   2.946   3.045  0.1859 -0.0814 -0.1076
 6233TIP3    H118663   0.282   2.934   3.036  0.1873 -0.9759  0.8862
 6233TIP3    H218664   0.159   2.871   3.097 -0.8683  0.9078  0.7916
 6234TIP3   OH218665   5.297   5.714   1.193 -0.4367  0.5441 -0.1893
 6234TIP3    H118666   5.289   5.676   1.105 -2.2265  1.2126 -0.3602
 6234TIP3    H218667   5.350   5.792   1.181 -1.5681  1.2349 -0.9185
 6235TIP3   OH218668   6.631   1.461   5.582 -0.4271  0.7645 -0.1142
 6235TIP3    H118669   6.557   1.455   5.644 -0.5556 -0.7337 -0.3749
 6235TIP3    H218670   6.694   1.398   5.614 -0.9121 -0.7889 -2.0330
 6236TIP3   OH218671   3.657   5.020   4.274 -0.3523  0.4295 -0.1114
 6236TIP3    H118672   3.686   4.966   4.201  0.7049 -0.3306  0.8379
 6236TIP3    H218673   3.713   5.097   4.271 -1.5567  1.2927 -1.1937
 6237TIP3   OH218674   3.053   2.294   0.849 -0.2195  0.0665 -0.4597
 6237TIP3    H118675   2.988   2.345   0.799 -1.6936 -0.5567  0.7541
 6237TIP3    H218676   3.001   2.240   0.908  1.4181  1.3372  2.3582
 6238TIP3   OH218677   2.089   5.268   1.911  0.1256  0.1517  0.4513
 6238TIP3    H118678   2.107   5.327   1.985  0.9179  0.7472 -0.2013
 6238TIP3    H218679   2.137   5.188   1.933  1.6974  0.8876 -0.1420
 6239TIP3   OH218680   0.221   2.599   5.734  0.7140  0.0360  0.5316
 6239TIP3    H118681   0.160   2.668   5.761 -1.5155 -1.6014  0.0169
 6239TIP3    H218682   0.214   2.596   5.639  5.4086  3.0073 -0.2072
 6240TIP3   OH218683   1.740   5.149   0.081 -0.1190 -0.1206 -0.0819
 6240TIP3    H118684   1.818   5.096   0.094  0.2451  0.4213  0.0015
 6240TIP3    H218685   1.748   5.183  -0.008 -0.4706 -0.4004 -0.2213
 6241TIP3   OH218686   6.331   2.179   5.321 -0.0777 -0.0135 -0.1119
 6241TIP3    H118687   6.289   2.152   5.239  0.7748  1.6164 -1.1328
 6241TIP3    H218688   6.406   2.231   5.293  1.0631 -0.5911  1.7108
 6242TIP3   OH218689   6.429   5.965   1.650 -0.1510  0.1575 -0.2590
 6242TIP3    H118690   6.446   5.961   1.744  0.6798  3.2056 -0.1891
 6242TIP3    H218691   6.346   6.013   1.643  0.1502  0.5769 -1.0912
 6243TIP3   OH218692   4.433   1.624   2.284  0.1173 -0.5184 -0.2720
 6243TIP3    H118693   4.423   1.719   2.285  0.4852 -0.4753 -0.7715
 6243TIP3    H218694   4.528   1.609   2.288  0.0476 -0.9136  3.3961
 6244TIP3   OH218695   2.491   4.123   1.277  0.1315  0.0048  0.5239
 6244TIP3    H118696   2.510   4.128   1.370  1.5178 -0.3518  0.2856
 6244TIP3    H218697   2.567   4.163   1.234 -1.3150  1.8853 -0.4141
 6245TIP3   OH218698   1.867   1.550   1.651  0.1085 -0.7777  0.0452
 6245TIP3    H118699   1.935   1.610   1.620  0.3622 -1.1207 -0.0706
 6245TIP3    H218700   1.853   1.574   1.742 -0.4908  0.1028 -0.2586
 6246TIP3   OH218701   0.722   1.116   0.790 -0.2105 -0.1063  0.0575
 6246TIP3    H118702   0.658   1.047   0.807 -1.2519  0.4992 -1.1876
 6246TIP3    H218703   0.684   1.165   0.717  1.6602  0.3176 -0.6729
 6247TIP3   OH218704   6.968   3.544   4.554  0.3632 -0.0699  0.5793
 6247TIP3    H118705   6.889   3.508   4.592 -0.6183  0.7862 -0.5514
 6247TIP3    H218706   6.946   3.635   4.533  1.7592  0.2995  0.5686
 6248TIP3   OH218707   2.158   0.154   0.734 -0.1140 -0.2405  0.2491
 6248TIP3    H118708   2.180   0.182   0.646 -1.5784 -0.4748 -0.2185
 6248TIP3    H218709   2.236   0.174   0.786  0.0700  1.7346 -0.6891
 6249TIP3   OH218710   1.880   0.017   3.055 -0.1901  0.1149 -0.1887
 6249TIP3    H118711   1.860   0.107   3.081 -0.4275  1.4604 -4.2256
 6249TIP3    H218712   1.971   0.004   3.080  0.2429  1.9921 -0.6299
 6250TIP3   OH218713   6.338   3.053   2.287 -0.6767 -0.4461 -1.0237
 6250TIP3    H118714   6.272   3.069   2.354 -0.1333 -0.4302 -0.4867
 6250TIP3    H218715   6.289   3.019   2.212 -1.6387  1.8760 -1.5337
 6251TIP3   OH218716   4.323   2.804   5.629 -0.1046 -0.1233 -0.2327
 6251TIP3    H118717   4.409   2.845   5.618  0.6909 -2.3349 -3.6938
 6251TIP3    H218718   4.262   2.863   5.585  0.2252 -0.2258 -0.8365
 6252TIP3   OH218719   5.122   4.106   0.657  0.0442 -0.0914 -0.3866
 6252TIP3    H118720   5.170   4.079   0.735  0.9210  0.4884 -0.7134
 6252TIP3    H218721   5.150   4.197   0.642  2.0136 -1.0151 -2.9284
 6253TIP3   OH218722   0.133   4.098   1.100 -0.2066 -0.2238 -0.2680
 6253TIP3    H118723   0.095   4.142   1.024 -0.0990 -1.8177 -1.2997
 6253TIP3    H218724   0.215   4.062   1.068  1.0474  1.0882  1.2816
 6254TIP3   OH218725   0.943   4.909   5.534 -0.2568 -0.1429 -0.3783
 6254TIP3    H118726   1.024   4.946   5.570 -1.1846  0.6182  1.0372
 6254TIP3    H218727   0.881   4.983   5.533 -0.6528 -0.4302 -2.4709
 6255TIP3   OH218728   4.874   3.675   2.066 -0.2147  0.6197  0.5993
 6255TIP3    H118729   4.810   3.744   2.049 -0.2888  0.5951  0.7815
 6255TIP3    H218730   4.823   3.594   2.068 -0.0087  0.4302 -0.5673
 6256TIP3   OH218731   1.191   2.745   1.351  0.2406 -0.3183 -0.0622
 6256TIP3    H118732   1.139   2.710   1.424 -1.2767 -0.8956 -1.3647
 6256TIP3    H218733   1.134   2.735   1.274  1.1890  1.6919 -1.0954
 6257TIP3   OH218734   5.787   2.724   5.415  0.4965 -0.5976 -0.2259
 6257TIP3    H118735   5.860   2.678   5.458  1.2785 -0.2145 -1.1116
 6257TIP3    H218736   5.788   2.691   5.325  1.1569  1.2153 -0.9211
 6258TIP3   OH218737   0.059   4.098   1.369  0.3724 -0.1524 -0.0873
 6258TIP3    H118738  -0.008   4.158   1.336  1.8433  0.4773 -2.0924
 6258TIP3    H218739   0.121   4.089   1.298  0.5042 -3.7470  0.2595
 6259TIP3   OH218740   6.414   0.209   5.250  0.0373 -0.3056  0.3310
 6259TIP3    H118741   6.338   0.151   5.249  0.0421 -0.3124  0.3916
 6259TIP3    H218742   6.390   0.280   5.189 -0.4642  0.2687  1.1718
 6260TIP3   OH218743   2.104   5.353   1.416  0.1493  0.1786  0.4587
 6260TIP3    H118744   2.134   5.332   1.328  1.0919 -0.1667  0.8519
 6260TIP3    H218745   2.015   5.317   1.421  0.9614 -1.9477  0.4270
 6261TIP3   OH218746   4.209   3.259   0.730  0.8128 -0.3731  0.2406
 6261TIP3    H118747   4.182   3.205   0.655  0.2036 -0.8951  0.8251
 6261TIP3    H218748   4.196   3.349   0.700 -0.0522 -0.5841 -0.0607
 6262TIP3   OH218749   0.369   0.050   3.719  0.3765  0.1203 -0.3295
 6262TIP3    H118750   0.380   0.096   3.636  1.0102  2.0087  0.7473
 6262TIP3    H218751   0.359   0.119   3.784 -0.9845 -1.3175  1.0879
 6263TIP3   OH218752   3.829   2.591   0.029  0.4427  0.4134 -0.0348
 6263TIP3    H118753   3.788   2.677   0.036  0.9484  0.6269  0.3895
 6263TIP3    H218754   3.844   2.579  -0.065 -0.0677  0.5775 -0.1388
 6264TIP3   OH218755   1.105   0.294   2.306 -0.0339  0.2034 -0.8360
 6264TIP3    H118756   1.112   0.199   2.303  0.0993  0.1067  1.4061
 6264TIP3    H218757   1.157   0.321   2.381 -1.7186  1.8653 -0.1790
 6265TIP3   OH218758   4.225   3.891   2.949  1.0018  0.0349  0.8712
 6265TIP3    H118759   4.162   3.900   2.877 -0.3266 -0.8117  1.8754
 6265TIP3    H218760   4.271   3.975   2.950  0.6268  0.2994 -0.5550
 6266TIP3   OH218761   3.289   3.705   3.780  0.7010  0.0366  0.6838
 6266TIP3    H118762   3.327   3.740   3.860  2.7758  0.9290 -0.6038
 6266TIP3    H218763   3.363   3.698   3.719 -0.8843  0.0246 -1.3622
 6267TIP3   OH218764   6.543   2.671   1.942  0.0549 -0.2334 -0.2590
 6267TIP3    H118765   6.572   2.719   2.020  2.3084 -1.6010 -0.1532
 6267TIP3    H218766   6.548   2.736   1.871  1.0220  0.2489  0.2265
 6268TIP3   OH218767   1.332   3.464   3.673  0.3344  0.6112 -0.3668
 6268TIP3    H118768   1.318   3.553   3.640  0.5220  0.5885 -0.5055
 6268TIP3    H218769   1.427   3.455   3.678  0.3119  0.4930 -0.1513
 6269TIP3   OH218770   6.044   3.713   4.594  0.6604  0.2299 -0.3110
 6269TIP3    H118771   6.063   3.721   4.501 -0.1679  0.4802 -0.4682
 6269TIP3    H218772   6.004   3.627   4.603  2.2477 -0.4962  0.0929
 6270TIP3   OH218773   5.687   2.862   0.620  0.2371 -0.6224  0.3156
 6270TIP3    H118774   5.722   2.913   0.693 -0.1709  1.2016 -0.7212
 6270TIP3    H218775   5.733   2.893   0.543 -1.8119  0.0747 -0.7172
 6271TIP3   OH218776   2.397   4.804   0.211  1.0550  0.3809  0.0472
 6271TIP3    H118777   2.377   4.725   0.260  2.8716 -1.1898 -1.5909
 6271TIP3    H218778   2.360   4.789   0.124 -1.0692  2.6051  0.4610
 6272TIP3   OH218779   1.182   5.791   4.167  0.2266 -0.2495  0.0153
 6272TIP3    H118780   1.162   5.737   4.243  1.8078  0.1228  0.7333
 6272TIP3    H218781   1.096   5.811   4.128 -0.7211  0.5125  2.3427
 6273TIP3   OH218782   6.126   3.657   2.336 -0.2131 -0.7240  0.0843
 6273TIP3    H118783   6.201   3.699   2.294 -0.5527 -1.0167 -0.8222
 6273TIP3    H218784   6.136   3.564   2.316 -0.7132 -0.7892  0.1269
 6274TIP3   OH218785   6.329   0.597   5.273  0.4405  0.2022  0.0832
 6274TIP3    H118786   6.344   0.516   5.224 -1.7287 -1.2575  1.6739
 6274TIP3    H218787   6.362   0.666   5.215  1.2522 -1.6894 -1.8520
 6275TIP3   OH218788   5.384   3.226   0.637 -0.3022  0.1149  0.0661
 6275TIP3    H118789   5.331   3.208   0.559  0.6372  1.3354 -0.8844
 6275TIP3    H218790   5.408   3.139   0.670 -0.8511 -0.4139 -0.8884
 6276TIP3   OH218791   2.534   0.267   1.761  0.1159 -0.0443 -0.1769
 6276TIP3    H118792   2.560   0.352   1.726  1.4142 -0.1886  0.3932
 6276TIP3    H218793   2.462   0.239   1.705 -0.2377  1.3592 -0.4601
 6277TIP3   OH218794   4.090   1.996   1.710 -0.0951  0.2476  0.8699
 6277TIP3    H118795   4.005   2.041   1.719 -0.3970 -0.4472  1.5431
 6277TIP3    H218796   4.113   1.969   1.799  1.1341  0.9375  0.7878
 6278TIP3   OH218797   4.123   1.466   5.568 -0.0548  0.3145 -0.4087
 6278TIP3    H118798   4.085   1.380   5.586 -0.3721  0.1697 -1.7111
 6278TIP3    H218799   4.216   1.448   5.554  0.0115  0.2910  0.0416
 6279TIP3   OH218800   6.502   6.725   1.915  0.3908 -0.1270  0.1740
 6279TIP3    H118801   6.585   6.764   1.887 -0.7793  1.0616 -1.8785
 6279TIP3    H218802   6.527   6.641   1.953  2.5180  0.0539 -0.6759
 6280TIP3   OH218803   3.662   2.294   3.599 -0.6124  0.0826 -0.1398
 6280TIP3    H118804   3.578   2.310   3.557  1.1104  1.5417 -3.4738
 6280TIP3    H218805   3.691   2.209   3.564  0.2264  0.6555 -0.9114
 6281TIP3   OH218806   1.618   3.014   4.383 -0.3168 -0.5309  0.4114
 6281TIP3    H118807   1.653   3.091   4.339 -0.7461 -0.9802 -0.7595
 6281TIP3    H218808   1.606   2.950   4.313 -2.7589 -0.6412  0.8560
 6282TIP3   OH218809   7.098   1.785   3.372  0.0273  0.3145 -0.5584
 6282TIP3    H118810   7.070   1.696   3.393 -1.8445  1.0496  0.3021
 6282TIP3    H218811   7.038   1.814   3.303 -1.0390  1.7285  0.8945
 6283TIP3   OH218812   5.560   4.390   2.019  0.2603  0.0797  0.1981
 6283TIP3    H118813   5.611   4.357   2.093  0.4821  0.7196  0.3330
 6283TIP3    H218814   5.494   4.322   2.004  0.9100 -0.5842  0.2613
 6284TIP3   OH218815   0.261   1.906   0.817 -0.0625  0.8827 -0.7465
 6284TIP3    H118816   0.289   1.821   0.782  0.1296  0.5717  0.1340
 6284TIP3    H218817   0.342   1.952   0.837 -0.1574  1.4714 -1.6392
 6285TIP3   OH218818   4.128   5.608   4.247  0.2947 -0.2604 -0.1466
 6285TIP3    H118819   4.182   5.543   4.291 -0.6700 -0.1772  1.2217
 6285TIP3    H218820   4.060   5.631   4.311  0.2675  1.6623 -0.7896
 6286TIP3   OH218821   6.947   4.319   0.422 -0.3163  0.3990  0.0433
 6286TIP3    H118822   6.938   4.406   0.383  2.8184  0.8637  0.0629
 6286TIP3    H218823   6.990   4.335   0.506  1.5555 -1.1864 -0.5326
 6287TIP3   OH218824   4.071   6.055   1.143  0.8152  0.2122 -0.2390
 6287TIP3    H118825   4.114   5.973   1.168  0.9959  0.0222 -1.1421
 6287TIP3    H218826   4.118   6.084   1.066 -0.6937 -0.0278 -1.2882
 6288TIP3   OH218827   4.579   0.701   5.595 -0.3048  0.0598  0.1405
 6288TIP3    H118828   4.520   0.630   5.620 -1.7063  1.2036  0.2242
 6288TIP3    H218829   4.632   0.717   5.673 -0.7652 -0.1381  0.5006
 6289TIP3   OH218830   0.787   6.285   1.486  0.7887  0.1199 -0.1720
 6289TIP3    H118831   0.760   6.363   1.437  0.4832 -1.1463 -2.1861
 6289TIP3    H218832   0.851   6.316   1.549 -1.0135  2.3358  0.7094
 6290TIP3   OH218833   3.117   3.531   2.926  0.1655 -0.3071  0.1087
 6290TIP3    H118834   3.129   3.581   3.008 -1.0756 -0.7003  0.5546
 6290TIP3    H218835   3.138   3.594   2.857  1.9112 -0.1596  0.7175
 6291TIP3   OH218836   3.334   2.483   4.888 -0.0705  0.1243  0.8456
 6291TIP3    H118837   3.287   2.472   4.970  1.7879 -0.7015  1.8638
 6291TIP3    H218838   3.332   2.397   4.846 -2.2411  0.8660 -0.7452
 6292TIP3   OH218839   1.720   6.769   0.733 -0.2464  0.0431  0.1888
 6292TIP3    H118840   1.678   6.701   0.786 -0.3250 -0.9187 -1.0346
 6292TIP3    H218841   1.754   6.721   0.657  0.2272  1.2952 -0.4089
 6293TIP3   OH218842   0.952   0.090   1.159 -0.5101  0.0037 -0.2611
 6293TIP3    H118843   0.864   0.095   1.196 -1.2952  1.0956 -2.1055
 6293TIP3    H218844   0.974  -0.003   1.163 -1.1874 -0.1170  1.4197
 6294TIP3   OH218845   0.649   4.273   1.017  0.2650 -0.3442 -0.8984
 6294TIP3    H118846   0.567   4.322   1.013 -0.1385 -1.0127 -1.0712
 6294TIP3    H218847   0.662   4.242   0.927  0.1564 -1.1158 -0.6500
 6295TIP3   OH218848   6.997   3.194   2.198  0.0465 -0.2548  0.2829
 6295TIP3    H118849   7.006   3.146   2.116 -0.6370  1.2579 -0.7104
 6295TIP3    H218850   7.069   3.162   2.253  1.5641 -0.0778 -1.5195
 6296TIP3   OH218851   4.131   0.157   0.073  0.4721 -0.0263 -0.3176
 6296TIP3    H118852   4.165   0.247   0.073  2.1447 -0.6144  0.1608
 6296TIP3    H218853   4.039   0.166   0.051  0.6977  1.7766 -0.6865
 6297TIP3   OH218854   0.049   5.184   5.833 -0.0422  0.3817 -0.1483
 6297TIP3    H118855   0.036   5.161   5.925  0.3609 -1.6817 -0.5474
 6297TIP3    H218856   0.031   5.103   5.786  0.4007  1.2269 -1.8423
 6298TIP3   OH218857   1.170   4.500   4.311  0.4300  0.8824 -0.5502
 6298TIP3    H118858   1.107   4.446   4.264  2.0603 -1.3577 -0.3433
 6298TIP3    H218859   1.117   4.553   4.370 -1.3014 -0.7200 -0.5575
 6299TIP3   OH218860   0.398   4.357   3.329 -0.8354 -0.4923 -0.3372
 6299TIP3    H118861   0.465   4.291   3.350 -0.9172 -0.4233  0.1468
 6299TIP3    H218862   0.435   4.440   3.360 -0.5048 -0.2199 -1.4197
 6300TIP3   OH218863   5.551   0.643   4.098  0.5199  0.1964  0.5125
 6300TIP3    H118864   5.511   0.589   4.166 -0.5458  1.5184  0.9916
 6300TIP3    H218865   5.568   0.582   4.026 -2.1044 -0.5366  0.3970
 6301TIP3   OH218866   3.853   4.162   1.142  0.0284  0.0963 -0.0682
 6301TIP3    H118867   3.763   4.132   1.136  0.0736 -0.0703  0.0677
 6301TIP3    H218868   3.852   4.229   1.211 -0.0927  0.4874 -0.4459
 6302TIP3   OH218869   1.234   2.379   1.025  0.5139  0.3396  0.0139
 6302TIP3    H118870   1.266   2.289   1.023 -0.1555  0.0964 -1.3924
 6302TIP3    H218871   1.300   2.428   1.073 -0.3518 -1.3383  3.1747
 6303TIP3   OH218872   0.153   5.942   5.364 -0.7937  0.0530 -0.5941
 6303TIP3    H118873   0.143   5.870   5.302  0.4823 -0.4628 -0.2469
 6303TIP3    H218874   0.229   5.991   5.332  1.3315 -1.4952  1.6530
 6304TIP3   OH218875   6.461   4.818   5.525  0.6618  0.3505  0.0469
 6304TIP3    H118876   6.405   4.812   5.603 -1.0681  0.9290 -1.0794
 6304TIP3    H218877   6.463   4.730   5.489 -1.4910  0.7132 -1.1399
 6305TIP3   OH218878   6.544   3.410   0.987 -0.6494 -0.3916  0.2838
 6305TIP3    H118879   6.460   3.437   0.950 -0.0239  0.8004 -0.3272
 6305TIP3    H218880   6.599   3.392   0.911  0.3872  1.2271  0.5977
 6306TIP3   OH218881   3.811   4.194   2.653  0.3685  0.1000  0.3671
 6306TIP3    H118882   3.878   4.239   2.705  0.4223  0.6865 -0.1966
 6306TIP3    H218883   3.735   4.188   2.712  2.2955 -5.0882  2.9839
 6307TIP3   OH218884   3.668   2.641   1.744  0.0869  0.7320 -0.1937
 6307TIP3    H118885   3.684   2.706   1.676  3.0931 -0.7081 -1.0360
 6307TIP3    H218886   3.754   2.621   1.780 -1.0659 -0.7230  2.0078
 6308TIP3   OH218887   5.025   0.529   4.860  0.2387 -0.1485  0.3671
 6308TIP3    H118888   5.107   0.566   4.894 -0.2614  0.6203  0.7787
 6308TIP3    H218889   4.977   0.500   4.938 -1.1699  2.1449  0.4473
 6309TIP3   OH218890   2.408   6.327   0.399 -0.5241 -0.7992 -0.2062
 6309TIP3    H118891   2.415   6.339   0.494  0.7561 -0.0384 -0.3643
 6309TIP3    H218892   2.360   6.245   0.388 -1.4215 -0.4713  1.0870
 6310TIP3   OH218893   3.706   3.910   5.454 -0.4899  0.3333  0.1503
 6310TIP3    H118894   3.684   3.958   5.374  1.2155  1.0598  0.0800
 6310TIP3    H218895   3.779   3.853   5.428 -0.5398 -0.1186  0.9639
 6311TIP3   OH218896   3.884   4.050   2.902  0.1079 -0.6487  0.4371
 6311TIP3    H118897   3.900   4.124   2.844 -1.0977 -0.4325  0.3619
 6311TIP3    H218898   3.874   4.089   2.989 -2.5276 -0.4420  0.1190
 6312TIP3   OH218899   5.427   3.697   1.539  0.1781 -0.2977  0.1658
 6312TIP3    H118900   5.363   3.768   1.551 -0.4314 -0.5584 -1.3374
 6312TIP3    H218901   5.398   3.629   1.600  0.3576  0.4581  1.1200
 6313TIP3   OH218902   2.072   2.389   0.314  0.1510  0.0692  0.4477
 6313TIP3    H118903   2.131   2.401   0.240 -0.6420  1.0633 -0.0617
 6313TIP3    H218904   2.077   2.296   0.335  1.1793 -0.0281 -0.1752
 6314TIP3   OH218905   5.853   2.385   5.521  0.0407  0.6605  0.5529
 6314TIP3    H118906   5.835   2.336   5.602 -0.7488 -0.8218 -0.4750
 6314TIP3    H218907   5.771   2.381   5.472  0.7390  0.8523 -0.6618
 6315TIP3   OH218908   2.872   3.888   1.147 -0.0598 -0.8083 -0.5271
 6315TIP3    H118909   2.778   3.886   1.130 -0.4354  1.1711  0.9517
 6315TIP3    H218910   2.903   3.965   1.099  0.5933 -0.8181 -0.1267
 6316TIP3   OH218911   5.721   6.669   5.694  0.5511 -0.3751 -0.8531
 6316TIP3    H118912   5.628   6.669   5.672  0.5361 -1.1371 -0.8309
 6316TIP3    H218913   5.727   6.614   5.772  0.9652  0.0154 -0.6114
 6317TIP3   OH218914   6.872   0.907   3.090  0.4340 -0.1191 -0.6809
 6317TIP3    H118915   6.951   0.854   3.099  3.1316  3.5655 -0.3591
 6317TIP3    H218916   6.868   0.958   3.171  0.9565  3.6174 -2.7824
 6318TIP3   OH218917   0.983   1.060   0.707  0.4493  0.5714  0.2244
 6318TIP3    H118918   0.898   1.090   0.739 -0.4733 -2.6502  1.2437
 6318TIP3    H218919   1.044   1.078   0.779 -0.3733 -1.1463  1.4185
 6319TIP3   OH218920   3.306   1.910   4.186 -0.4404  0.1056  0.5421
 6319TIP3    H118921   3.218   1.879   4.166  0.0260 -0.6035 -0.5066
 6319TIP3    H218922   3.324   1.977   4.120 -0.9660  1.8112  2.0370
 6320TIP3   OH218923   3.492   1.848   5.235  0.4181 -0.8526 -0.3963
 6320TIP3    H118924   3.587   1.855   5.238  0.4069 -1.0627  0.7027
 6320TIP3    H218925   3.474   1.756   5.255 -0.0225 -0.7906 -0.4948
 6321TIP3   OH218926   2.402   2.939   3.230  0.7861 -0.1626  0.2987
 6321TIP3    H118927   2.451   2.960   3.310  0.5393 -0.6781  0.5905
 6321TIP3    H218928   2.434   2.852   3.204  2.0376  0.6755 -1.0825
 6322TIP3   OH218929   6.831   3.354   3.634 -0.6623 -0.3629 -0.5389
 6322TIP3    H118930   6.787   3.277   3.599  1.1884 -0.7609 -2.1565
 6322TIP3    H218931   6.883   3.387   3.561  1.6190  0.1347  1.2052
 6323TIP3   OH218932   0.890   2.992   2.731 -0.4063 -0.1534  0.0302
 6323TIP3    H118933   0.927   3.055   2.670  0.5090  0.1169  0.8294
 6323TIP3    H218934   0.830   2.939   2.679  1.0091 -0.5113 -1.2849
 6324TIP3   OH218935   0.536   6.614   5.226  0.6641  0.2201 -0.3958
 6324TIP3    H118936   0.598   6.626   5.154  0.3294  1.1940 -0.5466
 6324TIP3    H218937   0.581   6.651   5.303  0.3955  0.6545 -0.4440
 6325TIP3   OH218938   1.939   5.795   4.224  0.3763  0.2683  0.3586
 6325TIP3    H118939   1.979   5.715   4.192 -1.0015 -0.8795  1.3908
 6325TIP3    H218940   2.013   5.847   4.257  1.3222 -0.3978 -0.6434
 6326TIP3   OH218941   5.983   5.468   1.167  0.4864  0.4401  0.0296
 6326TIP3    H118942   6.020   5.463   1.255 -0.4161  0.8890  0.4416
 6326TIP3    H218943   6.060   5.476   1.110  1.1692 -1.3558  0.6228
 6327TIP3   OH218944   0.440   3.118   5.463 -0.1116  0.0059  0.2048
 6327TIP3    H118945   0.442   3.202   5.417 -1.7522  0.1014  0.2420
 6327TIP3    H218946   0.359   3.076   5.433 -0.0427 -0.9368  1.2501
 6328TIP3   OH218947   4.693   5.179   1.142 -0.3534 -0.7725 -0.0200
 6328TIP3    H118948   4.700   5.275   1.141 -0.5096 -0.7332  1.3776
 6328TIP3    H218949   4.781   5.149   1.165 -0.7367 -0.8756  1.4013
 6329TIP3   OH218950   0.991   5.307   1.683 -0.6228 -0.5174 -0.3698
 6329TIP3    H118951   0.942   5.238   1.639 -2.0196  0.5726 -0.6110
 6329TIP3    H218952   0.932   5.383   1.682  0.1551  0.1710  1.4475
 6330TIP3   OH218953   6.075   5.222   0.165  0.4447 -0.0456  0.0181
 6330TIP3    H118954   5.992   5.191   0.128 -0.0290  0.5114  0.6045
 6330TIP3    H218955   6.052   5.300   0.215  1.4414  0.5818 -0.4551
 6331TIP3   OH218956   3.051   3.186   4.781 -0.2421 -0.5398  0.0384
 6331TIP3    H118957   3.041   3.105   4.831  0.8775  0.9620  2.9477
 6331TIP3    H218958   2.967   3.230   4.789 -0.6042 -1.0511 -0.8842
 6332TIP3   OH218959   6.181   2.103   4.769 -0.1080  0.2484  0.0989
 6332TIP3    H118960   6.161   2.194   4.790 -0.3178 -0.0209  1.1464
 6332TIP3    H218961   6.257   2.107   4.711  0.3262  1.0661  0.7115
 6333TIP3   OH218962   1.763   4.253   5.299  0.4455 -0.2278 -0.0269
 6333TIP3    H118963   1.835   4.312   5.321  0.0357  0.0531  0.5835
 6333TIP3    H218964   1.803   4.186   5.243  1.0301  0.3090 -0.2574
 6334TIP3   OH218965   0.167   1.831   1.092  0.4703 -0.1958  0.3359
 6334TIP3    H118966   0.174   1.871   1.005 -0.9165 -1.3407 -0.3390
 6334TIP3    H218967   0.188   1.739   1.078  0.5084 -0.3401  1.2757
 6335TIP3   OH218968   4.712   1.479   4.430 -0.0076  0.1880  0.3402
 6335TIP3    H118969   4.725   1.565   4.391 -0.4864  0.5906  1.0449
 6335TIP3    H218970   4.785   1.426   4.397 -1.3486 -0.0558 -2.5404
 6336TIP3   OH218971   4.632   6.218   0.915 -0.5847  0.2877  0.3051
 6336TIP3    H118972   4.635   6.173   1.000  0.1164  1.8513  1.1372
 6336TIP3    H218973   4.572   6.291   0.928 -0.5652  0.4754 -0.5838
 6337TIP3   OH218974   1.964   5.348   4.475 -0.2509  0.4695  0.0293
 6337TIP3    H118975   1.955   5.390   4.389  3.0586  1.8235  0.1847
 6337TIP3    H218976   1.999   5.261   4.455 -0.2300  0.4935 -0.0410
 6338TIP3   OH218977   1.679   5.448   3.344  0.1319  0.5180  0.3304
 6338TIP3    H118978   1.669   5.447   3.440 -1.2239  2.4072  0.2798
 6338TIP3    H218979   1.638   5.531   3.317  1.3089  0.4616 -1.8137
 6339TIP3   OH218980   7.173   5.625   4.856 -0.4678 -0.4833  0.2050
 6339TIP3    H118981   7.187   5.535   4.826  1.1292  0.1354 -1.0962
 6339TIP3    H218982   7.190   5.622   4.950 -0.5516 -1.5560  0.1967
 6340TIP3   OH218983   6.009   3.390   0.697 -0.3451 -0.5125 -0.4763
 6340TIP3    H118984   5.933   3.336   0.677  0.1723 -0.2873 -3.5184
 6340TIP3    H218985   6.083   3.329   0.696 -0.1693 -0.3094 -0.1690
 6341TIP3   OH218986   3.799   2.145   2.049  0.4210 -0.5708 -0.0562
 6341TIP3    H118987   3.707   2.153   2.021  0.0667  0.2445  1.2343
 6341TIP3    H218988   3.796   2.088   2.126  0.7102  0.9215  1.1165
 6342TIP3   OH218989   3.247   5.923   5.645  0.3461 -0.2576 -0.0460
 6342TIP3    H118990   3.296   5.841   5.638 -0.2938 -0.5824 -1.0028
 6342TIP3    H218991   3.174   5.902   5.704  1.2042  0.1749  1.2300
 6343TIP3   OH218992   5.726   2.545   3.966 -0.1753 -0.1361  0.1596
 6343TIP3    H118993   5.638   2.555   3.930  0.3172 -0.7917 -1.2945
 6343TIP3    H218994   5.775   2.500   3.897  1.2137 -0.0796  1.0776
 6344TIP3   OH218995   7.124   6.272   1.206  0.0852  0.2835  0.1110
 6344TIP3    H118996   7.102   6.365   1.213 -0.6784  0.2312 -1.2457
 6344TIP3    H218997   7.060   6.229   1.263 -1.6157  0.3733 -1.6335
 6345TIP3   OH218998   5.602   5.905   2.520  0.1909 -0.2229 -0.3902
 6345TIP3    H118999   5.639   5.850   2.451  1.1010  1.1170 -1.0256
 6345TIP3    H219000   5.667   5.974   2.533 -1.1036  0.9767  0.0222
 6346TIP3   OH219001   2.599   3.920   1.113 -0.2901 -0.0861 -0.1647
 6346TIP3    H119002   2.565   3.994   1.163  0.6220  2.3744 -2.9636
 6346TIP3    H219003   2.521   3.876   1.079 -0.9352 -1.7449  3.0180
 6347TIP3   OH219004   2.497   0.542   5.379 -0.0867  0.0068 -0.2677
 6347TIP3    H119005   2.535   0.618   5.423  0.4199  0.1731 -0.9827
 6347TIP3    H219006   2.470   0.574   5.293  0.3791 -0.6810 -0.6848
 6348TIP3   OH219007   2.224   3.642   4.207 -0.0628  0.2766  0.4325
 6348TIP3    H119008   2.266   3.728   4.202  1.4255 -0.3331  1.7702
 6348TIP3    H219009   2.286   3.588   4.255 -0.8062 -1.6685 -0.7119
 6349TIP3   OH219010   0.068   3.776   3.897 -0.3688  0.2718 -0.0867
 6349TIP3    H119011  -0.017   3.737   3.921  1.0717 -3.3009 -0.2631
 6349TIP3    H219012   0.078   3.757   3.804  0.7773  0.3529  0.0113
 6350TIP3   OH219013   6.208   4.348   4.775  0.1748 -0.6317  0.2177
 6350TIP3    H119014   6.131   4.333   4.720  0.3572 -0.0920 -0.1908
 6350TIP3    H219015   6.257   4.266   4.771 -0.0253 -0.7381 -0.0895
 6351TIP3   OH219016   0.225   6.366   1.624 -0.1672 -0.0292  0.1341
 6351TIP3    H119017   0.189   6.430   1.562  0.5132  1.0389  0.8177
 6351TIP3    H219018   0.309   6.342   1.587 -0.5470 -0.7646 -0.2696
 6352TIP3   OH219019   4.787   1.188   4.192 -0.0125 -0.0757 -0.3314
 6352TIP3    H119020   4.847   1.259   4.215 -1.4924  0.9402  0.5930
 6352TIP3    H219021   4.813   1.162   4.104  3.8173 -1.8765  1.1151
 6353TIP3   OH219022   0.380   4.802   5.754  0.3683 -0.0781  0.1315
 6353TIP3    H119023   0.461   4.766   5.717 -0.3442 -0.7356 -0.8249
 6353TIP3    H219024   0.374   4.890   5.716 -0.5584 -0.8808 -1.7238
 6354TIP3   OH219025   5.191   1.623   1.352  0.4126 -0.1036 -0.0073
 6354TIP3    H119026   5.226   1.705   1.316  0.0830  0.7188  1.4347
 6354TIP3    H219027   5.109   1.609   1.305 -0.4027  1.3568  0.8908
 6355TIP3   OH219028   3.836   2.444   2.291 -0.9132 -0.1543 -0.3518
 6355TIP3    H119029   3.741   2.452   2.294 -0.8872 -0.0423  1.0272
 6355TIP3    H219030   3.856   2.382   2.361  0.0876  0.5527  0.0054
 6356TIP3   OH219031   0.789   4.035   2.242 -0.4473 -0.4323 -0.0608
 6356TIP3    H119032   0.703   4.006   2.212  0.0035 -0.7098 -1.1332
 6356TIP3    H219033   0.778   4.128   2.259 -0.7493 -0.2756 -1.0433
 6357TIP3   OH219034   2.710   0.504   0.968 -0.6437 -0.3054  0.0194
 6357TIP3    H119035   2.719   0.566   0.896  0.3327 -1.1935 -0.6668
 6357TIP3    H219036   2.692   0.420   0.925  1.4850 -1.1590  0.6784
 6358TIP3   OH219037   7.054   4.473   2.121 -0.1969 -0.1898  0.7340
 6358TIP3    H119038   6.992   4.475   2.195 -0.6709 -0.1950  0.3397
 6358TIP3    H219039   7.140   4.476   2.163 -0.4530 -0.5606  1.3057
 6359TIP3   OH219040   4.974   1.473   5.655  0.6270 -0.1750  0.0463
 6359TIP3    H119041   4.883   1.499   5.670  0.4133  0.7922 -2.4229
 6359TIP3    H219042   5.024   1.523   5.718 -0.4394  0.4409  0.4261
 6360TIP3   OH219043   5.223   5.500   2.170  0.4035  0.4425 -0.0430
 6360TIP3    H119044   5.293   5.435   2.162 -0.4667 -0.7002  1.1289
 6360TIP3    H219045   5.243   5.566   2.104  1.8115 -0.5697 -0.6670
 6361TIP3   OH219046   3.143   5.100   2.797 -0.2642 -0.7304  1.2353
 6361TIP3    H119047   3.229   5.090   2.839  0.8687  0.4992 -0.6293
 6361TIP3    H219048   3.097   5.164   2.852  0.3616 -0.7288  1.7679
 6362TIP3   OH219049   5.990   2.395   0.144 -0.0226  0.4348  0.0133
 6362TIP3    H119050   6.019   2.472   0.096 -2.9588  0.6990 -1.5723
 6362TIP3    H219051   6.035   2.321   0.103  1.3108  1.1056  0.2384
 6363TIP3   OH219052   3.659   0.715   4.185 -0.2834  0.0556  0.2456
 6363TIP3    H119053   3.658   0.672   4.270 -0.4997 -1.6306 -0.5736
 6363TIP3    H219054   3.685   0.805   4.204  1.5955 -0.7634  1.8800
 6364TIP3   OH219055   1.102   4.887   0.534 -0.0893  0.4074  0.4411
 6364TIP3    H119056   1.115   4.828   0.608 -0.1667 -1.6737 -1.1297
 6364TIP3    H219057   1.010   4.875   0.509 -0.0287  0.9807 -0.0904
 6365TIP3   OH219058   2.637   3.849   5.184  0.2829 -0.2470 -0.3418
 6365TIP3    H119059   2.654   3.919   5.247  1.8822 -0.4812 -0.4657
 6365TIP3    H219060   2.724   3.826   5.150 -0.3312 -1.5517 -1.0945
 6366TIP3   OH219061   4.842   3.929   5.480 -0.0821 -0.1076 -0.3063
 6366TIP3    H119062   4.846   4.024   5.489 -0.1659  0.0090 -1.4059
 6366TIP3    H219063   4.890   3.896   5.556  0.3917  0.8145 -0.1895
 6367TIP3   OH219064   3.231   1.330   5.673  0.1147  0.4219  0.1545
 6367TIP3    H119065   3.275   1.304   5.754 -0.0470 -0.7469 -0.1169
 6367TIP3    H219066   3.139   1.309   5.688  0.3214 -1.4914 -0.9536
 6368TIP3   OH219067   5.196   2.127   3.445  0.4977 -0.1103  0.1810
 6368TIP3    H119068   5.209   2.205   3.500  0.5097  0.1974 -0.2524
 6368TIP3    H219069   5.123   2.151   3.388  1.8525  0.3908 -1.4060
 6369TIP3   OH219070   5.681   4.423   1.769 -0.0307 -0.1409  0.9831
 6369TIP3    H119071   5.756   4.480   1.785 -1.0780  1.2075  1.2568
 6369TIP3    H219072   5.636   4.419   1.853  1.4649 -3.6666  1.7895
 6370TIP3   OH219073   4.989   0.410   5.278 -0.2325  0.5189 -0.1061
 6370TIP3    H119074   5.023   0.337   5.226 -0.3103  0.3232  0.1133
 6370TIP3    H219075   4.912   0.373   5.322  0.5661  0.3124  1.1459
 6371TIP3   OH219076   4.496   3.279   5.550  0.5353 -0.1287  0.1716
 6371TIP3    H119077   4.548   3.223   5.493 -0.3501 -0.4327 -0.3622
 6371TIP3    H219078   4.502   3.238   5.637  0.6406 -0.5361 -0.0273
 6372TIP3   OH219079   6.703   5.122   2.113  0.0209 -0.1559  0.3758
 6372TIP3    H119080   6.616   5.095   2.082  0.5697  0.6523 -2.1182
 6372TIP3    H219081   6.749   5.040   2.128  0.0479 -0.7034 -2.1874
 6373TIP3   OH219082   4.275   5.652   4.978  0.0980 -0.0535 -0.8653
 6373TIP3    H119083   4.351   5.688   5.025 -0.3114 -0.5134  0.1873
 6373TIP3    H219084   4.312   5.587   4.919  0.6594  0.7804 -1.4624
 6374TIP3   OH219085   0.117   0.149   2.542 -0.0974  0.1597  0.3339
 6374TIP3    H119086   0.094   0.061   2.572 -1.2088 -0.5439 -2.2738
 6374TIP3    H219087   0.210   0.143   2.521 -0.6153 -1.1553 -1.9142
 6375TIP3   OH219088   4.921   3.049   3.640 -0.2925 -0.2989 -0.1964
 6375TIP3    H119089   4.973   3.063   3.561 -0.3530  0.4085 -0.1220
 6375TIP3    H219090   4.874   2.967   3.624 -2.8354  1.4226 -2.3403
 6376TIP3   OH219091   0.872   2.886   1.332  0.0691  0.4841 -0.0750
 6376TIP3    H119092   0.781   2.891   1.305  0.4445  1.7622 -1.2145
 6376TIP3    H219093   0.898   2.796   1.313 -1.3511 -0.3984  1.7714
 6377TIP3   OH219094   6.712   0.854   4.767 -0.0190 -0.1956  0.5613
 6377TIP3    H119095   6.732   0.898   4.684 -1.1782 -0.3553  0.1881
 6377TIP3    H219096   6.671   0.921   4.821  0.7981 -0.0726  1.0553
 6378TIP3   OH219097   1.488   0.173   0.138 -0.7576  0.0418  0.2753
 6378TIP3    H119098   1.514   0.089   0.099 -1.8246 -0.5830  0.8719
 6378TIP3    H219099   1.558   0.192   0.201 -0.6442 -0.5348  0.3304
 6379TIP3   OH219100   0.578   4.384   1.715  0.4118 -0.0335  0.0488
 6379TIP3    H119101   0.541   4.460   1.671  2.0219  0.4406 -0.5568
 6379TIP3    H219102   0.537   4.308   1.672  0.4295  0.4566 -0.8509
 6380TIP3   OH219103   0.349   0.556   3.993 -0.1741 -0.3791 -0.2139
 6380TIP3    H119104   0.352   0.609   4.072  1.7617  0.3561 -0.7246
 6380TIP3    H219105   0.373   0.616   3.922  0.5180 -1.5504 -1.0171
 6381TIP3   OH219106   5.971   0.798   3.469 -0.6606  0.1206  0.2656
 6381TIP3    H119107   5.978   0.854   3.391 -0.2901 -1.2087 -0.6958
 6381TIP3    H219108   5.951   0.711   3.434  0.9863 -0.8279  1.5356
 6382TIP3   OH219109   0.160   5.386   3.026  0.2732 -0.4648  0.5877
 6382TIP3    H119110   0.178   5.361   3.117 -1.6885 -1.3387  0.7907
 6382TIP3    H219111   0.247   5.400   2.988  1.2456 -1.8935  2.0979
 6383TIP3   OH219112   4.142   4.662   4.076  0.0643 -0.4053 -0.8079
 6383TIP3    H119113   4.059   4.622   4.051 -0.0303 -0.1881 -0.8476
 6383TIP3    H219114   4.137   4.752   4.042 -0.7586  0.4432  1.4107
 6384TIP3   OH219115   0.151   3.454   1.834 -0.0518  0.0396 -0.6457
 6384TIP3    H119116   0.089   3.523   1.810 -0.7186  0.6460  2.3360
 6384TIP3    H219117   0.228   3.502   1.866  0.0186 -0.6085  0.1799
 6385TIP3   OH219118   3.653   5.548   5.180  0.2747  0.3560  0.6774
 6385TIP3    H119119   3.737   5.579   5.146 -0.1755  1.5797  0.6342
 6385TIP3    H219120   3.668   5.541   5.275  0.3349  0.9401  0.7213
 6386TIP3   OH219121   5.741   3.715   0.722 -0.0097  0.8091 -0.2959
 6386TIP3    H119122   5.664   3.667   0.692  0.6160 -0.9037  0.6439
 6386TIP3    H219123   5.721   3.738   0.813 -0.0337  1.7818 -0.5378
 6387TIP3   OH219124   3.279   6.305   3.776 -0.0496 -0.6472  0.3259
 6387TIP3    H119125   3.218   6.264   3.837 -1.3570  0.3202 -0.2682
 6387TIP3    H219126   3.222   6.351   3.713  1.2979  0.9371  0.1912
 6388TIP3   OH219127   6.327   4.136   3.971 -0.4965  0.1172  0.5460
 6388TIP3    H119128   6.379   4.179   4.039 -0.4040  0.9577 -0.0539
 6388TIP3    H219129   6.388   4.122   3.899 -1.2156  1.6924 -0.4224
 6389TIP3   OH219130   6.058   2.359   2.102  0.0147 -0.1940  0.0146
 6389TIP3    H119131   6.094   2.343   2.189  1.1743  1.1849 -0.1769
 6389TIP3    H219132   6.033   2.272   2.070  0.5467 -0.8434  1.3011
 6390TIP3   OH219133   4.761   6.684   3.851  0.3212  0.5483 -0.3752
 6390TIP3    H119134   4.687   6.745   3.847 -0.5191 -0.3450  1.1592
 6390TIP3    H219135   4.738   6.614   3.790 -0.0872  0.2981  0.0615
 6391TIP3   OH219136   0.896   6.528   2.448  0.1592  0.4139 -0.4233
 6391TIP3    H119137   0.821   6.532   2.506  0.3052 -1.9506  0.0477
 6391TIP3    H219138   0.898   6.437   2.418  2.3117  0.6285 -1.1059
 6392TIP3   OH219139   2.225   3.629   5.303  0.5506 -0.6468  0.2198
 6392TIP3    H119140   2.222   3.672   5.217  1.6727 -0.1668  0.4021
 6392TIP3    H219141   2.313   3.647   5.336 -0.1268 -0.1332  1.8431
 6393TIP3   OH219142   4.657   6.212   1.572 -0.2170  0.4810  0.3159
 6393TIP3    H119143   4.598   6.275   1.532  0.5748 -0.6083 -2.8539
 6393TIP3    H219144   4.712   6.264   1.631  0.3573  2.8207 -2.1193
 6394TIP3   OH219145   7.073   2.111   3.117 -0.0563  0.0526  0.3016
 6394TIP3    H119146   7.141   2.048   3.139 -0.6858 -0.1011  1.8980
 6394TIP3    H219147   7.028   2.072   3.042  2.2502  0.6701 -1.5357
 6395TIP3   OH219148   2.691   2.193   4.703 -0.2748 -0.2402  0.2268
 6395TIP3    H119149   2.750   2.180   4.629  0.0354  2.0624  0.0097
 6395TIP3    H219150   2.650   2.278   4.687 -2.7783 -1.2045  0.9955
 6396TIP3   OH219151   2.377   4.173   3.039 -0.1402  0.4042  0.4891
 6396TIP3    H119152   2.435   4.225   2.983  0.0291 -1.1573 -0.8643
 6396TIP3    H219153   2.296   4.164   2.989  0.0677 -1.1524  0.3639
 6397TIP3   OH219154   4.722   0.776   2.199  0.4178  0.6632 -0.2903
 6397TIP3    H119155   4.702   0.870   2.194  0.3297  0.8573  2.5298
 6397TIP3    H219156   4.817   0.771   2.195  0.5031  1.0278  0.9163
 6398TIP3   OH219157   1.496   1.669   3.617  0.5732  0.1320  0.0177
 6398TIP3    H119158   1.538   1.754   3.602 -0.3935  0.4100 -1.2866
 6398TIP3    H219159   1.447   1.680   3.699  1.9893  0.1866  0.8968
 6399TIP3   OH219160   2.722   2.463   1.312 -0.3932  0.1778 -0.0520
 6399TIP3    H119161   2.630   2.438   1.304 -0.7353  1.2470  0.2630
 6399TIP3    H219162   2.719   2.556   1.335  0.7887  0.5468 -1.2647
 6400TIP3   OH219163   3.758   5.885   3.030 -0.1821  0.1282 -0.1433
 6400TIP3    H119164   3.746   5.832   2.951 -1.9183 -1.3526  1.0608
 6400TIP3    H219165   3.786   5.823   3.097 -1.7849  0.7641  1.1733
 6401TIP3   OH219166   1.364   3.302   0.306  0.5601 -0.5768  0.4558
 6401TIP3    H119167   1.292   3.240   0.298 -0.6915  0.4422  2.8811
 6401TIP3    H219168   1.323   3.388   0.296  1.4206  0.0196  1.7712
 6402TIP3   OH219169   3.190   1.192   0.991  0.1434 -0.3497  0.0485
 6402TIP3    H119170   3.151   1.208   0.905  3.1087  0.4272 -1.3071
 6402TIP3    H219171   3.168   1.270   1.042 -3.4468 -1.7267  0.8669
 6403TIP3   OH219172   1.962   1.867   4.774  0.0045  0.1487 -0.1499
 6403TIP3    H119173   2.021   1.831   4.841 -0.7104  1.0089  0.9656
 6403TIP3    H219174   1.928   1.789   4.730 -0.1136 -0.4910  1.0036
 6404TIP3   OH219175   3.189   4.450   3.335 -0.6558 -0.0437  0.1884
 6404TIP3    H119176   3.155   4.513   3.272 -1.9072 -1.5922 -0.7881
 6404TIP3    H219177   3.119   4.440   3.399  0.4682  1.2535  1.6646
 6405TIP3   OH219178   4.103   1.571   5.234 -0.0769 -0.2539 -0.1080
 6405TIP3    H119179   4.095   1.666   5.246  0.3674  0.1039 -2.3681
 6405TIP3    H219180   4.188   1.549   5.273  0.1576  0.3893 -0.2452
 6406TIP3   OH219181   2.095   0.174   2.110 -0.4715  0.0132 -0.1553
 6406TIP3    H119182   2.061   0.186   2.199  0.6599 -0.4078  0.3506
 6406TIP3    H219183   2.064   0.251   2.063  0.1103  1.0094  1.0006
 6407TIP3   OH219184   6.209   2.385   2.371  0.1606  0.2763  0.1487
 6407TIP3    H119185   6.224   2.479   2.387  0.0158  0.2679  0.3396
 6407TIP3    H219186   6.297   2.347   2.371  0.1474  0.1222  1.9558
 6408TIP3   OH219187   5.823   1.018   3.537  0.2836 -0.7480  0.1768
 6408TIP3    H119188   5.880   0.942   3.532  0.9085 -0.3687  1.2400
 6408TIP3    H219189   5.827   1.046   3.629  1.3361  1.5031 -0.4811
 6409TIP3   OH219190   6.822   3.258   4.774  0.4803 -0.0912  0.1969
 6409TIP3    H119191   6.812   3.259   4.679  1.7131  2.4854  0.0261
 6409TIP3    H219192   6.773   3.180   4.802 -2.2515  0.5612 -2.2753
 6410TIP3   OH219193   1.202   3.651   2.137 -0.0620  0.2540  0.1723
 6410TIP3    H119194   1.186   3.669   2.230  0.1420 -0.8683  0.4510
 6410TIP3    H219195   1.192   3.735   2.094  3.7042  1.7130  1.6969
 6411TIP3   OH219196   4.616   6.241   4.007  0.8013  0.5445 -0.2024
 6411TIP3    H119197   4.575   6.314   3.960  0.8828  0.5342 -0.2908
 6411TIP3    H219198   4.709   6.262   4.007  1.0055 -0.2290 -1.4308
 6412TIP3   OH219199   4.508   1.921   5.035  0.2164  0.0482  0.8855
 6412TIP3    H119200   4.507   2.014   5.056  0.8755  0.3417 -0.3170
 6412TIP3    H219201   4.457   1.913   4.955  0.3776 -0.5932  0.8389
 6413TIP3   OH219202   7.063   2.213   0.252 -0.7368 -0.0923  0.2951
 6413TIP3    H119203   6.979   2.167   0.259 -1.8184  1.4260 -1.7180
 6413TIP3    H219204   7.044   2.302   0.279  0.0120  0.4707 -0.9595
 6414TIP3   OH219205   2.550   6.791   5.745 -0.2978  0.2532  0.0399
 6414TIP3    H119206   2.622   6.792   5.682  0.1900 -0.6454  0.5636
 6414TIP3    H219207   2.593   6.785   5.830 -0.9743  0.5324  0.4065
 6415TIP3   OH219208   2.235   5.996   5.586 -0.1387  0.3536  0.1355
 6415TIP3    H119209   2.293   6.061   5.625 -0.0067  0.3359 -0.0260
 6415TIP3    H219210   2.290   5.918   5.576 -0.4570  0.0361  0.8587
 6416TIP3   OH219211   2.378   6.073   3.375  0.0780  0.5326 -0.1960
 6416TIP3    H119212   2.420   6.110   3.453 -0.4176  1.4891 -0.3625
 6416TIP3    H219213   2.390   5.979   3.384  2.9029  0.7544 -0.6135
 6417TIP3   OH219214   6.953   1.905   0.046 -0.2383 -0.1801 -0.1325
 6417TIP3    H119215   6.961   1.853  -0.034  1.6683  0.2693 -0.2733
 6417TIP3    H219216   6.874   1.958   0.031  0.0776 -0.0981 -1.7151
 6418TIP3   OH219217   2.650   2.896   5.421  0.0071 -0.5631  0.4097
 6418TIP3    H119218   2.676   2.830   5.486 -0.3048 -0.8137  0.2779
 6418TIP3    H219219   2.567   2.864   5.386 -0.2752  0.0330  0.5324
 6419TIP3   OH219220   3.415   4.454   3.171 -0.6814  0.0922  0.0486
 6419TIP3    H119221   3.364   4.449   3.252 -1.2522  2.9028 -0.0473
 6419TIP3    H219222   3.379   4.529   3.124 -1.6429 -2.4783 -3.7691
 6420TIP3   OH219223   5.938   2.334   4.080 -0.2798 -0.0834  0.5929
 6420TIP3    H119224   5.960   2.420   4.044 -0.0651 -0.0401  0.8251
 6420TIP3    H219225   5.846   2.321   4.056 -0.1486 -0.0401  0.0713
 6421TIP3   OH219226   3.739   0.732   3.057  0.1327  0.6033  0.2950
 6421TIP3    H119227   3.767   0.796   3.122  0.0867  0.4764  0.4406
 6421TIP3    H219228   3.818   0.683   3.034  0.7981  2.5450 -1.9146
 6422TIP3   OH219229   5.252   4.459   1.650  0.0450 -0.4768 -0.0113
 6422TIP3    H119230   5.161   4.484   1.641  0.2145  0.2268  0.2211
 6422TIP3    H219231   5.279   4.492   1.735  0.5924 -0.4425 -0.1900
 6423TIP3   OH219232   4.355   0.550   5.699 -0.0705  0.0705 -0.2687
 6423TIP3    H119233   4.267   0.518   5.720  0.9672 -3.3296 -0.5087
 6423TIP3    H219234   4.373   0.616   5.766 -1.4331 -1.8333  2.1676
 6424TIP3   OH219235   3.632   2.567   3.463  0.3361  0.0541  0.0774
 6424TIP3    H119236   3.671   2.491   3.420  1.1296  1.4286 -1.7643
 6424TIP3    H219237   3.549   2.580   3.417 -0.2808 -0.2430  1.0601
 6425TIP3   OH219238   5.685   3.726   5.482 -0.3007 -0.4101  0.2230
 6425TIP3    H119239   5.701   3.631   5.478 -0.8033 -0.4638 -0.8599
 6425TIP3    H219240   5.647   3.747   5.397 -1.7539  0.4837  1.0525
 6426TIP3   OH219241   2.452   2.678   4.522 -0.2800  0.1502  0.2544
 6426TIP3    H119242   2.463   2.766   4.558  0.5440  0.0724  0.2105
 6426TIP3    H219243   2.367   2.649   4.555 -1.5195  1.7295 -1.3794
 6427TIP3   OH219244   6.370   2.671   3.493 -0.1632 -0.3110  0.1340
 6427TIP3    H119245   6.365   2.752   3.443 -0.7762  0.0191  0.7121
 6427TIP3    H219246   6.357   2.602   3.428 -1.0640  0.1122 -0.1547
 6428TIP3   OH219247   6.512   5.043   5.384 -0.8033 -0.0065  0.5535
 6428TIP3    H119248   6.485   4.955   5.408  1.4468 -0.3691  2.1201
 6428TIP3    H219249   6.569   5.071   5.456 -0.1971  2.1190 -0.6528
 6429TIP3   OH219250   0.306   1.118   1.234 -0.7388  0.1227 -0.1512
 6429TIP3    H119251   0.271   1.166   1.159 -0.5449 -0.5229 -0.6620
 6429TIP3    H219252   0.394   1.090   1.206 -0.5524  0.1215  0.4225
 6430TIP3   OH219253   0.582   4.083   4.747 -0.0945 -0.0154 -0.4044
 6430TIP3    H119254   0.546   4.075   4.659 -0.1060 -0.8267 -0.3372
 6430TIP3    H219255   0.540   4.012   4.796  1.9545 -1.3413 -0.4571
 6431TIP3   OH219256   2.893   6.439   1.623 -0.0597  0.1711 -0.2374
 6431TIP3    H119257   2.884   6.488   1.541 -0.4290 -0.3744 -0.5324
 6431TIP3    H219258   2.805   6.407   1.642  0.0566  0.1565  0.2870
 6432TIP3   OH219259   2.445   2.854   0.230  0.0929  0.2546 -0.3780
 6432TIP3    H119260   2.366   2.904   0.211 -0.2132  0.0793  0.3839
 6432TIP3    H219261   2.495   2.910   0.289 -0.1748 -0.2528  0.3468
 6433TIP3   OH219262   6.539   1.167   0.279  0.0591  0.8179 -0.0341
 6433TIP3    H119263   6.573   1.085   0.243  0.7996  1.0625  0.0941
 6433TIP3    H219264   6.464   1.189   0.223 -0.2506 -0.0311  0.0384
 6434TIP3   OH219265   0.592   4.503   4.667 -0.0491 -0.0461  1.0376
 6434TIP3    H119266   0.547   4.463   4.741 -1.1716 -0.5023  0.1352
 6434TIP3    H219267   0.528   4.501   4.596  0.8673  0.7374  0.1578
 6435TIP3   OH219268   1.491   0.098   3.884 -0.1210  0.4289  0.0675
 6435TIP3    H119269   1.468   0.005   3.882 -1.1443  0.6333  1.0926
 6435TIP3    H219270   1.485   0.122   3.976  2.1312  1.0591  0.1105
 6436TIP3   OH219271   0.182   0.038   3.309 -0.1983 -0.1691  0.0698
 6436TIP3    H119272   0.167   0.041   3.214 -1.4597  0.4133  0.2685
 6436TIP3    H219273   0.224   0.122   3.328 -0.6384  0.0442  0.1232
 6437TIP3   OH219274   6.099   1.988   3.535 -0.1401 -0.7374 -0.2540
 6437TIP3    H119275   6.071   1.985   3.444 -0.3415 -0.3662 -0.2063
 6437TIP3    H219276   6.056   1.913   3.576 -3.1178  1.1341  0.3881
 6438TIP3   OH219277   3.396   0.891   1.558  0.5908 -1.2317 -0.6188
 6438TIP3    H119278   3.435   0.969   1.600  3.5602 -1.8500 -1.9338
 6438TIP3    H219279   3.385   0.828   1.630 -0.6608 -0.0856  0.2447
 6439TIP3   OH219280   3.205   1.756   0.989  0.5995  0.0700  0.1763
 6439TIP3    H119281   3.117   1.790   0.972  0.7297 -0.1395 -1.0218
 6439TIP3    H219282   3.239   1.811   1.059 -1.0576 -0.8524  1.7880
 6440TIP3   OH219283   4.118   5.713   2.764  0.2536  0.6811 -0.1519
 6440TIP3    H119284   4.139   5.804   2.783  0.6658  0.9156 -1.6107
 6440TIP3    H219285   4.183   5.686   2.700 -1.1762  0.0335 -1.3899
 6441TIP3   OH219286   5.225   4.091   5.655 -0.3179  0.1810 -0.6731
 6441TIP3    H119287   5.191   4.170   5.613 -0.8198 -0.3381 -1.2596
 6441TIP3    H219288   5.320   4.097   5.644 -0.0930  1.8285  1.2940
 6442TIP3   OH219289   5.446   0.412   0.890 -0.1446  0.2214  0.3238
 6442TIP3    H119290   5.490   0.457   0.818 -0.0264 -0.9990 -0.4053
 6442TIP3    H219291   5.500   0.335   0.907 -0.2255  0.4383  1.6638
 6443TIP3   OH219292   2.060   3.787   2.570 -0.1149 -0.2491  0.2472
 6443TIP3    H119293   2.005   3.715   2.540 -0.7982  0.1166  0.5765
 6443TIP3    H219294   2.026   3.809   2.657 -2.2426  2.6741 -1.1312
 6444TIP3   OH219295   2.900   2.523   5.781 -0.0568 -0.0646  1.1983
 6444TIP3    H119296   2.903   2.441   5.732 -1.0589 -0.2049  1.3546
 6444TIP3    H219297   2.987   2.561   5.770  0.0017 -0.5108  0.0451
 6445TIP3   OH219298   6.958   6.727   1.788  0.1240  0.0616 -0.5334
 6445TIP3    H119299   6.983   6.746   1.878  1.3115  1.3169 -1.1058
 6445TIP3    H219300   6.953   6.813   1.745  0.3875 -0.5660 -1.8725
 6446TIP3   OH219301   1.605   0.208   4.434 -0.3782  0.4867  0.3199
 6446TIP3    H119302   1.585   0.199   4.340 -0.8330  2.5044  0.1863
 6446TIP3    H219303   1.529   0.169   4.478 -1.1878  1.4225 -0.1912
 6447TIP3   OH219304   5.885   0.783   0.760 -0.0912 -0.0478  0.7984
 6447TIP3    H119305   5.866   0.875   0.747 -3.0190 -0.5157  1.0820
 6447TIP3    H219306   5.943   0.759   0.688 -0.5305  1.6549 -0.1558
 6448TIP3   OH219307   4.571   2.413   5.760  0.0384 -0.1612  0.0533
 6448TIP3    H119308   4.600   2.355   5.830  1.6755  0.6327  0.0866
 6448TIP3    H219309   4.476   2.400   5.755 -0.4646  1.0017  3.5854
 6449TIP3   OH219310   5.172   2.640   3.722  0.7374 -0.2074  0.1265
 6449TIP3    H119311   5.162   2.636   3.626  0.2217  2.5395 -0.0056
 6449TIP3    H219312   5.085   2.619   3.756  0.7255 -0.4302 -0.0373
 6450TIP3   OH219313   4.318   6.153   4.553  0.6948 -0.5294 -0.7371
 6450TIP3    H119314   4.402   6.184   4.586 -0.9904  0.9175  2.7279
 6450TIP3    H219315   4.291   6.086   4.616 -1.4027  0.1264 -0.8580
 6451TIP3   OH219316   4.014   1.797   4.193  0.1304 -0.3794 -0.3834
 6451TIP3    H119317   4.094   1.850   4.197  0.6815 -1.1077 -1.2141
 6451TIP3    H219318   4.020   1.751   4.109 -0.8549 -0.9403 -0.1689
 6452TIP3   OH219319   2.693   6.711   0.756 -0.1113  0.2814 -0.8104
 6452TIP3    H119320   2.769   6.736   0.809 -0.7468  0.2839  0.1243
 6452TIP3    H219321   2.707   6.618   0.737  0.2221  0.3288 -0.8021
 6453TIP3   OH219322   1.477   2.488   5.673 -0.3678  0.2350  0.3690
 6453TIP3    H119323   1.528   2.557   5.630  1.7289 -1.1000  0.5474
 6453TIP3    H219324   1.456   2.525   5.759  0.2468  0.8549  0.2632
 6454TIP3   OH219325   6.315   5.115   4.112  0.9543 -0.5423 -0.0364
 6454TIP3    H119326   6.403   5.143   4.138  0.0387 -0.1921  3.2230
 6454TIP3    H219327   6.288   5.054   4.182 -1.2075 -1.0278 -1.2043
 6455TIP3   OH219328   4.632   4.367   2.851 -0.2605 -0.0640  0.1537
 6455TIP3    H119329   4.721   4.364   2.818 -0.2331 -3.2888  0.2123
 6455TIP3    H219330   4.579   4.323   2.784 -1.6330  0.7900  0.6211
 6456TIP3   OH219331   5.462   2.671   3.111  0.2832 -0.4868  0.5083
 6456TIP3    H119332   5.511   2.595   3.145 -0.9199 -0.8686  1.4444
 6456TIP3    H219333   5.514   2.746   3.139  0.7843 -0.9185  0.7711
 6457TIP3   OH219334   6.198   1.034   5.199  0.3825 -0.3549  0.1619
 6457TIP3    H119335   6.177   0.944   5.172 -0.0091 -0.3999  0.6033
 6457TIP3    H219336   6.116   1.068   5.235 -0.0682  0.8959 -1.8722
 6458TIP3   OH219337   5.877   2.541   1.682  0.5579  0.3991 -0.1828
 6458TIP3    H119338   5.938   2.564   1.752  0.9074 -0.7310 -0.0934
 6458TIP3    H219339   5.895   2.449   1.664 -0.1131  0.4478 -1.1810
 6459TIP3   OH219340   4.691   2.883   2.400 -0.6182  0.0560  0.1590
 6459TIP3    H119341   4.725   2.890   2.311  1.6339  2.6304  1.0899
 6459TIP3    H219342   4.761   2.840   2.450 -0.6217  1.2057  1.2097
 6460TIP3   OH219343   0.111   5.104   2.541  0.7172 -0.1201 -0.4733
 6460TIP3    H119344   0.073   5.186   2.570 -0.5466 -1.0375  0.5816
 6460TIP3    H219345   0.204   5.111   2.562  0.3888  0.5109  0.8431
 6461TIP3   OH219346   0.056   5.160   0.019  0.5399  0.1209 -0.1107
 6461TIP3    H119347  -0.030   5.183   0.054 -0.9275 -2.4042 -1.7188
 6461TIP3    H219348   0.114   5.159   0.096 -1.6264 -1.3322  1.6290
 6462TIP3   OH219349   1.567   2.265   5.830 -0.1445  0.4479  0.1472
 6462TIP3    H119350   1.499   2.256   5.895 -0.8597 -0.3437 -0.6901
 6462TIP3    H219351   1.540   2.340   5.777 -1.0309 -0.5988 -0.9332
 6463TIP3   OH219352   1.673   0.887   1.986  0.1215 -0.0505 -0.0969
 6463TIP3    H119353   1.651   0.968   1.940 -1.1353  0.3215  1.1123
 6463TIP3    H219354   1.768   0.888   1.991  0.1502  1.1420 -0.4642
 6464TIP3   OH219355   4.478   1.875   5.420  1.0445  0.0476 -0.2533
 6464TIP3    H119356   4.442   1.942   5.361 -1.1919 -0.3613  0.5470
 6464TIP3    H219357   4.470   1.793   5.372 -1.5820 -0.4167  0.8109
 6465TIP3   OH219358   2.254   6.641   2.356 -0.0820  0.3211 -0.0877
 6465TIP3    H119359   2.285   6.663   2.443  0.0912 -1.3140  0.2873
 6465TIP3    H219360   2.185   6.706   2.338 -1.1362 -0.1810  1.8538
 6466TIP3   OH219361   6.228   4.850   4.966  0.1563  0.2084 -0.1960
 6466TIP3    H119362   6.213   4.761   4.932 -1.1552  0.0166  0.8097
 6466TIP3    H219363   6.295   4.840   5.033  1.4728  0.3198 -1.4378
 6467TIP3   OH219364   2.616   5.967   4.678 -0.1732  0.1718 -0.1027
 6467TIP3    H119365   2.608   5.875   4.700  0.8230 -0.1224 -0.8996
 6467TIP3    H219366   2.600   6.013   4.760 -0.1331 -0.7252  0.4161
 6468TIP3   OH219367   4.652   1.421   0.033 -0.1346 -0.0715  0.0055
 6468TIP3    H119368   4.683   1.349   0.089  0.0425 -0.8252 -1.0269
 6468TIP3    H219369   4.559   1.403   0.021 -0.0300 -0.3098 -0.4922
 6469TIP3   OH219370   0.666   2.351   2.686  0.2077  0.1530  0.0322
 6469TIP3    H119371   0.621   2.267   2.694 -0.6795  0.6473  0.3119
 6469TIP3    H219372   0.597   2.416   2.693  0.7418  0.8941 -1.2284
 6470TIP3   OH219373   4.658   3.133   2.623 -0.4698  0.3168 -0.1024
 6470TIP3    H119374   4.607   3.179   2.690 -0.0093 -0.0838  0.5347
 6470TIP3    H219375   4.612   3.050   2.610 -1.5152  1.0662 -1.5242
 6471TIP3   OH219376   1.731   3.031   0.077  0.8115 -0.1597  0.0069
 6471TIP3    H119377   1.713   2.989  -0.007 -0.1088  0.3492 -0.0631
 6471TIP3    H219378   1.781   3.110   0.054  0.4971  0.0186 -0.0816
 6472TIP3   OH219379   6.689   0.969   0.861  0.1304  0.4465 -0.1618
 6472TIP3    H119380   6.613   1.001   0.813 -0.0058 -1.6458 -1.4459
 6472TIP3    H219381   6.764   1.006   0.815 -0.0491  0.4966 -0.4136
 6473TIP3   OH219382   3.984   4.012   3.897  0.2584 -0.1884  0.2280
 6473TIP3    H119383   4.068   3.973   3.873  0.0526  1.2518 -3.3428
 6473TIP3    H219384   3.998   4.106   3.890 -1.5422  0.0909 -0.1204
 6474TIP3   OH219385   0.475   6.071   4.860 -0.6687 -0.2165  0.2100
 6474TIP3    H119386   0.525   6.121   4.925  1.3024 -0.5350 -0.9826
 6474TIP3    H219387   0.488   5.979   4.886  0.7820 -0.3944 -1.0026
 6475TIP3   OH219388   4.163   3.143   5.369  0.1441 -0.3690 -0.5926
 6475TIP3    H119389   4.093   3.205   5.391  0.9998  0.0459  1.0855
 6475TIP3    H219390   4.199   3.175   5.287  0.4846  1.3221  0.1840
 6476TIP3   OH219391   5.464   3.237   2.360  0.2736  0.2681  0.5897
 6476TIP3    H119392   5.399   3.305   2.376  0.0303 -0.0190  0.8305
 6476TIP3    H219393   5.452   3.175   2.432 -0.7443 -0.9871 -0.6061
 6477TIP3   OH219394   5.491   6.043   5.527 -0.0946 -0.1187 -0.9109
 6477TIP3    H119395   5.486   6.132   5.492 -0.4698 -0.8285 -2.7804
 6477TIP3    H219396   5.558   6.048   5.595  0.8981  1.3139 -1.9131
 6478TIP3   OH219397   5.332   2.322   4.122 -0.2493 -0.2590  0.1520
 6478TIP3    H119398   5.299   2.234   4.107 -1.0728 -0.0482  0.6329
 6478TIP3    H219399   5.378   2.345   4.042  0.2337 -1.2332  0.1407
 6479TIP3   OH219400   6.169   2.948   5.047  1.0839 -0.0132  0.0688
 6479TIP3    H119401   6.251   2.900   5.059  1.4344  0.6496  0.4474
 6479TIP3    H219402   6.171   2.977   4.956  1.1578 -0.2006  0.0106
 6480TIP3   OH219403   4.725   1.658   4.214  0.2646 -0.0126  0.0109
 6480TIP3    H119404   4.799   1.619   4.167  0.7471  1.1139 -0.2124
 6480TIP3    H219405   4.741   1.752   4.208 -1.5860  0.2986 -0.6982
 6481TIP3   OH219406   0.383   0.991   5.417  0.2245 -0.2424 -0.2823
 6481TIP3    H119407   0.436   1.032   5.485  0.7305 -0.1392 -0.7304
 6481TIP3    H219408   0.429   1.010   5.335 -1.2272  1.0257 -0.8545
 6482TIP3   OH219409   4.879   5.006   3.461 -0.1778  0.5546 -0.0943
 6482TIP3    H119410   4.788   5.033   3.447 -0.0949  0.2328 -1.4342
 6482TIP3    H219411   4.875   4.911   3.465 -0.4494  0.5789  4.4505
 6483TIP3   OH219412   6.436   3.652   0.065  0.1992 -0.5600 -0.2854
 6483TIP3    H119413   6.440   3.602   0.147  0.2079 -0.3861 -0.1809
 6483TIP3    H219414   6.342   3.661   0.048  0.1433  0.9127  0.6234
 6484TIP3   OH219415   5.941   4.473   0.389 -0.4609  0.4708 -0.2347
 6484TIP3    H119416   5.988   4.498   0.309 -0.8999 -2.3333 -1.5201
 6484TIP3    H219417   6.002   4.493   0.460  1.1950  0.3449 -1.5449
 6485TIP3   OH219418   5.857   3.007   2.121  0.0642 -0.1527  0.6863
 6485TIP3    H119419   5.867   2.930   2.064  0.3807 -0.4958  1.1895
 6485TIP3    H219420   5.901   2.981   2.203  1.6936  1.1977  0.2748
 6486TIP3   OH219421   1.029   4.324   5.840  0.1175 -0.3823 -0.0166
 6486TIP3    H119422   0.951   4.298   5.890  0.3606  1.5697  1.4933
 6486TIP3    H219423   0.997   4.337   5.751 -0.9301 -1.2070  0.2197
 6487TIP3   OH219424   2.198   2.631   2.137 -0.3405  0.3039 -0.5565
 6487TIP3    H119425   2.277   2.596   2.097 -0.8335  1.8976 -3.1364
 6487TIP3    H219426   2.128   2.575   2.102 -0.5769  0.3028 -0.0820
 6488TIP3   OH219427   3.215   6.697   5.359  0.1955  0.4343  0.2939
 6488TIP3    H119428   3.156   6.742   5.419 -0.6463 -0.0672 -0.1346
 6488TIP3    H219429   3.174   6.613   5.343  2.5107 -1.2195  2.3198
 6489TIP3   OH219430   5.775   6.144   0.369  0.5955 -0.2573  0.0311
 6489TIP3    H119431   5.761   6.190   0.286 -1.6134 -3.0362 -1.3354
 6489TIP3    H219432   5.739   6.203   0.435 -1.9734  0.1782 -1.5837
 6490TIP3   OH219433   6.048   1.427   4.687 -0.3516 -0.1253 -0.5850
 6490TIP3    H119434   6.072   1.455   4.599  1.4802  0.3364  0.0340
 6490TIP3    H219435   5.986   1.493   4.717 -1.2224 -0.4421 -1.5974
 6491TIP3   OH219436   5.934   2.612   4.374  0.2350 -0.4001 -0.3072
 6491TIP3    H119437   5.913   2.691   4.422  0.7399 -0.3535 -0.1536
 6491TIP3    H219438   5.852   2.586   4.332 -0.3700 -0.8082  1.0915
 6492TIP3   OH219439   7.044   2.717   5.549 -0.3615  0.0811  0.1183
 6492TIP3    H119440   7.074   2.731   5.459 -1.0349  0.8990  0.0119
 6492TIP3    H219441   6.971   2.655   5.541  0.1293 -0.5154  0.1954
 6493TIP3   OH219442   2.796   0.277   2.640 -0.3542  0.5461 -0.0777
 6493TIP3    H119443   2.757   0.289   2.553 -1.8466  0.6373  0.5802
 6493TIP3    H219444   2.786   0.183   2.658 -0.2931  0.5754  0.1119
 6494TIP3   OH219445   5.001   4.926   1.621 -0.7163  0.1008  1.0253
 6494TIP3    H119446   4.942   4.976   1.564 -0.1902 -1.0278 -0.6061
 6494TIP3    H219447   5.067   4.990   1.649 -0.6123  0.5632 -0.2033
 6495TIP3   OH219448   4.326   5.849   4.777  0.5269 -0.1165 -0.0776
 6495TIP3    H119449   4.244   5.818   4.741 -0.8376  1.8849  1.1072
 6495TIP3    H219450   4.338   5.797   4.857 -0.5481  0.7989  0.6964
 6496TIP3   OH219451   2.345   2.845   2.622 -0.0858 -0.3133 -0.8996
 6496TIP3    H119452   2.301   2.929   2.606  0.8543 -0.0015 -2.0431
 6496TIP3    H219453   2.314   2.788   2.552  2.1645  0.2848 -2.4978
 6497TIP3   OH219454   6.601   5.195   0.146 -0.0236  0.0634 -0.8171
 6497TIP3    H119455   6.661   5.269   0.142  1.1973 -0.8641 -0.2690
 6497TIP3    H219456   6.531   5.223   0.205  0.3017  0.8459 -0.7927
 6498TIP3   OH219457   1.927   5.299   0.745  0.9448 -0.2448 -0.7050
 6498TIP3    H119458   2.005   5.252   0.771  0.4431 -0.5646  0.2755
 6498TIP3    H219459   1.855   5.251   0.787  0.3193  0.6154 -0.7671
 6499TIP3   OH219460   6.281   0.462   2.407  0.2384 -0.4116 -0.0739
 6499TIP3    H119461   6.196   0.431   2.438 -0.5207  0.7012 -0.9677
 6499TIP3    H219462   6.289   0.426   2.319 -0.3795  1.3447 -0.8855
 6500TIP3   OH219463   0.124   5.760   0.575 -0.3365 -0.0447  0.4743
 6500TIP3    H119464   0.214   5.771   0.605 -0.6934  2.2533  0.8566
 6500TIP3    H219465   0.122   5.800   0.488 -0.7342 -1.1586 -0.0506
 6501TIP3   OH219466   6.957   4.398   4.902 -0.3933 -0.4466 -0.2583
 6501TIP3    H119467   6.868   4.370   4.880  0.2827 -1.5501 -1.7932
 6501TIP3    H219468   7.013   4.347   4.843  1.1353  1.7815 -0.8516
 6502TIP3   OH219469   0.421   5.504   4.132  0.1209 -0.1041  0.4981
 6502TIP3    H119470   0.328   5.492   4.113 -0.5474  1.2346  2.5453
 6502TIP3    H219471   0.432   5.472   4.221  1.2532  1.2205  0.8812
 6503TIP3   OH219472   5.824   1.588   2.502  0.1862  0.2728  0.2930
 6503TIP3    H119473   5.790   1.677   2.507 -1.3454 -0.2920  0.2364
 6503TIP3    H219474   5.762   1.541   2.446 -2.1296 -2.1870  4.4503
 6504TIP3   OH219475   6.302   6.003   5.662  0.1661  1.0234 -0.0166
 6504TIP3    H119476   6.360   6.076   5.640 -0.5958  1.3466 -1.0256
 6504TIP3    H219477   6.338   5.929   5.613  0.5108  0.8890  0.4317
 6505TIP3   OH219478   1.402   2.738   2.256  0.3382 -0.0093  0.0900
 6505TIP3    H119479   1.459   2.673   2.215  2.9763  0.4690  2.6250
 6505TIP3    H219480   1.387   2.803   2.188  1.1044 -1.1924 -1.2842
 6506TIP3   OH219481   0.258   6.774   3.812  0.3393 -0.0769  0.0004
 6506TIP3    H119482   0.308   6.735   3.883  1.3219  2.0786  0.5586
 6506TIP3    H219483   0.287   6.727   3.734 -0.1809 -1.9421  0.8687
 6507TIP3   OH219484   6.680   4.018   1.857  0.9709 -0.0284 -0.0170
 6507TIP3    H119485   6.772   4.028   1.830  1.4045  0.7291  1.5949
 6507TIP3    H219486   6.647   3.946   1.803  2.1656  0.4320 -1.4518
 6508TIP3   OH219487   1.148   6.209   1.160 -0.5351 -0.2433  0.2332
 6508TIP3    H119488   1.128   6.152   1.234 -1.5578  1.4769  1.3672
 6508TIP3    H219489   1.095   6.288   1.176  0.8126  1.0253 -1.2347
 6509TIP3   OH219490   0.685   1.873   5.367 -0.2061 -0.2502 -0.0390
 6509TIP3    H119491   0.723   1.960   5.358  0.4041 -0.6691 -1.9610
 6509TIP3    H219492   0.592   1.888   5.379 -0.0769  0.6726 -0.1469
 6510TIP3   OH219493   1.901   0.337   0.610  0.2218 -0.2758 -0.1951
 6510TIP3    H119494   1.858   0.368   0.530  2.1026  1.2021 -0.6920
 6510TIP3    H219495   1.977   0.394   0.621  0.9233 -1.4770  1.7760
 6511TIP3   OH219496   3.507   1.372   0.542  0.3317  0.6579  0.2191
 6511TIP3    H119497   3.492   1.330   0.457 -0.0977  0.4518  0.3939
 6511TIP3    H219498   3.520   1.465   0.521  1.0742  0.4766 -0.1469
 6512TIP3   OH219499   6.637   3.100   1.654 -0.3892 -0.1510 -0.2955
 6512TIP3    H119500   6.570   3.126   1.590  0.1422 -0.1673 -0.8607
 6512TIP3    H219501   6.719   3.099   1.604  0.0426 -0.0898  0.4039
 6513TIP3   OH219502   0.907   4.739   1.492 -0.1538  1.0220  0.4860
 6513TIP3    H119503   0.976   4.693   1.444 -0.4035  1.0407  0.1081
 6513TIP3    H219504   0.861   4.790   1.425 -0.5633  0.9747  0.7269
 6514TIP3   OH219505   1.217   4.882   4.097 -0.6582 -0.0679 -0.4024
 6514TIP3    H119506   1.305   4.856   4.070  0.0500 -1.4483  2.7255
 6514TIP3    H219507   1.162   4.808   4.073  0.0170 -1.4248  1.9214
 6515TIP3   OH219508   6.729   0.939   4.209  0.0645  0.1005  0.5793
 6515TIP3    H119509   6.726   0.889   4.127 -1.0283  1.9223 -0.5526
 6515TIP3    H219510   6.787   1.013   4.190 -2.2168  1.9874  0.5098
 6516TIP3   OH219511   3.821   5.906   1.385 -0.5283 -0.2860 -0.4580
 6516TIP3    H119512   3.857   5.993   1.398 -0.7453 -0.0571 -1.3567
 6516TIP3    H219513   3.893   5.847   1.406 -0.0341  0.1326 -0.9504
 6517TIP3   OH219514   4.868   6.478   5.236 -1.1051 -0.4550 -0.3069
 6517TIP3    H119515   4.807   6.527   5.181 -0.9212 -0.8452 -0.8695
 6517TIP3    H219516   4.825   6.394   5.251 -1.8207  0.1873  1.4028
 6518TIP3   OH219517   1.102   1.490   5.635 -0.2746 -0.2654  0.5756
 6518TIP3    H119518   1.009   1.499   5.655 -0.1134 -0.1273  1.3055
 6518TIP3    H219519   1.127   1.575   5.599 -0.6804 -0.6760 -0.7385
 6519TIP3   OH219520   3.149   2.045   1.459 -0.2741 -0.4764  0.2033
 6519TIP3    H119521   3.154   1.963   1.508  1.2149  0.3903  1.6152
 6519TIP3    H219522   3.212   2.035   1.388  1.2924  0.0416  1.4448
 6520TIP3   OH219523   0.290   1.869   1.777  0.4522  0.6021 -0.3187
 6520TIP3    H119524   0.250   1.806   1.837 -0.2681  2.1281  0.8865
 6520TIP3    H219525   0.290   1.825   1.692 -3.2383  0.2382 -0.2685
 6521TIP3   OH219526   6.875   1.007   3.410 -1.2040  0.2550 -0.0860
 6521TIP3    H119527   6.814   1.059   3.463  0.7851  0.6408  2.0182
 6521TIP3    H219528   6.929   1.071   3.365 -0.9840 -0.0342 -0.2388
 6522TIP3   OH219529   0.409   6.781   2.604  0.2177 -0.4483 -0.2121
 6522TIP3    H119530   0.445   6.797   2.517 -1.4353 -0.2316 -0.8801
 6522TIP3    H219531   0.384   6.689   2.603  2.6470 -1.2192  1.0071
 6523TIP3   OH219532   6.056   3.345   1.415  0.0790  0.2330  0.0011
 6523TIP3    H119533   6.104   3.309   1.489 -0.6363  0.7008  0.7166
 6523TIP3    H219534   6.062   3.440   1.426  2.0098  0.4170 -1.8927
 6524TIP3   OH219535   2.582   4.459   1.340  0.6230 -0.3778 -0.6270
 6524TIP3    H119536   2.646   4.486   1.274  0.9947 -0.4220 -0.2906
 6524TIP3    H219537   2.502   4.505   1.316  0.7672 -0.3537 -1.0788
 6525TIP3   OH219538   2.699   6.503   5.533 -0.1731 -0.6127 -0.4595
 6525TIP3    H119539   2.769   6.444   5.507  0.8984 -1.2115  3.1553
 6525TIP3    H219540   2.629   6.446   5.564 -0.8121  0.0008 -0.7565
 6526TIP3   OH219541   6.973   5.800   5.186  0.0584  0.0757  0.4054
 6526TIP3    H119542   6.994   5.739   5.257 -1.2883  0.2505  0.9671
 6526TIP3    H219543   6.886   5.834   5.207 -0.5561 -0.1612 -1.5261
 6527TIP3   OH219544   3.847   6.385   3.366 -0.2701  0.7396 -0.2123
 6527TIP3    H119545   3.917   6.374   3.431 -1.0463 -0.1241  0.5089
 6527TIP3    H219546   3.886   6.355   3.283  0.2577  0.3865  0.1568
 6528TIP3   OH219547   0.371   3.405   5.080  0.1581 -0.3154 -0.3336
 6528TIP3    H119548   0.459   3.371   5.067 -0.1993 -1.6315  0.4819
 6528TIP3    H219549   0.339   3.425   4.992  1.2478  0.1840 -0.6371
 6529TIP3   OH219550   4.431   5.445   1.552  0.0574  0.0333 -0.0375
 6529TIP3    H119551   4.441   5.358   1.512 -0.8671  0.1346 -0.5282
 6529TIP3    H219552   4.400   5.426   1.641 -1.3642 -0.1345 -0.5438
 6530TIP3   OH219553   3.786   5.414   1.377 -0.0559 -0.7298 -0.1000
 6530TIP3    H119554   3.777   5.374   1.463 -2.2090 -0.7608 -0.2871
 6530TIP3    H219555   3.794   5.340   1.317 -0.6139 -0.7785 -0.1170
 6531TIP3   OH219556   1.771   2.094   3.182 -0.2605 -0.1643  0.1053
 6531TIP3    H119557   1.706   2.145   3.231 -0.6734 -0.0634 -0.5357
 6531TIP3    H219558   1.719   2.036   3.126  0.2079 -1.1125  0.6260
 6532TIP3   OH219559   6.964   5.182   0.522  0.5850 -0.1877  0.2919
 6532TIP3    H119560   7.012   5.200   0.441  0.1940 -1.4404 -0.2461
 6532TIP3    H219561   7.029   5.190   0.591  1.4225 -1.1687 -0.3562
 6533TIP3   OH219562   6.106   3.390   4.961  0.0663 -0.7142 -0.1528
 6533TIP3    H119563   6.121   3.484   4.974  0.4349 -0.7558 -0.2738
 6533TIP3    H219564   6.072   3.360   5.044 -0.9776 -0.2862 -0.4049
 6534TIP3   OH219565   3.432   5.160   2.311 -0.3858  0.0442 -0.4024
 6534TIP3    H119566   3.457   5.215   2.385 -0.9106  0.5677 -0.6053
 6534TIP3    H219567   3.364   5.102   2.346  1.2539 -1.5915  0.2312
 6535TIP3   OH219568   2.256   6.483   5.154  0.1512 -0.7707  0.6228
 6535TIP3    H119569   2.337   6.490   5.204 -0.7303 -1.6487  2.2410
 6535TIP3    H219570   2.235   6.390   5.155 -0.7809 -0.5759  0.0656
 6536TIP3   OH219571   2.325   3.884   1.566  0.9946  0.0086 -0.5514
 6536TIP3    H119572   2.343   3.843   1.651  1.9213  0.0404 -0.7117
 6536TIP3    H219573   2.349   3.976   1.579 -0.8294  0.4702 -0.2678
 6537TIP3   OH219574   0.787   4.927   4.118 -0.3374  0.2953  0.0365
 6537TIP3    H119575   0.745   4.994   4.172  3.6260  1.8351  1.5519
 6537TIP3    H219576   0.833   4.871   4.180 -0.2015 -1.3416 -1.4806
 6538TIP3   OH219577   0.877   4.858   5.246  0.1893  0.2337 -0.3162
 6538TIP3    H119578   0.865   4.857   5.151 -1.0020  0.5437 -0.1929
 6538TIP3    H219579   0.964   4.894   5.259  0.1208  0.7847 -1.2745
 6539TIP3   OH219580   4.691   4.854   0.126  0.1405 -0.6322 -0.5184
 6539TIP3    H119581   4.753   4.874   0.196  0.4328  0.9087 -1.1645
 6539TIP3    H219582   4.637   4.933   0.120 -2.0819 -2.0315  0.1925
 6540TIP3   OH219583   3.011   4.101   5.424 -0.1011  0.3428  0.2506
 6540TIP3    H119584   2.978   4.123   5.511 -1.4880 -0.2044 -0.1114
 6540TIP3    H219585   3.106   4.096   5.435 -0.2530  0.2568  1.7342
 6541TIP3   OH219586   0.961   6.058   2.673 -0.5042 -0.0750 -0.2506
 6541TIP3    H119587   1.057   6.060   2.667 -0.5192  0.7532 -0.2944
 6541TIP3    H219588   0.931   6.098   2.592 -0.8865 -0.1527 -0.1498
 6542TIP3   OH219589   1.279   0.281   5.067 -0.0188 -0.0403  0.4240
 6542TIP3    H119590   1.244   0.214   5.009  2.5390 -1.9652  0.9004
 6542TIP3    H219591   1.252   0.364   5.028 -2.4851 -1.2998 -0.7301
 6543TIP3   OH219592   5.305   6.189   5.223  0.3517  0.4209 -0.1726
 6543TIP3    H119593   5.270   6.170   5.310 -0.9511  0.1651 -0.7313
 6543TIP3    H219594   5.383   6.134   5.216  0.5164  0.4964  0.8492
 6544TIP3   OH219595   5.856   1.643   4.775  0.0082 -0.6349 -0.4794
 6544TIP3    H119596   5.888   1.732   4.765 -0.1479 -0.2984  1.6161
 6544TIP3    H219597   5.812   1.623   4.692  0.0952  1.1939 -0.9942
 6545TIP3   OH219598   1.273   5.377   1.594  0.0318  0.0921 -0.7172
 6545TIP3    H119599   1.184   5.411   1.599 -0.2084 -0.5047 -0.8466
 6545TIP3    H219600   1.296   5.355   1.684  0.4638  1.2543 -0.5190
 6546TIP3   OH219601   3.512   6.597   3.657 -0.5594 -0.4848  0.2688
 6546TIP3    H119602   3.603   6.626   3.649 -0.5604 -0.3566  0.6853
 6546TIP3    H219603   3.502   6.530   3.590 -0.3588  0.0037 -0.2598
 6547TIP3   OH219604   3.484   3.750   1.411 -0.1283  0.3648  0.0728
 6547TIP3    H119605   3.395   3.730   1.383  0.5772 -3.6296  0.0835
 6547TIP3    H219606   3.535   3.754   1.329  0.0803  0.0987  0.1869
 6548TIP3   OH219607   4.549   1.001   4.062  0.2148  0.1158 -0.4035
 6548TIP3    H119608   4.599   1.075   4.027 -1.8334  0.2230 -3.4737
 6548TIP3    H219609   4.578   0.926   4.010  0.4600 -0.7489  0.9521
 6549TIP3   OH219610   5.351   5.698   0.927 -0.0418  0.5319 -0.5407
 6549TIP3    H119611   5.435   5.743   0.934 -0.0072  0.4333 -0.3038
 6549TIP3    H219612   5.340   5.681   0.834 -0.3115  1.5202 -0.7045
 6550TIP3   OH219613   3.032   3.110   4.072 -0.3089  0.3400 -0.3573
 6550TIP3    H119614   3.001   3.186   4.120 -0.7144  0.5812 -0.9884
 6550TIP3    H219615   3.126   3.125   4.061 -0.3077  0.5293 -0.0899
 6551TIP3   OH219616   4.141   5.468   5.114  0.3997 -0.2435  0.1079
 6551TIP3    H119617   4.208   5.445   5.178 -0.2529 -0.7515  0.6238
 6551TIP3    H219618   4.175   5.546   5.070  1.3390 -0.5168  0.3353
 6552TIP3   OH219619   5.450   5.756   5.467  0.1791 -0.2274  1.0430
 6552TIP3    H119620   5.468   5.848   5.487  0.5866 -0.6034  2.4555
 6552TIP3    H219621   5.536   5.714   5.470  0.0867 -0.5528 -0.2665
 6553TIP3   OH219622   1.678   2.466   4.834  0.0500  0.1875  0.3742
 6553TIP3    H119623   1.643   2.547   4.798 -1.5729 -0.0340  1.3279
 6553TIP3    H219624   1.614   2.440   4.900  1.4702 -0.9060  1.3847
 6554TIP3   OH219625   2.926   1.541   5.437  0.2875 -0.1323 -0.1748
 6554TIP3    H119626   2.883   1.577   5.359  1.3300  1.0426 -0.2419
 6554TIP3    H219627   3.018   1.563   5.426  0.4757 -0.0570  1.3297
 6555TIP3   OH219628   1.314   6.219   1.432 -0.3083 -0.2598  0.0301
 6555TIP3    H119629   1.382   6.167   1.391  1.1676  0.4539  1.4606
 6555TIP3    H219630   1.260   6.156   1.479  0.8532 -0.6379  0.9049
 6556TIP3   OH219631   5.384   5.485   3.261 -0.3201 -0.1485 -0.1477
 6556TIP3    H119632   5.350   5.428   3.192 -0.2936  2.9955 -3.0279
 6556TIP3    H219633   5.479   5.484   3.248 -0.3526  0.8478 -0.5760
 6557TIP3   OH219634   5.941   2.601   2.467  0.2308 -0.4336 -0.3350
 6557TIP3    H119635   5.958   2.647   2.385  1.7415 -1.2019 -0.5025
 6557TIP3    H219636   6.025   2.558   2.488 -0.1676 -0.3898  1.5195
 6558TIP3   OH219637   6.804   2.382   1.437 -0.6022 -0.5950 -0.1419
 6558TIP3    H119638   6.864   2.455   1.424 -0.1298 -1.0171 -0.3785
 6558TIP3    H219639   6.729   2.403   1.381 -0.1058 -0.6889 -0.8617
 6559TIP3   OH219640   4.908   4.643   0.366  0.5312 -0.1934 -0.6281
 6559TIP3    H119641   4.823   4.613   0.334  0.8308 -0.8600 -0.8163
 6559TIP3    H219642   4.930   4.717   0.309 -0.7871  1.2472  0.6283
 6560TIP3   OH219643   0.232   5.312   0.866  0.1613  0.1290 -0.0494
 6560TIP3    H119644   0.264   5.248   0.803  0.0774  0.8766 -0.8733
 6560TIP3    H219645   0.197   5.383   0.812  1.9027  1.7244  0.7934
 6561TIP3   OH219646   6.702   3.968   4.764 -0.3569  0.3472 -0.2617
 6561TIP3    H119647   6.612   3.950   4.738 -0.4989  2.3623 -1.3402
 6561TIP3    H219648   6.698   3.975   4.860 -1.4969  1.0877 -0.3436
 6562TIP3   OH219649   6.098   5.881   5.257  0.0509  0.2416  0.0018
 6562TIP3    H119650   6.045   5.961   5.266  0.3540  0.3707  0.7066
 6562TIP3    H219651   6.094   5.860   5.164  1.0601  1.8491 -0.4548
 6563TIP3   OH219652   4.444   5.328   3.051 -0.2568  0.1638 -0.8051
 6563TIP3    H119653   4.414   5.286   2.970 -0.0372 -0.3118 -0.6387
 6563TIP3    H219654   4.407   5.417   3.046 -0.1394  0.1842 -1.4896
 6564TIP3   OH219655   0.994   3.448   0.467 -0.1044  0.3128  0.4086
 6564TIP3    H119656   0.930   3.381   0.491  0.6730 -0.0804  1.4735
 6564TIP3    H219657   1.023   3.484   0.551 -0.4959  1.9958 -0.1385
 6565TIP3   OH219658   1.423   0.679   1.190  0.2171 -0.2235 -0.3129
 6565TIP3    H119659   1.432   0.696   1.284  0.4150 -1.0367 -0.1828
 6565TIP3    H219660   1.328   0.675   1.176  0.1906 -1.1186  0.0475
 6566TIP3   OH219661   2.718   2.344   4.270 -0.0675 -0.0244  0.0496
 6566TIP3    H119662   2.671   2.409   4.322  1.7621  1.1995  0.2818
 6566TIP3    H219663   2.741   2.390   4.189 -0.3013 -0.9725 -0.5707
 6567TIP3   OH219664   0.637   0.235   2.849  0.3815 -0.4899 -0.4067
 6567TIP3    H119665   0.620   0.216   2.757  0.9330 -2.1377 -0.2028
 6567TIP3    H219666   0.729   0.263   2.852  1.0470 -2.5620 -0.1234
 6568TIP3   OH219667   5.387   5.800   4.155  0.3403  0.4819  0.5218
 6568TIP3    H119668   5.464   5.816   4.101  0.0205  1.3981  0.3174
 6568TIP3    H219669   5.337   5.734   4.106 -0.3446  1.8934 -0.7392
 6569TIP3   OH219670   5.477   3.979   5.576  0.3628  0.0503  0.2243
 6569TIP3    H119671   5.496   3.918   5.648 -0.7157 -0.1761  0.3450
 6569TIP3    H219672   5.418   3.930   5.518 -2.2802  1.5871  1.4050
 6570TIP3   OH219673   4.116   3.765   2.126  0.0797 -0.1492 -0.3875
 6570TIP3    H119674   4.027   3.764   2.091 -0.3893 -0.3961  0.7541
 6570TIP3    H219675   4.104   3.773   2.221  1.2146 -1.6695 -0.0780
 6571TIP3   OH219676   2.896   4.967   3.706  0.2127 -0.2081 -1.4006
 6571TIP3    H119677   2.932   4.975   3.617  1.7010  0.1490 -0.7998
 6571TIP3    H219678   2.947   5.029   3.758 -1.6505  0.6877 -0.5560
 6572TIP3   OH219679   3.447   3.817   1.105 -0.3899 -0.3837 -0.3801
 6572TIP3    H119680   3.375   3.877   1.126 -1.7902 -1.1639 -2.5972
 6572TIP3    H219681   3.493   3.859   1.033  1.4723  0.1118  1.0277
 6573TIP3   OH219682   0.293   5.166   0.262 -0.2678  0.1070 -0.1994
 6573TIP3    H119683   0.387   5.150   0.255 -0.4903 -0.5360 -2.4687
 6573TIP3    H219684   0.261   5.098   0.321  0.6513  0.3194  0.5739
 6574TIP3   OH219685   5.776   4.148   1.795 -0.1432 -0.5552 -0.1867
 6574TIP3    H119686   5.786   4.238   1.827  0.2254 -0.6760  0.0411
 6574TIP3    H219687   5.792   4.093   1.871  0.5710 -0.8395 -0.5286
 6575TIP3   OH219688   5.103   2.546   4.026 -0.6614  0.3546 -0.4277
 6575TIP3    H119689   5.155   2.569   3.949 -0.6253  0.1712 -0.4591
 6575TIP3    H219690   5.164   2.495   4.080 -1.2554 -1.2141 -1.1706
 6576TIP3   OH219691   0.442   5.121   2.545  0.0214 -0.0910 -0.0051
 6576TIP3    H119692   0.513   5.059   2.525  0.7537  0.6605  0.2315
 6576TIP3    H219693   0.466   5.200   2.498 -0.6537  0.1839  0.1078
 6577TIP3   OH219694   4.252   1.926   2.510  0.1606 -0.1417  0.3398
 6577TIP3    H119695   4.307   1.925   2.432  0.7433  0.5648  0.7350
 6577TIP3    H219696   4.306   1.886   2.579  0.4519  1.1718  0.8961
 6578TIP3   OH219697   1.244   1.593   0.486  0.0953 -0.5213 -0.1959
 6578TIP3    H119698   1.333   1.606   0.453 -0.0549 -0.8731 -0.7489
 6578TIP3    H219699   1.255   1.570   0.578  0.5363  0.2124 -0.0550
 6579TIP3   OH219700   4.211   2.661   4.826  0.2565  0.0749 -0.4142
 6579TIP3    H119701   4.116   2.653   4.836  0.5055 -2.9061  0.9955
 6579TIP3    H219702   4.224   2.693   4.737 -2.0583 -0.2333 -0.9312
 6580TIP3   OH219703   5.877   2.047   2.163  0.0819  0.3344  0.2811
 6580TIP3    H119704   5.820   2.062   2.088  0.3526  1.7657  0.3274
 6580TIP3    H219705   5.963   2.030   2.126  0.3614  1.7260  0.2623
 6581TIP3   OH219706   0.068   2.105   4.158  0.0724  0.7213  0.2496
 6581TIP3    H119707   0.108   2.095   4.072 -0.6909  1.2242 -0.1729
 6581TIP3    H219708   0.017   2.185   4.152 -1.9731 -0.4995  0.3602
 6582TIP3   OH219709   3.414   0.733   1.813  0.1260  0.3105 -0.0049
 6582TIP3    H119710   3.504   0.715   1.839  0.0042 -2.5929 -1.2538
 6582TIP3    H219711   3.365   0.655   1.839 -2.0189  1.6804  0.3581
 6583TIP3   OH219712   0.183   1.065   4.928  0.6038 -0.2599  0.1133
 6583TIP3    H119713   0.208   1.082   5.019  0.8367 -0.9361  0.1862
 6583TIP3    H219714   0.087   1.060   4.930  0.5264  0.9262  0.0920
 6584TIP3   OH219715   3.435   0.001   3.146  0.1865 -0.0990 -0.4377
 6584TIP3    H119716   3.481   0.082   3.126 -1.0018  0.3457 -1.4984
 6584TIP3    H219717   3.363  -0.002   3.084 -0.8345 -1.0921  0.7322
 6585TIP3   OH219718   3.722   6.368   4.756  0.2179  0.4972  0.6852
 6585TIP3    H119719   3.682   6.327   4.832  1.0220  1.1299  1.4811
 6585TIP3    H219720   3.717   6.462   4.774  1.7748  0.6153  0.7045
 6586TIP3   OH219721   2.278   4.739   4.619  0.6455 -0.0945  0.3721
 6586TIP3    H119722   2.288   4.821   4.572  1.8093 -0.8916 -0.8602
 6586TIP3    H219723   2.218   4.687   4.564 -0.8101  0.2177  1.5914
 6587TIP3   OH219724   1.018   2.753   5.180 -0.3914 -0.2159 -0.0428
 6587TIP3    H119725   1.102   2.706   5.182  0.6758  1.6172 -0.1001
 6587TIP3    H219726   1.021   2.810   5.257 -0.5190  1.5926 -1.3238
 6588TIP3   OH219727   3.063   2.073   5.740 -0.2339  0.1131  0.3927
 6588TIP3    H119728   3.074   2.020   5.818  2.7105  1.1976  0.8683
 6588TIP3    H219729   3.110   2.025   5.671  3.5072  2.3575  1.0933
 6589TIP3   OH219730   4.663   3.487   4.850 -0.0596  0.3932 -0.1838
 6589TIP3    H119731   4.678   3.480   4.945 -0.8429 -1.3073 -0.1577
 6589TIP3    H219732   4.675   3.580   4.831  0.8358  0.6501  1.4577
 6590TIP3   OH219733   6.936   5.706   2.345 -0.3717  0.1200 -0.6459
 6590TIP3    H119734   6.843   5.687   2.335 -0.8298  0.6991  1.8471
 6590TIP3    H219735   6.942   5.802   2.347  0.1745  0.0829 -0.0630
 6591TIP3   OH219736   3.426   6.379   1.956  0.3276  0.0454 -0.4053
 6591TIP3    H119737   3.341   6.341   1.978  0.2400  0.4712  0.0250
 6591TIP3    H219738   3.444   6.349   1.867  0.4278 -1.2820  0.0446
 6592TIP3   OH219739   7.104   1.081   4.997  0.3228  0.0659 -0.2419
 6592TIP3    H119740   7.106   1.139   5.073  3.2338 -2.2355  1.6830
 6592TIP3    H219741   7.023   1.031   5.006  0.9671 -0.7021  1.9016
 6593TIP3   OH219742   4.784   6.703   2.580 -0.2571  1.2234 -0.5064
 6593TIP3    H119743   4.728   6.689   2.657  1.5256 -2.6157  0.3478
 6593TIP3    H219744   4.723   6.696   2.505 -1.3732  0.1119  0.4560
 6594TIP3   OH219745   5.660   0.275   4.129  0.5561 -0.1990 -0.1420
 6594TIP3    H119746   5.727   0.330   4.089  1.3004 -0.7090  0.3924
 6594TIP3    H219747   5.672   0.286   4.223 -0.9045  0.6515 -0.0096
 6595TIP3   OH219748   3.321   5.545   3.185  0.3918 -0.1268 -0.6157
 6595TIP3    H119749   3.300   5.602   3.259 -1.0278  0.8806 -1.7254
 6595TIP3    H219750   3.259   5.472   3.194  0.6123 -0.2971 -0.4880
 6596TIP3   OH219751   0.374   1.545   4.929 -0.2747 -0.2702 -0.5052
 6596TIP3    H119752   0.299   1.516   4.877 -0.4000 -1.0135  0.0709
 6596TIP3    H219753   0.340   1.616   4.983 -0.5183 -0.4916 -0.3664
 6597TIP3   OH219754   0.608   0.315   0.993  0.5487  0.0389 -0.4352
 6597TIP3    H119755   0.699   0.340   0.979 -0.4496  2.4685 -3.9643
 6597TIP3    H219756   0.560   0.398   0.988 -2.0827 -1.4568 -1.7450
 6598TIP3   OH219757   5.202   6.179   4.081 -0.1231 -0.1645 -0.5154
 6598TIP3    H119758   5.182   6.088   4.059  1.6186 -0.7616  0.2080
 6598TIP3    H219759   5.275   6.202   4.024 -0.8478  0.9531 -1.0165
 6599TIP3   OH219760   7.195   3.371   2.930 -0.2034 -0.1252 -0.0854
 6599TIP3    H119761   7.158   3.444   2.879 -2.9471 -1.1148  0.3443
 6599TIP3    H219762   7.271   3.344   2.879  0.4605  2.5035 -0.6687
 6600TIP3   OH219763   4.093   0.009   1.369  0.0328 -0.2522 -0.9895
 6600TIP3    H119764   4.016  -0.045   1.355 -1.0445  0.6551  1.0585
 6600TIP3    H219765   4.082   0.045   1.457  3.0377 -0.4754 -0.4120
 6601TIP3   OH219766   2.115   6.374   4.703  0.3509  0.2751  0.0279
 6601TIP3    H119767   2.182   6.344   4.765  1.6134  1.2760 -0.8015
 6601TIP3    H219768   2.103   6.299   4.644 -0.5964 -0.5519  1.2126
 6602TIP3   OH219769   5.916   6.636   1.133  0.1949  0.1967 -0.1201
 6602TIP3    H119770   5.991   6.676   1.089 -0.0753  1.5453  0.5868
 6602TIP3    H219771   5.947   6.615   1.221 -0.1895  0.6054  0.1195
 6603TIP3   OH219772   5.380   3.454   2.793  0.0902  0.3449  0.2890
 6603TIP3    H119773   5.289   3.459   2.764 -0.4959 -0.8872  1.8076
 6603TIP3    H219774   5.375   3.437   2.887  1.8887 -0.4354  0.2860
 6604TIP3   OH219775   0.160   1.577   1.019 -0.3758 -0.0114  0.1771
 6604TIP3    H119776   0.104   1.500   1.014 -0.2540 -0.0776 -0.1534
 6604TIP3    H219777   0.173   1.605   0.928 -0.2847  0.3018  0.2820
 6605TIP3   OH219778   1.302   4.103   4.499 -0.0626 -0.5649 -0.3522
 6605TIP3    H119779   1.212   4.129   4.516  0.1979 -0.2672  0.6503
 6605TIP3    H219780   1.315   4.024   4.551  0.8647  0.5705  1.2378
 6606TIP3   OH219781   3.973   3.621   0.456  0.6110  0.1022 -0.1086
 6606TIP3    H119782   4.023   3.595   0.533  1.6274  1.4117 -0.2899
 6606TIP3    H219783   4.038   3.628   0.387 -0.0457  0.5051 -0.6976
 6607TIP3   OH219784   3.495   2.877   0.140  0.6702 -0.4687 -0.3753
 6607TIP3    H119785   3.494   2.844   0.230  1.2332 -1.2484 -0.6429
 6607TIP3    H219786   3.586   2.906   0.126 -0.2047  3.2096  0.5266
 6608TIP3   OH219787   1.697   1.360   2.544  0.5925  0.0129  0.1465
 6608TIP3    H119788   1.753   1.438   2.544 -0.3067  0.6747  0.0403
 6608TIP3    H219789   1.656   1.360   2.458  0.2699 -0.3445  0.3002
 6609TIP3   OH219790   5.819   3.246   2.429 -0.1004 -0.5511  0.1291
 6609TIP3    H119791   5.819   3.286   2.342  2.2572  2.5295  1.3306
 6609TIP3    H219792   5.901   3.275   2.469 -0.8155 -2.2772  3.2177
 6610TIP3   OH219793   6.469   0.053   1.112  0.4884 -0.1307  0.0128
 6610TIP3    H119794   6.513   0.020   1.034  1.3799 -0.7142  0.7479
 6610TIP3    H219795   6.441  -0.025   1.159 -0.2160  0.2208  0.1834
 6611TIP3   OH219796   5.446   2.962   1.200  0.0914  0.2967 -0.2246
 6611TIP3    H119797   5.446   3.053   1.228  1.9185  0.5106 -0.8113
 6611TIP3    H219798   5.496   2.916   1.268  0.4313 -0.0121 -0.6795
 6612TIP3   OH219799   6.163   6.705   1.591 -0.0413 -0.1125  0.4372
 6612TIP3    H119800   6.138   6.797   1.595 -1.5072 -0.5117  3.7468
 6612TIP3    H219801   6.259   6.706   1.594  0.1248  1.2556 -2.2955
 6613TIP3   OH219802   1.378   1.456   5.225  0.3763  0.1237 -0.4103
 6613TIP3    H119803   1.304   1.423   5.277  1.2487 -1.3485 -0.0498
 6613TIP3    H219804   1.337   1.493   5.146 -0.8398  0.7982  0.5042
 6614TIP3   OH219805   3.822   2.926   3.782 -0.1330 -0.3103 -0.6254
 6614TIP3    H119806   3.874   3.005   3.769 -0.0682 -0.2321  0.0612
 6614TIP3    H219807   3.876   2.856   3.746  0.6676 -0.2945  0.4809
 6615TIP3   OH219808   4.327   5.887   0.068 -0.2364 -0.2980 -0.2824
 6615TIP3    H119809   4.290   5.801   0.089 -1.7517  0.1692 -0.9322
 6615TIP3    H219810   4.332   5.888  -0.028  0.7672 -0.0383 -0.2451
 6616TIP3   OH219811   4.026   6.186   3.462  0.7421  0.3144  0.4032
 6616TIP3    H119812   4.114   6.212   3.490  1.3049 -0.2770 -0.7753
 6616TIP3    H219813   4.021   6.093   3.484  1.6260 -0.4819 -2.3481
 6617TIP3   OH219814   4.147   2.816   2.276 -0.6110  0.0269 -0.3512
 6617TIP3    H119815   4.094   2.768   2.212  0.4090 -0.8732 -0.5384
 6617TIP3    H219816   4.231   2.830   2.232  0.0516 -0.4676  0.7340
 6618TIP3   OH219817   5.612   2.078   3.468 -0.1408 -0.1782  0.0044
 6618TIP3    H119818   5.680   2.145   3.469 -2.2388  2.0964 -0.2642
 6618TIP3    H219819   5.562   2.097   3.389  1.5851 -4.8146 -2.6225
 6619TIP3   OH219820   5.684   0.278   0.118 -0.3925  0.4318 -0.4799
 6619TIP3    H119821   5.674   0.220   0.042 -1.1407  0.5879 -0.5104
 6619TIP3    H219822   5.680   0.219   0.194 -0.8759  0.4044 -0.5214
 6620TIP3   OH219823   1.649   5.993   5.601  0.2968 -0.1841  0.6283
 6620TIP3    H119824   1.639   6.054   5.528  0.8526 -1.7121 -0.8111
 6620TIP3    H219825   1.617   5.909   5.566 -2.1965 -0.4111  3.1154
 6621TIP3   OH219826   4.469   5.844   1.132 -0.0648 -0.0396 -0.2322
 6621TIP3    H119827   4.424   5.897   1.197  0.4649 -0.3757  0.4190
 6621TIP3    H219828   4.486   5.761   1.176  1.0551  0.0304 -0.5054
 6622TIP3   OH219829   4.910   0.747   4.438 -0.5135 -0.2407 -0.7650
 6622TIP3    H119830   4.839   0.811   4.425  0.9978  1.7042  0.1031
 6622TIP3    H219831   4.964   0.755   4.359  0.7204  1.0093  0.1617
 6623TIP3   OH219832   6.889   6.319   2.048  0.0636  0.3068 -0.2371
 6623TIP3    H119833   6.895   6.268   2.129 -1.0648 -0.3839 -0.5761
 6623TIP3    H219834   6.840   6.398   2.073 -0.2979  0.0865 -0.2419
 6624TIP3   OH219835   6.329   0.603   4.854 -0.0099  0.7925  0.7537
 6624TIP3    H119836   6.381   0.654   4.916 -0.0279  0.9385  0.6499
 6624TIP3    H219837   6.394   0.554   4.803 -0.0285  0.1852  1.3103
 6625TIP3   OH219838   4.952   0.523   4.295 -0.3515 -0.2198  0.0510
 6625TIP3    H119839   4.905   0.562   4.368  0.3611  0.1978  0.2898
 6625TIP3    H219840   4.982   0.438   4.328 -0.0894 -0.0612  0.2163
 6626TIP3   OH219841   4.762   5.144   2.004 -0.3615 -0.2247  0.1205
 6626TIP3    H119842   4.736   5.169   1.916 -0.5240 -0.7998  0.0003
 6626TIP3    H219843   4.838   5.198   2.023  0.0459 -0.5262 -0.6080
 6627TIP3   OH219844   2.834   2.032   0.741 -0.3460  0.1027  0.1459
 6627TIP3    H119845   2.762   1.979   0.776  0.0545  0.1411  1.0570
 6627TIP3    H219846   2.850   2.098   0.809  1.3275 -0.6448  0.5164
 6628TIP3   OH219847   2.658   3.335   2.909 -0.3268 -0.2031 -0.1302
 6628TIP3    H119848   2.644   3.270   2.840 -2.5651  0.9148 -0.8388
 6628TIP3    H219849   2.600   3.307   2.980 -0.0883  0.1311  0.1989
 6629TIP3   OH219850   1.528   0.790   0.263 -0.2474 -0.5573  0.0398
 6629TIP3    H119851   1.611   0.832   0.283  0.0970 -0.4934 -1.4258
 6629TIP3    H219852   1.552   0.701   0.237 -0.7456 -0.8667  0.5965
 6630TIP3   OH219853   0.305   2.360   0.520  0.0678 -0.4696  0.2280
 6630TIP3    H119854   0.258   2.439   0.546  0.8036  0.2100 -0.4761
 6630TIP3    H219855   0.235   2.298   0.498 -0.5112  0.1408  0.2855
 6631TIP3   OH219856   6.727   4.320   4.427 -0.0435 -0.9230 -0.5573
 6631TIP3    H119857   6.658   4.257   4.404 -0.0096 -1.1600 -0.0099
 6631TIP3    H219858   6.710   4.343   4.518 -0.1495 -0.0085 -0.7956
 6632TIP3   OH219859   6.797   5.001   0.128  0.3290 -0.0607 -0.1253
 6632TIP3    H119860   6.710   5.039   0.122  0.7486  1.0964  0.8496
 6632TIP3    H219861   6.853   5.072   0.157  1.2064 -1.2976  1.4042
 6633TIP3   OH219862   0.499   6.612   0.662  0.4437 -0.0979 -0.6111
 6633TIP3    H119863   0.558   6.633   0.735 -0.4159 -0.2253  0.1386
 6633TIP3    H219864   0.556   6.608   0.585  1.2070  1.1573 -0.1416
 6634TIP3   OH219865   0.805   1.848   2.685  0.3409  0.2426 -0.2998
 6634TIP3    H119866   0.895   1.844   2.652  0.3138  0.0812 -0.3567
 6634TIP3    H219867   0.812   1.893   2.769  0.5483 -0.2521 -0.0480
 6635TIP3   OH219868   4.255   0.010   2.149  0.2423 -0.6826 -0.2023
 6635TIP3    H119869   4.252   0.071   2.075 -1.1210 -3.3863 -2.6330
 6635TIP3    H219870   4.184   0.038   2.206 -0.5415 -0.1292 -1.3983
 6636TIP3   OH219871   1.402   5.800   5.802  0.4595  0.5052  0.1934
 6636TIP3    H119872   1.328   5.839   5.755  2.8615  2.6658 -2.0943
 6636TIP3    H219873   1.435   5.870   5.858  0.3503 -0.6969  1.8272
 6637TIP3   OH219874   4.409   0.314   5.130 -0.7442  0.3251 -0.1340
 6637TIP3    H119875   4.324   0.354   5.111 -0.0191  1.9787 -0.1523
 6637TIP3    H219876   4.456   0.317   5.047 -0.1430  0.8590  0.2125
 6638TIP3   OH219877   3.227   2.436   2.445 -0.6312  0.1366 -0.0121
 6638TIP3    H119878   3.144   2.473   2.474 -1.7763 -2.2215 -0.1277
 6638TIP3    H219879   3.228   2.451   2.351  0.0803  1.9571  0.2295
 6639TIP3   OH219880   6.757   4.974   5.247 -0.4127 -0.4569 -0.7110
 6639TIP3    H119881   6.680   5.000   5.297 -0.5130 -0.8247 -0.6670
 6639TIP3    H219882   6.741   4.881   5.226  0.4631 -0.8067  0.1300
 6640TIP3   OH219883   1.226   0.539   4.929 -0.1340  0.9078  0.1705
 6640TIP3    H119884   1.273   0.581   4.857  0.1805  0.4496  0.1038
 6640TIP3    H219885   1.134   0.556   4.910 -0.1013  0.1973 -0.7269
 6641TIP3   OH219886   0.396   4.400   5.455  0.3438 -0.3509  0.6703
 6641TIP3    H119887   0.325   4.446   5.412 -0.1943 -2.6026 -1.0298
 6641TIP3    H219888   0.476   4.434   5.414  0.0281 -0.1457  0.2241
 6642TIP3   OH219889   5.903   5.550   1.473 -0.1671 -0.5715  0.5421
 6642TIP3    H119890   5.998   5.541   1.470 -0.1445 -0.1524 -0.7508
 6642TIP3    H219891   5.870   5.466   1.442 -0.1855 -0.3888  0.0503
 6643TIP3   OH219892   1.652   4.423   0.132 -0.1909  0.0192 -0.7971
 6643TIP3    H119893   1.745   4.442   0.124 -0.3322  0.9900 -0.2654
 6643TIP3    H219894   1.610   4.480   0.068 -0.5085  0.5420 -0.1422
 6644TIP3   OH219895   3.371   5.115   2.945 -0.3866 -0.1410 -0.3678
 6644TIP3    H119896   3.456   5.084   2.976 -1.0330 -2.6228 -0.9313
 6644TIP3    H219897   3.369   5.207   2.972  2.1478 -0.2039  0.3142
 6645TIP3   OH219898   2.830   2.779   0.484 -0.0611  0.2961  0.0830
 6645TIP3    H119899   2.830   2.768   0.389 -0.5070 -0.4858  0.1654
 6645TIP3    H219900   2.742   2.755   0.511 -0.0703  0.9363  0.6558
 6646TIP3   OH219901   1.835   3.444   2.725 -0.4100 -0.4913 -0.6443
 6646TIP3    H119902   1.868   3.401   2.804  0.9760  0.5114 -0.6424
 6646TIP3    H219903   1.880   3.529   2.724  1.0565 -1.2179 -3.5316
 6647TIP3   OH219904   1.403   3.065   1.725  0.2011  0.0711 -0.4589
 6647TIP3    H119905   1.455   3.010   1.783  1.6805 -0.0106 -1.8046
 6647TIP3    H219906   1.445   3.151   1.729  0.3495  0.0583 -1.4140
 6648TIP3   OH219907   1.642   5.691   2.397 -0.5351 -0.1492  0.2565
 6648TIP3    H119908   1.555   5.728   2.412 -0.9970 -1.0120 -0.2386
 6648TIP3    H219909   1.648   5.618   2.458 -0.4045 -0.4854 -0.1614
 6649TIP3   OH219910   3.676   6.049   0.350  0.1903  0.1282 -0.1101
 6649TIP3    H119911   3.686   6.063   0.255  0.7960 -0.0846 -0.0789
 6649TIP3    H219912   3.595   6.096   0.372 -1.4550 -2.0039 -1.2026
 6650TIP3   OH219913   3.423   4.023   3.180 -0.3060  0.6652 -0.0306
 6650TIP3    H119914   3.399   4.114   3.199 -0.4260  0.7721 -0.6754
 6650TIP3    H219915   3.507   4.011   3.226  0.0782  1.3298 -0.5356
 6651TIP3   OH219916   2.663   4.208   3.390  0.0136  0.2696 -0.1367
 6651TIP3    H119917   2.579   4.179   3.353  0.4576  0.4536 -1.3454
 6651TIP3    H219918   2.725   4.140   3.364  0.8802  1.7381 -2.2130
 6652TIP3   OH219919   1.313   0.265   3.743 -0.2440 -0.1517 -0.3186
 6652TIP3    H119920   1.401   0.237   3.769  0.5721  2.4728  0.0453
 6652TIP3    H219921   1.255   0.227   3.808  1.0464  0.9144  1.5526
 6653TIP3   OH219922   5.668   5.652   0.772  0.6853 -0.2410  0.0109
 6653TIP3    H119923   5.696   5.653   0.680  0.0818 -0.2454 -0.1784
 6653TIP3    H219924   5.649   5.560   0.790  0.7559 -0.2330  0.1296
 6654TIP3   OH219925   1.625   6.585   4.953 -0.5309 -0.5938  0.5139
 6654TIP3    H119926   1.670   6.522   4.896  0.2496 -0.2809  0.7778
 6654TIP3    H219927   1.694   6.642   4.986 -1.2336  0.4020  0.2983
 6655TIP3   OH219928   6.434   3.301   2.408  0.2302 -0.0493 -0.8717
 6655TIP3    H119929   6.497   3.254   2.462 -0.8360  0.2951  0.7505
 6655TIP3    H219930   6.408   3.238   2.341 -0.9413 -1.7573  1.0626
 6656TIP3   OH219931   2.341   3.543   2.405 -0.7787  0.0124  0.1494
 6656TIP3    H119932   2.420   3.588   2.436 -0.6992 -2.2199  3.7441
 6656TIP3    H219933   2.298   3.514   2.485 -3.2942 -2.1119 -1.8346
 6657TIP3   OH219934   3.149   3.977   5.815  0.4358 -0.2447  0.1011
 6657TIP3    H119935   3.161   3.960   5.908  0.0068 -1.6722 -0.0830
 6657TIP3    H219936   3.238   3.972   5.778  0.5514 -0.1186  0.3623
 6658TIP3   OH219937   1.344   2.376   2.376 -0.4071  0.3930  0.9239
 6658TIP3    H119938   1.264   2.409   2.335  0.5773  0.0517 -1.4339
 6658TIP3    H219939   1.337   2.281   2.369  0.3694  0.3691  0.3336
 6659TIP3   OH219940   4.750   5.030   2.463 -0.2861  0.0738  0.7725
 6659TIP3    H119941   4.783   5.010   2.551  0.2413  1.1312  0.8218
 6659TIP3    H219942   4.799   4.972   2.405  0.4633  0.4537  1.0207
 6660TIP3   OH219943   5.609   2.083   5.234 -0.7994 -0.4726  0.4932
 6660TIP3    H119944   5.597   1.991   5.210  1.0852 -0.6265 -0.0552
 6660TIP3    H219945   5.547   2.098   5.305 -1.1306 -2.1642  0.5985
 6661TIP3   OH219946   0.185   3.706   2.060  0.2654 -0.2529  0.1473
 6661TIP3    H119947   0.207   3.771   2.127  0.7508 -0.1516 -0.1011
 6661TIP3    H219948   0.247   3.724   1.988  1.1672 -1.6935  0.5222
 6662TIP3   OH219949   1.881   5.316   5.184 -0.4748  0.3411 -0.1961
 6662TIP3    H119950   1.856   5.382   5.249 -1.8993  0.6814 -1.0417
 6662TIP3    H219951   1.965   5.346   5.151 -0.4641  1.0001  0.3992
 6663TIP3   OH219952   0.086   0.063   3.655 -0.0105  0.9397 -0.1641
 6663TIP3    H119953   0.180   0.046   3.653 -0.4869 -2.3941 -2.8707
 6663TIP3    H219954   0.055   0.018   3.734  0.3260 -0.8646 -1.0188
 6664TIP3   OH219955   2.276   5.795   3.130  0.1265  0.2993  0.2484
 6664TIP3    H119956   2.199   5.746   3.100  0.8599  0.1917 -1.5510
 6664TIP3    H219957   2.284   5.771   3.223 -0.1875 -2.1697 -0.2841
 6665TIP3   OH219958   0.714   3.738   1.044  0.4418 -0.2969 -0.1384
 6665TIP3    H119959   0.728   3.833   1.042 -0.7204 -0.0920  0.2769
 6665TIP3    H219960   0.646   3.725   1.111  0.6437 -1.4325 -0.1283
 6666TIP3   OH219961   2.920   0.061   3.278  0.2175  0.1581  0.4335
 6666TIP3    H119962   2.938  -0.009   3.341 -1.8699  0.1106  1.0509
 6666TIP3    H219963   2.825   0.074   3.283  0.1882  1.1512 -1.6850
 6667TIP3   OH219964   5.131   4.613   4.726  0.3995 -0.1545  0.3866
 6667TIP3    H119965   5.165   4.561   4.799  0.9703 -0.0189  0.2256
 6667TIP3    H219966   5.106   4.697   4.765  0.4352 -0.1852  0.4757
 6668TIP3   OH219967   6.804   5.740   0.144 -0.1079  0.4425 -0.2713
 6668TIP3    H119968   6.844   5.742   0.231 -0.0705 -0.5610 -0.2566
 6668TIP3    H219969   6.808   5.648   0.118  1.8346  1.0006 -2.2213
 6669TIP3   OH219970   0.054   6.197   0.751 -0.2010  0.5871 -0.0426
 6669TIP3    H119971   0.088   6.285   0.762 -1.1194  1.0870 -1.0895
 6669TIP3    H219972   0.074   6.153   0.834  2.8279  0.8669 -0.4820
 6670TIP3   OH219973   6.195   2.309   4.165 -0.0990  0.2917 -0.0427
 6670TIP3    H119974   6.109   2.317   4.123 -0.4410 -0.0616  0.5604
 6670TIP3    H219975   6.194   2.378   4.232  0.7111  1.3034 -1.0327
 6671TIP3   OH219976   3.930   5.845   1.654 -0.0326  0.0408  0.6745
 6671TIP3    H119977   3.919   5.828   1.747 -1.6864  0.7997  0.6402
 6671TIP3    H219978   3.925   5.758   1.613 -0.3884 -0.1831  1.1904
 6672TIP3   OH219979   2.233   5.352   3.711 -0.0698  0.0389  0.2390
 6672TIP3    H119980   2.305   5.291   3.696 -1.8047 -1.7654 -1.3137
 6672TIP3    H219981   2.193   5.321   3.792  0.0378  0.1672  0.3425
 6673TIP3   OH219982   2.790   3.920   4.892  0.2254  0.1625  0.6637
 6673TIP3    H119983   2.798   3.866   4.814  0.5931 -2.1327  2.1687
 6673TIP3    H219984   2.821   3.864   4.963 -0.4565  1.9991  2.5341
 6674TIP3   OH219985   3.139   5.471   2.903  0.4042 -0.1223 -0.3687
 6674TIP3    H119986   3.173   5.391   2.864 -0.6203 -0.4622 -0.6040
 6674TIP3    H219987   3.142   5.535   2.832  1.8949  0.2799  0.0118
 6675TIP3   OH219988   4.860   3.873   3.134 -0.0856  0.6373 -0.0757
 6675TIP3    H119989   4.841   3.964   3.153  2.4725  1.1456  0.3295
 6675TIP3    H219990   4.834   3.825   3.213 -0.8222  1.0598 -0.0493
 6676TIP3   OH219991   2.412   3.707   5.655  0.4205 -0.3116 -0.0905
 6676TIP3    H119992   2.372   3.777   5.706  1.1832 -1.2426  1.8815
 6676TIP3    H219993   2.472   3.752   5.595  0.7584  0.7550  1.0183
 6677TIP3   OH219994   4.144   2.305   2.014  0.4172  1.0714 -0.5849
 6677TIP3    H119995   4.129   2.243   2.085  0.8244 -0.7795 -2.0453
 6677TIP3    H219996   4.058   2.342   1.995  0.1455  0.8609  0.2050
 6678TIP3   OH219997   3.265   0.734   4.447 -0.1513  0.1201  0.1783
 6678TIP3    H119998   3.329   0.732   4.518  0.0400  3.6775  0.3289
 6678TIP3    H219999   3.311   0.780   4.376 -2.0502  1.6116 -0.1630
 6679TIP3   OH220000   5.681   6.721   1.591 -0.4787  0.3334  0.5283
 6679TIP3    H120001   5.621   6.647   1.601  1.2130 -0.8913  2.0165
 6679TIP3    H220002   5.735   6.720   1.669  0.6634  2.1970 -0.1699
 6680TIP3   OH220003   2.161   5.702   5.673  0.3944 -0.3087 -0.1809
 6680TIP3    H120004   2.149   5.706   5.768 -1.6219 -2.4325 -0.2699
 6680TIP3    H220005   2.079   5.734   5.637  0.7622 -0.4900 -1.2055
 6681TIP3   OH220006   4.405   4.652   2.596 -0.0317  0.2479  0.0280
 6681TIP3    H120007   4.486   4.632   2.549 -1.4485 -0.2625 -2.3474
 6681TIP3    H220008   4.388   4.744   2.577 -0.2992  0.2125  0.1005
 6682TIP3   OH220009   5.775   3.579   1.265  0.0148  0.1133  0.1383
 6682TIP3    H120010   5.803   3.616   1.181 -0.6301  1.7824  0.6364
 6682TIP3    H220011   5.748   3.654   1.317 -2.9137 -1.1226  0.6204
 6683TIP3   OH220012   2.206   4.533   3.228  0.3053  0.0672  0.0698
 6683TIP3    H120013   2.119   4.562   3.257 -0.3600 -0.6584 -1.1002
 6683TIP3    H220014   2.200   4.438   3.227  0.5417  0.0353 -1.6063
 6684TIP3   OH220015   3.579   1.370   4.361 -0.2078 -0.2914 -0.0098
 6684TIP3    H120016   3.661   1.328   4.385 -0.8905 -1.7271 -0.0798
 6684TIP3    H220017   3.542   1.401   4.444  0.4565  0.4925  0.0044
 6685TIP3   OH220018   6.031   1.378   1.564 -0.1009 -0.3207 -0.3180
 6685TIP3    H120019   6.019   1.290   1.599  0.8289  0.4210  2.1093
 6685TIP3    H220020   5.952   1.425   1.592  0.8709  0.4066  1.4158
 6686TIP3   OH220021   1.813   1.128   0.229  0.1937  0.6930  0.2382
 6686TIP3    H120022   1.807   1.033   0.243  1.9462  0.2081 -1.8483
 6686TIP3    H220023   1.743   1.148   0.167  1.9387  0.0476 -2.0866
 6687TIP3   OH220024   5.152   0.380   2.212  0.6103  0.1984 -1.0276
 6687TIP3    H120025   5.096   0.303   2.219  0.1055  0.7142  1.3504
 6687TIP3    H220026   5.238   0.350   2.241  0.3855  0.5341  0.0154
 6688TIP3   OH220027   0.635   1.524   1.651  0.2144  0.2265 -0.1502
 6688TIP3    H120028   0.640   1.610   1.610  0.1387 -0.1019 -0.8620
 6688TIP3    H220029   0.564   1.531   1.714  0.6074  0.8635  0.2280
 6689TIP3   OH220030   4.192   4.897   1.388 -0.5568 -0.2911  0.3997
 6689TIP3    H120031   4.262   4.892   1.324 -0.4438  2.1419  0.2326
 6689TIP3    H220032   4.235   4.929   1.468 -1.1868 -0.4482  0.8072
 6690TIP3   OH220033   1.849   1.787   0.531 -0.1724  0.0587 -0.0246
 6690TIP3    H120034   1.898   1.868   0.544  0.5460 -0.3405 -0.1315
 6690TIP3    H220035   1.917   1.720   0.519 -0.7553 -0.4320 -0.6899
 6691TIP3   OH220036   4.483   4.206   4.049  0.1095  0.1712 -0.2469
 6691TIP3    H120037   4.413   4.176   3.991 -0.2743  0.2056  0.1941
 6691TIP3    H220038   4.481   4.301   4.043  1.1458  0.1371 -1.4325
 6692TIP3   OH220039   0.833   5.789   0.476 -0.4932  0.0972  0.1142
 6692TIP3    H120040   0.841   5.792   0.571 -1.3239 -3.1736  0.3999
 6692TIP3    H220041   0.877   5.708   0.450 -3.5490 -1.1688 -1.7494
 6693TIP3   OH220042   5.296   4.428   2.598 -0.3995  0.3286 -0.2807
 6693TIP3    H120043   5.241   4.503   2.576 -0.2848  0.7901  0.9317
 6693TIP3    H220044   5.368   4.464   2.649  0.8079 -0.3368 -1.4396
 6694TIP3   OH220045   5.102   3.412   4.215  0.3173 -0.2203 -0.2231
 6694TIP3    H120046   5.188   3.453   4.212  0.3664 -0.1511  1.3793
 6694TIP3    H220047   5.041   3.485   4.206  0.3549 -0.4208 -3.0562
 6695TIP3   OH220048   4.485   4.591   0.973 -0.5854 -0.6275  0.0511
 6695TIP3    H120049   4.452   4.501   0.970  0.0125 -0.8346 -1.1564
 6695TIP3    H220050   4.537   4.600   0.892  0.3066  0.4393  0.7150
 6696TIP3   OH220051   5.131   3.122   2.318  0.0804 -0.0214 -0.2494
 6696TIP3    H120052   5.080   3.083   2.389 -0.9988  1.9876  0.1498
 6696TIP3    H220053   5.078   3.107   2.240 -0.3311  0.5929 -0.0972
 6697TIP3   OH220054   5.084   3.191   1.704  0.0582 -0.1077 -0.4953
 6697TIP3    H120055   5.030   3.210   1.780  0.0562  0.5509 -0.6537
 6697TIP3    H220056   5.091   3.275   1.658 -1.2077 -0.8215 -2.0507
 6698TIP3   OH220057   1.996   4.528   0.807  0.5632 -0.5208 -0.1158
 6698TIP3    H120058   2.019   4.534   0.714  1.0834 -0.6576 -0.0028
 6698TIP3    H220059   1.931   4.458   0.812  1.7052 -1.6285 -0.1824
 6699TIP3   OH220060   2.172   5.454   1.161  0.6725  0.1153 -0.1105
 6699TIP3    H120061   2.254   5.467   1.113  1.5123 -1.1450  0.9007
 6699TIP3    H220062   2.104   5.468   1.096  1.6918  0.9398 -1.0441
 6700TIP3   OH220063   0.852   0.263   4.767 -0.0877 -0.2879 -0.0616
 6700TIP3    H120064   0.788   0.320   4.809 -0.4825 -0.4663 -0.4206
 6700TIP3    H220065   0.847   0.285   4.674  1.0618  0.3862  0.0118
 6701TIP3   OH220066   4.315   6.279   1.194 -0.3262  0.4435  0.4618
 6701TIP3    H120067   4.277   6.233   1.269  0.3414  0.0830  0.5903
 6701TIP3    H220068   4.242   6.291   1.134 -0.6311 -0.2816  0.6786
 6702TIP3   OH220069   6.221   6.018   0.142 -0.3190  0.0236  0.1010
 6702TIP3    H120070   6.184   6.076   0.076  0.9999  0.7157 -0.0708
 6702TIP3    H220071   6.168   6.034   0.220  0.1386  1.6558  0.1243
 6703TIP3   OH220072   5.039   0.585   1.102 -0.1773  0.3764 -0.2313
 6703TIP3    H120073   5.129   0.589   1.069  0.3101 -1.3552  0.7447
 6703TIP3    H220074   5.048   0.563   1.195 -1.5949  1.6305  0.2536
 6704TIP3   OH220075   0.164   6.509   3.149 -0.0911  0.0742  0.1265
 6704TIP3    H120076   0.216   6.507   3.229  0.7299 -0.8452 -0.4083
 6704TIP3    H220077   0.227   6.490   3.079 -1.2990 -2.1560 -0.4421
 6705TIP3   OH220078   6.239   4.247   5.680 -0.3864  0.3539 -0.2024
 6705TIP3    H120079   6.220   4.207   5.595 -1.5422  1.9243 -0.7249
 6705TIP3    H220080   6.188   4.195   5.743  0.1437 -0.5557 -0.5084
 6706TIP3   OH220081   6.197   3.512   1.103  0.2000  0.2785  0.0418
 6706TIP3    H120082   6.234   3.446   1.161 -1.5297 -0.4807  0.3506
 6706TIP3    H220083   6.236   3.495   1.018 -0.5051 -1.4382  0.0275
 6707TIP3   OH220084   1.763   2.269   1.045 -0.1318 -0.2084  0.0483
 6707TIP3    H120085   1.749   2.353   1.089  0.1473 -0.1093 -0.0473
 6707TIP3    H220086   1.766   2.205   1.116  2.5280  0.2061  0.4225
 6708TIP3   OH220087   4.739   3.967   4.049  0.0162 -0.6383  0.6101
 6708TIP3    H120088   4.713   3.980   4.140 -0.2148  2.0089  0.2399
 6708TIP3    H220089   4.661   3.928   4.008 -0.6229  0.0466  1.1381
 6709TIP3   OH220090   3.607   5.181   0.609  0.0753 -0.2912 -0.0907
 6709TIP3    H120091   3.638   5.097   0.575 -0.0671 -0.0081 -0.9595
 6709TIP3    H220092   3.672   5.206   0.675 -0.8418 -1.9342  1.5167
 6710TIP3   OH220093   5.171   5.923   0.968 -0.3194  0.0584 -0.0117
 6710TIP3    H120094   5.217   5.865   0.907  0.5687 -1.4126  1.9437
 6710TIP3    H220095   5.114   5.865   1.017 -0.4413  1.0661  1.0805
 6711TIP3   OH220096   5.191   1.489   3.679 -0.3037 -0.0163  0.2254
 6711TIP3    H120097   5.105   1.501   3.720  0.1395 -0.7094  1.4279
 6711TIP3    H220098   5.252   1.532   3.740  0.2332  0.2266 -0.4766
 6712TIP3   OH220099   1.829   0.242   1.677  0.3075 -0.0912 -0.0892
 6712TIP3    H120100   1.855   0.328   1.644  0.9998  0.3888  1.6171
 6712TIP3    H220101   1.733   0.244   1.676  0.3138  0.4391 -0.6715
 6713TIP3   OH220102   5.649   2.555   5.736 -0.4211 -0.4254  0.5022
 6713TIP3    H120103   5.724   2.614   5.730 -1.1862  0.4277 -2.0131
 6713TIP3    H220104   5.669   2.485   5.674 -2.0983  0.3644 -1.0147
 6714TIP3   OH220105   6.356   2.705   5.109 -0.4562  0.2676  0.1575
 6714TIP3    H120106   6.347   2.610   5.117  1.0694  0.1681  1.0661
 6714TIP3    H220107   6.442   2.724   5.147 -0.3001  1.8983 -0.9257
 6715TIP3   OH220108   1.689   6.080   4.898 -0.0937 -0.3109  0.1788
 6715TIP3    H120109   1.691   6.018   4.825 -1.5080 -3.7301  2.7087
 6715TIP3    H220110   1.607   6.128   4.887  0.3566  0.1711 -1.1475
 6716TIP3   OH220111   5.286   3.940   3.884  0.0979 -0.0779 -0.2596
 6716TIP3    H120112   5.376   3.969   3.867  1.8587 -3.2087  2.4898
 6716TIP3    H220113   5.271   3.871   3.819 -0.4347  0.5471 -0.8168
 6717TIP3   OH220114   5.491   5.994   3.639 -0.0105 -0.0249  0.7606
 6717TIP3    H120115   5.457   5.907   3.659 -0.6695  0.2745  0.9956
 6717TIP3    H220116   5.543   6.018   3.715  0.1516 -0.1980  0.7062
 6718TIP3   OH220117   3.599   0.949   2.707  0.3051 -0.5198 -0.1379
 6718TIP3    H120118   3.558   0.867   2.734  1.2358 -1.3687 -1.2212
 6718TIP3    H220119   3.690   0.941   2.736  0.4665  0.0299 -0.4851
 6719TIP3   OH220120   0.144   0.279   4.614 -0.0414 -0.1472 -0.6578
 6719TIP3    H120121   0.120   0.326   4.694 -0.7215 -0.3291 -0.7473
 6719TIP3    H220122   0.099   0.195   4.622  1.7547 -1.1144 -0.1403
 6720TIP3   OH220123   1.159   3.682   2.713 -0.1898 -0.0124 -0.6094
 6720TIP3    H120124   1.067   3.659   2.728 -0.4348  0.6364 -1.0982
 6720TIP3    H220125   1.207   3.624   2.773 -0.9075 -0.3756 -0.3614
 6721TIP3   OH220126   5.227   6.289   2.561  0.0567  0.0414  0.2601
 6721TIP3    H120127   5.320   6.267   2.566  0.0009 -0.1694  0.3845
 6721TIP3    H220128   5.209   6.337   2.642 -0.0186 -0.2045  0.3888
 6722TIP3   OH220129   0.319   2.264   3.738  0.0890  0.5008  0.0030
 6722TIP3    H120130   0.351   2.183   3.698 -0.5725 -0.1873  0.8334
 6722TIP3    H220131   0.231   2.275   3.702 -0.3252  0.1355  0.8744
 6723TIP3   OH220132   5.294   2.048   4.903  0.2175  0.1219  0.3493
 6723TIP3    H120133   5.268   2.076   4.815 -0.1378 -3.1231 -0.6869
 6723TIP3    H220134   5.347   2.121   4.936  0.7613  1.2722 -2.7170
 6724TIP3   OH220135   6.780   5.079   3.319  0.2188 -0.6249 -0.3192
 6724TIP3    H120136   6.795   5.131   3.240 -1.2474 -1.3795 -1.1445
 6724TIP3    H220137   6.839   5.116   3.384  0.2966  1.0647 -1.3038
 6725TIP3   OH220138   3.092   1.656   2.418 -0.1037  0.1147  0.5888
 6725TIP3    H120139   3.138   1.585   2.461  0.2886  0.1099  0.1692
 6725TIP3    H220140   3.034   1.613   2.355 -0.2312  0.1452  0.6856
 6726TIP3   OH220141   4.057   1.805   0.984  0.3821 -0.4075 -0.7859
 6726TIP3    H120142   4.111   1.756   1.046  0.3787  0.9187  0.3297
 6726TIP3    H220143   3.996   1.853   1.039  0.2659  0.6878 -1.8295
 6727TIP3   OH220144   1.461   5.148   3.241 -0.3816 -0.2733  0.5918
 6727TIP3    H120145   1.464   5.171   3.334  2.5544 -0.4851  0.6371
 6727TIP3    H220146   1.553   5.144   3.214 -1.1188  2.1740 -2.9457
 6728TIP3   OH220147   0.611   0.180   5.757 -0.2558  0.0145 -0.0417
 6728TIP3    H120148   0.682   0.227   5.714 -0.5767  0.4932 -0.0489
 6728TIP3    H220149   0.653   0.137   5.832 -0.0561  0.7317  0.2633
 6729TIP3   OH220150   4.817   2.045   1.756 -0.0095 -0.2431 -0.8875
 6729TIP3    H120151   4.742   2.105   1.765  0.6052  0.7998 -2.3264
 6729TIP3    H220152   4.870   2.084   1.687  0.8453 -2.0531 -1.3001
 6730TIP3   OH220153   5.695   1.725   1.597 -0.0100 -0.1758  0.7516
 6730TIP3    H120154   5.610   1.715   1.553  0.2310  0.2505  0.1732
 6730TIP3    H220155   5.692   1.813   1.635  1.0395  0.7802 -1.2386
 6731TIP3   OH220156   0.159   3.900   0.068 -0.2721 -0.2136 -0.8582
 6731TIP3    H120157   0.223   3.969   0.053 -1.4767  1.1020 -0.1893
 6731TIP3    H220158   0.163   3.846  -0.011  1.4483 -0.0358 -0.9354
 6732TIP3   OH220159   0.460   3.711   3.755  0.2728  0.0900  0.1534
 6732TIP3    H120160   0.453   3.701   3.660  0.8450  1.4900 -0.0574
 6732TIP3    H220161   0.542   3.669   3.778  0.5579  0.5051 -0.0977
 6733TIP3   OH220162   1.289   5.404   1.144 -0.6851  0.4392  0.4291
 6733TIP3    H120163   1.203   5.411   1.101 -0.7576 -1.9494  0.0483
 6733TIP3    H220164   1.278   5.334   1.208  1.7497 -2.2570 -1.8577
 6734TIP3   OH220165   0.528   5.372   2.828  0.2569  0.4605  0.0746
 6734TIP3    H120166   0.476   5.414   2.897  1.6787  0.1804  1.3615
 6734TIP3    H220167   0.483   5.289   2.813 -0.4218  0.7962  0.2131
 6735TIP3   OH220168   2.923   6.525   0.893 -0.4227 -0.0076  0.5330
 6735TIP3    H120169   2.851   6.475   0.855  1.1977 -3.1126  1.2251
 6735TIP3    H220170   3.002   6.487   0.854  1.1764 -1.4432  4.5850
 6736TIP3   OH220171   4.208   4.196   1.174 -0.2620  0.2840  0.2388
 6736TIP3    H120172   4.153   4.274   1.186  1.3546  1.2571  2.0098
 6736TIP3    H220173   4.242   4.205   1.085 -2.1874  0.1281 -0.5671
 6737TIP3   OH220174   6.161   5.457   2.306  0.4282 -0.0825  0.1877
 6737TIP3    H120175   6.143   5.491   2.393 -0.8655 -0.1268 -0.0443
 6737TIP3    H220176   6.217   5.523   2.265 -0.1731  0.6632  0.5488
 6738TIP3   OH220177   5.315   2.239   5.674 -0.0985 -0.0317 -0.0094
 6738TIP3    H120178   5.403   2.244   5.710 -0.7105  1.6004  1.3538
 6738TIP3    H220179   5.263   2.200   5.744 -0.8461  0.9341 -0.0175
 6739TIP3   OH220180   2.586   5.081   4.881  0.3318  0.2504  0.0929
 6739TIP3    H120181   2.542   5.074   4.797  0.0662 -0.6417  0.2989
 6739TIP3    H220182   2.610   5.173   4.888  1.3031  0.1323 -1.4266
 6740TIP3   OH220183   1.519   0.778   1.769  0.2516 -0.2905  0.0447
 6740TIP3    H120184   1.593   0.790   1.829  0.9512 -0.1656 -0.8294
 6740TIP3    H220185   1.451   0.837   1.802  1.3728  1.3663 -0.4969
 6741TIP3   OH220186   0.860   5.501   2.936  0.5069  0.1107 -0.4470
 6741TIP3    H120187   0.830   5.443   3.006  0.5400  1.4967  0.7768
 6741TIP3    H220188   0.894   5.442   2.869 -0.0953 -1.2977  0.4304
 6742TIP3   OH220189   0.675   4.308   4.368 -0.1379 -0.0884  0.2590
 6742TIP3    H120190   0.692   4.254   4.290  1.1827 -0.3876  0.7309
 6742TIP3    H220191   0.607   4.369   4.340 -1.0420 -1.4165 -0.5601
 6743TIP3   OH220192   4.632   0.505   0.874  0.2207  0.4955 -0.0782
 6743TIP3    H120193   4.726   0.498   0.857  0.5319 -1.3138  1.9108
 6743TIP3    H220194   4.622   0.590   0.916  1.1811  0.2589  0.6686
 6744TIP3   OH220195   3.062   6.404   3.629 -0.4783  0.0714 -0.0396
 6744TIP3    H120196   2.995   6.441   3.686 -0.5032 -1.6821  1.1468
 6744TIP3    H220197   3.014   6.356   3.562 -0.4319 -0.2038  0.1216
 6745TIP3   OH220198   4.930   1.754   1.518  0.0899  0.4614 -0.0375
 6745TIP3    H120199   4.852   1.777   1.569 -1.3340 -1.2253 -1.3129
 6745TIP3    H220200   4.899   1.754   1.427  0.5902 -3.4628 -0.3928
 6746TIP3   OH220201   3.860   1.465   3.594  0.0442  0.7392 -0.1888
 6746TIP3    H120202   3.830   1.556   3.585 -0.5477  0.7826  1.6391
 6746TIP3    H220203   3.805   1.415   3.534  1.0867  1.6834 -2.0071
 6747TIP3   OH220204   3.048   2.282   4.600 -0.0832 -0.5171  0.3866
 6747TIP3    H120205   2.987   2.233   4.545  1.4756 -1.6075 -0.4460
 6747TIP3    H220206   3.035   2.246   4.688 -2.1979  0.8515  0.7131
 6748TIP3   OH220207   4.114   0.460   0.521  0.1790 -0.0003  0.3036
 6748TIP3    H120208   4.070   0.433   0.601 -2.2694  0.9373 -0.6350
 6748TIP3    H220209   4.181   0.393   0.507 -0.0234 -0.7575  2.5407
 6749TIP3   OH220210   2.189   0.641   3.261 -0.1710 -0.0160 -0.5411
 6749TIP3    H120211   2.123   0.633   3.330  2.1726 -1.5146  1.7407
 6749TIP3    H220212   2.272   0.650   3.309  1.5894 -0.9474 -3.1985
 6750TIP3   OH220213   4.365   5.988   3.110 -0.3092 -0.3378 -0.0285
 6750TIP3    H120214   4.332   5.916   3.162 -1.4089  0.2513  0.1251
 6750TIP3    H220215   4.341   5.965   3.020  2.7862 -2.0189 -0.5532
 6751TIP3   OH220216   5.278   2.914   4.436  0.7245 -0.3247  0.0466
 6751TIP3    H120217   5.222   2.985   4.402  0.9641 -0.4842 -0.7104
 6751TIP3    H220218   5.343   2.959   4.489  0.2868 -0.0710  0.3756
 6752TIP3   OH220219   6.877   5.532   3.450 -0.0832  0.2903 -0.2648
 6752TIP3    H120220   6.904   5.480   3.374 -0.3321  1.7973 -1.4407
 6752TIP3    H220221   6.806   5.482   3.489  1.1275 -1.3265 -0.0157
 6753TIP3   OH220222   4.561   2.789   1.354 -0.2524  0.7316  0.0521
 6753TIP3    H120223   4.640   2.736   1.342 -1.8540 -2.0583  0.8031
 6753TIP3    H220224   4.564   2.814   1.447 -1.5217 -1.8297  0.8788
 6754TIP3   OH220225   3.334   6.704   5.704  0.4663  0.2945 -0.4232
 6754TIP3    H120226   3.325   6.633   5.766  2.3165  0.4771  0.1042
 6754TIP3    H220227   3.392   6.670   5.636  0.1019  0.7788 -0.9909
 6755TIP3   OH220228   6.905   0.772   4.501  0.6661 -0.4894  0.5488
 6755TIP3    H120229   6.999   0.789   4.496  0.7610 -0.1708  2.6287
 6755TIP3    H220230   6.866   0.855   4.527 -0.4396 -0.1792 -1.8134
 6756TIP3   OH220231   1.503   2.703   4.824  0.5234  0.1153  0.3870
 6756TIP3    H120232   1.501   2.799   4.817  0.5339  0.1933  1.3197
 6756TIP3    H220233   1.411   2.677   4.819  0.5088  0.1855  0.2840
 6757TIP3   OH220234   6.719   0.178   4.133  0.0277 -1.0017  0.3668
 6757TIP3    H120235   6.758   0.116   4.195  0.6732 -0.7287  0.2431
 6757TIP3    H220236   6.626   0.177   4.154 -0.0803 -2.5025 -0.0638
 6758TIP3   OH220237   1.917   2.899   0.243 -0.2725  0.1662 -0.2189
 6758TIP3    H120238   1.910   2.814   0.200 -1.6524 -0.0012  0.3014
 6758TIP3    H220239   1.884   2.961   0.178 -2.8188 -0.1405  0.7098
 6759TIP3   OH220240   1.187   5.045   5.589 -0.2520  0.0364 -0.1071
 6759TIP3    H120241   1.218   5.004   5.670 -2.8441 -0.0313  0.9388
 6759TIP3    H220242   1.174   5.137   5.612 -1.6065 -0.1058 -0.2030
 6760TIP3   OH220243   1.695   1.002   5.068 -0.4680  0.2286  0.1493
 6760TIP3    H120244   1.721   1.070   5.006  0.2479  0.6814  0.9160
 6760TIP3    H220245   1.634   1.046   5.127  0.4254  0.3897  0.9863
 6761TIP3   OH220246   4.587   1.600   3.650  0.0257  0.1349 -0.4497
 6761TIP3    H120247   4.570   1.689   3.679 -0.1078 -0.1996  0.5200
 6761TIP3    H220248   4.678   1.583   3.676 -0.0907 -0.1680 -0.2472
 6762TIP3   OH220249   2.944   4.061   3.837 -0.2066 -0.8149  0.2208
 6762TIP3    H120250   2.933   4.131   3.773 -0.0191 -1.0298 -0.0478
 6762TIP3    H220251   2.862   4.060   3.887 -0.2857 -0.5357  0.0967
 6763TIP3   OH220252   0.421   0.770   3.848  0.2960  0.2220  0.7781
 6763TIP3    H120253   0.460   0.761   3.761 -0.8986  0.7655  0.1612
 6763TIP3    H220254   0.445   0.858   3.876 -0.6935  0.6806  0.2589
 6764TIP3   OH220255   1.851   4.184   2.190  0.6320 -0.0428 -0.5535
 6764TIP3    H120256   1.876   4.099   2.227 -2.4979 -0.8724 -0.0146
 6764TIP3    H220257   1.869   4.246   2.260 -1.5335 -1.0537  1.0321
 6765TIP3   OH220258   5.548   4.871   5.649  0.1471  0.1416 -0.1817
 6765TIP3    H120259   5.502   4.861   5.732 -1.5055 -0.0666 -1.0797
 6765TIP3    H220260   5.580   4.962   5.650 -1.1501  0.6231  0.0847
 6766TIP3   OH220261   0.217   3.972   4.986  0.4318  0.2433  0.1528
 6766TIP3    H120262   0.212   4.054   4.936 -3.2710  0.8932  1.2474
 6766TIP3    H220263   0.260   3.997   5.068 -1.7621  1.5002  0.9898
 6767TIP3   OH220264   5.885   3.674   3.315 -0.4456 -0.0036  0.2031
 6767TIP3    H120265   5.825   3.742   3.286 -0.4670 -0.6877 -1.5206
 6767TIP3    H220266   5.868   3.600   3.255 -1.3719 -2.0647  2.8056
 6768TIP3   OH220267   6.445   3.073   5.750  0.2910 -0.2729 -0.1055
 6768TIP3    H120268   6.383   3.107   5.814  0.8328 -0.7313  0.6718
 6768TIP3    H220269   6.466   3.148   5.694 -0.4756  0.0370  0.0126
 6769TIP3   OH220270   0.152   3.704   5.772 -0.9352 -0.4062  0.0095
 6769TIP3    H120271   0.176   3.681   5.682 -2.7840 -1.9971 -0.1446
 6769TIP3    H220272   0.109   3.789   5.765  1.2787  0.7683 -0.1830
 6770TIP3   OH220273   3.872   3.097   1.092 -0.3997  0.7299  0.0119
 6770TIP3    H120274   3.949   3.041   1.098  0.2137  1.5279 -0.2711
 6770TIP3    H220275   3.819   3.058   1.022 -0.3802  0.0452  0.3672
 6771TIP3   OH220276   0.886   4.048   4.981  0.5241 -0.1299  0.4151
 6771TIP3    H120277   0.969   4.074   5.020  1.0964  1.1648 -1.5177
 6771TIP3    H220278   0.835   4.128   4.976 -0.3348 -0.6616  0.3862
 6772TIP3   OH220279   3.245   4.497   1.330  0.6950 -0.0548  0.2227
 6772TIP3    H120280   3.316   4.541   1.375  1.2929 -3.0168  2.5254
 6772TIP3    H220281   3.289   4.437   1.269  0.2328 -1.2920  1.0531
 6773TIP3   OH220282   0.895   3.218   4.806  0.4965 -0.6867  0.0406
 6773TIP3    H120283   0.861   3.174   4.885  0.6905  1.9543  1.7283
 6773TIP3    H220284   0.984   3.184   4.797  0.9289 -0.1518  1.7697
 6774TIP3   OH220285   1.885   0.483   4.164 -0.1458 -0.1695  0.2635
 6774TIP3    H120286   1.795   0.487   4.131 -0.5331  1.2609  1.3542
 6774TIP3    H220287   1.881   0.424   4.239  0.2798 -1.7039 -0.8807
 6775TIP3   OH220288   7.155   0.583   3.754  0.3141 -0.1584 -0.6617
 6775TIP3    H120289   7.075   0.623   3.719  0.2287 -0.9494 -1.3832
 6775TIP3    H220290   7.189   0.530   3.682  1.5500  0.2462 -0.3953
 6776TIP3   OH220291   6.869   1.883   5.820  0.4327 -0.3621  0.4237
 6776TIP3    H120292   6.820   1.890   5.738  0.0993 -0.8206  0.5787
 6776TIP3    H220293   6.856   1.793   5.848  1.1135 -0.4039  0.6314
 6777TIP3   OH220294   3.897   4.339   5.230 -0.2618 -0.2695  0.0714
 6777TIP3    H120295   3.941   4.424   5.229 -1.1403  0.2249  1.2813
 6777TIP3    H220296   3.849   4.336   5.147 -1.7570  1.2818  0.8191
 6778TIP3   OH220297   3.509   1.011   3.510 -0.4354  0.2759  0.5800
 6778TIP3    H120298   3.490   0.945   3.444  0.0302  0.6291  0.0810
 6778TIP3    H220299   3.424   1.046   3.535 -0.6007  0.2936  0.0011
 6779TIP3   OH220300   5.260   0.761   1.332 -0.1172 -0.8190  0.3531
 6779TIP3    H120301   5.344   0.761   1.287 -0.6706  0.1736 -0.7068
 6779TIP3    H220302   5.231   0.670   1.326  0.8321 -1.1645  0.6799
 6780TIP3   OH220303   1.896   1.076   4.473 -0.3217  0.0321 -0.4531
 6780TIP3    H120304   1.815   1.090   4.521 -0.2197 -0.8343 -0.0052
 6780TIP3    H220305   1.878   1.108   4.385 -2.0174 -2.3963 -1.0987
 6781TIP3   OH220306   5.683   5.375   2.463 -0.0563  0.0434 -0.2153
 6781TIP3    H120307   5.772   5.344   2.478  0.0976  0.3875 -0.3993
 6781TIP3    H220308   5.655   5.410   2.548  0.2206  0.5198 -0.3168
 6782TIP3   OH220309   6.761   1.909   2.522  0.2222  0.2095  0.7374
 6782TIP3    H120310   6.684   1.852   2.513  0.5876 -0.1864  0.0850
 6782TIP3    H220311   6.834   1.856   2.492  0.9557  0.1732  2.4543
 6783TIP3   OH220312   7.081   2.703   5.275  0.2146  0.0755  0.2216
 6783TIP3    H120313   7.103   2.775   5.215 -2.2542  0.8163  0.1077
 6783TIP3    H220314   7.008   2.658   5.233 -0.9678  0.0422  2.1953
 6784TIP3   OH220315   1.727   6.752   2.970  0.1411  0.3626  0.4001
 6784TIP3    H120316   1.674   6.678   2.942 -1.7362  1.1737  1.6216
 6784TIP3    H220317   1.737   6.806   2.892 -0.9342  0.2304  0.1624
 6785TIP3   OH220318   0.850   1.514   3.759 -0.0772 -1.2806 -0.0051
 6785TIP3    H120319   0.907   1.490   3.686 -0.3308 -0.0576 -0.6456
 6785TIP3    H220320   0.842   1.609   3.751 -1.2130 -1.2989  0.8141
 6786TIP3   OH220321   3.295   0.957   4.982 -0.3267 -0.1763 -0.1305
 6786TIP3    H120322   3.370   1.017   4.982 -0.7950  0.4362 -1.1234
 6786TIP3    H220323   3.250   0.974   4.899  0.6827 -3.3998 -1.5099
 6787TIP3   OH220324   3.705   6.456   0.565 -0.3001  0.1556 -0.0103
 6787TIP3    H120325   3.630   6.400   0.585 -0.2839  0.5033  1.0768
 6787TIP3    H220326   3.695   6.478   0.472 -2.6231  1.7495  0.5328
 6788TIP3   OH220327   2.851   0.764   3.274  0.5815 -1.1789  0.2203
 6788TIP3    H120328   2.936   0.721   3.268  0.1535 -2.1413  0.7020
 6788TIP3    H220329   2.820   0.768   3.183  1.0095 -1.0951  0.0748
 6789TIP3   OH220330   4.315   2.195   1.842 -0.4977 -0.1795  0.3963
 6789TIP3    H120331   4.309   2.101   1.856  0.5307 -0.0746  1.6537
 6789TIP3    H220332   4.242   2.231   1.892 -0.9753 -0.3151 -0.1991
 6790TIP3   OH220333   1.421   3.713   2.928 -0.7502  0.1228 -0.1554
 6790TIP3    H120334   1.479   3.644   2.897  0.2782  0.4696  0.9309
 6790TIP3    H220335   1.388   3.754   2.848 -1.5637 -1.7260 -0.8373
 6791TIP3   OH220336   2.269   1.047   1.645 -0.0530  0.7344 -0.4827
 6791TIP3    H120337   2.354   1.064   1.685  1.1825 -0.6156 -2.3349
 6791TIP3    H220338   2.212   1.021   1.717  1.9603 -1.3078  0.4925
 6792TIP3   OH220339   5.137   6.149   0.510  0.2765 -0.2390 -0.3150
 6792TIP3    H120340   5.065   6.205   0.481  0.9006  0.3898 -0.6852
 6792TIP3    H220341   5.192   6.138   0.432  1.3888  0.5559  0.3362
 6793TIP3   OH220342   3.592   2.540   4.996 -0.1461  0.1522  0.4016
 6793TIP3    H120343   3.597   2.444   4.987  0.4541  0.2089  0.0525
 6793TIP3    H220344   3.609   2.573   4.908 -1.5910  0.5617  0.2469
 6794TIP3   OH220345   1.829   6.641   0.523 -0.0544 -0.3326 -0.0330
 6794TIP3    H120346   1.904   6.584   0.507 -0.7948 -1.7495  1.2751
 6794TIP3    H220347   1.836   6.709   0.456  1.5760 -1.2365 -0.8485
 6795TIP3   OH220348   2.090   0.519   5.435  0.0453  0.2533  0.1132
 6795TIP3    H120349   2.099   0.581   5.507  0.2160  0.2937  0.0586
 6795TIP3    H220350   2.057   0.439   5.475  0.6245  0.1116  0.3186
 6796TIP3   OH220351   4.052   0.674   1.621  0.1092 -0.4473  0.3636
 6796TIP3    H120352   4.127   0.615   1.615  0.4567  0.0035  0.1676
 6796TIP3    H220353   4.038   0.705   1.532 -0.2605 -0.4679  0.4123
 6797TIP3   OH220354   4.226   3.394   4.287  0.3600  0.4207 -0.3782
 6797TIP3    H120355   4.205   3.456   4.217  2.8957  0.3583 -1.2895
 6797TIP3    H220356   4.222   3.308   4.245  1.2792  0.3353 -0.3036
 6798TIP3   OH220357   1.646   2.449   1.219  0.1558  0.0665 -0.1848
 6798TIP3    H120358   1.638   2.499   1.300 -1.4070  0.8962 -0.8182
 6798TIP3    H220359   1.604   2.503   1.153 -0.2504 -1.4287 -1.1974
 6799TIP3   OH220360   0.100   4.158   4.762 -0.3826 -0.4247  0.5851
 6799TIP3    H120361   0.022   4.170   4.816  0.2294 -1.6278  1.8020
 6799TIP3    H220362   0.103   4.236   4.706 -1.0793  0.8494  2.2415
 6800TIP3   OH220363   4.857   1.018   0.003 -0.1582  0.5097  0.4047
 6800TIP3    H120364   4.824   1.105   0.027 -0.2170  0.4413  0.5731
 6800TIP3    H220365   4.898   0.985   0.083  0.0745  0.4795  0.2738
 6801TIP3   OH220366   3.487   3.934   2.608  0.6175  0.2132  0.0199
 6801TIP3    H120367   3.445   3.932   2.693  0.5200  0.9625 -0.0029
 6801TIP3    H220368   3.497   4.027   2.588 -0.3833  0.0645 -1.2866
 6802TIP3   OH220369   0.758   1.407   4.297  0.2958 -0.2756  0.0267
 6802TIP3    H120370   0.816   1.344   4.340 -0.4927  1.0671  3.3583
 6802TIP3    H220371   0.792   1.493   4.324 -0.0740  0.7217 -2.4457
 6803TIP3   OH220372   6.625   5.428   3.537 -0.1978  0.2824 -0.4241
 6803TIP3    H120373   6.585   5.481   3.468 -0.9257 -1.5221 -1.4393
 6803TIP3    H220374   6.559   5.363   3.560  1.2635 -1.3083 -0.4677
 6804TIP3   OH220375   6.714   6.348   4.246 -0.1208  0.1233 -0.0631
 6804TIP3    H120376   6.787   6.290   4.269  0.5415  0.2511 -1.7023
 6804TIP3    H220377   6.704   6.405   4.322  0.3647 -0.9879  0.8772
 6805TIP3   OH220378   5.226   0.722   2.597  0.2233  0.1956  0.0973
 6805TIP3    H120379   5.136   0.698   2.616 -0.0429 -0.3763 -1.7197
 6805TIP3    H220380   5.272   0.639   2.585  1.2116  0.4479  1.7170
 6806TIP3   OH220381   3.416   5.371   0.691  0.2321 -0.4043 -0.0371
 6806TIP3    H120382   3.457   5.315   0.626 -0.3153 -1.1653  0.2626
 6806TIP3    H220383   3.486   5.429   0.721  0.7941 -0.9120 -0.3648
 6807TIP3   OH220384   0.170   0.073   3.029  0.5551  0.0299  0.5365
 6807TIP3    H120385   0.256   0.113   3.014  2.5799 -2.7229  3.6027
 6807TIP3    H220386   0.177  -0.014   2.990 -0.9282 -0.2081  0.7489
 6808TIP3   OH220387   3.842   1.034   0.785 -0.8969 -0.1987  0.9543
 6808TIP3    H120388   3.826   1.127   0.770  0.9773  0.0508  0.2170
 6808TIP3    H220389   3.755   0.996   0.795 -1.8386  1.2834 -0.8855
 6809TIP3   OH220390   6.512   5.552   2.703 -0.3575 -0.8478  0.1280
 6809TIP3    H120391   6.508   5.636   2.657  0.4263 -0.7483  0.2248
 6809TIP3    H220392   6.456   5.494   2.652 -0.2979 -0.4704 -0.3777
 6810TIP3   OH220393   6.270   1.212   3.433 -0.6837  0.5920  0.3505
 6810TIP3    H120394   6.358   1.184   3.460 -1.5883 -1.5051  1.3976
 6810TIP3    H220395   6.270   1.202   3.338  0.0575  0.0285  0.3975
 6811TIP3   OH220396   6.443   6.207   4.938  0.1375  0.2799  0.4374
 6811TIP3    H120397   6.477   6.144   5.001 -1.1154  1.3231  2.2411
 6811TIP3    H220398   6.501   6.283   4.945 -0.2508  0.5619  0.6705
 6812TIP3   OH220399   2.537   1.431   1.497  0.2866  0.0021  0.2004
 6812TIP3    H120400   2.467   1.431   1.562  0.6340 -1.4154  0.6111
 6812TIP3    H220401   2.533   1.518   1.457 -2.7563 -0.5631 -0.9520
 6813TIP3   OH220402   4.905   6.230   3.908 -0.5223 -0.2510 -0.8009
 6813TIP3    H120403   4.930   6.164   3.972 -2.2585 -1.3917 -1.2345
 6813TIP3    H220404   4.972   6.298   3.917 -0.6629 -0.3707  2.1588
 6814TIP3   OH220405   7.033   3.660   3.896 -0.5672 -0.0321 -0.3947
 6814TIP3    H120406   6.993   3.578   3.924 -0.6182  0.4717  1.0829
 6814TIP3    H220407   7.082   3.637   3.817 -1.2224 -1.3051 -0.4560
 6815TIP3   OH220408   2.588   6.469   2.562 -0.4429  0.3590  0.2968
 6815TIP3    H120409   2.521   6.414   2.523 -2.3160  2.6020  0.1782
 6815TIP3    H220410   2.593   6.545   2.504  0.5848  1.2831  1.5562
 6816TIP3   OH220411   0.125   0.442   3.127 -0.1842  0.0832  0.3921
 6816TIP3    H120412   0.156   0.368   3.076  0.1259  0.3592  0.1730
 6816TIP3    H220413   0.041   0.465   3.087 -0.0570  0.1463  0.1630
 6817TIP3   OH220414   2.609   6.069   2.598 -0.2289  0.3204  0.2411
 6817TIP3    H120415   2.581   6.015   2.672 -1.2964 -0.3703 -0.6235
 6817TIP3    H220416   2.537   6.062   2.535  0.7748  0.6416 -0.9948
 6818TIP3   OH220417   3.428   2.767   3.631 -0.2409 -0.4325  0.5543
 6818TIP3    H120418   3.470   2.688   3.663  0.8240 -0.4577 -0.8116
 6818TIP3    H220419   3.440   2.831   3.702  1.5884 -0.6208  0.4712
 6819TIP3   OH220420   1.559   1.929   0.695 -0.3037  0.2589  0.5626
 6819TIP3    H120421   1.560   1.837   0.721  0.7401  0.4359  1.1899
 6819TIP3    H220422   1.573   1.978   0.776 -0.8778  0.9857  0.2430
 6820TIP3   OH220423   0.689   2.136   0.604 -0.9702 -0.0423 -0.3843
 6820TIP3    H120424   0.623   2.205   0.614 -1.2525 -0.4994  1.2338
 6820TIP3    H220425   0.705   2.105   0.694  1.3685 -0.0320 -0.7385
 6821TIP3   OH220426   6.672   3.348   5.832 -0.0935  0.0842 -0.3059
 6821TIP3    H120427   6.649   3.293   5.907 -0.2296 -0.7411 -0.9344
 6821TIP3    H220428   6.627   3.430   5.847 -1.1015 -0.4986 -0.0797
 6822TIP3   OH220429   3.169   6.161   4.787 -0.0126 -0.2757 -0.2216
 6822TIP3    H120430   3.148   6.188   4.698 -1.3791  0.5624  0.3203
 6822TIP3    H220431   3.264   6.173   4.794 -0.0570  0.8118 -1.1835
 6823TIP3   OH220432   2.765   6.102   2.259  0.0276  1.1377 -0.3239
 6823TIP3    H120433   2.715   6.033   2.302 -0.1601  1.6066  0.2203
 6823TIP3    H220434   2.857   6.078   2.273 -0.0363  0.8162 -0.4451
 6824TIP3   OH220435   6.709   1.565   2.578  1.0424 -0.0755  0.5890
 6824TIP3    H120436   6.632   1.508   2.575  0.2501  0.9438  0.8346
 6824TIP3    H220437   6.674   1.653   2.565  2.1620  0.4248  0.8286
 6825TIP3   OH220438   3.938   4.008   2.486  0.2863 -0.0778  0.2589
 6825TIP3    H120439   3.960   4.100   2.504 -1.6486  1.2177 -2.9450
 6825TIP3    H220440   3.855   3.994   2.531 -0.4589  0.4877 -0.8880
 6826TIP3   OH220441   2.327   0.062   2.020  0.9230 -0.0713  0.2202
 6826TIP3    H120442   2.250   0.093   2.067  1.1834 -1.3892  1.5707
 6826TIP3    H220443   2.393   0.129   2.036  0.2129  0.8658 -0.6114
 6827TIP3   OH220444   6.026   3.153   0.562  0.1400 -0.0697  0.4237
 6827TIP3    H120445   6.069   3.212   0.500  0.8532 -0.4121  0.5717
 6827TIP3    H220446   5.934   3.154   0.537  0.2790  0.4510 -0.1023
 6828TIP3   OH220447   1.353   1.673   5.407  0.4729 -0.7478  0.1735
 6828TIP3    H120448   1.405   1.599   5.438 -2.1958 -2.5104  0.7882
 6828TIP3    H220449   1.310   1.642   5.328 -0.0636  0.4301 -0.0289
 6829TIP3   OH220450   3.446   4.741   3.043  0.0562 -0.5110 -0.3067
 6829TIP3    H120451   3.468   4.780   2.958 -2.9155  2.2459 -0.0270
 6829TIP3    H220452   3.370   4.791   3.072 -0.2267 -2.6655  3.1224
 6830TIP3   OH220453   5.232   0.403   0.484 -0.1494 -0.2809  0.4393
 6830TIP3    H120454   5.289   0.463   0.436  0.6071 -1.1907  0.1620
 6830TIP3    H220455   5.293   0.347   0.533 -0.8411 -0.6496  0.8875
 6831TIP3   OH220456   0.951   2.561   0.440  0.2107 -0.5844  0.0519
 6831TIP3    H120457   0.909   2.515   0.367  0.3993 -1.4500  0.4702
 6831TIP3    H220458   0.937   2.654   0.422  0.7765 -0.7605 -1.4005
 6832TIP3   OH220459   3.978   3.826   1.639  0.0882 -0.1239  0.4691
 6832TIP3    H120460   3.922   3.837   1.716  0.7225 -1.7578  1.2299
 6832TIP3    H220461   4.063   3.801   1.676  0.5313 -0.4601 -0.7557
 6833TIP3   OH220462   3.237   2.538   2.194  0.0151 -0.4081  0.2442
 6833TIP3    H120463   3.209   2.628   2.213  0.9953  0.0600 -0.4027
 6833TIP3    H220464   3.252   2.538   2.100 -0.9133 -1.5468  0.0838
 6834TIP3   OH220465   0.246   4.184   3.865  0.3176  0.1930  0.3750
 6834TIP3    H120466   0.254   4.265   3.814  1.5706 -1.2209 -1.8474
 6834TIP3    H220467   0.219   4.119   3.801 -1.6056 -1.0402  2.2921
 6835TIP3   OH220468   2.475   5.131   4.599  0.2572 -0.4308  0.3962
 6835TIP3    H120469   2.390   5.117   4.643  0.1263 -0.4664  0.1310
 6835TIP3    H220470   2.464   5.091   4.513 -0.3121  1.7466 -0.6006
 6836TIP3   OH220471   6.139   6.729   2.493  0.1996  0.1414  0.2702
 6836TIP3    H120472   6.162   6.794   2.559 -0.5129  0.6087  0.0700
 6836TIP3    H220473   6.211   6.666   2.495  1.2083  1.2454  0.0437
 6837TIP3   OH220474   3.424   6.087   3.915  0.1297 -0.1559 -0.3270
 6837TIP3    H120475   3.436   6.174   3.875 -0.0868  1.0739  2.0987
 6837TIP3    H220476   3.345   6.053   3.873  0.6291  0.4469 -1.8661
 6838TIP3   OH220477   2.128   4.023   2.147 -0.3943 -0.3846 -0.0966
 6838TIP3    H120478   2.072   3.975   2.086  0.3493 -0.6109 -0.6136
 6838TIP3    H220479   2.167   4.092   2.094 -1.6404  0.9737  0.6944
 6839TIP3   OH220480   5.760   5.787   5.843  0.6177  0.2569 -0.0759
 6839TIP3    H120481   5.796   5.875   5.842 -0.7258  0.8270 -0.9568
 6839TIP3    H220482   5.798   5.746   5.921  1.0337  1.7053  0.5060
 6840TIP3   OH220483   4.185   1.117   0.122  0.1661 -0.0897 -0.3413
 6840TIP3    H120484   4.178   1.161   0.207  0.1329 -1.2804  0.2960
 6840TIP3    H220485   4.146   1.031   0.137 -0.0428 -0.2359 -1.6355
 6841TIP3   OH220486   3.099   1.736   1.898  0.0875 -0.1204  0.0710
 6841TIP3    H120487   3.172   1.722   1.838  0.7833 -1.3475  1.1505
 6841TIP3    H220488   3.091   1.831   1.904  2.3072  0.0938  0.7138
 6842TIP3   OH220489   0.724   6.133   4.206  0.6971  0.4526  1.0561
 6842TIP3    H120490   0.756   6.043   4.214  2.0656  0.8310  0.0117
 6842TIP3    H220491   0.774   6.171   4.134 -1.7491  1.2405 -0.3493
 6843TIP3   OH220492   4.859   1.882   1.291  0.1098  0.4206  0.3702
 6843TIP3    H120493   4.859   1.977   1.302 -0.6795  0.1998  3.0198
 6843TIP3    H220494   4.770   1.855   1.313  0.2248 -0.9296 -0.6967
 6844TIP3   OH220495   3.918   5.003   0.243 -0.5096 -0.2575  0.0316
 6844TIP3    H120496   3.987   4.944   0.273  0.3067  0.6744  0.0390
 6844TIP3    H220497   3.936   5.086   0.287 -1.7189 -0.0258  0.1325
 6845TIP3   OH220498   2.211   5.052   2.042  0.5511 -0.1129 -0.1739
 6845TIP3    H120499   2.225   4.964   2.007  1.0464 -0.6662  1.3626
 6845TIP3    H220500   2.298   5.090   2.047  0.3935  0.2747 -0.3172
 6846TIP3   OH220501   2.329   1.931   4.699  0.1975  0.1062  0.0944
 6846TIP3    H120502   2.371   1.848   4.722  2.5710  0.8743 -1.0903
 6846TIP3    H220503   2.256   1.906   4.643  1.2866 -1.1932 -0.8056
 6847TIP3   OH220504   3.129   4.323   0.288 -0.4137 -0.0687 -0.1784
 6847TIP3    H120505   3.212   4.281   0.311  0.4539  1.2088 -0.8681
 6847TIP3    H220506   3.063   4.275   0.340  0.2169 -3.4475 -2.1855
 6848TIP3   OH220507   3.120   1.055   2.147  0.6200 -0.1731  0.1840
 6848TIP3    H120508   3.069   0.982   2.182  1.6601 -1.4163 -0.7906
 6848TIP3    H220509   3.150   1.025   2.062 -1.1099  2.4173 -1.4960
 6849TIP3   OH220510   4.970   2.178   4.172  0.1908  0.1101  0.2042
 6849TIP3    H120511   4.922   2.228   4.106  2.7774  1.3105 -0.9515
 6849TIP3    H220512   4.971   2.234   4.249 -0.4223 -0.0309  0.3207
 6850TIP3   OH220513   4.598   1.937   1.958 -0.5141  0.2636 -0.0054
 6850TIP3    H120514   4.540   1.952   2.032  0.5345  0.2560  0.8473
 6850TIP3    H220515   4.611   1.842   1.956 -0.2600  0.2947  0.0355
 6851TIP3   OH220516   5.190   6.166   5.545  0.0453  0.1122  0.5831
 6851TIP3    H120517   5.258   6.117   5.591  0.0050 -1.9288 -1.4162
 6851TIP3    H220518   5.120   6.103   5.531 -0.1012  0.7268 -1.9138
 6852TIP3   OH220519   2.614   6.325   2.229  0.3767 -0.3363 -0.0017
 6852TIP3    H120520   2.676   6.392   2.255  0.6535 -0.3865 -0.5298
 6852TIP3    H220521   2.657   6.242   2.252  0.6512 -0.3836 -0.6778
 6853TIP3   OH220522   3.838   6.275   3.733 -0.0001 -0.3879  0.0296
 6853TIP3    H120523   3.846   6.193   3.685 -1.2183 -0.6934  0.3168
 6853TIP3    H220524   3.744   6.287   3.744  0.2129  0.3732  1.1528
 6854TIP3   OH220525   4.044   2.414   5.646  0.1995  0.6457 -0.2709
 6854TIP3    H120526   4.018   2.448   5.560 -0.9022  1.9187  0.5186
 6854TIP3    H220527   3.965   2.423   5.700  0.8114 -0.3098  0.8414
 6855TIP3   OH220528   3.582   6.629   1.160  0.0051 -0.2069  0.2816
 6855TIP3    H120529   3.622   6.660   1.079  1.1630  0.5020  1.0781
 6855TIP3    H220530   3.504   6.580   1.133  0.1732  0.3251 -1.2166
 6856TIP3   OH220531   6.341   6.292   3.045 -0.2152  0.0522 -0.4393
 6856TIP3    H120532   6.367   6.347   3.119 -0.6750  0.9474 -0.9225
 6856TIP3    H220533   6.300   6.353   2.983  2.5164 -0.1665 -2.6349
 6857TIP3   OH220534   6.913   4.397   5.185 -0.1952 -0.4064  0.5475
 6857TIP3    H120535   6.922   4.397   5.089  0.1363  0.2164  0.5732
 6857TIP3    H220536   6.919   4.305   5.209  1.9205 -0.4343  0.1479
 6858TIP3   OH220537   5.757   5.368   1.686  0.1950  0.6779  0.3011
 6858TIP3    H120538   5.809   5.337   1.613 -0.3512  0.1110  0.1462
 6858TIP3    H220539   5.667   5.371   1.652 -0.2926 -0.9275  1.3363
 6859TIP3   OH220540   5.646   0.037   2.380 -0.1902  0.8957 -0.2306
 6859TIP3    H120541   5.694   0.072   2.455  0.9688  3.1207 -1.8581
 6859TIP3    H220542   5.664   0.100   2.309 -1.2364 -1.0577 -2.3699
 6860TIP3   OH220543   3.523   3.356   5.047 -0.1892 -0.5614 -0.6837
 6860TIP3    H120544   3.477   3.346   5.130 -2.8060  1.9944 -1.6332
 6860TIP3    H220545   3.616   3.354   5.070 -0.8218 -0.8335  2.1585
 6861TIP3   OH220546   0.082   5.833   0.017 -0.3440 -0.2029  0.0809
 6861TIP3    H120547   0.169   5.820   0.056 -0.3297 -2.1388 -0.4857
 6861TIP3    H220548   0.041   5.747   0.022 -1.6883  0.3418 -0.9755
 6862TIP3   OH220549   5.790   4.090   3.018 -0.3786  0.3476  0.1074
 6862TIP3    H120550   5.702   4.072   2.983 -0.8313 -0.9043  1.7589
 6862TIP3    H220551   5.846   4.026   2.974 -0.2304  1.2301 -1.0435
 6863TIP3   OH220552   1.528   1.883   1.708 -0.3393  0.3842 -0.1493
 6863TIP3    H120553   1.453   1.932   1.674 -2.3452 -1.5772  1.2045
 6863TIP3    H220554   1.582   1.949   1.750 -1.1257  1.9040 -1.4120
 6864TIP3   OH220555   6.268   2.344   3.613 -0.1948  0.1653 -0.3636
 6864TIP3    H120556   6.251   2.279   3.681 -0.2397 -1.0098 -1.4602
 6864TIP3    H220557   6.230   2.306   3.534  1.8458  0.4228 -1.5357
 6865TIP3   OH220558   2.641   5.592   4.398 -0.1492  0.1323 -0.1655
 6865TIP3    H120559   2.731   5.576   4.428  0.1126 -1.6642 -1.6816
 6865TIP3    H220560   2.598   5.634   4.473  0.7928 -2.8169  2.2542
 6866TIP3   OH220561   0.976   2.161   3.189  0.3391 -0.2000  0.0595
 6866TIP3    H120562   1.054   2.110   3.210  0.1410 -0.1914  0.8387
 6866TIP3    H220563   0.903   2.100   3.202  0.3049 -0.9513 -2.9571
 6867TIP3   OH220564   0.194   0.560   1.985 -0.1219  0.1884 -0.1330
 6867TIP3    H120565   0.236   0.633   1.940 -0.2256  0.9843  1.0278
 6867TIP3    H220566   0.161   0.597   2.066  0.1446 -1.2257  0.6648
 6868TIP3   OH220567   1.659   5.198   1.232 -0.4525  0.5941  0.8475
 6868TIP3    H120568   1.686   5.106   1.233  0.1946  0.7711 -0.0702
 6868TIP3    H220569   1.571   5.197   1.272 -0.7892 -0.5252  0.1224
 6869TIP3   OH220570   6.800   6.601   3.522  0.6105  0.4814 -0.2149
 6869TIP3    H120571   6.773   6.692   3.508 -0.1877  0.5536  1.5414
 6869TIP3    H220572   6.832   6.572   3.436 -1.3019  1.6878 -1.4101
 6870TIP3   OH220573   6.735   4.366   0.679  0.0552 -0.1229  0.1653
 6870TIP3    H120574   6.646   4.382   0.647 -0.9808 -0.8996  2.4279
 6870TIP3    H220575   6.746   4.429   0.750  1.1025 -0.4241  0.2841
 6871TIP3   OH220576   2.107   3.694   1.252 -0.1779 -0.1152  0.2937
 6871TIP3    H120577   2.089   3.766   1.192  2.3464  0.3185 -0.0743
 6871TIP3    H220578   2.033   3.634   1.241 -2.4494  2.4114  0.7049
 6872TIP3   OH220579   4.577   0.261   1.938 -0.4401  0.2627  0.4435
 6872TIP3    H120580   4.606   0.304   1.858 -2.4918  0.9770  0.0245
 6872TIP3    H220581   4.653   0.211   1.968  0.7678  1.0321 -1.2217
 6873TIP3   OH220582   6.421   2.166   4.296  0.2832  0.1529  0.1152
 6873TIP3    H120583   6.357   2.208   4.239  1.2594  0.4207 -0.8289
 6873TIP3    H220584   6.501   2.161   4.243  1.3067  0.6256  1.5198
 6874TIP3   OH220585   0.587   3.378   0.185 -0.1223 -0.8320 -0.4595
 6874TIP3    H120586   0.630   3.425   0.256  0.2789 -0.2278 -1.0973
 6874TIP3    H220587   0.588   3.438   0.111  0.5325 -1.8777 -1.3362
 6875TIP3   OH220588   1.767   1.453   2.835 -0.1742 -0.2500  0.1425
 6875TIP3    H120589   1.703   1.382   2.827 -1.0388  0.5133  0.1079
 6875TIP3    H220590   1.720   1.522   2.883  0.8324  0.0851  0.6734
 6876TIP3   OH220591   6.665   4.343   0.270 -0.0688  0.5531 -0.3355
 6876TIP3    H120592   6.749   4.381   0.295  0.5636 -0.2216 -1.2429
 6876TIP3    H220593   6.662   4.258   0.315  0.1904  0.0360 -1.2692
 6877TIP3   OH220594   2.051   1.463   2.847  0.1739 -0.2700 -0.0771
 6877TIP3    H120595   1.964   1.423   2.849  0.6016 -1.3541 -1.2804
 6877TIP3    H220596   2.040   1.541   2.792  0.0782 -0.7590 -0.7727
 6878TIP3   OH220597   4.929   6.781   2.139  0.1841 -1.1240 -0.1178
 6878TIP3    H120598   5.015   6.794   2.099 -0.7800 -0.9616 -2.3009
 6878TIP3    H220599   4.927   6.688   2.161  1.1387 -0.9971  0.5518
 6879TIP3   OH220600   2.752   4.896   4.994  0.1186  0.1178 -0.2960
 6879TIP3    H120601   2.691   4.965   4.968  1.2833  1.4642  0.3590
 6879TIP3    H220602   2.725   4.871   5.082  1.1554  1.5478  0.4660
 6880TIP3   OH220603   4.752   1.956   5.193 -0.4703 -0.1238 -0.3257
 6880TIP3    H120604   4.684   1.909   5.145 -1.2975  0.0670  0.6025
 6880TIP3    H220605   4.752   1.915   5.280  1.6790 -1.1342 -0.7508
 6881TIP3   OH220606   1.751   6.096   1.464  0.0725  0.1274 -0.4604
 6881TIP3    H120607   1.782   6.006   1.459  1.1705  0.4402  0.3470
 6881TIP3    H220608   1.754   6.128   1.374  1.4996 -0.0671 -0.5026
 6882TIP3   OH220609   6.252   5.522   0.108 -0.3450  0.7708  0.0484
 6882TIP3    H120610   6.223   5.483   0.190 -0.3027  0.8500  0.1025
 6882TIP3    H220611   6.208   5.473   0.040 -1.8498  1.8964  0.1695
 6883TIP3   OH220612   4.545   2.684   3.981  0.6524  0.2341 -0.2084
 6883TIP3    H120613   4.510   2.640   4.059 -0.3203  1.1851 -0.0860
 6883TIP3    H220614   4.591   2.615   3.934 -1.1971 -1.0571 -0.2452
 6884TIP3   OH220615   4.695   3.168   3.429  0.3144  0.3103 -0.5442
 6884TIP3    H120616   4.672   3.197   3.517 -1.3932  2.5316 -1.6316
 6884TIP3    H220617   4.648   3.085   3.418  0.5240  0.0253  0.5919
 6885TIP3   OH220618   4.499   0.194   5.349 -0.1432  0.6535 -0.2866
 6885TIP3    H120619   4.503   0.107   5.310 -0.3593  0.6646 -0.3366
 6885TIP3    H220620   4.455   0.248   5.283 -2.2653  0.2511  0.7018
 6886TIP3   OH220621   1.626   5.629   5.219 -0.5215  0.1760  0.1431
 6886TIP3    H120622   1.649   5.698   5.156 -1.7041  1.1965  0.7809
 6886TIP3    H220623   1.596   5.556   5.165  1.2009 -0.0700 -0.5703
 6887TIP3   OH220624   5.484   3.018   5.841  0.3646 -0.2339  0.5543
 6887TIP3    H120625   5.477   3.013   5.746 -0.0427  0.1833  0.5580
 6887TIP3    H220626   5.432   2.945   5.874  1.8972 -1.4362  0.4334
 6888TIP3   OH220627   3.500   0.518   4.046 -0.0705 -0.3302 -0.4039
 6888TIP3    H120628   3.503   0.609   4.077 -1.6043 -0.3421 -0.1385
 6888TIP3    H220629   3.425   0.479   4.092  0.0928 -1.5086 -1.0931
 6889TIP3   OH220630   4.067   3.466   3.827 -0.1583 -0.5463 -0.2487
 6889TIP3    H120631   4.047   3.540   3.769 -1.9525 -1.7190 -1.2283
 6889TIP3    H220632   3.997   3.468   3.892  1.7213  0.6294  1.8471
 6890TIP3   OH220633   6.510   4.093   5.670  0.1742  0.4974 -0.1093
 6890TIP3    H120634   6.543   4.100   5.759 -1.0965 -0.0100  0.4297
 6890TIP3    H220635   6.479   4.181   5.649 -0.4007  0.4062  0.3235
 6891TIP3   OH220636   2.271   5.649   2.068  0.1928  0.2146 -0.0574
 6891TIP3    H120637   2.351   5.624   2.022 -0.5296 -0.3499 -1.0191
 6891TIP3    H220638   2.298   5.723   2.123  1.2941  0.2544 -0.6207
 6892TIP3   OH220639   1.605   6.651   0.965 -0.2521 -0.1217 -0.2101
 6892TIP3    H120640   1.655   6.569   0.971 -0.4129 -0.2908 -1.0887
 6892TIP3    H220641   1.514   6.623   0.963 -0.4195  0.1878  1.3322
 6893TIP3   OH220642   5.132   0.996   1.202  0.0173  0.6157  0.1455
 6893TIP3    H120643   5.205   1.043   1.160 -0.3317  1.2761  0.2703
 6893TIP3    H220644   5.174   0.922   1.246  0.4916  0.3874 -0.6576
 6894TIP3   OH220645   5.990   1.888   2.527  0.3964 -0.5455 -0.2703
 6894TIP3    H120646   5.967   1.817   2.467 -3.3173 -1.9050  2.3666
 6894TIP3    H220647   5.906   1.924   2.556  2.0742  3.8773 -0.0906
 6895TIP3   OH220648   4.815   6.251   3.442 -0.2410  0.7042 -0.0257
 6895TIP3    H120649   4.891   6.214   3.487  0.0981 -0.1585 -1.2674
 6895TIP3    H220650   4.740   6.228   3.497  0.2057  0.0575  0.3145
 6896TIP3   OH220651   5.415   4.291   2.896 -0.5066  0.5532 -0.0464
 6896TIP3    H120652   5.486   4.229   2.881 -1.4953 -0.5377 -0.3240
 6896TIP3    H220653   5.336   4.246   2.866 -1.1505  2.2993 -1.1704
 6897TIP3   OH220654   4.068   6.753   3.554  0.4156 -0.4403  0.3709
 6897TIP3    H120655   3.979   6.720   3.566 -0.6297  1.9135 -0.4339
 6897TIP3    H220656   4.112   6.732   3.637 -1.4305 -0.0248  1.5297
 6898TIP3   OH220657   7.100   6.413   4.714  0.0167  0.1210  0.0886
 6898TIP3    H120658   7.152   6.493   4.714  2.1337 -1.1522  1.3019
 6898TIP3    H220659   7.163   6.344   4.735 -1.9982 -1.6825  0.5261
 6899TIP3   OH220660   4.767   4.982   5.616 -0.0082  0.0309  0.2105
 6899TIP3    H120661   4.828   4.948   5.682 -0.2452 -0.5983  0.1135
 6899TIP3    H220662   4.685   4.936   5.634  0.0483 -0.4953 -0.8055
 6900TIP3   OH220663   3.287   2.212   5.725 -0.5945 -0.5140  0.1498
 6900TIP3    H120664   3.196   2.181   5.730 -1.0470  0.8403  0.9488
 6900TIP3    H220665   3.286   2.278   5.657  0.0292 -1.1791 -0.5183
 6901TIP3   OH220666   2.668   6.588   1.898  0.2442 -0.2121  0.5522
 6901TIP3    H120667   2.757   6.622   1.886 -0.1252  0.8010  0.5863
 6901TIP3    H220668   2.657   6.526   1.826  0.7609  0.1241  0.1718
 6902TIP3   OH220669   1.001   5.599   1.173  0.0055  0.5622  0.1291
 6902TIP3    H120670   1.080   5.649   1.196  0.4225 -0.5570  1.2573
 6902TIP3    H220671   1.031   5.536   1.109 -0.2680  0.9811 -0.4166
 6903TIP3   OH220672   1.710   5.167   5.018 -0.2797 -0.7969  0.0106
 6903TIP3    H120673   1.768   5.096   4.990  0.8446  0.9162 -2.3328
 6903TIP3    H220674   1.765   5.221   5.075  0.2370  0.4028 -1.5770
 6904TIP3   OH220675   6.770   0.273   0.123 -0.0629 -0.2986  0.2470
 6904TIP3    H120676   6.844   0.239   0.173  1.4803  1.6123 -0.5787
 6904TIP3    H220677   6.791   0.255   0.031 -0.6178  0.2757 -0.0081
 6905TIP3   OH220678   1.537   0.415   5.609 -0.3001  0.1852  0.1056
 6905TIP3    H120679   1.453   0.432   5.567 -0.1013 -1.2284 -0.9027
 6905TIP3    H220680   1.566   0.331   5.574  0.9133  0.0024  1.4423
 6906TIP3   OH220681   0.253   2.711   4.470  0.6118  0.3505  0.2087
 6906TIP3    H120682   0.338   2.666   4.467  0.3913 -0.0258 -1.2765
 6906TIP3    H220683   0.193   2.648   4.510  0.7044  0.0330 -0.1521
 6907TIP3   OH220684   3.673   1.710   1.070  0.1033 -0.1584  0.8034
 6907TIP3    H120685   3.743   1.715   1.134  0.5753  1.4073  0.2111
 6907TIP3    H220686   3.598   1.677   1.119  0.5216  0.7525  2.1100
 6908TIP3   OH220687   5.928   4.796   0.380  0.5498  0.0682 -0.2937
 6908TIP3    H120688   6.016   4.799   0.341  1.0020  1.0966  0.7447
 6908TIP3    H220689   5.921   4.877   0.430 -0.1189 -1.0111  1.4852
 6909TIP3   OH220690   6.393   3.964   2.470  0.1932 -0.5215 -0.8950
 6909TIP3    H120691   6.362   3.934   2.384 -0.8117 -1.4832 -0.2292
 6909TIP3    H220692   6.429   4.051   2.454  0.4424 -0.8752 -2.3712
 6910TIP3   OH220693   1.076   2.477   4.479 -0.6823  0.2226  0.0382
 6910TIP3    H120694   1.160   2.434   4.499 -1.4553 -1.0354  0.6974
 6910TIP3    H220695   1.039   2.498   4.564 -0.2500  2.4678 -0.2578
 6911TIP3   OH220696   6.289   0.879   0.121  0.4718 -0.3138 -0.6568
 6911TIP3    H120697   6.283   0.807   0.183  1.4485  0.0974 -0.0553
 6911TIP3    H220698   6.208   0.875   0.071 -0.7324 -0.1508  1.1846
 6912TIP3   OH220699   5.295   1.077   0.022 -1.0509 -0.3520  0.2140
 6912TIP3    H120700   5.297   1.105   0.113 -0.0033  0.0155  0.0954
 6912TIP3    H220701   5.279   1.157  -0.028  1.6849  0.0934 -0.1087
 6913TIP3   OH220702   1.402   3.125   5.076  0.3386 -0.4134  0.6977
 6913TIP3    H120703   1.443   3.070   5.142 -1.8617 -0.7044  1.9214
 6913TIP3    H220704   1.309   3.102   5.079 -0.2881  1.6388 -0.4448
 6914TIP3   OH220705   7.207   2.466   5.421  0.0369  0.6497  0.1213
 6914TIP3    H120706   7.169   2.529   5.360 -0.7288  0.3413  0.2757
 6914TIP3    H220707   7.150   2.389   5.416  1.3693 -0.3382 -0.6214
 6915TIP3   OH220708   3.014   4.971   1.346  0.0427 -0.2994  0.7657
 6915TIP3    H120709   2.964   4.901   1.386 -2.4657  0.5479 -0.6672
 6915TIP3    H220710   2.963   4.997   1.270  0.9583  2.9349  1.0952
 6916TIP3   OH220711   0.883   3.439   5.425  0.0335 -0.0246 -0.1898
 6916TIP3    H120712   0.942   3.493   5.374 -1.2193 -0.7389 -2.5184
 6916TIP3    H220713   0.847   3.498   5.492 -0.5266  1.7790 -2.0034
 6917TIP3   OH220714   3.158   0.011   3.060 -0.6850  0.6268 -0.7459
 6917TIP3    H120715   3.138   0.078   2.995 -1.5016  0.4571 -0.6774
 6917TIP3    H220716   3.094   0.024   3.129  0.4340  1.0637  0.2399
 6918TIP3   OH220717   1.700   6.278   5.201  0.0585  0.3836  0.3891
 6918TIP3    H120718   1.771   6.215   5.192  0.2759  0.8628 -1.5813
 6918TIP3    H220719   1.742   6.355   5.240  0.0921 -0.1540  1.4453
 6919TIP3   OH220720   5.823   6.024   5.197 -0.4536  0.3945  0.3583
 6919TIP3    H120721   5.748   6.045   5.141 -0.2626 -0.3096 -0.1741
 6919TIP3    H220722   5.876   6.104   5.196 -0.9593  0.7355  0.3576
 6920TIP3   OH220723   3.599   6.428   4.517  0.0631 -0.0046 -0.8484
 6920TIP3    H120724   3.580   6.401   4.607  1.3145 -0.8960 -0.8351
 6920TIP3    H220725   3.680   6.477   4.523 -1.9273  3.6793 -0.9328
 6921TIP3   OH220726   6.135   5.573   2.964  0.4438  0.3971  0.8478
 6921TIP3    H120727   6.216   5.619   2.986 -0.3315  2.0852  0.4131
 6921TIP3    H220728   6.069   5.643   2.959 -0.7355 -0.7344 -0.2137
 6922TIP3   OH220729   6.131   1.897   2.994 -0.2633 -0.0583  0.1071
 6922TIP3    H120730   6.107   1.852   2.913 -0.0162  1.3071 -0.7631
 6922TIP3    H220731   6.224   1.914   2.985 -0.3289  0.4937  0.4752
 6923TIP3   OH220732   4.117   0.704   2.647 -0.2247 -0.4526 -0.0694
 6923TIP3    H120733   4.115   0.784   2.700 -1.6851 -0.0784 -0.6450
 6923TIP3    H220734   4.100   0.633   2.709  1.0158 -0.3336  0.4354
 6924TIP3   OH220735   5.466   2.978   5.574 -0.2498  0.0349  0.3240
 6924TIP3    H120736   5.529   2.933   5.517  0.7503  0.2861  1.2081
 6924TIP3    H220737   5.384   2.976   5.524  0.4796 -0.1628 -0.9204
 6925TIP3   OH220738   4.279   3.731   1.028  0.5974 -0.1829  0.4902
 6925TIP3    H120739   4.338   3.681   0.972  1.2403  0.9190  0.1618
 6925TIP3    H220740   4.303   3.822   1.013 -1.6574  0.3550 -0.2003
 6926TIP3   OH220741   3.221   3.967   1.100 -0.2075 -0.1283  0.1023
 6926TIP3    H120742   3.192   3.990   1.011 -0.9148  0.9348  0.5903
 6926TIP3    H220743   3.160   4.013   1.158  2.1263  1.8481  1.1808
 6927TIP3   OH220744   3.433   4.575   1.559  0.2811  0.2586 -0.2569
 6927TIP3    H120745   3.523   4.569   1.591  0.9968  1.5115 -1.8717
 6927TIP3    H220746   3.394   4.490   1.579  2.7399 -1.4526 -2.1543
 6928TIP3   OH220747   1.355   2.955   2.098 -0.2072  0.4482 -0.4230
 6928TIP3    H120748   1.406   2.929   2.021  3.4692  0.3005  1.8424
 6928TIP3    H220749   1.379   3.047   2.112 -1.1113  0.5804  0.3695
 6929TIP3   OH220750   2.070   4.542   2.153 -0.4088  0.2742 -0.2023
 6929TIP3    H120751   2.053   4.471   2.091  0.2081 -0.6770  0.6805
 6929TIP3    H220752   1.989   4.593   2.154 -2.1097 -2.2177  1.4305
 6930TIP3   OH220753   2.850   3.564   0.619  0.5871  0.2542  0.1540
 6930TIP3    H120754   2.835   3.631   0.686 -0.2412 -0.5184  0.7820
 6930TIP3    H220755   2.820   3.483   0.661  2.4361 -0.6714 -0.2304
 6931TIP3   OH220756   0.411   5.076   5.652 -0.1308 -0.1125  0.1765
 6931TIP3    H120757   0.457   5.107   5.730  0.3743  0.3868 -0.3090
 6931TIP3    H220758   0.406   5.153   5.595  1.0907 -0.8680 -1.0251
 6932TIP3   OH220759   0.500   6.142   2.994  0.2557 -0.5275  0.0441
 6932TIP3    H120760   0.414   6.126   2.955 -0.0177  2.2460 -0.6676
 6932TIP3    H220761   0.562   6.130   2.921  0.4074 -1.5384  0.3217
 6933TIP3   OH220762   2.040   0.951   2.356 -0.3944 -0.1998  0.0958
 6933TIP3    H120763   1.949   0.921   2.363 -0.3565  0.0194  1.8137
 6933TIP3    H220764   2.049   0.976   2.264 -2.2155  0.2104 -0.0216
 6934TIP3   OH220765   2.813   3.034   0.662  0.0612  0.2346 -0.8456
 6934TIP3    H120766   2.789   2.951   0.704 -1.4989 -0.0690 -2.1820
 6934TIP3    H220767   2.896   3.016   0.619  1.2788  0.3228  1.3523
 6935TIP3   OH220768   5.151   6.156   1.730 -0.7951  0.1919 -0.6137
 6935TIP3    H120769   5.170   6.249   1.740  0.0713  0.1393 -1.6926
 6935TIP3    H220770   5.100   6.149   1.650  1.0822 -0.4761 -1.8171
 6936TIP3   OH220771   1.854   4.169   3.166 -0.3639  0.1868 -0.3666
 6936TIP3    H120772   1.855   4.077   3.192 -2.3952  0.6429  1.6832
 6936TIP3    H220773   1.773   4.179   3.115 -1.0039  1.1091  0.7694
 6937TIP3   OH220774   2.546   6.662   2.367  0.6526 -0.6934 -0.9972
 6937TIP3    H120775   2.453   6.661   2.344  0.3200 -0.0323  0.2564
 6937TIP3    H220776   2.590   6.684   2.285 -0.3203 -0.6385 -1.5209
 6938TIP3   OH220777   1.966   3.071   1.369  0.4822  0.3594  0.2884
 6938TIP3    H120778   1.883   3.109   1.340  0.0381  0.5271  1.7303
 6938TIP3    H220779   1.981   3.108   1.456  2.2390  0.5682 -0.0736
 6939TIP3   OH220780   2.973   3.334   3.354 -0.2624  0.0205 -0.9111
 6939TIP3    H120781   2.941   3.316   3.443 -0.5488  0.5306 -0.9040
 6939TIP3    H220782   2.979   3.430   3.351  0.7585 -0.0387 -1.0926
 6940TIP3   OH220783   0.815   5.410   0.228  0.1870  0.1423  0.4509
 6940TIP3    H120784   0.898   5.363   0.232  0.2311  0.2821  1.2817
 6940TIP3    H220785   0.840   5.503   0.229  0.0562  0.1925 -0.2038
 6941TIP3   OH220786   4.047   0.740   0.985 -0.1839  0.2420  0.1571
 6941TIP3    H120787   4.030   0.832   1.006 -1.5604 -0.3123  1.6354
 6941TIP3    H220788   4.027   0.693   1.066  0.9431 -1.3288 -0.4373
 6942TIP3   OH220789   1.504   2.229   0.838 -0.0540  0.1786  0.0142
 6942TIP3    H120790   1.484   2.191   0.924 -1.3381  1.0296  0.1337
 6942TIP3    H220791   1.597   2.252   0.843 -0.1151  0.2478  1.1981
 6943TIP3   OH220792   3.433   5.435   5.501  0.0034 -0.5117 -0.3015
 6943TIP3    H120793   3.353   5.389   5.528 -0.1918 -0.2206 -0.3781
 6943TIP3    H220794   3.428   5.437   5.406 -0.1084 -0.1179 -0.2872
 6944TIP3   OH220795   7.174   3.049   2.362 -0.1790  0.4493  0.2968
 6944TIP3    H120796   7.114   2.983   2.397 -0.3107 -0.5810 -1.7093
 6944TIP3    H220797   7.256   3.001   2.348  0.6445  1.4473  1.4608
 6945TIP3   OH220798   6.550   4.275   1.866 -0.6801  0.3093  0.0051
 6945TIP3    H120799   6.634   4.275   1.821  0.7622  0.5106  2.5354
 6945TIP3    H220800   6.535   4.183   1.890  1.2251  0.7392  3.5289
 6946TIP3   OH220801   0.899   6.566   4.668  0.2034  0.0844 -0.3346
 6946TIP3    H120802   0.933   6.572   4.579  0.6797 -1.0124 -0.2390
 6946TIP3    H220803   0.826   6.504   4.661  0.7952 -0.6742  0.1969
 6947TIP3   OH220804   3.426   2.428   5.921  0.4011 -0.2589  0.1599
 6947TIP3    H120805   3.475   2.497   5.876  0.9698 -0.9762 -0.3436
 6947TIP3    H220806   3.384   2.378   5.850 -0.4997 -0.0779  0.5507
 6948TIP3   OH220807   3.746   4.509   1.370 -0.0742 -0.2953 -0.5036
 6948TIP3    H120808   3.731   4.576   1.437  0.1745  0.0330 -0.7753
 6948TIP3    H220809   3.720   4.427   1.413  2.0128 -0.3876  0.7222
 6949TIP3   OH220810   6.749   3.692   3.210  0.3109 -0.0193  0.0868
 6949TIP3    H120811   6.832   3.722   3.247  0.7428 -1.7439  0.5899
 6949TIP3    H220812   6.721   3.764   3.153  0.6252  1.8602  2.1866
 6950TIP3   OH220813   6.061   3.730   1.207  0.1343 -0.0594 -0.1612
 6950TIP3    H120814   6.108   3.653   1.175 -1.5353 -1.3235  0.2349
 6950TIP3    H220815   6.014   3.763   1.130 -0.4392 -0.4623  0.0035
 6951TIP3   OH220816   3.627   2.274   0.671  0.1277 -0.2014  0.2126
 6951TIP3    H120817   3.574   2.290   0.593 -0.1087  0.0055  0.4127
 6951TIP3    H220818   3.565   2.238   0.735  0.3087 -0.3186  0.3241
 6952TIP3   OH220819   6.993   3.764   2.237  0.4635 -0.0558 -0.2520
 6952TIP3    H120820   6.976   3.671   2.251  0.1115 -0.2561 -1.8217
 6952TIP3    H220821   7.053   3.767   2.162  0.2636  0.9779 -0.3905
 6953TIP3   OH220822   4.934   6.721   0.708 -0.2623  0.5714 -0.1023
 6953TIP3    H120823   4.851   6.759   0.735 -0.9280 -1.2497  0.5463
 6953TIP3    H220824   4.976   6.789   0.655 -1.4080  2.1361  0.9303
 6954TIP3   OH220825   2.044   1.458   3.357  0.1125  0.2048 -0.1300
 6954TIP3    H120826   1.953   1.429   3.358  0.0231  0.4590  1.3926
 6954TIP3    H220827   2.044   1.541   3.404  0.9180  0.9522 -1.3859
 6955TIP3   OH220828   3.129   1.131   0.049 -0.4712 -0.3887  0.0729
 6955TIP3    H120829   3.045   1.170   0.073 -1.0270 -0.9973 -0.8208
 6955TIP3    H220830   3.143   1.063   0.115  0.3459  1.0612  1.4404
 6956TIP3   OH220831   2.979   5.832   0.197  0.2288 -0.3096 -0.3806
 6956TIP3    H120832   3.049   5.891   0.169  0.6528 -0.1591  0.9261
 6956TIP3    H220833   3.009   5.745   0.170  1.3806 -0.3635  0.9513
 6957TIP3   OH220834   5.200   4.037   5.188 -0.3998 -0.7721 -0.3380
 6957TIP3    H120835   5.233   3.956   5.228  2.0826 -0.0890 -0.8636
 6957TIP3    H220836   5.206   4.021   5.094 -0.0280 -0.0494 -0.4401
 6958TIP3   OH220837   5.184   1.723   2.049 -0.3559  0.2354  0.3905
 6958TIP3    H120838   5.175   1.809   2.092  0.6189  1.4430 -1.6448
 6958TIP3    H220839   5.160   1.739   1.958  0.0915 -1.6236 -0.0956
 6959TIP3   OH220840   5.086   2.532   0.203 -0.4064  0.3127 -0.4735
 6959TIP3    H120841   5.099   2.476   0.279  1.0161  0.1390 -0.8202
 6959TIP3    H220842   5.024   2.483   0.148 -1.0291  0.1972  0.3014
 6960TIP3   OH220843   4.921   5.793   0.303  0.2915  0.2969 -0.1220
 6960TIP3    H120844   4.910   5.726   0.235  0.9515 -1.1502  1.1410
 6960TIP3    H220845   5.012   5.820   0.295  0.0144  1.1212 -0.6574
 6961TIP3   OH220846   2.106   1.952   1.751  0.3130  0.5253 -0.3146
 6961TIP3    H120847   2.160   2.006   1.693  1.6187 -0.1903  0.1760
 6961TIP3    H220848   2.170   1.911   1.810 -0.7064 -0.9865 -0.2258
 6962TIP3   OH220849   5.903   6.237   1.688 -0.0769  0.5862 -0.0757
 6962TIP3    H120850   5.954   6.196   1.759  1.9334  0.0592 -1.7006
 6962TIP3    H220851   5.947   6.320   1.672 -2.0696  1.8979  0.9206
 6963TIP3   OH220852   2.856   5.622   2.472 -0.3122 -0.5672 -0.0946
 6963TIP3    H120853   2.941   5.595   2.508 -1.0678 -2.4342  0.3739
 6963TIP3    H220854   2.802   5.543   2.477 -1.9228  0.4547 -0.8794
 6964TIP3   OH220855   1.644   5.902   3.516 -0.0640  0.3817  0.2961
 6964TIP3    H120856   1.569   5.922   3.572  0.8064 -1.2680  2.1844
 6964TIP3    H220857   1.717   5.893   3.578  1.1418 -0.6331 -1.2266
 6965TIP3   OH220858   2.688   5.470   0.546 -0.5265  0.2836 -0.0992
 6965TIP3    H120859   2.686   5.443   0.454  1.2100  0.0080 -0.0765
 6965TIP3    H220860   2.780   5.472   0.570 -0.9519 -0.2433  1.8256
 6966TIP3   OH220861   5.755   4.208   5.192  0.6541 -0.0379  0.1603
 6966TIP3    H120862   5.827   4.147   5.211  0.3179 -0.4261  0.1892
 6966TIP3    H220863   5.721   4.233   5.278  0.5287 -0.1254  0.1363
 6967TIP3   OH220864   0.132   2.716   3.212 -0.1707  0.1745 -1.0388
 6967TIP3    H120865   0.168   2.666   3.285  0.5504 -0.8474 -2.0465
 6967TIP3    H220866   0.086   2.650   3.159 -2.9718  1.2903 -0.2050
 6968TIP3   OH220867   4.486   5.992   0.242  0.0271 -0.4779 -0.3591
 6968TIP3    H120868   4.525   6.069   0.200 -0.3423 -0.1681 -0.1459
 6968TIP3    H220869   4.450   5.941   0.169  1.4909 -1.1622 -0.6319
 6969TIP3   OH220870   6.132   2.174   0.624 -0.3822 -0.6361 -0.3708
 6969TIP3    H120871   6.085   2.255   0.645 -1.2739 -1.4667  0.9652
 6969TIP3    H220872   6.067   2.120   0.578 -0.2147 -1.1322 -0.0305
 6970TIP3   OH220873   4.167   3.333   3.412 -0.0641 -0.1473  0.1044
 6970TIP3    H120874   4.198   3.416   3.450  2.5888  0.2351 -2.5166
 6970TIP3    H220875   4.109   3.359   3.341  0.7208 -0.5103 -0.6850
 6971TIP3   OH220876   2.950   5.549   1.920  0.0162  0.9122 -0.0382
 6971TIP3    H120877   2.930   5.491   1.993  1.4251  2.4558  1.6555
 6971TIP3    H220878   2.888   5.622   1.929 -1.6768 -0.1741 -2.0863
 6972TIP3   OH220879   2.698   3.353   1.797 -0.1833 -0.6048 -0.5829
 6972TIP3    H120880   2.734   3.265   1.783  0.4979 -0.4850  0.3270
 6972TIP3    H220881   2.770   3.402   1.837  0.2187  1.0242 -3.0727
 6973TIP3   OH220882   6.082   2.747   2.263 -0.2795 -0.1760  0.2717
 6973TIP3    H120883   6.032   2.719   2.186 -1.2760 -2.6389  1.6993
 6973TIP3    H220884   6.172   2.718   2.245 -0.1285  0.8646 -0.6997
 6974TIP3   OH220885   2.111   2.584   1.358  0.0814 -0.0858  0.2735
 6974TIP3    H120886   2.039   2.647   1.362  0.2976  0.1175  1.4352
 6974TIP3    H220887   2.096   2.536   1.277 -2.6167 -1.5220  1.4657
 6975TIP3   OH220888   4.178   5.284   2.599 -0.1802  0.0402  0.4218
 6975TIP3    H120889   4.109   5.229   2.563  0.7303 -1.5466  0.9781
 6975TIP3    H220890   4.132   5.353   2.648 -1.3521 -0.2845 -0.1976
 6976TIP3   OH220891   0.705   5.799   1.805 -0.0260  0.0116  0.4009
 6976TIP3    H120892   0.789   5.842   1.821 -0.4682  0.7653  0.7327
 6976TIP3    H220893   0.727   5.723   1.751  0.8439  0.2998  0.3344
 6977TIP3   OH220894   5.982   1.162   4.789  0.8851 -0.1409  0.3969
 6977TIP3    H120895   6.041   1.224   4.748  1.4266 -1.6414 -1.2698
 6977TIP3    H220896   6.028   1.078   4.785  0.2068 -0.6929  2.5822
 6978TIP3   OH220897   1.391   4.075   5.716 -0.0195  0.6280  0.3864
 6978TIP3    H120898   1.359   4.165   5.707  0.3024  0.8975  1.6913
 6978TIP3    H220899   1.455   4.065   5.646  0.5052  1.6749  0.7001
 6979TIP3   OH220900   5.452   6.106   4.791  0.6872  0.3419  0.0538
 6979TIP3    H120901   5.449   6.180   4.730 -3.2912  0.4047  0.0877
 6979TIP3    H220902   5.415   6.141   4.872  0.8865 -1.1277  0.8018
 6980TIP3   OH220903   4.217   6.026   2.272  0.1314  0.7311 -0.4966
 6980TIP3    H120904   4.263   6.046   2.353  0.2893  0.2015 -0.4528
 6980TIP3    H220905   4.151   6.096   2.263 -0.2721  0.4708  0.3876
 6981TIP3   OH220906   6.172   4.498   0.201  0.1163  0.0208 -0.3440
 6981TIP3    H120907   6.257   4.455   0.195  1.0241  1.7801 -0.6937
 6981TIP3    H220908   6.182   4.563   0.270 -1.5658 -1.0065  0.9512
 6982TIP3   OH220909   5.663   3.903   2.571 -0.1521 -0.1242 -0.2852
 6982TIP3    H120910   5.663   3.807   2.568 -0.2743 -0.1812  0.8258
 6982TIP3    H220911   5.755   3.926   2.580 -0.1796 -0.1802  0.1661
 6983TIP3   OH220912   3.720   1.395   5.115  0.5150  0.1024  0.5981
 6983TIP3    H120913   3.699   1.358   5.201  0.1216 -0.7710  0.1314
 6983TIP3    H220914   3.738   1.320   5.060  0.7527  0.6623 -0.1041
 6984TIP3   OH220915   6.390   2.533   4.157 -0.3459 -0.2305  0.2444
 6984TIP3    H120916   6.440   2.543   4.076  2.2470 -0.0610  1.7432
 6984TIP3    H220917   6.304   2.571   4.137  0.1568 -0.2873 -2.4178
 6985TIP3   OH220918   4.000   6.121   5.204 -0.0483  0.1444  0.1671
 6985TIP3    H120919   4.044   6.044   5.242  0.9994 -0.1215 -1.4773
 6985TIP3    H220920   3.929   6.084   5.151  0.5121  0.2741 -0.6981
 6986TIP3   OH220921   5.097   4.670   5.090 -0.3221 -0.0133  0.3736
 6986TIP3    H120922   5.128   4.707   5.173  0.4836 -0.0752  0.1130
 6986TIP3    H220923   5.030   4.606   5.116 -2.3982  2.1893  0.7714
 6987TIP3   OH220924   4.661   6.339   2.370 -0.2012 -0.0062  0.0358
 6987TIP3    H120925   4.632   6.377   2.453 -0.2121  0.3649 -0.1347
 6987TIP3    H220926   4.757   6.348   2.373 -0.3263  2.2018 -1.0109
 6988TIP3   OH220927   2.973   0.954   2.756  0.5786 -0.1423  0.1007
 6988TIP3    H120928   3.045   0.991   2.705  0.5694  0.4909  0.5349
 6988TIP3    H220929   2.910   1.026   2.763 -0.5962 -0.9869 -1.1744
 6989TIP3   OH220930   1.370   3.235   2.126  0.0145  0.0926 -0.0170
 6989TIP3    H120931   1.428   3.293   2.076 -0.6008  3.2278  2.5771
 6989TIP3    H220932   1.283   3.274   2.116 -0.4915 -0.5760  1.5076
 6990TIP3   OH220933   5.382   4.804   3.971 -0.5189 -0.2075 -0.6079
 6990TIP3    H120934   5.329   4.735   4.011  1.1200 -0.8390  0.5981
 6990TIP3    H220935   5.461   4.760   3.941  0.5346  1.0843  0.1278
 6991TIP3   OH220936   5.564   1.555   0.755  0.5878  1.0863  0.2479
 6991TIP3    H120937   5.589   1.475   0.711 -0.0914  1.2405 -0.4457
 6991TIP3    H220938   5.646   1.600   0.774  0.8887  1.1489 -1.1335
 6992TIP3   OH220939   1.040   4.674   3.989 -0.3802 -0.3755 -0.2220
 6992TIP3    H120940   1.048   4.660   3.895 -2.4239 -2.0680 -0.2102
 6992TIP3    H220941   1.057   4.589   4.028 -0.3602  0.1133  0.8867
 6993TIP3   OH220942   2.219   5.014   1.390 -0.1320 -0.3724 -0.3853
 6993TIP3    H120943   2.255   5.014   1.301 -0.4343 -0.1647 -0.5059
 6993TIP3    H220944   2.232   4.924   1.420 -0.7831 -0.6602 -0.9403
 6994TIP3   OH220945   1.414   0.213   4.806  0.2691 -0.4941  0.0833
 6994TIP3    H120946   1.326   0.223   4.769  0.5090 -1.1500 -0.6968
 6994TIP3    H220947   1.446   0.302   4.816 -1.0545 -0.1529  1.8443
 6995TIP3   OH220948   2.270   0.747   5.920  0.4543 -0.0774  0.1787
 6995TIP3    H120949   2.216   0.797   5.859  0.4959  1.3742  1.2669
 6995TIP3    H220950   2.318   0.686   5.865  0.7845  1.4435 -1.3210
 6996TIP3   OH220951   6.766   0.713   1.160  0.2442  0.3221  0.7183
 6996TIP3    H120952   6.720   0.796   1.168 -0.6804 -0.1621  0.5498
 6996TIP3    H220953   6.734   0.660   1.233 -0.5027 -0.4963 -0.1776
 6997TIP3   OH220954   1.863   1.099   1.530  0.5121 -0.2725 -0.0629
 6997TIP3    H120955   1.817   1.167   1.577  0.4282 -1.2530  1.3258
 6997TIP3    H220956   1.796   1.035   1.506  0.6021  0.0554 -1.2606
 6998TIP3   OH220957   1.206   5.832   1.064 -0.7403 -0.2456 -0.1318
 6998TIP3    H120958   1.294   5.866   1.045 -0.3006 -1.5532 -0.5164
 6998TIP3    H220959   1.159   5.843   0.981 -1.6317  2.3430  0.6072
 6999TIP3   OH220960   6.421   5.468   0.745 -0.0910  0.2503 -0.1560
 6999TIP3    H120961   6.499   5.460   0.690 -0.7081 -2.3750 -0.8151
 6999TIP3    H220962   6.438   5.408   0.818 -0.4501  1.5958  1.0655
 7000TIP3   OH220963   4.913   2.697   5.142  0.1410 -0.0184 -0.9959
 7000TIP3    H120964   4.818   2.692   5.151  0.1656  1.8655  1.0352
 7000TIP3    H220965   4.935   2.785   5.172  2.6634 -0.8587 -0.1468
 7001TIP3   OH220966   3.212   3.589   5.526 -0.5116  0.2548  0.0118
 7001TIP3    H120967   3.145   3.521   5.532  0.6704 -0.8432  2.1903
 7001TIP3    H220968   3.190   3.650   5.597  0.0829  0.5520 -0.0530
 7002TIP3   OH220969   0.674   5.660   1.461 -0.0477  0.8005  0.1085
 7002TIP3    H120970   0.647   5.664   1.369  0.0058  3.7865  0.1249
 7002TIP3    H220971   0.638   5.577   1.493 -1.5045  0.4691 -2.1578
 7003TIP3   OH220972   6.478   0.324   2.537  0.0345  0.0436  0.1790
 7003TIP3    H120973   6.426   0.365   2.468 -0.1907 -1.6514 -0.6944
 7003TIP3    H220974   6.416   0.271   2.586  0.1014  1.5539  2.0195
 7004TIP3   OH220975   6.690   3.250   0.421 -0.2397 -0.0142  0.8050
 7004TIP3    H120976   6.753   3.206   0.365 -0.3679 -0.8682  1.3184
 7004TIP3    H220977   6.617   3.270   0.363  0.2166  0.3851  0.3569
 7005TIP3   OH220978   0.248   1.581   5.688 -0.3442 -0.1344  0.1175
 7005TIP3    H120979   0.208   1.572   5.774 -0.1714 -1.8975  0.0501
 7005TIP3    H220980   0.339   1.605   5.707 -0.6952  1.0526  0.3581
 7006TIP3   OH220981   0.356   2.041   4.372 -0.0471 -0.1985 -0.4032
 7006TIP3    H120982   0.261   2.035   4.370  0.0418 -1.8341 -1.0356
 7006TIP3    H220983   0.374   2.135   4.361 -1.5827  0.3371  1.1950
 7007TIP3   OH220984   1.545   4.066   5.147 -0.3598 -0.2628 -0.5942
 7007TIP3    H120985   1.636   4.063   5.176 -0.6820 -1.3863  0.4246
 7007TIP3    H220986   1.542   4.133   5.080  0.6221  2.0096  1.4908
 7008TIP3   OH220987   2.329   0.494   0.844 -0.5421 -0.1927 -0.3259
 7008TIP3    H120988   2.312   0.550   0.920  0.6255  2.7061 -2.0382
 7008TIP3    H220989   2.364   0.413   0.881 -0.9470  0.7176  2.2493
 7009TIP3   OH220990   6.331   2.625   2.262 -0.7219  0.1611 -0.4257
 7009TIP3    H120991   6.388   2.691   2.300 -1.1051  0.1910  0.1112
 7009TIP3    H220992   6.388   2.550   2.246 -0.4274  0.3767 -0.3888
 7010TIP3   OH220993   1.637   5.385   5.394 -0.7789 -0.3576  0.1737
 7010TIP3    H120994   1.631   5.454   5.328 -0.5035 -0.7694 -0.2890
 7010TIP3    H220995   1.566   5.404   5.455 -0.4099  0.6107  0.3244
 7011TIP3   OH220996   2.528   3.964   4.806  0.0627  0.0108 -0.3376
 7011TIP3    H120997   2.509   4.049   4.846  1.1825 -0.3122  0.9822
 7011TIP3    H220998   2.623   3.954   4.816  0.1166 -0.8864 -1.5378
 7012TIP3   OH220999   7.046   1.079   1.523 -0.1356 -0.0096 -0.1137
 7012TIP3    H121000   7.109   1.026   1.473 -0.2756  0.6157 -0.9755
 7012TIP3    H221001   7.038   1.034   1.607  2.2242  0.4186  0.4085
 7013TIP3   OH221002   0.384   4.475   0.441  0.4392  0.3547  0.4972
 7013TIP3    H121003   0.313   4.539   0.454  1.5575  2.0336 -1.0761
 7013TIP3    H221004   0.409   4.486   0.349  1.6173 -1.4139  0.5592
 7014TIP3   OH221005   0.601   3.148   1.983 -0.0448  0.5082 -0.8281
 7014TIP3    H121006   0.547   3.204   1.927  0.9750  0.5035 -1.8498
 7014TIP3    H221007   0.689   3.187   1.979 -0.2162  1.4931  2.0837
 7015TIP3   OH221008   0.172   5.668   1.451  0.2680  0.2220 -0.1563
 7015TIP3    H121009   0.255   5.623   1.464 -0.0617  0.3478  3.2043
 7015TIP3    H221010   0.191   5.760   1.464 -0.4491  0.1900  1.3755
 7016TIP3   OH221011   1.238   5.624   5.054  0.2053  0.1595  0.0021
 7016TIP3    H121012   1.273   5.697   5.105  0.2800  0.9960 -1.2054
 7016TIP3    H221013   1.257   5.547   5.108 -0.8362  1.0933  1.8041
 7017TIP3   OH221014   6.816   5.780   3.300  0.1583  0.4135  0.3675
 7017TIP3    H121015   6.772   5.759   3.217  1.6709  1.1347 -0.6691
 7017TIP3    H221016   6.831   5.694   3.341 -0.0891 -0.0098 -0.3944
 7018TIP3   OH221017   1.787   1.673   0.936 -0.1075 -0.5001 -0.0584
 7018TIP3    H121018   1.715   1.640   0.882 -0.7276  0.5877  0.0691
 7018TIP3    H221019   1.782   1.620   1.016 -0.6508 -0.5721 -0.1306
 7019TIP3   OH221020   5.371   3.858   2.607  0.1624 -0.1746 -0.1935
 7019TIP3    H121021   5.406   3.837   2.521 -0.2502 -2.1791  0.0819
 7019TIP3    H221022   5.278   3.874   2.592  0.2923  0.5542 -0.2587
 7020TIP3   OH221023   6.884   4.919   2.227 -0.0800 -0.0206 -0.2655
 7020TIP3    H121024   6.832   4.858   2.280 -1.1695  0.1716 -1.0778
 7020TIP3    H221025   6.966   4.930   2.276 -0.3535 -1.1929  0.4933
 7021TIP3   OH221026   4.968   0.837   2.252  0.3815  0.4121 -0.4855
 7021TIP3    H121027   5.051   0.822   2.297 -0.7019  0.8448  1.8218
 7021TIP3    H221028   4.963   0.933   2.244 -0.0495  0.4149 -0.2335
 7022TIP3   OH221029   0.808   5.596   3.630 -0.8008 -0.5108  0.3546
 7022TIP3    H121030   0.892   5.550   3.635  0.8349  2.0572 -1.4842
 7022TIP3    H221031   0.760   5.565   3.707  1.6198 -2.4244  1.2267
 7023TIP3   OH221032   1.577   6.431   1.222  0.0572  0.0357  0.3041
 7023TIP3    H121033   1.531   6.515   1.220  0.6744  0.3738  0.1033
 7023TIP3    H221034   1.621   6.430   1.306 -1.5851 -0.9960  1.2072
 7024TIP3   OH221035   1.753   3.935   3.264 -0.2573 -0.2348  0.5299
 7024TIP3    H121036   1.725   3.880   3.191  2.9240  0.6541 -1.5803
 7024TIP3    H221037   1.814   3.881   3.314  1.0354  0.5191 -0.1664
 7025TIP3   OH221038   3.833   5.674   2.527 -0.0116  0.1935 -0.7484
 7025TIP3    H121039   3.799   5.619   2.456 -1.1423 -0.4895  0.2973
 7025TIP3    H221040   3.914   5.711   2.491  0.4323 -1.6082 -1.7229
 7026TIP3   OH221041   5.734   2.755   0.249 -0.2833 -0.2796  0.1598
 7026TIP3    H121042   5.686   2.764   0.166  1.5285 -0.5893 -0.9790
 7026TIP3    H221043   5.756   2.845   0.273  1.6351 -0.3155 -1.2554
 7027TIP3   OH221044   2.393   3.716   3.179 -0.4485  0.1547  0.2554
 7027TIP3    H121045   2.418   3.667   3.100 -1.7207 -1.5450  0.8352
 7027TIP3    H221046   2.381   3.648   3.245  0.9374  1.5681  2.0412
 7028TIP3   OH221047   0.585   5.614   0.719  0.0382  0.1529 -0.2013
 7028TIP3    H121048   0.667   5.620   0.768 -0.7669 -1.4009  1.4484
 7028TIP3    H221049   0.597   5.540   0.660  0.5575  1.2580 -1.5320
 7029TIP3   OH221050   3.007   0.458   3.472  0.6076  0.4007 -0.1379
 7029TIP3    H121051   2.991   0.412   3.389  1.0498  2.0602 -1.2039
 7029TIP3    H221052   2.922   0.463   3.514  0.4618 -0.9069 -0.2375
 7030TIP3   OH221053   6.602   2.118   3.656  0.0257  0.0514 -0.0479
 7030TIP3    H121054   6.533   2.108   3.723  1.8565  1.3891  2.1753
 7030TIP3    H221055   6.634   2.029   3.643  0.4049 -0.1289  1.7982
 7031TIP3   OH221056   6.302   2.818   2.702  0.0575  0.1829  0.5852
 7031TIP3    H121057   6.394   2.794   2.687  0.4922  0.2798  2.7778
 7031TIP3    H221058   6.300   2.912   2.682 -0.2249 -0.2888 -1.9759
 7032TIP3   OH221059   3.592   1.263   2.944  0.3498 -0.4643  0.5145
 7032TIP3    H121060   3.508   1.290   2.908  1.1661  1.0320 -0.3225
 7032TIP3    H221061   3.587   1.285   3.037  0.4188  1.2069  0.1439
 7033TIP3   OH221062   6.404   0.291   2.189  0.4189  0.0330 -0.2457
 7033TIP3    H121063   6.446   0.207   2.171  0.7121  0.5053 -1.9756
 7033TIP3    H221064   6.378   0.324   2.102 -0.4973  1.3136  0.4761
 7034TIP3   OH221065   1.845   4.053   5.720 -0.1451 -0.3904 -0.2160
 7034TIP3    H121066   1.797   3.995   5.780 -1.6917  0.0522 -0.9678
 7034TIP3    H221067   1.777   4.110   5.684  1.2087  1.3157 -0.1603
 7035TIP3   OH221068   1.795   2.008   1.727  0.0810 -0.3254  0.0838
 7035TIP3    H121069   1.798   2.098   1.759  1.9249 -0.1664 -0.4287
 7035TIP3    H221070   1.883   1.975   1.739 -0.5692 -2.0904  0.2585
 7036TIP3   OH221071   0.535   1.862   0.232 -0.1893  0.1630 -0.2880
 7036TIP3    H121072   0.554   1.938   0.288  0.9891 -0.5919  0.3920
 7036TIP3    H221073   0.508   1.900   0.149  2.1322  1.3909 -0.5811
 7037TIP3   OH221074   3.243   1.792   0.332  0.4356 -0.1827  0.0163
 7037TIP3    H121075   3.243   1.788   0.427 -0.0490  0.0302  0.0312
 7037TIP3    H221076   3.180   1.861   0.311  0.0155 -0.6995 -0.4741
 7038TIP3   OH221077   2.803   5.968   4.942 -0.4118  0.0726 -0.1322
 7038TIP3    H121078   2.766   5.903   5.001 -0.3023 -0.7935 -0.9880
 7038TIP3    H221079   2.792   6.052   4.988 -0.0474 -0.5975  1.2353
 7039TIP3   OH221080   6.405   0.592   1.598 -0.0073  0.4120  0.0327
 7039TIP3    H121081   6.464   0.639   1.538 -0.0756 -0.3287 -0.6366
 7039TIP3    H221082   6.354   0.534   1.541 -0.6434  0.2727  0.7262
 7040TIP3   OH221083   3.728   1.767   0.803 -0.0990 -0.3663 -0.2420
 7040TIP3    H121084   3.683   1.742   0.883 -0.1240  1.0822  0.2345
 7040TIP3    H221085   3.818   1.786   0.830 -0.3164  0.9674 -0.3588
 7041TIP3   OH221086   3.972   2.705   3.761 -0.3898  0.2203  0.9448
 7041TIP3    H121087   4.003   2.625   3.719  0.1528 -0.0328  1.8226
 7041TIP3    H221088   3.890   2.680   3.803 -1.1318  0.5629 -0.2206
 7042TIP3   OH221089   6.239   4.407   3.300 -0.3615  0.2876 -0.3133
 7042TIP3    H121090   6.329   4.390   3.327 -0.7014 -0.2028  0.5432
 7042TIP3    H221091   6.232   4.368   3.213  0.6518  1.5726 -1.0043
 7043TIP3   OH221092   6.437   1.113   5.629  0.6719 -0.3518  0.1272
 7043TIP3    H121093   6.429   1.157   5.544  1.4120 -0.8566 -0.2219
 7043TIP3    H221094   6.490   1.035   5.610  0.3877 -0.7558  0.9538
 7044TIP3   OH221095   6.158   0.879   3.658 -0.1041 -0.2145  0.1223
 7044TIP3    H121096   6.087   0.848   3.603 -0.9627 -1.1802  1.7174
 7044TIP3    H221097   6.123   0.957   3.701  0.4307  0.3160 -0.3744
 7045TIP3   OH221098   5.519   6.381   0.131 -0.1648 -0.1986 -0.2712
 7045TIP3    H121099   5.609   6.357   0.110 -0.2045 -1.9585  1.3093
 7045TIP3    H221100   5.466   6.309   0.095 -0.7575 -0.0973  0.3781
 7046TIP3   OH221101   3.037   4.891   1.744 -0.3710 -0.4821 -0.3349
 7046TIP3    H121102   2.959   4.898   1.688 -0.8739 -0.5003  0.3433
 7046TIP3    H221103   3.077   4.808   1.719 -0.8403 -0.7052 -0.3622
 7047TIP3   OH221104   1.631   6.645   2.537  0.3136 -0.4905 -0.1338
 7047TIP3    H121105   1.703   6.602   2.583  0.0724 -0.6853  0.0669
 7047TIP3    H221106   1.623   6.597   2.455  1.9896  1.0405 -1.2611
 7048TIP3   OH221107   3.029   4.068   1.704  0.5838  0.4779 -0.1025
 7048TIP3    H121108   3.124   4.070   1.694  0.5272  0.0707 -0.8283
 7048TIP3    H221109   3.010   3.981   1.737  0.4226  0.3434 -0.5372
 7049TIP3   OH221110   4.639   3.017   3.111  0.0275  0.0270  0.8667
 7049TIP3    H121111   4.662   3.071   3.036 -1.4203 -0.7288 -0.1852
 7049TIP3    H221112   4.659   2.927   3.083  1.5797 -0.1105  2.2568
 7050TIP3   OH221113   2.950   1.478   2.254 -0.4228 -0.2826  0.1468
 7050TIP3    H121114   2.956   1.516   2.167 -1.2887 -1.5514 -0.4890
 7050TIP3    H221115   2.857   1.479   2.275 -0.1785  0.6317  1.3802
 7051TIP3   OH221116   6.261   4.302   1.046  0.0891  0.2939  0.3312
 7051TIP3    H121117   6.269   4.238   1.117  1.6058 -0.4872 -0.4867
 7051TIP3    H221118   6.250   4.249   0.967  3.4536  0.8096 -0.6661
 7052TIP3   OH221119   3.848   0.516   2.825 -0.0733  0.3100 -0.5051
 7052TIP3    H121120   3.880   0.543   2.911  2.2489  2.3397 -1.8894
 7052TIP3    H221121   3.891   0.432   2.808  0.9751  0.8342 -0.4683
 7053TIP3   OH221122   3.069   1.341   0.788  0.1255 -0.0268 -0.7379
 7053TIP3    H121123   3.039   1.371   0.702 -0.4542  0.2744 -0.4393
 7053TIP3    H221124   2.992   1.299   0.826 -0.3250  1.8518  0.5471
 7054TIP3   OH221125   3.602   2.167   2.320  0.2908  0.1821  0.3233
 7054TIP3    H121126   3.582   2.131   2.406  2.6822  0.4454  1.0632
 7054TIP3    H221127   3.654   2.099   2.277 -0.8801  0.0496 -0.9794
 7055TIP3   OH221128   6.855   5.987   2.034  0.2607 -0.5204  0.4283
 7055TIP3    H121129   6.858   5.983   1.939 -0.6215  0.3685  0.3500
 7055TIP3    H221130   6.771   5.948   2.057  0.8187 -1.4890  0.9110
 7056TIP3   OH221131   0.079   2.272   4.980 -0.2517 -0.0959 -0.7777
 7056TIP3    H121132   0.059   2.360   4.950  0.2231  0.2579 -0.0892
 7056TIP3    H221133   0.007   2.249   5.039  0.0641  0.1895 -0.2682
 7057TIP3   OH221134   6.192   6.572   2.056  0.1323 -0.4582  0.6236
 7057TIP3    H121135   6.172   6.666   2.061  0.3456 -0.4337  1.1125
 7057TIP3    H221136   6.107   6.530   2.046  0.1447 -0.1236 -1.1661
 7058TIP3   OH221137   4.031   1.197   4.028 -0.3144 -0.5920 -0.2311
 7058TIP3    H121138   4.048   1.161   3.940 -1.1497  0.8072 -0.9959
 7058TIP3    H221139   4.097   1.265   4.039 -0.1047 -0.8814  0.3046
 7059TIP3   OH221140   5.622   4.439   5.047  0.0092 -0.5136 -0.3167
 7059TIP3    H121141   5.638   4.475   4.960 -0.0916  0.6668  0.1354
 7059TIP3    H221142   5.659   4.503   5.107 -1.3965 -0.4642  0.5656
 7060TIP3   OH221143   5.952   1.908   1.888  0.1280 -0.4136  0.1149
 7060TIP3    H121144   5.958   1.813   1.881 -0.8727 -0.5420  0.8186
 7060TIP3    H221145   5.877   1.931   1.833  0.0107 -0.1006  0.4009
 7061TIP3   OH221146   1.991   0.597   2.282 -0.0293 -0.0657  0.0827
 7061TIP3    H121147   1.923   0.552   2.333  0.5002  0.5473  1.3662
 7061TIP3    H221148   2.071   0.546   2.298  0.2420  0.4148  0.2496
 7062TIP3   OH221149   1.726   4.361   1.513 -0.0644  0.2102  0.2436
 7062TIP3    H121150   1.791   4.375   1.582 -1.4624 -1.7053  2.0654
 7062TIP3    H221151   1.698   4.270   1.524 -2.6142  0.7692 -0.8620
 7063TIP3   OH221152   2.585   5.346   3.973 -0.0921  0.0840  0.0087
 7063TIP3    H121153   2.507   5.342   4.028 -0.1104 -0.9229 -0.0746
 7063TIP3    H221154   2.655   5.313   4.029  0.0104 -0.3311 -0.3604
 7064TIP3   OH221155   7.218   6.599   5.647 -0.1723  0.3837  0.0391
 7064TIP3    H121156   7.197   6.509   5.622 -1.3794  0.4994  0.5707
 7064TIP3    H221157   7.135   6.636   5.677  0.0055  2.0975 -1.3733
 7065TIP3   OH221158   5.235   3.382   2.346  0.3880 -0.4798 -0.4178
 7065TIP3    H121159   5.185   3.304   2.322 -0.7572 -0.9795  3.1056
 7065TIP3    H221160   5.170   3.451   2.356  1.3413  0.9459 -3.0226
 7066TIP3   OH221161   0.626   3.723   4.579  0.5201  0.0763  0.0637
 7066TIP3    H121162   0.629   3.809   4.622 -0.7868 -0.7318  1.9024
 7066TIP3    H221163   0.606   3.662   4.650  0.3480 -1.6247 -1.3943
 7067TIP3   OH221164   5.474   4.029   4.444 -0.5745  0.2270  0.2414
 7067TIP3    H121165   5.498   4.054   4.355  0.5464  0.2740  0.5383
 7067TIP3    H221166   5.435   3.942   4.435 -2.9663  1.3173 -0.5928
 7068TIP3   OH221167   6.888   4.410   3.493 -0.4521  0.4679  0.3913
 7068TIP3    H121168   6.941   4.462   3.554  1.1566 -0.1407 -0.4208
 7068TIP3    H221169   6.941   4.406   3.413  0.4485 -3.9524  0.9792
 7069TIP3   OH221170   3.814   0.309   4.438 -0.3376  0.1578 -0.1235
 7069TIP3    H121171   3.866   0.378   4.478  0.5355 -0.3271 -0.3837
 7069TIP3    H221172   3.834   0.314   4.344 -0.1093 -0.5568 -0.1235
 7070TIP3   OH221173   3.852   0.568   4.046  0.1943 -0.2360  0.4040
 7070TIP3    H121174   3.906   0.618   3.984  1.5658 -1.9218  0.1492
 7070TIP3    H221175   3.779   0.626   4.067 -1.1674 -0.0331 -3.8898
 7071TIP3   OH221176   3.254   5.414   4.475  0.9804 -0.1716  0.0189
 7071TIP3    H121177   3.166   5.417   4.436  1.9533  0.6842 -2.2832
 7071TIP3    H221178   3.273   5.321   4.484 -0.7920 -0.4170  2.2573
 7072TIP3   OH221179   2.134   6.259   0.613 -0.4077 -0.3833  0.3058
 7072TIP3    H121180   2.086   6.260   0.530 -0.2999  1.1307  0.2349
 7072TIP3    H221181   2.069   6.286   0.678  0.0111  0.3505  0.4171
 7073TIP3   OH221182   4.747   4.641   3.863 -0.1115  0.0197  1.0807
 7073TIP3    H121183   4.766   4.553   3.896  1.1944 -0.4571 -0.7878
 7073TIP3    H221184   4.673   4.671   3.917 -1.1198 -2.5093  1.2710
 7074TIP3   OH221185   1.167   4.624   3.020 -0.3346  0.0291  0.1073
 7074TIP3    H121186   1.105   4.560   2.983  1.2217 -1.0148 -0.8370
 7074TIP3    H221187   1.221   4.572   3.080  1.5279  0.1911 -1.3372
 7075TIP3   OH221188   3.098   4.720   5.210  0.5505  0.3059 -0.3780
 7075TIP3    H121189   3.070   4.651   5.270  0.7488  0.6876  0.1607
 7075TIP3    H221190   3.072   4.802   5.253 -1.2098  0.5446 -1.7781
 7076TIP3   OH221191   4.269   5.135   5.844 -0.4663 -0.1730 -0.7593
 7076TIP3    H121192   4.288   5.126   5.751  0.8065  0.0448 -0.5413
 7076TIP3    H221193   4.331   5.075   5.887 -2.7572 -2.2445 -0.1582
 7077TIP3   OH221194   3.229   5.677   3.406  0.1855  0.2638  0.3419
 7077TIP3    H121195   3.146   5.676   3.359  0.3983  0.5909 -0.0385
 7077TIP3    H221196   3.206   5.652   3.496 -0.5874  1.9941  0.6665
 7078TIP3   OH221197   5.054   0.279   4.375  0.3328  0.0575 -0.4808
 7078TIP3    H121198   5.028   0.187   4.368  0.4420 -0.1128  0.9829
 7078TIP3    H221199   5.141   0.283   4.335 -0.0771 -0.2539 -1.4428
 7079TIP3   OH221200   3.445   2.738   3.352 -0.4101  0.3156 -0.4071
 7079TIP3    H121201   3.524   2.793   3.349 -0.0789 -0.2082 -2.6146
 7079TIP3    H221202   3.430   2.725   3.446  1.9888  0.6369  0.1034
 7080TIP3   OH221203   5.450   0.456   4.323  0.4687  0.5227  0.3177
 7080TIP3    H121204   5.537   0.480   4.356  0.2777  0.8398  0.5941
 7080TIP3    H221205   5.408   0.410   4.395 -0.2508  1.9247  0.8314
 7081TIP3   OH221206   2.501   5.250   3.729  0.2884 -0.6373 -0.0962
 7081TIP3    H121207   2.525   5.266   3.821 -2.7171 -0.3481  0.7482
 7081TIP3    H221208   2.536   5.163   3.710  0.7609 -0.8156  1.4331
 7082TIP3   OH221209   1.601   6.439   2.332  0.2788 -1.0457  0.1475
 7082TIP3    H121210   1.523   6.402   2.290 -1.1226  1.7281  0.0283
 7082TIP3    H221211   1.672   6.420   2.272 -0.8772 -1.0942 -1.2694
 7083TIP3   OH221212   0.184   5.783   5.633 -0.4549 -0.4472 -0.2014
 7083TIP3    H121213   0.120   5.713   5.621 -0.2265 -0.6857 -0.0381
 7083TIP3    H221214   0.211   5.807   5.545  1.1518 -2.1281 -0.2456
 7084TIP3   OH221215   1.076   2.802   2.598 -0.4880  0.4752 -0.7488
 7084TIP3    H121216   1.033   2.808   2.683  0.7091 -0.9835  0.0103
 7084TIP3    H221217   1.013   2.756   2.543 -1.2874  1.4635 -0.6801
 7085TIP3   OH221218   2.179   4.806   4.266 -0.4478  0.0153  0.3158
 7085TIP3    H121219   2.252   4.749   4.291  0.0100 -0.0182 -1.0473
 7085TIP3    H221220   2.110   4.786   4.330  0.7524  0.1370  1.7080
 7086TIP3   OH221221   0.957   0.694   3.043  1.1289  0.2914 -0.1641
 7086TIP3    H121222   0.871   0.707   3.082  1.1453  0.1038 -0.0639
 7086TIP3    H221223   1.014   0.754   3.089  0.7274  1.6614 -1.3804
 7087TIP3   OH221224   4.082   6.262   5.750  0.2126  0.6753  0.6071
 7087TIP3    H121225   4.013   6.223   5.696  0.8127  1.3373 -0.6736
 7087TIP3    H221226   4.153   6.199   5.748  0.0739  0.4990  1.0146
 7088TIP3   OH221227   2.971   1.370   2.788  0.0213 -0.4327  0.5173
 7088TIP3    H121228   3.018   1.308   2.844  2.4427  1.3650  0.6409
 7088TIP3    H221229   3.039   1.408   2.733 -1.6732  0.8105 -0.7947
 7089TIP3   OH221230   5.961   0.186   5.369 -0.4134  0.0017  0.4356
 7089TIP3    H121231   5.993   0.230   5.290 -0.8681  1.7857  1.1936
 7089TIP3    H221232   5.867   0.178   5.356 -0.4309 -0.0961  0.6196
 7090TIP3   OH221233   0.874   5.707   4.498  0.6700 -0.7065  0.0209
 7090TIP3    H121234   0.799   5.708   4.558  0.7393 -0.4195  0.1050
 7090TIP3    H221235   0.949   5.728   4.554  0.8619 -1.3430  0.0003
 7091TIP3   OH221236   1.207   1.831   4.326  0.2665 -0.5033 -0.2572
 7091TIP3    H121237   1.146   1.905   4.321 -0.7904 -1.3726 -0.7117
 7091TIP3    H221238   1.286   1.868   4.365 -0.0156  1.0059 -1.0031
 7092TIP3   OH221239   1.896   2.324   4.999 -0.2074 -0.4201 -0.0358
 7092TIP3    H121240   1.826   2.367   4.949  0.0082 -1.0546 -0.8903
 7092TIP3    H221241   1.850   2.262   5.056 -0.4379  0.1951  0.4708
 7093TIP3   OH221242   2.079   1.701   0.916 -0.5870 -0.4608  0.4995
 7093TIP3    H121243   2.006   1.699   0.854  0.1321 -0.1495 -0.3631
 7093TIP3    H221244   2.079   1.613   0.955 -1.8355 -0.2562  1.0222
 7094TIP3   OH221245   2.286   5.005   0.554  0.1407  0.3987 -1.0076
 7094TIP3    H121246   2.213   4.981   0.498 -1.9383 -0.8050  1.9912
 7094TIP3    H221247   2.301   5.098   0.535 -1.8091  0.5370 -2.0614
 7095TIP3   OH221248   2.484   5.460   3.541  0.5270 -0.0350 -0.0710
 7095TIP3    H121249   2.389   5.463   3.531  0.3953 -0.1466  0.9980
 7095TIP3    H221250   2.500   5.389   3.603  1.3810 -0.6428 -0.9527
 7096TIP3   OH221251   5.072   6.466   5.051  0.1730 -0.1588 -0.4296
 7096TIP3    H121252   5.034   6.402   4.991  0.6314  1.4296 -2.5320
 7096TIP3    H221253   5.005   6.480   5.118 -0.8449 -1.0900 -1.2264
 7097TIP3   OH221254   1.068   0.517   0.798 -0.2318 -0.7079  0.1126
 7097TIP3    H121255   1.051   0.518   0.704 -0.8673 -0.9222  0.2206
 7097TIP3    H221256   1.152   0.472   0.808  0.4335  0.3622 -0.4385
 7098TIP3   OH221257   3.617   1.859   0.570  0.0691  0.1680 -0.3886
 7098TIP3    H121258   3.638   1.828   0.658 -0.1296  0.5176 -0.2182
 7098TIP3    H221259   3.701   1.882   0.531  0.1847 -0.2486 -0.3899
 7099TIP3   OH221260   3.657   5.107   2.984  0.5306  0.0484  0.4116
 7099TIP3    H121261   3.696   5.045   3.046 -0.1315  1.6244  2.5127
 7099TIP3    H221262   3.702   5.089   2.901  2.2879 -1.3868  1.5933
 7100TIP3   OH221263   4.718   0.111   5.814  0.2985 -0.4736  0.2639
 7100TIP3    H121264   4.800   0.066   5.794 -0.1357  0.2286 -3.8792
 7100TIP3    H221265   4.732   0.201   5.784 -1.8550 -0.2839 -0.3253
 7101TIP3   OH221266   5.121   5.963   2.043  0.3436 -0.2644 -0.6712
 7101TIP3    H121267   5.136   5.946   2.136 -0.3569 -1.1795 -0.7129
 7101TIP3    H221268   5.209   5.967   2.005  0.6160 -1.9803 -0.3149
 7102TIP3   OH221269   4.991   4.141   0.401  0.7718 -0.2301  0.5257
 7102TIP3    H121270   5.046   4.126   0.478  1.6382 -2.6657 -0.4589
 7102TIP3    H221271   5.054   4.148   0.329 -0.0880 -2.4342 -0.5365
 7103TIP3   OH221272   0.356   6.514   1.893 -0.3439 -1.1666  0.3025
 7103TIP3    H121273   0.263   6.522   1.870 -0.1126 -1.5442 -0.7913
 7103TIP3    H221274   0.400   6.577   1.836  0.2042 -1.8569 -0.0445
 7104TIP3   OH221275   2.922   0.903   2.281  0.2764  0.1800  0.4325
 7104TIP3    H121276   2.953   0.833   2.338  0.3346 -0.3648 -0.2490
 7104TIP3    H221277   2.868   0.958   2.338  0.6466 -0.1300  1.0960
 7105TIP3   OH221278   6.894   5.672   4.343  0.0436  0.2695  0.0762
 7105TIP3    H121279   6.857   5.606   4.285 -0.1244  2.0029 -1.9254
 7105TIP3    H221280   6.976   5.634   4.375 -0.0963 -0.9201 -0.9325
 7106TIP3   OH221281   0.821   2.505   3.755 -0.3543  0.1974 -0.0127
 7106TIP3    H121282   0.788   2.568   3.820 -0.7339 -0.8578  0.8558
 7106TIP3    H221283   0.763   2.430   3.764  1.4076 -1.1521  0.5564
 7107TIP3   OH221284   0.506   5.130   4.866  0.1963 -0.4792 -0.9857
 7107TIP3    H121285   0.567   5.135   4.940 -1.1727 -0.3104  0.1701
 7107TIP3    H221286   0.517   5.214   4.821 -0.4027  0.2991  0.2482
 7108TIP3   OH221287   5.545   4.924   1.071 -0.2277 -0.3649  0.4375
 7108TIP3    H121288   5.539   4.847   1.016 -1.3003  0.9352 -1.3625
 7108TIP3    H221289   5.498   4.900   1.151  0.1251 -1.7912  0.2492
 7109TIP3   OH221290   5.761   0.347   2.783 -0.2066 -0.5666  0.0046
 7109TIP3    H121291   5.696   0.342   2.853 -0.3665 -1.6002 -0.2007
 7109TIP3    H221292   5.843   0.366   2.828 -0.8102  2.1645  0.1580
 7110TIP3   OH221293   5.719   3.829   3.949 -0.1853  0.3696  0.1118
 7110TIP3    H121294   5.777   3.754   3.963  0.1277  0.5526 -0.1724
 7110TIP3    H221295   5.771   3.905   3.977 -0.5168  0.4790  0.4450
 7111TIP3   OH221296   0.418   2.491   2.756 -0.4954  0.6630 -0.2433
 7111TIP3    H121297   0.435   2.582   2.779  0.7572  0.9907 -2.2378
 7111TIP3    H221298   0.368   2.496   2.674  0.4920 -0.4097 -0.9416
 7112TIP3   OH221299   0.888   2.642   2.835  0.2375 -0.4151 -0.8365
 7112TIP3    H121300   0.836   2.577   2.883  0.6184  0.0358  0.2181
 7112TIP3    H221301   0.960   2.592   2.797 -0.2302 -0.8252 -1.2050
 7113TIP3   OH221302   0.659   1.397   2.264 -0.0645  0.4164  0.3744
 7113TIP3    H121303   0.713   1.330   2.222 -0.0505 -0.2448  1.4232
 7113TIP3    H221304   0.570   1.361   2.262 -0.0518  0.3502  0.9637
 7114TIP3   OH221305   5.571   6.649   4.288 -0.0578 -0.1768 -0.5982
 7114TIP3    H121306   5.636   6.580   4.304 -0.9808 -0.7579  0.8374
 7114TIP3    H221307   5.489   6.602   4.274 -1.0615  0.5840  2.1192
 7115TIP3   OH221308   3.299   4.950   1.456  0.1460  0.4719 -0.0653
 7115TIP3    H121309   3.220   4.916   1.415  2.0278 -0.8342 -2.8738
 7115TIP3    H221310   3.299   4.911   1.543 -1.2746 -1.1150 -0.7241
 7116TIP3   OH221311   5.019   4.964   5.233 -0.4740 -0.0297  0.1461
 7116TIP3    H121312   4.947   4.939   5.174 -0.5456 -1.1584  0.6812
 7116TIP3    H221313   5.039   5.054   5.209  0.1577 -0.7365 -2.3216
 7117TIP3   OH221314   3.704   3.528   0.366 -0.4717  0.1465  0.0958
 7117TIP3    H121315   3.634   3.591   0.387 -0.2492  0.7848 -0.9977
 7117TIP3    H221316   3.784   3.573   0.393 -0.4507 -0.5560  1.2785
 7118TIP3   OH221317   0.913   3.520   2.422 -0.3909 -0.0533 -0.0405
 7118TIP3    H121318   0.818   3.516   2.416 -0.3164 -0.0630 -1.5969
 7118TIP3    H221319   0.943   3.447   2.367  0.5123  0.0636  0.2838
 7119TIP3   OH221320   4.760   3.051   1.434  0.2743 -0.0011  0.4925
 7119TIP3    H121321   4.698   3.003   1.489  0.2641  0.6362  1.0461
 7119TIP3    H221322   4.777   3.133   1.482 -0.5765  1.0718 -0.9501
 7120TIP3   OH221323   5.122   1.744   0.921 -0.8796  0.4870  0.1189
 7120TIP3    H121324   5.100   1.729   0.829 -1.8560  1.1428  0.2317
 7120TIP3    H221325   5.212   1.712   0.929 -0.5700  0.9490 -1.1987
 7121TIP3   OH221326   1.761   5.827   3.943  0.0501  0.4077 -0.1068
 7121TIP3    H121327   1.757   5.824   4.039  1.1942  0.6830 -0.0392
 7121TIP3    H221328   1.784   5.738   3.917 -0.1528  0.3596 -0.1258
 7122TIP3   OH221329   2.467   5.616   0.970 -0.3219 -0.4328 -1.0497
 7122TIP3    H121330   2.473   5.661   1.055  2.3687  0.4027 -1.5687
 7122TIP3    H221331   2.459   5.523   0.992  2.1079 -0.4213  0.2340
 7123TIP3   OH221332   2.305   2.970   4.868 -0.0067  0.6043  0.2562
 7123TIP3    H121333   2.226   3.004   4.827  0.1835 -0.5726 -1.1654
 7123TIP3    H221334   2.274   2.897   4.922  0.0398  0.4573  0.0866
 7124TIP3   OH221335   6.952   6.411   4.458 -0.5434 -0.3422  1.0567
 7124TIP3    H121336   6.931   6.321   4.485  0.6476 -1.2200 -0.7197
 7124TIP3    H221337   7.043   6.424   4.485 -0.1680 -0.3092 -0.1730
 7125TIP3   OH221338   6.216   4.624   5.552  0.3420 -0.6935  0.1020
 7125TIP3    H121339   6.185   4.549   5.604  1.1715 -0.6271  0.7167
 7125TIP3    H221340   6.271   4.585   5.484  1.4509 -0.6090  0.9217
 7126TIP3   OH221341   4.926   2.720   2.290 -0.2111 -0.4710  0.5201
 7126TIP3    H121342   4.988   2.650   2.270 -0.8777 -1.1417  0.7864
 7126TIP3    H221343   4.926   2.727   2.385  0.1031  0.1235  0.4805
 7127TIP3   OH221344   3.448   1.855   0.183 -0.7752 -0.0978  0.6154
 7127TIP3    H121345   3.453   1.948   0.205 -0.7400 -0.2189  1.1355
 7127TIP3    H221346   3.368   1.825   0.227 -2.1702  0.2048 -1.5347
 7128TIP3   OH221347   2.462   6.550   2.972 -0.0486  0.2151 -0.2387
 7128TIP3    H121348   2.550   6.515   2.961 -0.4286 -0.5951 -0.7951
 7128TIP3    H221349   2.405   6.475   2.959 -0.8409  0.8128 -0.2694
 7129TIP3   OH221350   5.054   5.355   1.855  0.1077 -0.0814  0.1302
 7129TIP3    H121351   5.144   5.387   1.853  0.4916 -1.1361 -1.3384
 7129TIP3    H221352   5.051   5.295   1.929  0.5758  0.0355  0.2491
 7130TIP3   OH221353   1.098   6.393   0.513  0.0403  0.1258 -0.0150
 7130TIP3    H121354   1.190   6.370   0.505  0.3524  1.6861 -1.5183
 7130TIP3    H221355   1.069   6.409   0.423 -1.8412 -0.7851  0.3815
 7131TIP3   OH221356   6.917   2.028   4.126  0.0980  0.0563 -0.6776
 7131TIP3    H121357   7.001   1.989   4.152 -0.1502  1.0465  1.7722
 7131TIP3    H221358   6.941   2.113   4.089  0.1653  0.3857  0.1233
 7132TIP3   OH221359   4.367   3.074   4.711  0.4368  0.8374 -0.2399
 7132TIP3    H121360   4.304   3.002   4.705  2.1240 -1.0288  2.4480
 7132TIP3    H221361   4.313   3.153   4.706 -2.2584 -0.6460  2.2588
 7133TIP3   OH221362   0.732   5.009   4.458 -0.1507 -0.4520  0.2257
 7133TIP3    H121363   0.821   4.977   4.466  0.0326 -0.3288 -1.0191
 7133TIP3    H221364   0.694   4.999   4.545  1.2648  0.0805  0.9236
 7134TIP3   OH221365   2.134   0.458   3.041 -0.5513 -0.4435 -0.3439
 7134TIP3    H121366   2.140   0.514   3.118  1.1174  0.4162 -1.0549
 7134TIP3    H221367   2.135   0.369   3.076 -2.2841 -0.0991  0.7376
 7135TIP3   OH221368   3.296   1.176   5.228 -0.3430  0.0853  0.2850
 7135TIP3    H121369   3.368   1.175   5.165 -0.0838  0.8777  0.5591
 7135TIP3    H221370   3.327   1.232   5.299 -1.9475  2.0016 -0.4435
 7136TIP3   OH221371   3.232   3.060   1.685 -0.2915  0.2428 -0.0447
 7136TIP3    H121372   3.185   3.020   1.611 -1.6000  2.5564 -0.5466
 7136TIP3    H221373   3.313   3.093   1.646 -1.2815  2.0522 -0.6449
 7137TIP3   OH221374   4.339   1.788   3.227 -0.3716 -0.8713 -0.3034
 7137TIP3    H121375   4.272   1.721   3.215 -0.0830 -1.3369  0.6691
 7137TIP3    H221376   4.371   1.776   3.316 -1.6729  1.8043  0.6173
 7138TIP3   OH221377   6.335   5.843   0.442  0.3392 -0.1161 -0.2468
 7138TIP3    H121378   6.330   5.788   0.521 -2.5479 -1.1693 -1.0209
 7138TIP3    H221379   6.384   5.790   0.379 -1.6978 -1.6163 -0.7055
 7139TIP3   OH221380   5.264   1.240   4.077  0.8204  0.2656  0.1496
 7139TIP3    H121381   5.295   1.153   4.054  0.3326  0.0770  0.2005
 7139TIP3    H221382   5.172   1.241   4.052  0.4039  0.2229  1.5693
 7140TIP3   OH221383   5.973   5.113   3.404 -0.1476 -0.6479  0.3634
 7140TIP3    H121384   5.997   5.045   3.467 -0.4712 -0.1025  1.0927
 7140TIP3    H221385   5.880   5.129   3.420 -0.4523 -1.0757 -0.8297
 7141TIP3   OH221386   5.399   4.865   2.474  0.1638  0.1170  0.1360
 7141TIP3    H121387   5.423   4.894   2.387  0.3818  0.4957  0.3208
 7141TIP3    H221388   5.467   4.801   2.498  0.2930  0.2653  0.1641
 7142TIP3   OH221389   4.277   0.823   3.387  0.2463  0.2653 -0.3426
 7142TIP3    H121390   4.318   0.739   3.367 -1.6095 -1.3151  1.9205
 7142TIP3    H221391   4.350   0.878   3.419  1.2996 -0.8776 -0.6967
 7143TIP3   OH221392   3.084   0.394   4.116  0.2929 -0.0062 -0.2375
 7143TIP3    H121393   3.147   0.329   4.085  0.1959  0.6243 -1.8690
 7143TIP3    H221394   3.062   0.365   4.204  0.9709 -1.6391 -0.5526
 7144TIP3   OH221395   4.116   2.756   0.485 -0.3832  0.0798  0.0150
 7144TIP3    H121396   4.116   2.844   0.448  0.9426  0.0240 -0.1909
 7144TIP3    H221397   4.072   2.702   0.420  0.8939  0.1900 -0.9877
 7145TIP3   OH221398   2.834   5.026   1.591  0.2903 -0.3007  0.7615
 7145TIP3    H121399   2.750   5.062   1.561  0.9578 -1.2264 -2.7012
 7145TIP3    H221400   2.891   5.103   1.597 -0.1768  0.0560  0.7421
 7146TIP3   OH221401   1.564   2.646   3.941 -0.5877  0.9114 -0.4025
 7146TIP3    H121402   1.542   2.595   3.864  1.1039  0.8495 -0.8894
 7146TIP3    H221403   1.557   2.584   4.014  0.4742  0.2245 -0.8644
 7147TIP3   OH221404   0.833   3.073   5.053 -0.0574 -0.0038  0.8502
 7147TIP3    H121405   0.783   3.009   5.105 -0.3372 -0.9899 -0.5836
 7147TIP3    H221406   0.846   3.146   5.113  0.3136 -1.4044  2.5714
 7148TIP3   OH221407   6.438   6.555   3.680  0.7042 -0.4711 -0.2515
 7148TIP3    H121408   6.410   6.464   3.691  1.4998 -0.5015  2.1313
 7148TIP3    H221409   6.522   6.560   3.726  0.7858  1.4153 -0.5089
 7149TIP3   OH221410   5.082   6.447   4.653 -0.2377 -0.0452 -0.7978
 7149TIP3    H121411   5.029   6.375   4.619 -0.1407 -1.2388  1.4393
 7149TIP3    H221412   5.021   6.499   4.705  0.1898  0.1398 -0.4711
 7150TIP3   OH221413   4.750   2.604   2.097 -0.0602 -0.1567 -0.0676
 7150TIP3    H121414   4.818   2.657   2.140 -1.4478  2.6004 -1.0006
 7150TIP3    H221415   4.673   2.614   2.154 -1.4195  2.0994 -2.0983
 7151TIP3   OH221416   6.012   4.868   0.037  0.0179  0.0367 -0.2160
 7151TIP3    H121417   5.961   4.949   0.032  0.3023  0.4248  1.9957
 7151TIP3    H221418   5.947   4.798   0.034 -0.3650  0.3963 -0.5298
 7152TIP3   OH221419   2.271   2.784   1.087 -0.0101  0.1793  0.6679
 7152TIP3    H121420   2.296   2.825   1.004  0.7280 -1.1102  0.2372
 7152TIP3    H221421   2.229   2.855   1.136 -0.2351  1.0379 -0.6933
 7153TIP3   OH221422   6.149   3.153   2.517  0.2478 -0.0665  0.0300
 7153TIP3    H121423   6.092   3.222   2.551 -1.5682 -1.7070  0.4824
 7153TIP3    H221424   6.228   3.159   2.571  0.2781  1.8173 -0.1515
 7154TIP3   OH221425   5.493   1.252   5.742 -0.1699 -0.1345  0.0130
 7154TIP3    H121426   5.407   1.211   5.732  1.0845 -2.7314 -1.1294
 7154TIP3    H221427   5.550   1.203   5.684  1.8509  2.4397 -0.3734
 7155TIP3   OH221428   5.164   3.583   5.731 -0.0172  0.4458 -0.3727
 7155TIP3    H121429   5.223   3.570   5.805 -0.3623 -0.8160 -0.2994
 7155TIP3    H221430   5.083   3.541   5.757  0.3259 -1.4170 -2.0378
 7156TIP3   OH221431   1.334   6.279   4.047 -0.1170  0.4632  0.0771
 7156TIP3    H121432   1.250   6.248   4.083 -0.3068  1.2112  0.2908
 7156TIP3    H221433   1.378   6.199   4.018 -0.9608  0.0647 -0.1638
 7157TIP3   OH221434   4.516   2.781   1.014 -0.1639 -0.2026  0.4489
 7157TIP3    H121435   4.509   2.876   1.003  0.8426 -0.0329  1.1161
 7157TIP3    H221436   4.601   2.768   1.055 -0.1706 -1.4255  0.1178
 7158TIP3   OH221437   6.706   6.005   1.620 -0.5103  0.6829  0.2238
 7158TIP3    H121438   6.687   6.093   1.588  0.3374  0.7838 -0.0260
 7158TIP3    H221439   6.621   5.970   1.647 -0.5702  2.4987  2.7480
 7159TIP3   OH221440   6.828   3.805   4.559 -0.2925 -0.1824  0.4731
 7159TIP3    H121441   6.782   3.865   4.618 -0.5128 -0.3748  0.4969
 7159TIP3    H221442   6.921   3.819   4.579 -0.2448  1.2855 -0.6016
 7160TIP3   OH221443   2.240   3.210   3.452 -0.4652 -0.0332  0.3900
 7160TIP3    H121444   2.330   3.183   3.438 -0.7675 -1.5189  1.0986
 7160TIP3    H221445   2.231   3.215   3.548 -1.5690 -1.5981  0.4001
 7161TIP3   OH221446   1.117   5.146   2.440 -0.4426  0.4274  0.2894
 7161TIP3    H121447   1.034   5.102   2.459  0.0981 -1.2415 -0.8857
 7161TIP3    H221448   1.094   5.214   2.377 -0.9251 -0.0694 -0.0840
 7162TIP3   OH221449   6.403   1.492   3.362  0.2641  0.1543 -0.2545
 7162TIP3    H121450   6.321   1.541   3.354  0.0241 -0.0423  0.8226
 7162TIP3    H221451   6.413   1.448   3.278 -1.8765 -1.5506  0.2922
 7163TIP3   OH221452   7.019   1.819   2.540  0.6443 -0.1603 -0.4801
 7163TIP3    H121453   7.062   1.829   2.625 -1.7855  1.1188  0.7172
 7163TIP3    H221454   7.061   1.884   2.484  2.9892 -1.7143 -0.6580
 7164TIP3   OH221455   1.293   5.173   2.153 -0.6918  0.6352 -0.6866
 7164TIP3    H121456   1.369   5.222   2.121  1.1635 -1.4607  0.2676
 7164TIP3    H221457   1.228   5.241   2.174  0.1541  2.4096 -3.2365
 7165TIP3   OH221458   6.425   0.932   5.312 -0.0035 -0.2053  0.7311
 7165TIP3    H121459   6.379   0.904   5.391  0.4014 -2.0179  0.3853
 7165TIP3    H221460   6.363   0.989   5.267 -0.3692  0.5707  2.1654
 7166TIP3   OH221461   4.025   1.014   1.027  0.6008 -0.0246 -0.2364
 7166TIP3    H121462   3.954   1.076   1.044  0.7734  0.1020  0.0278
 7166TIP3    H221463   4.092   1.035   1.093 -1.6931 -4.3216  4.1816
 7167TIP3   OH221464   7.005   6.755   1.328 -0.0146  0.3255 -0.1392
 7167TIP3    H121465   6.920   6.769   1.287  0.3779  2.2052 -0.4118
 7167TIP3    H221466   7.051   6.838   1.317  0.9822  0.1406  2.0493
 7168TIP3   OH221467   1.911   4.257   4.496 -0.0058  0.2927 -0.2456
 7168TIP3    H121468   1.918   4.277   4.589 -0.3378 -1.9700  0.3337
 7168TIP3    H221469   1.893   4.163   4.493  0.1047  0.2812 -2.6073
 7169TIP3   OH221470   6.229   1.576   5.839  0.5331  0.1211  0.3259
 7169TIP3    H121471   6.319   1.555   5.863  0.6801 -0.2025 -0.4649
 7169TIP3    H221472   6.237   1.656   5.786  0.2067  0.8805  1.3865
 7170TIP3   OH221473   7.046   2.803   4.643 -0.4156 -0.3528 -0.1323
 7170TIP3    H121474   7.056   2.833   4.733 -0.0075 -0.4521 -0.1413
 7170TIP3    H221475   7.006   2.716   4.652  0.4175 -0.7368  0.0033
 7171TIP3   OH221476   6.511   1.311   3.095  0.6890 -0.1491 -0.4243
 7171TIP3    H121477   6.572   1.270   3.156 -0.0608  0.6440  0.9136
 7171TIP3    H221478   6.545   1.400   3.085  0.6893 -0.2128 -1.0252
 7172TIP3   OH221479   5.810   1.488   5.741 -0.1343  0.6142 -0.3209
 7172TIP3    H121480   5.854   1.403   5.741  0.0193  0.6851  0.3775
 7172TIP3    H221481   5.737   1.478   5.680  0.1765  0.1368 -0.6175
 7173TIP3   OH221482   2.307   3.046   4.328 -0.6960 -0.2522  0.3160
 7173TIP3    H121483   2.347   2.984   4.267  0.4466  0.5069  0.2687
 7173TIP3    H221484   2.289   3.124   4.276 -0.2848  0.1771  0.8038
 7174TIP3   OH221485   3.684   3.888   3.653 -0.3350 -0.3902  0.0481
 7174TIP3    H121486   3.666   3.798   3.679  1.9608 -0.7597  0.6183
 7174TIP3    H221487   3.714   3.931   3.734  3.3559 -0.5526 -1.0325
 7175TIP3   OH221488   4.373   6.447   2.448 -0.3251  0.2499 -0.1953
 7175TIP3    H121489   4.403   6.405   2.528 -0.3940 -2.1000 -1.3385
 7175TIP3    H221490   4.325   6.524   2.479  2.2402  1.1753  1.8537
 7176TIP3   OH221491   0.359   0.645  -0.003 -0.1476 -0.2601 -0.2900
 7176TIP3    H121492   0.372   0.649   0.092  0.2209 -0.5361 -0.3240
 7176TIP3    H221493   0.446   0.662  -0.039  0.1772 -2.1514 -0.5298
 7177TIP3   OH221494   3.022   2.583   4.847 -0.0326  0.0472 -0.9683
 7177TIP3    H121495   2.955   2.573   4.915 -0.1913 -0.1733 -1.1583
 7177TIP3    H221496   3.104   2.585   4.896 -0.2495  1.7244 -0.5978
 7178TIP3   OH221497   6.794   5.494   4.148  0.1379 -0.4851 -0.3536
 7178TIP3    H121498   6.807   5.400   4.137  0.3906 -0.6436  1.0702
 7178TIP3    H221499   6.699   5.505   4.152  0.1314 -0.9052  1.0539
 7179TIP3   OH221500   0.253   2.526   1.227 -0.3205  0.0058  0.0436
 7179TIP3    H121501   0.268   2.574   1.146 -0.2139 -0.6261 -0.3103
 7179TIP3    H221502   0.292   2.440   1.213 -2.0630 -0.8082  0.0187
 7180TIP3   OH221503   1.785   2.286   1.821  0.8089  0.6673  0.2524
 7180TIP3    H121504   1.811   2.273   1.730 -0.6865  2.9332 -0.5848
 7180TIP3    H221505   1.846   2.352   1.854 -0.1564  1.6791  0.0782
 7181TIP3   OH221506   5.508   5.816   2.786 -0.4503 -0.1038 -0.2352
 7181TIP3    H121507   5.562   5.751   2.740 -0.0339  0.4466 -0.5384
 7181TIP3    H221508   5.553   5.829   2.869  0.5557  1.1961 -0.9416
 7182TIP3   OH221509   6.549   2.889   1.791  0.1571  0.5161  0.2873
 7182TIP3    H121510   6.588   2.976   1.787  0.3293  0.4285  0.0391
 7182TIP3    H221511   6.457   2.903   1.773  0.3770  0.5139 -0.9231
 7183TIP3   OH221512   4.364   6.347   0.115 -0.1483 -0.4069 -0.1123
 7183TIP3    H121513   4.340   6.380   0.028  0.1833  1.4120  0.4261
 7183TIP3    H221514   4.299   6.280   0.134 -0.7918 -0.1818 -1.3810
 7184TIP3   OH221515   3.015   1.630   0.254  0.1816  0.1973  0.0367
 7184TIP3    H121516   3.066   1.693   0.305  0.1528 -0.3686  0.7691
 7184TIP3    H221517   3.024   1.661   0.163 -0.1405  1.4742  0.4171
 7185TIP3   OH221518   1.141   6.442   5.531  0.2875 -0.3248 -0.1541
 7185TIP3    H121519   1.053   6.423   5.499  0.4662  0.0221 -0.8942
 7185TIP3    H221520   1.197   6.376   5.489  0.3287 -0.8005  0.6368
 7186TIP3   OH221521   2.859   2.355   5.367  0.3685  0.6127  0.0589
 7186TIP3    H121522   2.936   2.410   5.383  0.8315  0.5347 -1.7152
 7186TIP3    H221523   2.791   2.417   5.339  0.0103  0.5901  0.8556
 7187TIP3   OH221524   0.976   0.320   3.711  0.0113 -0.0080  0.0013
 7187TIP3    H121525   1.029   0.262   3.766 -0.4595 -0.2619  0.1935
 7187TIP3    H221526   0.977   0.404   3.757 -1.6143 -0.5991  1.2202
 7188TIP3   OH221527   2.524   4.980   3.659  0.1370  0.4026 -0.3191
 7188TIP3    H121528   2.556   4.927   3.733 -0.4729 -0.4354 -0.6392
 7188TIP3    H221529   2.521   4.918   3.586  2.3165  1.5834 -1.5065
 7189TIP3   OH221530   0.453   6.089   2.523  0.4725  0.3454  0.1833
 7189TIP3    H121531   0.403   6.007   2.521 -1.8211  1.6611  0.0348
 7189TIP3    H221532   0.521   6.077   2.457 -0.0939 -1.2586 -0.1627
 7190TIP3   OH221533   3.978   3.364   2.945  0.4862  0.3099 -0.0656
 7190TIP3    H121534   4.072   3.380   2.935  0.1178  2.0946 -1.3034
 7190TIP3    H221535   3.949   3.338   2.857 -0.2852  0.5787  0.1021
 7191TIP3   OH221536   1.431   4.053   1.097 -0.1329 -0.5302 -0.4161
 7191TIP3    H121537   1.523   4.040   1.074 -0.2167  0.7858 -1.5782
 7191TIP3    H221538   1.393   3.965   1.093  1.1300 -1.1490  0.4313
 7192TIP3   OH221539   0.278   1.909   3.743  0.1225 -0.3160 -0.3427
 7192TIP3    H121540   0.312   1.850   3.810  1.5178  0.1004 -0.6620
 7192TIP3    H221541   0.211   1.858   3.698  0.6262 -1.3206  0.0218
 7193TIP3   OH221542   1.594   0.780   2.959 -0.8714 -0.6678  0.1722
 7193TIP3    H121543   1.625   0.808   2.873 -0.6101  0.5118  0.6313
 7193TIP3    H221544   1.666   0.727   2.993 -0.1854  0.3616  0.3864
 7194TIP3   OH221545   6.496   1.333   2.370 -0.0643  0.2520 -0.3515
 7194TIP3    H121546   6.505   1.265   2.304 -0.1038  0.7444 -0.8725
 7194TIP3    H221547   6.456   1.289   2.445 -1.4534  0.0166 -1.1895
 7195TIP3   OH221548   3.187   1.858   3.744  0.2660 -0.7236 -0.0029
 7195TIP3    H121549   3.209   1.949   3.726  0.9764 -0.9200 -0.1331
 7195TIP3    H221550   3.130   1.862   3.821  0.2787 -0.1709 -0.0163
 7196TIP3   OH221551   4.306   6.614   3.722  0.5034 -0.4317  0.1718
 7196TIP3    H121552   4.352   6.665   3.788  1.3074  2.7918 -2.6146
 7196TIP3    H221553   4.214   6.621   3.747  0.4554  3.3713 -0.5082
 7197TIP3   OH221554   1.408   2.292   2.940  0.3271  0.1848  0.1837
 7197TIP3    H121555   1.337   2.292   3.003  1.6804  0.4485  1.7822
 7197TIP3    H221556   1.423   2.385   2.921  0.3366  0.1409 -0.0232
 7198TIP3   OH221557   2.936   1.550   3.672  0.7060  0.5257 -0.4323
 7198TIP3    H121558   2.932   1.597   3.755  1.0235 -0.2436  0.0380
 7198TIP3    H221559   2.850   1.510   3.661  0.3423  1.4381 -0.9770
 7199TIP3   OH221560   5.783   2.515   0.992  0.4046  0.3683  0.3500
 7199TIP3    H121561   5.814   2.490   1.079  1.2647 -0.0503 -0.0662
 7199TIP3    H221562   5.769   2.431   0.946  2.4992  0.5672 -0.7800
 7200TIP3   OH221563   4.544   3.841   5.601  0.1822  1.0008  0.0942
 7200TIP3    H121564   4.536   3.767   5.661 -0.1660  0.7654 -0.2403
 7200TIP3    H221565   4.638   3.855   5.592  0.3819 -1.0575 -1.8562
 7201TIP3   OH221566   0.756   1.948   2.951 -0.5202 -0.2796 -0.1784
 7201TIP3    H121567   0.726   2.024   3.002 -1.4655 -0.1217 -0.9382
 7201TIP3    H221568   0.754   1.875   3.013  0.2259  0.2797  0.5165
 7202TIP3   OH221569   2.793   3.285   1.043 -0.2320 -0.0327  0.0743
 7202TIP3    H121570   2.700   3.288   1.064  0.1684  0.0744  2.0015
 7202TIP3    H221571   2.796   3.263   0.950 -2.1557 -1.7745  0.3562
 7203TIP3   OH221572   0.451   3.542   3.156 -0.3572 -0.1452  0.0218
 7203TIP3    H121573   0.502   3.623   3.158  0.5652 -0.7201  1.3281
 7203TIP3    H221574   0.463   3.508   3.067  1.2538 -0.0500  0.1687
 7204TIP3   OH221575   5.320   2.544   4.601  0.2472 -0.0218 -0.4351
 7204TIP3    H121576   5.294   2.502   4.683  0.5144  0.3501 -0.1558
 7204TIP3    H221577   5.290   2.484   4.533 -2.6979  1.0239 -0.2052
 7205TIP3   OH221578   1.816   4.907   3.885 -0.9537 -0.1254  0.1083
 7205TIP3    H121579   1.880   4.844   3.918  0.9611  1.6049 -0.0559
 7205TIP3    H221580   1.736   4.887   3.933  0.1132 -1.4394  1.4603
 7206TIP3   OH221581   3.167   1.496   3.500  0.4648  0.4197 -0.0785
 7206TIP3    H121582   3.204   1.516   3.586 -1.0118 -0.8625  0.9187
 7206TIP3    H221583   3.077   1.469   3.518 -0.5441  2.0484 -2.2536
 7207TIP3   OH221584   0.873   4.955   3.463 -0.0194  0.3487 -0.7954
 7207TIP3    H121585   0.824   5.023   3.417  1.5942  0.9553 -1.7016
 7207TIP3    H221586   0.965   4.977   3.448  0.5749 -0.5345  1.1231
 7208TIP3   OH221587   1.799   4.827   3.312 -0.2825 -0.1858 -0.5134
 7208TIP3    H121588   1.846   4.908   3.295  0.7335 -0.6861 -0.1643
 7208TIP3    H221589   1.737   4.819   3.239 -1.2384  1.4870  0.0762
 7209TIP3   OH221590   4.020   4.721   2.582 -0.4118 -0.5486  0.1009
 7209TIP3    H121591   4.090   4.703   2.520 -0.1632 -0.4388  0.3473
 7209TIP3    H221592   3.943   4.737   2.528 -0.4887 -1.7041 -0.1394
 7210TIP3   OH221593   4.449   1.641   4.287  0.4307 -0.2174  0.0523
 7210TIP3    H121594   4.543   1.644   4.270  0.2190 -3.0374 -2.4741
 7210TIP3    H221595   4.409   1.671   4.205 -1.0328  2.9122  1.7239
 7211TIP3   OH221596   0.974   5.953   0.327  0.1451  0.2162 -0.0525
 7211TIP3    H121597   0.905   6.018   0.316 -0.5344 -0.5228 -0.2573
 7211TIP3    H221598   0.929   5.877   0.364  0.6656 -0.6163 -1.1033
 7212TIP3   OH221599   3.794   5.303   2.800 -0.2245 -0.3051  0.0937
 7212TIP3    H121600   3.852   5.377   2.783  0.4571 -0.2700  2.2840
 7212TIP3    H221601   3.852   5.227   2.800 -0.2935 -0.3828  1.3198
 7213TIP3   OH221602   3.986   1.641   2.725  0.7721  0.2933 -0.0785
 7213TIP3    H121603   3.924   1.654   2.797 -1.1060  0.2238 -1.5883
 7213TIP3    H221604   4.062   1.693   2.749 -0.9578  2.6814  0.6438
 7214TIP3   OH221605   6.985   1.926   1.684 -0.5995  0.4374  0.4675
 7214TIP3    H121606   6.910   1.923   1.743  0.2162  0.3175  1.5233
 7214TIP3    H221607   7.025   2.011   1.700  1.0244 -0.5247  1.9229
 7215TIP3   OH221608   5.548   3.374   2.146 -0.4879 -0.0748  0.0177
 7215TIP3    H121609   5.528   3.348   2.236 -2.0183 -0.2178 -0.3349
 7215TIP3    H221610   5.527   3.467   2.142  1.5686  0.4459  0.3286
 7216TIP3   OH221611   7.170   6.354   3.573  0.4581  0.7084  0.0559
 7216TIP3    H121612   7.095   6.386   3.622 -0.1442  0.7614 -0.8855
 7216TIP3    H221613   7.212   6.432   3.539 -0.0771  0.6001 -0.8802
 7217TIP3   OH221614   4.007   2.006   2.546  0.6324 -0.1883 -0.4465
 7217TIP3    H121615   4.007   1.995   2.641  0.0463  1.1014 -0.2771
 7217TIP3    H221616   4.087   1.962   2.517  1.2688  0.1346  0.7452
 7218TIP3   OH221617   0.292   0.802   1.142 -0.3340 -0.1611 -0.0788
 7218TIP3    H121618   0.386   0.802   1.125 -0.2318 -0.6590  0.4527
 7218TIP3    H221619   0.278   0.877   1.200 -0.1821 -0.3813  0.2468
 7219TIP3   OH221620   4.871   5.460   0.085  0.9417  0.1784  0.5514
 7219TIP3    H121621   4.810   5.484   0.015  0.3947 -2.1939  0.1213
 7219TIP3    H221622   4.955   5.496   0.057  0.1858  1.7530  0.1506
 7220TIP3   OH221623   2.145   5.382   3.253  0.2865 -0.0376  0.8683
 7220TIP3    H121624   2.148   5.289   3.231  0.3658  0.0948  0.3083
 7220TIP3    H221625   2.229   5.417   3.221  0.8916 -0.0440  2.3564
 7221TIP3   OH221626   4.290   2.287   1.005 -0.0058  0.0800 -0.2214
 7221TIP3    H121627   4.288   2.269   0.911 -0.4858 -0.9506 -0.0395
 7221TIP3    H221628   4.376   2.325   1.022 -0.8809  2.8922 -1.4912
 7222TIP3   OH221629   1.705   0.606   0.502  0.3201  0.2128 -0.0185
 7222TIP3    H121630   1.784   0.583   0.453  1.7104  3.3818  0.4451
 7222TIP3    H221631   1.633   0.593   0.440  1.1429 -2.4622 -0.5522
 7223TIP3   OH221632   6.665   5.776   4.458  0.6905 -0.4594  0.4624
 7223TIP3    H121633   6.735   5.722   4.423  1.0488 -0.0808  0.5872
 7223TIP3    H221634   6.709   5.855   4.490  0.2738 -0.4422  1.0166
 7224TIP3   OH221635   6.025   1.387   4.997 -0.3467  0.3081  0.3711
 7224TIP3    H121636   6.041   1.408   5.089  0.7848 -2.3484  0.8767
 7224TIP3    H221637   6.112   1.377   4.960 -0.8062 -0.3613 -0.5426
 7225TIP3   OH221638   2.228   4.067   0.158 -0.3853 -0.4022  0.6638
 7225TIP3    H121639   2.165   4.113   0.102  1.0510 -0.9771 -1.5377
 7225TIP3    H221640   2.187   3.983   0.177 -2.4962  1.1338  3.6944
 7226TIP3   OH221641   7.006   2.996   5.434  0.1470 -0.0521  0.2063
 7226TIP3    H121642   7.059   3.048   5.494 -0.5593 -0.0636  0.8586
 7226TIP3    H221643   6.989   2.914   5.481  0.4299 -0.4796 -0.4207
 7227TIP3   OH221644   5.072   4.636   0.994 -0.1023  0.4294  0.3413
 7227TIP3    H121645   4.989   4.610   1.034 -0.0659 -0.2083  0.0170
 7227TIP3    H221646   5.130   4.561   1.008  0.2483  0.6489  0.0777
 7228TIP3   OH221647   3.845   4.472   1.113 -0.5111  0.2282  0.0160
 7228TIP3    H121648   3.830   4.489   1.206  1.2833  2.8593 -0.0614
 7228TIP3    H221649   3.938   4.451   1.108 -0.6551 -0.1650 -1.1695
 7229TIP3   OH221650   1.298   4.442   3.178 -0.4975  0.1834 -0.1850
 7229TIP3    H121651   1.309   4.404   3.266  0.2916  0.7887 -0.0113
 7229TIP3    H221652   1.387   4.454   3.146 -0.6965  2.1650 -0.1060
 7230TIP3   OH221653   0.103   2.891   2.586 -0.4591  0.1616  0.1186
 7230TIP3    H121654   0.049   2.820   2.552 -0.6704 -0.3958  1.5126
 7230TIP3    H221655   0.180   2.847   2.623 -0.3294  0.7071  0.5111
 7231TIP3   OH221656   6.478   0.469   1.278  0.1539 -0.0327  0.3959
 7231TIP3    H121657   6.476   0.479   1.183 -0.4925 -1.1182  0.2751
 7231TIP3    H221658   6.389   0.491   1.307  0.3193  0.1983  0.7338
 7232TIP3   OH221659   3.644   0.947   3.786  0.0617  0.4574  0.1906
 7232TIP3    H121660   3.608   0.969   3.701 -0.0990  0.2062  0.1931
 7232TIP3    H221661   3.712   0.882   3.767 -0.2805  0.0663  0.2952
 7233TIP3   OH221662   0.946   5.244   2.677 -0.4899 -0.2357  0.0874
 7233TIP3    H121663   1.004   5.320   2.686 -0.9348  0.2029 -0.5859
 7233TIP3    H221664   0.861   5.282   2.654 -0.1204 -1.0243 -3.0085
 7234TIP3   OH221665   4.845   3.875   1.316  0.6259  0.1839  0.1128
 7234TIP3    H121666   4.873   3.956   1.358  0.2418  1.0888 -1.2789
 7234TIP3    H221667   4.846   3.896   1.222  1.8563 -1.8654 -0.3788
 7235TIP3   OH221668   6.251   3.669   4.770  0.1115 -0.0494 -0.3409
 7235TIP3    H121669   6.194   3.671   4.693  1.9448  0.6780 -1.7692
 7235TIP3    H221670   6.339   3.654   4.734  1.1307  1.0040  1.5534
 7236TIP3   OH221671   2.131   1.193   2.062  0.3096  0.7096 -0.0245
 7236TIP3    H121672   2.196   1.189   2.132 -1.2088  0.1641  1.4267
 7236TIP3    H221673   2.112   1.286   2.052  1.0804  0.8520 -0.2690
 7237TIP3   OH221674   6.304   2.942   1.677  0.0390 -0.6043 -0.1437
 7237TIP3    H121675   6.348   3.012   1.629 -0.0260 -2.3191 -2.9506
 7237TIP3    H221676   6.218   2.935   1.636 -1.6919  0.3727  2.9474
 7238TIP3   OH221677   1.694   5.380   4.188  0.2837  0.2394  0.2484
 7238TIP3    H121678   1.778   5.415   4.217 -0.2301  0.2907  1.7742
 7238TIP3    H221679   1.715   5.290   4.160  0.9389  0.4406  0.0671
 7239TIP3   OH221680   1.681   1.808   5.880  0.2117  0.0816 -0.3995
 7239TIP3    H121681   1.587   1.810   5.860 -0.3045 -0.1148  1.7714
 7239TIP3    H221682   1.723   1.793   5.795 -1.5083  2.8333 -1.8806
 7240TIP3   OH221683   3.015   1.459   0.524  0.3478  0.6444 -0.6437
 7240TIP3    H121684   3.024   1.459   0.428  0.0687  3.7963 -0.7764
 7240TIP3    H221685   3.051   1.543   0.551 -1.1278  0.5579  1.8612
 7241TIP3   OH221686   5.441   2.716   0.604 -0.4114  0.7259 -0.3973
 7241TIP3    H121687   5.410   2.748   0.519  0.3987  2.0687 -0.2193
 7241TIP3    H221688   5.534   2.736   0.605  0.7049 -3.4958 -1.0421
 7242TIP3   OH221689   6.540   4.530   3.234 -0.3349  0.5008 -0.0771
 7242TIP3    H121690   6.520   4.551   3.325 -1.0531  0.7890 -0.3010
 7242TIP3    H221691   6.622   4.577   3.216  0.5207 -0.6068  0.8026
 7243TIP3   OH221692   4.142   3.486   5.015 -0.5244  0.2542 -0.5078
 7243TIP3    H121693   4.205   3.464   4.947  0.7111  1.2409  0.2783
 7243TIP3    H221694   4.061   3.505   4.967  0.2662  0.7340 -1.7023
 7244TIP3   OH221695   6.769   5.388   2.706  1.4225  0.0068 -0.4687
 7244TIP3    H121696   6.808   5.400   2.793 -0.5653 -2.8675  0.9815
 7244TIP3    H221697   6.732   5.474   2.684  1.0328  0.5502  2.0394
 7245TIP3   OH221698   4.470   3.494   2.588  0.2009  0.1779  0.4144
 7245TIP3    H121699   4.452   3.416   2.639  1.8782  0.3860  1.4231
 7245TIP3    H221700   4.528   3.546   2.644 -0.1647  1.7348 -0.5819
 7246TIP3   OH221701   2.336   4.094   0.398 -0.2209  0.0566 -0.2066
 7246TIP3    H121702   2.412   4.063   0.348  0.1204 -0.3441  0.5535
 7246TIP3    H221703   2.264   4.094   0.334  0.2097 -0.4355 -0.7005
 7247TIP3   OH221704   3.334   0.534   5.550 -0.3991 -0.2032  0.0133
 7247TIP3    H121705   3.400   0.553   5.616  0.5954 -1.0339 -0.7287
 7247TIP3    H221706   3.317   0.619   5.508  0.3351 -0.0161  0.0852
 7248TIP3   OH221707   2.226   5.802   0.760  0.0265  0.1130 -0.1035
 7248TIP3    H121708   2.136   5.773   0.748  1.0371 -3.5880  0.1731
 7248TIP3    H221709   2.263   5.804   0.672  0.3117 -0.7782 -0.0083
 7249TIP3   OH221710   6.058   4.018   1.674  0.1571 -0.0301 -0.3041
 7249TIP3    H121711   6.107   3.955   1.727  0.6177 -0.2276 -0.9479
 7249TIP3    H221712   5.995   4.057   1.735  1.8649  1.0710  0.8417
 7250TIP3   OH221713   5.688   6.299   0.560  0.6763  0.1395 -0.1556
 7250TIP3    H121714   5.736   6.382   0.566 -0.0676  0.6352 -0.7561
 7250TIP3    H221715   5.728   6.243   0.626  2.2076  0.4582 -0.7697
 7251TIP3   OH221716   1.041   1.231   0.332 -0.0165  0.1320  0.2165
 7251TIP3    H121717   1.017   1.141   0.355  0.5951  0.3069  1.6826
 7251TIP3    H221718   1.049   1.230   0.237 -1.1151 -1.0802  0.1054
 7252TIP3   OH221719   1.747   0.015   4.982 -0.3919 -0.0222 -0.3985
 7252TIP3    H121720   1.695  -0.062   4.960 -0.8764  0.0568  0.4319
 7252TIP3    H221721   1.687   0.072   5.029 -0.0168  0.8413 -0.9333
 7253TIP3   OH221722   2.423   5.741   5.689 -0.2660 -0.4122 -0.0319
 7253TIP3    H121723   2.450   5.722   5.778 -0.7107 -1.5412 -0.1204
 7253TIP3    H221724   2.327   5.740   5.693 -0.2883 -0.2759 -0.4859
 7254TIP3   OH221725   0.436   0.135   3.482  0.0608 -0.8431  0.5456
 7254TIP3    H121726   0.463   0.226   3.472  0.4007 -0.9289  0.6790
 7254TIP3    H221727   0.514   0.084   3.461 -0.4080 -1.1391 -0.5598
 7255TIP3   OH221728   0.856   4.977   2.597 -0.4810 -0.5114  0.2175
 7255TIP3    H121729   0.871   5.068   2.624 -0.8598  0.0236 -1.2953
 7255TIP3    H221730   0.934   4.931   2.627 -0.2544  0.3097  0.9565
 7256TIP3   OH221731   0.954   4.674   3.456  0.2155 -0.4755  0.0772
 7256TIP3    H121732   0.879   4.616   3.444 -0.6822  0.5696  0.4168
 7256TIP3    H221733   0.922   4.760   3.429  1.2857 -0.0038  0.2750
 7257TIP3   OH221734   3.352   2.331   3.178 -0.2910  0.2584  0.0350
 7257TIP3    H121735   3.422   2.323   3.113  0.2774  0.1305  0.6460
 7257TIP3    H221736   3.315   2.417   3.163 -1.3510 -0.4422 -1.6127
 7258TIP3   OH221737   4.790   5.897   3.229 -0.6025  0.1000 -0.1399
 7258TIP3    H121738   4.752   5.915   3.315 -1.7352  0.0477 -0.6128
 7258TIP3    H221739   4.831   5.811   3.239 -1.8488 -0.4963  0.0086
 7259TIP3   OH221740   2.970   4.776   4.888 -0.3542  0.6742 -0.1502
 7259TIP3    H121741   2.944   4.851   4.941  0.0511  0.0573  0.9529
 7259TIP3    H221742   3.034   4.810   4.826 -0.0583  1.2144  0.4470
 7260TIP3   OH221743   6.844   6.730   5.236 -0.4317  0.1501 -0.0154
 7260TIP3    H121744   6.899   6.684   5.299 -0.5008 -0.6031 -0.4998
 7260TIP3    H221745   6.809   6.662   5.179 -3.3942  0.3390  1.3786
 7261TIP3   OH221746   4.832   3.493   2.463  0.4374  0.2578  0.5411
 7261TIP3    H121747   4.827   3.461   2.554  1.3384 -1.5664  0.0129
 7261TIP3    H221748   4.814   3.416   2.410  0.2166  1.2348 -0.8466
 7262TIP3   OH221749   4.701   2.399   4.794  0.2753  0.0153  0.3852
 7262TIP3    H121750   4.685   2.306   4.779  0.2200  0.1507 -0.4140
 7262TIP3    H221751   4.754   2.427   4.720 -0.2140  0.7564  0.3011
 7263TIP3   OH221752   2.458   2.596   0.212  0.1137  0.5356 -0.6088
 7263TIP3    H121753   2.524   2.581   0.144  0.6741 -0.0895  0.0635
 7263TIP3    H221754   2.471   2.687   0.239 -0.3992  0.9343 -1.6184
 7264TIP3   OH221755   1.662   2.398   5.197 -0.2674  0.0932 -0.0177
 7264TIP3    H121756   1.672   2.304   5.214 -0.2888 -0.1754 -1.3710
 7264TIP3    H221757   1.585   2.423   5.247  0.0879 -0.4666  0.8514
 7265TIP3   OH221758   6.555   5.168   4.240  0.0850  0.4798 -0.0561
 7265TIP3    H121759   6.533   5.230   4.309 -0.8920 -0.9915  1.0182
 7265TIP3    H221760   6.649   5.182   4.224  0.2220  1.1861  1.2307
 7266TIP3   OH221761   7.189   0.504   4.626 -0.2663  0.1315  0.2029
 7266TIP3    H121762   7.244   0.434   4.590  0.9699  0.1330  1.9341
 7266TIP3    H221763   7.109   0.460   4.655 -0.5148 -0.1507 -0.8934
 7267TIP3   OH221764   5.168   5.833   1.393  0.0473 -0.0215  0.1955
 7267TIP3    H121765   5.226   5.806   1.322 -1.5658 -0.1283 -1.1701
 7267TIP3    H221766   5.080   5.819   1.358 -0.8184  0.8546  1.8793
 7268TIP3   OH221767   1.915   3.120   5.463 -0.2525  0.8261 -0.3242
 7268TIP3    H121768   1.935   3.189   5.401  1.7492 -0.5774 -1.3519
 7268TIP3    H221769   1.832   3.083   5.433  0.5321  0.3662 -2.0227
 7269TIP3   OH221770   6.260   2.120   5.808  0.5024  0.2344  0.0254
 7269TIP3    H121771   6.201   2.088   5.740 -0.5087 -0.7596  1.3198
 7269TIP3    H221772   6.235   2.212   5.821 -1.7946 -0.5134  1.5013
 7270TIP3   OH221773   4.552   6.108   5.786  0.2372 -0.6891  0.1156
 7270TIP3    H121774   4.641   6.073   5.787  0.4035 -0.2729  0.1604
 7270TIP3    H221775   4.555   6.181   5.724  0.1673 -0.0601  0.8322
 7271TIP3   OH221776   6.640   4.130   0.893 -0.6353  0.0873  0.7833
 7271TIP3    H121777   6.576   4.143   0.824 -1.2132 -1.5635  0.9837
 7271TIP3    H221778   6.724   4.123   0.848 -0.3571  3.2132  0.5766
 7272TIP3   OH221779   4.190   4.915   0.635 -0.5637 -0.6520 -0.2227
 7272TIP3    H121780   4.138   4.838   0.610 -1.1571 -1.0733  2.0556
 7272TIP3    H221781   4.238   4.886   0.712  0.3169  0.8511 -0.1855
 7273TIP3   OH221782   1.355   4.995   5.824  0.3782  0.0450 -0.1752
 7273TIP3    H121783   1.373   5.087   5.843  0.6206 -0.1793  0.7103
 7273TIP3    H221784   1.427   4.947   5.864 -0.5195 -0.6353  0.6802
 7274TIP3   OH221785   6.333   4.864   0.285  0.0984 -0.4452  0.0612
 7274TIP3    H121786   6.259   4.923   0.300 -0.8804 -1.5535 -0.1967
 7274TIP3    H221787   6.337   4.853   0.190  2.2206  1.5360 -0.1682
 7275TIP3   OH221788   5.550   2.321   4.294  0.1706 -0.0532  0.3289
 7275TIP3    H121789   5.608   2.250   4.265 -0.4048 -1.5320  2.5659
 7275TIP3    H221790   5.468   2.305   4.246  0.5216  0.0369 -0.3196
 7276TIP3   OH221791   2.200   5.068   3.130  0.0506 -0.6992  0.0746
 7276TIP3    H121792   2.194   5.035   3.041 -2.2001  2.0300 -0.9254
 7276TIP3    H221793   2.291   5.098   3.138 -0.4715  2.1081 -2.6467
 7277TIP3   OH221794   5.992   2.724   1.225 -0.0221 -0.4595 -0.0746
 7277TIP3    H121795   6.086   2.734   1.212  0.4475 -4.4538 -1.0723
 7277TIP3    H221796   5.981   2.714   1.320  0.0169  2.8492  0.4112
 7278TIP3   OH221797   2.456   5.557   2.334  0.3682 -0.7420 -0.0075
 7278TIP3    H121798   2.403   5.480   2.313 -1.0270 -0.1745  1.2370
 7278TIP3    H221799   2.542   5.538   2.296 -0.5797 -1.8956 -1.7231
 7279TIP3   OH221800   6.101   4.838   1.482 -0.3497  0.2869  0.0773
 7279TIP3    H121801   6.008   4.848   1.464 -0.0957 -1.3812 -2.7131
 7279TIP3    H221802   6.116   4.743   1.477  1.8328  0.6565 -1.6770
 7280TIP3   OH221803   7.096   5.907   4.180  0.5536  0.2907  0.4231
 7280TIP3    H121804   7.001   5.899   4.182  0.7078 -4.0423 -0.5953
 7280TIP3    H221805   7.112   5.979   4.119 -2.0333  1.1971  0.6868
 7281TIP3   OH221806   5.021   2.251   2.007 -0.3294 -0.6968  0.3095
 7281TIP3    H121807   4.967   2.313   1.959 -0.0574  0.5615  1.5471
 7281TIP3    H221808   4.989   2.255   2.097 -0.0814 -2.1290  0.4983
 7282TIP3   OH221809   1.707   0.757   5.173 -0.0545 -0.1999  0.1777
 7282TIP3    H121810   1.713   0.843   5.131  1.8182 -0.1721  0.4350
 7282TIP3    H221811   1.655   0.704   5.112  0.9654  0.3846 -1.2650
 7283TIP3   OH221812   4.096   1.089   3.796 -0.2706 -0.1887 -0.0042
 7283TIP3    H121813   4.048   1.081   3.713 -0.6013 -0.5795  0.2184
 7283TIP3    H221814   4.173   1.140   3.775 -0.1363 -0.6512 -0.6476
 7284TIP3   OH221815   5.718   0.927   4.735 -0.0542  0.0556  0.6274
 7284TIP3    H121816   5.733   0.940   4.829  1.7856 -1.1425  0.5501
 7284TIP3    H221817   5.699   1.015   4.702 -1.4053  0.4062  2.1990
 7285TIP3   OH221818   5.060   3.657   3.863 -0.1174  0.0225  0.2230
 7285TIP3    H121819   5.045   3.681   3.772  1.6677  0.0351 -0.0981
 7285TIP3    H221820   5.058   3.741   3.910  0.3009  0.1661 -0.0123
 7286TIP3   OH221821   2.170   2.701   3.751  0.2467  0.6204  0.1298
 7286TIP3    H121822   2.216   2.729   3.672 -1.8513  2.7045 -0.4780
 7286TIP3    H221823   2.127   2.620   3.727  0.7458  0.5081 -0.3979
 7287TIP3   OH221824   0.575   6.678   0.187  0.2274 -0.2056 -0.5678
 7287TIP3    H121825   0.666   6.647   0.184  0.2593 -0.0906 -0.8482
 7287TIP3    H221826   0.577   6.753   0.246  0.0954 -0.9105  0.3442
 7288TIP3   OH221827   3.548   1.565   3.107 -0.1733 -0.6493  0.1452
 7288TIP3    H121828   3.622   1.577   3.047 -0.0177  0.1891  0.4935
 7288TIP3    H221829   3.502   1.649   3.105  0.9234  0.1017  2.6492
 7289TIP3   OH221830   0.067   6.651   3.953  0.1661 -0.3117 -0.2236
 7289TIP3    H121831   0.076   6.689   4.041 -0.5683  0.0268 -0.2879
 7289TIP3    H221832   0.111   6.713   3.896  0.1365 -0.2337 -0.1626
 7290TIP3   OH221833   7.105   2.210   4.445  0.0721 -0.0237  0.3562
 7290TIP3    H121834   7.059   2.286   4.410 -0.2232  0.2831  1.3925
 7290TIP3    H221835   7.170   2.188   4.378  0.8135  1.7318  0.4572
 7291TIP3   OH221836   2.212   3.934   4.528 -0.2927 -0.0686  0.3438
 7291TIP3    H121837   2.124   3.972   4.523 -0.3531 -0.2197  0.2394
 7291TIP3    H221838   2.250   3.949   4.441  0.6678  2.0979  1.0837
 7292TIP3   OH221839   2.606   2.603   4.313  0.2481  0.5373  0.0245
 7292TIP3    H121840   2.540   2.634   4.376 -0.4037  0.7403 -0.7424
 7292TIP3    H221841   2.558   2.595   4.230  0.8111 -0.8720 -0.1916
 7293TIP3   OH221842   5.662   4.465   4.779  0.0292  0.0624 -0.0276
 7293TIP3    H121843   5.729   4.519   4.737  0.0274  0.5610  0.5996
 7293TIP3    H221844   5.583   4.482   4.728  0.2419 -0.0942 -0.4203
 7294TIP3   OH221845   4.902   5.836   4.139  0.2223 -0.1145 -0.1475
 7294TIP3    H121846   4.924   5.767   4.202 -1.9121 -0.4346  0.2994
 7294TIP3    H221847   4.839   5.796   4.080  0.4676  0.8779 -1.1234
 7295TIP3   OH221848   3.260   2.780   3.855 -0.3044  0.0250  0.2284
 7295TIP3    H121849   3.294   2.837   3.924 -0.6430  2.2685 -1.3536
 7295TIP3    H221850   3.333   2.723   3.833  0.0803 -0.1306  1.7968
 7296TIP3   OH221851   2.536   3.277   1.103  0.0493 -0.2270  0.1927
 7296TIP3    H121852   2.496   3.199   1.142 -1.7836 -0.0577 -1.1983
 7296TIP3    H221853   2.475   3.348   1.124 -0.0062  0.2085 -1.3078
 7297TIP3   OH221854   0.022   6.209   0.284  0.1648  0.4113 -0.2177
 7297TIP3    H121855   0.043   6.158   0.363  1.7091  1.9228  0.3982
 7297TIP3    H221856   0.099   6.201   0.229 -0.3664  0.4886 -0.9836
 7298TIP3   OH221857   1.951   4.874   2.567 -0.1061  0.1404  0.4489
 7298TIP3    H121858   2.044   4.894   2.562 -0.5020  2.0070 -0.4587
 7298TIP3    H221859   1.926   4.900   2.655  0.1267  0.1088  0.5250
 7299TIP3   OH221860   3.718   4.944   4.935  0.1045 -0.0783  0.2588
 7299TIP3    H121861   3.655   4.884   4.975 -0.5724 -0.2381 -1.0047
 7299TIP3    H221862   3.664   5.012   4.895  0.8440  1.0804  1.1658
 7300TIP3   OH221863   6.201   0.173   2.299  0.0584  0.3776  0.1738
 7300TIP3    H121864   6.171   0.130   2.219 -0.4167  0.1612  0.4676
 7300TIP3    H221865   6.278   0.223   2.271  0.0594  0.0859 -0.3607
 7301TIP3   OH221866   4.952   1.150   3.244  0.5380  0.5336 -0.2731
 7301TIP3    H121867   4.972   1.084   3.178 -0.4907  1.3913 -1.4833
 7301TIP3    H221868   4.857   1.147   3.253  0.6530  0.4104  1.2214
 7302TIP3   OH221869   2.241   4.169   2.692  0.3482 -0.1521  0.0934
 7302TIP3    H121870   2.228   4.193   2.600 -0.9832  0.1131  0.3416
 7302TIP3    H221871   2.336   4.174   2.704  0.6373 -1.0340 -1.4917
 7303TIP3   OH221872   5.267   6.695   0.419 -0.4348  0.6383  0.0645
 7303TIP3    H121873   5.245   6.653   0.502 -0.9383 -0.0708 -0.4186
 7303TIP3    H221874   5.202   6.662   0.357  1.6106 -1.1184 -1.3004
 7304TIP3   OH221875   2.797   6.806   1.186 -0.2378 -0.3511  0.7633
 7304TIP3    H121876   2.871   6.746   1.199 -0.0397 -0.3458 -0.3033
 7304TIP3    H221877   2.753   6.808   1.271  0.6316 -0.8298  1.2398
 7305TIP3   OH221878   1.835   3.663   0.162  0.0415 -0.4317 -0.5633
 7305TIP3    H121879   1.822   3.745   0.208 -0.5454 -0.4312 -0.7237
 7305TIP3    H221880   1.840   3.687   0.069  1.8540 -0.3578 -0.4816
 7306TIP3   OH221881   0.989   2.127   0.951  0.2534  0.5312 -0.2819
 7306TIP3    H121882   1.053   2.116   0.881 -0.1342  0.4358 -0.6247
 7306TIP3    H221883   1.042   2.147   1.029  0.7428 -0.1992 -0.4121
 7307TIP3   OH221884   5.175   1.476   4.701  0.7077  0.0057 -0.2357
 7307TIP3    H121885   5.204   1.403   4.755  0.3766  0.0095 -0.0542
 7307TIP3    H221886   5.217   1.553   4.740  1.2702 -0.1115 -0.5840
 7308TIP3   OH221887   2.056   2.542   0.806 -0.2203  0.0433  0.3586
 7308TIP3    H121888   2.029   2.591   0.728 -1.2633 -0.7370  0.1973
 7308TIP3    H221889   1.985   2.557   0.869  0.8555  1.0939  1.3811
 7309TIP3   OH221890   5.316   5.703   4.764 -0.3858 -0.1979 -0.0386
 7309TIP3    H121891   5.328   5.628   4.822  1.4619  0.2600  0.2257
 7309TIP3    H221892   5.299   5.665   4.678  0.9968 -0.9562  0.0015
 7310TIP3   OH221893  -0.002   0.675   5.828 -0.2719  0.3426 -0.0061
 7310TIP3    H121894  -0.054   0.660   5.906 -1.2472  1.1677 -0.4706
 7310TIP3    H221895   0.084   0.639   5.848 -0.4508  0.7275  1.5260
 7311TIP3   OH221896   2.539   5.675   1.502  0.2236  0.2015 -0.0053
 7311TIP3    H121897   2.449   5.664   1.533 -0.2228  1.7090 -0.6362
 7311TIP3    H221898   2.529   5.725   1.420  1.6068 -0.0122 -0.3161
 7312TIP3   OH221899   1.125   4.555   4.590 -0.3584 -0.2502 -0.6273
 7312TIP3    H121900   1.130   4.460   4.583 -0.1047 -0.1972 -1.1716
 7312TIP3    H221901   1.115   4.571   4.684 -0.2405 -0.8035 -0.5153
 7313TIP3   OH221902   3.281   3.312   4.697 -0.4134  0.6808 -0.1470
 7313TIP3    H121903   3.248   3.360   4.621  0.4446 -0.5563 -1.3591
 7313TIP3    H221904   3.204   3.269   4.734 -0.7987  1.0727 -0.4926
 7314TIP3   OH221905   4.101   4.205   5.386 -0.0135  0.3215 -0.1873
 7314TIP3    H121906   4.088   4.110   5.379  0.6803  0.2438 -0.5165
 7314TIP3    H221907   4.034   4.242   5.328 -1.1292  0.0998  0.9140
 7315TIP3   OH221908   6.625   1.563   3.122 -0.1333  1.0399  0.1306
 7315TIP3    H121909   6.663   1.603   3.044  1.4251  0.6458  0.6468
 7315TIP3    H221910   6.682   1.590   3.193  0.5647 -1.4162  0.6077
 7316TIP3   OH221911   0.350   0.064   0.846 -0.4024 -0.0796 -0.1968
 7316TIP3    H121912   0.312   0.121   0.780  0.0423 -0.3404 -0.6836
 7316TIP3    H221913   0.385  -0.010   0.797  0.8845  0.2383  0.2070
 7317TIP3   OH221914   0.929   6.447   5.778  0.2014  0.5466 -0.5168
 7317TIP3    H121915   0.839   6.479   5.785  0.5137  1.4493 -0.4685
 7317TIP3    H221916   0.981   6.525   5.758  0.6402 -0.3862 -3.4105
 7318TIP3   OH221917   4.122   1.678   2.411  0.0027  0.1174  0.2789
 7318TIP3    H121918   4.144   1.771   2.408 -0.9782  0.3503 -0.3325
 7318TIP3    H221919   4.204   1.633   2.393  0.8057  0.8045  1.9984
 7319TIP3   OH221920   3.033   0.121   4.656  1.0395  0.2124  0.0541
 7319TIP3    H121921   3.069   0.167   4.732  0.6257  0.7595 -0.0684
 7319TIP3    H221922   2.985   0.189   4.608  0.2886 -0.3773 -0.0538
 7320TIP3   OH221923   3.324   3.878   1.817  0.1196 -0.2698  0.0252
 7320TIP3    H121924   3.322   3.886   1.721 -2.0190 -1.2094 -0.0558
 7320TIP3    H221925   3.325   3.968   1.848  3.3235  0.1178 -0.8113
 7321TIP3   OH221926   2.967   0.608   1.957 -0.0607  0.3916 -0.4036
 7321TIP3    H121927   3.005   0.529   1.917 -0.5807 -0.2519  0.3289
 7321TIP3    H221928   3.035   0.641   2.015 -0.0402  0.1504 -0.2887
 7322TIP3   OH221929   5.404   2.513   5.294  0.5355 -0.0350 -0.1317
 7322TIP3    H121930   5.417   2.537   5.202  1.7837 -0.2185 -0.0227
 7322TIP3    H221931   5.330   2.452   5.293  0.2223  0.3447 -0.9506
 7323TIP3   OH221932   1.579   2.885   3.776  0.1472 -0.6190 -0.1272
 7323TIP3    H121933   1.607   2.820   3.840 -2.3218 -2.5175 -0.8360
 7323TIP3    H221934   1.517   2.940   3.824 -1.7691 -2.0944 -0.8022
 7324TIP3   OH221935   2.079   2.359   2.117 -0.6433  0.5998  0.0048
 7324TIP3    H121936   2.065   2.346   2.023 -1.3144  2.0060 -0.1259
 7324TIP3    H221937   2.154   2.305   2.139  0.2604  1.1455 -1.5995
 7325TIP3   OH221938   2.466   3.584   0.518 -0.6153 -0.0609 -0.7385
 7325TIP3    H121939   2.554   3.584   0.480 -0.6980 -0.1751 -0.9296
 7325TIP3    H221940   2.466   3.660   0.578 -0.1396 -0.5097 -0.1570
 7326TIP3   OH221941   5.559   0.528   0.640 -0.5779  0.6780  0.5211
 7326TIP3    H121942   5.637   0.533   0.696 -0.4020  1.1217  0.2428
 7326TIP3    H221943   5.583   0.465   0.571 -0.3127  1.1178  0.2066
 7327TIP3   OH221944   0.377   0.617   5.268 -0.6043 -0.0233  1.0296
 7327TIP3    H121945   0.303   0.675   5.287 -0.7565 -0.0508  0.5298
 7327TIP3    H221946   0.353   0.533   5.308 -0.9246 -0.0822  0.7186
 7328TIP3   OH221947   7.129   2.195   1.577 -0.1876  0.8112 -0.8238
 7328TIP3    H121948   7.195   2.237   1.521  1.2322  1.6524  1.3324
 7328TIP3    H221949   7.181   2.141   1.637 -1.4627  1.3425  0.8103
 7329TIP3   OH221950   1.777   0.383   2.195 -0.4948  0.1555 -0.7012
 7329TIP3    H121951   1.759   0.426   2.278 -0.6416  0.2173 -0.7629
 7329TIP3    H221952   1.834   0.310   2.217  1.6584  1.6986 -0.8889
 7330TIP3   OH221953   0.815   0.661   1.496 -0.3808 -0.3542  0.0460
 7330TIP3    H121954   0.883   0.711   1.452  0.9876 -1.3131  0.9754
 7330TIP3    H221955   0.837   0.569   1.477 -1.2756 -0.6912  0.5562
 7331TIP3   OH221956   5.899   5.091   2.086  0.2571 -0.6744 -0.5165
 7331TIP3    H121957   5.960   5.121   2.153  1.5158 -0.2128 -1.8380
 7331TIP3    H221958   5.844   5.167   2.068  1.3581 -0.0980 -1.5612
 7332TIP3   OH221959   4.578   6.006   3.510 -0.4446 -0.3625  0.2299
 7332TIP3    H121960   4.500   5.991   3.456  0.3688  0.1971 -1.1690
 7332TIP3    H221961   4.579   5.934   3.572 -1.7832 -0.6770 -0.0797
 7333TIP3   OH221962   7.180   5.043   0.949  0.1427 -0.4636 -0.1310
 7333TIP3    H121963   7.115   5.064   1.016  0.6775  0.9174 -0.0152
 7333TIP3    H221964   7.264   5.043   0.994  0.7052  2.0178 -0.9927
 7334TIP3   OH221965   6.095   0.150   4.198  0.3559  0.5141 -0.2491
 7334TIP3    H121966   6.127   0.167   4.110 -0.4576  0.9858 -0.4680
 7334TIP3    H221967   6.086   0.237   4.238 -2.1302  0.5703 -0.7537
 7335TIP3   OH221968   5.810   3.121   3.624  0.1186  0.0526 -0.1944
 7335TIP3    H121969   5.888   3.081   3.662  0.3619 -0.1383 -0.8696
 7335TIP3    H221970   5.820   3.215   3.643  1.3294  0.2610 -1.6238
 7336TIP3   OH221971   0.584   4.802   0.056  0.1452  0.4687 -0.0666
 7336TIP3    H121972   0.608   4.746  -0.018 -0.4840  1.1030 -0.7655
 7336TIP3    H221973   0.667   4.826   0.096  0.8363  2.9544 -2.6497
 7337TIP3   OH221974   2.247   1.251   0.067 -0.3293  0.2824 -0.0581
 7337TIP3    H121975   2.295   1.312   0.123  0.0345 -1.1211  1.2144
 7337TIP3    H221976   2.290   1.257  -0.018 -0.4086  1.9009 -0.0109
 7338TIP3   OH221977   4.508   5.183   1.484 -0.2237  0.0379  0.2004
 7338TIP3    H121978   4.595   5.219   1.464 -0.6631  1.7327  1.1094
 7338TIP3    H221979   4.470   5.162   1.399  0.7389  0.1035 -0.2616
 7339TIP3   OH221980   6.211   1.177   1.247  0.0507 -0.0473  0.2045
 7339TIP3    H121981   6.256   1.253   1.209 -2.3241  1.1746 -0.3884
 7339TIP3    H221982   6.240   1.103   1.194 -0.3694  1.0625 -1.6618
 7340TIP3   OH221983   2.211   3.504   3.038  0.1660  0.2903 -0.0082
 7340TIP3    H121984   2.252   3.439   3.095 -0.1700  0.2631  0.2040
 7340TIP3    H221985   2.284   3.541   2.988  0.4865  0.4180  0.5431
 7341TIP3   OH221986   3.536   5.804   0.838  0.3311 -0.2557 -0.0837
 7341TIP3    H121987   3.502   5.787   0.926 -0.6477 -0.5558 -0.4941
 7341TIP3    H221988   3.607   5.866   0.850  0.0334 -0.0930  0.8953
 7342TIP3   OH221989   1.463   6.333   3.469 -0.3139 -0.1948  0.3415
 7342TIP3    H121990   1.467   6.416   3.421 -0.3736 -0.3957 -0.0181
 7342TIP3    H221991   1.499   6.269   3.408 -0.9960 -0.5659  0.3167
 7343TIP3   OH221992   4.205   6.646   4.994  0.2922 -0.1088  0.3062
 7343TIP3    H121993   4.284   6.696   5.016  0.1122  0.5230 -0.4405
 7343TIP3    H221994   4.155   6.704   4.938 -0.0162 -1.0624 -0.4330
 7344TIP3   OH221995   0.754   2.737   3.947 -0.0550 -1.0727  0.5182
 7344TIP3    H121996   0.789   2.787   4.021  2.6099 -0.4418 -1.0226
 7344TIP3    H221997   0.689   2.796   3.908 -0.2915 -0.7319  1.4045
 7345TIP3   OH221998   4.210   6.242   1.474  0.9258 -0.1698  0.7026
 7345TIP3    H121999   4.127   6.198   1.457  0.7000 -0.1096  1.5961
 7345TIP3    H222000   4.217   6.244   1.569  1.7423  0.2212  0.6431
 7346TIP3   OH222001   4.985   6.760   1.541  0.4904  0.4326 -0.0657
 7346TIP3    H122002   5.012   6.676   1.579  0.0323  0.6507  0.7791
 7346TIP3    H222003   5.037   6.825   1.587  1.2334  0.5791 -1.1034
 7347TIP3   OH222004   1.125   3.440   0.712 -0.2020 -0.0801 -0.6506
 7347TIP3    H122005   1.119   3.495   0.790  2.3663 -0.4943 -0.0598
 7347TIP3    H222006   1.203   3.471   0.667 -0.1620 -1.5453 -1.6673
 7348TIP3   OH222007   6.234   2.225   0.281  0.3069  0.4897  0.2209
 7348TIP3    H122008   6.206   2.209   0.372  2.4428  0.0957  0.8597
 7348TIP3    H222009   6.283   2.307   0.285 -0.8751  1.3050 -0.9194
 7349TIP3   OH222010   4.821   6.673   1.030  0.4179  0.7095  0.0699
 7349TIP3    H122011   4.843   6.584   1.001 -1.3260  0.4431 -0.5203
 7349TIP3    H222012   4.758   6.705   0.965 -1.0126  1.3763  1.7061
 7350TIP3   OH222013   2.418   1.584   1.976  0.6484  0.1589  0.4829
 7350TIP3    H122014   2.362   1.608   1.903 -0.5090 -1.0593  0.9404
 7350TIP3    H222015   2.431   1.666   2.024  2.7963  1.3594 -1.9183
 7351TIP3   OH222016   2.575   2.803   1.444  0.1948 -0.2017 -0.0917
 7351TIP3    H122017   2.538   2.884   1.478  2.2718  0.2831  1.2117
 7351TIP3    H222018   2.501   2.757   1.405 -1.4693  1.2917  1.1446
 7352TIP3   OH222019   6.315   0.908   3.242 -0.2370  0.5592  0.4059
 7352TIP3    H122020   6.240   0.882   3.188 -0.2392  0.2672  0.5465
 7352TIP3    H222021   6.327   1.001   3.223  0.9007  0.0680 -1.4892
 7353TIP3   OH222022   1.516   5.044   5.588  0.1694  0.5579  0.0865
 7353TIP3    H122023   1.484   5.087   5.509 -1.0126 -0.2790  0.0793
 7353TIP3    H222024   1.439   5.039   5.645  0.5428 -0.5263  0.5222
 7354TIP3   OH222025   7.134   6.291   0.001 -0.7167 -0.4383  0.3791
 7354TIP3    H122026   7.162   6.215   0.052 -0.5945 -1.0239 -0.5305
 7354TIP3    H222027   7.053   6.319   0.042 -1.0969 -1.4559  0.3501
 7355TIP3   OH222028   6.011   4.195   3.649 -0.2224  0.3446  0.1931
 7355TIP3    H122029   5.937   4.153   3.605 -0.2915  1.7927 -1.1446
 7355TIP3    H222030   5.971   4.244   3.721 -0.2100 -1.2703  1.3489
 7356TIP3   OH222031   3.164   5.980   3.821 -0.1136 -0.2809  0.6900
 7356TIP3    H122032   3.109   5.903   3.835  0.1386 -0.7329 -0.6429
 7356TIP3    H222033   3.145   6.007   3.731  3.2477 -1.6935 -0.6036
 7357TIP3   OH222034   0.386   3.622   0.285  0.0797 -0.3289 -0.1401
 7357TIP3    H122035   0.447   3.680   0.239  1.1039 -0.9563  0.3693
 7357TIP3    H222036   0.312   3.678   0.308  1.6884  1.2319  1.6963
 7358TIP3   OH222037   0.783   2.253   3.504  0.2969  0.2315  0.2269
 7358TIP3    H122038   0.761   2.204   3.425  1.8260  1.0473 -0.7428
 7358TIP3    H222039   0.735   2.335   3.496  0.2104  0.1888  0.3030
 7359TIP3   OH222040   7.084   4.541   5.647 -0.2422 -0.4167 -0.1459
 7359TIP3    H122041   7.038   4.501   5.721 -0.9452  1.1805  0.3099
 7359TIP3    H222042   7.016   4.556   5.581  0.5093 -2.6672 -1.5786
 7360TIP3   OH222043   0.707   0.589   3.749 -0.4883  0.2318 -0.3639
 7360TIP3    H122044   0.699   0.494   3.748 -1.3055  0.2412 -2.9614
 7360TIP3    H222045   0.788   0.606   3.701 -0.5720  0.8665 -0.2875
 7361TIP3   OH222046   3.834   2.327   4.869 -0.6338 -0.3192  0.6187
 7361TIP3    H122047   3.817   2.359   4.957  1.7930 -2.1352  1.8675
 7361TIP3    H222048   3.927   2.344   4.854 -0.6261 -1.4558 -0.9338
 7362TIP3   OH222049   0.399   4.595   2.446  0.2009 -0.6976  0.0770
 7362TIP3    H122050   0.330   4.562   2.389 -0.6924  1.9765 -0.5359
 7362TIP3    H222051   0.471   4.617   2.386  0.5784 -0.9925  0.4114
 7363TIP3   OH222052   7.137   0.903   5.424 -0.0491 -0.5204  0.2827
 7363TIP3    H122053   7.188   0.973   5.464  0.3668 -0.6715  0.0221
 7363TIP3    H222054   7.095   0.859   5.498 -0.2815 -0.0235  0.4506
 7364TIP3   OH222055   4.421   3.521   0.915  0.6966 -0.1800  0.4073
 7364TIP3    H122056   4.394   3.429   0.917  0.1177 -0.1095 -1.9667
 7364TIP3    H222057   4.514   3.518   0.895  0.6537 -0.2394  0.2178
 7365TIP3   OH222058   0.633   2.586   5.028 -0.9763 -0.1242  0.2667
 7365TIP3    H122059   0.601   2.511   5.079 -1.0165  0.4480  1.0919
 7365TIP3    H222060   0.565   2.599   4.961 -0.6195 -1.2695 -0.3571
 7366TIP3   OH222061   4.103   4.535   4.393  0.3690 -0.3048 -0.2751
 7366TIP3    H122062   4.146   4.492   4.467  1.2837 -2.0830 -1.7490
 7366TIP3    H222063   4.025   4.483   4.377 -0.2164  0.5071 -0.1339
 7367TIP3   OH222064   3.360   1.753   1.802 -0.9543  0.6070 -0.5771
 7367TIP3    H122065   3.392   1.756   1.711  0.9710  1.4032  0.0832
 7367TIP3    H222066   3.433   1.718   1.852 -2.6151 -1.6080  0.4795
 7368TIP3   OH222067   3.763   0.668   0.619 -0.2817  0.0332  0.4216
 7368TIP3    H122068   3.707   0.631   0.687 -0.0679  0.4678  0.8383
 7368TIP3    H222069   3.816   0.733   0.664  2.0099 -1.7397  0.4538
 7369TIP3   OH222070   6.868   0.167   2.799  0.3934  0.0696 -0.1830
 7369TIP3    H122071   6.866   0.077   2.768  0.5990  0.0093 -0.0180
 7369TIP3    H222072   6.957   0.180   2.831  0.4988  0.4654 -0.6076
 7370TIP3   OH222073   0.049   1.034   1.856  0.2527 -0.4557  0.0924
 7370TIP3    H122074   0.069   1.116   1.812 -1.2796 -1.1721 -2.1034
 7370TIP3    H222075  -0.046   1.022   1.844  0.0551 -1.5600  2.1536
 7371TIP3   OH222076   4.989   1.888   4.400  0.3738  0.1919 -0.3284
 7371TIP3    H122077   4.947   1.873   4.485 -0.4344 -0.0025 -0.7495
 7371TIP3    H222078   5.072   1.930   4.421 -0.5109  1.5982  0.4830
 7372TIP3   OH222079   1.969   1.348   4.159  0.4254  0.6651  0.1328
 7372TIP3    H122080   2.026   1.278   4.128 -0.9948 -1.1395  1.3989
 7372TIP3    H222081   2.025   1.400   4.217  1.6368  0.9572 -1.2374
 7373TIP3   OH222082   2.557   5.838   2.770  0.0805 -0.1328  0.1473
 7373TIP3    H122083   2.629   5.828   2.834 -0.5747 -0.7912  0.8001
 7373TIP3    H222084   2.540   5.749   2.739 -0.9844 -0.0947  0.5929
 7374TIP3   OH222085   6.008   1.862   3.863 -0.0338 -0.0042  0.3929
 7374TIP3    H122086   5.969   1.832   3.945 -0.0243  1.4131  0.9331
 7374TIP3    H222087   6.088   1.907   3.889 -0.5566  1.3646 -0.2969
 7375TIP3   OH222088   2.116   5.460   0.888 -0.2467 -0.3585  0.1168
 7375TIP3    H122089   2.186   5.471   0.824 -0.2219  2.2293  0.4909
 7375TIP3    H222090   2.038   5.444   0.836 -0.0727  0.8634 -0.5554
 7376TIP3   OH222091   3.222   1.061   3.416 -0.3338  0.3637 -0.1463
 7376TIP3    H122092   3.257   0.983   3.373  0.2016  0.8801 -0.6570
 7376TIP3    H222093   3.199   1.031   3.504 -1.4488 -0.7041 -0.7700
 7377TIP3   OH222094   6.865   0.186   1.233  0.8571 -0.0521  0.2464
 7377TIP3    H122095   6.867   0.116   1.299 -1.6593  1.1183  1.7128
 7377TIP3    H222096   6.899   0.263   1.278  0.3244  0.4521 -0.1921
 7378TIP3   OH222097   3.724   4.998   2.664  0.2138  0.1345  0.0326
 7378TIP3    H122098   3.795   5.058   2.644  0.3205 -0.8822 -3.1337
 7378TIP3    H222099   3.665   5.004   2.589 -1.1120 -1.7884  0.8363
 7379TIP3   OH222100   3.870   2.701   3.400 -0.2863  0.3222 -0.7565
 7379TIP3    H122101   3.842   2.626   3.452 -1.0456  1.5996  0.7632
 7379TIP3    H222102   3.789   2.735   3.361 -0.3687  1.7806  0.5818
 7380TIP3   OH222103   5.189   0.885   0.413  0.5304 -0.3050  0.0857
 7380TIP3    H122104   5.156   0.802   0.378 -0.8445  0.1686  0.1737
 7380TIP3    H222105   5.145   0.894   0.498 -1.7685  1.9066 -1.1896
 7381TIP3   OH222106   4.054   3.422   2.636  0.2769  0.4716  0.7743
 7381TIP3    H122107   4.076   3.427   2.542  1.8648 -0.6867  1.0589
 7381TIP3    H222108   4.082   3.507   2.671  0.5961  0.5373  0.3711
 7382TIP3   OH222109   6.709   4.504   2.119  0.3901 -0.0612 -0.1102
 7382TIP3    H122110   6.741   4.584   2.077  1.4896 -1.4200 -2.0309
 7382TIP3    H222111   6.718   4.437   2.051 -0.9012 -1.7428  1.2989
 7383TIP3   OH222112   3.239   1.676   0.722 -0.0742 -0.0409  0.2174
 7383TIP3    H122113   3.300   1.731   0.673 -0.0090 -0.3822 -0.0873
 7383TIP3    H222114   3.251   1.703   0.813  0.9865 -0.5340  0.2388
 7384TIP3   OH222115   6.645   1.912   4.825  0.0785  0.0362 -0.9285
 7384TIP3    H122116   6.570   1.943   4.774 -1.3683 -0.3693  0.8421
 7384TIP3    H222117   6.607   1.878   4.906  2.1680 -0.4547 -0.0751
 7385TIP3   OH222118   2.230   6.522   0.284 -0.3061 -0.7490 -0.0893
 7385TIP3    H122119   2.285   6.553   0.213  0.0428  0.2908  0.6266
 7385TIP3    H222120   2.287   6.467   0.337 -0.1767 -0.3314  0.2027
 7386TIP3   OH222121   0.336   1.763   2.077 -0.0608 -0.3365  0.6750
 7386TIP3    H122122   0.266   1.722   2.027  1.2105  1.0025 -2.4259
 7386TIP3    H222123   0.395   1.692   2.100  0.2129 -0.7957 -1.3245
 7387TIP3   OH222124   2.103   4.848   0.852  0.0558  0.5223  0.3832
 7387TIP3    H122125   2.028   4.861   0.794  0.3746  0.5776 -0.0215
 7387TIP3    H222126   2.079   4.773   0.907 -1.2516  1.9224  1.8259
 7388TIP3   OH222127   5.586   1.156   4.637 -0.3094  0.1433  0.1219
 7388TIP3    H122128   5.577   1.204   4.554  0.7895 -3.5533 -2.3791
 7388TIP3    H222129   5.501   1.113   4.648 -0.5988  0.9522  1.2508
 7389TIP3   OH222130   4.751   0.336   3.315  0.3438  0.8190  0.6724
 7389TIP3    H122131   4.699   0.261   3.344  1.2038  0.1218  0.4276
 7389TIP3    H222132   4.837   0.300   3.294  0.2526  1.5527 -1.1576
 7390TIP3   OH222133   2.216   3.996   5.085  0.7518 -0.3412  0.6106
 7390TIP3    H122134   2.284   3.931   5.067  0.4572 -0.3517 -0.5970
 7390TIP3    H222135   2.200   4.037   4.999  0.7159  1.1107  1.2806
 7391TIP3   OH222136   5.796   4.174   4.038  0.0639  0.2391  0.2185
 7391TIP3    H122137   5.765   4.181   4.128  0.2757 -1.8905  0.5175
 7391TIP3    H222138   5.887   4.146   4.047  0.1350  0.1732 -0.6570
 7392TIP3   OH222139   6.068   1.535   4.412  0.3408  0.4750 -0.1994
 7392TIP3    H122140   6.161   1.517   4.426  0.2417  1.7244  3.1301
 7392TIP3    H222141   6.067   1.611   4.353  1.2653 -0.8907 -2.0661
 7393TIP3   OH222142   1.551   2.630   0.964  0.4074 -0.5125  0.3704
 7393TIP3    H122143   1.524   2.601   0.877 -0.3721 -1.1368  0.8021
 7393TIP3    H222144   1.537   2.724   0.964 -0.0448 -0.5766 -0.0257
 7394TIP3   OH222145   6.187   6.098   3.185  0.3588 -0.8742 -0.8083
 7394TIP3    H122146   6.254   6.071   3.248  1.1644  2.1223 -0.2065
 7394TIP3    H222147   6.232   6.160   3.128 -1.5916  0.3585 -1.1099
 7395TIP3   OH222148   1.223   2.640   0.461 -0.6388  0.1007 -0.1828
 7395TIP3    H122149   1.298   2.698   0.473 -1.9402  1.4956  1.8896
 7395TIP3    H222150   1.245   2.587   0.385  2.3250  0.6163  0.2091
 7396TIP3   OH222151   2.165   6.219   1.411  0.3791  0.1102  0.0187
 7396TIP3    H122152   2.112   6.297   1.397 -0.5027 -0.8030 -2.0217
 7396TIP3    H222153   2.248   6.238   1.368  0.1483 -0.0942 -0.5164
 7397TIP3   OH222154   2.843   6.406   2.727 -0.3635 -0.1056  0.0374
 7397TIP3    H122155   2.790   6.453   2.663 -0.9253  0.2387  0.7370
 7397TIP3    H222156   2.844   6.315   2.697  2.2968  0.5805 -2.3926
 7398TIP3   OH222157   1.238   2.541   0.198  0.1036  0.2048 -0.2604
 7398TIP3    H122158   1.215   2.617   0.145 -0.4041  0.7071  0.6501
 7398TIP3    H222159   1.287   2.484   0.139 -0.6436  0.6406 -1.3265
 7399TIP3   OH222160   0.328   4.002   5.768 -0.6073  0.5692  0.1952
 7399TIP3    H122161   0.247   3.998   5.718 -0.4260  1.3186 -0.1721
 7399TIP3    H222162   0.345   4.095   5.779 -0.4155  0.4144  1.2978
 7400TIP3   OH222163   3.220   6.526   3.377  0.0915  0.0337 -0.3197
 7400TIP3    H122164   3.140   6.476   3.393 -0.2579  0.9935  1.1637
 7400TIP3    H222165   3.237   6.571   3.460  0.9142  1.6127 -1.2910
 7401TIP3   OH222166   0.198   2.297   3.299 -0.3152  0.5770  0.6825
 7401TIP3    H122167   0.157   2.222   3.342  1.4544 -0.4947  0.5937
 7401TIP3    H222168   0.143   2.314   3.222  0.1132 -1.6796 -0.1824
 7402TIP3   OH222169   1.353   6.085   5.635 -0.9570  1.0056 -0.1045
 7402TIP3    H122170   1.447   6.101   5.634 -0.7682 -0.0274 -0.6344
 7402TIP3    H222171   1.328   6.095   5.727 -0.2006  0.6054  0.1554
 7403TIP3   OH222172   6.938   6.718   0.158 -0.1130 -0.3495 -0.3917
 7403TIP3    H122173   6.995   6.735   0.234  0.9458 -1.1540 -0.9766
 7403TIP3    H222174   6.897   6.634   0.178  0.5424 -0.8018 -0.9121
 7404TIP3   OH222175   4.313   3.204   3.595 -0.3125  0.1090  0.2972
 7404TIP3    H122176   4.263   3.123   3.603 -0.5083  0.3778  2.0982
 7404TIP3    H222177   4.265   3.256   3.531 -2.7772  0.6172  2.3956
 7405TIP3   OH222178   6.604   4.490   3.790 -0.1316  0.4461 -0.1147
 7405TIP3    H122179   6.614   4.577   3.830  1.3043  0.6311 -0.8117
 7405TIP3    H222180   6.677   4.439   3.825  0.4883  0.2737 -1.5624
 7406TIP3   OH222181   0.551   5.757   0.378  0.1667 -0.3662  0.6184
 7406TIP3    H122182   0.536   5.823   0.446  1.3199 -1.0670  1.6042
 7406TIP3    H222183   0.646   5.759   0.364 -0.2350  1.9531 -3.2826
 7407TIP3   OH222184   0.881   0.695   5.042  0.6195  0.3411  0.0269
 7407TIP3    H122185   0.938   0.726   4.972  1.0679 -0.6778 -0.0904
 7407TIP3    H222186   0.921   0.612   5.069  1.3645  1.4180  2.5310
 7408TIP3   OH222187   4.430   4.663   4.368  0.1401  0.3154  0.2824
 7408TIP3    H122188   4.511   4.625   4.336  0.1101  0.4568  0.0348
 7408TIP3    H222189   4.456   4.717   4.443  0.3394  0.7360 -0.0850
 7409TIP3   OH222190   4.155   5.380   2.969 -0.6207  0.1498  0.2457
 7409TIP3    H122191   4.073   5.363   3.016  0.0779  1.4161  2.0742
 7409TIP3    H222192   4.164   5.475   2.972 -0.7807  0.3676 -3.0536
 7410TIP3   OH222193   2.119   4.126   5.291 -0.3218  0.1707 -0.5791
 7410TIP3    H122194   2.152   4.213   5.267  0.6730 -0.1102 -0.2819
 7410TIP3    H222195   2.157   4.068   5.225  2.3124 -0.5935  1.4438
 7411TIP3   OH222196   0.765   1.111   2.698 -0.3706  0.3168 -0.1312
 7411TIP3    H122197   0.843   1.166   2.693  0.6060 -1.1290 -2.9858
 7411TIP3    H222198   0.798   1.024   2.721 -1.1508 -0.2784 -1.1964
 7412TIP3   OH222199   4.537   2.958   5.567 -0.0360  0.1495  0.4005
 7412TIP3    H122200   4.512   2.953   5.475  0.0352 -0.6541  0.4146
 7412TIP3    H222201   4.623   2.916   5.571  0.3540  0.9524  0.6974
 7413TIP3   OH222202   7.094   1.041   3.671 -0.6626  0.2179 -0.5168
 7413TIP3    H122203   7.183   1.064   3.643 -0.8895  1.9143  0.0392
 7413TIP3    H222204   7.091   0.946   3.665  2.2503 -0.2473  2.4350
 7414TIP3   OH222205   0.957   3.533   4.323  0.2000  0.2697 -0.7933
 7414TIP3    H122206   0.986   3.590   4.252 -1.6683  2.0701 -0.2354
 7414TIP3    H222207   0.960   3.589   4.401 -1.0023 -0.6011 -0.0788
 7415TIP3   OH222208   0.364   1.230   4.688  0.2758  0.3243  0.1035
 7415TIP3    H122209   0.429   1.299   4.676 -0.0920  0.5886 -0.4085
 7415TIP3    H222210   0.279   1.276   4.685 -0.0023 -0.2442 -1.0227
 7416TIP3   OH222211   4.750   1.224   0.208 -0.0629 -0.2718 -0.2598
 7416TIP3    H122212   4.712   1.295   0.260  0.4631  0.3194 -0.6675
 7416TIP3    H222213   4.690   1.150   0.221 -0.4596  0.1547  0.4040
 7417TIP3   OH222214   2.439   4.602   1.625 -0.0154  0.7992  0.4584
 7417TIP3    H122215   2.424   4.691   1.595 -0.0153  0.4934 -0.4733
 7417TIP3    H222216   2.535   4.594   1.629 -0.0053  0.6876  0.0518
 7418TIP3   OH222217   3.310   5.113   0.562 -0.1317 -0.2621 -0.4782
 7418TIP3    H122218   3.373   5.048   0.595  0.1642  0.1332 -0.2574
 7418TIP3    H222219   3.276   5.154   0.641 -0.4330 -0.2547 -0.6141
 7419TIP3   OH222220   6.121   4.645   3.790  0.2571 -0.0139  0.8013
 7419TIP3    H122221   6.051   4.597   3.745 -0.6984 -1.2492  3.4040
 7419TIP3    H222222   6.198   4.589   3.782  0.6981  0.7715 -1.0037
 7420TIP3   OH222223   4.392   2.929   0.243 -0.0144 -0.8630 -0.1376
 7420TIP3    H122224   4.364   2.937   0.152 -1.1254  0.6222  0.2768
 7420TIP3    H222225   4.483   2.958   0.243 -0.5890  1.1039 -0.5286
 7421TIP3   OH222226   0.905   6.202   1.794  0.0935 -0.6690  0.0569
 7421TIP3    H122227   0.911   6.125   1.850 -0.7151 -0.3236  0.6365
 7421TIP3    H222228   0.831   6.252   1.829 -0.3622 -0.3890 -1.2393
 7422TIP3   OH222229   4.422   2.465   2.936  0.7175 -0.4996 -0.0307
 7422TIP3    H122230   4.470   2.385   2.958 -0.6357 -1.1954  0.4530
 7422TIP3    H222231   4.423   2.467   2.840 -0.3022 -1.7818 -0.0936
 7423TIP3   OH222232   1.209   5.535   2.038 -0.2951  0.0603  0.2661
 7423TIP3    H122233   1.248   5.617   2.068  0.4684 -0.5715  1.0387
 7423TIP3    H222234   1.114   5.551   2.043 -0.1632  1.0392 -0.0442
 7424TIP3   OH222235   5.457   3.052   3.442 -0.0268  0.2352 -0.4282
 7424TIP3    H122236   5.535   2.999   3.453 -0.2878  0.1111  0.9747
 7424TIP3    H222237   5.408   3.040   3.523 -1.6571  0.0684 -1.3949
 7425TIP3   OH222238   5.081   3.998   5.863 -0.4925 -0.1742  0.0197
 7425TIP3    H122239   5.126   4.048   5.795 -0.7321 -0.2733 -0.2141
 7425TIP3    H222240   5.146   3.986   5.932 -0.2008 -0.2073 -0.2626
 7426TIP3   OH222241   0.676   4.143   4.123 -0.1834 -0.4430 -0.3189
 7426TIP3    H122242   0.749   4.164   4.065 -0.6924 -0.6628 -1.0609
 7426TIP3    H222243   0.603   4.126   4.063 -0.7222 -0.6652  0.3946
 7427TIP3   OH222244   4.472   3.088   2.103 -0.0564  0.1253 -0.4690
 7427TIP3    H122245   4.508   3.159   2.156  0.4648 -0.0471 -0.5873
 7427TIP3    H222246   4.393   3.125   2.064 -0.1002  0.4542 -0.0786
 7428TIP3   OH222247   2.716   0.463   2.001  0.4066  0.0951 -0.1036
 7428TIP3    H122248   2.795   0.517   1.989  0.1062  0.0723 -2.6915
 7428TIP3    H222249   2.645   0.518   1.968 -0.1936 -1.0903 -0.8142
 7429TIP3   OH222250   2.561   5.489   5.321  0.1785  0.5891  0.1662
 7429TIP3    H122251   2.505   5.415   5.298 -0.8499  1.4271 -0.1005
 7429TIP3    H222252   2.636   5.449   5.365 -1.1748 -0.5000  1.6172
 7430TIP3   OH222253   6.369   2.794   3.828 -0.5466  0.4279  0.5812
 7430TIP3    H122254   6.362   2.864   3.763  0.5815 -1.0067 -1.1787
 7430TIP3    H222255   6.328   2.718   3.787 -0.2558 -0.3877  1.7440
 7431TIP3   OH222256   6.677   3.377   1.491  0.2467 -0.3195 -0.1827
 7431TIP3    H122257   6.602   3.389   1.549  1.0326  1.0140  0.5838
 7431TIP3    H222258   6.705   3.465   1.467  0.8146 -0.8119 -1.4759
 7432TIP3   OH222259   4.268   6.160   0.885 -0.4720 -0.1616  0.2872
 7432TIP3    H122260   4.301   6.092   0.826  1.0541  1.1770 -0.4860
 7432TIP3    H222261   4.266   6.240   0.831  1.1709  1.1730  2.0536
 7433TIP3   OH222262   1.192   4.747   2.431 -0.4736 -0.3087  0.3079
 7433TIP3    H122263   1.237   4.681   2.378  0.2702 -0.9271  1.6583
 7433TIP3    H222264   1.241   4.827   2.417 -0.4758 -0.3870 -0.1728
 7434TIP3   OH222265   4.707   1.354   1.294  0.0749 -0.2548 -0.3093
 7434TIP3    H122266   4.669   1.439   1.273 -0.1070  0.2622  1.8880
 7434TIP3    H222267   4.672   1.295   1.227 -2.0441  0.8394 -0.2567
 7435TIP3   OH222268   6.574   5.383   1.657  0.7840  0.4044  0.3261
 7435TIP3    H122269   6.601   5.358   1.745  1.1966 -0.2191  0.0246
 7435TIP3    H222270   6.647   5.435   1.623  0.8912  0.1287  0.1292
 7436TIP3   OH222271   6.147   0.245   0.450  0.3922  0.1929 -0.2512
 7436TIP3    H122272   6.169   0.316   0.511  0.4149  1.4811 -1.7062
 7436TIP3    H222273   6.074   0.280   0.399 -0.9961 -1.6567  0.3673
 7437TIP3   OH222274   1.733   3.139   3.348 -0.1622  0.3881  0.0897
 7437TIP3    H122275   1.646   3.178   3.356  0.3076  1.2435  1.3228
 7437TIP3    H222276   1.743   3.122   3.254 -1.4804  0.6726 -0.1187
 7438TIP3   OH222277   5.861   5.704   3.795 -0.6031 -0.1685 -0.1657
 7438TIP3    H122278   5.921   5.662   3.734  0.5947  1.4437 -0.1479
 7438TIP3    H222279   5.812   5.766   3.742  0.5112  1.3137  0.4621
 7439TIP3   OH222280   0.871   0.935   5.786 -0.7751  0.1497  0.0237
 7439TIP3    H122281   0.776   0.928   5.790 -0.8124 -0.7124 -1.4715
 7439TIP3    H222282   0.901   0.846   5.768  0.0785  0.8190 -2.2243
 7440TIP3   OH222283   1.840   0.092   4.534  0.2310 -0.0082  0.5092
 7440TIP3    H122284   1.844  -0.003   4.541 -1.3147 -0.2044 -0.6645
 7440TIP3    H222285   1.754   0.109   4.497  0.7550  1.8193  0.0424
 7441TIP3   OH222286   6.600   3.205   2.596  0.2020  0.3736 -0.0885
 7441TIP3    H122287   6.633   3.253   2.671  2.3384 -0.2643 -0.5542
 7441TIP3    H222288   6.674   3.200   2.536 -0.8669 -0.8244 -1.3880
 7442TIP3   OH222289   0.014   5.031   2.036  0.2819  0.0363  0.3700
 7442TIP3    H122290   0.073   5.050   2.109 -1.0390  0.0894  1.4704
 7442TIP3    H222291  -0.067   5.078   2.058  0.1767  0.9605 -1.6690
 7443TIP3   OH222292   6.167   2.122   3.745 -0.5443  0.0058 -0.0384
 7443TIP3    H122293   6.139   2.081   3.663  0.5171  1.5226 -1.2122
 7443TIP3    H222294   6.254   2.085   3.762 -0.3619  0.3956 -0.1125
 7444TIP3   OH222295   0.492   2.537   0.772 -0.5067 -0.1656 -0.2145
 7444TIP3    H122296   0.397   2.531   0.774 -0.4990 -0.0789  0.7533
 7444TIP3    H222297   0.522   2.447   0.782 -0.4869  0.1150  3.7160
 7445TIP3   OH222298   3.918   1.482   5.888  0.0201  0.6190  0.4698
 7445TIP3    H122299   3.919   1.578   5.886 -0.8347  0.8177  3.8546
 7445TIP3    H222300   3.826   1.459   5.874  0.3979  0.1353 -1.5850
 7446TIP3   OH222301   3.568   4.215   5.392  0.8266 -0.4218 -0.3589
 7446TIP3    H122302   3.557   4.169   5.309 -0.9134  0.0503 -0.4201
 7446TIP3    H222303   3.533   4.303   5.376 -2.8605 -1.2941  1.7340
 7447TIP3   OH222304   3.078   2.029   0.626  0.4353  0.0019  0.3927
 7447TIP3    H122305   2.986   2.048   0.643 -0.4607 -1.1425 -2.5727
 7447TIP3    H222306   3.117   2.115   0.608 -1.3819  0.1869 -3.5345
 7448TIP3   OH222307   4.321   0.641   3.806  0.3584  0.1976 -0.5531
 7448TIP3    H122308   4.272   0.689   3.872  0.4258  0.5044 -0.7252
 7448TIP3    H222309   4.365   0.571   3.855 -0.8292 -0.5348 -0.5080
 7449TIP3   OH222310   4.392   4.818   1.202  0.2040  0.0991 -0.1284
 7449TIP3    H122311   4.411   4.731   1.238 -0.4876  0.5264  1.3500
 7449TIP3    H222312   4.476   4.848   1.167  1.2478  0.0813  2.1540
 7450TIP3   OH222313   6.105   6.634   0.601  0.5876 -0.3378  0.1284
 7450TIP3    H122314   6.158   6.607   0.675  0.4978 -1.5521 -0.2322
 7450TIP3    H222315   6.114   6.729   0.599  1.5014 -0.3875  1.0009
 7451TIP3   OH222316   2.984   6.233   1.055  0.3882  0.4034 -0.1790
 7451TIP3    H122317   2.890   6.218   1.048  0.3778 -0.2926  1.1294
 7451TIP3    H222318   2.992   6.316   1.101  0.4195  0.7879 -0.8742
 7452TIP3   OH222319   6.351   0.518   4.198  0.2572 -0.0003 -0.4565
 7452TIP3    H122320   6.345   0.613   4.209 -1.9329 -0.0295 -0.9235
 7452TIP3    H222321   6.367   0.505   4.105 -0.5473 -0.0948 -0.5867
 7453TIP3   OH222322   3.856   0.548   5.753 -0.0785  0.9170 -0.3332
 7453TIP3    H122323   3.943   0.537   5.793 -0.3403  0.5423  0.1560
 7453TIP3    H222324   3.860   0.498   5.672 -0.1350  0.0953  0.1598
 7454TIP3   OH222325   4.074   5.862   5.283  0.0608  0.0247  0.8616
 7454TIP3    H122326   4.065   5.784   5.337  0.1771  0.1114  1.0088
 7454TIP3    H222327   4.149   5.909   5.321 -0.0902  0.2728  0.8602
 7455TIP3   OH222328   1.780   3.858   0.346 -0.5029 -0.1085  0.0219
 7455TIP3    H122329   1.761   3.929   0.407  0.9076  0.5769 -0.2889
 7455TIP3    H222330   1.865   3.824   0.374  0.5031  0.6405 -1.8577
 7456TIP3   OH222331   2.022   5.400   1.680  0.1118  0.9513  0.7106
 7456TIP3    H122332   2.071   5.375   1.602 -1.0602  1.4549 -0.2158
 7456TIP3    H222333   2.069   5.357   1.752  1.4742  0.8331 -0.1967
 7457TIP3   OH222334   3.434   5.422   2.485  0.1052  0.2479  0.5384
 7457TIP3    H122335   3.358   5.475   2.512 -0.1701 -0.5397  1.3528
 7457TIP3    H222336   3.468   5.385   2.567  0.6441 -0.3822  0.0450
 7458TIP3   OH222337   5.885   4.564   1.863 -0.2923 -0.6475 -0.0145
 7458TIP3    H122338   5.885   4.564   1.959 -0.0223  0.1754 -0.0161
 7458TIP3    H222339   5.869   4.655   1.838 -1.7975 -1.0727 -0.7562
 7459TIP3   OH222340   6.012   4.026  -0.000  0.3913  0.2096 -0.5522
 7459TIP3    H122341   6.022   4.100   0.060 -1.2286  0.8637 -1.0224
 7459TIP3    H222342   6.101   4.004  -0.026  1.2156 -0.4039  2.3828
 7460TIP3   OH222343   4.614   4.400   1.355 -0.0793 -0.4497  0.2368
 7460TIP3    H122344   4.647   4.381   1.267 -2.6219 -0.8290 -0.7258
 7460TIP3    H222345   4.555   4.328   1.375  0.5969 -0.4842  2.4085
 7461TIP3   OH222346   6.568   4.707   4.334  0.7003  0.4707  0.0217
 7461TIP3    H122347   6.519   4.645   4.279 -0.5030  0.0403  1.4983
 7461TIP3    H222348   6.654   4.666   4.345  0.3321 -0.3426 -0.0373
 7462TIP3   OH222349   1.179   5.903   1.828 -0.6316 -0.1706  0.5380
 7462TIP3    H122350   1.267   5.939   1.818 -0.5552 -0.9041 -2.0513
 7462TIP3    H222351   1.153   5.876   1.740 -2.2599 -2.7653  1.6938
 7463TIP3   OH222352   4.343   4.785   5.854 -0.0317  0.3701  0.0622
 7463TIP3    H122353   4.361   4.701   5.811 -0.6772 -0.0766  0.6551
 7463TIP3    H222354   4.249   4.784   5.871  0.0636  0.9324  0.6649
 7464TIP3   OH222355   1.139   3.389   2.075  0.3189 -0.2637 -0.2359
 7464TIP3    H122356   1.124   3.399   1.981 -0.5596 -1.3170 -0.2229
 7464TIP3    H222357   1.146   3.479   2.108 -0.8755  0.1654 -1.0850
 7465TIP3   OH222358   0.892   5.901   0.729  0.6315  0.4485  0.3763
 7465TIP3    H122359   0.889   5.941   0.816 -2.3647 -0.0385  0.6255
 7465TIP3    H222360   0.906   5.975   0.670 -0.2545  1.2600  1.1364
 7466TIP3   OH222361   4.805   1.687   0.190  0.4814 -0.2764  0.0294
 7466TIP3    H122362   4.828   1.615   0.249  0.1334  0.2212  0.7931
 7466TIP3    H222363   4.710   1.680   0.180  0.2579  0.7716  1.0871
 7467TIP3   OH222364   6.657   3.859   5.845 -0.2308 -0.5192 -0.4280
 7467TIP3    H122365   6.700   3.932   5.799 -1.3818  0.0047 -0.7165
 7467TIP3    H222366   6.596   3.901   5.906  0.2187 -1.2329  0.5365
 7468TIP3   OH222367   0.599   0.395   1.672  0.5692 -0.3187 -0.0275
 7468TIP3    H122368   0.584   0.390   1.578  1.0207  0.7068 -0.1674
 7468TIP3    H222369   0.523   0.443   1.706  1.5590  1.4465 -0.2134
 7469TIP3   OH222370   3.811   5.732   3.226  0.2078  0.2013  0.3444
 7469TIP3    H122371   3.880   5.670   3.249  0.4245  0.9483  1.8377
 7469TIP3    H222372   3.764   5.747   3.308  0.0283  1.8275 -0.0209
 7470TIP3   OH222373   4.778   0.212   0.541 -0.0673  0.1402  0.7934
 7470TIP3    H122374   4.847   0.243   0.600  1.3804 -1.2405 -0.0798
 7470TIP3    H222375   4.770   0.119   0.561 -0.6002 -0.0333 -0.1853
 7471TIP3   OH222376   6.132   1.792   1.075 -0.1818  0.7953 -0.2628
 7471TIP3    H122377   6.048   1.796   1.120 -0.5268  0.4812 -0.8602
 7471TIP3    H222378   6.125   1.855   1.004  0.5668  1.6959  0.4426
 7472TIP3   OH222379   1.277   5.869   5.181 -0.0799  0.4006  0.0625
 7472TIP3    H122380   1.188   5.902   5.196  0.3884  1.3307  0.9151
 7472TIP3    H222381   1.313   5.856   5.268 -0.1007 -2.1207 -0.2241
 7473TIP3   OH222382   4.618   5.399   2.784 -0.1355 -0.1680 -0.3043
 7473TIP3    H122383   4.603   5.311   2.819  1.6578 -0.6462 -0.6482
 7473TIP3    H222384   4.572   5.399   2.700 -0.1820 -0.7812 -0.2893
 7474TIP3   OH222385   2.785   4.762   3.122  0.6240 -0.1537 -0.2009
 7474TIP3    H122386   2.746   4.675   3.135  1.4325 -0.5818 -0.5282
 7474TIP3    H222387   2.769   4.782   3.030  0.0925  0.2271 -0.0285
 7475TIP3   OH222388   4.021   5.493   5.653  0.1324 -0.5543 -0.0293
 7475TIP3    H122389   4.062   5.463   5.735 -0.2425 -2.2032 -0.4139
 7475TIP3    H222390   3.935   5.524   5.680  0.9790  1.4904  0.5573
 7476TIP3   OH222391   6.654   0.802   3.438  0.2292  0.1484  1.0493
 7476TIP3    H122392   6.654   0.748   3.358 -1.7159 -0.7246  1.5809
 7476TIP3    H222393   6.732   0.856   3.430 -1.0529  1.7981 -2.6253
 7477TIP3   OH222394   3.059   1.704   1.319 -0.3818  0.2397 -1.1292
 7477TIP3    H122395   3.051   1.616   1.356  1.3295 -0.2410 -1.8092
 7477TIP3    H222396   2.996   1.705   1.247 -0.3683 -0.4755 -1.1606
 7478TIP3   OH222397   5.019   5.056   5.482 -0.2895  0.4311  0.1792
 7478TIP3    H122398   4.925   5.077   5.484 -0.2029  0.7926  0.5330
 7478TIP3    H222399   5.032   5.015   5.397 -0.7932  0.2776  0.1715
 7479TIP3   OH222400   6.546   3.125   3.229  0.9539  0.2562  0.2058
 7479TIP3    H122401   6.635   3.125   3.193  0.6882 -0.1739 -0.4530
 7479TIP3    H222402   6.532   3.216   3.257  2.4988 -0.1317  2.6005
 7480TIP3   OH222403   0.527   6.272   3.245  0.1100 -0.5328  0.0868
 7480TIP3    H122404   0.523   6.196   3.302 -0.9355 -0.4487  0.1550
 7480TIP3    H222405   0.519   6.236   3.156 -0.1689 -0.5296  0.1079
 7481TIP3   OH222406   3.268   2.518   3.497 -0.2492 -0.1797  0.2690
 7481TIP3    H122407   3.267   2.603   3.542  1.9709  0.7558 -1.2403
 7481TIP3    H222408   3.221   2.533   3.415  0.4084 -0.2954 -0.1395
 7482TIP3   OH222409   5.875   4.242   0.571 -0.3549  0.3247  0.3972
 7482TIP3    H122410   5.901   4.314   0.513  0.1815  0.6794  1.0709
 7482TIP3    H222411   5.800   4.202   0.526  1.7069 -1.1633 -1.9331
 7483TIP3   OH222412   1.275   2.441   1.629 -0.2311  0.3479 -0.5145
 7483TIP3    H122413   1.330   2.517   1.651 -1.0995  1.0011 -0.5235
 7483TIP3    H222414   1.216   2.474   1.561 -0.5442 -0.3787 -0.5989
 7484TIP3   OH222415   2.475   0.420   3.969  0.2247  0.0932  0.5831
 7484TIP3    H122416   2.434   0.474   3.901  1.2615 -1.5453 -1.4400
 7484TIP3    H222417   2.476   0.332   3.932  2.2203 -0.5734  2.0956
 7485TIP3   OH222418   1.422   2.754   3.302  0.0828  0.3426  0.2898
 7485TIP3    H122419   1.403   2.844   3.275 -0.5530  0.5814  1.5082
 7485TIP3    H222420   1.352   2.702   3.262  1.3045  0.1314 -1.7214
 7486TIP3   OH222421   0.399   3.844   3.310 -0.4127 -0.2145  0.5353
 7486TIP3    H122422   0.398   3.755   3.345 -1.8517 -0.5234 -0.2092
 7486TIP3    H222423   0.455   3.839   3.232 -0.9994 -0.6237  0.1347
 7487TIP3   OH222424   2.138   5.903   4.508 -0.4667  0.3258 -0.8302
 7487TIP3    H122425   2.232   5.889   4.506 -0.4342  0.6234 -1.6742
 7487TIP3    H222426   2.102   5.820   4.541  0.0628  0.1224 -0.7538
 7488TIP3   OH222427   1.915   6.168   5.019  0.4658  0.3807 -0.2181
 7488TIP3    H122428   1.957   6.097   4.970  0.4140 -0.3213  0.7203
 7488TIP3    H222429   1.827   6.173   4.983  0.0771 -0.8587  0.4976
 7489TIP3   OH222430   7.149   2.950   1.719 -0.8108 -0.1631  0.0691
 7489TIP3    H122431   7.163   3.024   1.777 -0.3864  0.3247 -0.6398
 7489TIP3    H222432   7.081   2.979   1.658 -0.3209 -0.1696 -0.4968
 7490TIP3   OH222433   3.178   2.632   4.288  0.7464  0.2926  0.5699
 7490TIP3    H122434   3.118   2.700   4.255  1.1021  0.8192  0.9880
 7490TIP3    H222435   3.153   2.621   4.379 -0.5729 -1.5283  0.0548
 7491TIP3   OH222436   0.549   0.901   4.575  0.5852  0.2168 -0.0959
 7491TIP3    H122437   0.601   0.978   4.598  0.3625  0.9536 -1.9289
 7491TIP3    H222438   0.494   0.929   4.502 -0.8180 -1.1763  0.3511
 7492TIP3   OH222439   5.499   5.940   0.853  0.3951 -0.4033 -0.2228
 7492TIP3    H122440   5.418   5.964   0.807 -0.1622 -1.6170  0.0810
 7492TIP3    H222441   5.566   5.939   0.785  0.1162  0.3741 -0.5260
 7493TIP3   OH222442   7.185   2.926   4.434 -1.1363  0.5554  0.2728
 7493TIP3    H122443   7.169   2.884   4.350  0.2933 -1.0431  0.7552
 7493TIP3    H222444   7.106   2.908   4.485 -0.0804 -2.9370  0.9489
 7494TIP3   OH222445   2.197   0.947   0.951 -0.2712  0.5708 -0.4328
 7494TIP3    H122446   2.206   1.028   1.002  1.0097  0.7741 -0.9451
 7494TIP3    H222447   2.271   0.894   0.980 -1.9894 -1.1473  1.1192
 7495TIP3   OH222448   5.673   5.802   5.258 -0.3207  0.3644  0.4684
 7495TIP3    H122449   5.740   5.866   5.234 -0.6825  1.4602  2.2286
 7495TIP3    H222450   5.704   5.720   5.220  0.9785  1.2495 -0.4711
 7496TIP3   OH222451   1.441   4.701   1.189  0.0117 -0.1441  0.3044
 7496TIP3    H122452   1.536   4.710   1.183  0.1494 -0.5293  1.6598
 7496TIP3    H222453   1.424   4.685   1.281 -1.2014 -2.0093 -0.1827
 7497TIP3   OH222454   1.030   4.643   4.852  0.1635 -0.4356  0.5995
 7497TIP3    H122455   0.958   4.588   4.822 -2.0518  1.1109  2.6846
 7497TIP3    H222456   1.012   4.729   4.814  0.2073  0.2536  2.0720
 7498TIP3   OH222457   0.681   4.267   4.939  0.4304 -0.1805  0.2074
 7498TIP3    H122458   0.648   4.193   4.888 -1.1127  1.7538 -1.7324
 7498TIP3    H222459   0.607   4.326   4.948  1.8393  1.5783  0.9320
 7499TIP3   OH222460   4.494   6.459   4.591 -0.9360 -0.0702 -0.2353
 7499TIP3    H122461   4.523   6.373   4.622  1.0442  0.2842 -0.9408
 7499TIP3    H222462   4.490   6.450   4.496  0.9809  1.0222 -0.4831
 7500TIP3   OH222463   6.415   0.802   5.048  0.0992  0.1141 -0.2891
 7500TIP3    H122464   6.481   0.871   5.041 -0.2773  0.4867 -0.2378
 7500TIP3    H222465   6.332   0.847   5.032 -0.2567 -0.1095  0.8458
 7501TIP3   OH222466   0.154   2.142   5.562 -0.0128  0.3382 -0.2108
 7501TIP3    H122467   0.061   2.137   5.582 -0.2008  0.6423 -0.9736
 7501TIP3    H222468   0.190   2.197   5.631 -0.9014  2.5937 -1.4103
 7502TIP3   OH222469   5.618   2.149   1.043  0.3106 -0.1562  0.5605
 7502TIP3    H122470   5.571   2.193   1.114 -0.1349 -0.3495  0.3858
 7502TIP3    H222471   5.550   2.120   0.983  0.6507 -0.4629  0.3181
 7503TIP3   OH222472   2.878   1.210   0.119 -0.1058  0.0530  0.2969
 7503TIP3    H122473   2.876   1.304   0.141  1.4993  0.3383 -0.6383
 7503TIP3    H222474   2.814   1.171   0.179 -0.5190  1.6803  0.9933
 7504TIP3   OH222475   0.505   2.834   4.671 -0.0548 -0.1512 -0.4997
 7504TIP3    H122476   0.532   2.922   4.646  0.4760 -0.2392 -0.2513
 7504TIP3    H222477   0.410   2.840   4.681 -0.1675  0.1129 -1.5927
 7505TIP3   OH222478   5.343   2.300   0.730  0.3415  0.2200  0.2536
 7505TIP3    H122479   5.277   2.369   0.735 -1.9285 -1.3661 -3.3503
 7505TIP3    H222480   5.405   2.331   0.664  0.9517 -0.0263  0.6995
 7506TIP3   OH222481   2.403   1.233   3.682  0.3833 -0.0591  0.1555
 7506TIP3    H122482   2.380   1.273   3.598  1.2991 -0.8220 -0.4746
 7506TIP3    H222483   2.459   1.159   3.659  0.6376 -0.2906  1.4454
 7507TIP3   OH222484   0.097   2.384   1.442 -0.0280 -0.0198  0.2737
 7507TIP3    H122485   0.137   2.464   1.408 -0.4808 -0.8079 -2.2941
 7507TIP3    H222486   0.169   2.335   1.480  0.2285  1.6334  2.0804
 7508TIP3   OH222487   4.564   4.669   3.625  0.2101 -0.1801  0.2544
 7508TIP3    H122488   4.650   4.636   3.599  0.1946 -0.0837  0.0792
 7508TIP3    H222489   4.583   4.746   3.679  0.2314 -0.1074  0.1425
 7509TIP3   OH222490   1.606   5.061   1.551 -0.2113 -0.0066 -0.0645
 7509TIP3    H122491   1.652   5.113   1.617  0.6161  1.4304 -1.7004
 7509TIP3    H222492   1.538   5.120   1.517 -1.0135 -0.9266 -0.1166
 7510TIP3   OH222493   0.011   4.694   2.469 -0.2760  0.3735 -0.4776
 7510TIP3    H122494  -0.025   4.629   2.529 -0.7085 -0.1489 -1.2833
 7510TIP3    H222495   0.091   4.724   2.512 -0.4817 -0.1213  0.2710
 7511TIP3   OH222496   6.093   2.034   0.954  0.2887 -0.0978 -0.1717
 7511TIP3    H122497   6.077   2.110   1.009  0.5457  0.3850 -0.7443
 7511TIP3    H222498   6.181   2.048   0.918  0.4785 -0.8315 -0.0239
 7512TIP3   OH222499   0.397   0.323   2.028  0.5377 -0.1169  0.3533
 7512TIP3    H122500   0.383   0.388   2.097 -1.1832 -1.4994  1.3875
 7512TIP3    H222501   0.311   0.313   1.987  1.0627 -0.8729 -0.5876
 7513TIP3   OH222502   6.247   3.866   2.220  0.4448  0.5269 -0.6433
 7513TIP3    H122503   6.184   3.933   2.192 -0.1241 -0.2535 -1.2522
 7513TIP3    H222504   6.327   3.887   2.173  0.6752  1.5257  0.1320
 7514TIP3   OH222505   6.794   2.723   4.431  0.0512  0.4538 -0.5508
 7514TIP3    H122506   6.764   2.766   4.511 -0.2734  0.4510 -0.6702
 7514TIP3    H222507   6.728   2.746   4.365 -1.4393 -2.0966 -0.0866
 7515TIP3   OH222508   6.301   1.150   3.136 -0.1977  0.1697 -0.1974
 7515TIP3    H122509   6.219   1.183   3.099  0.1438  0.0709 -1.0595
 7515TIP3    H222510   6.366   1.216   3.113  0.3765 -0.7619 -1.4224
 7516TIP3   OH222511   5.065   4.110   4.410  0.0914  0.2106  0.2692
 7516TIP3    H122512   5.138   4.049   4.423 -1.1573 -1.3920  0.1452
 7516TIP3    H222513   5.013   4.102   4.489 -0.3606  0.7374  0.0309
 7517TIP3   OH222514   5.333   5.497   5.518  0.0997 -0.0024 -0.7021
 7517TIP3    H122515   5.351   5.581   5.475 -0.0480 -0.0931 -0.9450
 7517TIP3    H222516   5.297   5.441   5.448 -2.4996  0.5972  0.0474
 7518TIP3   OH222517   1.419   6.249   4.345  0.1577  0.0349  0.9595
 7518TIP3    H122518   1.327   6.246   4.370 -0.2289 -1.6683 -0.4586
 7518TIP3    H222519   1.453   6.162   4.368  1.1863  0.3701  0.7429
 7519TIP3   OH222520   0.536   4.635   2.036 -0.2219  0.4007 -0.0952
 7519TIP3    H122521   0.500   4.702   1.977 -0.4988 -0.4688 -0.9536
 7519TIP3    H222522   0.533   4.675   2.122  0.8040  1.9609 -0.7480
 7520TIP3   OH222523   6.293   0.330   1.945 -0.3403 -0.5559 -0.6206
 7520TIP3    H122524   6.361   0.363   1.887  0.4489 -0.5348  0.2771
 7520TIP3    H222525   6.223   0.301   1.887  0.9023 -1.6444 -1.6550
 7521TIP3   OH222526   4.419   4.051   5.510  0.0215  0.1153  0.0580
 7521TIP3    H122527   4.326   4.029   5.523  0.1128 -1.5642 -1.7490
 7521TIP3    H222528   4.466   3.978   5.549  0.6573  1.1598  1.3349
 7522TIP3   OH222529   0.142   3.955   5.318 -0.6011  0.1738  0.0201
 7522TIP3    H122530   0.234   3.978   5.302 -0.7244 -0.0130 -1.0049
 7522TIP3    H222531   0.109   4.027   5.373  0.4449 -0.3318  1.3746
 7523TIP3   OH222532   4.398   0.330   1.180 -0.2153  0.4206 -0.2983
 7523TIP3    H122533   4.372   0.412   1.224 -3.0735 -0.6103  0.1586
 7523TIP3    H222534   4.348   0.330   1.099  1.3844  0.0709 -1.3161
 7524TIP3   OH222535   6.530   3.024   5.062 -0.4659 -0.3357 -0.4950
 7524TIP3    H122536   6.598   3.071   5.111 -0.5158 -1.6730  0.9162
 7524TIP3    H222537   6.460   3.089   5.051 -0.3186  0.0925  0.9373
 7525TIP3   OH222538   3.414   3.865   4.926  0.4165 -0.2789 -0.1561
 7525TIP3    H122539   3.448   3.784   4.888 -0.2072 -0.8904  0.5573
 7525TIP3    H222540   3.322   3.867   4.899  0.3668  0.0720  0.0308
 7526TIP3   OH222541   5.707   3.207   5.634  0.2337  0.4436 -0.6508
 7526TIP3    H122542   5.726   3.119   5.665  1.3270  1.4644  1.8297
 7526TIP3    H222543   5.614   3.206   5.613 -0.2033 -0.8218  1.1691
 7527TIP3   OH222544   5.710   1.364   5.138  0.7423  0.2087  0.0542
 7527TIP3    H122545   5.730   1.382   5.230  2.5710 -0.1807 -0.2188
 7527TIP3    H222546   5.641   1.298   5.141 -1.2642  2.2214  1.0831
 7528TIP3   OH222547   2.873   1.101   4.817  0.1644  0.6547  0.3313
 7528TIP3    H122548   2.945   1.038   4.816  0.3883  0.9000  0.9877
 7528TIP3    H222549   2.891   1.158   4.891 -1.3297 -0.0147  1.2627
 7529TIP3   OH222550   2.731   4.007   4.004 -0.1352  0.0322  0.1965
 7529TIP3    H122551   2.765   3.969   4.085  1.2050 -1.7914 -1.1422
 7529TIP3    H222552   2.682   3.936   3.963  0.1417  0.5620 -1.1065
 7530TIP3   OH222553   0.016   1.968   0.680 -0.0984  0.0598  0.3739
 7530TIP3    H122554   0.060   1.903   0.735 -0.3181  1.7475  2.7239
 7530TIP3    H222555   0.068   1.973   0.600  0.8227 -1.8334  0.8144
 7531TIP3   OH222556   2.445   0.997   5.365  0.2302  0.0009  0.1220
 7531TIP3    H122557   2.504   0.994   5.290  0.1132 -0.4386  0.0385
 7531TIP3    H222558   2.406   1.084   5.362  0.2856  0.0162 -0.2864
 7532TIP3   OH222559   2.770   4.746   0.908  0.8903  0.2141  0.1888
 7532TIP3    H122560   2.760   4.705   0.822  1.0530 -0.7711  0.6171
 7532TIP3    H222561   2.715   4.824   0.904  0.9062  0.1857 -0.8083
 7533TIP3   OH222562   6.603   6.499   4.452 -0.3172  0.0652  0.6228
 7533TIP3    H122563   6.622   6.542   4.535 -0.1242  1.6544 -0.2064
 7533TIP3    H222564   6.507   6.498   4.447 -0.3256  0.2760  0.7265
 7534TIP3   OH222565   3.536   0.315   1.898  0.0268 -0.0642 -0.0019
 7534TIP3    H122566   3.538   0.227   1.861 -1.5250 -0.6102  1.0722
 7534TIP3    H222567   3.564   0.303   1.989 -1.0779  0.3515  0.4223
 7535TIP3   OH222568   6.195   3.748   2.591  0.2859  0.2930 -0.2943
 7535TIP3    H122569   6.234   3.660   2.580 -1.9157 -0.6607 -0.9590
 7535TIP3    H222570   6.164   3.771   2.504  0.5748  1.6591 -0.0623
 7536TIP3   OH222571   0.254   2.467   4.685 -0.0991  0.2767 -0.1308
 7536TIP3    H122572   0.345   2.490   4.705  0.0428 -0.3675 -0.0170
 7536TIP3    H222573   0.261   2.406   4.611 -0.4163 -0.0178  0.0784
 7537TIP3   OH222574   6.048   3.991   1.381 -0.7288 -0.1007  0.1458
 7537TIP3    H122575   6.071   3.900   1.365  3.8628  0.7445  0.3846
 7537TIP3    H222576   6.033   3.996   1.475  1.2931 -0.3484  0.5316
 7538TIP3   OH222577   1.337   5.164   3.811 -0.1559  0.5552  0.1619
 7538TIP3    H122578   1.266   5.160   3.875 -1.0238  0.5123 -0.7629
 7538TIP3    H222579   1.417   5.171   3.863 -0.9228  1.9939  1.2453
 7539TIP3   OH222580   1.292   6.160   0.120  0.1534  0.1176  0.2183
 7539TIP3    H122581   1.226   6.092   0.134 -0.8579  1.1469  0.6318
 7539TIP3    H222582   1.340   6.131   0.043 -2.2527  0.3801 -1.5043
 7540TIP3   OH222583   6.855   3.352   1.007 -0.0557  0.1272 -0.5471
 7540TIP3    H122584   6.815   3.306   1.080 -1.9191  0.1387 -1.4903
 7540TIP3    H222585   6.796   3.425   0.989  1.2854  1.1598 -0.9638
 7541TIP3   OH222586   3.469   4.380   4.889 -0.4131  0.1972 -0.0580
 7541TIP3    H122587   3.406   4.352   4.956  0.0498  1.7498  1.0790
 7541TIP3    H222588   3.429   4.458   4.850  1.2117  1.9184  1.4815
 7542TIP3   OH222589   4.858   6.802   0.380 -0.7357  0.0603 -0.0400
 7542TIP3    H122590   4.813   6.733   0.429 -2.3796  0.1706 -1.3009
 7542TIP3    H222591   4.914   6.755   0.318 -0.9239 -0.1156 -0.0774
 7543TIP3   OH222592   3.898   2.369   1.522  0.0541 -0.6421 -0.1232
 7543TIP3    H122593   3.967   2.314   1.486  1.0065  1.0429 -0.9768
 7543TIP3    H222594   3.941   2.421   1.590 -0.8359 -0.9580  0.7114
 7544TIP3   OH222595   3.534   6.145   5.312 -0.0713 -0.3347  0.4593
 7544TIP3    H122596   3.612   6.200   5.320 -0.6505  0.4165  1.0618
 7544TIP3    H222597   3.509   6.126   5.402 -1.3462  0.5375  0.3109
 7545TIP3   OH222598   0.483   6.417   5.677 -0.0175  0.1352 -0.7786
 7545TIP3    H122599   0.425   6.485   5.643  1.0985  1.8753  0.5958
 7545TIP3    H222600   0.439   6.386   5.757 -0.9060 -1.3979 -1.8063
 7546TIP3   OH222601   5.169   2.688   5.424 -0.0515  0.2769 -0.0307
 7546TIP3    H122602   5.255   2.694   5.465  0.2104 -1.3500 -0.2903
 7546TIP3    H222603   5.173   2.609   5.371 -0.9278  1.4160 -1.9143
 7547TIP3   OH222604   2.493   6.710   0.377  0.2749  0.6837  0.4104
 7547TIP3    H122605   2.560   6.778   0.374  0.8990  0.0897  0.6373
 7547TIP3    H222606   2.436   6.728   0.302  0.5606  1.3231  0.3463
 7548TIP3   OH222607   4.099   1.757   0.707  0.6481  0.0311 -0.5471
 7548TIP3    H122608   4.138   1.835   0.668  2.7759  0.0953  1.5306
 7548TIP3    H222609   4.075   1.783   0.795  0.9780 -1.5220  0.0345
 7549TIP3   OH222610   1.020   3.621   5.263 -0.2950  0.0013 -0.3314
 7549TIP3    H122611   1.024   3.600   5.170  0.2058  0.9869 -0.5367
 7549TIP3    H222612   1.096   3.678   5.279 -1.4876  1.4957  0.2448
 7550TIP3   OH222613   1.791   2.892   0.615  0.4949  0.4633 -0.4684
 7550TIP3    H122614   1.810   2.967   0.672 -0.4739 -0.2895  0.8755
 7550TIP3    H222615   1.712   2.918   0.568 -0.1757  0.0675  0.4244
 7551TIP3   OH222616   5.557   5.119   2.489  0.7822  0.4250 -0.0478
 7551TIP3    H122617   5.463   5.132   2.479  0.8107  1.6742  1.0770
 7551TIP3    H222618   5.597   5.199   2.455  1.3100  0.8006  1.3652
 7552TIP3   OH222619   6.007   3.347   4.486 -0.2519 -0.4583 -0.7433
 7552TIP3    H122620   6.071   3.285   4.522 -0.3441 -0.7762 -1.1130
 7552TIP3    H222621   5.978   3.399   4.560 -0.3439 -1.0157 -0.3853
 7553TIP3   OH222622   0.009   1.032   3.951  0.2228 -0.1190 -0.1634
 7553TIP3    H122623   0.064   0.996   3.881  0.9165  1.2978 -0.3901
 7553TIP3    H222624  -0.055   0.964   3.969  1.4834 -1.4469 -0.5449
 7554TIP3   OH222625   6.699   0.297   0.630  0.2386  0.2148  0.4183
 7554TIP3    H122626   6.705   0.389   0.603  0.0070 -0.0290 -0.4869
 7554TIP3    H222627   6.780   0.258   0.599 -0.0050 -0.0578  0.1185
 7555TIP3   OH222628   3.820   1.493   1.973 -0.1308  0.2441 -0.0934
 7555TIP3    H122629   3.905   1.485   1.930 -1.6268 -2.9410 -2.8857
 7555TIP3    H222630   3.829   1.441   2.053  0.8289  0.8123  0.1838
 7556TIP3   OH222631   5.868   2.173   3.440  0.0570 -0.0526 -0.0396
 7556TIP3    H122632   5.930   2.129   3.383  0.4434  2.9101 -2.1068
 7556TIP3    H222633   5.906   2.165   3.528  1.8077 -0.8177 -0.8367
 7557TIP3   OH222634   7.136   0.403   2.166  0.2252  0.0649 -0.1284
 7557TIP3    H122635   7.163   0.350   2.091 -3.2760 -1.6921 -0.3547
 7557TIP3    H222636   7.177   0.360   2.241 -0.2367 -1.2796 -0.6046
 7558TIP3   OH222637   6.253   4.293   3.565  0.2290  0.1524  0.0700
 7558TIP3    H122638   6.246   4.339   3.481  0.0233  1.1540  0.6165
 7558TIP3    H222639   6.163   4.268   3.586  0.3636 -0.6805 -0.3130
 7559TIP3   OH222640   0.183   3.359   0.464 -0.3003  0.2146 -0.3479
 7559TIP3    H122641   0.136   3.366   0.381 -0.3580  1.1075 -0.2562
 7559TIP3    H222642   0.269   3.324   0.441 -0.9349 -1.3052 -0.5381
 7560TIP3   OH222643   1.659   0.854   4.777 -0.8150  0.6947  0.1432
 7560TIP3    H122644   1.670   0.903   4.859  2.0693 -1.4977  1.2214
 7560TIP3    H222645   1.585   0.795   4.794 -0.0481  0.0397  1.3440
 7561TIP3   OH222646   6.862   6.656   4.374  0.0936  0.4294  0.7854
 7561TIP3    H122647   6.782   6.628   4.419  0.3546 -0.7693  0.5394
 7561TIP3    H222648   6.911   6.575   4.360 -0.1398  0.6823 -2.0139
 7562TIP3   OH222649   1.679   3.239   4.675 -0.2393 -0.7730  0.0190
 7562TIP3    H122650   1.693   3.277   4.762 -0.6345 -0.0756 -0.2139
 7562TIP3    H222651   1.736   3.163   4.673  0.5101 -0.2418  0.5368
 7563TIP3   OH222652   5.359   1.004   2.481  0.2392  0.0351  0.0192
 7563TIP3    H122653   5.446   0.964   2.479  0.7182  0.8981  1.6422
 7563TIP3    H222654   5.303   0.938   2.522  0.9536  0.7733  2.3710
 7564TIP3   OH222655   5.012   1.330   2.593  0.2282  0.5120 -0.0273
 7564TIP3    H122656   5.074   1.307   2.524 -0.1909  0.9413 -0.5578
 7564TIP3    H222657   5.041   1.281   2.669  0.2245 -0.6190 -0.7267
 7565TIP3   OH222658   3.040   0.861   3.771  0.1366 -0.4511  0.3349
 7565TIP3    H122659   3.027   0.791   3.835  0.4807 -0.0632  0.8354
 7565TIP3    H222660   3.052   0.815   3.688  0.5303 -0.9930  0.6862
 7566TIP3   OH222661   0.344   1.984   3.061 -0.3421  0.1096  0.1398
 7566TIP3    H122662   0.369   1.909   3.008  1.0264  0.6417 -0.0057
 7566TIP3    H222663   0.370   2.060   3.010  3.3901  0.6613  2.4914
 7567TIP3   OH222664   3.044   6.514   0.437  0.5922 -0.1243 -0.2698
 7567TIP3    H122665   3.058   6.436   0.384  0.4595 -0.1075 -0.3304
 7567TIP3    H222666   2.961   6.551   0.405  0.2116 -0.4327  0.3394
 7568TIP3   OH222667   1.426   4.594   2.698 -0.1573  0.1538 -0.1079
 7568TIP3    H122668   1.428   4.689   2.711  3.2878  0.3026 -0.9273
 7568TIP3    H222669   1.443   4.582   2.604  1.0035 -1.2770  0.2543
 7569TIP3   OH222670   1.372   3.099   5.359 -0.1543 -0.3376 -0.6272
 7569TIP3    H122671   1.410   3.094   5.447  0.9988  2.1618 -0.9191
 7569TIP3    H222672   1.339   3.188   5.352  1.6911  0.2532 -3.4446
 7570TIP3   OH222673   5.731   0.691   1.173  0.0868 -0.0993 -0.7099
 7570TIP3    H122674   5.824   0.710   1.163  0.6122 -1.2036  1.5642
 7570TIP3    H222675   5.725   0.596   1.172 -0.5090 -0.2074  2.2700
 7571TIP3   OH222676   3.993   6.044   3.853 -0.1265 -0.2118  0.2410
 7571TIP3    H122677   4.014   6.027   3.945 -1.6381 -0.0102  0.6482
 7571TIP3    H222678   3.902   6.016   3.844 -0.6600  1.6449 -0.6749
 7572TIP3   OH222679   4.941   5.608   1.518  0.4150 -0.1120 -0.4132
 7572TIP3    H122680   4.911   5.675   1.456  0.4947  0.4081  0.1020
 7572TIP3    H222681   4.862   5.577   1.561  0.4214 -0.0835 -0.3815
 7573TIP3   OH222682   6.031   3.373   2.599 -0.0620  0.1080  0.3822
 7573TIP3    H122683   5.977   3.380   2.677 -2.4575 -0.3379 -1.1434
 7573TIP3    H222684   6.079   3.456   2.595  1.7308 -0.6418  3.3494
 7574TIP3   OH222685   0.861   0.295   5.660  0.0312  0.3515 -0.3668
 7574TIP3    H122686   0.925   0.228   5.684  1.3897  1.5406 -0.4979
 7574TIP3    H222687   0.914   0.367   5.627 -1.3670  1.5407 -0.1221
 7575TIP3   OH222688   3.772   3.830   0.685  0.2130 -0.0770 -0.5333
 7575TIP3    H122689   3.809   3.742   0.691  0.3449  0.0609  1.2564
 7575TIP3    H222690   3.848   3.888   0.679  0.2653  0.0514  0.8863
 7576TIP3   OH222691   6.549   3.907   3.749  0.3682  0.0301  0.1483
 7576TIP3    H122692   6.559   4.001   3.766 -3.1857  0.2629  1.7674
 7576TIP3    H222693   6.499   3.903   3.668 -0.2781 -0.4232  0.5636
 7577TIP3   OH222694   7.079   4.647   1.073  0.3110 -0.5632 -0.7566
 7577TIP3    H122695   7.008   4.686   1.124  2.0595  1.8234  0.0190
 7577TIP3    H222696   7.051   4.657   0.982  0.5444  2.5066 -0.6012
 7578TIP3   OH222697   0.668   6.312   1.908 -0.2600  0.2059  0.0984
 7578TIP3    H122698   0.608   6.283   1.839  0.6451 -2.7812  0.4393
 7578TIP3    H222699   0.612   6.323   1.985 -0.7375 -0.1518 -0.1922
 7579TIP3   OH222700   0.179   5.567   3.988  0.0230 -0.2910  0.3660
 7579TIP3    H122701   0.094   5.534   3.959  0.3525 -0.4066 -0.4747
 7579TIP3    H222702   0.176   5.661   3.971  0.9826 -0.6332 -2.0679
 7580TIP3   OH222703   6.701   0.162   4.819 -0.0211  0.4968 -0.0097
 7580TIP3    H122704   6.610   0.158   4.848  0.2096 -1.4824  0.6229
 7580TIP3    H222705   6.746   0.209   4.888 -0.3924  0.6017  0.1648
 7581TIP3   OH222706   2.380   4.344   2.513  0.0063  0.3795 -0.1307
 7581TIP3    H122707   2.339   4.347   2.427 -1.8511 -1.9473  0.5557
 7581TIP3    H222708   2.472   4.362   2.496 -0.6908  2.4811 -2.2204
 7582TIP3   OH222709   6.384   1.075   2.428  0.7523  0.1956  0.1417
 7582TIP3    H122710   6.448   1.066   2.358  0.8860  0.9980  0.1488
 7582TIP3    H222711   6.325   1.001   2.416  0.4091  0.6580 -1.1943
 7583TIP3   OH222712   0.619   2.141   0.117 -0.1014 -0.3442  0.0065
 7583TIP3    H122713   0.543   2.120   0.064 -0.7725 -0.1159  0.8550
 7583TIP3    H222714   0.585   2.194   0.189  1.3218  2.5811 -1.2900
 7584TIP3   OH222715   3.870   1.220   1.109 -0.3373 -0.0831  0.4986
 7584TIP3    H122716   3.844   1.265   1.189 -0.8357  1.7083 -0.5992
 7584TIP3    H222717   3.935   1.278   1.069 -0.3333 -0.7849 -0.5486
 7585TIP3   OH222718   1.011   0.217   5.401 -0.1118 -0.2910  0.0894
 7585TIP3    H122719   1.060   0.167   5.336  0.7896  1.2455 -0.4548
 7585TIP3    H222720   1.043   0.185   5.485  1.1859  0.0304 -0.2587
 7586TIP3   OH222721   2.215   0.726   3.884  0.0967 -0.7225 -0.5469
 7586TIP3    H122722   2.245   0.739   3.973 -0.4345 -1.3948 -0.2598
 7586TIP3    H222723   2.141   0.666   3.892 -0.8527  0.3078 -1.2980
 7587TIP3   OH222724   2.991   1.522   4.703  0.1400 -0.4912  0.1417
 7587TIP3    H122725   3.020   1.596   4.758 -2.5206  0.6344  0.1627
 7587TIP3    H222726   2.904   1.547   4.672 -0.0361 -2.7940 -1.5038
 7588TIP3   OH222727   3.233   3.222   3.457 -0.8370 -0.3773  0.4998
 7588TIP3    H122728   3.246   3.292   3.522 -0.0952 -0.5583  0.5536
 7588TIP3    H222729   3.158   3.251   3.406  0.1552  1.0389 -0.2210
 7589TIP3   OH222730   4.983   3.445   0.168 -0.1969  0.0928 -0.0474
 7589TIP3    H122731   5.009   3.451   0.076  0.3762  1.2809  0.1649
 7589TIP3    H222732   5.039   3.377   0.205  1.6749  1.6165  0.0592
 7590TIP3   OH222733   4.570   1.960   5.842 -0.6757 -0.0296 -0.4875
 7590TIP3    H122734   4.591   1.900   5.913  3.3033 -1.6359 -2.6900
 7590TIP3    H222735   4.521   1.907   5.779 -1.1185  0.3972 -0.5145
 7591TIP3   OH222736   2.003   1.023   5.329  0.7593 -0.2258 -0.1588
 7591TIP3    H122737   2.003   0.945   5.273  0.0377 -0.2002 -0.1995
 7591TIP3    H222738   2.035   0.991   5.414  0.6222 -0.5390 -0.2216
 7592TIP3   OH222739   6.614   4.139   0.450 -0.5244  0.2008  0.0185
 7592TIP3    H122740   6.578   4.156   0.537  0.2977 -1.6478  0.7666
 7592TIP3    H222741   6.563   4.064   0.418 -1.1055  1.1169 -1.3070
 7593TIP3   OH222742   0.770   6.769   1.911 -0.3128  0.4882 -0.6228
 7593TIP3    H122743   0.679   6.756   1.883 -0.3889  1.0130 -0.6310
 7593TIP3    H222744   0.792   6.857   1.880 -0.0977  0.7162  0.1575
 7594TIP3   OH222745   0.138   5.436   5.799 -0.5687 -0.2275 -0.8953
 7594TIP3    H122746   0.065   5.482   5.841  0.2059  0.1845  0.0507
 7594TIP3    H222747   0.110   5.345   5.795 -0.9532 -0.1557 -0.0982
 7595TIP3   OH222748   0.788   6.404   3.286 -0.2421 -0.0214  0.3592
 7595TIP3    H122749   0.802   6.347   3.211 -0.2852  0.7998 -0.2872
 7595TIP3    H222750   0.694   6.397   3.304 -0.0044 -1.2943  1.2380
 7596TIP3   OH222751   5.259   0.496   3.025 -0.1257 -0.3879 -0.4690
 7596TIP3    H122752   5.312   0.472   3.102  2.6234 -1.6035 -2.5483
 7596TIP3    H222753   5.188   0.431   3.024  0.0678 -0.6435  0.7856
 7597TIP3   OH222754   3.803   3.399   3.629  0.3551  0.6312 -0.2566
 7597TIP3    H122755   3.733   3.339   3.656  1.1407 -0.9692 -1.5856
 7597TIP3    H222756   3.830   3.441   3.710  1.1714 -2.3727  1.1969
 7598TIP3   OH222757   6.860   0.371   2.102 -0.6228 -0.0954  0.1015
 7598TIP3    H122758   6.933   0.371   2.163 -0.7078 -0.7499  0.2105
 7598TIP3    H222759   6.786   0.406   2.153 -0.5805 -0.1897  0.2272
 7599TIP3   OH222760   5.445   2.770   3.794 -0.2816 -0.2055 -0.2149
 7599TIP3    H122761   5.350   2.776   3.785 -0.4422 -1.8523 -0.0924
 7599TIP3    H222762   5.476   2.754   3.705 -0.1607 -0.0490 -0.2010
 7600TIP3   OH222763   0.038   3.137   4.701 -0.3286  0.2425 -0.0868
 7600TIP3    H122764   0.041   3.216   4.647 -1.7883  1.1874  1.1456
 7600TIP3    H222765  -0.038   3.089   4.669 -1.4907  1.0359  1.3392
 7601TIP3   OH222766   1.795   1.344   5.149 -0.3485  0.7315 -0.0212
 7601TIP3    H122767   1.807   1.433   5.183 -2.1231  1.5893 -1.4419
 7601TIP3    H222768   1.712   1.316   5.188 -1.1404  0.7656 -1.6150
 7602TIP3   OH222769   6.779   5.473   3.810 -0.5214  0.6588  0.4129
 7602TIP3    H122770   6.761   5.392   3.858  1.9566  0.2369  0.7833
 7602TIP3    H222771   6.731   5.463   3.728  0.7240 -1.8609 -0.1346
 7603TIP3   OH222772   2.844   2.196   4.448 -0.3751  0.2197 -0.4216
 7603TIP3    H122773   2.811   2.257   4.382  0.9110  0.3832 -0.9369
 7603TIP3    H222774   2.850   2.112   4.402  1.2015  0.4894 -0.7375
 7604TIP3   OH222775   2.415   6.597   0.703 -0.3357 -0.4856  0.2193
 7604TIP3    H122776   2.502   6.620   0.736  0.6350 -0.1080 -2.3759
 7604TIP3    H222777   2.422   6.504   0.683 -1.1586 -0.8887  1.6471
 7605TIP3   OH222778   2.416   5.250   0.799  0.0946 -0.4026  0.1642
 7605TIP3    H122779   2.512   5.250   0.796  0.1425  0.2306  1.0980
 7605TIP3    H222780   2.392   5.342   0.791 -0.5016 -0.6612 -1.2374
 7606TIP3   OH222781   1.422   3.400   5.445 -0.8161  0.4211 -0.4863
 7606TIP3    H122782   1.471   3.412   5.364 -0.2242  1.3201 -0.0114
 7606TIP3    H222783   1.330   3.399   5.418 -0.5740 -1.3709 -1.4021
 7607TIP3   OH222784   1.863   2.542   2.074  0.1920  0.4760 -0.2858
 7607TIP3    H122785   1.908   2.483   2.013 -0.6803  1.4703 -1.9913
 7607TIP3    H222786   1.825   2.485   2.140  1.5413 -0.6191 -0.4221
 7608TIP3   OH222787   4.559   6.057   2.359  0.1776 -0.2690  0.0654
 7608TIP3    H122788   4.592   6.139   2.396  1.5413 -1.1043  0.7880
 7608TIP3    H222789   4.638   6.013   2.324 -0.5927 -1.0581 -0.7440
 7609TIP3   OH222790   2.561   5.132   1.618  0.2033 -0.2853  0.0696
 7609TIP3    H122791   2.564   5.205   1.557  0.5480 -1.4586 -1.3865
 7609TIP3    H222792   2.495   5.156   1.682  1.4508  2.0090  0.5958
 7610TIP3   OH222793   6.898   0.090   2.321  0.1779  0.0218  0.0124
 7610TIP3    H122794   6.810   0.081   2.358  0.3533  2.3414  1.1849
 7610TIP3    H222795   6.932   0.171   2.360  2.8558 -0.8105 -0.3881
 7611TIP3   OH222796   1.015   5.270   4.258  0.3952  0.0168  0.1007
 7611TIP3    H122797   1.038   5.182   4.288  0.0791  0.3545  1.3708
 7611TIP3    H222798   0.975   5.312   4.334  2.3464  1.9384  0.1489
 7612TIP3   OH222799   0.863   6.116   4.753  0.1291 -0.3608  0.1233
 7612TIP3    H122800   0.804   6.156   4.689  1.5587  4.5546  1.4694
 7612TIP3    H222801   0.944   6.099   4.704  0.9568  2.6705  0.2524
 7613TIP3   OH222802   5.787   2.952   2.493  0.1202 -0.3264 -0.7167
 7613TIP3    H122803   5.876   2.970   2.461  0.3795 -0.3551 -0.0175
 7613TIP3    H222804   5.753   3.038   2.518  0.0387 -0.3460 -0.7604
 7614TIP3   OH222805   5.048   4.294   2.536 -0.1135 -0.2440  0.4189
 7614TIP3    H122806   5.139   4.323   2.544 -0.0128 -0.6837  0.9469
 7614TIP3    H222807   5.034   4.285   2.442 -0.1303  1.4090  0.2468
 7615TIP3   OH222808   0.541   3.523   1.479  0.4254 -0.0164  0.5633
 7615TIP3    H122809   0.614   3.464   1.459  0.4898 -0.1614  1.2192
 7615TIP3    H222810   0.573   3.580   1.548  1.0377  2.1236 -1.3726
 7616TIP3   OH222811   6.197   6.104   1.658  0.3925  0.0221  0.2851
 7616TIP3    H122812   6.128   6.085   1.722  0.8175  1.1136  1.1106
 7616TIP3    H222813   6.172   6.054   1.580 -1.3802  0.4238  0.5335
 7617TIP3   OH222814   0.573   5.294   3.475  0.0748 -0.3498  0.8459
 7617TIP3    H122815   0.530   5.347   3.407 -0.5966  0.6680  2.0294
 7617TIP3    H222816   0.665   5.321   3.471  0.3615 -1.4087 -0.6518
 7618TIP3   OH222817   5.584   3.970   5.009  0.4077 -0.7416  0.3120
 7618TIP3    H122818   5.629   3.945   5.090 -0.9211 -0.2116  1.2361
 7618TIP3    H222819   5.559   3.887   4.969  1.0779 -1.0066  0.4228
 7619TIP3   OH222820   0.062   4.713   3.430 -0.3186  0.2515 -0.6665
 7619TIP3    H122821   0.074   4.622   3.456 -1.0380  0.3695  0.0987
 7619TIP3    H222822   0.061   4.710   3.334 -0.6148 -0.5822 -0.6466
 7620TIP3   OH222823   3.037   6.126   4.062  0.6352 -0.4952  0.0599
 7620TIP3    H122824   2.958   6.080   4.091  1.4809 -0.6011  2.4252
 7620TIP3    H222825   3.088   6.059   4.016 -0.2733 -0.6387 -0.7577
 7621TIP3   OH222826   0.011   4.643   3.162  0.2599  0.2465 -0.5731
 7621TIP3    H122827   0.029   4.591   3.084  1.7533  2.3599 -1.7138
 7621TIP3    H222828   0.031   4.733   3.137  2.6594  0.8368  2.7063
 7622TIP3   OH222829   5.795   1.293   4.242 -0.2984 -0.6159  0.1039
 7622TIP3    H122830   5.819   1.202   4.263 -0.6980 -0.9945 -1.0067
 7622TIP3    H222831   5.878   1.339   4.237  0.1320 -1.4872 -1.7794
 7623TIP3   OH222832   3.967   5.367   1.897 -0.5215 -0.3419 -0.1768
 7623TIP3    H122833   4.057   5.380   1.924 -0.3796  0.1899 -0.8808
 7623TIP3    H222834   3.922   5.336   1.976 -0.1886  1.4237  0.7544
 7624TIP3   OH222835   5.692   5.824   0.297 -0.0174 -0.4262 -0.0169
 7624TIP3    H122836   5.605   5.853   0.269  0.1817  1.7931  1.4293
 7624TIP3    H222837   5.745   5.826   0.217 -0.9230 -0.3281 -0.6328
 7625TIP3   OH222838   3.463   3.438   3.142 -0.7297  0.1647 -0.2676
 7625TIP3    H122839   3.504   3.521   3.170  3.5874 -1.9040  0.4065
 7625TIP3    H222840   3.507   3.417   3.059 -0.4696 -2.1981  0.4052
 7626TIP3   OH222841   0.297   0.801   4.779  0.0366 -0.5743 -0.1043
 7626TIP3    H122842   0.213   0.782   4.820  0.2356  0.0235  0.5914
 7626TIP3    H222843   0.337   0.715   4.766 -0.1141 -0.7874  0.7753
 7627TIP3   OH222844   3.193   6.647   3.617  0.0222  0.2921 -0.6171
 7627TIP3    H122845   3.229   6.698   3.690  2.0412 -0.5322 -0.9513
 7627TIP3    H222846   3.147   6.574   3.658 -0.7266  0.9988 -0.1691
 7628TIP3   OH222847   6.719   2.476   3.307 -0.9617  0.3358 -0.0240
 7628TIP3    H122848   6.660   2.442   3.239 -2.7228 -0.0957  1.6320
 7628TIP3    H222849   6.761   2.398   3.344 -0.0879  0.5626 -0.5048
 7629TIP3   OH222850   6.992   1.369   4.036  0.0420 -0.3702  0.4788
 7629TIP3    H122851   7.042   1.395   4.113 -1.4022  0.0810  1.3018
 7629TIP3    H222852   6.930   1.440   4.023  0.4086 -0.3322 -1.2684
 7630TIP3   OH222853   3.852   4.544   5.489  0.2521  0.1814  0.0811
 7630TIP3    H122854   3.942   4.530   5.460  0.1049  0.2767 -0.4291
 7630TIP3    H222855   3.840   4.483   5.561  0.7276  0.1696  0.1506
 7631TIP3   OH222856   2.800   5.431   5.858 -0.0197 -0.4112 -0.1719
 7631TIP3    H122857   2.824   5.430   5.765 -0.4084  1.3711 -0.3281
 7631TIP3    H222858   2.716   5.385   5.861 -0.4608  0.3241 -0.8608
 7632TIP3   OH222859   4.138   3.083   2.969 -0.2438 -0.1301  0.5324
 7632TIP3    H122860   4.087   3.105   2.890 -1.0550  0.1266  1.1175
 7632TIP3    H222861   4.190   3.161   2.986  0.9418 -0.6674 -0.5080
 7633TIP3   OH222862   1.577   0.589   3.806 -0.0680  0.3323  0.1702
 7633TIP3    H122863   1.599   0.641   3.730 -1.8596 -0.3135 -0.8486
 7633TIP3    H222864   1.576   0.498   3.775  0.5013 -0.0853  1.2919
 7634TIP3   OH222865   6.220   4.622   0.427 -0.1262  0.7022 -0.2138
 7634TIP3    H122866   6.210   4.611   0.522  0.2101 -0.0030 -0.2551
 7634TIP3    H222867   6.285   4.692   0.418 -0.4748  1.0720  0.0663
 7635TIP3   OH222868   3.083   3.996   0.292 -0.5344  0.2319  0.0534
 7635TIP3    H122869   3.179   4.002   0.294 -0.5642  0.8383 -0.0814
 7635TIP3    H222870   3.055   4.034   0.375 -0.7217  1.6868 -0.6459
 7636TIP3   OH222871   6.008   2.584   4.803 -0.1871  0.0757  0.7721
 7636TIP3    H122872   5.932   2.638   4.824 -0.6240 -0.1005 -0.2711
 7636TIP3    H222873   5.979   2.494   4.818 -0.1761  0.0102  0.4159
 7637TIP3   OH222874   0.958   4.114   0.845  0.0869  0.1700 -0.1690
 7637TIP3    H122875   1.018   4.043   0.868  0.0637  1.1032  3.2816
 7637TIP3    H222876   0.878   4.094   0.893 -0.1949  2.0655  0.2328
 7638TIP3   OH222877   3.742   5.448   0.180  0.4805  0.3198  0.7649
 7638TIP3    H122878   3.681   5.399   0.235 -0.4302  1.5403  0.9002
 7638TIP3    H222879   3.704   5.440   0.092 -1.2079  2.8914  1.1509
 7639TIP3   OH222880   4.397   5.044   2.576 -0.0203 -0.1919 -0.3937
 7639TIP3    H122881   4.420   5.004   2.492 -0.3460  0.9416 -1.0515
 7639TIP3    H222882   4.309   5.078   2.562  0.1307  0.4689  0.2379
 7640TIP3   OH222883   0.062   6.578   2.262  0.0482  0.2184 -0.0002
 7640TIP3    H122884  -0.002   6.603   2.196  0.3273 -0.6433 -0.6172
 7640TIP3    H222885   0.114   6.510   2.220 -0.2841 -0.9427  1.3901
 7641TIP3   OH222886   0.236   5.708   0.959  0.7158  0.7501  0.3214
 7641TIP3    H122887   0.273   5.730   0.874  0.9115 -0.4728  0.0733
 7641TIP3    H222888   0.249   5.787   1.012  2.2878  0.8909 -0.2200
 7642TIP3   OH222889   1.046   3.201   0.813  0.5565 -0.0420  0.1133
 7642TIP3    H122890   1.058   3.145   0.736 -1.0313  1.1725 -1.0956
 7642TIP3    H222891   1.064   3.289   0.781  0.5581  0.4157  1.3292
 7643TIP3   OH222892   7.177   1.141   2.910 -0.3837 -0.2616  0.0482
 7643TIP3    H122893   7.101   1.100   2.869 -1.0533  0.3482  0.6387
 7643TIP3    H222894   7.248   1.129   2.848 -1.1562 -0.1370 -0.8802
 7644TIP3   OH222895   0.232   0.768   3.585  0.6620 -0.0157 -0.4305
 7644TIP3    H122896   0.198   0.678   3.593 -0.3246  0.1244 -2.3744
 7644TIP3    H222897   0.324   0.761   3.610 -0.3827 -0.6078  4.1261
 7645TIP3   OH222898   2.675   1.141   0.682  0.3057  0.0770  0.0675
 7645TIP3    H122899   2.739   1.132   0.753  0.5017 -0.8771 -0.2107
 7645TIP3    H222900   2.722   1.191   0.615 -0.0282  1.3592  0.7640
 7646TIP3   OH222901   0.265   1.749   0.217  0.4755  0.1012  0.4990
 7646TIP3    H122902   0.213   1.795   0.152  1.5367 -2.3951 -2.3964
 7646TIP3    H222903   0.351   1.792   0.214  0.7240 -0.4224 -0.3329
 7647TIP3   OH222904   4.069   0.197   3.109 -0.0640  0.1289 -0.2328
 7647TIP3    H122905   4.105   0.108   3.116  0.2708  0.2628 -0.2644
 7647TIP3    H222906   4.015   0.207   3.187  1.2476  0.5115  0.6452
 7648TIP3   OH222907  -0.012   6.071   5.554 -0.1318 -0.3308  0.0820
 7648TIP3    H122908   0.063   6.109   5.599 -0.5174  0.1839  0.2951
 7648TIP3    H222909   0.024   6.036   5.472 -0.0115  1.8160 -0.8465
 7649TIP3   OH222910   3.540   2.379   5.283  0.7479 -0.2190 -0.2615
 7649TIP3    H122911   3.564   2.287   5.270 -2.2017 -1.4565  1.8662
 7649TIP3    H222912   3.471   2.394   5.218  0.2435  0.0271  0.3275
 7650TIP3   OH222913   5.877   5.115   4.046  0.0088 -0.1586 -0.5265
 7650TIP3    H122914   5.875   5.190   3.986 -0.7527  0.5124  0.3059
 7650TIP3    H222915   5.785   5.088   4.052  0.1384 -0.4979 -0.0119
 7651TIP3   OH222916   3.605   3.369   5.305 -0.1542 -0.0493  0.0456
 7651TIP3    H122917   3.639   3.457   5.317 -0.1651  0.2408 -1.7310
 7651TIP3    H222918   3.682   3.316   5.284  0.0363 -0.7713  2.3338
 7652TIP3   OH222919   4.860   2.359   3.970 -0.1566  0.2936 -0.5032
 7652TIP3    H122920   4.896   2.309   3.896 -1.3010 -0.1661 -0.7769
 7652TIP3    H222921   4.926   2.426   3.988  0.9617 -0.7038 -0.7770
 7653TIP3   OH222922   0.685   4.818   3.610  0.2614 -0.2007 -0.2952
 7653TIP3    H122923   0.756   4.871   3.573 -0.2726  0.4062 -0.4659
 7653TIP3    H222924   0.714   4.798   3.699  1.3761 -1.3317 -0.8714
 7654TIP3   OH222925   4.715   2.823   3.626 -0.2810 -0.8689 -0.4904
 7654TIP3    H122926   4.632   2.852   3.665 -0.0161  0.5278 -0.9009
 7654TIP3    H222927   4.698   2.822   3.532  0.0775 -0.8857 -0.5544
 7655TIP3   OH222928   3.745   5.453   5.758 -0.5760  0.7354  0.1080
 7655TIP3    H122929   3.697   5.521   5.804 -1.4014 -0.1016  0.5094
 7655TIP3    H222930   3.791   5.405   5.827 -2.5074 -1.0754  0.2514
 7656TIP3   OH222931   2.456   6.309   3.236  0.3310 -0.5617  0.0147
 7656TIP3    H122932   2.369   6.349   3.235 -0.2630 -1.5399  2.9052
 7656TIP3    H222933   2.443   6.226   3.282  2.9230 -0.3100  1.3996
 7657TIP3   OH222934   0.565   0.372   0.431 -0.5554  0.5474 -0.0122
 7657TIP3    H122935   0.486   0.419   0.458 -1.6841  0.2692 -2.5956
 7657TIP3    H222936   0.533   0.293   0.388  1.1628  0.0590 -0.4672
 7658TIP3   OH222937   2.102   0.999   0.713 -0.0859  0.4115 -0.5380
 7658TIP3    H122938   2.158   0.980   0.789  0.1385 -0.4891 -0.9168
 7658TIP3    H222939   2.158   1.048   0.653 -0.1734  0.8605 -0.2558
 7659TIP3   OH222940   5.664   5.600   0.496  0.7799 -0.5235 -0.5680
 7659TIP3    H122941   5.674   5.681   0.446 -1.0221 -0.6636 -1.2142
 7659TIP3    H222942   5.578   5.567   0.471  0.3009 -1.2070  1.7754
 7660TIP3   OH222943   4.047   6.460   3.677  0.0164 -0.4049 -0.4774
 7660TIP3    H122944   3.987   6.387   3.691  1.1924 -1.2137  0.6430
 7660TIP3    H222945   4.122   6.420   3.632  0.0713  0.4203 -1.1489
 7661TIP3   OH222946   4.395   2.298   0.233 -0.3910 -0.4049  0.7371
 7661TIP3    H122947   4.467   2.298   0.170 -0.9268 -0.0703  0.1220
 7661TIP3    H222948   4.427   2.354   0.304 -0.5932  0.9192 -0.1847
 7662TIP3   OH222949   3.739   4.128   0.046  0.4996  0.3762  0.0227
 7662TIP3    H122950   3.803   4.064   0.017 -0.2333  0.7867 -2.7405
 7662TIP3    H222951   3.767   4.210   0.005 -0.3847  1.1207  0.8600
 7663TIP3   OH222952   3.607   1.973   2.540 -0.0123  0.1936 -0.2653
 7663TIP3    H122953   3.519   1.936   2.550 -0.7710  2.0535  0.2615
 7663TIP3    H222954   3.657   1.936   2.613 -0.6491 -0.0538  0.0524
 7664TIP3   OH222955   6.670   5.398   0.618 -0.5709 -0.0321  0.0018
 7664TIP3    H122956   6.727   5.382   0.542  0.8420  0.2936  0.9557
 7664TIP3    H222957   6.730   5.404   0.692 -1.7879  1.1417  0.9425
 7665TIP3   OH222958   4.290   0.503   1.787  0.0262 -0.0519 -0.4798
 7665TIP3    H122959   4.352   0.464   1.849 -0.4725 -1.6907 -0.9653
 7665TIP3    H222960   4.225   0.546   1.843  0.2041 -0.5297  0.1071
 7666TIP3   OH222961   3.851   5.957   1.945  0.4071  0.4866 -0.0205
 7666TIP3    H122962   3.884   5.974   1.857  0.2050 -0.8102 -0.3653
 7666TIP3    H222963   3.864   5.863   1.957  0.8274  0.7214  1.5064
 7667TIP3   OH222964   6.709   5.922   0.947  0.4626 -0.1248 -0.0250
 7667TIP3    H122965   6.680   5.836   0.917  1.8061 -0.5975 -0.0165
 7667TIP3    H222966   6.629   5.966   0.975 -0.3871 -0.9412 -1.0968
 7668TIP3   OH222967   7.225   0.034   4.591  0.2421 -0.0006  0.2464
 7668TIP3    H122968   7.209  -0.045   4.539  0.6333  1.4231 -2.1621
 7668TIP3    H222969   7.146   0.087   4.578  0.3815  0.4280  1.0818
 7669TIP3   OH222970   2.315   4.984   1.113 -0.0393  0.1733 -0.0373
 7669TIP3    H122971   2.384   5.050   1.108  0.3150  0.0417  2.0145
 7669TIP3    H222972   2.350   4.909   1.065 -0.3653  1.3375 -2.2245
 7670TIP3   OH222973   1.997   3.795   4.271 -0.6269  0.4602  0.4431
 7670TIP3    H122974   2.073   3.738   4.281 -1.9350 -1.0796  2.5719
 7670TIP3    H222975   1.931   3.741   4.227 -1.2332  1.0169  0.6384
 7671TIP3   OH222976   0.352   2.866   1.990 -0.2987  0.5309  0.1408
 7671TIP3    H122977   0.419   2.801   1.972 -0.7151  0.2297 -0.3381
 7671TIP3    H222978   0.295   2.864   1.914  0.0934  1.9956 -0.2214
 7672TIP3   OH222979   4.415   6.719   3.952 -0.3586 -0.0239 -0.1498
 7672TIP3    H122980   4.350   6.765   4.005 -1.1671 -0.2959 -0.8833
 7672TIP3    H222981   4.472   6.676   4.016 -1.7287 -0.9273  0.5142
 7673TIP3   OH222982   0.707   6.131   2.773 -0.2037  0.0090 -0.6518
 7673TIP3    H122983   0.793   6.130   2.731  0.5829  1.3202  0.8626
 7673TIP3    H222984   0.646   6.152   2.701  0.7563 -0.5387 -1.6600
 7674TIP3   OH222985   6.037   0.581   5.189 -0.3326 -0.2780 -0.2445
 7674TIP3    H122986   5.947   0.613   5.198 -0.9088 -1.6326 -0.9924
 7674TIP3    H222987   6.078   0.600   5.274 -0.4264  2.9041 -0.7688
 7675TIP3   OH222988   0.294   6.801   0.746  0.1000 -0.2498  0.0930
 7675TIP3    H122989   0.338   6.811   0.830 -1.4941  0.7807  0.8509
 7675TIP3    H222990   0.352   6.745   0.695  1.8629  0.3972  1.3118
 7676TIP3   OH222991   3.933   1.717   2.165 -0.1685 -0.6112  0.1884
 7676TIP3    H122992   4.013   1.730   2.215 -1.1261 -1.9060  2.1833
 7676TIP3    H222993   3.922   1.622   2.162 -0.8693 -0.5126 -1.3432
 7677TIP3   OH222994   5.003   2.368   3.362  0.3117  0.7693 -0.2768
 7677TIP3    H122995   4.948   2.385   3.438 -0.1744  0.8575 -0.6399
 7677TIP3    H222996   4.944   2.328   3.298  0.9815 -0.4792 -0.1604
 7678TIP3   OH222997   5.224   3.401   3.543 -0.5216  0.2713  0.9287
 7678TIP3    H122998   5.206   3.341   3.615  1.0260  2.6390  3.4848
 7678TIP3    H222999   5.144   3.453   3.534 -0.1445  1.1213  2.2149
 7679TIP3   OH223000   0.501   2.460   1.444  0.3225 -0.2095 -0.0186
 7679TIP3    H123001   0.487   2.386   1.503 -2.0972 -1.1610 -1.6506
 7679TIP3    H223002   0.472   2.429   1.358  0.0655  2.3511 -0.9610
 7680TIP3   OH223003   6.849   5.841   1.237 -0.8164 -0.2637 -0.0682
 7680TIP3    H123004   6.857   5.902   1.164 -0.0837  0.0028  0.2248
 7680TIP3    H223005   6.886   5.759   1.204 -3.3174 -1.0949 -1.0338
 7681TIP3   OH223006   6.681   4.441   5.351  0.6227 -0.3603 -0.7363
 7681TIP3    H123007   6.721   4.411   5.269 -0.2979 -0.7096 -1.0799
 7681TIP3    H223008   6.691   4.366   5.410 -0.8389 -1.0415 -1.3006
 7682TIP3   OH223009   1.015   3.837   0.143  0.3541  0.2668  0.6020
 7682TIP3    H123010   1.092   3.800   0.101  1.4657  0.6841  2.1808
 7682TIP3    H223011   0.944   3.776   0.122  1.4932 -1.0912  0.5851
 7683TIP3   OH223012   0.854   4.961   1.344 -0.2218 -0.2002 -0.1073
 7683TIP3    H123013   0.930   4.932   1.294  0.5261  0.8079  0.3937
 7683TIP3    H223014   0.797   5.003   1.280  1.0900  1.7850 -0.0388
 7684TIP3   OH223015   1.669   1.391   0.500 -0.5510 -0.3600 -0.1360
 7684TIP3    H123016   1.676   1.398   0.405  0.1414  1.0721 -0.0102
 7684TIP3    H223017   1.659   1.481   0.529  0.0658 -0.7119  1.2130
 7685TIP3   OH223018   4.649   0.969   5.505  0.2021 -0.5361  0.7225
 7685TIP3    H123019   4.652   1.025   5.582 -1.2721 -1.1138  1.2405
 7685TIP3    H223020   4.621   0.884   5.538 -0.8702 -0.6893 -0.4946
 7686TIP3   OH223021   3.181   2.004   3.014  0.4496 -0.7399 -0.0429
 7686TIP3    H123022   3.169   2.047   3.099 -0.2724 -1.7910  0.4144
 7686TIP3    H223023   3.093   1.997   2.978  0.8223  0.2790 -1.1934
 7687TIP3   OH223024   5.224   3.319   3.296 -0.3688  0.3231 -0.4061
 7687TIP3    H123025   5.137   3.284   3.280 -0.2363  0.1767 -0.8154
 7687TIP3    H223026   5.226   3.336   3.390 -0.3861 -0.8992 -0.1724
 7688TIP3   OH223027   0.374   1.554   1.234 -0.2189 -0.2976 -0.3391
 7688TIP3    H123028   0.351   1.501   1.310 -0.6884  1.3599  0.7248
 7688TIP3    H223029   0.294   1.556   1.182  0.2806 -1.9545 -1.2728
 7689TIP3   OH223030   2.395   2.858   5.340  0.1749  0.0279  0.2073
 7689TIP3    H123031   2.386   2.818   5.253 -0.3116  0.9006 -0.1532
 7689TIP3    H223032   2.306   2.867   5.372  0.3248  0.1730  0.5854
 7690TIP3   OH223033   1.107   3.007   4.801  0.6096 -0.0974 -0.1169
 7690TIP3    H123034   1.070   3.028   4.715  2.4233  1.1121 -0.6513
 7690TIP3    H223035   1.186   2.957   4.781  0.2123 -1.2032  0.9378
 7691TIP3   OH223036   6.098   1.731   3.641 -0.4658  0.1890 -0.5252
 7691TIP3    H123037   6.063   1.777   3.718  0.0401  1.5758 -1.0937
 7691TIP3    H223038   6.189   1.714   3.663  0.1016  1.9016 -1.3339
 7692TIP3   OH223039   5.762   0.168   1.391 -0.0799 -0.4351 -0.5533
 7692TIP3    H123040   5.744   0.158   1.298 -0.7899 -0.1008 -0.4556
 7692TIP3    H223041   5.756   0.080   1.427 -1.2197 -0.3759 -0.5774
 7693TIP3   OH223042   2.334   6.715   3.932  0.9528 -0.2097  0.1425
 7693TIP3    H123043   2.287   6.798   3.921  1.6049  0.5645  2.6513
 7693TIP3    H223044   2.266   6.650   3.949  0.6065  0.4024  1.1506
 7694TIP3   OH223045   1.241   4.390   1.365 -0.2821 -0.3154 -0.9893
 7694TIP3    H123046   1.296   4.360   1.438 -1.1656  0.8746  0.2146
 7694TIP3    H223047   1.273   4.341   1.289  2.7502  0.6622 -0.4550
 7695TIP3   OH223048   6.205   0.111   0.069 -0.0074 -0.7883 -0.3005
 7695TIP3    H123049   6.266   0.184   0.066 -0.5954 -0.3117 -1.0327
 7695TIP3    H223050   6.130   0.143   0.118 -1.6215  0.2208 -3.2022
 7696TIP3   OH223051   2.020   2.518   2.360 -0.5450 -0.1850 -0.0169
 7696TIP3    H123052   2.109   2.524   2.395 -0.3454 -0.6337 -0.4466
 7696TIP3    H223053   2.031   2.487   2.270 -1.0299  1.2029 -0.5948
 7697TIP3   OH223054   0.481   4.829   1.369  0.0715  0.2683  0.0600
 7697TIP3    H123055   0.388   4.825   1.345  0.3598  1.2102 -1.3386
 7697TIP3    H223056   0.524   4.768   1.310  0.4078  0.1550  0.4179
 7698TIP3   OH223057   2.565   4.907   0.484  0.3176  0.0115 -0.0855
 7698TIP3    H123058   2.471   4.917   0.466 -0.0435 -2.6888 -0.1013
 7698TIP3    H223059   2.602   4.994   0.467 -1.8961  0.7089 -1.7702
 7699TIP3   OH223060   1.685   2.120   5.605 -1.4232 -0.3881 -0.1859
 7699TIP3    H123061   1.640   2.036   5.600 -1.7855 -0.3284  1.4127
 7699TIP3    H223062   1.649   2.161   5.684 -0.9238  1.0720 -0.6912
 7700TIP3   OH223063   6.372   6.466   2.235 -0.6172 -0.0619 -0.0085
 7700TIP3    H123064   6.299   6.507   2.187 -1.1141 -1.9205 -0.9277
 7700TIP3    H223065   6.389   6.385   2.187 -1.1318 -2.0620  2.9276
 7701TIP3   OH223066   2.454   2.202   3.281 -0.6284 -0.3470  0.7208
 7701TIP3    H123067   2.420   2.281   3.322 -1.3120 -0.7329  0.9223
 7701TIP3    H223068   2.443   2.217   3.187  0.2158  0.2167  0.6998
 7702TIP3   OH223069   1.607   4.813   5.479 -0.0759  0.3433 -0.2393
 7702TIP3    H123070   1.613   4.750   5.551  1.0952  1.0980  0.3559
 7702TIP3    H223071   1.573   4.893   5.519 -0.9941  0.2756 -0.8671
 7703TIP3   OH223072   4.611   3.270   4.700  0.1611  0.2268  0.1027
 7703TIP3    H123073   4.589   3.304   4.614 -2.6635  0.5625  0.8711
 7703TIP3    H223074   4.629   3.347   4.754  0.6382  0.0919  0.1431
 7704TIP3   OH223075   6.494   6.407   2.761 -0.3636  0.2253  0.3412
 7704TIP3    H123076   6.400   6.406   2.780 -0.2430  1.5190  1.1119
 7704TIP3    H223077   6.531   6.471   2.822  0.9117  0.2899 -0.4505
 7705TIP3   OH223078   6.714   2.189   5.323  0.2330 -0.0910  0.4015
 7705TIP3    H123079   6.704   2.276   5.361 -1.1061  0.4040 -0.9714
 7705TIP3    H223080   6.748   2.205   5.235  0.0169 -0.9697  0.1435
 7706TIP3   OH223081   0.985   5.470   3.825 -0.5877  0.2190  0.0888
 7706TIP3    H123082   1.080   5.477   3.816 -0.5682  0.8494  0.7211
 7706TIP3    H223083   0.970   5.473   3.920 -1.2345  0.0786 -0.0090
 7707TIP3   OH223084   3.668   4.972   0.116 -0.0197  0.1790  0.4228
 7707TIP3    H123085   3.762   4.968   0.133  0.2840  0.6445 -1.0490
 7707TIP3    H223086   3.647   4.886   0.079 -0.1346  0.1495  0.5555
 7708TIP3   OH223087   4.054   2.426   0.908 -0.2819 -0.2874  0.1383
 7708TIP3    H123088   4.074   2.499   0.850 -0.0341  0.4884  1.1691
 7708TIP3    H223089   4.101   2.447   0.989 -2.1927 -0.3483  1.3040
 7709TIP3   OH223090   6.060   0.818   2.170  0.7594 -0.2798  0.0604
 7709TIP3    H123091   5.970   0.789   2.152  0.9136 -0.5633 -0.2809
 7709TIP3    H223092   6.115   0.749   2.132  1.1213 -0.1768  0.3867
 7710TIP3   OH223093   0.818   5.564   0.875 -0.0476  0.5879  0.1994
 7710TIP3    H123094   0.858   5.576   0.961 -2.4905 -2.5961  1.9995
 7710TIP3    H223095   0.816   5.469   0.862 -2.3361  0.8186 -2.0482
 7711TIP3   OH223096   2.083   2.079   5.156  0.0067 -0.5219  0.1458
 7711TIP3    H123097   1.991   2.057   5.173 -0.1692 -1.2976 -1.5521
 7711TIP3    H223098   2.080   2.134   5.078  0.8621  1.2390  1.3072
 7712TIP3   OH223099   1.030   3.838   4.873 -0.1415 -0.0456  0.1283
 7712TIP3    H123100   0.998   3.796   4.793 -1.2067 -1.0560  1.0573
 7712TIP3    H223101   0.957   3.893   4.902  0.1500  0.1259  0.5468
 7713TIP3   OH223102   5.909   4.954   1.679  0.2669  0.2038  0.5621
 7713TIP3    H123103   5.974   4.888   1.657  1.4431  1.1164  1.1891
 7713TIP3    H223104   5.955   5.037   1.670 -1.0615  0.9272  0.1865
 7714TIP3   OH223105   0.007   6.127   2.498 -0.7452  0.4670 -0.4267
 7714TIP3    H123106  -0.025   6.187   2.431 -1.2553 -0.3087 -0.8876
 7714TIP3    H223107   0.039   6.051   2.450 -0.5884  0.1404  0.1762
 7715TIP3   OH223108   0.370   2.181   4.994  0.5532  0.4315  0.2029
 7715TIP3    H123109   0.280   2.207   4.972  0.5733 -1.0449 -2.0513
 7715TIP3    H223110   0.363   2.138   5.079 -0.9100  0.3355  0.0600
 7716TIP3   OH223111   3.118   0.404   3.786 -0.2971 -0.0490 -0.5910
 7716TIP3    H123112   3.171   0.450   3.721 -0.2347  2.2146  0.9370
 7716TIP3    H223113   3.031   0.442   3.778 -1.0536 -1.8087 -1.2413
 7717TIP3   OH223114   5.507   1.510   2.861 -0.1179  0.2756 -0.7676
 7717TIP3    H123115   5.436   1.567   2.830 -1.2676 -1.4492 -1.4340
 7717TIP3    H223116   5.482   1.423   2.831  1.2725 -0.6978  0.7907
 7718TIP3   OH223117   6.162   5.237   0.881 -0.2656 -0.1207 -0.4692
 7718TIP3    H123118   6.103   5.166   0.904  0.7665 -1.0820 -0.6869
 7718TIP3    H223119   6.199   5.211   0.797  2.0389 -0.6215  0.6161
 7719TIP3   OH223120   5.031   6.406   1.188 -0.1356 -0.0270  0.4158
 7719TIP3    H123121   4.998   6.353   1.115  1.7969 -2.2753  1.0183
 7719TIP3    H223122   4.967   6.392   1.258 -1.7781  1.8021 -0.6416
 7720TIP3   OH223123   0.633   3.126   0.975 -0.5202 -0.1481  0.2591
 7720TIP3    H123124   0.643   3.145   0.882 -1.1010 -0.0156  0.2159
 7720TIP3    H223125   0.538   3.133   0.990 -0.4259 -0.1301  0.8644
 7721TIP3   OH223126   0.377   0.711   1.843 -0.1969 -0.3305  0.1348
 7721TIP3    H123127   0.461   0.755   1.856 -0.7842  0.1658  2.8444
 7721TIP3    H223128   0.321   0.776   1.801  0.6190 -0.5485 -1.3619
 7722TIP3   OH223129   4.798   6.381   4.212  0.1994  0.4713 -0.3276
 7722TIP3    H123130   4.822   6.290   4.229 -1.4164  0.4631  2.3456
 7722TIP3    H223131   4.875   6.418   4.168  1.7487 -1.6254  0.4535
 7723TIP3   OH223132   1.834   1.030   0.675 -0.2033 -0.6734  0.0532
 7723TIP3    H123133   1.823   1.125   0.670  1.7297 -0.3921  0.3870
 7723TIP3    H223134   1.927   1.018   0.693 -0.3304 -2.6564 -0.4213
 7724TIP3   OH223135   5.347   4.931   2.194 -0.1894 -0.0339  0.1505
 7724TIP3    H123136   5.404   4.871   2.145 -0.2979 -1.0601  1.2276
 7724TIP3    H223137   5.259   4.904   2.170 -0.2750 -1.3402  1.7437
 7725TIP3   OH223138   0.553   0.606   1.303 -0.3371  0.2705  0.1301
 7725TIP3    H123139   0.582   0.534   1.359 -2.6892 -1.0744 -0.2396
 7725TIP3    H223140   0.598   0.683   1.338  3.5060 -1.4926 -0.4266
 7726TIP3   OH223141   7.002   6.287   2.930 -0.2644  0.5193 -0.2027
 7726TIP3    H123142   6.939   6.254   2.993  0.1897  1.0121  0.5159
 7726TIP3    H223143   6.960   6.273   2.845 -1.8379  1.8954  0.3101
 7727TIP3   OH223144   1.908   2.784   1.313  0.5451 -0.1541 -0.1613
 7727TIP3    H123145   1.918   2.875   1.341  1.6562 -0.2814 -0.1048
 7727TIP3    H223146   1.862   2.790   1.229  0.0474  0.4173  0.1432
 7728TIP3   OH223147   3.114   6.234   4.452  0.2688 -0.0704 -0.1304
 7728TIP3    H123148   3.159   6.153   4.478 -0.5087 -0.6371 -0.5123
 7728TIP3    H223149   3.052   6.206   4.385 -0.5282  0.7287  0.2620
 7729TIP3   OH223150   1.837   2.683   5.470  0.1320  0.0122  0.4463
 7729TIP3    H123151   1.855   2.731   5.551 -0.6333  2.8419 -0.9469
 7729TIP3    H223152   1.864   2.593   5.489  0.8288  0.7665  3.5127
 7730TIP3   OH223153   3.767   4.925   1.419  0.5433 -0.3698  0.0939
 7730TIP3    H123154   3.829   4.852   1.415  1.3549  0.3180 -0.1776
 7730TIP3    H223155   3.819   5.002   1.398 -0.7280  0.0465 -1.7117
 7731TIP3   OH223156   5.919   1.162   1.699 -0.1808 -0.2144 -0.1927
 7731TIP3    H123157   5.973   1.099   1.746 -1.2342 -1.3828 -0.4976
 7731TIP3    H223158   5.862   1.200   1.766  0.4105  0.3899 -0.0201
 7732TIP3   OH223159   0.682   4.789   5.426  0.2376 -0.1547 -0.2001
 7732TIP3    H123160   0.748   4.816   5.361 -0.3975 -0.4823 -1.0013
 7732TIP3    H223161   0.601   4.830   5.397 -0.3589 -1.4300 -0.4323
 7733TIP3   OH223162   1.211   1.713   1.812 -0.2028  0.4242  0.1369
 7733TIP3    H123163   1.216   1.749   1.900  0.8898 -0.3767  0.4290
 7733TIP3    H223164   1.289   1.747   1.768 -0.1270 -0.0994 -0.1449
 7734TIP3   OH223165   1.074   2.077   4.361  0.1114 -0.3633  0.5263
 7734TIP3    H123166   1.070   2.142   4.291  0.8280  1.0398  1.7310
 7734TIP3    H223167   0.984   2.044   4.368 -0.7649  1.9776  1.1921
 7735TIP3   OH223168   1.696   2.135   5.059  0.2097  0.0411 -0.2877
 7735TIP3    H123169   1.716   2.123   4.966 -2.6239  0.7321 -1.0649
 7735TIP3    H223170   1.688   2.046   5.094  0.7447 -0.2202 -0.8298
 7736TIP3   OH223171   0.644   3.086   0.162 -0.4420 -0.1709 -0.1947
 7736TIP3    H123172   0.574   3.036   0.205 -0.9469  0.2005 -0.5784
 7736TIP3    H223173   0.653   3.165   0.215 -0.8246  0.1242 -0.5629
 7737TIP3   OH223174   6.198   0.477   1.438  0.1027 -0.2874 -0.4025
 7737TIP3    H123175   6.123   0.425   1.410 -0.1138 -0.7763  0.9765
 7737TIP3    H223176   6.188   0.562   1.394 -0.7307 -0.6774 -0.9664
 7738TIP3   OH223177   0.378   4.040   5.214 -0.1109 -0.4124 -0.3791
 7738TIP3    H123178   0.408   4.030   5.304  0.6938  0.2406 -0.5563
 7738TIP3    H223179   0.459   4.036   5.162 -0.5301 -0.4032 -1.0314
 7739TIP3   OH223180   4.125   3.888   5.316  0.3137  0.3179 -0.1686
 7739TIP3    H123181   4.141   3.844   5.232 -1.1614 -1.9720  0.6535
 7739TIP3    H223182   4.182   3.843   5.378 -0.8703 -0.1765  0.6043
 7740TIP3   OH223183   0.498   5.887   3.711  0.0385 -0.2208 -0.4601
 7740TIP3    H123184   0.533   5.842   3.634  0.5352 -1.6091  0.5448
 7740TIP3    H223185   0.404   5.871   3.707 -0.0620  0.5063 -1.2643
 7741TIP3   OH223186   0.106   4.506   2.961 -0.7463 -0.4586 -0.2898
 7741TIP3    H123187   0.199   4.487   2.973 -0.6515  0.2999  0.2965
 7741TIP3    H223188   0.080   4.456   2.884  0.1898 -0.5489 -0.5537
 7742TIP3   OH223189   3.986   0.219   5.067 -0.1112 -0.3033  0.5373
 7742TIP3    H123190   3.935   0.143   5.040  0.4688 -0.1150 -1.2093
 7742TIP3    H223191   4.008   0.264   4.985  0.8047  0.9395  1.4185
 7743TIP3   OH223192   2.615   6.458   3.586  0.1043 -0.1917  0.0478
 7743TIP3    H123193   2.586   6.374   3.550  3.1015 -1.1094 -0.5293
 7743TIP3    H223194   2.534   6.503   3.610 -1.8234 -1.8257 -2.7523
 7744TIP3   OH223195   1.778   2.169   4.079  0.3497  0.0746 -0.0804
 7744TIP3    H123196   1.867   2.134   4.076  0.8024  1.1972 -0.3170
 7744TIP3    H223197   1.728   2.104   4.128  1.3690 -0.4315  0.3095
 7745TIP3   OH223198   6.904   1.387   3.163 -0.2863 -0.2890  0.1538
 7745TIP3    H123199   6.922   1.332   3.240  0.7600 -1.4867 -0.9029
 7745TIP3    H223200   6.860   1.328   3.102  0.1490  0.2618 -0.7080
 7746TIP3   OH223201   0.231   0.274   0.172 -0.0594 -0.1035  0.5063
 7746TIP3    H123202   0.194   0.225   0.099 -1.8824 -0.5696  1.6744
 7746TIP3    H223203   0.302   0.218   0.204 -0.2927 -0.6489  0.0918
 7747TIP3   OH223204   1.763   6.631   3.304  0.4390  0.2036  0.2665
 7747TIP3    H123205   1.809   6.631   3.221 -0.6746  1.1773 -0.3907
 7747TIP3    H223206   1.687   6.574   3.289  0.1638  0.4886  0.5753
 7748TIP3   OH223207   7.169   5.265   1.262  0.1223 -0.1862  0.1359
 7748TIP3    H123208   7.079   5.232   1.269 -0.4844  1.0426 -1.2979
 7748TIP3    H223209   7.217   5.219   1.331 -1.6911 -0.5564  1.2137
 7749TIP3   OH223210   6.356   5.586   3.469  0.0374  0.2675  0.4278
 7749TIP3    H123211   6.392   5.571   3.381  0.1093  0.5507  0.4048
 7749TIP3    H223212   6.269   5.623   3.454 -0.1258 -0.0928  0.4805
 7750TIP3   OH223213   7.073   3.312   1.783 -0.1113  0.4494 -0.3775
 7750TIP3    H123214   7.022   3.382   1.824 -0.8926 -0.4837  0.2762
 7750TIP3    H223215   7.164   3.337   1.799 -0.3795  0.1440  1.9474
 7751TIP3   OH223216   6.758   6.678   0.648 -0.5264 -0.4831  0.2135
 7751TIP3    H123217   6.716   6.614   0.591 -2.3230 -0.5166  1.5050
 7751TIP3    H223218   6.795   6.626   0.719 -1.0874 -0.1895  0.7258
 7752TIP3   OH223219   5.010   4.734   1.399 -0.0481  0.2353  0.3048
 7752TIP3    H123220   4.946   4.797   1.366  0.5194 -0.1695 -1.6960
 7752TIP3    H223221   5.048   4.776   1.475 -1.8217  0.9976  0.8309
 7753TIP3   OH223222   3.353   3.835   2.112  0.1412  0.1800  0.2024
 7753TIP3    H123223   3.396   3.814   2.029 -0.7214 -0.2872 -0.1272
 7753TIP3    H223224   3.322   3.925   2.101  0.0155  0.1135  0.0139
 7754TIP3   OH223225   0.488   0.630   0.688 -0.5726 -0.4132 -0.6668
 7754TIP3    H123226   0.422   0.603   0.752  0.3691 -1.5427 -0.1408
 7754TIP3    H223227   0.556   0.563   0.693  1.0026  1.1010 -0.6299
 7755TIP3   OH223228   1.262   1.062   1.328  0.2002  0.3193  0.1197
 7755TIP3    H123229   1.324   1.130   1.353 -0.3058  0.9087 -0.1948
 7755TIP3    H223230   1.285   1.040   1.237  1.6194 -1.3536  0.8256
 7756TIP3   OH223231   3.310   4.512   0.096 -0.1368 -0.1116 -0.0689
 7756TIP3    H123232   3.350   4.588   0.053 -0.5157  1.3133  1.9336
 7756TIP3    H223233   3.273   4.460   0.025  0.6947  1.2545 -1.5548
 7757TIP3   OH223234   6.115   3.918   5.293  0.3856 -0.5289 -0.4070
 7757TIP3    H123235   6.071   3.941   5.211 -1.3617 -0.9083  0.3856
 7757TIP3    H223236   6.207   3.936   5.276 -0.0740  0.4694 -2.0749
 7758TIP3   OH223237   6.442   0.282   3.026  0.0867  0.1839 -0.2725
 7758TIP3    H123238   6.423   0.209   3.084  0.6545  0.7338  0.6444
 7758TIP3    H223239   6.488   0.243   2.952  0.4006 -0.3925  0.2132
 7759TIP3   OH223240   3.026   3.985   3.306 -0.5027  0.2760  0.2031
 7759TIP3    H123241   3.027   4.061   3.364 -1.6899 -1.3255  2.4481
 7759TIP3    H223242   2.936   3.953   3.310  0.2732 -2.0620  0.4821
 7760TIP3   OH223243   0.856   2.914   4.580  0.3754  0.0458 -0.4829
 7760TIP3    H123244   0.768   2.947   4.602  0.7971  0.0287  1.4637
 7760TIP3    H223245   0.891   2.977   4.518 -0.3188  1.1071  0.1690
 7761TIP3   OH223246   6.676   3.158   4.478 -0.2566  0.5862 -0.0187
 7761TIP3    H123247   6.618   3.119   4.543  0.1404  1.4974  0.9304
 7761TIP3    H223248   6.639   3.133   4.394 -0.5928 -0.9330  0.5369
 7762TIP3   OH223249   2.515   6.231   1.895  0.2143 -0.5269 -0.0643
 7762TIP3    H123250   2.427   6.192   1.886 -1.5492  2.7253  1.3967
 7762TIP3    H223251   2.556   6.179   1.965 -2.4657  0.6849  2.6373
 7763TIP3   OH223252   6.947   4.925   0.832 -0.2706  0.9893  0.1928
 7763TIP3    H123253   6.974   4.834   0.848 -0.2769  0.5952 -1.8053
 7763TIP3    H223254   7.022   4.977   0.859  0.0657  0.3401  0.5470
 7764TIP3   OH223255   7.038   6.037   0.423 -0.5268  0.3364  0.0946
 7764TIP3    H123256   7.057   6.088   0.344  0.3528 -0.5546 -0.2957
 7764TIP3    H223257   7.011   5.951   0.389 -0.6574  0.1065  0.7657
 7765TIP3   OH223258   5.900   1.612   3.352 -0.3298 -0.4059  0.0599
 7765TIP3    H123259   5.867   1.701   3.358  1.6526  0.2710  3.6544
 7765TIP3    H223260   5.863   1.567   3.428  1.2359 -1.6547  0.1514
 7766TIP3   OH223261   2.059   0.023   2.486 -0.4279 -0.2742  0.5727
 7766TIP3    H123262   2.140  -0.028   2.495  0.7839  1.4170 -0.1348
 7766TIP3    H223263   2.047   0.064   2.572  0.4065  0.7191  0.2468
 7767TIP3   OH223264   0.310   1.321   3.031 -0.5683  0.7667  0.0798
 7767TIP3    H123265   0.287   1.281   3.115  0.0357  1.0730  0.3983
 7767TIP3    H223266   0.396   1.285   3.010 -1.1405 -0.0737 -0.9080
 7768TIP3   OH223267   3.698   4.441   0.252 -0.1473  0.4732  0.0945
 7768TIP3    H123268   3.756   4.479   0.186  0.8184  0.6588  1.0192
 7768TIP3    H223269   3.656   4.368   0.207  2.0933 -0.7583 -0.1705
 7769TIP3   OH223270   3.991   1.261   1.528  0.9151 -0.1375 -0.6947
 7769TIP3    H123271   4.086   1.267   1.517  0.7825  1.7157 -1.2200
 7769TIP3    H223272   3.970   1.334   1.587 -0.1792 -0.5937 -0.5050
 7770TIP3   OH223273   4.562   3.699   3.736 -0.1963  1.2284 -0.0886
 7770TIP3    H123274   4.540   3.726   3.647 -0.6802  1.6254  0.1423
 7770TIP3    H223275   4.567   3.604   3.733 -0.3225  1.2355 -0.5153
 7771TIP3   OH223276   3.032   0.370   4.845 -0.0917  0.2000  0.6094
 7771TIP3    H123277   3.018   0.455   4.803  1.0664  1.1483  2.0217
 7771TIP3    H223278   2.947   0.350   4.886 -0.6467  0.2035 -0.5094
 7772TIP3   OH223279   0.293   4.223   0.738 -0.3663  0.0162 -0.0717
 7772TIP3    H123280   0.245   4.241   0.657 -2.6574 -0.5073  1.1130
 7772TIP3    H223281   0.351   4.151   0.715 -1.6747 -0.7797 -1.0236
 7773TIP3   OH223282   4.567   4.093   3.257 -0.3215 -0.5844 -0.2687
 7773TIP3    H123283   4.641   4.099   3.318  0.5406  2.7701 -1.3791
 7773TIP3    H223284   4.494   4.133   3.303 -0.3563 -0.3469 -0.5242
 7774TIP3   OH223285   4.583   4.529   0.727  0.1332 -0.0749  0.2186
 7774TIP3    H123286   4.672   4.506   0.699 -0.1179  0.4413 -1.0457
 7774TIP3    H223287   4.526   4.488   0.663 -0.4392  1.4596 -0.3074
 7775TIP3   OH223288   2.098   3.647   3.578 -0.4957 -0.1473 -0.1708
 7775TIP3    H123289   2.193   3.635   3.586 -0.1821  0.3298 -2.4729
 7775TIP3    H223290   2.083   3.736   3.611  0.2008  0.5310 -1.5817
 7776TIP3   OH223291   5.771   0.176   0.529 -0.0201 -0.4642 -0.5876
 7776TIP3    H123292   5.723   0.100   0.495  1.4459 -1.4803 -0.4398
 7776TIP3    H223293   5.734   0.250   0.481  1.5067 -1.7366 -4.0634
 7777TIP3   OH223294   1.239   1.300   4.982 -0.1922 -0.2132 -0.7731
 7777TIP3    H123295   1.168   1.296   5.045  1.7480 -0.7997  1.5104
 7777TIP3    H223296   1.257   1.393   4.972  0.6040 -0.1461  0.9550
 7778TIP3   OH223297   7.010   0.411   5.739  0.0787 -0.0801  0.7045
 7778TIP3    H123298   7.024   0.318   5.723  2.4397  0.1444  1.1015
 7778TIP3    H223299   6.992   0.416   5.833 -2.2233 -0.2734  0.3457
 7779TIP3   OH223300   5.021   0.476   5.527 -0.0174 -0.2098 -0.5237
 7779TIP3    H123301   5.027   0.570   5.547  1.1462 -0.3308 -0.2287
 7779TIP3    H223302   5.014   0.473   5.432  1.3580  0.1596 -0.6726
 7780TIP3   OH223303   5.142   2.484   0.774 -0.5636 -0.5222  0.1145
 7780TIP3    H123304   5.055   2.452   0.798 -1.3456  0.5860 -1.0961
 7780TIP3    H223305   5.128   2.575   0.749  0.8952 -0.4196 -0.4317
 7781TIP3   OH223306   4.431   4.728   2.884 -0.2550  0.3262  0.4022
 7781TIP3    H123307   4.502   4.791   2.867 -0.0838 -0.2040 -0.9590
 7781TIP3    H223308   4.397   4.706   2.797 -1.0197 -0.6683  0.9336
 7782TIP3   OH223309   2.862   4.839   1.932 -0.3905  0.5242  0.0736
 7782TIP3    H123310   2.839   4.747   1.915 -0.4773  0.5371  0.1217
 7782TIP3    H223311   2.937   4.855   1.875  0.6750 -0.0562  1.2650
 7783TIP3   OH223312   0.878   4.302   2.006  0.4019 -0.2618  0.2593
 7783TIP3    H123313   0.824   4.309   1.927  0.6859 -2.2860 -0.1504
 7783TIP3    H223314   0.833   4.238   2.060  1.0943 -0.1115  1.0201
 7784TIP3   OH223315   5.873   4.523   3.207  0.2940  0.7858 -0.1061
 7784TIP3    H123316   5.831   4.511   3.292  0.8560 -0.7054 -0.0119
 7784TIP3    H223317   5.844   4.610   3.178 -0.7277  0.8844  1.1260
 7785TIP3   OH223318   6.822   3.589   1.383  0.0418 -0.6349  0.3393
 7785TIP3    H123319   6.862   3.661   1.432 -1.4953  0.3921  0.1445
 7785TIP3    H223320   6.830   3.615   1.291 -0.4155 -0.7859  0.2562
 7786TIP3   OH223321   3.594   4.648   5.700  0.2147  0.3846  0.2140
 7786TIP3    H123322   3.538   4.713   5.659  1.1986  0.2677 -1.4069
 7786TIP3    H223323   3.561   4.564   5.669  0.4988  0.2483  0.2742
 7787TIP3   OH223324   2.162   6.412   5.618  0.0291 -0.3458 -0.0192
 7787TIP3    H123325   2.162   6.322   5.652  0.3115  0.1884  1.4782
 7787TIP3    H223326   2.247   6.447   5.642 -0.5159  0.6888  0.4803
 7788TIP3   OH223327   5.607   4.693   3.846  0.2128 -0.1050  0.0938
 7788TIP3    H123328   5.597   4.600   3.826  1.8673 -0.6770  1.5748
 7788TIP3    H223329   5.683   4.720   3.794  0.4275  0.1149  0.5159
 7789TIP3   OH223330   3.765   3.293   2.742 -0.2252  0.4097 -0.6397
 7789TIP3    H123331   3.710   3.235   2.689 -2.6801  1.5302  0.5525
 7789TIP3    H223332   3.792   3.363   2.682 -1.5385  0.7534 -0.8468
 7790TIP3   OH223333   2.557   0.050  -0.001 -0.4078  0.0140 -0.2116
 7790TIP3    H123334   2.618  -0.018   0.029  0.1627  0.8665  0.5950
 7790TIP3    H223335   2.474   0.003  -0.014  0.1975 -1.0062 -0.5331
 7791TIP3   OH223336   1.555   2.892   1.871 -0.2636  0.0791  0.4293
 7791TIP3    H123337   1.542   2.798   1.881 -0.5420  0.0656 -0.0640
 7791TIP3    H223338   1.619   2.914   1.939  0.5097 -0.6286 -0.0540
 7792TIP3   OH223339   1.464   4.171   0.311 -0.1994  0.8297  0.1966
 7792TIP3    H123340   1.474   4.238   0.243 -2.3190  2.0054  0.9453
 7792TIP3    H223341   1.383   4.126   0.288  0.6286 -0.7909  0.3287
 7793TIP3   OH223342   2.753   1.704   0.111 -0.0957  0.1947 -0.6091
 7793TIP3    H123343   2.766   1.793   0.079 -0.8624  1.1407  1.5351
 7793TIP3    H223344   2.778   1.708   0.203 -1.8243 -1.3468 -0.0119
 7794TIP3   OH223345   6.461   0.520   0.978 -0.4671  0.1713  0.2030
 7794TIP3    H123346   6.515   0.587   0.935 -1.8453  1.0272 -0.2660
 7794TIP3    H223347   6.498   0.437   0.947  0.6052  0.7140 -0.0557
 7795TIP3   OH223348   0.427   1.760   4.673  0.6901  0.2981  0.3823
 7795TIP3    H123349   0.485   1.765   4.597 -0.2690  0.2075 -0.3757
 7795TIP3    H223350   0.408   1.851   4.695 -0.8192  0.3453 -0.9201
 7796TIP3   OH223351   3.524   5.466   1.505 -0.2894 -0.3839  0.1632
 7796TIP3    H123352   3.492   5.377   1.493  0.0245 -0.5504  0.5335
 7796TIP3    H223353   3.616   5.462   1.478  0.4352 -0.7633  2.4912
 7797TIP3   OH223354   4.324   0.324   0.903  0.0535  0.5033  0.0761
 7797TIP3    H123355   4.239   0.295   0.871 -1.2374  1.5256  2.3239
 7797TIP3    H223356   4.324   0.419   0.890  2.0528  0.2739 -2.3732
 7798TIP3   OH223357   0.746   2.056   4.601  0.2181 -0.0716 -0.0212
 7798TIP3    H123358   0.668   2.053   4.657 -0.5962 -0.3095 -1.1268
 7798TIP3    H223359   0.770   2.149   4.598 -1.0112  0.2556 -0.9340
 7799TIP3   OH223360   1.278   2.979   1.214 -0.9032  0.1978  0.1413
 7799TIP3    H123361   1.241   2.913   1.273 -0.4797 -0.0619  0.1193
 7799TIP3    H223362   1.213   2.986   1.144 -1.9556  1.3314  1.1922
 7800TIP3   OH223363   3.924   2.656   4.787  0.1997  0.5977  0.3354
 7800TIP3    H123364   3.830   2.643   4.777  0.1249  1.5419 -0.2709
 7800TIP3    H223365   3.962   2.616   4.709  0.4889 -1.4707  1.4529
 7801TIP3   OH223366   6.605   4.871   3.387 -0.7766 -0.2527 -0.6097
 7801TIP3    H123367   6.540   4.881   3.317  1.6416 -1.1694 -3.1667
 7801TIP3    H223368   6.660   4.949   3.381 -0.5673 -0.3072  0.3616
 7802TIP3   OH223369   2.808   6.745   3.749  0.6155  0.0119 -0.3949
 7802TIP3    H123370   2.732   6.740   3.808  0.3017  0.5732 -0.7439
 7802TIP3    H223371   2.839   6.655   3.743  0.6329 -0.0660  0.5991
 7803TIP3   OH223372   4.745   4.933   0.585  0.4270  0.2411  0.2069
 7803TIP3    H123373   4.792   4.938   0.501 -0.5310  2.4935 -0.2597
 7803TIP3    H223374   4.809   4.964   0.649  0.4015  0.8972 -0.0717
 7804TIP3   OH223375   0.973   1.664   3.424 -0.1145 -0.7161 -1.1045
 7804TIP3    H123376   0.894   1.689   3.377 -0.7379  0.4394  0.4631
 7804TIP3    H223377   1.044   1.705   3.376 -0.7830  0.9454 -0.7236
 7805TIP3   OH223378   5.337   5.482   2.639  0.1210 -0.1795  0.1485
 7805TIP3    H123379   5.302   5.436   2.716  0.7052  0.6016  0.8873
 7805TIP3    H223380   5.267   5.542   2.614 -0.1904 -0.6478 -0.1274
 7806TIP3   OH223381   1.039   6.192   5.736 -0.2895 -0.0710  0.1264
 7806TIP3    H123382   1.017   6.283   5.755 -0.8074  0.0049 -0.8161
 7806TIP3    H223383   0.957   6.152   5.709  0.5165  0.0510 -2.8199
 7807TIP3   OH223384   2.273   4.334   4.357  0.1588  0.2021 -0.2493
 7807TIP3    H123385   2.209   4.374   4.297  2.8737  0.3411 -3.3722
 7807TIP3    H223386   2.270   4.241   4.336  1.7959  0.3685 -1.4770
 7808TIP3   OH223387   2.167   0.409   2.342  0.0925  0.2579 -0.1619
 7808TIP3    H123388   2.246   0.367   2.307  0.6396  1.0902  0.0379
 7808TIP3    H223389   2.194   0.442   2.428 -1.0453 -1.1775  0.7965
 7809TIP3   OH223390   5.179   2.533   5.721  0.5876 -0.0481  0.1196
 7809TIP3    H123391   5.207   2.466   5.782  1.4882  1.7009  1.7231
 7809TIP3    H223392   5.257   2.553   5.669  0.4314  0.0124 -0.0938
 7810TIP3   OH223393   4.232   3.808   1.786 -0.8258  0.0329 -0.0543
 7810TIP3    H123394   4.266   3.883   1.738 -0.8909 -0.0199 -0.1814
 7810TIP3    H223395   4.307   3.748   1.793  0.1316  1.3727  2.6510
 7811TIP3   OH223396   5.678   1.182   0.294  0.5012 -0.1718 -0.1350
 7811TIP3    H123397   5.645   1.119   0.230  1.0110 -1.1053  0.4932
 7811TIP3    H223398   5.732   1.129   0.354  1.0980  0.8939  0.2947
 7812TIP3   OH223399   3.886   1.991   5.465  0.9161  0.1277  0.3655
 7812TIP3    H123400   3.836   2.069   5.485 -1.2944 -0.5285 -2.0575
 7812TIP3    H223401   3.865   1.930   5.535 -1.4625  0.0320 -0.3480
 7813TIP3   OH223402   2.128   6.482   2.132 -0.2427 -0.0101 -0.6494
 7813TIP3    H123403   2.215   6.520   2.145 -0.5423  0.3778  0.3656
 7813TIP3    H223404   2.106   6.502   2.041  0.8789 -0.4544 -1.0345
 7814TIP3   OH223405   1.032   4.602   5.816  0.0138 -0.0566 -0.1565
 7814TIP3    H123406   1.045   4.597   5.722  1.5085 -0.2553  0.0290
 7814TIP3    H223407   1.011   4.513   5.842 -0.8854  0.0923 -0.3556
 7815TIP3   OH223408   2.520   4.112   4.279 -0.0236  0.1426  0.2881
 7815TIP3    H123409   2.451   4.047   4.264  0.2152  0.2313 -1.4241
 7815TIP3    H223410   2.522   4.164   4.198  0.9128  1.2287  0.9699
 7816TIP3   OH223411   1.783   6.070   2.276  0.5145  0.9376  0.0935
 7816TIP3    H123412   1.828   6.154   2.267 -0.5182  1.4231 -0.6950
 7816TIP3    H223413   1.851   6.004   2.261  1.2847  1.6258  0.5159
 7817TIP3   OH223414   4.957   3.936   2.678  0.2925 -0.4913  0.0702
 7817TIP3    H123415   4.890   3.993   2.639  0.0286 -1.8247 -1.5020
 7817TIP3    H223416   4.906   3.871   2.727  0.5470 -0.2335  0.6929
 7818TIP3   OH223417   5.793   1.144   1.934  0.1133 -0.3464 -0.0111
 7818TIP3    H123418   5.888   1.153   1.948  0.4826 -1.8238 -1.2801
 7818TIP3    H223419   5.768   1.069   1.989 -0.5220  0.5742  0.9984
 7819TIP3   OH223420   3.706   0.659   5.417 -0.6962  0.2040 -0.6429
 7819TIP3    H123421   3.683   0.685   5.506 -0.6576  1.0354 -0.8604
 7819TIP3    H223422   3.686   0.566   5.413  0.2358 -0.0773  0.5374
 7820TIP3   OH223423   1.824   4.047   5.131  0.4473 -0.6078  0.4893
 7820TIP3    H123424   1.785   3.973   5.085  0.3448 -0.2428 -0.0241
 7820TIP3    H223425   1.918   4.027   5.134  0.2156 -1.6106  1.9561
 7821TIP3   OH223426   6.026   4.333   5.077 -0.4158 -0.2603  0.2210
 7821TIP3    H123427   6.039   4.305   4.987  1.0184 -1.8328  0.8482
 7821TIP3    H223428   5.941   4.298   5.102  0.2629 -2.0470  0.1976
 7822TIP3   OH223429   0.122   4.741   4.848  0.3893 -0.0726 -0.1322
 7822TIP3    H123430   0.126   4.669   4.910 -0.4748  1.7720  2.2206
 7822TIP3    H223431   0.030   4.743   4.819  0.1452  0.6987  0.6516
 7823TIP3   OH223432   1.680   2.710   3.407 -0.7203 -0.3279  0.8948
 7823TIP3    H123433   1.731   2.788   3.388 -0.3186 -0.8417 -0.2236
 7823TIP3    H223434   1.592   2.731   3.378 -0.6989 -0.1461  0.9610
 7824TIP3   OH223435   2.179   0.135   3.862 -0.6768  0.3680 -0.4904
 7824TIP3    H123436   2.096   0.113   3.905  0.4118  0.0544  1.6191
 7824TIP3    H223437   2.241   0.146   3.935  1.0736  0.8451 -1.9816
 7825TIP3   OH223438   1.328   4.416   5.278 -0.3981 -0.3587 -0.1171
 7825TIP3    H123439   1.362   4.366   5.204 -0.1814  0.0015 -0.2626
 7825TIP3    H223440   1.250   4.459   5.245 -0.5898 -0.6032  0.0114
 7826TIP3   OH223441   5.274   5.991   0.705  0.0850  0.0671 -0.1342
 7826TIP3    H123442   5.210   6.017   0.639  2.1362  0.9897 -1.8665
 7826TIP3    H223443   5.254   6.046   0.781 -1.6296 -0.2390 -0.3226
 7827TIP3   OH223444   2.049   4.348   1.961  0.0265 -0.3049  0.6928
 7827TIP3    H123445   2.112   4.278   1.978 -0.6274 -0.5172  2.5297
 7827TIP3    H223446   2.097   4.413   1.910  1.6875 -0.5256  1.8873
 7828TIP3   OH223447   6.021   1.634   5.576  0.4282  0.0698  0.4852
 7828TIP3    H123448   5.960   1.659   5.506  0.4903 -2.6026 -0.6651
 7828TIP3    H223449   5.967   1.584   5.638  0.3346  2.5720  2.5830
 7829TIP3   OH223450   0.158   5.519   5.529 -0.0454  0.0479 -0.2946
 7829TIP3    H123451   0.218   5.469   5.473 -2.0065 -1.5161 -1.1287
 7829TIP3    H223452   0.144   5.462   5.605 -1.7996 -0.4568 -0.9440
 7830TIP3   OH223453   4.418   5.845   3.834 -0.5578 -0.1191  0.4791
 7830TIP3    H123454   4.445   5.924   3.880 -4.1662  1.1070  0.8002
 7830TIP3    H223455   4.383   5.788   3.902 -0.8581 -0.6627 -0.1239
 7831TIP3   OH223456   1.363   4.225   4.256  0.3990  0.4568  0.5062
 7831TIP3    H123457   1.322   4.310   4.274  1.5227  0.8780  1.1350
 7831TIP3    H223458   1.354   4.176   4.338  0.4053  0.2314  0.3737
 7832TIP3   OH223459   6.002   5.915   3.308  0.3070 -0.5002  0.2380
 7832TIP3    H123460   6.049   5.987   3.267 -0.1492 -1.1138 -1.4562
 7832TIP3    H223461   6.011   5.930   3.402  2.1228  0.5097 -0.0668
 7833TIP3   OH223462   3.722   1.515   2.465  0.1236  0.2786  0.3476
 7833TIP3    H123463   3.689   1.598   2.429 -0.9570 -0.3301 -0.0910
 7833TIP3    H223464   3.667   1.498   2.541 -0.6337 -0.7527 -0.4031
 7834TIP3   OH223465   2.793   1.449   0.232  0.8169 -0.2766  0.4605
 7834TIP3    H123466   2.765   1.496   0.154 -0.0547 -1.9734 -0.3207
 7834TIP3    H223467   2.859   1.505   0.272 -1.0855  2.1866  0.3378
 7835TIP3   OH223468   2.690   0.028   1.777 -0.0135  0.5987 -0.3736
 7835TIP3    H123469   2.653   0.115   1.789  0.4237  0.6816  0.4882
 7835TIP3    H223470   2.623  -0.032   1.810 -1.0238  0.4744 -2.5243
 7836TIP3   OH223471   0.583   1.280   3.813  0.8554 -0.5442  0.0454
 7836TIP3    H123472   0.676   1.300   3.816  0.5769  1.0185 -0.7005
 7836TIP3    H223473   0.556   1.301   3.723 -0.5403  0.6869  0.7068
 7837TIP3   OH223474   7.096   4.969   2.740  0.4915 -0.3260  0.4766
 7837TIP3    H123475   7.135   5.054   2.722 -1.5568  0.1494 -2.3235
 7837TIP3    H223476   7.035   4.985   2.812 -0.1235  0.6792 -0.2478
 7838TIP3   OH223477   0.142   2.951   3.405 -0.1339 -0.1222  0.1641
 7838TIP3    H123478   0.109   2.876   3.356 -1.4079  0.9935 -0.8095
 7838TIP3    H223479   0.148   3.021   3.339  1.2055  0.5710  0.9926
 7839TIP3   OH223480   5.162   4.119   0.199  0.2541  0.6043  0.6910
 7839TIP3    H123481   5.251   4.085   0.206  0.7868  1.9399  0.8094
 7839TIP3    H223482   5.173   4.205   0.157 -1.0848  0.3368 -0.2742
 7840TIP3   OH223483   5.889   5.812   4.051  0.3503 -0.1694  0.0500
 7840TIP3    H123484   5.795   5.828   4.047  0.4178  0.0493 -1.2670
 7840TIP3    H223485   5.911   5.775   3.965  1.7545  1.4679 -0.3537
 7841TIP3   OH223486   3.319   3.442   3.590  0.0938 -0.5258  0.0515
 7841TIP3    H123487   3.399   3.494   3.588 -0.1612 -0.0903  0.9824
 7841TIP3    H223488   3.258   3.490   3.534 -0.1628  0.2171  0.9647
 7842TIP3   OH223489   5.040   0.937   0.171  0.2003 -0.0217  0.0312
 7842TIP3    H123490   5.085   0.918   0.253 -0.6227 -0.8937  0.2915
 7842TIP3    H223491   5.084   0.882   0.106  0.3474  0.1004  0.0245
 7843TIP3   OH223492   0.762   0.558   4.356 -0.0499  0.1099 -0.6598
 7843TIP3    H123493   0.757   0.505   4.276 -1.4833 -1.2015  0.2339
 7843TIP3    H223494   0.671   0.576   4.379  0.3854  1.8355 -0.1636
 7844TIP3   OH223495   6.332   6.179   5.386 -0.5211  0.1455  0.4343
 7844TIP3    H123496   6.244   6.214   5.374 -0.8661 -0.1390  1.9704
 7844TIP3    H223497   6.387   6.257   5.395 -0.5043  0.3360 -0.9978
 7845TIP3   OH223498   5.755   4.583   4.286  0.3160  0.0602 -0.0101
 7845TIP3    H123499   5.844   4.573   4.252 -0.2622 -0.9117 -1.3205
 7845TIP3    H223500   5.767   4.598   4.380  1.8983  1.0766 -0.3408
 7846TIP3   OH223501   0.764   3.553   0.296 -0.0365  0.1951 -0.4642
 7846TIP3    H123502   0.781   3.525   0.386 -1.2756 -1.9467 -0.8043
 7846TIP3    H223503   0.823   3.499   0.243 -2.4294 -1.9531 -1.1467
 7847TIP3   OH223504   4.821   5.823   4.719 -0.0019 -0.1862  0.4854
 7847TIP3    H123505   4.901   5.771   4.732  0.7714  0.5343 -1.0885
 7847TIP3    H223506   4.750   5.759   4.723  0.7972 -1.1147  0.2630
 7848TIP3   OH223507   6.763   1.242   2.627  0.0959 -0.2847 -0.8512
 7848TIP3    H123508   6.715   1.160   2.614  0.3174 -0.6960  0.6978
 7848TIP3    H223509   6.710   1.291   2.690  1.3944 -0.5185  0.4726
 7849TIP3   OH223510   6.672   3.796   0.171  0.5576  0.4631  0.4122
 7849TIP3    H123511   6.729   3.775   0.244  0.4091 -2.1187 -0.1205
 7849TIP3    H223512   6.699   3.736   0.101 -2.1053 -0.1563 -0.1974
 7850TIP3   OH223513   0.265   1.916   2.665  0.3422 -0.7393  0.2485
 7850TIP3    H123514   0.298   1.904   2.576  0.1198 -1.5814  0.2688
 7850TIP3    H223515   0.338   1.892   2.721  0.5914  0.1087  0.3092
 7851TIP3   OH223516   3.532   0.253   3.881 -0.1946  1.0658 -0.5174
 7851TIP3    H123517   3.568   0.336   3.911 -1.5573  0.9018  1.8107
 7851TIP3    H223518   3.576   0.237   3.797  2.2761  2.6634  0.3551
 7852TIP3   OH223519   0.137   0.750   3.900  0.4016 -0.2329  0.1303
 7852TIP3    H123520   0.218   0.758   3.850  0.6977 -3.0993 -0.0099
 7852TIP3    H223521   0.081   0.695   3.846 -0.4795 -0.8098  1.5747
 7853TIP3   OH223522   2.313   1.646   3.670 -0.0579 -0.7944  0.4530
 7853TIP3    H123523   2.342   1.624   3.758  0.3970  1.1763  0.8509
 7853TIP3    H223524   2.327   1.741   3.663 -2.0597 -0.5263 -0.9806
 7854TIP3   OH223525   4.782   1.274   0.896  0.0452 -0.4789  0.7546
 7854TIP3    H123526   4.777   1.359   0.852 -0.5178 -1.9178 -2.2128
 7854TIP3    H223527   4.812   1.214   0.828  0.5013 -2.6783  2.7803
 7855TIP3   OH223528   1.746   6.242   0.023 -0.0737  0.5963 -0.1621
 7855TIP3    H123529   1.700   6.264   0.104 -0.6059  1.1348 -0.6057
 7855TIP3    H223530   1.696   6.285  -0.046 -0.0379 -0.4516 -0.8640
 7856TIP3   OH223531   5.912   5.067   2.959 -0.0045  0.6346  0.3325
 7856TIP3    H123532   5.843   5.054   3.023  0.6269 -0.8754  0.7339
 7856TIP3    H223533   5.983   5.107   3.009  1.5830 -3.0812  1.3947
 7857TIP3   OH223534   2.618   6.678   3.993  0.4941  0.6359 -0.6609
 7857TIP3    H123535   2.651   6.767   3.998 -0.1229  0.8141  0.5689
 7857TIP3    H223536   2.523   6.688   3.985  0.1722  0.1239  1.7301
 7858TIP3   OH223537   2.223   2.209   2.685  0.2951 -0.5900  0.3901
 7858TIP3    H123538   2.162   2.248   2.748 -0.2557 -1.9214  0.6943
 7858TIP3    H223539   2.241   2.280   2.623 -1.2125 -0.0383  0.5436
 7859TIP3   OH223540   6.789   0.736   0.144  0.0692  0.2184 -0.1874
 7859TIP3    H123541   6.768   0.659   0.197 -1.5952  0.6912 -0.0914
 7859TIP3    H223542   6.836   0.701   0.068  2.4888 -0.4771  1.5148
 7860TIP3   OH223543   4.212   1.749   2.842  0.3300 -0.0023 -0.2425
 7860TIP3    H123544   4.253   1.674   2.884 -0.8783 -1.2714 -1.2332
 7860TIP3    H223545   4.193   1.810   2.914  1.5001 -0.5459  0.5491
 7861TIP3   OH223546   2.799   1.649   5.681  0.1643 -0.3473 -0.0896
 7861TIP3    H123547   2.851   1.638   5.761  0.8530  3.6335  0.2140
 7861TIP3    H223548   2.864   1.645   5.610  0.3741  0.9387  0.0022
 7862TIP3   OH223549   0.027   5.749   1.921 -0.3380  0.3846  0.0402
 7862TIP3    H123550   0.029   5.815   1.852 -0.5668  0.1921 -0.1521
 7862TIP3    H223551   0.096   5.776   1.982 -0.8201  1.1192  0.2681
 7863TIP3   OH223552   4.492   6.165   4.255 -0.0766  0.1383  0.7122
 7863TIP3    H123553   4.480   6.227   4.327  2.3349 -0.1862  1.4918
 7863TIP3    H223554   4.521   6.219   4.181  2.4915  0.0403  1.5221
 7864TIP3   OH223555   2.046   0.849   4.436  0.1759 -0.1468 -0.0297
 7864TIP3    H123556   1.998   0.807   4.364 -0.1551 -1.9847  1.1858
 7864TIP3    H223557   2.021   0.941   4.430 -0.0364 -0.2799 -2.0876
 7865TIP3   OH223558   4.350   5.080   5.585  1.2503  0.6334 -0.3883
 7865TIP3    H123559   4.388   5.051   5.502  1.2126  0.4333 -0.3351
 7865TIP3    H223560   4.368   5.174   5.587  2.1897  0.4590 -0.1261
 7866TIP3   OH223561   7.181   1.427   5.020  0.4932 -0.3474  0.7906
 7866TIP3    H123562   7.271   1.416   5.051  0.4651 -0.0899  0.9685
 7866TIP3    H223563   7.133   1.355   5.061  0.8702 -1.2948 -0.3679
 7867TIP3   OH223564   0.811   6.316   2.272 -0.0993 -0.0884 -0.0664
 7867TIP3    H123565   0.860   6.333   2.192 -0.5396 -0.1133 -0.3435
 7867TIP3    H223566   0.720   6.308   2.243 -0.0336 -2.0343  0.1826
 7868TIP3   OH223567   7.007   0.123   5.836 -0.1399  0.3703  0.2742
 7868TIP3    H123568   7.050   0.089   5.757 -0.8823  0.1697 -0.0487
 7868TIP3    H223569   7.075   0.120   5.903  0.5576  0.7095 -0.3955
 7869TIP3   OH223570   5.602   5.541   4.701 -0.1280 -0.3082 -0.2125
 7869TIP3    H123571   5.588   5.452   4.735  0.0480 -0.8721 -1.5462
 7869TIP3    H223572   5.558   5.541   4.616 -1.8553  1.5274  0.6045
 7870TIP3   OH223573   5.188   2.656   3.192 -0.6726 -0.2972 -0.2845
 7870TIP3    H123574   5.273   2.657   3.149  0.1615 -3.0775  1.0710
 7870TIP3    H223575   5.133   2.713   3.138  1.2189 -0.7656 -2.8962
 7871TIP3   OH223576   6.187   3.122   5.351  0.3318  0.5984  0.2510
 7871TIP3    H123577   6.174   3.028   5.341  2.1053  0.2697  0.7259
 7871TIP3    H223578   6.112   3.161   5.306  0.5261 -1.0080 -1.6015
 7872TIP3   OH223579   0.874   3.925   0.616 -0.7304 -0.5504  0.0895
 7872TIP3    H123580   0.969   3.938   0.613 -0.7915  1.5396  2.6807
 7872TIP3    H223581   0.862   3.857   0.683 -1.0712 -2.0809 -1.4575
 7873TIP3   OH223582   0.237   1.183   3.311  0.5954 -0.1229 -0.6578
 7873TIP3    H123583   0.325   1.160   3.279  0.9122 -1.9322  1.3235
 7873TIP3    H223584   0.181   1.112   3.280  0.2309 -0.0352 -0.2095
 7874TIP3   OH223585   6.039   1.295   2.826 -0.0950  0.3236 -0.3319
 7874TIP3    H123586   5.970   1.361   2.822 -1.9302 -1.5028 -0.7405
 7874TIP3    H223587   6.033   1.260   2.915  1.1130  0.9184  0.0025
 7875TIP3   OH223588   3.186   6.202   3.293 -0.4492  0.1690 -0.1820
 7875TIP3    H123589   3.121   6.272   3.297 -0.4359  0.1493  0.3842
 7875TIP3    H223590   3.141   6.131   3.247 -0.4690  0.5369 -0.7400
 7876TIP3   OH223591   0.785   2.922   0.745 -0.3027  0.0518  0.5514
 7876TIP3    H123592   0.767   2.846   0.800  1.5581 -0.4695  0.4995
 7876TIP3    H223593   0.848   2.891   0.680  0.3560  1.5716  0.4120
 7877TIP3   OH223594   3.385   2.126   4.024  0.0199 -0.4262  0.1845
 7877TIP3    H123595   3.453   2.150   4.087  0.9293  0.1037 -0.9861
 7877TIP3    H223596   3.432   2.089   3.950 -0.8425  1.1793 -1.2181
 7878TIP3   OH223597   0.249   6.443   4.647  0.1320  0.7888  0.4301
 7878TIP3    H123598   0.334   6.404   4.627 -0.6375 -0.9300  0.4052
 7878TIP3    H223599   0.195   6.371   4.677 -1.9774  1.4183 -1.5599
 7879TIP3   OH223600   4.112   1.725   1.741  0.3268  0.1579 -0.7118
 7879TIP3    H123601   4.124   1.814   1.708  0.6461  0.4239  0.1038
 7879TIP3    H223602   4.188   1.708   1.795  0.2241 -0.5880 -0.7790
 7880TIP3   OH223603   2.658   4.326   2.529 -0.2641  0.2397 -0.0703
 7880TIP3    H123604   2.681   4.294   2.442 -0.6874  0.0306 -0.1084
 7880TIP3    H223605   2.741   4.331   2.576 -0.0659  0.1136 -0.4052
 7881TIP3   OH223606   1.814   1.368   2.288 -0.2446  0.8110 -0.0165
 7881TIP3    H123607   1.766   1.287   2.273  1.1320 -0.0479  0.0862
 7881TIP3    H223608   1.906   1.345   2.274  0.6842  1.2590  4.0718
 7882TIP3   OH223609   0.095   2.188   0.492  0.8376  0.0986 -0.1875
 7882TIP3    H123610   0.003   2.165   0.509  0.6609  0.0910 -1.0632
 7882TIP3    H223611   0.137   2.104   0.471  1.2189  0.0045  0.9131
 7883TIP3   OH223612   0.919   3.343   3.210 -0.3393  0.0715 -0.0166
 7883TIP3    H123613   0.826   3.329   3.227 -0.7287  1.2724 -0.9933
 7883TIP3    H223614   0.954   3.254   3.198 -0.9005 -0.5440  2.3301
 7884TIP3   OH223615   6.891   4.412   2.489 -0.2533  0.0913 -0.3072
 7884TIP3    H123616   6.904   4.502   2.521  0.7226 -0.1429 -0.0020
 7884TIP3    H223617   6.905   4.357   2.566  1.5881 -0.4450 -0.9559
 7885TIP3   OH223618   0.169   4.448   2.046  0.5043 -0.3909 -0.0911
 7885TIP3    H123619   0.158   4.537   2.013 -0.1539 -1.0460 -1.7464
 7885TIP3    H223620   0.215   4.402   1.976  0.2918 -1.5082  0.4830
 7886TIP3   OH223621   1.897   2.814   5.717  0.6990  0.0689 -0.3035
 7886TIP3    H123622   1.980   2.775   5.744  1.5137  2.1101  0.3329
 7886TIP3    H223623   1.916   2.907   5.710 -0.9955  0.3318 -2.3151
 7887TIP3   OH223624   5.640   4.863   0.122  0.0940 -0.3528  0.2206
 7887TIP3    H123625   5.558   4.868   0.073  0.7163 -1.2232 -0.9823
 7887TIP3    H223626   5.625   4.916   0.200 -1.3298  0.1609 -0.3639
 7888TIP3   OH223627   6.198   5.864   2.062 -0.3740 -0.0332  0.2162
 7888TIP3    H123628   6.113   5.853   2.104 -1.1639  1.3937 -0.9383
 7888TIP3    H223629   6.213   5.959   2.062  1.5830 -0.2779  1.0598
 7889TIP3   OH223630   0.649   6.733   0.866 -0.2936  0.4556  0.0566
 7889TIP3    H123631   0.598   6.765   0.940 -1.2857 -1.0703  0.0840
 7889TIP3    H223632   0.731   6.703   0.905 -0.2806  0.8623  0.3451
 7890TIP3   OH223633   3.457   0.888   0.010  0.4635  0.1097 -0.0702
 7890TIP3    H123634   3.381   0.857   0.058 -0.9705 -0.4411 -2.5595
 7890TIP3    H223635   3.528   0.831   0.038 -0.1916  0.0627  1.6255
 7891TIP3   OH223636   2.723   3.947   0.831  0.3904  0.6612 -0.4336
 7891TIP3    H123637   2.775   3.867   0.820  0.3655  0.6176 -0.2394
 7891TIP3    H223638   2.675   3.933   0.913  0.0560  0.6911 -0.6207
 7892TIP3   OH223639   5.178   4.519   1.344 -0.2302 -0.2795 -0.0543
 7892TIP3    H123640   5.132   4.589   1.390 -0.0246  0.4569 -0.9531
 7892TIP3    H223641   5.265   4.553   1.328  0.8819 -1.8485  2.0622
 7893TIP3   OH223642   0.220   0.706   4.406 -0.9226 -0.4346 -0.1938
 7893TIP3    H123643   0.249   0.686   4.317 -0.0419 -1.2022  0.2515
 7893TIP3    H223644   0.188   0.623   4.441 -2.6636  0.1470 -0.2629
 7894TIP3   OH223645   1.438   0.633   4.760 -0.1861 -0.0268  0.3057
 7894TIP3    H123646   1.394   0.703   4.710 -0.8289 -1.9014 -1.9213
 7894TIP3    H223647   1.514   0.610   4.707  1.5097  0.6393  2.2995
 7895TIP3   OH223648   5.220   2.310   1.728 -0.0388  0.2901  0.1390
 7895TIP3    H123649   5.223   2.390   1.675  0.2517  0.7985  0.8988
 7895TIP3    H223650   5.265   2.333   1.809 -2.3021  0.2200  1.5213
 7896TIP3   OH223651   6.168   5.430   1.927  0.3663  0.1723 -0.1773
 7896TIP3    H123652   6.216   5.509   1.902  1.0439 -0.3695 -0.6217
 7896TIP3    H223653   6.236   5.366   1.948 -0.1730 -0.3293  0.0747
 7897TIP3   OH223654   6.629   3.458   4.921  0.3115  0.3865 -0.2255
 7897TIP3    H123655   6.700   3.409   4.879  0.6157  0.4559  0.1967
 7897TIP3    H223656   6.584   3.394   4.975 -0.7543  0.0530 -1.4765
 7898TIP3   OH223657   0.507   4.499   2.654  0.5175 -0.1532  0.3851
 7898TIP3    H123658   0.534   4.582   2.692 -0.8919 -0.1712  1.5195
 7898TIP3    H223659   0.462   4.523   2.573 -0.5506  0.2750  1.0852
 7899TIP3   OH223660   5.036   0.338   3.434  0.2864 -0.4332 -0.0070
 7899TIP3    H123661   5.040   0.432   3.451  1.0302 -0.3321 -0.6876
 7899TIP3    H223662   5.044   0.297   3.521 -0.0484  0.1167  0.2915
 7900TIP3   OH223663   0.225   2.454   0.812 -0.7275 -0.4114  0.1874
 7900TIP3    H123664   0.179   2.381   0.854 -0.0435 -1.3980 -0.7262
 7900TIP3    H223665   0.168   2.480   0.740 -0.0989 -1.3545 -0.6830
 7901TIP3   OH223666   2.315   6.332   4.882 -0.1670 -0.0355  0.3932
 7901TIP3    H123667   2.392   6.383   4.909 -2.5107  3.0261  2.0540
 7901TIP3    H223668   2.289   6.284   4.961 -0.1427 -0.8216 -0.0697
 7902TIP3   OH223669   5.946   6.747  -0.021  0.1596  0.0086 -0.1665
 7902TIP3    H123670   5.909   6.698   0.053 -1.0838  0.6573 -0.3427
 7902TIP3    H223671   5.986   6.824   0.020 -1.1717  0.7472 -0.2088
 7903TIP3   OH223672   0.033   2.692   1.889  0.0771 -0.3650  1.0040
 7903TIP3    H123673   0.036   2.637   1.810  0.7205 -0.7054  1.2607
 7903TIP3    H223674   0.035   2.782   1.855  1.3011 -0.5074  0.6533
 7904TIP3   OH223675   1.996   6.449   0.429 -0.3113 -0.6942 -0.5571
 7904TIP3    H123676   2.085   6.483   0.424 -0.5012  0.0827  0.7070
 7904TIP3    H223677   1.984   6.399   0.349  1.9974 -2.6207  0.1838
 7905TIP3   OH223678   5.877   5.528   0.160 -0.2432  0.3775  0.0439
 7905TIP3    H123679   5.877   5.624   0.157 -1.7290  0.7461  4.5099
 7905TIP3    H223680   5.964   5.505   0.192 -0.3816  0.3647  0.4132
 7906TIP3   OH223681   0.925   3.748   1.905 -0.0437  0.0465 -0.4922
 7906TIP3    H123682   0.880   3.805   1.843  0.0032 -1.4763 -1.9998
 7906TIP3    H223683   0.870   3.751   1.983 -1.0242  0.7202 -1.1748
 7907TIP3   OH223684   4.363   4.704   5.295 -0.3905  0.1011  0.5309
 7907TIP3    H123685   4.413   4.638   5.247 -0.9825 -0.1128  0.2031
 7907TIP3    H223686   4.272   4.687   5.271 -0.7354 -0.2437  2.0042
 7908TIP3   OH223687   1.522   5.979   2.388  0.5856 -0.5890  0.3816
 7908TIP3    H123688   1.501   6.023   2.306 -0.2308 -0.0797  0.8439
 7908TIP3    H223689   1.598   5.924   2.368  0.8144  0.0445 -0.5368
 7909TIP3   OH223690   4.542   5.071   0.039  0.3461 -0.2197  0.5993
 7909TIP3    H123691   4.471   5.024  -0.005  0.7847 -1.0678  0.7741
 7909TIP3    H223692   4.542   5.158  -0.001 -1.0224 -0.0838  0.8534
 7910TIP3   OH223693   0.842   0.430   0.969  0.1508 -0.5474  0.2621
 7910TIP3    H123694   0.827   0.503   1.029  0.3453 -1.5328  1.5500
 7910TIP3    H223695   0.912   0.461   0.911  0.5547  0.1226  1.0857
 7911TIP3   OH223696   2.283   3.684   0.343 -0.5824 -0.0276 -0.3692
 7911TIP3    H123697   2.309   3.643   0.426  0.3143  0.4306 -0.4081
 7911TIP3    H223698   2.344   3.647   0.278 -0.6741  0.3096 -0.6519
 7912TIP3   OH223699   1.724   1.871   2.079 -0.1185 -0.1809  0.1141
 7912TIP3    H123700   1.697   1.788   2.041  0.8430  0.0618 -1.1444
 7912TIP3    H223701   1.765   1.847   2.162 -1.2554 -0.8095  0.5139
 7913TIP3   OH223702   1.312   1.749   3.802  0.1082 -0.2174 -0.0248
 7913TIP3    H123703   1.223   1.717   3.817 -0.3204  1.2045  0.6450
 7913TIP3    H223704   1.328   1.810   3.874  1.6400 -0.4472 -0.1317
 7914TIP3   OH223705   1.933   4.586   3.322 -0.2487  0.2556  0.2743
 7914TIP3    H123706   1.896   4.672   3.304 -0.7128 -0.0947 -0.4609
 7914TIP3    H223707   1.882   4.525   3.269 -0.8709 -0.6747  1.8498
 7915TIP3   OH223708   5.294   0.094   2.300 -0.2547  0.3813  0.4664
 7915TIP3    H123709   5.308   0.062   2.389 -2.8967  2.1064  1.5952
 7915TIP3    H223710   5.206   0.064   2.277  0.5767 -0.5399 -1.8736
 7916TIP3   OH223711   7.165   0.764   3.385  0.3721 -0.1832 -0.1788
 7916TIP3    H123712   7.086   0.809   3.415  0.7058  0.5996 -0.4622
 7916TIP3    H223713   7.178   0.694   3.449 -1.1271 -0.9674 -0.6887
 7917TIP3   OH223714   5.009   1.592   2.485 -0.4221 -0.3658 -0.2446
 7917TIP3    H123715   5.007   1.503   2.522 -0.6708  0.3530  1.5702
 7917TIP3    H223716   5.100   1.604   2.458 -0.0309 -0.6313  0.9198
 7918TIP3   OH223717   4.461   1.044   2.785 -0.6867  0.0228 -0.4817
 7918TIP3    H123718   4.510   1.101   2.844  1.4049  0.8032 -2.7993
 7918TIP3    H223719   4.527   0.986   2.747 -1.7663  0.0714 -2.5968
 7919TIP3   OH223720   6.022   3.481   3.472 -0.2797  0.1408 -0.2442
 7919TIP3    H123721   6.035   3.543   3.544 -1.2041 -0.0786  0.1264
 7919TIP3    H223722   5.931   3.452   3.481 -1.0755  1.5897 -2.6723
 7920TIP3   OH223723   3.637   0.549   2.656  0.3796  0.1119  0.5098
 7920TIP3    H123724   3.720   0.521   2.693 -0.8181 -1.6872  2.0171
 7920TIP3    H223725   3.661   0.604   2.582  2.8896 -0.0561  1.1218
 7921TIP3   OH223726   1.240   2.722   3.579 -0.1964  0.2665  0.1732
 7921TIP3    H123727   1.270   2.713   3.488 -0.2939  0.0469  0.1627
 7921TIP3    H223728   1.146   2.705   3.575  0.0448 -1.3087  0.5431
 7922TIP3   OH223729   3.451   3.203   5.439 -1.0254 -0.2367 -0.5889
 7922TIP3    H123730   3.415   3.253   5.512  1.7354 -0.8088  1.3460
 7922TIP3    H223731   3.502   3.266   5.389  1.0068 -0.6250  0.8437
 7923TIP3   OH223732   6.577   3.558   2.596 -0.3426 -0.1652 -0.3296
 7923TIP3    H123733   6.607   3.554   2.505 -1.5708 -0.5793 -0.7316
 7923TIP3    H223734   6.597   3.648   2.623 -2.9651  1.0695 -2.1130
 7924TIP3   OH223735   1.277   3.479   4.493 -0.5097 -0.4329 -0.1162
 7924TIP3    H123736   1.276   3.452   4.401 -0.5358 -0.5854 -0.0720
 7924TIP3    H223737   1.370   3.494   4.512 -0.4477 -0.8886 -0.0303
 7925TIP3   OH223738   2.685   6.832   2.549  0.0209 -0.0903 -0.1892
 7925TIP3    H123739   2.628   6.778   2.494 -1.4445  1.1153  0.0627
 7925TIP3    H223740   2.736   6.770   2.600 -1.5967 -1.2539  0.0937
 7926TIP3   OH223741   4.617   5.922   4.276  0.1425  0.9677  0.1601
 7926TIP3    H123742   4.556   5.996   4.283 -0.4527  0.3902  1.5004
 7926TIP3    H223743   4.679   5.936   4.349  0.5046  0.5659 -0.0687
 7927TIP3   OH223744   3.896   5.797   0.292  0.5670  0.3325 -0.3336
 7927TIP3    H123745   3.975   5.825   0.338 -0.9526  0.2383  2.5616
 7927TIP3    H223746   3.876   5.869   0.232  1.0646  1.9052  1.2966
 7928TIP3   OH223747   1.256   0.128   0.805  0.0376  0.0150 -0.1286
 7928TIP3    H123748   1.225   0.112   0.716 -3.2148  1.7566  0.5613
 7928TIP3    H223749   1.322   0.197   0.795 -0.0880 -0.0030 -1.1916
 7929TIP3   OH223750   6.700   3.730   3.975  0.1605  0.2256 -0.2106
 7929TIP3    H123751   6.757   3.659   4.005 -2.0272 -1.2278  0.7781
 7929TIP3    H223752   6.692   3.716   3.881  1.2543  0.3554 -0.3420
 7930TIP3   OH223753   1.999   4.550   4.197  0.4683  0.0423  0.1501
 7930TIP3    H123754   1.970   4.544   4.288 -1.1907 -0.3820 -0.3629
 7930TIP3    H223755   1.919   4.539   4.146  1.7247 -2.8182 -1.4487
 7931TIP3   OH223756   6.761   5.364   0.333 -0.2776  0.2910 -0.1864
 7931TIP3    H123757   6.802   5.423   0.270 -0.9530 -1.7934 -2.7363
 7931TIP3    H223758   6.810   5.282   0.325 -1.1247 -0.3825  1.1614
 7932TIP3   OH223759   7.196   0.733   4.790  0.5606 -0.6859  0.3952
 7932TIP3    H123760   7.203   0.678   4.712 -0.7535 -0.5899  0.1773
 7932TIP3    H223761   7.156   0.676   4.856  0.5764 -0.4257  0.6315
 7933TIP3   OH223762   6.626   5.341   1.238  0.1617 -0.2776  0.0107
 7933TIP3    H123763   6.575   5.360   1.159 -1.9872 -3.4642  0.4262
 7933TIP3    H223764   6.579   5.387   1.308  0.9645  1.0105 -0.2717
 7934TIP3   OH223765   0.722   4.866   1.075  0.4223  0.5029  0.3697
 7934TIP3    H123766   0.660   4.809   1.120 -0.8605  2.9581  1.9395
 7934TIP3    H223767   0.808   4.829   1.096 -0.3617 -1.1527  0.8061
 7935TIP3   OH223768   4.697   2.069   0.434 -0.9275 -0.6573  0.5811
 7935TIP3    H123769   4.758   1.996   0.425  0.4479  0.4371  0.7552
 7935TIP3    H223770   4.630   2.053   0.367  1.0322 -0.4817 -1.5482
 7936TIP3   OH223771   0.715   1.618   4.039 -0.1889  0.2037 -0.1475
 7936TIP3    H123772   0.747   1.659   4.119 -1.4170  1.6874 -0.3734
 7936TIP3    H223773   0.730   1.683   3.971  1.0679 -1.1273 -1.2211
 7937TIP3   OH223774   3.948   5.640   1.366  0.4145 -0.1230  0.0370
 7937TIP3    H123775   3.880   5.573   1.374 -0.5605  0.6574 -1.2526
 7937TIP3    H223776   4.015   5.600   1.310 -0.1593 -0.0500 -0.7204
 7938TIP3   OH223777   7.064   3.809   4.695  1.0858  0.4253 -0.0246
 7938TIP3    H123778   7.076   3.846   4.782  1.8683 -1.2542  0.6015
 7938TIP3    H223779   7.147   3.825   4.650  0.7813  1.0356 -0.3911
 7939TIP3   OH223780   1.493   1.920   5.585  0.4445 -0.2415 -0.0607
 7939TIP3    H123781   1.471   1.876   5.667 -0.2731  0.0664 -0.0843
 7939TIP3    H223782   1.473   1.856   5.517  1.5761 -0.7043  0.0259
 7940TIP3   OH223783   4.287   3.823   3.224  0.7169  0.1148 -0.2893
 7940TIP3    H123784   4.367   3.794   3.268  0.7685  1.8368  0.8342
 7940TIP3    H223785   4.317   3.856   3.140  1.3015  1.3761  0.3961
 7941TIP3   OH223786   4.704   2.701   0.122  0.1974 -0.3249  0.2010
 7941TIP3    H123787   4.750   2.654   0.053 -0.4282 -0.0663 -0.4053
 7941TIP3    H223788   4.759   2.777   0.140 -0.0207  0.0332 -0.5877
 7942TIP3   OH223789   2.301   0.099   4.826 -0.3179 -0.2598  0.0891
 7942TIP3    H123790   2.360   0.143   4.888 -0.8796 -0.3178  0.6713
 7942TIP3    H223791   2.222   0.080   4.877 -0.0786 -2.0015 -0.1358
 7943TIP3   OH223792   2.770   4.262   3.657 -0.1173  0.0657  0.1096
 7943TIP3    H123793   2.726   4.324   3.598  1.2394  0.9978  0.0257
 7943TIP3    H223794   2.782   4.312   3.738  1.5610  0.1645 -0.1668
 7944TIP3   OH223795   4.490   0.574   4.434  0.2590  0.1848  0.3257
 7944TIP3    H123796   4.534   0.658   4.441  2.7950 -0.8928 -1.3668
 7944TIP3    H223797   4.517   0.526   4.513  1.1576 -0.0348 -0.1071
 7945TIP3   OH223798   4.678   5.060   5.243  0.0395  0.0530  0.2276
 7945TIP3    H123799   4.686   5.009   5.162 -1.6552  0.7780 -0.4554
 7945TIP3    H223800   4.607   5.018   5.291  0.4159  0.1848  0.9036
 7946TIP3   OH223801   5.144   4.831   3.286  0.2317  0.1141  0.0688
 7946TIP3    H123802   5.133   4.916   3.245 -1.6899 -1.0192 -2.0072
 7946TIP3    H223803   5.064   4.783   3.264  0.5626 -1.7408  2.4581
 7947TIP3   OH223804   1.472   5.899   4.649 -0.3818 -0.5638  0.2988
 7947TIP3    H123805   1.538   5.831   4.658  1.9468  1.5347  0.0940
 7947TIP3    H223806   1.449   5.923   4.739 -0.9069 -1.2920  0.3691
 7948TIP3   OH223807   0.571   0.891   2.447  0.1865  0.0810 -0.1206
 7948TIP3    H123808   0.628   0.815   2.436  2.0900  1.2010  1.3236
 7948TIP3    H223809   0.559   0.898   2.542 -0.8354  0.9573 -0.3017
 7949TIP3   OH223810   3.307   4.614   5.084 -0.1848  0.6195  0.8059
 7949TIP3    H123811   3.233   4.649   5.133 -1.1355 -1.5261  1.0383
 7949TIP3    H223812   3.315   4.523   5.115 -0.1360 -0.4975 -2.1865
 7950TIP3   OH223813   6.806   3.980   2.600  0.0724  0.2797  0.4864
 7950TIP3    H123814   6.833   3.896   2.636  0.1242 -0.1143 -0.4510
 7950TIP3    H223815   6.794   3.964   2.506 -2.2799  0.6962  0.6344
 7951TIP3   OH223816   6.651   2.894   0.967  0.8980  0.1076 -0.0419
 7951TIP3    H123817   6.682   2.824   0.910 -0.5807 -1.4066  0.9222
 7951TIP3    H223818   6.649   2.972   0.911 -1.3959 -1.4828 -2.4184
 7952TIP3   OH223819   7.154   1.833   1.484  0.3382  0.2399  0.2784
 7952TIP3    H123820   7.081   1.872   1.532 -0.0666  2.2421 -1.8315
 7952TIP3    H223821   7.113   1.780   1.416  0.9107 -1.0998  0.9373
 7953TIP3   OH223822   0.323   5.892   3.089  0.0787  0.7411 -0.0522
 7953TIP3    H123823   0.400   5.869   3.141 -0.1029  1.1407  0.4092
 7953TIP3    H223824   0.256   5.828   3.114  0.4440  0.0081 -0.9190
 7954TIP3   OH223825   6.669   1.330   0.436 -0.2379  0.3681  0.7005
 7954TIP3    H123826   6.637   1.253   0.389  1.2354  0.2219 -0.1272
 7954TIP3    H223827   6.590   1.372   0.470 -1.0484 -1.7505  1.5792
 7955TIP3   OH223828   3.629   3.702   4.686  0.2722 -0.0931  0.2347
 7955TIP3    H123829   3.707   3.656   4.655  0.0046 -0.9726  0.8160
 7955TIP3    H223830   3.584   3.638   4.742 -1.9861 -0.3841 -1.7609
 7956TIP3   OH223831   6.644   6.352   0.882 -0.2867  0.6574 -0.2933
 7956TIP3    H123832   6.556   6.339   0.846 -0.5760  4.0506 -1.1141
 7956TIP3    H223833   6.631   6.351   0.977 -0.5139 -2.3364 -0.2476
 7957TIP3   OH223834   4.557   3.752   2.233 -0.0930 -0.2324 -0.0715
 7957TIP3    H123835   4.581   3.810   2.161  2.8021 -0.7951  0.3137
 7957TIP3    H223836   4.483   3.795   2.276 -0.7976  0.9545 -2.3204
 7958TIP3   OH223837   4.827   3.450   2.739 -0.0921 -0.8993 -0.1143
 7958TIP3    H123838   4.859   3.361   2.729  1.2608 -0.4097 -0.4078
 7958TIP3    H223839   4.788   3.452   2.827  2.2638 -1.1151  1.0219
 7959TIP3   OH223840   3.953   0.103   0.511  0.4994  0.0991  0.2213
 7959TIP3    H123841   3.953   0.156   0.591 -1.1356  0.0127  0.3269
 7959TIP3    H223842   4.018   0.035   0.528  0.0748 -0.0164  1.5622
 7960TIP3   OH223843   2.062   0.225   4.664 -0.1643  0.4645 -0.2146
 7960TIP3    H123844   2.087   0.134   4.676  0.7579  0.1861 -3.4734
 7960TIP3    H223845   1.973   0.230   4.699 -0.1431 -1.5906  0.2543
 7961TIP3   OH223846   6.664   6.009   4.764  0.2228 -0.0987  0.5976
 7961TIP3    H123847   6.639   6.040   4.851 -1.4520  0.3998 -0.0155
 7961TIP3    H223848   6.651   6.085   4.706 -2.3636 -1.3652 -0.6650
 7962TIP3   OH223849   5.077   4.342   1.956 -0.4675  0.0696 -0.1599
 7962TIP3    H123850   5.031   4.426   1.958 -0.4113  0.1934 -2.4157
 7962TIP3    H223851   5.156   4.356   2.007 -1.0971  0.9774  0.5931
 7963TIP3   OH223852   5.509   2.181   5.003 -0.1716 -0.1897  0.1177
 7963TIP3    H123853   5.546   2.268   4.989  0.8126 -0.7537 -1.0322
 7963TIP3    H223854   5.552   2.149   5.082  0.9019 -0.3400 -0.5029
 7964TIP3   OH223855   0.315   1.162   4.188 -0.7947 -0.5383  0.1805
 7964TIP3    H123856   0.408   1.182   4.197 -0.6702 -1.7198  1.8314
 7964TIP3    H223857   0.283   1.228   4.127  1.3311 -0.7633 -1.3072
 7965TIP3   OH223858   4.560   4.579   0.259 -0.3126 -0.0748  0.5107
 7965TIP3    H123859   4.595   4.492   0.280  1.3803 -0.0780 -1.9518
 7965TIP3    H223860   4.495   4.563   0.191  2.4091  0.7067 -2.5073
 7966TIP3   OH223861   6.017   5.013   4.864 -0.2223  0.7957  0.4546
 7966TIP3    H123862   6.082   4.954   4.903 -1.1940 -0.9286 -0.4106
 7966TIP3    H223863   6.026   5.000   4.770 -3.2579 -1.2424  0.3184
 7967TIP3   OH223864   2.873   5.021   4.517 -0.5075  0.2227 -0.0922
 7967TIP3    H123865   2.900   4.974   4.438  0.8967  0.6952  0.0653
 7967TIP3    H223866   2.823   4.956   4.567 -2.0821  0.1498 -1.6736
 7968TIP3   OH223867   2.024   4.836   0.159 -0.0483  0.2403  0.2002
 7968TIP3    H123868   2.098   4.780   0.137 -0.0212  0.1418  0.5509
 7968TIP3    H223869   2.046   4.875   0.243 -0.3707  0.2525  0.2821
 7969TIP3   OH223870   0.597   3.813   3.122 -0.6899 -0.1392 -0.4482
 7969TIP3    H123871   0.673   3.819   3.064  0.1928  1.0124  0.7699
 7969TIP3    H223872   0.545   3.891   3.102 -1.2163 -0.5640 -0.7859
 7970TIP3   OH223873   6.412   4.425   2.918  0.2293  0.1801  0.3282
 7970TIP3    H123874   6.366   4.357   2.967 -1.0750  0.9421  0.2207
 7970TIP3    H223875   6.477   4.460   2.979  0.7882 -1.0314  0.4377
 7971TIP3   OH223876   4.588   2.844   4.966 -0.5111  0.6933 -0.8776
 7971TIP3    H123877   4.510   2.798   4.997  0.5348  0.4500  1.6300
 7971TIP3    H223878   4.582   2.931   5.006  1.2359  0.1576  0.6602
 7972TIP3   OH223879   1.430   4.052   2.473 -0.2418  0.0403  0.0593
 7972TIP3    H123880   1.484   3.978   2.504 -2.1212 -1.1002  0.7730
 7972TIP3    H223881   1.370   4.069   2.545  0.0540  2.2258 -0.1594
 7973TIP3   OH223882   5.725   4.807   1.944 -0.0536  0.1505  0.1686
 7973TIP3    H123883   5.735   4.886   1.891 -0.2547 -0.9100 -1.5617
 7973TIP3    H223884   5.752   4.832   2.032  2.3306  1.4831 -0.8637
 7974TIP3   OH223885   1.883   5.251   3.424  0.3533 -0.3250 -0.8065
 7974TIP3    H123886   1.885   5.335   3.470  1.3275  0.1213 -1.6102
 7974TIP3    H223887   1.946   5.197   3.472 -0.5808 -0.7641 -0.0330
 7975TIP3   OH223888   1.639   1.632   0.590  0.3651  0.0278  0.0548
 7975TIP3    H123889   1.600   1.654   0.674  0.1063  1.4837 -0.4182
 7975TIP3    H223890   1.707   1.698   0.576  2.0061 -1.5681  0.1567
 7976TIP3   OH223891   1.139   0.618   4.383  0.1995  0.0033 -0.4216
 7976TIP3    H123892   1.151   0.668   4.302 -0.0565  1.5067  0.4314
 7976TIP3    H223893   1.141   0.684   4.453  0.7662 -1.2824  0.8442
 7977TIP3   OH223894   1.126   2.002   2.236  0.6513 -0.2985 -0.1717
 7977TIP3    H123895   1.148   1.922   2.284 -0.4071 -0.0268  0.8063
 7977TIP3    H223896   1.193   2.065   2.261  1.0390 -0.6468 -0.3303
 7978TIP3   OH223897   2.450   0.370   3.306  0.1745  0.8112  0.2157
 7978TIP3    H123898   2.522   0.422   3.268 -0.3836  1.1830 -0.3649
 7978TIP3    H223899   2.381   0.376   3.240  0.0383 -0.5424  0.2217
 7979TIP3   OH223900   2.959   5.674   3.374  0.3591 -0.0543 -0.1016
 7979TIP3    H123901   2.882   5.724   3.346 -0.4324 -1.2291 -0.0868
 7979TIP3    H223902   2.930   5.625   3.451  1.0144 -0.7829 -0.3029
 7980TIP3   OH223903   1.715   6.411   0.895  0.1926  0.3594 -0.0883
 7980TIP3    H123904   1.746   6.382   0.809 -0.2288  1.5373 -0.6617
 7980TIP3    H223905   1.658   6.340   0.926  1.6281 -0.8094 -0.0295
 7981TIP3   OH223906   4.855   4.209   4.612  0.3978  0.0362  0.2059
 7981TIP3    H123907   4.885   4.221   4.702 -0.1182  1.6076  0.2039
 7981TIP3    H223908   4.903   4.276   4.562  0.7930 -0.9121 -0.7213
 7982TIP3   OH223909   4.272   2.575   4.087 -0.2729  0.2557  0.7118
 7982TIP3    H123910   4.183   2.553   4.061 -0.1786  1.1666 -0.4790
 7982TIP3    H223911   4.286   2.528   4.169 -1.1857 -1.4236 -0.0424
 7983TIP3   OH223912   6.242   1.279   2.003  0.4842  0.1136 -0.3012
 7983TIP3    H123913   6.195   1.344   1.950 -0.9497  0.1861  1.0066
 7983TIP3    H223914   6.182   1.205   2.009  0.6739  0.0538  1.0862
 7984TIP3   OH223915   5.801   4.850   1.410  0.0465  0.1837  0.1038
 7984TIP3    H123916   5.728   4.848   1.472 -0.7242  0.6721 -0.7785
 7984TIP3    H223917   5.789   4.930   1.360  1.7413  0.7817  0.5717
 7985TIP3   OH223918   7.209   1.114   0.260  0.2874 -0.0476 -0.4269
 7985TIP3    H123919   7.117   1.122   0.234  0.4584  0.0568 -1.0012
 7985TIP3    H223920   7.259   1.151   0.187  0.7092  2.3788  0.9654
 7986TIP3   OH223921   0.794   2.757   5.432  0.2365  0.1194  0.5841
 7986TIP3    H123922   0.738   2.827   5.467  0.8797  1.1684 -0.4451
 7986TIP3    H223923   0.830   2.792   5.351  0.2702 -1.5615 -0.1764
 7987TIP3   OH223924   4.321   4.305   0.935  0.9055 -0.2397  0.2703
 7987TIP3    H123925   4.409   4.268   0.933  2.1002  2.3844 -1.0310
 7987TIP3    H223926   4.301   4.323   0.844 -0.4868  0.2853  0.6623
 7988TIP3   OH223927   6.810   1.613   4.009 -0.1096  0.2118 -0.9704
 7988TIP3    H123928   6.762   1.550   3.955  2.5819 -1.8018 -1.2268
 7988TIP3    H223929   6.835   1.682   3.948 -0.8782  0.2425 -1.2722
 7989TIP3   OH223930   5.940   1.047   2.575  0.4908 -0.7453 -0.1573
 7989TIP3    H123931   5.871   1.094   2.622  0.8474 -1.8751  1.5798
 7989TIP3    H223932   5.999   1.115   2.544 -0.4417  0.1114 -0.1111
 7990TIP3   OH223933   6.532   5.311   0.939  0.2146  0.3294  0.3801
 7990TIP3    H123934   6.481   5.230   0.939  0.8270 -0.0957 -1.2387
 7990TIP3    H223935   6.620   5.284   0.912  0.7928  1.3434  1.1615
 7991TIP3   OH223936   5.757   6.458   5.873 -0.0037  0.6487 -0.6046
 7991TIP3    H123937   5.735   6.389   5.936 -3.3366  0.1576 -2.1167
 7991TIP3    H223938   5.791   6.411   5.797 -1.2009  0.7483 -1.2126
 7992TIP3   OH223939   0.550   3.431   3.957 -1.1785 -0.4238  0.3853
 7992TIP3    H123940   0.637   3.413   3.993 -0.8747  0.5282  0.1374
 7992TIP3    H223941   0.491   3.421   4.031 -0.9905 -2.0316  0.3581
 7993TIP3   OH223942   3.952   3.201  -0.010  0.2544  0.1805 -0.0527
 7993TIP3    H123943   3.891   3.172   0.058 -0.5860  0.1762 -0.7879
 7993TIP3    H223944   3.939   3.296  -0.015  1.1126  0.3379  0.5446
 7994TIP3   OH223945   4.790   3.203   4.272  0.1468  0.0163  0.0188
 7994TIP3    H123946   4.782   3.142   4.199 -0.5872 -0.3296  0.3821
 7994TIP3    H223947   4.803   3.147   4.349 -0.7176  0.2941  0.3805
 7995TIP3   OH223948   6.086   2.141   5.571  0.4986  0.5397  0.1671
 7995TIP3    H123949   6.012   2.202   5.575  0.8490  0.9145  1.4124
 7995TIP3    H223950   6.068   2.086   5.495 -2.3391 -0.9830  1.7483
 7996TIP3   OH223951   6.320   6.513   0.725  0.9213  0.0298 -0.4330
 7996TIP3    H123952   6.360   6.449   0.665  0.3792 -0.1144 -0.6480
 7996TIP3    H223953   6.299   6.462   0.803  0.9821  0.0653 -0.3933
 7997TIP3   OH223954   6.441   6.417   3.281  0.1804 -0.5268  0.3700
 7997TIP3    H123955   6.453   6.329   3.319  1.6108 -0.2312  0.6574
 7997TIP3    H223956   6.422   6.473   3.357  0.4172 -0.3954  0.3341
 7998TIP3   OH223957   2.424   1.189   2.835 -0.0061  0.7194 -0.0086
 7998TIP3    H123958   2.415   1.157   2.745 -0.3923 -1.5937  0.7760
 7998TIP3    H223959   2.363   1.136   2.886  1.9230  0.2169  1.9776
 7999TIP3   OH223960   6.998   2.645   1.499 -0.5158  0.0540  0.7557
 7999TIP3    H123961   6.942   2.652   1.576  0.8817 -0.5459  1.8671
 7999TIP3    H223962   7.077   2.693   1.522  0.0430 -0.3592 -0.2125
 8000TIP3   OH223963   6.856   2.951   3.855 -0.4680 -0.3302  0.0911
 8000TIP3    H123964   6.830   2.890   3.924 -1.0714  1.5685  1.6754
 8000TIP3    H223965   6.885   2.896   3.783  1.4933 -2.4577  2.3237
 8001TIP3   OH223966   0.697   4.629   4.127  0.1475  0.2758  0.1120
 8001TIP3    H123967   0.687   4.552   4.069  0.1374 -0.3514  0.9277
 8001TIP3    H223968   0.658   4.701   4.077  1.2780  0.0293 -1.2029
 8002TIP3   OH223969   0.383   2.761   5.886  0.6729  0.3761  0.3412
 8002TIP3    H123970   0.345   2.693   5.830 -0.5428  0.1593  1.3890
 8002TIP3    H223971   0.478   2.750   5.876  0.4975  0.1930 -1.4615
 8003TIP3   OH223972   6.998   3.280   5.338 -0.0975 -0.2258  0.3437
 8003TIP3    H123973   7.043   3.344   5.393  0.1145 -0.1660  0.1042
 8003TIP3    H223974   6.929   3.330   5.295 -0.5378 -0.3657  0.8807
 8004TIP3   OH223975   4.801   0.274   2.550  0.0410 -0.2675  0.0060
 8004TIP3    H123976   4.883   0.322   2.567  0.7065 -0.9681 -1.0716
 8004TIP3    H223977   4.761   0.321   2.476 -0.7444  0.3016  0.7726
 8005TIP3   OH223978   4.315   3.039   3.326 -0.3075 -0.1813  0.5015
 8005TIP3    H123979   4.293   3.080   3.410 -2.4542 -0.7639  0.2896
 8005TIP3    H223980   4.333   3.113   3.268  3.6079  0.2130  1.9442
 8006TIP3   OH223981   4.718   1.250   5.620 -0.4529 -0.4232  0.2204
 8006TIP3    H123982   4.658   1.239   5.694  1.8154 -1.1339  2.0812
 8006TIP3    H223983   4.803   1.267   5.661  0.6453  0.6101 -2.2940
 8007TIP3   OH223984   6.022   4.740   5.328 -0.1732  0.2160 -0.2151
 8007TIP3    H123985   6.075   4.661   5.336 -0.0638  0.2356 -0.6801
 8007TIP3    H223986   6.082   4.811   5.352  0.4128  0.3560 -1.9454
 8008TIP3   OH223987   5.718   0.080   4.518  0.0743  0.1399 -0.4195
 8008TIP3    H123988   5.768   0.065   4.439 -1.0933  1.5567 -1.4777
 8008TIP3    H223989   5.626   0.078   4.489 -0.4446 -0.7698  1.1546
 8009TIP3   OH223990   1.531   4.884   3.644  0.0398  0.0351  0.3028
 8009TIP3    H123991   1.546   4.931   3.727  0.7297 -0.6363  0.5688
 8009TIP3    H223992   1.616   4.847   3.622 -0.3176 -0.4304 -0.3213
 8010TIP3   OH223993   2.014   0.524   2.816 -0.0002  0.5720 -0.0947
 8010TIP3    H123994   2.082   0.529   2.749 -1.0508  1.7010 -1.1288
 8010TIP3    H223995   2.059   0.488   2.893  2.4998  3.8513  0.1970
 8011TIP3   OH223996   0.642   3.238   4.314 -0.3149  0.0493  0.9350
 8011TIP3    H123997   0.686   3.286   4.244 -1.1299 -0.5927 -0.0484
 8011TIP3    H223998   0.672   3.280   4.394  3.7444 -1.6516  0.5332
 8012TIP3   OH223999   2.017   0.384   3.393 -0.3805  0.4884  0.1479
 8012TIP3    H124000   1.931   0.414   3.421  0.1556  1.6876  0.5922
 8012TIP3    H224001   2.059   0.355   3.474  0.1705  1.3463  0.1822
 8013TIP3   OH224002   2.803   0.638   1.734  0.1411  0.6900  0.2221
 8013TIP3    H124003   2.720   0.600   1.763  0.0057  0.8995  0.1097
 8013TIP3    H224004   2.860   0.631   1.811  0.3877 -0.5085 -0.0552
 8014TIP3   OH224005   5.729   6.219   2.760  0.2024  0.0858  0.4105
 8014TIP3    H124006   5.651   6.258   2.722 -0.3097 -0.4652  0.8662
 8014TIP3    H224007   5.714   6.223   2.855  0.6410 -0.1852  0.4947
 8015TIP3   OH224008   2.891   3.368   1.446  0.3327  0.1187 -0.6978
 8015TIP3    H124009   2.944   3.385   1.368 -1.6241  0.0300 -2.1212
 8015TIP3    H224010   2.830   3.442   1.450 -0.5497 -0.6257 -0.1000
 8016TIP3   OH224011   3.373   4.879   0.847 -0.0090 -0.4982 -0.0114
 8016TIP3    H124012   3.360   4.787   0.870 -1.2951 -0.8916 -2.0192
 8016TIP3    H224013   3.366   4.881   0.751  2.0171  1.4162 -0.2033
 8017TIP3   OH224014   3.305   5.921   1.532 -0.2945  0.3499 -0.3375
 8017TIP3    H124015   3.241   5.926   1.603 -1.1058  0.8074 -1.0809
 8017TIP3    H224016   3.353   5.840   1.549 -0.6002  0.3545  0.6243
 8018TIP3   OH224017   4.929   4.611   1.920  0.3045  0.0138  0.0039
 8018TIP3    H124018   4.972   4.578   1.841  0.8442  0.2973  0.1705
 8018TIP3    H224019   4.979   4.689   1.944 -1.9682  2.0356 -1.3578
 8019TIP3   OH224020   0.597   1.194   4.122  0.2303 -0.2883  0.1209
 8019TIP3    H124021   0.652   1.267   4.094 -1.1043  1.0922  0.9678
 8019TIP3    H224022   0.653   1.143   4.181  1.7178 -0.9457 -1.7381
 8020TIP3   OH224023   5.100   4.727   5.369 -0.2220  0.0939 -0.4306
 8020TIP3    H124024   5.051   4.796   5.324  1.3314  0.8778 -1.0129
 8020TIP3    H224025   5.078   4.739   5.462 -0.6269  0.8410 -0.6083
 8021TIP3   OH224026   2.967   4.223   4.156  0.1279 -0.4153 -0.7712
 8021TIP3    H124027   2.986   4.131   4.172 -0.7088 -0.4673  0.0457
 8021TIP3    H224028   3.029   4.250   4.088  1.2827 -1.2134 -0.0508
 8022TIP3   OH224029   3.488   1.017   0.654  0.3621 -0.1172  0.0607
 8022TIP3    H124030   3.419   1.072   0.691  0.4301 -0.5410  0.8407
 8022TIP3    H224031   3.450   0.981   0.573 -0.6508 -1.0187  0.9107
 8023TIP3   OH224032   5.884   1.466   0.850 -0.2900 -0.9070  0.2783
 8023TIP3    H124033   5.863   1.559   0.851  0.7418 -0.6669  0.5892
 8023TIP3    H224034   5.924   1.449   0.936  0.4057 -1.4236 -0.1379
 8024TIP3   OH224035   5.179   6.706   2.633 -0.2771 -1.0949 -0.3096
 8024TIP3    H124036   5.101   6.687   2.685  0.3006  1.1840  1.5588
 8024TIP3    H224037   5.248   6.717   2.698  1.2263 -1.3194 -1.8150
 8025TIP3   OH224038   1.722   1.991   4.798  0.0419  0.1758  0.3268
 8025TIP3    H124039   1.679   1.939   4.730  0.9449  0.9898 -0.9065
 8025TIP3    H224040   1.815   1.978   4.784  0.2441  0.2749  1.4886
 8026TIP3   OH224041   1.059   5.861   3.520  0.2580 -0.0541  0.6578
 8026TIP3    H124042   0.992   5.826   3.460  1.6801 -2.0536  0.1530
 8026TIP3    H224043   1.090   5.940   3.476  0.3737 -0.7985 -0.6590
 8027TIP3   OH224044   2.768   5.070   0.365  0.3119 -0.1321  0.0280
 8027TIP3    H124045   2.814   5.030   0.439 -0.1617  0.7806  0.8516
 8027TIP3    H224046   2.742   5.157   0.397 -1.5998 -0.4332 -0.5348
 8028TIP3   OH224047   0.702   0.957   3.572 -0.4156  0.0114 -0.4222
 8028TIP3    H124048   0.683   1.004   3.491  0.9804 -0.2992 -0.9582
 8028TIP3    H224049   0.630   0.896   3.583 -0.5977  0.0346 -1.4444
 8029TIP3   OH224050   0.490   4.600   0.195 -0.2978 -0.7821  0.3723
 8029TIP3    H124051   0.576   4.560   0.210 -0.9580 -2.1721  0.6279
 8029TIP3    H224052   0.509   4.690   0.171  1.2312 -1.0468  0.5051
 8030TIP3   OH224053   5.591   5.855   1.774 -0.2169  0.0532 -0.3081
 8030TIP3    H124054   5.597   5.769   1.731  1.1840 -0.7595  1.3898
 8030TIP3    H224055   5.671   5.861   1.827 -2.0540  0.6686  2.6528
 8031TIP3   OH224056   4.548   5.410   3.564 -0.3745 -0.6022  0.4124
 8031TIP3    H124057   4.496   5.469   3.509 -0.3395 -1.3947 -0.4926
 8031TIP3    H224058   4.501   5.406   3.647  0.1521  1.4958  0.8659
 8032TIP3   OH224059   2.180   1.895   2.775 -0.1533  0.4357  0.3528
 8032TIP3    H124060   2.103   1.906   2.830 -0.4933 -0.4926  0.0915
 8032TIP3    H224061   2.232   1.828   2.820 -1.4793 -2.0024 -1.4452
 8033TIP3   OH224062   1.113   0.102   1.513  0.7332  0.2512  0.6710
 8033TIP3    H124063   1.027   0.060   1.506  1.6792 -1.8610  1.1370
 8033TIP3    H224064   1.110   0.149   1.596  0.4502 -0.8808  1.3242
 8034TIP3   OH224065   0.949   3.759   4.121  0.0118  0.3922  0.7233
 8034TIP3    H124066   0.860   3.779   4.092 -0.3570 -1.3561  0.5427
 8034TIP3    H224067   0.970   3.829   4.182 -1.5399  0.7884  0.8530
 8035TIP3   OH224068   4.547   2.354   0.936 -0.6015 -0.5763 -0.0690
 8035TIP3    H124069   4.601   2.388   0.865  1.0043 -0.9336  0.9300
 8035TIP3    H224070   4.604   2.356   1.013 -1.4595 -2.5819  0.6889
 8036TIP3   OH224071   4.991   4.778   3.723 -0.1339 -0.2736  0.0196
 8036TIP3    H124072   4.975   4.808   3.633 -0.2790 -1.7045 -0.4684
 8036TIP3    H224073   4.905   4.751   3.754 -0.2484  1.0605  0.9537
 8037TIP3   OH224074   6.655   5.196   2.550 -0.0448 -0.5687 -0.0285
 8037TIP3    H124075   6.709   5.242   2.616  3.0711  0.2762 -2.8864
 8037TIP3    H224076   6.694   5.109   2.545 -0.5428 -0.7683 -0.4614
 8038TIP3   OH224077   6.056   4.339   4.262 -0.5039  0.5937  0.3702
 8038TIP3    H124078   6.057   4.357   4.168 -0.6395  1.4936  0.5395
 8038TIP3    H224079   6.147   4.318   4.283 -0.4276  0.6325  0.0840
 8039TIP3   OH224080   0.574   2.339   1.670  0.2673  0.4101 -0.2324
 8039TIP3    H124081   0.539   2.397   1.738 -0.2972 -0.6323  0.3901
 8039TIP3    H224082   0.657   2.308   1.705  1.3574  2.0417 -1.2498
 8040TIP3   OH224083   2.720   6.723   5.223 -0.0294  0.1768  0.1777
 8040TIP3    H124084   2.771   6.679   5.291 -0.3437  1.6717  1.4143
 8040TIP3    H224085   2.784   6.743   5.155  0.3620 -0.9907  0.1783
 8041TIP3   OH224086   3.107   5.160   5.026 -0.0874 -0.0734 -0.3054
 8041TIP3    H124087   3.183   5.109   4.997 -1.2889 -1.3926 -1.3056
 8041TIP3    H224088   3.048   5.161   4.950 -1.7250 -0.3893  0.8893
 8042TIP3   OH224089   2.923   1.336   5.726 -0.3359 -0.2529 -0.1634
 8042TIP3    H124090   2.942   1.404   5.791  1.2314 -1.8099  1.1351
 8042TIP3    H224091   2.872   1.380   5.659  0.9515  2.2963  0.3944
 8043TIP3   OH224092   3.978   5.219   0.392  0.4544 -0.2213  0.1878
 8043TIP3    H124093   3.945   5.308   0.379  0.7690 -0.0473  0.5824
 8043TIP3    H224094   4.072   5.229   0.405  0.1988 -0.3736  2.4860
 8044TIP3   OH224095   0.783   0.634   4.630  0.1471 -0.0232  0.2252
 8044TIP3    H124096   0.727   0.709   4.609 -1.4310 -1.4051 -0.8232
 8044TIP3    H224097   0.802   0.594   4.545  0.9246 -0.8230  0.7556
 8045TIP3   OH224098   4.328   3.803   5.090 -0.4488  0.1498 -0.2679
 8045TIP3    H124099   4.423   3.816   5.090 -0.3800 -0.1106 -1.8201
 8045TIP3    H224100   4.317   3.709   5.072 -0.9933  0.3455 -0.9929
 8046TIP3   OH224101   4.148   1.438   1.171 -0.2956  0.0538 -0.7052
 8046TIP3    H124102   4.156   1.530   1.193  0.1980 -0.5900  2.1634
 8046TIP3    H224103   4.159   1.392   1.254 -1.3322 -2.5681 -1.9091
 8047TIP3   OH224104   6.514   3.770   3.355  0.3517  0.3633 -0.3123
 8047TIP3    H124105   6.454   3.697   3.341  0.2894  0.5718 -1.1989
 8047TIP3    H224106   6.590   3.749   3.301  0.1834  1.1196 -0.8580
 8048TIP3   OH224107   6.169   5.539   4.916 -0.0892  0.2846 -0.3341
 8048TIP3    H124108   6.186   5.549   4.822 -0.9243  1.3000 -0.3953
 8048TIP3    H224109   6.166   5.628   4.950  2.2752 -0.1044  1.0944
 8049TIP3   OH224110   2.435   4.275   5.213  0.1249 -0.0939  0.0768
 8049TIP3    H124111   2.478   4.304   5.294 -1.5399 -1.5705  1.5841
 8049TIP3    H224112   2.346   4.309   5.219 -0.1748 -0.6574 -0.8878
 8050TIP3   OH224113   5.615   1.519   5.517 -0.2301 -0.3008 -0.9446
 8050TIP3    H124114   5.521   1.527   5.536 -0.2732 -0.8612 -0.8881
 8050TIP3    H224115   5.620   1.446   5.455  0.3680 -1.9232  0.8931
 8051TIP3   OH224116   4.792   2.483   4.284  0.2615 -0.6106  0.5534
 8051TIP3    H124117   4.832   2.553   4.231 -1.2920  0.1248  0.2869
 8051TIP3    H224118   4.866   2.441   4.328  1.2637  1.1922  0.7020
 8052TIP3   OH224119   4.629   1.169   1.526  0.5031  0.1428  0.7446
 8052TIP3    H124120   4.722   1.175   1.503  0.5683  1.1973  1.2680
 8052TIP3    H224121   4.627   1.177   1.621 -0.1281  0.0998  0.7364
 8053TIP3   OH224122   2.281   4.354   1.532 -0.1788 -0.2481  0.0362
 8053TIP3    H124123   2.372   4.382   1.540  0.1076 -0.8784 -0.9066
 8053TIP3    H224124   2.270   4.335   1.439 -0.8678 -1.5498  0.3577
 8054TIP3   OH224125   6.180   4.068   4.436  0.2297 -0.4482  0.6322
 8054TIP3    H124126   6.142   3.989   4.396 -0.2168 -0.7278  1.5815
 8054TIP3    H224127   6.104   4.117   4.467  0.3054  1.5594 -2.0400
 8055TIP3   OH224128   3.387   4.443   5.337  0.1279 -0.4857  0.3931
 8055TIP3    H124129   3.479   4.462   5.355  0.6836 -1.0766 -1.5512
 8055TIP3    H224130   3.341   4.525   5.357  1.2331  0.1661  0.3248
 8056TIP3   OH224131   5.146   4.616   2.470  0.7908 -0.3483 -0.1265
 8056TIP3    H124132   5.079   4.626   2.402  1.4613 -1.1290 -0.9282
 8056TIP3    H224133   5.226   4.598   2.422  0.8341 -3.4654  0.9085
 8057TIP3   OH224134   1.442   0.059   1.887  0.0159 -0.0364 -0.0808
 8057TIP3    H124135   1.429   0.070   1.982 -0.8506 -0.5989 -0.1194
 8057TIP3    H224136   1.506  -0.012   1.880 -0.0071 -0.0754  0.0874
 8058TIP3   OH224137   6.962   2.412   1.021  0.2048 -0.7592  0.2230
 8058TIP3    H124138   6.985   2.423   1.114  0.6430 -1.7851  0.2442
 8058TIP3    H224139   6.873   2.376   1.022 -0.8441  1.6418  0.1695
 8059TIP3   OH224140   2.806   4.525   2.754 -0.2217 -0.4496  0.2084
 8059TIP3    H124141   2.843   4.437   2.758 -0.1727 -0.5667 -1.8407
 8059TIP3    H224142   2.828   4.557   2.666 -0.9126  1.3021  0.6262
 8060TIP3   OH224143   6.360   3.107   2.695 -0.6603  0.0294 -0.1268
 8060TIP3    H124144   6.364   3.151   2.780 -0.6379 -0.5385  0.1699
 8060TIP3    H224145   6.445   3.123   2.656 -0.4352 -0.2604  0.2383
 8061TIP3   OH224146   2.240   2.246   1.242 -0.2985  0.0340  0.3339
 8061TIP3    H124147   2.196   2.292   1.171 -0.7198 -0.7101  0.1082
 8061TIP3    H224148   2.176   2.247   1.314  0.0159  0.5360  0.6063
 8062TIP3   OH224149   4.042   5.982   4.117 -0.0144  0.0457  0.2005
 8062TIP3    H124150   4.063   5.888   4.120  1.2161  0.3206  0.9234
 8062TIP3    H224151   4.036   6.008   4.209  0.1363  0.7754  0.0076
 8063TIP3   OH224152   5.226   3.607   5.065 -0.7982 -0.2916 -0.6670
 8063TIP3    H124153   5.210   3.636   4.975 -1.1410  1.3892 -0.1040
 8063TIP3    H224154   5.143   3.623   5.110 -0.2788 -0.0198  0.2071
 8064TIP3   OH224155   1.443   1.966   4.756 -0.0382  0.0555  0.5940
 8064TIP3    H124156   1.432   2.000   4.668  0.1491  0.5665  0.7666
 8064TIP3    H224157   1.394   2.027   4.812 -0.3857 -0.4149  0.8174
 8065TIP3   OH224158   0.531   3.645   1.236 -0.2432 -0.2371  0.0440
 8065TIP3    H124159   0.544   3.569   1.180  1.6463  0.6370 -0.8009
 8065TIP3    H224160   0.517   3.609   1.324 -0.6559 -1.5616 -0.5434
 8066TIP3   OH224161   2.664   1.279   4.319 -0.1729 -0.1423 -0.1339
 8066TIP3    H124162   2.736   1.339   4.335 -0.2404 -0.7576  3.3540
 8066TIP3    H224163   2.699   1.192   4.339 -0.9504 -0.9126 -1.8952
 8067TIP3   OH224164   2.509   1.343   0.762  0.3377 -0.0547  0.1271
 8067TIP3    H124165   2.429   1.299   0.790 -0.2140  1.2983  0.7103
 8067TIP3    H224166   2.575   1.273   0.763 -0.5521 -0.9217  0.8296
 8068TIP3   OH224167   6.109   2.163   0.057 -0.2709 -0.2901  0.0291
 8068TIP3    H124168   6.176   2.211   0.008  0.4783 -1.1839  0.1615
 8068TIP3    H224169   6.137   2.169   0.148 -0.6604 -0.2325  0.1483
 8069TIP3   OH224170   4.908   6.453   0.345  0.1168  0.3930 -0.4191
 8069TIP3    H124171   4.823   6.481   0.311  0.1161 -0.2681 -0.9792
 8069TIP3    H224172   4.962   6.440   0.267  0.7773  0.9108 -0.0663
 8070TIP3   OH224173   4.235   3.481   5.596 -0.2376 -0.7001 -0.7591
 8070TIP3    H124174   4.283   3.404   5.626  1.8085  1.3768  1.7082
 8070TIP3    H224175   4.267   3.496   5.507 -0.1405 -2.2269 -1.0175
 8071TIP3   OH224176   6.562   3.449   2.872 -0.1027  0.2343  0.1735
 8071TIP3    H124177   6.525   3.519   2.926 -0.3585  0.9739 -0.9181
 8071TIP3    H224178   6.563   3.486   2.784 -0.4391 -1.2155 -0.4660
 8072TIP3   OH224179   5.407   1.091   1.589  0.3275  0.6746 -0.2661
 8072TIP3    H124180   5.387   1.000   1.608  0.3776  1.1012  2.2760
 8072TIP3    H224181   5.379   1.104   1.499 -1.3656 -1.3693 -0.1112
 8073TIP3   OH224182   2.881   4.001   2.420 -0.0776  0.0947 -0.3274
 8073TIP3    H124183   2.818   4.020   2.351  0.9591  1.9403 -0.8442
 8073TIP3    H224184   2.876   3.906   2.432 -1.7470 -0.0056 -1.4882
 8074TIP3   OH224185   0.550   6.363   2.166 -0.2594 -0.1944 -0.2159
 8074TIP3    H124186   0.492   6.290   2.184 -0.5967  0.2306  0.4678
 8074TIP3    H224187   0.565   6.403   2.252  1.5520 -0.6727 -0.2714
 8075TIP3   OH224188   0.911   5.039   2.149  0.2280  0.0409  0.1194
 8075TIP3    H124189   0.850   4.991   2.092  0.6455  0.8808 -1.0796
 8075TIP3    H224190   0.933   5.118   2.099  0.4740  0.9009  1.5468
 8076TIP3   OH224191   6.818   3.609   4.229  0.0177  0.0502 -0.0502
 8076TIP3    H124192   6.864   3.691   4.247 -0.1346 -0.2421  1.9321
 8076TIP3    H224193   6.882   3.541   4.252 -1.1466 -0.3608  2.2960
 8077TIP3   OH224194   5.004   0.303   0.326  0.2555  0.2226 -0.4564
 8077TIP3    H124195   4.975   0.263   0.408  0.0050 -0.0623 -0.6839
 8077TIP3    H224196   5.091   0.337   0.345  0.1448  0.2755 -0.0331
 8078TIP3   OH224197   4.741   1.383   3.204  0.0146 -0.1391  0.2385
 8078TIP3    H124198   4.762   1.454   3.143  1.9266 -1.7394 -1.1058
 8078TIP3    H224199   4.826   1.358   3.240 -0.2809 -3.0450 -0.8666
 8079TIP3   OH224200   4.688   1.332   5.367  0.2159  0.4319 -0.0629
 8079TIP3    H124201   4.729   1.412   5.399 -0.0729  0.5850 -0.0685
 8079TIP3    H224202   4.698   1.270   5.439 -1.6281  1.1721  0.9262
 8080TIP3   OH224203   0.477   1.575   3.383 -0.5555  0.4706 -0.4084
 8080TIP3    H124204   0.391   1.611   3.364 -0.6185 -0.2782 -1.6433
 8080TIP3    H224205   0.504   1.531   3.302  1.2239  1.1529 -0.2383
 8081TIP3   OH224206   0.779   3.086   3.958  0.0019 -0.3529 -0.3014
 8081TIP3    H124207   0.818   3.089   3.870  0.2309  1.6965 -0.1641
 8081TIP3    H224208   0.685   3.091   3.942 -0.0124 -1.0134 -0.4581
 8082TIP3   OH224209   3.360   1.217   3.661 -0.7978 -0.0209 -0.1396
 8082TIP3    H124210   3.267   1.236   3.671 -0.9942 -0.8238 -0.3558
 8082TIP3    H224211   3.401   1.256   3.738 -1.5206 -1.0170  0.7934
 8083TIP3   OH224212   2.255   1.897   0.848  0.4612 -0.1511  0.4674
 8083TIP3    H124213   2.287   1.917   0.937 -0.1953  0.2272  0.6176
 8083TIP3    H224214   2.186   1.832   0.862  0.1386  0.1483  0.2527
 8084TIP3   OH224215   7.078   5.628   2.585  0.1742  0.1573  0.3011
 8084TIP3    H124216   7.056   5.635   2.492 -0.5010  1.0525  0.5195
 8084TIP3    H224217   7.152   5.688   2.596 -0.7432  1.2565  0.6404
 8085TIP3   OH224218   5.597   1.452   1.975  0.1726 -0.3468  0.1932
 8085TIP3    H124219   5.683   1.471   2.012  0.2125 -0.6111  0.2428
 8085TIP3    H224220   5.559   1.538   1.957  0.7100 -0.2357 -0.4410
 8086TIP3   OH224221   5.770   3.499   3.129 -0.8580  0.0702  0.1714
 8086TIP3    H124222   5.743   3.544   3.048 -0.4598  0.6403  0.3439
 8086TIP3    H224223   5.778   3.407   3.104  3.6108  0.7197 -1.7034
 8087TIP3   OH224224   0.852   3.727   0.803 -0.1788  0.5294  0.1983
 8087TIP3    H124225   0.814   3.742   0.889 -0.4768  0.3389  0.1033
 8087TIP3    H224226   0.829   3.636   0.782 -1.0497  0.8933 -0.5361
 8088TIP3   OH224227   1.084   3.870   0.874 -0.4934 -0.2967  0.7197
 8088TIP3    H124228   1.060   3.792   0.823 -3.8265  1.4633 -0.7259
 8088TIP3    H224229   1.178   3.879   0.861 -0.1486 -3.5169  0.1653
 8089TIP3   OH224230   4.484   2.442   3.389 -0.0194 -0.3440  0.1059
 8089TIP3    H124231   4.529   2.395   3.459  1.0283 -1.2545 -1.1200
 8089TIP3    H224232   4.554   2.479   3.336 -0.7954  0.6187 -0.2775
 8090TIP3   OH224233   0.849   1.401   3.393 -0.2347 -1.1018 -0.1074
 8090TIP3    H124234   0.866   1.489   3.427 -1.4388 -1.3031  1.1144
 8090TIP3    H224235   0.930   1.376   3.348  0.0546  0.7091 -0.6853
 8091TIP3   OH224236   4.920   3.310   1.932 -0.1369  0.2243 -0.4730
 8091TIP3    H124237   4.852   3.373   1.909  0.8023  0.6069 -2.3640
 8091TIP3    H224238   4.893   3.276   2.018 -0.4636  3.4529  0.8258
 8092TIP3   OH224239   0.565   0.253   2.599  0.1306  0.3511 -0.1131
 8092TIP3    H124240   0.483   0.214   2.567 -1.1075  1.4736  1.5051
 8092TIP3    H224241   0.558   0.345   2.573  1.6772  0.1477 -1.3781
 8093TIP3   OH224242   1.864   4.913   2.835  0.2033 -0.1995  0.2948
 8093TIP3    H124243   1.896   4.998   2.865 -0.6586 -0.1523  1.1355
 8093TIP3    H224244   1.770   4.925   2.823  0.5972  0.3900 -4.4862
 8094TIP3   OH224245   0.150   4.479   1.555  0.3904  0.1394  0.5111
 8094TIP3    H124246   0.116   4.400   1.596  0.5922 -1.1371 -1.5907
 8094TIP3    H224247   0.188   4.448   1.472  0.2687  2.4688 -0.4916
 8095TIP3   OH224248   5.456   2.995   0.782  0.5451 -0.1209 -0.0783
 8095TIP3    H124249   5.419   2.943   0.854 -1.4133 -0.2453 -1.1257
 8095TIP3    H224250   5.465   2.934   0.710  1.4004  0.2674 -0.3153
 8096TIP3   OH224251   4.714   1.696   3.315 -0.4455  0.4849  0.0087
 8096TIP3    H124252   4.778   1.733   3.377 -2.1217  0.7138  1.7142
 8096TIP3    H224253   4.712   1.603   3.335 -0.6359  0.4794 -0.0335
 8097TIP3   OH224254   2.875   1.762   4.337 -0.2221  0.1331 -0.0808
 8097TIP3    H124255   2.880   1.815   4.416  1.5541  1.0790 -0.7764
 8097TIP3    H224256   2.844   1.822   4.269  1.6479  0.3063 -0.8391
 8098TIP3   OH224257   0.128   6.256   4.798 -0.2969  0.4234 -0.3947
 8098TIP3    H124258   0.133   6.162   4.779 -1.9413  0.4512 -1.2236
 8098TIP3    H224259   0.100   6.260   4.889 -1.0286  0.0518 -0.5849
 8099TIP3   OH224260   3.439   5.478   2.946  0.0145  0.1143  0.5291
 8099TIP3    H124261   3.430   5.552   2.886 -1.5483 -1.2182 -0.9696
 8099TIP3    H224262   3.415   5.513   3.032 -2.2142  1.0260 -0.4032
 8100TIP3   OH224263   4.365   4.991   0.911  0.1728  0.3010  0.4672
 8100TIP3    H124264   4.380   4.931   0.984  1.1499 -0.1997 -0.1460
 8100TIP3    H224265   4.412   4.954   0.838  0.8175  1.8212  0.0697
 8101TIP3   OH224266   2.558   5.890   1.251 -0.0900 -0.2937 -0.1822
 8101TIP3    H124267   2.626   5.876   1.185 -0.5234 -0.4265 -0.6017
 8101TIP3    H224268   2.476   5.881   1.204 -0.4068  0.7229  0.1502
 8102TIP3   OH224269   0.946   3.364   3.729 -0.0730 -0.0095 -0.4473
 8102TIP3    H124270   1.004   3.349   3.654  0.7610 -0.0630  0.1908
 8102TIP3    H224271   0.900   3.281   3.740  1.5013 -0.8283  0.4969
 8103TIP3   OH224272   6.114   1.247   2.545 -0.0541  0.4314 -0.2308
 8103TIP3    H124273   6.186   1.185   2.538 -0.2705  0.2903 -1.6137
 8103TIP3    H224274   6.115   1.276   2.636  0.4155 -1.1500  0.2974
 8104TIP3   OH224275   1.205   4.047   5.364  0.0103 -0.4581 -0.3491
 8104TIP3    H124276   1.202   3.985   5.292  1.9563 -0.0468 -0.8425
 8104TIP3    H224277   1.133   4.109   5.346  0.6604 -0.1655 -2.1344
 8105TIP3   OH224278   6.798   4.385   3.127  0.5429  0.2657 -0.2937
 8105TIP3    H124279   6.881   4.430   3.143  1.2918 -1.0586 -0.3012
 8105TIP3    H224280   6.820   4.312   3.069 -0.1222 -1.5889  1.6251
 8106TIP3   OH224281   2.086   2.442   1.084 -0.2558  0.9111  0.5853
 8106TIP3    H124282   2.024   2.504   1.045  0.1107  1.3506  0.7075
 8106TIP3    H224283   2.122   2.394   1.009 -0.0730  1.2733  0.4426
 8107TIP3   OH224284   6.381   4.552   5.352  0.4185  0.2089 -0.2455
 8107TIP3    H124285   6.463   4.510   5.375 -0.0178 -0.2736  0.4649
 8107TIP3    H224286   6.336   4.490   5.295 -0.2935 -0.3842  0.9278
 8108TIP3   OH224287   4.918   3.225   3.276  0.9452  0.1733  0.0998
 8108TIP3    H124288   4.915   3.317   3.250  0.5217  0.7489  2.0343
 8108TIP3    H224289   4.832   3.209   3.315  1.3887 -0.7420  0.7292
 8109TIP3   OH224290   5.136   6.438   2.341 -0.1242  0.5255 -0.1406
 8109TIP3    H124291   5.040   6.444   2.334 -0.3980  0.3448  2.2790
 8109TIP3    H224292   5.150   6.376   2.413  1.8937 -1.0330 -1.7576
 8110TIP3   OH224293   4.167   2.841   3.981 -0.0788  0.2847  0.0267
 8110TIP3    H124294   4.242   2.901   3.973  0.4362 -0.5375 -1.8550
 8110TIP3    H224295   4.198   2.759   3.943 -0.9106 -1.0976  2.1416
 8111TIP3   OH224296   1.053   3.990   2.252  0.7299  0.1978  1.3177
 8111TIP3    H124297   1.077   3.944   2.172  0.6251  3.7554 -0.9591
 8111TIP3    H224298   0.957   3.997   2.248  0.7062  0.2605  1.8772
 8112TIP3   OH224299   4.934   0.821   3.975 -0.1434 -0.4776 -0.1865
 8112TIP3    H124300   4.904   0.877   3.903 -0.6129  0.2120  0.5406
 8112TIP3    H224301   4.858   0.767   3.996  0.2070 -1.1730 -0.6598
 8113TIP3   OH224302   5.339   5.192   3.701  0.3391  0.0681 -0.2030
 8113TIP3    H124303   5.308   5.115   3.749 -1.9868  0.5780 -0.7259
 8113TIP3    H224304   5.355   5.257   3.769 -2.2972  0.5776  0.0579
 8114TIP3   OH224305   2.406   4.668   4.338 -0.2740 -0.2892 -0.1325
 8114TIP3    H124306   2.435   4.637   4.423 -1.3059  0.3973  0.5003
 8114TIP3    H224307   2.430   4.599   4.277  0.1914 -0.9367  0.7684
 8115TIP3   OH224308   0.983   6.007   1.981 -0.5065 -0.3590  0.3656
 8115TIP3    H124309   1.029   5.942   1.928 -0.4193  0.6848 -0.8823
 8115TIP3    H224310   1.053   6.063   2.016 -0.7220  0.8018 -0.9588
 8116TIP3   OH224311   6.991   6.300   4.016  0.2505 -0.0178 -0.4549
 8116TIP3    H124312   6.901   6.269   4.007  0.6478 -1.1003 -0.8465
 8116TIP3    H224313   7.045   6.228   3.983  1.2639  0.6059 -0.2087
 8117TIP3   OH224314   0.261   4.727   0.057 -0.2449  0.3479  0.4582
 8117TIP3    H124315   0.343   4.704   0.101  1.1893 -2.3469 -3.0870
 8117TIP3    H224316   0.284   4.803   0.004 -0.0791 -0.1898 -0.2614
 8118TIP3   OH224317   1.799   4.332   0.823 -0.1286  0.1000 -0.0120
 8118TIP3    H124318   1.731   4.359   0.885  0.0886 -0.6094  0.5528
 8118TIP3    H224319   1.754   4.273   0.762  0.4916 -2.6833  2.0328
 8119TIP3   OH224320   4.949   2.156   0.292  0.2887  0.0373 -0.3132
 8119TIP3    H124321   5.021   2.219   0.302  1.8300 -1.3997 -1.6867
 8119TIP3    H224322   4.966   2.090   0.359 -1.4722  1.1076  1.3020
 8120TIP3   OH224323   1.403   4.639   5.046 -0.5353 -0.1082  0.5020
 8120TIP3    H124324   1.396   4.628   4.952 -0.2512  1.2427  0.2950
 8120TIP3    H224325   1.489   4.604   5.069 -1.0208 -1.3963  0.4447
 8121TIP3   OH224326   1.274   1.177   2.238 -0.2264  0.1314 -0.4887
 8121TIP3    H124327   1.249   1.209   2.151 -1.4777  0.1768 -0.1350
 8121TIP3    H224328   1.243   1.087   2.241 -0.5725  0.2570  0.0379
 8122TIP3   OH224329   5.015   5.225   1.593  0.1919 -0.6590  0.3004
 8122TIP3    H124330   5.005   5.312   1.633 -0.2739 -1.2963  1.6258
 8122TIP3    H224331   5.109   5.211   1.589  0.2929  0.1288 -0.4525
 8123TIP3   OH224332   4.688   2.732   0.380  0.1453 -0.0252 -0.0946
 8123TIP3    H124333   4.709   2.701   0.292  0.6752  2.6315 -0.9811
 8123TIP3    H224334   4.594   2.717   0.389  0.3715 -1.8730 -0.3974
 8124TIP3   OH224335   2.035   6.718   0.269 -0.1530 -0.1693 -0.6890
 8124TIP3    H124336   2.109   6.667   0.302 -1.0550 -1.4845 -0.6382
 8124TIP3    H224337   2.068   6.808   0.266  0.6752 -0.3189  1.6964
 8125TIP3   OH224338   5.961   3.651   2.744 -0.3362  0.7313 -0.2793
 8125TIP3    H124339   6.043   3.605   2.726 -0.0780  1.2137 -0.3337
 8125TIP3    H224340   5.976   3.740   2.712 -0.2384  1.3258  1.3675
 8126TIP3   OH224341   3.597   3.713   2.473 -0.5680 -0.3592  0.6051
 8126TIP3    H124342   3.525   3.693   2.413 -0.4508  0.2540  0.2533
 8126TIP3    H224343   3.570   3.793   2.517  0.1448  0.1971  0.0559
 8127TIP3   OH224344   1.690   4.042   1.566 -0.1600 -0.3059  0.2711
 8127TIP3    H124345   1.603   4.007   1.587 -0.4683 -1.4506 -2.4778
 8127TIP3    H224346   1.749   3.968   1.580  0.3189  0.2563  1.3936
 8128TIP3   OH224347   6.853   5.223   1.303  0.1039 -0.0267  0.1152
 8128TIP3    H124348   6.845   5.132   1.274  1.5077 -0.2781  0.4438
 8128TIP3    H224349   6.781   5.269   1.259 -0.5492 -1.2633 -0.1476
 8129TIP3   OH224350   2.049   0.852   1.550  0.1709 -0.4957 -0.7712
 8129TIP3    H124351   2.009   0.936   1.527  0.6650 -0.0152  0.0523
 8129TIP3    H224352   2.140   0.874   1.570  0.5832 -1.4006 -1.5671
 8130TIP3   OH224353   4.379   4.129   4.981  0.2744 -0.0988 -0.0935
 8130TIP3    H124354   4.474   4.113   4.982 -0.0384 -2.2352  0.4555
 8130TIP3    H224355   4.359   4.155   5.071  0.2808 -0.0268 -0.1126
 8131TIP3   OH224356   4.051   5.682   3.016  0.0480  0.1964 -0.2362
 8131TIP3    H124357   3.959   5.656   3.009  0.0550 -0.1042  0.7120
 8131TIP3    H224358   4.081   5.687   2.925 -1.0080  0.6911 -0.5747
 8132TIP3   OH224359   3.253   5.613   4.955  0.9385 -0.0498  0.6890
 8132TIP3    H124360   3.212   5.693   4.990 -0.4087 -0.1930 -0.4791
 8132TIP3    H224361   3.195   5.542   4.984  0.3748 -0.2702 -0.8701
 8133TIP3   OH224362   5.031   5.297   5.814  0.0410 -0.9328  0.6541
 8133TIP3    H124363   5.065   5.274   5.727  1.3203  1.2458  0.5122
 8133TIP3    H224364   5.038   5.393   5.818  0.3117 -0.9895  3.2744
 8134TIP3   OH224365   3.310   3.003   4.090 -0.5319  0.6554 -0.0678
 8134TIP3    H124366   3.377   3.051   4.042 -1.1632 -0.4025 -2.1437
 8134TIP3    H224367   3.359   2.939   4.142  0.1284 -0.2740 -1.7531
 8135TIP3   OH224368   1.142   4.184   1.967  0.4101 -0.6727 -0.4992
 8135TIP3    H124369   1.059   4.224   1.993  0.9230 -0.7909  1.4295
 8135TIP3    H224370   1.209   4.237   2.010  1.3138 -1.0251 -1.4307
 8136TIP3   OH224371   2.062   0.840   0.277  0.2293  0.4141 -0.1065
 8136TIP3    H124372   2.093   0.751   0.260  0.1167  0.4718 -0.6578
 8136TIP3    H224373   2.142   0.891   0.289  0.3402  0.4421 -0.8867
 8137TIP3   OH224374   3.654   0.922   5.323 -0.1396  0.5804 -0.0699
 8137TIP3    H124375   3.676   0.829   5.331  0.9827  0.7520 -0.9259
 8137TIP3    H224376   3.560   0.923   5.304 -0.3047 -0.3376  0.6435
 8138TIP3   OH224377   4.296   3.358   1.232  0.1918 -0.0071 -0.6871
 8138TIP3    H124378   4.311   3.337   1.140 -0.5896  1.4706 -1.1895
 8138TIP3    H224379   4.202   3.342   1.246 -0.1184  1.5881 -0.7047
 8139TIP3   OH224380   0.308   4.298   1.295  0.3600  0.3097 -0.1939
 8139TIP3    H124381   0.302   4.231   1.227  0.5004 -2.6780  2.4509
 8139TIP3    H224382   0.324   4.380   1.248 -2.3717 -1.0083 -3.8453
 8140TIP3   OH224383   7.115   4.819   4.669  0.6493 -0.1354 -0.5320
 8140TIP3    H124384   7.191   4.794   4.616 -0.4343 -1.2697 -1.6186
 8140TIP3    H224385   7.045   4.763   4.638 -0.2652 -0.2476  1.5611
 8141TIP3   OH224386   1.401   3.548   1.238 -0.3737 -0.2767  0.2653
 8141TIP3    H124387   1.405   3.631   1.190  0.6070 -0.3877  0.1427
 8141TIP3    H224388   1.398   3.481   1.170  0.3103 -0.4043  0.3623
 8142TIP3   OH224389   3.151   5.733   4.481 -0.0190  0.1000  0.0397
 8142TIP3    H124390   3.129   5.825   4.462  2.2681  0.2295 -2.7273
 8142TIP3    H224391   3.171   5.695   4.395  0.5265 -2.6047  1.2685
 8143TIP3   OH224392   0.266   2.507   5.470 -0.3384 -0.0309 -0.0367
 8143TIP3    H124393   0.306   2.431   5.512 -1.2016 -1.3653 -1.5324
 8143TIP3    H224394   0.173   2.486   5.465 -0.9303  1.9880  1.2265
 8144TIP3   OH224395   5.134   1.909   2.236 -0.6029  0.2788  0.2133
 8144TIP3    H124396   5.160   1.998   2.212  0.4356 -0.1857 -0.4744
 8144TIP3    H224397   5.043   1.917   2.264 -1.1812  1.2492 -1.7875
 8145TIP3   OH224398   0.771   3.337   4.090 -0.1857  0.1078  0.3125
 8145TIP3    H124399   0.847   3.372   4.136  0.1962 -0.6668  0.2759
 8145TIP3    H224400   0.806   3.268   4.034 -0.5922  1.1937 -1.3800
 8146TIP3   OH224401   4.507   3.737   0.229  0.2453  0.0120  0.2654
 8146TIP3    H124402   4.472   3.658   0.270  0.8917  0.0206  0.8511
 8146TIP3    H224403   4.594   3.711   0.197 -0.2099  0.0281 -1.0512
 8147TIP3   OH224404   3.049   4.382   1.532  0.2938 -0.0473 -0.1718
 8147TIP3    H124405   3.064   4.383   1.437  2.1220  2.3087  0.0380
 8147TIP3    H224406   2.978   4.320   1.544  0.0216 -0.4649 -3.0851
 8148TIP3   OH224407   0.832   0.515   3.385 -0.3579 -0.0558 -1.0222
 8148TIP3    H124408   0.872   0.560   3.460  1.2680  0.8711 -2.3927
 8148TIP3    H224409   0.738   0.528   3.397 -0.0405  1.5532 -0.0342
 8149TIP3   OH224410   5.252   5.970   3.437  0.1795 -0.7312  0.1377
 8149TIP3    H124411   5.287   6.003   3.519 -0.5122  0.2419  0.0578
 8149TIP3    H224412   5.168   5.930   3.461 -1.0934  1.5092 -0.3683
 8150TIP3   OH224413   3.064   3.812   1.836  0.1280  0.1807 -0.0860
 8150TIP3    H124414   3.048   3.724   1.802 -0.0025 -0.5795  1.7885
 8150TIP3    H224415   3.159   3.821   1.838  0.2321 -0.7756  1.5887
 8151TIP3   OH224416   4.107   4.780   3.348  0.2254 -0.9079 -0.1470
 8151TIP3    H124417   4.084   4.860   3.302 -1.8629 -1.4681 -0.1525
 8151TIP3    H224418   4.194   4.798   3.385  0.3592  0.8624 -1.2162
 8152TIP3   OH224419   5.941   1.853   0.241 -0.0646 -0.7472  0.7273
 8152TIP3    H124420   5.855   1.851   0.283 -0.3192  1.0058  0.3926
 8152TIP3    H224421   6.002   1.825   0.309 -1.0001 -3.4983  0.5330
 8153TIP3   OH224422   5.797   5.923   4.651 -0.5591 -0.1075 -0.1635
 8153TIP3    H124423   5.704   5.923   4.673 -0.6781 -1.0528 -0.5932
 8153TIP3    H224424   5.800   5.896   4.559  0.2824 -4.5954  0.9406
 8154TIP3   OH224425   0.948   4.895   3.018 -0.1660  0.0485 -0.1942
 8154TIP3    H124426   0.990   4.976   2.989  0.5840 -0.9009 -1.9122
 8154TIP3    H224427   1.014   4.827   3.001 -0.4864 -0.8623  1.8878
 8155TIP3   OH224428   3.087   2.819   1.784 -0.2925  0.5604 -0.1764
 8155TIP3    H124429   3.176   2.812   1.748 -0.3944  1.4656 -0.6347
 8155TIP3    H224430   3.077   2.912   1.804 -0.4683  0.1913  1.6613
 8156TIP3   OH224431   2.049   3.162   1.624 -0.5413 -0.2733  0.0963
 8156TIP3    H124432   2.110   3.161   1.698  1.1067 -0.6302 -1.2139
 8156TIP3    H224433   2.053   3.253   1.592  0.1245 -0.5439 -0.6201
 8157TIP3   OH224434   6.662   0.967   1.136  0.5829  0.2853  0.0199
 8157TIP3    H124435   6.622   1.054   1.144  0.4458  0.3990 -1.5542
 8157TIP3    H224436   6.675   0.956   1.041  0.5370 -1.4446  0.1942
 8158TIP3   OH224437   3.143   1.749   5.331 -0.0622 -0.0136 -0.1108
 8158TIP3    H124438   3.085   1.783   5.262 -1.6715  0.5207  1.4314
 8158TIP3    H224439   3.173   1.665   5.297  0.1494  0.7545 -1.9631
 8159TIP3   OH224440   4.469   3.392   2.314  0.0424 -0.3545 -0.1348
 8159TIP3    H124441   4.470   3.448   2.392 -1.6856  0.3304 -0.5478
 8159TIP3    H224442   4.381   3.353   2.314  0.2087 -0.7862 -1.4301
 8160TIP3   OH224443   4.818   2.862   1.836 -0.6062 -0.5349 -0.1612
 8160TIP3    H124444   4.889   2.827   1.782  0.1423 -0.1624  0.5574
 8160TIP3    H224445   4.826   2.957   1.827 -1.0263 -0.4913 -0.0851
 8161TIP3   OH224446   0.753   5.482   1.793 -0.0820  0.5572 -0.7333
 8161TIP3    H124447   0.715   5.410   1.843  0.8225  0.8530  0.4343
 8161TIP3    H224448   0.740   5.458   1.701 -1.0218 -0.4171 -0.3646
 8162TIP3   OH224449   3.857  -0.007   3.525  0.7888 -0.0890  0.6525
 8162TIP3    H124450   3.821  -0.030   3.440 -0.2901  0.4829  0.9342
 8162TIP3    H224451   3.922   0.062   3.507  2.2541 -1.5623  0.0745
 8163TIP3   OH224452   3.896   5.547   0.367  0.6055  0.6550 -0.5528
 8163TIP3    H124453   3.838   5.510   0.300 -2.9917  2.2874  1.3729
 8163TIP3    H224454   3.893   5.641   0.351  3.2464  0.8095 -0.6169
 8164TIP3   OH224455   1.807   0.862   0.347  0.2672 -0.1558  0.3786
 8164TIP3    H124456   1.892   0.820   0.334  0.6087  0.1239  1.6387
 8164TIP3    H224457   1.773   0.823   0.428 -0.2022  0.7070  0.6024
 8165TIP3   OH224458   4.012   2.705   2.060 -0.1554  0.3792 -0.3682
 8165TIP3    H124459   3.962   2.624   2.067 -1.2778  1.0312 -0.5969
 8165TIP3    H224460   4.015   2.724   1.966  2.9751 -1.0960 -0.6943
 8166TIP3   OH224461   6.934   3.342   3.378 -0.1067 -0.2366  0.3603
 8166TIP3    H124462   6.951   3.385   3.294 -0.2424 -0.8481  0.0152
 8166TIP3    H224463   7.016   3.297   3.398 -0.2522 -0.5388  0.2842
 8167TIP3   OH224464   5.347   5.359   1.773 -0.0288 -0.4608  0.2754
 8167TIP3    H124465   5.422   5.311   1.807 -0.9508 -2.0795  0.1296
 8167TIP3    H224466   5.326   5.315   1.691 -0.8118  0.3173  0.0402
 8168TIP3   OH224467   1.002   4.388   1.156 -0.5100  0.1166 -0.3249
 8168TIP3    H124468   1.015   4.294   1.165 -2.0815 -0.1566 -0.6111
 8168TIP3    H224469   1.030   4.424   1.240 -0.9977 -0.7325  0.2127
 8169TIP3   OH224470   4.861   4.096   2.912 -0.4113  0.3600  0.0727
 8169TIP3    H124471   4.878   4.172   2.857 -1.3188  2.3475  2.3767
 8169TIP3    H224472   4.882   4.125   3.001 -1.7145 -1.7573  1.1600
 8170TIP3   OH224473   4.269   4.193   2.167  0.4776  0.1262 -0.2109
 8170TIP3    H124474   4.261   4.115   2.112  0.3065  0.7227 -1.0554
 8170TIP3    H224475   4.349   4.236   2.137  0.2612  0.5771 -0.1452
 8171TIP3   OH224476   4.935   4.815   2.363 -0.2294 -0.8690  0.3984
 8171TIP3    H124477   4.979   4.869   2.429  0.0337  0.1163 -0.5493
 8171TIP3    H224478   4.987   4.827   2.284 -0.8826 -1.5518 -0.1436
 8172TIP3   OH224479   5.254   4.837   0.579 -0.5826  0.2297  0.2541
 8172TIP3    H124480   5.339   4.858   0.540 -1.2650  1.4206 -0.6525
 8172TIP3    H224481   5.267   4.854   0.673 -0.2343  1.9287 -0.0660
 8173TIP3   OH224482   3.009   2.241   2.072 -0.3202  0.0110  0.5075
 8173TIP3    H124483   3.047   2.293   2.001 -0.2871 -0.4147  0.2137
 8173TIP3    H224484   2.985   2.306   2.138 -1.4716  0.5371 -0.4006
 8174TIP3   OH224485   1.902   2.566   4.139  0.5137 -0.0748 -0.4704
 8174TIP3    H124486   1.914   2.647   4.089 -0.5749  0.8260  0.6594
 8174TIP3    H224487   1.811   2.568   4.168 -0.1092 -2.6271 -1.9033
 8175TIP3   OH224488   0.332   5.309   2.324 -0.6279  0.0381 -0.2048
 8175TIP3    H124489   0.396   5.363   2.280  0.7013 -0.8217  0.6043
 8175TIP3    H224490   0.286   5.369   2.383 -0.2993  0.5874 -0.5016
 8176TIP3   OH224491   0.839   3.338   2.728 -0.7273 -0.0284 -0.5372
 8176TIP3    H124492   0.872   3.284   2.656 -0.1049 -1.3573  0.6931
 8176TIP3    H224493   0.795   3.276   2.785  0.3442  0.6847  1.1208
 8177TIP3   OH224494   1.349   4.892   4.930  0.0741  0.2203  0.1351
 8177TIP3    H124495   1.345   4.971   4.984 -0.9354  0.6428 -0.5357
 8177TIP3    H224496   1.361   4.821   4.993  2.1766  0.9878  0.6582
 8178TIP3   OH224497   2.468   0.955   4.577  0.0565  0.3296 -0.4777
 8178TIP3    H124498   2.546   1.006   4.557  0.0248 -0.1819 -2.0004
 8178TIP3    H224499   2.421   1.008   4.642  1.0667  1.2044 -0.4306
 8179TIP3   OH224500   0.609   5.512   3.288  0.1390  0.3074 -0.4205
 8179TIP3    H124501   0.577   5.564   3.215 -0.2939  1.6911  0.7004
 8179TIP3    H224502   0.656   5.439   3.248 -4.8672 -2.3460 -2.3026
 8180TIP3   OH224503   1.492   4.043   1.985  0.2420  0.5059  0.0938
 8180TIP3    H124504   1.462   4.082   2.067 -0.5613  0.3255 -0.1028
 8180TIP3    H224505   1.497   3.949   2.003 -0.3138  0.4212 -0.1680
 8181TIP3   OH224506   2.735   2.980   1.132 -0.0233  0.0353 -0.0936
 8181TIP3    H124507   2.647   2.998   1.164 -0.0844  0.2202 -0.3670
 8181TIP3    H224508   2.778   3.065   1.127 -0.2206  0.0946 -1.1020
 8182TIP3   OH224509   0.260   1.480   4.425 -0.0520  0.4057  0.1294
 8182TIP3    H124510   0.265   1.549   4.359  0.4642 -1.4318 -1.8619
 8182TIP3    H224511   0.351   1.454   4.439 -0.3599 -1.4063 -0.9301
 8183TIP3   OH224512   5.625   4.156   1.551  0.2322  0.1065 -0.4609
 8183TIP3    H124513   5.617   4.241   1.508  2.7851  0.7209  0.1152
 8183TIP3    H224514   5.644   4.178   1.643 -0.0297 -1.1083 -0.1057
 8184TIP3   OH224515   0.379   2.768   2.588  0.1955  0.3487 -0.4554
 8184TIP3    H124516   0.327   2.691   2.566  0.7864 -0.1073 -0.2684
 8184TIP3    H224517   0.434   2.782   2.511  0.2195  0.4805 -0.4154
 8185TIP3   OH224518   1.197   4.989   5.294 -1.0092  0.0403  0.4974
 8185TIP3    H124519   1.246   4.916   5.256  1.8773  2.3565 -0.5927
 8185TIP3    H224520   1.199   4.973   5.388  2.0853  0.0210  0.5308
 8186TIP3   OH224521   6.231   1.778   5.424 -0.1854 -0.4986 -0.5194
 8186TIP3    H124522   6.182   1.790   5.343 -1.1200  1.5652  0.2978
 8186TIP3    H224523   6.182   1.710   5.472 -0.3026 -0.8673 -1.1537
 8187TIP3   OH224524   4.343   0.569   2.802 -0.3565 -0.8454 -0.1508
 8187TIP3    H124525   4.319   0.662   2.799 -0.8515 -0.9721 -0.1755
 8187TIP3    H224526   4.329   0.543   2.893 -1.2868 -1.1698 -0.3772
 8188TIP3   OH224527   1.752   1.111   2.222  0.8557  0.2756 -0.0377
 8188TIP3    H124528   1.765   1.075   2.134 -0.5021 -0.1910 -0.0611
 8188TIP3    H224529   1.730   1.035   2.275  1.0823  0.6453  0.5911
 8189TIP3   OH224530   2.565   0.536   0.258  0.3322  0.2412  0.2316
 8189TIP3    H124531   2.550   0.546   0.164  1.2808 -1.1513 -0.0923
 8189TIP3    H224532   2.592   0.445   0.269  1.3314  0.6757  1.7162
 8190TIP3   OH224533   4.849   4.903   1.245 -0.4286 -0.1126 -0.3930
 8190TIP3    H124534   4.922   4.965   1.249 -2.1078  1.9054  0.4977
 8190TIP3    H224535   4.838   4.884   1.152  0.2333  0.7600 -0.6566
 8191TIP3   OH224536   4.753   0.146   2.213  0.1134  0.3519  0.2842
 8191TIP3    H124537   4.677   0.093   2.240 -0.0339  0.1505 -0.5110
 8191TIP3    H224538   4.798   0.092   2.149  0.4580  0.8295  0.1219
 8192TIP3   OH224539   2.415   1.937   3.329  0.7136  0.2165  0.4600
 8192TIP3    H124540   2.406   1.914   3.236  2.6304 -1.8452  0.7145
 8192TIP3    H224541   2.450   2.026   3.328  1.7740 -0.1788 -0.8537
 8193TIP3   OH224542   2.105   4.195   2.412  0.1979 -0.4503 -0.4587
 8193TIP3    H124543   2.155   4.238   2.342 -1.1081  0.0510 -1.1260
 8193TIP3    H224544   2.027   4.249   2.421 -0.5857 -1.6396  0.0065
 8194TIP3   OH224545   2.053   0.186   2.754  0.0683  0.0983  0.3169
 8194TIP3    H124546   2.079   0.268   2.713 -1.2821 -0.0145 -0.8302
 8194TIP3    H224547   2.135   0.146   2.781  0.8591  1.0915 -0.5212
 8195TIP3   OH224548   5.064   5.911   5.552  0.5076 -0.3564 -0.0875
 8195TIP3    H124549   5.132   5.911   5.620  1.3774 -2.3235 -0.8713
 8195TIP3    H224550   5.006   5.839   5.577 -0.5828  0.4837 -0.1262
 8196TIP3   OH224551   3.927   2.710   1.507  0.3268  0.0955 -0.4127
 8196TIP3    H124552   4.014   2.690   1.474  0.8113 -0.5034  1.1359
 8196TIP3    H224553   3.874   2.725   1.429  1.9111  0.9316 -1.3742
 8197TIP3   OH224554   1.112   3.066   4.507  0.2374 -0.1263 -0.1423
 8197TIP3    H124555   1.135   3.130   4.575 -1.2942  0.0110  0.2813
 8197TIP3    H224556   1.123   3.114   4.425  5.0232 -1.1177 -0.3756
 8198TIP3   OH224557   3.839   1.280   2.148 -0.5201 -0.1321 -0.3022
 8198TIP3    H124558   3.760   1.242   2.187  0.0348 -1.1869 -0.1851
 8198TIP3    H224559   3.896   1.205   2.129  0.9743  0.6762  0.7452
 8199TIP3   OH224560   5.625   5.421   0.275  0.4041 -0.6988 -0.3661
 8199TIP3    H124561   5.581   5.501   0.246  0.7467  0.4286  2.0150
 8199TIP3    H224562   5.718   5.438   0.263  0.4780 -0.7612  0.1035
 8200TIP3   OH224563   4.532   4.312   2.113  0.0474  0.0651 -0.1091
 8200TIP3    H124564   4.521   4.376   2.183  1.2350 -1.1442  1.2515
 8200TIP3    H224565   4.606   4.345   2.061 -1.8574  1.8299 -1.9004
 8201TIP3   OH224566   2.305   0.750   4.484 -0.2225 -0.2863 -0.1074
 8201TIP3    H124567   2.226   0.790   4.445 -0.6848 -1.6219 -0.5881
 8201TIP3    H224568   2.361   0.825   4.506 -1.5702  0.6896  0.1391
 8202TIP3   OH224569   3.855   3.155   2.238  0.3870  0.0910  0.2288
 8202TIP3    H124570   3.919   3.097   2.280  1.5452  0.5703 -0.8391
 8202TIP3    H224571   3.772   3.133   2.281  1.1812 -0.8086  1.3778
 8203TIP3   OH224572   1.766   5.712   2.141  0.2733  0.2129  1.2382
 8203TIP3    H124573   1.700   5.720   2.209 -1.2261 -0.1277 -0.1328
 8203TIP3    H224574   1.803   5.624   2.153 -0.0310  0.1286  1.5616
 8204TIP3   OH224575   6.719   0.454   2.761 -0.0406  0.4195 -0.7011
 8204TIP3    H124576   6.790   0.395   2.786 -0.2182  0.4108 -0.1903
 8204TIP3    H224577   6.674   0.410   2.690 -0.9964 -0.7032  0.5577
 8205TIP3   OH224578   4.734   6.540   1.958 -0.4085  0.2959  0.0526
 8205TIP3    H124579   4.652   6.528   2.008 -0.2949 -1.3668 -0.0839
 8205TIP3    H224580   4.743   6.634   1.949 -0.3098  0.7521  3.4348
 8206TIP3   OH224581   2.494   3.663   5.344  0.5326  0.6117  0.4486
 8206TIP3    H124582   2.514   3.731   5.279  1.8864 -1.2552 -1.2436
 8206TIP3    H224583   2.578   3.618   5.357 -0.1666 -0.3165  2.0405
 8207TIP3   OH224584   1.940   3.739   4.968 -0.3177 -0.2591 -0.3324
 8207TIP3    H124585   1.897   3.673   5.022  0.5726 -0.3454  0.3036
 8207TIP3    H224586   2.033   3.715   4.970  0.2851  1.8697  1.2018
 8208TIP3   OH224587   1.976   2.127   5.613  0.2005 -0.0469 -0.2417
 8208TIP3    H124588   1.883   2.109   5.604  0.3882 -0.5962 -1.1917
 8208TIP3    H224589   2.005   2.151   5.525  0.9463  0.1816  0.0514
 8209TIP3   OH224590   5.576   3.370   0.758  0.1985 -0.0605 -0.0796
 8209TIP3    H124591   5.539   3.302   0.702  2.7399 -0.0391 -1.9364
 8209TIP3    H224592   5.528   3.450   0.733 -0.4076 -0.5127 -0.3934
 8210TIP3   OH224593   5.252   0.645   3.610 -0.1283 -0.2556  0.4985
 8210TIP3    H124594   5.348   0.649   3.619 -0.1828 -1.5747  1.9613
 8210TIP3    H224595   5.223   0.734   3.628  0.7590 -0.0185  0.8290
 8211TIP3   OH224596   4.680   2.024   5.532  0.4072  0.2759  0.1577
 8211TIP3    H124597   4.600   1.983   5.501 -0.3969  1.0712  1.1061
 8211TIP3    H224598   4.664   2.043   5.625  1.2244  1.5317  0.0727
 8212TIP3   OH224599   4.433   4.364   2.650 -0.2351 -0.0802 -0.4010
 8212TIP3    H124600   4.405   4.456   2.652  0.0337 -0.0121  0.5756
 8212TIP3    H224601   4.397   4.331   2.568 -2.2578  0.3005  0.2525
 8213TIP3   OH224602   3.602   6.826   3.297 -0.1971 -0.0602 -0.1053
 8213TIP3    H124603   3.662   6.753   3.286 -1.3385 -1.1175  0.3157
 8213TIP3    H224604   3.516   6.784   3.310 -0.9117  1.3618 -0.0197
 8214TIP3   OH224605   5.902   1.736   1.207  0.0219 -1.0577  0.2911
 8214TIP3    H124606   5.907   1.742   1.302 -0.8780 -1.7344  0.3971
 8214TIP3    H224607   5.859   1.817   1.179 -1.2612 -1.5983  0.6257
 8215TIP3   OH224608   5.385   3.296   5.538  0.8772 -0.4941  0.4334
 8215TIP3    H124609   5.382   3.391   5.525  0.5447 -0.7509 -1.8340
 8215TIP3    H224610   5.349   3.282   5.626 -1.4207  1.3128 -0.1340
 8216TIP3   OH224611   6.006   2.399   0.714 -0.4201 -0.4900 -0.2313
 8216TIP3    H124612   6.014   2.490   0.744 -1.0133  0.0353 -1.5851
 8216TIP3    H224613   5.918   2.372   0.741 -0.5928 -0.3347 -0.6201
 8217TIP3   OH224614   5.657   2.046   4.567  0.2412 -0.1945 -0.2669
 8217TIP3    H124615   5.593   2.109   4.600  2.8286  1.4947  1.9148
 8217TIP3    H224616   5.604   1.971   4.539 -2.6969  1.3212  0.7928
 8218TIP3   OH224617   7.176   0.855   4.502  0.0859 -0.7346  0.4435
 8218TIP3    H124618   7.150   0.924   4.563 -0.2443 -0.6055  0.1580
 8218TIP3    H224619   7.202   0.782   4.558  1.7500  0.0665  0.7902
 8219TIP3   OH224620   0.236   1.390   3.763  0.1463 -0.6822 -0.2935
 8219TIP3    H124621   0.208   1.365   3.851  0.0935  0.3325 -0.0169
 8219TIP3    H224622   0.276   1.310   3.728  1.7581 -0.6404  1.3017
 8220TIP3   OH224623   1.006   1.561   0.324  0.0241 -0.0807  0.5043
 8220TIP3    H124624   1.084   1.567   0.378  0.0942 -0.2560  0.4233
 8220TIP3    H224625   0.947   1.628   0.359 -0.8113 -1.6307  2.2239
 8221TIP3   OH224626   0.270   4.475   4.048  0.3467 -0.1028 -0.3723
 8221TIP3    H124627   0.190   4.432   4.018  0.4123 -0.9969  0.6945
 8221TIP3    H224628   0.291   4.537   3.978 -1.5904  0.5670 -0.4246
 8222TIP3   OH224629   6.514   5.801   5.637 -0.0752 -0.1344  0.4904
 8222TIP3    H124630   6.493   5.754   5.556  0.2897  0.4192  0.0706
 8222TIP3    H224631   6.558   5.735   5.692 -0.0415 -0.4233  0.1192
 8223TIP3   OH224632   2.135   1.389   5.547  0.8575 -0.0714 -0.6846
 8223TIP3    H124633   2.056   1.350   5.510 -1.5439  1.8593  2.0176
 8223TIP3    H224634   2.129   1.482   5.525  0.6745  0.6696  2.0632
 8224TIP3   OH224635   4.774   2.432   2.370 -0.4719 -0.4734 -0.1975
 8224TIP3    H124636   4.812   2.517   2.390  1.0184 -0.8238 -1.4298
 8224TIP3    H224637   4.687   2.452   2.336 -0.1848  0.5453 -0.3601
 8225TIP3   OH224638   1.835   0.527   4.603  0.1577  0.3297 -0.0530
 8225TIP3    H124639   1.847   0.616   4.636  0.6978  0.3321 -0.2502
 8225TIP3    H224640   1.742   0.523   4.579 -0.6459 -0.0999  2.7243
 8226TIP3   OH224641   6.183   1.625   3.122 -0.4425  0.0812 -0.1381
 8226TIP3    H124642   6.132   1.695   3.080  2.9368  2.2302 -1.1071
 8226TIP3    H224643   6.175   1.642   3.215 -2.3345 -0.3675 -0.1756
 8227TIP3   OH224644   5.200   2.080   4.097 -0.2280 -0.6570 -0.1218
 8227TIP3    H124645   5.116   2.109   4.133  0.3401  0.1623  0.6160
 8227TIP3    H224646   5.180   2.000   4.049 -1.7311  0.4776 -1.4718
 8228TIP3   OH224647   2.174   6.400   4.313  0.4845 -0.1345 -0.6542
 8228TIP3    H124648   2.198   6.310   4.338 -0.8095 -0.4880 -0.5939
 8228TIP3    H224649   2.227   6.419   4.236  1.7356 -0.4582  0.1004
 8229TIP3   OH224650   4.305   0.909   3.687 -0.2194 -0.1132 -0.0233
 8229TIP3    H124651   4.313   0.816   3.710  0.5977 -0.4210 -1.4608
 8229TIP3    H224652   4.222   0.915   3.640 -0.2453 -0.1252  0.0209
 8230TIP3   OH224653   3.757   2.228   5.483  0.6039  0.0911 -0.2840
 8230TIP3    H124654   3.763   2.322   5.467  0.9441  0.1684  0.2675
 8230TIP3    H224655   3.679   2.219   5.539 -0.0889 -0.0855 -1.2510
 8231TIP3   OH224656   3.923   5.303   3.120 -0.0189 -0.2407  0.3702
 8231TIP3    H124657   3.918   5.283   3.213  1.8657 -2.2050  0.1545
 8231TIP3    H224658   3.833   5.317   3.092 -0.7182 -0.8088  2.2538
 8232TIP3   OH224659   7.033   5.396   1.032  0.0570  0.2987  0.0608
 8232TIP3    H124660   7.055   5.346   1.111  0.8423 -1.1127 -1.0223
 8232TIP3    H224661   7.113   5.444   1.011  0.0783  0.1186 -0.2724
 8233TIP3   OH224662   4.274   1.058   4.709  0.0457 -0.3218  0.0703
 8233TIP3    H124663   4.179   1.049   4.705 -0.0165  0.6393 -1.5737
 8233TIP3    H224664   4.308   0.970   4.694 -0.5668 -0.7136  0.9100
 8234TIP3   OH224665   2.150   3.809   0.142 -0.0539  0.2245 -0.3528
 8234TIP3    H124666   2.159   3.735   0.202 -0.0581  0.1872 -0.3990
 8234TIP3    H224667   2.056   3.825   0.137 -0.0484  0.2880 -0.2755
 8235TIP3   OH224668   6.234   5.885   1.270 -0.4697 -0.3012  0.0892
 8235TIP3    H124669   6.327   5.906   1.274 -1.2512  4.0450 -0.2287
 8235TIP3    H224670   6.214   5.849   1.356  1.3182 -0.4659  0.4703
 8236TIP3   OH224671   5.136   1.841   0.098  0.5182  0.1874 -0.2311
 8236TIP3    H124672   5.187   1.922   0.091  1.2563  0.0437  2.4792
 8236TIP3    H224673   5.045   1.870   0.094  0.6298  1.7228  3.7026
 8237TIP3   OH224674   5.065   1.869   5.745  0.0041  0.1830 -0.3123
 8237TIP3    H124675   5.021   1.908   5.670 -0.3513  0.0328 -0.1834
 8237TIP3    H224676   4.994   1.844   5.805  0.3384  1.7377  0.8008
 8238TIP3   OH224677   6.658   3.505   1.908  0.8918  0.3272 -0.2452
 8238TIP3    H124678   6.571   3.527   1.874  1.7592  1.4937 -1.8205
 8238TIP3    H224679   6.691   3.587   1.946  2.2338  0.5598 -1.8189
 8239TIP3   OH224680   5.428   4.372   5.729  0.0315  0.0894  0.1743
 8239TIP3    H124681   5.473   4.450   5.762  1.3594 -0.0914 -1.1170
 8239TIP3    H224682   5.446   4.304   5.794  1.9605 -0.0708 -0.4723
 8240TIP3   OH224683   0.003   4.875   3.649  0.2234 -0.0696  0.3004
 8240TIP3    H124684   0.023   4.829   3.731  2.4305 -0.6254 -0.4886
 8240TIP3    H224685   0.016   4.808   3.581 -2.3593  0.1478 -0.5117
 8241TIP3   OH224686   4.183   3.284   4.625  0.0105  0.0300  0.3499
 8241TIP3    H124687   4.106   3.243   4.585 -0.2937  1.5034 -0.6508
 8241TIP3    H224688   4.180   3.375   4.596  1.4561  0.4270  1.3190
 8242TIP3   OH224689   4.624   5.127   3.103 -0.5340 -0.2963  0.5837
 8242TIP3    H124690   4.560   5.059   3.124 -0.2951 -0.4487  0.8174
 8242TIP3    H224691   4.572   5.206   3.090 -0.8440 -0.5879  0.0111
 8243TIP3   OH224692   6.870   3.060   3.256  0.0150 -0.2309 -0.4587
 8243TIP3    H124693   6.950   3.067   3.203  0.8048 -1.5137  0.5149
 8243TIP3    H224694   6.862   3.147   3.297 -0.0882  0.4751 -1.9034
 8244TIP3   OH224695   2.372   2.902   2.879 -0.1469 -0.3103  0.3924
 8244TIP3    H124696   2.370   2.853   2.797  0.6771 -1.5765  1.0909
 8244TIP3    H224697   2.304   2.861   2.933  1.5294 -1.7320  1.5165
 8245TIP3   OH224698   4.093   0.549   4.358 -0.2915  0.3466 -0.3867
 8245TIP3    H124699   4.031   0.621   4.366  0.1340  0.8413 -1.3476
 8245TIP3    H224700   4.154   0.578   4.290  1.1643 -0.0056  0.7377
 8246TIP3   OH224701   1.693   0.708   0.816  0.6169 -0.6856  0.0641
 8246TIP3    H124702   1.703   0.652   0.739  1.1106 -0.1772 -0.2496
 8246TIP3    H224703   1.783   0.733   0.839  0.4986 -1.0832  0.9914
 8247TIP3   OH224704   4.964   3.415   5.343 -0.4610 -0.2437  0.3703
 8247TIP3    H124705   5.012   3.353   5.288  0.8639  0.0789  1.1267
 8247TIP3    H224706   4.953   3.369   5.426  0.6809  0.5692  0.9920
 8248TIP3   OH224707   1.889   6.739   4.820 -0.4430 -0.5047 -0.2468
 8248TIP3    H124708   1.980   6.719   4.840 -0.3761 -0.7864 -0.8090
 8248TIP3    H224709   1.849   6.758   4.905  0.4579  0.9665 -0.1063
 8249TIP3   OH224710   5.167   4.188   1.735 -0.5296 -0.4788 -0.5696
 8249TIP3    H124711   5.226   4.263   1.726 -0.6048 -0.2788  0.4730
 8249TIP3    H224712   5.102   4.216   1.799 -0.1634 -1.6698  0.3723
 8250TIP3   OH224713   2.462   3.167   2.360 -0.3368  0.1515  0.4367
 8250TIP3    H124714   2.523   3.238   2.381  0.7028 -0.7821  0.6695
 8250TIP3    H224715   2.477   3.101   2.427 -0.6110 -0.6851 -0.2979
 8251TIP3   OH224716   1.992   3.171   4.396  0.3923 -0.5025  0.0650
 8251TIP3    H124717   1.943   3.243   4.356  0.2504 -0.5864  0.0881
 8251TIP3    H224718   2.082   3.185   4.367  0.1246 -1.1286 -1.1049
 8252TIP3   OH224719   3.439   2.938   5.062 -0.3008  0.7635 -0.3137
 8252TIP3    H124720   3.455   2.995   4.987 -1.3271  0.7147 -0.5752
 8252TIP3    H224721   3.369   2.880   5.034  0.5860 -0.5027  0.0266
 8253TIP3   OH224722   6.236   2.934   3.606 -0.1483 -0.1730  0.1925
 8253TIP3    H124723   6.288   2.950   3.527 -0.2794  2.0607  0.4977
 8253TIP3    H224724   6.147   2.916   3.573 -0.0641  0.0994 -0.1881
 8254TIP3   OH224725   0.322   5.613   2.716  0.0009  0.4842  0.0741
 8254TIP3    H124726   0.260   5.654   2.776  1.5529 -0.2252  2.3326
 8254TIP3    H224727   0.377   5.558   2.773 -0.3992 -2.8254 -2.4067
 8255TIP3   OH224728   3.322   6.640   4.854  0.1875  0.4835  0.3694
 8255TIP3    H124729   3.249   6.682   4.808  0.8165  2.5966  1.1985
 8255TIP3    H224730   3.400   6.686   4.822  0.9777 -0.3924  0.9801
 8256TIP3   OH224731   1.660   1.335   3.904  0.3290  0.0813  0.3062
 8256TIP3    H124732   1.722   1.264   3.920  0.3802 -0.4679 -1.9849
 8256TIP3    H224733   1.714   1.408   3.873  0.1288  0.6583  1.2811
 8257TIP3   OH224734   0.054   4.912   3.146  0.3060  0.6265  0.4441
 8257TIP3    H124735   0.025   4.931   3.235  0.0682  0.3355  0.4285
 8257TIP3    H224736   0.033   4.991   3.096  1.2604  1.1460  0.8336
 8258TIP3   OH224737   0.153   3.475   5.254 -0.0202  0.4299  0.2299
 8258TIP3    H124738   0.225   3.438   5.202  0.5618  0.3346  1.0871
 8258TIP3    H224739   0.109   3.535   5.194  0.0979 -0.3294 -0.6440
 8259TIP3   OH224740   1.613   4.613   1.516  0.2653 -0.2558  0.0122
 8259TIP3    H124741   1.676   4.616   1.445  1.0383  1.2329  0.7022
 8259TIP3    H224742   1.609   4.521   1.542  1.8717 -0.4318 -0.3015
 8260TIP3   OH224743   6.915   1.950   2.936 -0.7939 -0.3775 -0.1718
 8260TIP3    H124744   6.844   1.886   2.940 -2.3431  1.3074  0.8282
 8260TIP3    H224745   6.887   2.012   2.868 -0.1779  0.2062  0.1014
 8261TIP3   OH224746   5.480   1.988   0.560 -0.7002  0.7158  0.2515
 8261TIP3    H124747   5.401   2.008   0.510  0.1125  0.9408 -0.9850
 8261TIP3    H224748   5.545   2.049   0.526  0.2511 -0.0866  0.5996
 8262TIP3   OH224749   3.621   5.243   3.745  0.4536  0.7450 -0.8464
 8262TIP3    H124750   3.566   5.314   3.711  1.2855  1.3377 -0.9832
 8262TIP3    H224751   3.566   5.200   3.811 -0.1310  1.3938 -0.8947
 8263TIP3   OH224752   3.363   4.153   0.281 -0.0882  0.1038 -0.0151
 8263TIP3    H124753   3.434   4.123   0.337  0.2229 -0.5944 -0.7825
 8263TIP3    H224754   3.406   4.195   0.207 -0.4466 -0.8659 -0.7923
 8264TIP3   OH224755   4.715   0.375   5.345 -0.5286 -0.3253 -0.2888
 8264TIP3    H124756   4.691   0.398   5.435  0.5154  0.3333 -0.1667
 8264TIP3    H224757   4.651   0.308   5.320 -0.7289 -0.6388  0.9957
 8265TIP3   OH224758   0.398   0.010   5.714  0.0072  0.2279  0.0449
 8265TIP3    H124759   0.482   0.056   5.719  0.6467 -0.9901  0.8981
 8265TIP3    H224760   0.376  -0.011   5.805  0.9583 -3.2107 -0.3795
 8266TIP3   OH224761   3.662   4.488   5.312  0.1352  0.3831 -0.7444
 8266TIP3    H124762   3.728   4.458   5.249  0.7805  1.0878 -0.4141
 8266TIP3    H224763   3.712   4.519   5.387 -0.5345  1.8274 -0.8731
 8267TIP3   OH224764   1.266   0.739   0.406  0.2474  0.5857 -0.5076
 8267TIP3    H124765   1.350   0.744   0.361  0.5053  0.7247 -0.0165
 8267TIP3    H224766   1.282   0.778   0.492  0.1393 -0.9615  0.2462
 8268TIP3   OH224767   0.999   5.143   4.926 -0.0477  0.4376  0.4592
 8268TIP3    H124768   0.966   5.201   4.995  0.4990  0.0053  1.1069
 8268TIP3    H224769   0.955   5.060   4.942 -0.8085  0.6514 -0.4509
 8269TIP3   OH224770   5.122   0.287   5.695 -0.1673  0.3732  0.3619
 8269TIP3    H124771   5.100   0.347   5.623 -2.8274 -0.2083  0.5876
 8269TIP3    H224772   5.055   0.219   5.690  0.4184 -0.4277  2.5451
 8270TIP3   OH224773   0.470   2.087   1.657 -0.2501  0.0720  0.6408
 8270TIP3    H124774   0.477   2.180   1.678  0.3048  0.0534  0.5489
 8270TIP3    H224775   0.452   2.045   1.742 -0.7557  0.2867  0.6414
 8271TIP3   OH224776   1.913   3.612   2.209 -0.1343 -0.6271  0.3896
 8271TIP3    H124777   1.938   3.525   2.178 -0.3382 -0.3680 -0.5093
 8271TIP3    H224778   1.879   3.657   2.132 -0.0184  0.2579  0.8400
 8272TIP3   OH224779   6.475   6.026   5.168 -0.1844 -0.1705 -0.0201
 8272TIP3    H124780   6.525   5.945   5.181  1.5330  1.0336  1.4289
 8272TIP3    H224781   6.419   6.032   5.245 -0.0305  0.1846  0.0672
 8273TIP3   OH224782   4.950   3.183   5.513 -0.4232  0.0423 -0.2690
 8273TIP3    H124783   4.927   3.163   5.604  1.5080 -0.8633  0.0721
 8273TIP3    H224784   4.914   3.110   5.463 -1.5116  0.5531 -0.2540
 8274TIP3   OH224785   6.634   2.092   1.240  0.0727 -0.3332  0.8367
 8274TIP3    H124786   6.654   2.106   1.333 -0.5805  0.2225  0.8999
 8274TIP3    H224787   6.538   2.092   1.236  0.0820  0.8274  0.0031
 8275TIP3   OH224788   1.656   2.459   4.525  0.0822 -0.7290  0.3124
 8275TIP3    H124789   1.669   2.405   4.603  2.2496  0.1479  0.6238
 8275TIP3    H224790   1.644   2.396   4.454 -1.0664 -1.5503  1.2067
 8276TIP3   OH224791   5.979   6.490   3.815 -0.3155  0.5671  0.1406
 8276TIP3    H124792   6.047   6.511   3.751  0.4480  0.7580  1.0001
 8276TIP3    H224793   5.945   6.405   3.787  1.2183 -0.1747  0.4614
 8277TIP3   OH224794   2.172   4.411   4.824  0.1776  0.2205  0.3211
 8277TIP3    H124795   2.264   4.432   4.817  0.4821 -0.8464  0.8232
 8277TIP3    H224796   2.136   4.477   4.884  0.0313  2.1791 -1.7957
 8278TIP3   OH224797   4.234   6.691   4.626  0.0839 -0.2747 -0.0570
 8278TIP3    H124798   4.246   6.616   4.685  0.1002 -1.5212 -1.5741
 8278TIP3    H224799   4.143   6.717   4.639 -0.7079 -2.2112 -1.2851
 8279TIP3   OH224800   5.931   3.907   2.721 -0.5562 -0.2472 -0.2828
 8279TIP3    H124801   5.955   3.922   2.812 -1.6609 -0.4331  0.0544
 8279TIP3    H224802   5.961   3.986   2.675 -2.4586  1.1591  0.7295
 8280TIP3   OH224803   4.673   1.792   1.695 -0.1047 -0.1519 -0.0121
 8280TIP3    H124804   4.637   1.735   1.762 -0.4366  0.6474  0.5040
 8280TIP3    H224805   4.738   1.846   1.740  0.3880 -0.2915 -0.5435
 8281TIP3   OH224806   5.820   5.081   1.249 -0.3243  0.0108 -0.1650
 8281TIP3    H124807   5.742   5.124   1.213 -0.5331 -0.5710 -0.4224
 8281TIP3    H224808   5.867   5.049   1.172  0.8072  1.4072 -0.0890
 8282TIP3   OH224809   4.334   4.565   4.589  0.1506 -0.2803 -0.2641
 8282TIP3    H124810   4.333   4.649   4.636  4.0383  0.0325 -0.3839
 8282TIP3    H224811   4.368   4.587   4.503  1.2365 -1.9630 -0.3043
 8283TIP3   OH224812   2.164   6.256   1.935 -1.1948 -0.3638  0.0395
 8283TIP3    H124813   2.204   6.322   1.878 -0.5313 -0.8015 -0.0086
 8283TIP3    H224814   2.212   6.263   2.017  1.7869 -3.5319 -1.1906
 8284TIP3   OH224815   4.470   1.351   4.573 -0.4309 -0.1863 -0.1442
 8284TIP3    H124816   4.546   1.357   4.516 -0.0686 -1.1398  0.2171
 8284TIP3    H224817   4.460   1.438   4.610 -0.3270  0.2988 -1.2197
 8285TIP3   OH224818   0.565   1.836   4.209 -0.8066  0.1598  0.0872
 8285TIP3    H124819   0.660   1.835   4.215 -0.7775 -2.2951  0.2829
 8285TIP3    H224820   0.537   1.900   4.274  0.6817  0.4699  0.4586
 8286TIP3   OH224821   6.119   5.753   1.815  0.5668  0.1332 -0.2196
 8286TIP3    H124822   6.040   5.704   1.841 -0.8781  1.9114 -1.0106
 8286TIP3    H224823   6.142   5.804   1.892  1.7944 -1.3440  0.4488
 8287TIP3   OH224824   3.389   5.067   2.013  0.2422 -0.1424 -0.5667
 8287TIP3    H124825   3.325   5.010   2.055  2.0495 -0.4555  1.9913
 8287TIP3    H224826   3.454   5.008   1.976  0.0995  0.2156 -1.4151
 8288TIP3   OH224827   4.088   2.491   1.220 -0.3559 -0.6038 -0.5662
 8288TIP3    H124828   4.181   2.506   1.208 -0.5533  0.2877 -1.1380
 8288TIP3    H224829   4.051   2.579   1.232 -1.2217 -0.8632 -1.2282
 8289TIP3   OH224830   5.185   0.412   1.904 -0.6649 -0.0868  0.2500
 8289TIP3    H124831   5.244   0.342   1.931  0.3977  0.9108  0.5875
 8289TIP3    H224832   5.191   0.477   1.974 -1.1341  0.6377 -0.3593
 8290TIP3   OH224833   0.699   3.722   4.971  0.4555  0.0792  0.5198
 8290TIP3    H124834   0.742   3.715   5.056  0.5976 -1.2637  0.3600
 8290TIP3    H224835   0.758   3.679   4.910 -0.8213 -1.3158  0.2043
 8291TIP3   OH224836   4.953   1.142   2.271  0.1116 -0.1787 -0.6434
 8291TIP3    H124837   5.030   1.140   2.215  0.4970 -0.5736 -0.1104
 8291TIP3    H224838   4.926   1.233   2.272  0.4401 -0.0762 -1.0122
 8292TIP3   OH224839   2.642   5.341   4.928  0.3916 -0.5287 -0.5418
 8292TIP3    H124840   2.697   5.340   4.849 -1.3993  2.7576 -2.0047
 8292TIP3    H224841   2.693   5.390   4.992  1.2131 -1.9126 -0.0850
 8293TIP3   OH224842   1.456   0.380   0.439 -0.1401  0.0894 -0.0601
 8293TIP3    H124843   1.524   0.334   0.487  0.1643  0.1860 -0.3941
 8293TIP3    H224844   1.390   0.402   0.505  0.9060  1.4531  0.5684
 8294TIP3   OH224845   2.341   4.637   1.224 -0.4278 -0.6843 -0.5455
 8294TIP3    H124846   2.331   4.665   1.133 -0.1557 -1.6861 -0.9057
 8294TIP3    H224847   2.365   4.716   1.271  1.5055 -0.4888 -1.7281
 8295TIP3   OH224848   3.085   1.844   2.604 -0.4585  0.2302  0.3424
 8295TIP3    H124849   3.080   1.769   2.544  2.4165  0.0045  0.2282
 8295TIP3    H224850   3.092   1.805   2.691  1.7592  0.2332  0.2299
 8296TIP3   OH224851   4.009   3.746   3.719 -0.6120  0.0711  0.0909
 8296TIP3    H124852   4.071   3.812   3.750  0.3766 -0.8540  0.1763
 8296TIP3    H224853   3.965   3.787   3.645  0.1863  0.7270 -0.0401
 8297TIP3   OH224854   0.211   0.777   4.147  0.1479 -0.6983 -0.7424
 8297TIP3    H124855   0.178   0.766   4.057  0.4092  0.7715 -1.0439
 8297TIP3    H224856   0.298   0.814   4.136 -1.1780  3.0184  0.0847
 8298TIP3   OH224857   0.503   3.610   3.484 -0.1453  0.3171  0.1470
 8298TIP3    H124858   0.557   3.533   3.502  0.2678  0.4953 -0.3223
 8298TIP3    H224859   0.418   3.575   3.459  0.1467  0.0048 -0.4100
 8299TIP3   OH224860   1.197   3.633   2.441  0.0941  0.5844  0.4876
 8299TIP3    H124861   1.109   3.600   2.458  0.9689 -1.7483  0.7179
 8299TIP3    H224862   1.239   3.636   2.527  1.1602 -1.2172  0.0872
 8300TIP3   OH224863   4.631   0.428   2.369 -0.4639 -0.1771 -0.5622
 8300TIP3    H124864   4.566   0.395   2.307 -0.2228  0.5259 -1.1992
 8300TIP3    H224865   4.580   0.469   2.438 -0.8194 -2.4652  0.6510
 8301TIP3   OH224866   2.970   1.286   5.196 -0.6046  0.3649  0.0363
 8301TIP3    H124867   2.986   1.192   5.195 -1.0745  0.2595  1.4038
 8301TIP3    H224868   2.891   1.297   5.248 -0.8829  1.4781 -0.5924
 8302TIP3   OH224869   2.977   5.878   2.832  0.1014  0.1328 -0.1913
 8302TIP3    H124870   2.922   5.804   2.807 -0.3492  0.9863 -1.8718
 8302TIP3    H224871   3.035   5.843   2.899 -0.2889 -1.6650 -0.7380
 8303TIP3   OH224872   2.884   4.669   5.749  0.0365  0.0516  0.0443
 8303TIP3    H124873   2.822   4.711   5.690 -1.1862  0.8820  1.8220
 8303TIP3    H224874   2.861   4.703   5.836  2.4343 -0.2862  0.8904
 8304TIP3   OH224875   2.417   4.481   4.125  0.0923  0.4210 -0.2840
 8304TIP3    H124876   2.464   4.398   4.116  0.9102  0.6590  1.3029
 8304TIP3    H224877   2.325   4.457   4.120  0.3171 -0.5884  0.0478
 8305TIP3   OH224878   0.535   4.102   4.497  0.1075  0.4739  0.4813
 8305TIP3    H124879   0.593   4.050   4.441  2.2099 -0.7706  3.5526
 8305TIP3    H224880   0.562   4.192   4.483  0.0463  0.2874 -1.0189
 8306TIP3   OH224881   3.880   4.999   1.866  0.7464 -0.1006  0.3236
 8306TIP3    H124882   3.872   4.914   1.909 -1.5135  0.4383  1.0855
 8306TIP3    H224883   3.805   5.003   1.806  2.0037  0.5199 -1.2842
 8307TIP3   OH224884   3.935   4.525   0.760 -0.0287 -0.2785  0.2113
 8307TIP3    H124885   3.888   4.543   0.678 -1.9212  0.1849  1.3384
 8307TIP3    H224886   3.893   4.447   0.795 -0.0865  0.2277  1.3209
 8308TIP3   OH224887   2.774   0.715   5.337 -0.1882 -0.4533  0.2282
 8308TIP3    H124888   2.733   0.761   5.410  0.2144  0.8545 -0.3290
 8308TIP3    H224889   2.735   0.755   5.259  1.6895  0.4730 -0.3135
 8309TIP3   OH224890   6.700   2.150   1.699  0.7037 -0.2252  0.9803
 8309TIP3    H124891   6.768   2.174   1.637 -1.3451 -1.2417 -1.8797
 8309TIP3    H224892   6.706   2.216   1.769  1.1788  2.9401 -1.8084
 8310TIP3   OH224893   2.507   2.314   1.615 -0.0487 -0.1783  0.2240
 8310TIP3    H124894   2.600   2.297   1.623 -0.1262 -1.1606 -0.7301
 8310TIP3    H224895   2.497   2.349   1.526 -0.8118 -1.9581 -0.4406
 8311TIP3   OH224896   6.017   4.296   1.515  0.1162  0.0437 -0.4831
 8311TIP3    H124897   5.928   4.292   1.479  0.0187 -0.2128 -0.2164
 8311TIP3    H224898   6.051   4.208   1.502  0.2571  0.0861 -0.3958
 8312TIP3   OH224899   1.394   2.562   0.737 -0.0951  0.4546  0.3696
 8312TIP3    H124900   1.407   2.505   0.661 -1.6313  0.8478 -0.2319
 8312TIP3    H224901   1.313   2.529   0.777  0.9864 -0.1164  2.2137
 8313TIP3   OH224902   4.964   1.034   1.773  0.1159  0.1050  0.4659
 8313TIP3    H124903   4.920   0.950   1.759  0.6926 -0.1001 -0.2061
 8313TIP3    H224904   5.040   1.013   1.827 -2.0545  0.8843  4.1321
 8314TIP3   OH224905   2.966   6.371   3.344 -0.2374 -0.4549  0.3858
 8314TIP3    H124906   2.922   6.453   3.369  0.9450  1.7705 -3.8485
 8314TIP3    H224907   2.894   6.310   3.327 -1.5243  1.2664 -0.8193
 8315TIP3   OH224908   2.484   5.968   0.450 -0.3559 -0.0643 -0.0795
 8315TIP3    H124909   2.418   6.028   0.418  1.2369  1.2434 -1.0860
 8315TIP3    H224910   2.559   5.981   0.392  0.9960 -1.0473  1.3516
 8316TIP3   OH224911   2.489   1.175   4.150 -0.2761 -0.7420 -0.0882
 8316TIP3    H124912   2.423   1.121   4.194  0.4395 -0.5058  1.3253
 8316TIP3    H224913   2.537   1.218   4.221  0.6669 -0.0232 -1.1177
 8317TIP3   OH224914   6.913   5.788   3.568 -0.0067  0.0942  0.2959
 8317TIP3    H124915   6.900   5.694   3.556  0.4999 -0.0047  0.5250
 8317TIP3    H224916   6.920   5.822   3.479  0.7562 -0.2220  0.2282
 8318TIP3   OH224917   5.541   2.699   4.455  0.7352  0.4389 -0.0998
 8318TIP3    H124918   5.455   2.742   4.456  1.1411  1.3191  1.5558
 8318TIP3    H224919   5.562   2.688   4.362 -0.9231  0.6931 -0.5287
 8319TIP3   OH224920   6.030   0.776   4.829 -0.2227 -0.3020 -0.5207
 8319TIP3    H124921   6.112   0.797   4.784 -0.6421  0.7670 -0.8241
 8319TIP3    H224922   5.963   0.783   4.762 -1.0829  2.9761  0.4916
 8320TIP3   OH224923   4.968   6.441   3.294  0.3121 -0.1446  0.5747
 8320TIP3    H124924   4.909   6.514   3.316  0.4990 -0.2596  1.4767
 8320TIP3    H224925   4.930   6.365   3.337 -0.5894 -0.8823 -1.4020
 8321TIP3   OH224926   6.127   5.132   2.642 -0.5112  0.1192  0.6628
 8321TIP3    H124927   6.209   5.086   2.626 -1.1993 -1.5851  1.7526
 8321TIP3    H224928   6.153   5.216   2.680  0.7911  0.8157 -1.5983
 8322TIP3   OH224929   2.798   3.560   1.085 -0.3224 -0.2567 -0.1338
 8322TIP3    H124930   2.746   3.565   1.165  1.8653  0.0396  1.3790
 8322TIP3    H224931   2.789   3.470   1.055 -0.2398 -0.7048  1.1477
 8323TIP3   OH224932   2.050   6.062   5.275  0.1113  0.1784 -0.4244
 8323TIP3    H124933   1.956   6.049   5.278  0.1373  0.0925  0.6553
 8323TIP3    H224934   2.083   6.020   5.355  0.4217  4.6939  2.1943
 8324TIP3   OH224935   4.796   5.687   0.754  0.2289  0.4143  0.2562
 8324TIP3    H124936   4.737   5.612   0.756  1.0300 -0.2402 -0.1821
 8324TIP3    H224937   4.868   5.659   0.699  0.4873  1.5563 -0.0003
 8325TIP3   OH224938   0.012   2.633   1.087 -0.3960  0.0129 -0.1692
 8325TIP3    H124939   0.105   2.648   1.068 -0.4748 -0.2717 -0.8159
 8325TIP3    H224940   0.007   2.539   1.107 -0.3504  0.2676  1.0821
 8326TIP3   OH224941   6.890   1.582   1.828 -0.5925  0.3445 -0.2357
 8326TIP3    H124942   6.880   1.549   1.739  2.5053 -1.4684 -0.0581
 8326TIP3    H224943   6.840   1.521   1.882  1.0865 -1.2489 -0.3930
 8327TIP3   OH224944   4.391   2.157   4.972 -0.2584  0.4565  0.1701
 8327TIP3    H124945   4.393   2.158   4.876  0.0481 -0.2243  0.1645
 8327TIP3    H224946   4.393   2.249   4.997  1.4078  0.6217 -0.4467
 8328TIP3   OH224947   1.338   4.567   0.737  0.3635  0.4238 -0.5086
 8328TIP3    H124948   1.308   4.564   0.828  0.4717 -0.3477 -0.4881
 8328TIP3    H224949   1.432   4.548   0.743  0.9711  3.0621 -0.5443
 8329TIP3   OH224950   3.828   4.906   1.078 -0.0009 -0.1940 -0.0387
 8329TIP3    H124951   3.871   4.840   1.025 -1.9578 -0.4379 -1.4622
 8329TIP3    H224952   3.810   4.862   1.161  0.0125 -0.9803 -0.4400
 8330TIP3   OH224953   3.984   5.084   2.761 -0.0069  0.3087 -0.9938
 8330TIP3    H124954   4.071   5.123   2.769  0.1673  0.4066 -2.8773
 8330TIP3    H224955   4.002   4.990   2.749 -0.1416  0.3652 -1.6427
 8331TIP3   OH224956   6.664   5.823   5.236 -0.4886 -0.0440 -0.2229
 8331TIP3    H124957   6.645   5.747   5.291  2.4092 -0.4485  0.4162
 8331TIP3    H224958   6.670   5.787   5.147  1.4394 -0.7765  0.1458
 8332TIP3   OH224959   4.517   4.433   5.300  0.5173  0.3368  0.0422
 8332TIP3    H124960   4.603   4.461   5.269  2.2705 -1.2764  2.9667
 8332TIP3    H224961   4.512   4.341   5.276 -0.3880  0.3886 -0.0036
 8333TIP3   OH224962   6.012   2.625   5.520 -0.7555  0.8924  0.6731
 8333TIP3    H124963   6.058   2.667   5.592 -0.9163  0.3182  1.1237
 8333TIP3    H224964   5.996   2.535   5.551  0.5304  0.1506 -0.6667
 8334TIP3   OH224965   1.607   6.275   1.765 -0.1767 -0.0160 -0.1145
 8334TIP3    H124966   1.600   6.218   1.841 -1.6220 -0.6229 -0.6658
 8334TIP3    H224967   1.529   6.330   1.769  0.0439  0.3635 -0.8230
 8335TIP3   OH224968   0.582   5.715   3.078  0.3346 -0.3760 -0.0681
 8335TIP3    H124969   0.621   5.726   2.991  1.3375  0.2191  0.4406
 8335TIP3    H224970   0.602   5.796   3.124 -1.2186 -0.1839  0.3515
 8336TIP3   OH224971   1.001   0.483   4.091  0.1636  0.0372 -0.1939
 8336TIP3    H124972   1.059   0.487   4.167 -1.0976 -0.8721  0.8802
 8336TIP3    H224973   0.933   0.421   4.117 -1.7339  1.6301 -1.0645
 8337TIP3   OH224974   2.676   4.694   0.338  0.2833 -0.1297  0.2772
 8337TIP3    H124975   2.755   4.682   0.391  1.1512  0.4455 -0.8375
 8337TIP3    H224976   2.634   4.772   0.375  0.9754  0.3747  0.0219
 8338TIP3   OH224977   0.042   1.387   2.987  0.0666 -0.1523  0.1299
 8338TIP3    H124978   0.005   1.305   2.956 -1.6619  0.3422  0.7710
 8338TIP3    H224979   0.137   1.372   2.988 -0.1188 -1.6496 -1.0635
 8339TIP3   OH224980   2.569   5.402   4.631  0.1928  0.9467  0.2146
 8339TIP3    H124981   2.658   5.377   4.656  0.6166  1.9166 -0.2831
 8339TIP3    H224982   2.529   5.321   4.601  1.2009  0.6609 -0.4072
 8340TIP3   OH224983   4.940   3.025   2.516  0.0851  0.0381 -0.0458
 8340TIP3    H124984   4.857   3.018   2.469  1.1618 -0.3250 -1.9706
 8340TIP3    H224985   4.931   2.962   2.588 -1.1868 -0.2230 -0.4005
 8341TIP3   OH224986   6.938   6.734   3.172 -0.3463  0.0139 -0.2922
 8341TIP3    H124987   6.902   6.656   3.216  0.7186  0.0363  0.6714
 8341TIP3    H224988   7.014   6.701   3.123  0.7723  0.5691  0.9872
 8342TIP3   OH224989   6.011   3.145   4.826 -0.0144  0.3510  0.4886
 8342TIP3    H124990   6.041   3.233   4.847  1.3390  0.1423 -0.4347
 8342TIP3    H224991   6.066   3.117   4.753 -0.4212 -1.2617  0.7437
 8343TIP3   OH224992   2.790   4.463   4.112 -0.0489 -0.7425 -0.3568
 8343TIP3    H124993   2.783   4.499   4.201 -1.7187 -1.5678 -0.0967
 8343TIP3    H224994   2.842   4.384   4.123  2.3716  0.7133 -0.6833
 8344TIP3   OH224995   6.844   6.530   0.865 -0.3691  0.2907  0.6972
 8344TIP3    H124996   6.927   6.482   0.862  0.4635  1.6279  1.1705
 8344TIP3    H224997   6.777   6.462   0.870  0.4939 -0.9367 -2.2363
 8345TIP3   OH224998   6.174   6.676   3.643  0.9722 -0.4431  0.7151
 8345TIP3    H124999   6.266   6.699   3.627  0.4510  0.9974 -0.4674
 8345TIP3    H225000   6.151   6.617   3.571  0.7321 -0.0761  0.4867
 8346TIP3   OH225001   0.494   1.018   3.936 -0.5429  0.4579  0.1617
 8346TIP3    H125002   0.512   1.065   4.018 -0.6904  1.5618 -0.4144
 8346TIP3    H225003   0.499   1.086   3.869 -2.0356 -0.1187 -0.5655
 8347TIP3   OH225004   7.208   4.426   4.737  0.3325  0.4871  0.4017
 8347TIP3    H125005   7.275   4.470   4.684  1.7118 -0.3621  1.3835
 8347TIP3    H225006   7.138   4.406   4.675  1.5455  0.2420 -0.9377
 8348TIP3   OH225007   6.651   6.500   5.379  0.3931 -0.7601  0.3762
 8348TIP3    H125008   6.599   6.572   5.415  0.0866 -1.1189  0.6647
 8348TIP3    H225009   6.740   6.518   5.407  0.1672 -1.0010  1.2693
 8349TIP3   OH225010   1.559   1.821   2.390 -0.0010 -0.1069  0.6087
 8349TIP3    H125011   1.636   1.876   2.375  0.0420 -0.1158  0.7925
 8349TIP3    H225012   1.551   1.816   2.486  0.1012 -0.5710  0.5957
 8350TIP3   OH225013   2.930   2.568   3.526  0.0398  0.0266  0.0557
 8350TIP3    H125014   3.017   2.602   3.549  0.0967  0.4471 -0.7535
 8350TIP3    H225015   2.871   2.642   3.542  0.2245  0.7187 -2.1633
 8351TIP3   OH225016   2.019   2.742   4.471  0.3307  0.0755 -0.2245
 8351TIP3    H125017   2.001   2.790   4.391 -0.5896 -0.1213 -0.1464
 8351TIP3    H225018   1.934   2.711   4.501  0.8040 -0.9401  0.1499
 8352TIP3   OH225019   0.811   4.264   2.943 -0.0185 -0.1062  0.4052
 8352TIP3    H125020   0.760   4.237   3.019 -1.5642  0.6708 -0.3218
 8352TIP3    H225021   0.900   4.276   2.977 -0.5306 -0.4294  1.9364
 8353TIP3   OH225022   6.383   0.391   3.332  0.1520  0.1304 -0.2086
 8353TIP3    H125023   6.396   0.485   3.332 -0.4576  0.2245  0.9021
 8353TIP3    H225024   6.409   0.363   3.244 -0.7755  1.4869 -0.9499
 8354TIP3   OH225025   4.407   3.021   4.009  0.3546  0.4393  0.0946
 8354TIP3    H125026   4.429   3.112   3.989  3.2907 -0.6592 -2.4414
 8354TIP3    H225027   4.470   2.996   4.077  0.8966 -0.2133 -0.6336
 8355TIP3   OH225028   3.572   6.283   4.952 -0.1688 -0.1990  0.2214
 8355TIP3    H125029   3.622   6.310   5.029 -1.3709  0.2406  0.8677
 8355TIP3    H225030   3.581   6.187   4.950 -1.1170 -0.3487  1.6312
 8356TIP3   OH225031   2.082   2.098   0.295  0.4461  0.1045 -0.1261
 8356TIP3    H125032   2.044   2.083   0.382 -0.0545 -0.9150 -0.5046
 8356TIP3    H225033   2.056   2.022   0.244  2.5202 -0.3669 -0.5771
 8357TIP3   OH225034   5.490   2.771   4.770  0.0923 -0.3231 -0.2783
 8357TIP3    H125035   5.453   2.690   4.736  1.3911 -0.8778 -0.4325
 8357TIP3    H225036   5.468   2.837   4.703  0.3383 -0.8602 -0.9027
 8358TIP3   OH225037   1.262   6.291   4.682  0.2853 -0.4461 -0.7162
 8358TIP3    H125038   1.292   6.382   4.673 -1.4754  0.1729 -0.5972
 8358TIP3    H225039   1.224   6.270   4.597 -0.8049 -0.4854 -0.2318
 8359TIP3   OH225040   3.983   3.297   0.567 -0.2123  0.0847  0.1052
 8359TIP3    H125041   3.941   3.219   0.531 -1.1427  0.3736  0.5261
 8359TIP3    H225042   3.919   3.332   0.629  1.2238 -0.2506  1.8506
 8360TIP3   OH225043   6.313   4.295   4.355  0.6911  0.0720  0.0050
 8360TIP3    H125044   6.325   4.250   4.272  1.3353 -0.6336  0.4641
 8360TIP3    H225045   6.278   4.229   4.414  0.7792  0.4064  0.4425
 8361TIP3   OH225046   5.338   0.305   4.517 -0.1036  0.1928  0.2274
 8361TIP3    H125047   5.245   0.295   4.539 -0.4406 -0.5436 -1.4041
 8361TIP3    H225048   5.367   0.380   4.569 -2.2171  1.9968 -0.9998
 8362TIP3   OH225049   6.849   6.378   1.528  0.2966 -1.4068 -0.1506
 8362TIP3    H125050   6.866   6.341   1.614  0.7655 -1.0991 -0.1064
 8362TIP3    H225051   6.914   6.448   1.518 -1.1784  0.0893  0.1769
 8363TIP3   OH225052   6.811   3.331   3.026 -0.2076 -0.1665  0.3396
 8363TIP3    H125053   6.751   3.279   2.973 -0.6174 -0.2708  0.9023
 8363TIP3    H225054   6.754   3.380   3.086  0.2398  0.0963  0.5541
 8364TIP3   OH225055   1.985   3.762   0.812  0.0036 -0.2818 -0.0602
 8364TIP3    H125056   2.060   3.738   0.758 -0.3108  0.5950 -0.9140
 8364TIP3    H225057   1.916   3.701   0.785 -0.1978  0.2526 -0.7747
 8365TIP3   OH225058   0.052   6.215   2.987 -0.3181  0.1129  0.1512
 8365TIP3    H125059   0.105   6.285   2.949 -0.7616  0.4263  0.1068
 8365TIP3    H225060  -0.038   6.235   2.961 -0.6845  0.5467  1.6560
 8366TIP3   OH225061   0.399   1.559   1.812  0.0739 -0.2331  0.2210
 8366TIP3    H125062   0.404   1.573   1.907  0.1277 -0.4338  0.2473
 8366TIP3    H225063   0.350   1.477   1.802 -0.6346  0.1942  0.0531
 8367TIP3   OH225064   5.778   1.835   2.332  0.3748  0.2230 -0.3422
 8367TIP3    H125065   5.684   1.849   2.321  0.3180 -0.5094 -0.8559
 8367TIP3    H225066   5.818   1.878   2.257  0.5504  1.5265  0.4728
 8368TIP3   OH225067   6.576   2.076   2.131  0.0350 -0.1167 -0.2473
 8368TIP3    H125068   6.509   2.133   2.094  0.0236  0.4126  0.5673
 8368TIP3    H225069   6.591   2.010   2.063  1.0408  1.6155 -1.8115
 8369TIP3   OH225070   3.441   4.745   2.274  0.8649  0.2102 -0.5375
 8369TIP3    H125071   3.493   4.744   2.194  0.8596 -2.9172 -0.6090
 8369TIP3    H225072   3.352   4.727   2.245  0.3451  1.8032 -0.0402
 8370TIP3   OH225073   2.002   0.141   1.180  0.2837 -0.4070 -0.2729
 8370TIP3    H125074   2.034   0.096   1.102  0.1766  0.8018 -1.0403
 8370TIP3    H225075   1.926   0.191   1.150  0.1901  0.0204  0.6208
 8371TIP3   OH225076   6.392   5.676   2.937 -0.0733 -0.0565  0.6745
 8371TIP3    H125077   6.435   5.761   2.929  1.6042 -0.7914  1.2282
 8371TIP3    H225078   6.425   5.626   2.863 -0.9333 -0.2761  0.4330
 8372TIP3   OH225079   0.517   6.761   1.406 -0.0109  0.2676 -0.0409
 8372TIP3    H125080   0.492   6.736   1.317  1.3237 -1.7123  0.0817
 8372TIP3    H225081   0.437   6.796   1.445 -0.5524  1.4986 -2.0874
 8373TIP3   OH225082   3.419   0.285   5.513  0.0701  0.4049 -0.5142
 8373TIP3    H125083   3.501   0.301   5.465  1.0318 -1.6502  0.3335
 8373TIP3    H225084   3.378   0.371   5.518  2.1047  1.4905 -1.0891
 8374TIP3   OH225085   6.074   2.553   3.187  0.1126 -0.1139 -0.0773
 8374TIP3    H125086   6.169   2.562   3.195 -0.0085 -0.2191  1.9860
 8374TIP3    H225087   6.062   2.476   3.132  1.2102  0.1314 -0.6918
 8375TIP3   OH225088   0.444   3.052   4.359 -0.7769  0.1903  0.0686
 8375TIP3    H125089   0.366   3.108   4.359 -0.7772  0.3213  2.9306
 8375TIP3    H225090   0.517   3.113   4.349 -0.9452  0.1356 -1.8861
 8376TIP3   OH225091   0.634   6.069   0.776 -0.0286 -0.0136 -0.0339
 8376TIP3    H125092   0.658   6.157   0.746 -1.9113  1.2170  1.8123
 8376TIP3    H225093   0.703   6.047   0.839 -0.2809  0.7756  0.5410
 8377TIP3   OH225094   5.453   1.758   3.254 -0.9216  0.4453 -0.3490
 8377TIP3    H125095   5.397   1.682   3.236 -0.6829  0.0946  0.3591
 8377TIP3    H225096   5.519   1.725   3.315 -0.3302  1.0227 -0.6744
 8378TIP3   OH225097   2.428   0.313   2.292  0.1567 -1.2081  0.1148
 8378TIP3    H125098   2.477   0.275   2.365  1.3348  0.8218  0.4396
 8378TIP3    H225099   2.482   0.296   2.215  0.2564 -0.9619  0.1297
 8379TIP3   OH225100   2.948   4.261   5.127  0.4876  0.4877  0.2177
 8379TIP3    H125101   3.038   4.228   5.124  0.5328  0.5126  1.0863
 8379TIP3    H225102   2.909   4.232   5.045  1.0623 -0.1742  0.1680
 8380TIP3   OH225103   4.903   2.430   5.141 -0.0155 -0.1760  0.3288
 8380TIP3    H125104   4.886   2.523   5.158 -0.4757  0.0020 -0.9922
 8380TIP3    H225105   4.825   2.385   5.173  0.4783 -0.1812  1.5486
 8381TIP3   OH225106   6.386   0.711   3.756  0.2688 -0.4404  0.4897
 8381TIP3    H125107   6.319   0.772   3.727  0.4553 -0.6205 -0.3400
 8381TIP3    H225108   6.381   0.638   3.694 -1.4764 -2.3674  2.7376
 8382TIP3   OH225109   0.390   0.390   5.660  0.0053 -0.7750  0.1427
 8382TIP3    H125110   0.435   0.467   5.694 -1.3743 -0.8067  2.2849
 8382TIP3    H225111   0.449   0.317   5.677  0.5056 -0.4297 -0.1078
 8383TIP3   OH225112   4.236   3.427   0.408  0.0358  0.2707 -0.1507
 8383TIP3    H125113   4.149   3.414   0.444  1.0447 -1.8406  1.7926
 8383TIP3    H225114   4.267   3.339   0.387  3.1919  0.3100  3.1880
 8384TIP3   OH225115   1.708   0.723   4.286  0.6326 -0.0266  0.3198
 8384TIP3    H125116   1.685   0.713   4.378 -3.7313  0.2643 -0.5455
 8384TIP3    H225117   1.727   0.816   4.277 -1.4165  0.4646  0.5649
 8385TIP3   OH225118   2.731   2.951   3.237  0.4284  0.0140  0.2069
 8385TIP3    H125119   2.676   2.893   3.290  0.8528  0.4557  1.1444
 8385TIP3    H225120   2.706   2.931   3.147  1.3822 -2.4805  0.4148
 8386TIP3   OH225121   2.939   0.890   1.532  0.0535  0.4312  0.0591
 8386TIP3    H125122   2.948   0.932   1.618 -0.1079  0.7862 -0.0935
 8386TIP3    H225123   2.850   0.911   1.505  0.8963  2.6328 -1.3748
 8387TIP3   OH225124   4.732   1.945   2.335  0.1022 -0.2973 -0.0321
 8387TIP3    H125125   4.637   1.954   2.336 -0.0195 -1.3840 -0.1491
 8387TIP3    H225126   4.750   1.874   2.397  0.8602  0.0724  0.1864
 8388TIP3   OH225127   3.080   2.303   4.282  0.0883 -0.1503 -0.2310
 8388TIP3    H125128   3.063   2.393   4.309  0.4818  0.2498 -1.2920
 8388TIP3    H225129   3.102   2.257   4.363  3.4968  1.5195 -0.0610
 8389TIP3   OH225130   1.192   4.689   3.317  0.0862 -0.2903  0.3732
 8389TIP3    H125131   1.109   4.686   3.366  0.6349 -1.1499  1.2783
 8389TIP3    H225132   1.184   4.617   3.254  0.0831 -0.2718  0.3525
 8390TIP3   OH225133   2.795   5.850   0.492  0.1278  0.6811 -0.1451
 8390TIP3    H125134   2.768   5.874   0.404  0.0371 -0.8825 -0.5639
 8390TIP3    H225135   2.875   5.800   0.481  0.1719  0.5458  0.6687
 8391TIP3   OH225136   2.463   1.688   4.481  0.4597  0.0155  0.1159
 8391TIP3    H125137   2.466   1.593   4.480  1.1420 -0.0209 -2.3857
 8391TIP3    H225138   2.496   1.713   4.567  0.8976 -1.9765  0.5724
 8392TIP3   OH225139   0.231   5.230   4.184  0.1231 -0.2043  0.5637
 8392TIP3    H125140   0.220   5.237   4.089 -2.1250  0.2888  0.7839
 8392TIP3    H225141   0.249   5.137   4.200 -0.7687 -0.5424 -0.2797
 8393TIP3   OH225142   4.385   0.065   1.342 -0.5807  0.2185 -0.1050
 8393TIP3    H125143   4.386   0.139   1.280 -0.0652 -0.1148 -0.5011
 8393TIP3    H225144   4.305   0.018   1.321 -0.0179 -0.3500 -1.0862
 8394TIP3   OH225145   0.242   4.934   0.392  0.3049 -0.1780 -0.2725
 8394TIP3    H125146   0.242   4.853   0.443  0.0768  1.6455  2.8882
 8394TIP3    H225147   0.163   4.929   0.338 -0.0419 -1.7555  0.3530
 8395TIP3   OH225148   2.979   2.852   5.591  0.0808  0.4256  0.0272
 8395TIP3    H125149   3.073   2.833   5.591  0.3730  1.7010 -0.8315
 8395TIP3    H225150   2.968   2.918   5.522 -1.5220 -0.0440 -0.2126
 8396TIP3   OH225151   6.306   5.659   2.219  0.2867 -0.4724  0.0613
 8396TIP3    H125152   6.377   5.604   2.187  1.5818  1.0332  0.1888
 8396TIP3    H225153   6.285   5.716   2.145  0.6632  0.4676  0.6554
 8397TIP3   OH225154   3.660   2.471   5.510  0.3042 -0.1535 -0.3157
 8397TIP3    H125155   3.618   2.415   5.575 -0.3907  1.0445  0.2953
 8397TIP3    H225156   3.606   2.461   5.432  0.4517 -0.6701 -0.3588
 8398TIP3   OH225157   2.775   1.275   0.448  0.1826 -0.3551  0.0428
 8398TIP3    H125158   2.837   1.331   0.493  3.1948 -1.8832 -1.8714
 8398TIP3    H225159   2.747   1.325   0.371 -0.2905  0.0050  0.4466
 8399TIP3   OH225160   3.880   1.362   0.392  0.2439 -0.6070 -0.3508
 8399TIP3    H125161   3.897   1.446   0.435  1.6026 -0.4939 -1.0368
 8399TIP3    H225162   3.948   1.304   0.425 -0.0341 -1.1352 -0.6933
 8400TIP3   OH225163   5.213   3.121   0.457 -0.0188  0.0122 -0.5341
 8400TIP3    H125164   5.265   3.046   0.428 -0.7970 -0.5804 -0.4157
 8400TIP3    H225165   5.142   3.083   0.509 -0.8637  0.7592 -1.1081
 8401TIP3   OH225166   5.307   2.508   1.124  0.0178  0.2768  0.1542
 8401TIP3    H125167   5.221   2.517   1.084  0.0688  0.6523  0.1242
 8401TIP3    H225168   5.368   2.514   1.051  0.0173 -2.0623 -0.1316
 8402TIP3   OH225169   5.310   0.062   0.856 -0.0914 -0.0403  0.2114
 8402TIP3    H125170   5.286   0.132   0.917 -1.1675 -0.7745  0.6642
 8402TIP3    H225171   5.394   0.029   0.888  0.2380  0.7835  0.2128
 8403TIP3   OH225172   6.004   4.129   4.815 -0.1956 -0.0826  1.0179
 8403TIP3    H125173   5.923   4.174   4.840 -0.4774  0.8198 -1.2330
 8403TIP3    H225174   5.975   4.058   4.758  0.5889  0.7827 -0.5307
 8404TIP3   OH225175   4.836   4.896   1.833 -0.0441 -0.0707 -0.2742
 8404TIP3    H125176   4.897   4.904   1.760  0.7565 -1.1340  0.2447
 8404TIP3    H225177   4.891   4.900   1.911 -0.8721  0.9492  0.2949
 8405TIP3   OH225178   2.621   3.831   4.547 -0.5010 -0.6909  0.2280
 8405TIP3    H125179   2.565   3.787   4.611 -3.7092  0.7615 -1.3479
 8405TIP3    H225180   2.617   3.923   4.572 -1.2137 -0.2002 -1.5747
 8406TIP3   OH225181   0.648   5.138   5.097  0.1628  0.1281  0.3369
 8406TIP3    H125182   0.666   5.196   5.171  0.4037 -1.0426  1.2184
 8406TIP3    H225183   0.734   5.114   5.064  0.0759 -0.2619  0.3941
 8407TIP3   OH225184   4.651   1.227   2.195  0.5742  0.2491 -0.2819
 8407TIP3    H125185   4.701   1.220   2.113 -0.5635  0.7582 -1.0391
 8407TIP3    H225186   4.568   1.184   2.176 -0.2007  1.5074  0.1923
 8408TIP3   OH225187   5.379   1.771   2.968 -0.2044  0.1944 -0.6073
 8408TIP3    H125188   5.410   1.817   3.046 -0.9175  1.0014 -0.7940
 8408TIP3    H225189   5.426   1.813   2.896 -2.0770  1.7932 -0.9511
 8409TIP3   OH225190   1.102   0.836   1.737 -0.1443 -0.1529  0.1336
 8409TIP3    H125191   1.128   0.814   1.647 -0.6465  1.5846 -0.4575
 8409TIP3    H225192   1.044   0.764   1.763  0.5522 -1.0360 -0.6619
 8410TIP3   OH225193   1.594   0.362   1.996 -0.2458 -0.3131 -0.1112
 8410TIP3    H125194   1.666   0.385   2.055  0.9080 -1.1805 -1.1207
 8410TIP3    H225195   1.539   0.303   2.047  1.4334 -2.0923 -0.2610
 8411TIP3   OH225196   2.739   1.030   2.428  0.3450 -0.3089 -0.1184
 8411TIP3    H125197   2.791   1.105   2.454 -1.5097  0.9461  0.1602
 8411TIP3    H225198   2.652   1.065   2.410 -0.4900 -2.3254 -0.3856
 8412TIP3   OH225199   3.496   1.585   2.622 -0.6226  0.3263 -0.1037
 8412TIP3    H125200   3.506   1.646   2.695  1.8306 -1.0256  0.8288
 8412TIP3    H225201   3.423   1.529   2.646 -1.4075  1.4258  0.1191
 8413TIP3   OH225202   0.382   0.003   2.060 -0.1179  0.1352 -0.4068
 8413TIP3    H125203   0.419   0.080   2.103 -1.4930 -0.4642  2.0053
 8413TIP3    H225204   0.441  -0.068   2.082 -0.3877 -0.0237 -0.1901
 8414TIP3   OH225205   5.296   3.315   5.797 -0.6430 -0.4240 -0.0045
 8414TIP3    H125206   5.244   3.239   5.821  0.4318 -1.1279  0.1577
 8414TIP3    H225207   5.333   3.346   5.879 -0.9809  0.2105 -0.0876
 8415TIP3   OH225208   5.005   4.741   0.098 -0.1612 -0.0491  0.3379
 8415TIP3    H125209   4.940   4.805   0.069 -1.1081 -1.0240  0.2767
 8415TIP3    H225210   5.088   4.790   0.096 -0.9331  1.3458  0.8753
 8416TIP3   OH225211   0.881   5.826   1.113 -0.7552 -0.2715 -0.3266
 8416TIP3    H125212   0.880   5.847   1.206 -2.2230  0.5090 -0.4849
 8416TIP3    H225213   0.936   5.747   1.106  1.4926  1.0884  0.8413
 8417TIP3   OH225214   2.322   6.184   2.238 -0.3661 -0.0566 -0.1688
 8417TIP3    H125215   2.324   6.259   2.298  1.4456  0.9993 -1.4674
 8417TIP3    H225216   2.413   6.172   2.211 -0.5602 -2.9114  0.1570
 8418TIP3   OH225217   5.278   0.720   5.329 -0.3507  0.1206  0.0372
 8418TIP3    H125218   5.252   0.813   5.331 -2.0819 -0.3323  1.6902
 8418TIP3    H225219   5.195   0.672   5.333  0.5739 -1.4813  1.1874
 8419TIP3   OH225220   2.294   3.310   3.195 -0.1630  0.3575 -0.0571
 8419TIP3    H125221   2.340   3.344   3.271 -0.9606 -0.4660  0.8175
 8419TIP3    H225222   2.233   3.246   3.230  0.3835 -1.0380 -1.5046
 8420TIP3   OH225223   3.326   3.849   0.634 -0.5696 -0.1960  0.3101
 8420TIP3    H125224   3.336   3.838   0.539  0.0432 -0.2117  0.3743
 8420TIP3    H225225   3.405   3.896   0.661 -0.9209  0.1433  0.7591
 8421TIP3   OH225226   0.993   2.395   0.187  0.0756  0.1204  0.5707
 8421TIP3    H125227   1.081   2.420   0.214  0.0826 -0.7701  1.4215
 8421TIP3    H225228   1.003   2.307   0.151 -0.1827  0.7120 -0.9983
 8422TIP3   OH225229   5.392   0.728   0.590  0.5017 -0.5949  0.7169
 8422TIP3    H125230   5.410   0.798   0.653 -1.5504  0.4864  0.1748
 8422TIP3    H225231   5.430   0.650   0.631  1.3111  0.4875  2.1579
 8423TIP3   OH225232   2.134   6.086   4.031 -0.3277 -0.3871 -0.2840
 8423TIP3    H125233   2.220   6.046   4.041 -0.1818  0.1635  0.8881
 8423TIP3    H225234   2.150   6.169   3.987 -0.4165 -0.8142 -1.1391
 8424TIP3   OH225235   6.952   4.086   0.194  0.0757 -0.0296 -0.1465
 8424TIP3    H125236   6.996   4.025   0.253 -1.1661 -0.4634  0.3769
 8424TIP3    H225237   6.924   4.159   0.250  0.7828  0.6023 -0.6080
 8425TIP3   OH225238   3.621   5.175   5.216 -0.0924 -0.5783  0.3540
 8425TIP3    H125239   3.644   5.099   5.270  0.2156  0.7297  2.1461
 8425TIP3    H225240   3.679   5.244   5.246 -0.1254  0.3006 -1.4911
 8426TIP3   OH225241   2.635   3.947   0.029 -0.1283  0.1143  0.6401
 8426TIP3    H125242   2.590   3.868   0.056  0.1614  0.2875  1.6930
 8426TIP3    H225243   2.727   3.921   0.023 -0.2900 -0.1725 -1.2328
 8427TIP3   OH225244   0.281   4.668   3.844  0.3280  0.1655 -0.7581
 8427TIP3    H125245   0.197   4.713   3.854  1.3148  1.7056  1.7315
 8427TIP3    H225246   0.344   4.738   3.831  1.4349 -0.8267 -0.8803
 8428TIP3   OH225247   5.091   1.207   2.837 -0.5061  0.2810 -0.3267
 8428TIP3    H125248   5.117   1.118   2.864 -3.5637 -1.4237 -2.3893
 8428TIP3    H225249   5.081   1.254   2.920  2.7221 -0.6798  0.7954
 8429TIP3   OH225250   4.431   4.823   0.333  0.2530 -0.0691  0.7354
 8429TIP3    H125251   4.491   4.757   0.299  0.1477  0.1583  0.0744
 8429TIP3    H225252   4.479   4.905   0.327 -0.5270  0.3141 -1.0052
 8430TIP3   OH225253   7.095   0.579   1.929 -0.9219  0.2579  0.4640
 8430TIP3    H125254   7.132   0.552   2.014  2.1780  1.5648 -0.3286
 8430TIP3    H225255   7.025   0.639   1.952 -0.7146 -0.0560  2.1061
 8431TIP3   OH225256   3.592   0.396   2.940 -0.2065 -0.2937  0.2089
 8431TIP3    H125257   3.650   0.446   2.882  0.3485 -1.6894 -0.4965
 8431TIP3    H225258   3.504   0.419   2.913 -0.0229  1.5174  0.9898
 8432TIP3   OH225259   0.246   1.675   3.220  0.1236  0.9089 -0.5384
 8432TIP3    H125260   0.156   1.692   3.192 -0.4052 -1.6017 -0.6429
 8432TIP3    H225261   0.294   1.660   3.138  0.2246  0.5738 -0.4195
 8433TIP3   OH225262   0.124   2.965   1.070  0.0942 -0.5023  0.0703
 8433TIP3    H125263   0.059   2.973   1.000 -0.0487 -2.0632 -0.0083
 8433TIP3    H225264   0.075   2.932   1.145  0.6845 -1.1388  0.1868
 8434TIP3   OH225265   4.003   2.934   1.680  1.0102 -0.3779 -0.1881
 8434TIP3    H125266   4.084   2.904   1.722  1.6141  0.4440 -0.7284
 8434TIP3    H225267   3.977   2.862   1.624  3.3004  0.5738 -2.6851
 8435TIP3   OH225268   5.643   5.169   2.871  0.2814 -0.0601 -0.1265
 8435TIP3    H125269   5.595   5.100   2.827  0.0571  0.6099 -0.9683
 8435TIP3    H225270   5.735   5.146   2.859  0.2857  0.8598 -2.2832
 8436TIP3   OH225271   6.842   5.467   4.850 -0.5244  0.2130  0.1843
 8436TIP3    H125272   6.918   5.440   4.799  0.5612  0.9499  1.3585
 8436TIP3    H225273   6.779   5.497   4.785  0.3298 -0.0534 -0.7884
 8437TIP3   OH225274   0.479   1.449   4.037  0.5721  0.0458  0.8881
 8437TIP3    H125275   0.491   1.392   3.961  0.0086 -1.4741  1.8952
 8437TIP3    H225276   0.563   1.493   4.048  0.4196  0.9759 -1.1008
 8438TIP3   OH225277   7.117   2.125   5.693  0.3389 -0.2206  0.5410
 8438TIP3    H125278   7.172   2.075   5.753  1.0626 -1.8721 -1.3762
 8438TIP3    H225279   7.044   2.067   5.672 -1.1261  1.1814  1.4713
 8439TIP3   OH225280   3.663   4.105   5.634  0.0799 -0.1026 -0.4061
 8439TIP3    H125281   3.674   4.012   5.616 -0.3843 -0.2206 -0.0925
 8439TIP3    H225282   3.614   4.138   5.558 -1.5154 -0.5204  0.3846
 8440TIP3   OH225283   4.704   6.528   5.808 -0.2373 -0.5080 -0.1823
 8440TIP3    H125284   4.665   6.452   5.764  0.4041 -0.7888 -0.2706
 8440TIP3    H225285   4.717   6.592   5.739 -0.2875 -0.5176 -0.2005
 8441TIP3   OH225286   3.303   5.748   3.961 -0.0070  0.1304 -0.0840
 8441TIP3    H125287   3.327   5.833   3.999  1.3969 -0.2135 -0.1434
 8441TIP3    H225288   3.247   5.770   3.887 -0.3456  0.9633  0.4092
 8442TIP3   OH225289   3.850   3.540   4.623 -1.0389 -0.5949  0.3138
 8442TIP3    H125290   3.809   3.467   4.577 -0.9414 -1.5505  1.6933
 8442TIP3    H225291   3.942   3.537   4.596 -1.1193 -0.7091  0.0506
 8443TIP3   OH225292   2.993   5.979   4.453 -0.4125  0.3690  0.4679
 8443TIP3    H125293   2.935   6.012   4.522  0.4737  0.8812  0.9861
 8443TIP3    H225294   2.934   5.932   4.394 -1.2505  0.2156  1.3791
 8444TIP3   OH225295   2.248   2.339   5.175  0.0061  0.8136  0.2559
 8444TIP3    H125296   2.301   2.376   5.103 -0.7111  0.2827 -0.5687
 8444TIP3    H225297   2.281   2.250   5.186 -0.5967  0.5338 -0.1546
 8445TIP3   OH225298   0.024   1.384   2.607 -0.1506 -0.0997  0.2765
 8445TIP3    H125299  -0.058   1.342   2.583  0.0738  0.4789 -1.6279
 8445TIP3    H225300   0.057   1.332   2.681 -1.8291 -0.7868  0.5794
 8446TIP3   OH225301   2.071   4.659   2.826  0.3840  0.1276  0.1773
 8446TIP3    H125302   1.998   4.716   2.848  0.0070 -0.4730  0.5173
 8446TIP3    H225303   2.048   4.620   2.742  0.6501  0.4935 -0.0647
 8447TIP3   OH225304   3.981   3.864   5.673 -0.4925  0.4443  0.1898
 8447TIP3    H125305   3.916   3.849   5.743 -0.0313 -0.3950  0.4490
 8447TIP3    H225306   3.946   3.817   5.598 -0.4916  0.5138  0.1460
 8448TIP3   OH225307   1.483   1.081   5.465 -0.0971 -0.0543 -0.5749
 8448TIP3    H125308   1.527   1.025   5.529  0.3695 -1.3680 -1.9775
 8448TIP3    H225309   1.394   1.045   5.460 -0.0888 -0.0483 -0.7661
 8449TIP3   OH225310   6.339   4.746   1.601 -0.0983  0.1991 -0.1614
 8449TIP3    H125311   6.279   4.808   1.560  0.1568  0.1966 -0.5477
 8449TIP3    H225312   6.332   4.667   1.547 -2.7048 -1.2538  2.0115
 8450TIP3   OH225313   4.473   4.290   3.047  0.6677 -0.3149  0.1200
 8450TIP3    H125314   4.516   4.254   3.125 -0.0039  1.4680  1.4007
 8450TIP3    H225315   4.544   4.301   2.984  1.8548  1.0387  1.5987
 8451TIP3   OH225316   5.387   3.748   2.862  0.2910 -0.1414  1.0525
 8451TIP3    H125317   5.392   3.656   2.833  0.7759 -0.1000  1.0085
 8451TIP3    H225318   5.380   3.798   2.780 -1.1552 -0.2032  1.1005
 8452TIP3   OH225319   2.269   6.418   1.764 -0.0651  0.1291 -0.4862
 8452TIP3    H125320   2.292   6.426   1.672  2.9840 -0.4619  0.1382
 8452TIP3    H225321   2.249   6.508   1.791  1.3909  0.7022 -1.1895
 8453TIP3   OH225322   6.279   4.691   4.167  0.1283 -0.5957 -0.3250
 8453TIP3    H125323   6.295   4.731   4.082  0.1576 -1.4015 -0.7115
 8453TIP3    H225324   6.339   4.616   4.170  1.3865  0.4087  1.1264
 8454TIP3   OH225325   2.107   3.767   5.581 -0.3427  0.3744  0.0367
 8454TIP3    H125326   2.155   3.702   5.531  3.2397  0.1210  3.3534
 8454TIP3    H225327   2.150   3.850   5.561 -2.2548  1.1572 -1.1002
 8455TIP3   OH225328   4.353   5.959   0.709  0.1634  0.3429 -0.7465
 8455TIP3    H125329   4.389   5.929   0.625  0.7215 -1.2566  0.0275
 8455TIP3    H225330   4.375   5.889   0.771 -1.5045  0.8150  0.4375
 8456TIP3   OH225331   5.177   0.096   1.839  0.1469 -0.1670 -0.8339
 8456TIP3    H125332   5.193   0.132   1.752  0.0679 -0.0533 -0.8017
 8456TIP3    H225333   5.122   0.162   1.883 -0.5195 -0.6094 -0.9890
 8457TIP3   OH225334   4.610   5.672   3.705  0.2131  0.1060 -0.2993
 8457TIP3    H125335   4.557   5.592   3.704  1.4764 -0.8948  2.2582
 8457TIP3    H225336   4.550   5.740   3.738  0.0457 -0.6661  1.0921
 8458TIP3   OH225337   6.779   5.171   5.856 -0.1422 -0.4942 -0.3314
 8458TIP3    H125338   6.829   5.094   5.883  1.5024  0.6969  0.2135
 8458TIP3    H225339   6.842   5.243   5.860 -2.0806  1.2464  1.1102
 8459TIP3   OH225340   3.029   6.056   2.335 -0.2661 -0.3423  0.4972
 8459TIP3    H125341   3.054   6.017   2.419 -0.8917 -1.1099  0.3393
 8459TIP3    H225342   3.082   6.136   2.329  0.0407 -0.4582  1.4577
 8460TIP3   OH225343   3.346   3.431   0.207  0.0469 -0.2681 -0.2926
 8460TIP3    H125344   3.253   3.440   0.185 -0.6537 -1.2559  1.9344
 8460TIP3    H225345   3.386   3.513   0.177 -1.8406  0.8167 -0.0157
 8461TIP3   OH225346   6.963   3.528   1.936  0.1005  0.0016  0.2089
 8461TIP3    H125347   6.930   3.469   2.004 -1.0216  0.2243 -0.1202
 8461TIP3    H225348   6.996   3.604   1.984 -1.3606  0.4852  0.4971
 8462TIP3   OH225349   0.121   5.972   1.758 -0.3629  0.3525 -0.4613
 8462TIP3    H125350   0.121   6.068   1.763  0.3768  0.3032  1.6057
 8462TIP3    H225351   0.127   5.953   1.664  1.3544  2.3609 -0.8436
 8463TIP3   OH225352   5.104   4.817   5.635  0.3575 -0.3715 -0.3455
 8463TIP3    H125353   5.114   4.909   5.613  0.0836 -0.3419 -0.3490
 8463TIP3    H225354   5.141   4.809   5.724  0.2761 -0.2371 -0.2993
 8464TIP3   OH225355   4.016   0.564   3.033 -0.6662 -0.2468 -0.1371
 8464TIP3    H125356   4.020   0.566   3.128 -2.0735  0.6104 -0.0618
 8464TIP3    H225357   4.102   0.533   3.006 -1.0541 -3.0249  1.4455
 8465TIP3   OH225358   1.529   2.833   2.766  0.1173 -0.0827 -0.0960
 8465TIP3    H125359   1.555   2.810   2.676 -0.4369  0.0794 -0.3032
 8465TIP3    H225360   1.579   2.773   2.821  1.0563  0.3389 -0.4746
 8466TIP3   OH225361   4.658   5.335   4.502 -0.2725  0.0878 -0.1574
 8466TIP3    H125362   4.728   5.399   4.512 -2.4269  2.4344  1.0527
 8466TIP3    H225363   4.629   5.345   4.412 -1.2030  1.5700  0.2753
 8467TIP3   OH225364   4.964   5.351   5.446  0.4410  0.3334 -0.3034
 8467TIP3    H125365   5.023   5.308   5.507 -0.3048 -1.4429 -0.7637
 8467TIP3    H225366   4.997   5.441   5.440  0.7064  0.5116  2.4582
 8468TIP3   OH225367   0.581   4.371   1.975  0.5002  0.4098  0.7592
 8468TIP3    H125368   0.596   4.368   1.881 -3.3043 -0.0859  0.0174
 8468TIP3    H225369   0.572   4.464   1.996  1.7020  0.5419  0.7366
 8469TIP3   OH225370   6.864   4.951   1.399  0.2059  0.4930 -0.2838
 8469TIP3    H125371   6.956   4.950   1.426 -0.2212  0.4530  1.2146
 8469TIP3    H225372   6.818   4.995   1.470 -0.9227  0.7007 -1.1126
 8470TIP3   OH225373   4.295   1.905   1.918  0.1398  0.2507  0.4772
 8470TIP3    H125374   4.353   1.833   1.892 -1.5153 -1.1899  0.6212
 8470TIP3    H225375   4.321   1.926   2.008 -0.3977 -1.2803  1.0183
 8471TIP3   OH225376   5.041   1.366   5.163  0.1323 -0.4141 -0.8135
 8471TIP3    H125377   4.990   1.445   5.180  0.8910 -0.0698 -0.0637
 8471TIP3    H225378   4.975   1.297   5.148 -0.5996 -0.2313  1.2354
 8472TIP3   OH225379   4.623   0.449   4.671  0.0127  0.3728 -0.1103
 8472TIP3    H125380   4.645   0.369   4.623 -0.0612 -0.0077  0.4792
 8472TIP3    H225381   4.708   0.486   4.695  0.0746  1.0404 -1.2822
 8473TIP3   OH225382   0.157   4.079   2.042  0.0812  0.5642 -0.0656
 8473TIP3    H125383   0.071   4.119   2.055 -1.3952 -2.6960  1.5479
 8473TIP3    H225384   0.169   4.023   2.119  1.6457 -2.3342 -2.2023
 8474TIP3   OH225385   6.466   3.033   1.431 -0.1151 -0.2103 -0.0640
 8474TIP3    H125386   6.537   3.018   1.368  0.1890 -0.5820  0.3627
 8474TIP3    H225387   6.393   3.063   1.377 -0.2564 -1.7089 -0.7808
 8475TIP3   OH225388   6.946   6.011   1.791 -0.0828 -0.2780  0.4280
 8475TIP3    H125389   6.876   6.010   1.726  1.1774  0.0659 -0.9839
 8475TIP3    H225390   7.003   5.939   1.766  0.4617 -0.1026  1.1359
 8476TIP3   OH225391   5.608   3.800   5.737  0.2969 -0.6635  0.1740
 8476TIP3    H125392   5.612   3.733   5.669  1.9804 -1.8605  1.3763
 8476TIP3    H225393   5.699   3.817   5.759 -0.0996  1.8304  0.1360
 8477TIP3   OH225394   1.804   0.202   4.789 -0.1259  0.3738  0.1026
 8477TIP3    H125395   1.770   0.167   4.707 -0.4679 -0.5659  0.6338
 8477TIP3    H225396   1.792   0.131   4.852 -0.9825  1.4973  1.2406
 8478TIP3   OH225397   3.756   3.611   1.289  0.0171  0.0878 -0.1792
 8478TIP3    H125398   3.755   3.694   1.242 -3.5106  0.1459 -0.2928
 8478TIP3    H225399   3.718   3.548   1.228  1.6089 -1.4090  0.2958
 8479TIP3   OH225400   6.489   3.583   0.329  0.8005  0.5089  0.3791
 8479TIP3    H125401   6.476   3.635   0.408 -0.6401 -0.5305  0.8740
 8479TIP3    H225402   6.466   3.494   0.355  3.5648 -0.5146 -0.3266
 8480TIP3   OH225403   4.000   3.288   4.391  0.6678 -0.2286 -0.0676
 8480TIP3    H125404   4.093   3.273   4.374  0.4272 -0.7906 -0.9962
 8480TIP3    H225405   3.988   3.382   4.376  0.7473 -0.4573 -1.8415
 8481TIP3   OH225406   5.486   0.733   0.964  0.0249  0.7497  0.2820
 8481TIP3    H125407   5.442   0.651   0.986  1.0698  0.5714  1.8827
 8481TIP3    H225408   5.504   0.774   1.048 -1.7049  3.3324 -0.5091
 8482TIP3   OH225409   2.382   2.501   1.770  1.1043  0.4672  0.2985
 8482TIP3    H125410   2.428   2.463   1.695  0.0374 -0.9373  0.3276
 8482TIP3    H225411   2.289   2.487   1.751  0.7719  1.1325  1.3510
 8483TIP3   OH225412   3.615   0.700   2.403 -0.1487 -0.7470  0.2072
 8483TIP3    H125413   3.570   0.707   2.318  0.3068  0.9261  0.0612
 8483TIP3    H225414   3.707   0.716   2.382 -0.1674  0.6994  1.1394
 8484TIP3   OH225415   6.484   0.809   0.572 -0.4712 -0.1710  0.4518
 8484TIP3    H125416   6.570   0.849   0.585  0.3537 -1.4646 -0.7232
 8484TIP3    H225417   6.431   0.878   0.531  1.0991 -0.3664 -2.1327
 8485TIP3   OH225418   5.981   6.770   5.011 -0.2402  0.4018  0.3058
 8485TIP3    H125419   5.951   6.755   4.921  0.3215  0.3207  0.1280
 8485TIP3    H225420   5.913   6.825   5.049 -0.1376  1.0403 -0.3933
 8486TIP3   OH225421   0.449   2.471   1.895 -0.4204 -0.0115  0.1329
 8486TIP3    H125422   0.482   2.560   1.881  0.5311 -0.0741  1.7365
 8486TIP3    H225423   0.506   2.434   1.962 -1.3035 -1.5622  0.0854
 8487TIP3   OH225424   6.993   2.770   2.078 -0.0809 -0.1040 -0.8193
 8487TIP3    H125425   6.959   2.690   2.039  0.1308  0.1507 -1.5579
 8487TIP3    H225426   7.051   2.807   2.010  3.9817 -1.9192  1.3022
 8488TIP3   OH225427   4.574   6.211   4.689 -0.3745  0.3546  0.0639
 8488TIP3    H125428   4.669   6.204   4.679 -0.0883  2.8922  0.3927
 8488TIP3    H225429   4.552   6.147   4.757  1.0042 -0.6631 -0.4170
 8489TIP3   OH225430   1.106   3.541   1.323  0.1705 -0.0624 -0.1758
 8489TIP3    H125431   1.197   3.549   1.295  0.2386  3.1407  0.5760
 8489TIP3    H225432   1.055   3.566   1.246  0.0671  1.0428  0.2384
 8490TIP3   OH225433   4.501   0.169   0.666 -0.1797  0.1318  0.1410
 8490TIP3    H125434   4.550   0.090   0.643 -2.0376 -1.1781  0.4910
 8490TIP3    H225435   4.523   0.185   0.758 -1.1414 -1.0677  0.6116
 8491TIP3   OH225436   3.333   4.152   1.943  0.2153  0.4756 -0.4197
 8491TIP3    H125437   3.426   4.149   1.966  0.1128 -0.5555 -0.0774
 8491TIP3    H225438   3.301   4.234   1.980  2.0381  3.5356 -4.8017
 8492TIP3   OH225439   3.780   4.877   4.063  0.4102 -0.0311 -0.5070
 8492TIP3    H125440   3.791   4.956   4.011  0.0238 -0.2842 -0.9796
 8492TIP3    H225441   3.852   4.820   4.035  1.2240  0.4850  0.4744
 8493TIP3   OH225442   1.435   2.146   1.578  0.3463  0.4144  0.6207
 8493TIP3    H125443   1.368   2.078   1.576  1.4992 -0.7490 -0.6604
 8493TIP3    H225444   1.403   2.213   1.518  0.4627 -0.3075 -0.2804
 8494TIP3   OH225445   0.419   2.067   3.571  0.1887 -0.0527 -0.1829
 8494TIP3    H125446   0.392   1.986   3.615  1.6074 -0.3458  0.2025
 8494TIP3    H225447   0.399   2.052   3.479 -2.3241  0.3512  0.2292
 8495TIP3   OH225448   7.071   2.767   2.712  0.0077  0.1296  0.1192
 8495TIP3    H125449   7.035   2.681   2.732  0.4689 -0.0448  0.2046
 8495TIP3    H225450   7.102   2.800   2.797  1.8620 -0.5601 -0.2347
 8496TIP3   OH225451   4.424   2.596   0.086 -0.1757  0.1492 -0.4498
 8496TIP3    H125452   4.437   2.543   0.007  2.1557  0.4237 -0.3311
 8496TIP3    H225453   4.408   2.532   0.155  0.3683 -0.2769 -0.7087
 8497TIP3   OH225454   1.355   1.406   5.756 -0.4746  0.1868  0.0417
 8497TIP3    H125455   1.263   1.410   5.730 -0.4337  0.5116 -0.0607
 8497TIP3    H225456   1.404   1.425   5.676 -0.1568 -4.0207 -0.9976
 8498TIP3   OH225457   3.378   6.029   1.227  0.1557  0.4048 -0.0336
 8498TIP3    H125458   3.461   6.077   1.235  0.6629 -0.3768 -0.4622
 8498TIP3    H225459   3.376   5.971   1.302  0.4085 -0.1765 -0.4655
 8499TIP3   OH225460   4.143   2.701   3.401  0.0273 -0.0447 -0.0031
 8499TIP3    H125461   4.179   2.630   3.455 -0.9604 -0.0812  0.6438
 8499TIP3    H225462   4.049   2.686   3.402 -0.1098  0.7041 -0.7016
 8500TIP3   OH225463   6.910   1.544   3.603 -0.1616  0.0681  0.7051
 8500TIP3    H125464   6.892   1.631   3.639 -1.0047  0.2562 -0.1229
 8500TIP3    H225465   6.987   1.514   3.650  0.2827  1.3623  0.8439
 8501TIP3   OH225466   3.826   4.794   2.051  0.7731  0.2096 -0.0275
 8501TIP3    H125467   3.914   4.813   2.085  1.1047 -1.4758  0.1412
 8501TIP3    H225468   3.807   4.705   2.082 -1.7516  1.1748  1.4661
 8502TIP3   OH225469   2.854   6.468   2.300 -0.8184 -0.4451 -0.9128
 8502TIP3    H125470   2.904   6.471   2.382 -0.9324 -1.9596 -0.7522
 8502TIP3    H225471   2.919   6.452   2.232 -0.8500 -0.2691 -0.9866
 8503TIP3   OH225472   0.817   1.079   2.326  0.3789 -0.2188  0.0007
 8503TIP3    H125473   0.724   1.093   2.342  0.7808  1.0628  1.4401
 8503TIP3    H225474   0.843   1.013   2.390  0.9895  1.4083  1.4977
 8504TIP3   OH225475   3.182   6.310   5.647  0.0071  0.3943  0.4537
 8504TIP3    H125476   3.212   6.385   5.699 -1.2757  0.1465  1.6034
 8504TIP3    H225477   3.105   6.279   5.692 -1.8764  0.8419 -2.2041
 8505TIP3   OH225478   2.480   5.373   4.328  0.1905 -0.0380 -0.1431
 8505TIP3    H125479   2.532   5.451   4.345  0.9918  0.0364 -2.6082
 8505TIP3    H225480   2.406   5.380   4.388 -0.7264  3.5665 -1.4361
 8506TIP3   OH225481   4.780   4.293   1.598 -0.8284 -0.3803  0.2014
 8506TIP3    H125482   4.748   4.203   1.605  0.2953 -0.9410 -1.2999
 8506TIP3    H225483   4.783   4.309   1.504  0.0468  0.8469  0.4263
 8507TIP3   OH225484   5.923   6.272   2.294  0.1365 -0.6468  0.2265
 8507TIP3    H125485   5.889   6.207   2.356 -1.0586  0.2212  0.5181
 8507TIP3    H225486   5.989   6.320   2.343  0.7321 -1.3622  0.1377
 8508TIP3   OH225487   2.885   4.723   1.393  0.4455 -0.1235 -0.7654
 8508TIP3    H125488   2.907   4.653   1.332 -0.8391 -0.3968 -0.9257
 8508TIP3    H225489   2.853   4.678   1.471  1.0953  0.2572 -0.2646
 8509TIP3   OH225490   4.378   6.826   0.808  0.1176 -0.1537 -0.2758
 8509TIP3    H125491   4.394   6.793   0.897 -1.3374 -0.0064  0.0576
 8509TIP3    H225492   4.361   6.747   0.757 -0.0519 -0.1685 -0.1986
 8510TIP3   OH225493   6.792   2.346   4.607 -0.2380  0.4865 -0.0988
 8510TIP3    H125494   6.843   2.409   4.556 -0.5801 -0.3174 -1.4621
 8510TIP3    H225495   6.732   2.400   4.659  0.0117  1.3213 -0.6658
 8511TIP3   OH225496   3.785   2.429   3.248  0.8692  0.0006  0.5439
 8511TIP3    H125497   3.739   2.355   3.210 -0.1875  1.0219 -0.2394
 8511TIP3    H225498   3.812   2.482   3.173 -0.7169  1.7434  1.1248
 8512TIP3   OH225499   1.848   2.125   1.306 -0.1479  1.2903  0.1361
 8512TIP3    H125500   1.757   2.113   1.279 -0.3106  0.0120  1.1567
 8512TIP3    H225501   1.899   2.082   1.237 -0.4042  0.7058  0.3061
 8513TIP3   OH225502   1.230   3.822   4.014 -0.4955 -0.1701 -0.6624
 8513TIP3    H125503   1.298   3.787   4.071 -0.7916  0.3823  0.0466
 8513TIP3    H225504   1.152   3.771   4.036 -0.1721 -1.3295 -2.0121
 8514TIP3   OH225505   6.039   4.338   1.786  0.0523 -0.6323  0.1007
 8514TIP3    H125506   5.956   4.367   1.824  0.4930  0.3332  0.3508
 8514TIP3    H225507   6.019   4.322   1.694 -0.0589  1.1546 -0.2167
 8515TIP3   OH225508   3.476   2.945   0.693 -0.4057  0.4203 -0.4304
 8515TIP3    H125509   3.392   2.962   0.650 -0.4878 -0.0976 -0.4852
 8515TIP3    H225510   3.490   3.021   0.750 -0.5858  0.8273 -0.9196
 8516TIP3   OH225511   0.408   6.742   2.898 -0.0808 -0.5726  0.1594
 8516TIP3    H125512   0.411   6.734   2.803 -1.3701  1.0513 -0.0647
 8516TIP3    H225513   0.456   6.665   2.930 -0.5951 -1.7796 -1.7654
 8517TIP3   OH225514   6.585   0.684   5.459 -0.1500  0.1574 -0.0013
 8517TIP3    H125515   6.549   0.712   5.375  0.0282 -1.6320 -0.7256
 8517TIP3    H225516   6.613   0.765   5.502 -0.7250  1.1513 -1.4379
 8518TIP3   OH225517   0.914   4.927   0.806 -0.1867 -0.0180 -0.4905
 8518TIP3    H125518   0.953   4.841   0.823 -0.8609 -0.0507  0.9599
 8518TIP3    H225519   0.886   4.922   0.715  0.1371 -1.1931 -0.5487
 8519TIP3   OH225520   7.089   6.605   2.015 -0.3664 -0.2345 -0.1946
 8519TIP3    H125521   6.993   6.601   2.014 -0.4324  0.3327  1.3731
 8519TIP3    H225522   7.109   6.696   2.037  0.5519 -0.2138 -1.0623
 8520TIP3   OH225523   2.573   2.737   3.355 -0.0367 -0.1966  0.2188
 8520TIP3    H125524   2.619   2.653   3.350 -0.8517 -0.6768  0.6151
 8520TIP3    H225525   2.561   2.751   3.449 -0.8789 -0.1798  0.1098
 8521TIP3   OH225526   5.365   1.552   2.153  0.1811 -0.1685  0.1617
 8521TIP3    H125527   5.315   1.627   2.121  1.3857  0.8263  0.5537
 8521TIP3    H225528   5.352   1.484   2.087 -2.4359 -0.2970  0.6949
 8522TIP3   OH225529   2.551   2.803   2.073 -0.2627  0.3800  0.0679
 8522TIP3    H125530   2.509   2.775   1.993 -0.4125 -4.3655  1.4845
 8522TIP3    H225531   2.480   2.833   2.130 -0.4204  1.4973 -0.6853
 8523TIP3   OH225532   5.762   3.386   4.330 -0.4730  0.5712  0.0762
 8523TIP3    H125533   5.775   3.301   4.287  0.0341  0.8596 -0.3621
 8523TIP3    H225534   5.836   3.393   4.391 -0.6749  0.5721  0.3209
 8524TIP3   OH225535   6.032   4.626   1.204  0.3333 -0.6955  0.3454
 8524TIP3    H125536   6.008   4.566   1.133  0.5237 -2.0140  1.3447
 8524TIP3    H225537   5.956   4.626   1.262  0.9489 -1.2760  1.1831
 8525TIP3   OH225538   5.942   0.023   4.685 -0.0247  0.0154  0.6113
 8525TIP3    H125539   5.997   0.033   4.608  0.1655  4.2488  1.1044
 8525TIP3    H225540   5.854   0.045   4.655 -0.3658 -0.4980  1.1823
 8526TIP3   OH225541   1.057   5.340   2.239  0.0244  0.5974 -0.2889
 8526TIP3    H125542   0.993   5.390   2.187 -1.1003  0.5890  1.0221
 8526TIP3    H225543   1.112   5.407   2.280 -0.4092  0.7039  0.1301
 8527TIP3   OH225544   0.353   6.179   2.234 -0.1556  0.3259  0.1326
 8527TIP3    H125545   0.281   6.135   2.188  0.6513 -0.5141 -0.3679
 8527TIP3    H225546   0.359   6.133   2.317  0.5128 -0.3687 -0.2820
 8528TIP3   OH225547   5.075   0.708   2.962 -0.5913 -0.2624  0.3281
 8528TIP3    H125548   5.140   0.643   2.989 -1.0562 -0.7574  0.2821
 8528TIP3    H225549   5.055   0.686   2.871  0.2018  0.7602 -0.1202
 8529TIP3   OH225550   3.459   6.223   2.347  0.5516 -0.0709  0.4149
 8529TIP3    H125551   3.432   6.172   2.270  1.2810 -0.2447  0.2689
 8529TIP3    H225552   3.439   6.313   2.323 -0.6851 -0.2595  0.6480
 8530TIP3   OH225553   4.081   4.110   5.739 -0.2284  0.1103  0.5248
 8530TIP3    H125554   4.160   4.067   5.772 -0.8126 -0.9052  0.6553
 8530TIP3    H225555   4.047   4.049   5.673 -0.0331  1.2892 -0.6856
 8531TIP3   OH225556   3.624   5.690   2.202  0.5940  0.4021  0.0348
 8531TIP3    H125557   3.550   5.742   2.235 -0.1369 -0.0600 -0.8203
 8531TIP3    H225558   3.700   5.747   2.211  0.0419  1.0967  0.4175
 8532TIP3   OH225559   6.685   5.055   5.618 -0.3601 -0.2455 -0.2700
 8532TIP3    H125560   6.703   4.961   5.618  1.5484  0.0737  0.7665
 8532TIP3    H225561   6.701   5.082   5.709  1.2001  1.4366 -1.0087
 8533TIP3   OH225562   1.487   5.419   5.624 -0.2032 -0.3636  0.2076
 8533TIP3    H125563   1.399   5.456   5.621 -0.4805 -0.9966  0.5088
 8533TIP3    H225564   1.487   5.360   5.699  1.2628  1.5669  1.8194
 8534TIP3   OH225565   6.493   4.513   0.940  0.7031  0.0447 -0.5698
 8534TIP3    H125566   6.437   4.470   0.875  2.0712 -0.4828 -1.4375
 8534TIP3    H225567   6.442   4.511   1.021  0.5988 -3.0136 -0.6100
 8535TIP3   OH225568   4.237   4.477   1.614  0.7351  0.5352  0.0218
 8535TIP3    H125569   4.240   4.409   1.681  0.8526 -0.8146 -1.2882
 8535TIP3    H225570   4.270   4.555   1.657 -0.9651  0.2166  2.0682
 8536TIP3   OH225571   7.079   2.461   1.301  0.2496  0.0521  0.4437
 8536TIP3    H125572   7.062   2.522   1.372  0.3037  0.1178  0.4008
 8536TIP3    H225573   7.157   2.413   1.329  1.0523  0.9644 -0.1365
 8537TIP3   OH225574   3.597   6.146   1.324  0.3591  0.0716 -0.0989
 8537TIP3    H125575   3.621   6.138   1.416 -0.1993 -0.6539 -0.0069
 8537TIP3    H225576   3.649   6.220   1.292  1.3562 -0.3376  0.5320
 8538TIP3   OH225577   0.809   1.012   5.458 -0.9128  0.2678  0.3601
 8538TIP3    H125578   0.880   0.968   5.504  0.3407  0.6808 -1.0991
 8538TIP3    H225579   0.791   0.957   5.382 -1.5390  0.6439  0.2235
 8539TIP3   OH225580   5.362   5.952   1.883 -0.1101  0.4651 -0.0401
 8539TIP3    H125581   5.333   6.013   1.815  0.6312  1.0230  0.1365
 8539TIP3    H225582   5.451   5.928   1.857 -0.3709 -0.5173 -0.0825
 8540TIP3   OH225583   2.156   1.802   1.215 -0.1132  0.1232  0.0809
 8540TIP3    H125584   2.159   1.767   1.126 -1.5998  0.3035 -0.0611
 8540TIP3    H225585   2.156   1.724   1.271  0.2964 -0.0043 -0.0968
 8541TIP3   OH225586   5.673   0.586   3.202  0.1974 -0.5220 -0.1808
 8541TIP3    H125587   5.650   0.574   3.294 -1.2633 -0.3917 -0.5111
 8541TIP3    H225588   5.634   0.511   3.157  2.9787 -1.9644 -0.4339
 8542TIP3   OH225589   7.224   6.221   5.089 -0.0075 -0.3185 -0.2967
 8542TIP3    H125590   7.232   6.127   5.077  0.0000 -0.3612  0.0330
 8542TIP3    H225591   7.130   6.238   5.079  0.0144 -0.3320 -0.5427
 8543TIP3   OH225592   5.774   0.142   1.122 -0.2449 -0.4802  0.1140
 8543TIP3    H125593   5.803   0.208   1.059 -1.3181  2.1171  2.1535
 8543TIP3    H225594   5.680   0.132   1.106 -0.0889 -1.5846 -0.1915
 8544TIP3   OH225595   1.946   5.920   1.652  0.0261  0.3634 -0.4093
 8544TIP3    H125596   1.909   5.935   1.740  0.2681 -0.8292 -0.0861
 8544TIP3    H225597   1.952   5.825   1.645  0.2680  0.4572 -1.6263
 8545TIP3   OH225598   3.124   0.328   2.391 -0.1433 -0.7428 -0.3546
 8545TIP3    H125599   3.031   0.348   2.393 -0.2604 -0.6045 -3.0285
 8545TIP3    H225600   3.167   0.413   2.385 -0.0477 -0.8720 -1.8529
 8546TIP3   OH225601   1.395   2.517   3.745 -0.1862 -0.2370  0.0487
 8546TIP3    H125602   1.353   2.465   3.814 -0.1058 -1.0505 -0.5037
 8546TIP3    H225603   1.323   2.565   3.704 -0.3471 -0.3787  0.1634
 8547TIP3   OH225604   6.657   3.124   5.522  0.1529 -0.9101  0.0643
 8547TIP3    H125605   6.686   3.042   5.483  0.3611 -1.2874  0.9975
 8547TIP3    H225606   6.640   3.103   5.614 -1.7492 -0.3876 -0.1141
 8548TIP3   OH225607   6.437   4.560   3.508  0.1847 -0.2167 -0.3347
 8548TIP3    H125608   6.437   4.465   3.519  2.0238 -0.2983 -0.7819
 8548TIP3    H225609   6.501   4.592   3.571 -0.8814  0.8146  0.2606
 8549TIP3   OH225610   7.153   5.955   3.310  0.0419  0.1709  0.2791
 8549TIP3    H125611   7.241   5.985   3.331  0.0728 -0.4881  1.1444
 8549TIP3    H225612   7.094   6.013   3.358 -0.0209  0.9056 -0.6705
 8550TIP3   OH225613   4.877   4.408   5.867 -0.4496  0.2241  0.1715
 8550TIP3    H125614   4.875   4.482   5.806  1.0612  1.8648  1.9998
 8550TIP3    H225615   4.811   4.348   5.832 -0.7513  1.7618 -2.1839
 8551TIP3   OH225616   6.854   1.683   4.454 -0.1194 -0.3335  0.2524
 8551TIP3    H125617   6.802   1.742   4.399 -1.0597 -1.2535  0.1318
 8551TIP3    H225618   6.868   1.733   4.535 -0.6350  0.1740  0.0379
 8552TIP3   OH225619   4.662   2.409   1.175  0.3581  0.1348 -0.7518
 8552TIP3    H125620   4.751   2.430   1.205 -0.1069  0.9378  0.0936
 8552TIP3    H225621   4.618   2.373   1.251 -0.1594  0.0968 -1.0617
 8553TIP3   OH225622   5.837   2.624   2.938 -0.6281  0.6980 -0.7373
 8553TIP3    H125623   5.844   2.710   2.981 -0.6123 -0.1889  1.1488
 8553TIP3    H225624   5.818   2.563   3.010  1.1734 -1.1558 -1.7448
 8554TIP3   OH225625   1.466   4.060   4.048  0.0967  0.1663 -0.0924
 8554TIP3    H125626   1.435   4.135   4.099 -0.9294 -0.4638  0.2563
 8554TIP3    H225627   1.543   4.028   4.095  0.0727  0.5306  0.1925
 8555TIP3   OH225628   3.283   4.048   5.452  0.0489 -0.2388 -1.0365
 8555TIP3    H125629   3.338   3.970   5.451 -0.2770 -0.4831 -0.1267
 8555TIP3    H225630   3.344   4.121   5.442  0.7651 -0.3832  1.6836
 8556TIP3   OH225631   2.880   0.511   1.190 -0.6644 -0.5977 -0.2075
 8556TIP3    H125632   2.867   0.585   1.248  2.8346  0.8121 -0.9348
 8556TIP3    H225633   2.841   0.538   1.107 -1.0278 -0.3497  0.0455
 8557TIP3   OH225634   2.318   0.232   0.139 -0.0688  0.0200 -0.1080
 8557TIP3    H125635   2.401   0.261   0.099 -1.2281  0.1984 -2.6109
 8557TIP3    H225636   2.331   0.140   0.159  0.1042 -0.5382 -2.5206
 8558TIP3   OH225637  -0.008   6.715   4.276 -0.5551  0.1760 -0.6714
 8558TIP3    H125638  -0.004   6.621   4.258 -0.0205  0.1268 -0.3362
 8558TIP3    H225639   0.015   6.722   4.368 -0.0098  0.6780 -0.8399
 8559TIP3   OH225640   1.050   6.420   0.251  0.1684  0.0341  0.4788
 8559TIP3    H125641   0.968   6.449   0.211  0.6685  1.3984  0.3814
 8559TIP3    H225642   1.097   6.377   0.180 -1.3701 -2.8793  1.0714
 8560TIP3   OH225643   6.810   2.130   5.597 -0.4183  0.1283  0.5592
 8560TIP3    H125644   6.863   2.203   5.629  1.1872 -0.1051 -1.3592
 8560TIP3    H225645   6.727   2.170   5.571  0.6940  1.5033 -1.1597
 8561TIP3   OH225646   3.095   0.366   5.589  0.8182 -0.3497 -0.3419
 8561TIP3    H125647   3.019   0.423   5.600 -0.3722 -1.5195 -1.9805
 8561TIP3    H225648   3.164   0.424   5.556 -0.6834  0.0734 -3.0731
 8562TIP3   OH225649   4.961   0.034   1.683 -0.0607 -0.4233 -0.7736
 8562TIP3    H125650   5.031   0.004   1.741 -1.2964 -0.7847  0.5698
 8562TIP3    H225651   4.929   0.114   1.724 -0.6488 -0.4298 -1.2186
 8563TIP3   OH225652   0.841   1.828   4.763 -0.9621 -0.0595 -0.4897
 8563TIP3    H125653   0.814   1.910   4.723 -1.1801  0.2036  0.1797
 8563TIP3    H225654   0.826   1.840   4.857 -1.8600 -1.1917 -0.4617
 8564TIP3   OH225655   3.488   0.669   0.185  0.1832  0.4615  0.9486
 8564TIP3    H125656   3.501   0.581   0.151  1.2448  1.2567 -0.8397
 8564TIP3    H225657   3.547   0.674   0.261 -0.1608 -0.4562  1.2934
 8565TIP3   OH225658   3.071   5.234   0.074 -0.4019  0.0982  0.0741
 8565TIP3    H125659   3.158   5.273   0.080 -0.9496  1.1332  1.7315
 8565TIP3    H225660   3.074   5.159   0.133 -0.9144  0.7436  0.9491
 8566TIP3   OH225661   1.123   5.679   0.348 -0.5559 -0.5520 -0.1694
 8566TIP3    H125662   1.084   5.652   0.431 -2.7993 -0.5620 -1.1375
 8566TIP3    H225663   1.187   5.611   0.328  1.3054  0.3396  2.3192
 8567TIP3   OH225664   0.818   0.779   4.217 -0.2441 -0.4303 -0.2924
 8567TIP3    H125665   0.819   0.701   4.272 -2.1027  0.3941  0.9956
 8567TIP3    H225666   0.783   0.748   4.133 -0.0978 -1.1356 -0.1055
 8568TIP3   OH225667   0.056   6.637   4.840  0.4380  0.3909 -0.0465
 8568TIP3    H125668   0.146   6.666   4.858  1.1185  0.3799 -2.9585
 8568TIP3    H225669   0.007   6.718   4.825  0.7603  0.3384 -1.5647
 8569TIP3   OH225670   6.835   0.589   5.632  0.2867 -0.1496 -0.1062
 8569TIP3    H125671   6.793   0.552   5.554 -0.0632  0.4689 -0.2155
 8569TIP3    H225672   6.891   0.518   5.664  1.4317  0.0192 -1.6313
 8570TIP3   OH225673   4.581   0.699   0.258 -0.0363  0.4617  0.0756
 8570TIP3    H125674   4.494   0.737   0.245 -1.1174 -2.2918 -1.6348
 8570TIP3    H225675   4.596   0.645   0.180  1.2394 -2.7030  2.2841
 8571TIP3   OH225676   5.498   3.006   1.915  0.2592 -0.2571  0.2280
 8571TIP3    H125677   5.488   2.988   2.009  0.5875 -0.9679  0.1356
 8571TIP3    H225678   5.456   3.091   1.902 -0.4468 -0.4873  0.8920
 8572TIP3   OH225679   1.454   3.521   2.240  0.2828  0.0538  0.4296
 8572TIP3    H125680   1.475   3.544   2.149  0.2583 -2.5953 -0.3098
 8572TIP3    H225681   1.361   3.541   2.249 -0.1257 -1.2420 -0.6854
 8573TIP3   OH225682   4.016   6.731   5.422 -0.4293 -0.1316  0.1211
 8573TIP3    H125683   3.956   6.767   5.356  0.3851  0.0794 -0.5214
 8573TIP3    H225684   4.098   6.717   5.374  0.2331  0.1936  1.1296
 8574TIP3   OH225685   2.279   0.859   3.601 -0.2287 -0.1172 -0.4658
 8574TIP3    H125686   2.354   0.916   3.616  0.1328 -0.8240  0.5102
 8574TIP3    H225687   2.221   0.874   3.676 -0.3960 -0.5972 -0.4909
 8575TIP3   OH225688   0.768   0.894   1.209 -0.0560  0.6671 -0.0729
 8575TIP3    H125689   0.854   0.934   1.219  0.4601 -0.3022 -0.4234
 8575TIP3    H225690   0.722   0.915   1.290  0.8517  0.4153  0.5331
 8576TIP3   OH225691   2.580   4.644   4.568 -0.1412  0.2872 -0.4622
 8576TIP3    H125692   2.632   4.720   4.594  0.3928  0.4674 -1.9346
 8576TIP3    H225693   2.493   4.660   4.605  0.7397  0.0671  1.9069
 8577TIP3   OH225694   1.561   6.271   5.730 -0.5429 -0.5527  0.2567
 8577TIP3    H125695   1.632   6.272   5.794 -0.9117 -0.3431  0.6707
 8577TIP3    H225696   1.564   6.358   5.690 -0.5179 -0.5667  0.2297
 8578TIP3   OH225697   3.088   1.114   0.524 -0.0063 -0.5313 -0.0500
 8578TIP3    H125698   3.168   1.130   0.573 -0.9688  1.2627  1.0438
 8578TIP3    H225699   3.029   1.071   0.586 -0.9080  0.9108  0.1490
 8579TIP3   OH225700   0.662   0.351   2.267  0.2179 -0.4344 -0.0563
 8579TIP3    H125701   0.606   0.429   2.271  2.1091  0.9524  1.2063
 8579TIP3    H225702   0.675   0.336   2.173 -1.7762 -0.4845 -0.3678
 8580TIP3   OH225703   0.947   6.147   2.415 -0.2299  0.0051  0.1435
 8580TIP3    H125704   1.031   6.185   2.442 -0.9207  1.1063  0.8401
 8580TIP3    H225705   0.899   6.220   2.377 -0.2509 -0.9901 -1.8523
 8581TIP3   OH225706   6.976   0.125   0.220 -0.0490  0.3996 -0.0504
 8581TIP3    H125707   6.976   0.101   0.312  1.2031 -0.4437 -0.2410
 8581TIP3    H225708   7.047   0.189   0.211  0.5592 -0.3334 -0.6047
 8582TIP3   OH225709   0.471   0.650   3.183  0.5995 -0.2320 -0.3335
 8582TIP3    H125710   0.506   0.581   3.239 -0.4482 -1.2483 -0.8881
 8582TIP3    H225711   0.400   0.690   3.235  0.2351 -0.5638 -0.5685
 8583TIP3   OH225712   1.162   0.822   2.755 -0.1445  0.1608 -0.3275
 8583TIP3    H125713   1.199   0.767   2.824  1.1109 -1.0041 -1.8480
 8583TIP3    H225714   1.222   0.896   2.747 -0.8009  0.7880  0.4392
 8584TIP3   OH225715   5.493   3.359   4.052 -0.0124  0.4917 -0.0805
 8584TIP3    H125716   5.501   3.445   4.093 -0.1698  0.3923  0.1625
 8584TIP3    H225717   5.441   3.308   4.114 -0.9209  0.5641 -0.7635
 8585TIP3   OH225718   1.710   0.447   2.778  0.1747  0.1575  0.0011
 8585TIP3    H125719   1.676   0.391   2.848 -1.4210 -0.7971 -1.4487
 8585TIP3    H225720   1.800   0.465   2.802  0.3244 -1.9717  1.1836
 8586TIP3   OH225721   2.745   1.671   0.452  0.0136  0.7861  0.6326
 8586TIP3    H125722   2.655   1.669   0.486 -0.0666 -1.7963  0.4858
 8586TIP3    H225723   2.793   1.724   0.515 -1.6918  2.7324  0.4034
 8587TIP3   OH225724   2.145   4.269   3.193 -0.0687  0.2511 -0.3565
 8587TIP3    H125725   2.069   4.221   3.160 -0.0266 -0.8359  1.0433
 8587TIP3    H225726   2.218   4.237   3.140 -0.1688 -0.6847  0.0594
 8588TIP3   OH225727   1.107   1.429   3.712 -0.2205 -0.0278  0.2376
 8588TIP3    H125728   1.068   1.343   3.730 -0.7153  0.2659  0.5899
 8588TIP3    H225729   1.092   1.479   3.793  0.7629  0.1359  0.3233
 8589TIP3   OH225730   4.241   0.560   1.121 -0.4266 -0.2540 -0.3653
 8589TIP3    H125731   4.325   0.598   1.095 -0.7483 -0.4096 -1.7221
 8589TIP3    H225732   4.202   0.529   1.039 -2.3206  0.8323  0.0541
 8590TIP3   OH225733   7.008   5.316   5.173 -0.2420  0.2037 -0.1786
 8590TIP3    H125734   6.928   5.352   5.135 -0.4835 -1.4323 -1.3338
 8590TIP3    H225735   6.983   5.286   5.260 -0.7597  0.1274 -0.3547
 8591TIP3   OH225736   3.267   2.974   2.552 -0.0406  0.3209  0.1499
 8591TIP3    H125737   3.319   2.940   2.625  0.6287 -0.5744 -0.7143
 8591TIP3    H225738   3.259   3.068   2.570 -0.7709 -0.0393  1.8984
 8592TIP3   OH225739   4.619   0.526   3.543  0.6177 -0.1781 -0.3511
 8592TIP3    H125740   4.647   0.541   3.452  1.0544 -0.1017 -0.2047
 8592TIP3    H225741   4.674   0.455   3.574  1.3840  0.6706  0.2712
 8593TIP3   OH225742   6.044   2.795   3.494  0.1307  0.2676  0.1701
 8593TIP3    H125743   6.014   2.780   3.405  0.2387  0.5186  0.0888
 8593TIP3    H225744   6.006   2.724   3.545  1.4616 -0.8870 -0.3655
 8594TIP3   OH225745   2.043   3.369   2.128 -0.2262 -0.5847 -0.8490
 8594TIP3    H125746   2.035   3.277   2.153  0.4484 -0.2080  0.9572
 8594TIP3    H225747   2.133   3.377   2.095 -0.0916 -0.4792 -0.4673
 8595TIP3   OH225748   0.764   5.847   2.600  0.6013 -0.1056  0.2005
 8595TIP3    H125749   0.824   5.909   2.641 -1.4194  1.4174  1.0153
 8595TIP3    H225750   0.763   5.772   2.660  1.2657  0.0627  0.4381
 8596TIP3   OH225751   5.861   6.040   5.861  0.2593 -0.0636 -0.0575
 8596TIP3    H125752   5.872   6.107   5.928 -1.1381  0.8072 -0.6504
 8596TIP3    H225753   5.916   6.070   5.789  0.7511 -0.3189  0.2070
 8597TIP3   OH225754   2.514   3.537   4.103 -0.2482  0.5454 -0.4767
 8597TIP3    H125755   2.564   3.615   4.129  0.2413  1.0245 -2.6958
 8597TIP3    H225756   2.473   3.507   4.184  0.7050  2.2774  0.7034
 8598TIP3   OH225757   1.624   2.928   5.470 -0.0428 -0.2843  0.1714
 8598TIP3    H125758   1.655   2.838   5.474  1.0054  0.0241 -0.7572
 8598TIP3    H225759   1.605   2.950   5.562  1.6014 -0.8022  0.6747
 8599TIP3   OH225760   5.987   3.650   0.600  0.2028 -0.2733  0.4273
 8599TIP3    H125761   6.018   3.573   0.647 -0.0565  0.7008  2.2571
 8599TIP3    H225762   5.899   3.665   0.633  0.9354  1.9067  1.5794
 8600TIP3   OH225763   6.175   6.484   3.453  0.2083  0.2341 -0.4022
 8600TIP3    H125764   6.239   6.418   3.481 -0.4534 -0.8784 -1.3832
 8600TIP3    H225765   6.133   6.444   3.377 -1.2744  1.1811 -0.1069
 8601TIP3   OH225766   6.739   4.739   2.385  0.5100  0.2586  0.2264
 8601TIP3    H125767   6.732   4.799   2.459 -0.3531  0.1879  0.2143
 8601TIP3    H225768   6.711   4.654   2.419  2.4313 -0.3407  0.4415
 8602TIP3   OH225769   0.062   5.886   2.370  1.5834  0.1857 -0.0033
 8602TIP3    H125770   0.015   5.809   2.336 -1.2505  1.0766  1.6059
 8602TIP3    H225771   0.142   5.850   2.409  1.3615 -1.6618 -1.1295
 8603TIP3   OH225772   1.142   3.953   3.797  0.5041 -0.1478  0.6176
 8603TIP3    H125773   1.196   3.906   3.860  0.7425  1.1016  1.3770
 8603TIP3    H225774   1.193   4.031   3.774 -1.1282  1.3233  1.7217
 8604TIP3   OH225775   6.202   0.749   1.352  0.4729 -0.3501 -0.3362
 8604TIP3    H125776   6.225   0.740   1.260  0.3717 -1.4069 -0.2652
 8604TIP3    H225777   6.216   0.842   1.371  2.5815 -0.5083 -0.8592
 8605TIP3   OH225778   6.391   4.530   1.453 -0.7012  0.1591  0.6020
 8605TIP3    H125779   6.413   4.437   1.457 -3.7091 -0.7369 -0.5444
 8605TIP3    H225780   6.418   4.558   1.365 -0.7484  0.0852  0.5643
 8606TIP3   OH225781   5.190   0.447   3.866  0.5866  0.0431 -0.5013
 8606TIP3    H125782   5.194   0.542   3.874  0.3785  0.0785 -0.8142
 8606TIP3    H225783   5.208   0.415   3.955  0.4159  0.3780 -0.3442
 8607TIP3   OH225784   1.864   4.514   4.428  0.1234  0.3175 -0.4066
 8607TIP3    H125785   1.769   4.522   4.439  0.2365  1.9248 -0.3592
 8607TIP3    H225786   1.885   4.428   4.464 -1.0409  0.7509  1.4511
 8608TIP3   OH225787   2.872   2.205   2.515  0.3990 -0.0841 -0.3833
 8608TIP3    H125788   2.910   2.292   2.503  0.5791 -0.0483  0.3913
 8608TIP3    H225789   2.826   2.187   2.433 -1.3772  1.6015  0.1750
 8609TIP3   OH225790   5.820   2.250   5.207  0.0819  0.1696 -0.1425
 8609TIP3    H125791   5.796   2.316   5.271  0.7560 -0.5175  0.8629
 8609TIP3    H225792   5.740   2.201   5.191 -0.0615  0.2625  0.2863
 8610TIP3   OH225793   5.938   3.854   2.996 -0.7493  0.4188 -0.0525
 8610TIP3    H125794   6.015   3.875   3.048 -1.1435  1.4756  0.1181
 8610TIP3    H225795   5.966   3.781   2.940 -0.3816 -0.9090  1.7663
 8611TIP3   OH225796   3.960   4.432   1.684 -0.3208 -0.7099  0.4837
 8611TIP3    H125797   3.963   4.376   1.606 -0.5050 -0.7718  0.5200
 8611TIP3    H225798   4.047   4.471   1.688 -0.0542 -1.3049  0.6853
 8612TIP3   OH225799   2.278   1.264   1.177 -0.0071 -0.0258 -0.5238
 8612TIP3    H125800   2.357   1.291   1.130  0.2142  1.0718  0.4393
 8612TIP3    H225801   2.309   1.199   1.239  0.2730  0.8804  0.3042
 8613TIP3   OH225802   4.304   4.356   2.388  0.0486 -0.2631 -0.5599
 8613TIP3    H125803   4.325   4.444   2.358 -1.4590 -0.3013 -1.8577
 8613TIP3    H225804   4.279   4.309   2.309 -0.6195 -1.4256  0.3036
 8614TIP3   OH225805   1.233   3.265   4.666  0.3091  0.1987  0.6392
 8614TIP3    H125806   1.306   3.203   4.661 -0.2482 -0.3747 -1.0864
 8614TIP3    H225807   1.260   3.338   4.610 -0.3610  0.0475  0.1065
 8615TIP3   OH225808   0.056   5.337   4.741 -0.2773  0.8183 -0.0834
 8615TIP3    H125809   0.030   5.270   4.804  1.6038  1.0820  1.0579
 8615TIP3    H225810   0.140   5.307   4.707 -0.4232  1.5590 -1.1680
 8616TIP3   OH225811   0.011   6.767   0.856  0.3355 -0.3638 -0.2161
 8616TIP3    H125812   0.018   6.694   0.918 -0.3358 -2.6484 -2.6270
 8616TIP3    H225813   0.097   6.771   0.813  0.3661  0.2670 -0.1037
 8617TIP3   OH225814   1.107   4.717   2.026 -0.0515  0.2279  0.3917
 8617TIP3    H125815   1.042   4.720   1.956 -0.1171 -0.7102  0.4068
 8617TIP3    H225816   1.056   4.712   2.106  0.0276  1.0480  0.5012
 8618TIP3   OH225817   6.404   4.068   1.612 -0.3865  0.0027  0.5182
 8618TIP3    H125818   6.382   4.003   1.546 -1.8548 -0.2572  1.2152
 8618TIP3    H225819   6.442   4.141   1.563 -3.4218  0.7584 -0.9742
 8619TIP3   OH225820   1.185   2.363   3.522 -0.2059 -0.0869 -0.3887
 8619TIP3    H125821   1.246   2.359   3.449  1.2704 -0.4628  0.8154
 8619TIP3    H225822   1.120   2.428   3.495  1.3184  1.1432 -1.2771
 8620TIP3   OH225823   6.036   3.926   0.497 -0.4422 -0.6123  0.1446
 8620TIP3    H125824   5.947   3.947   0.526 -1.1952 -2.1843 -0.9118
 8620TIP3    H225825   6.060   3.849   0.548  0.0919 -0.5419  0.0001
 8621TIP3   OH225826   6.672   4.777   4.918 -0.0305  0.0249  0.6772
 8621TIP3    H125827   6.607   4.744   4.856  3.0456 -2.3121 -1.6156
 8621TIP3    H225828   6.690   4.866   4.889 -3.2172  1.4524  2.4560
 8622TIP3   OH225829   0.331   3.173   1.888 -0.0265 -0.7362 -0.0045
 8622TIP3    H125830   0.264   3.174   1.956 -1.7008  0.7428 -1.5598
 8622TIP3    H225831   0.356   3.080   1.881 -0.5956 -1.0684  1.8324
 8623TIP3   OH225832   3.452   1.733   3.410  0.0472 -0.1017  0.1732
 8623TIP3    H125833   3.393   1.806   3.430 -0.5779 -0.2671 -0.9737
 8623TIP3    H225834   3.421   1.662   3.467 -0.6168 -0.0666 -0.1328
 8624TIP3   OH225835   6.723   5.095   1.590 -0.4603 -0.1212 -0.0894
 8624TIP3    H125836   6.735   5.173   1.645  1.2798 -0.8256  0.5901
 8624TIP3    H225837   6.637   5.108   1.549 -0.1157  2.2674 -0.2056
 8625TIP3   OH225838   6.892   3.184   0.621  0.1305 -0.3088 -0.4985
 8625TIP3    H125839   6.867   3.092   0.620 -1.7046  0.1467 -0.0355
 8625TIP3    H225840   6.839   3.224   0.552  1.5813  0.2635 -1.3303
 8626TIP3   OH225841   4.785   0.667   5.391 -0.3658  0.1506 -0.0216
 8626TIP3    H125842   4.865   0.715   5.414  0.5799 -1.4269  0.0856
 8626TIP3    H225843   4.722   0.694   5.458 -0.0150  1.5669 -0.2254
 8627TIP3   OH225844   5.708   3.887   1.676  0.8192 -0.3547 -0.3240
 8627TIP3    H125845   5.740   3.977   1.676  1.6899 -0.6420  0.6684
 8627TIP3    H225846   5.632   3.888   1.734  1.3874 -0.4229  0.4427
 8628TIP3   OH225847   5.306   3.839   0.695  0.3076  0.6816 -0.1325
 8628TIP3    H125848   5.238   3.772   0.687 -2.3601  3.3208 -1.2979
 8628TIP3    H225849   5.317   3.872   0.606  1.3267  2.0219  0.4623
 8629TIP3   OH225850   1.333   2.798   5.667 -0.0209 -0.1767 -0.1956
 8629TIP3    H125851   1.322   2.892   5.656  0.3558  0.1166  1.6284
 8629TIP3    H225852   1.413   2.789   5.717 -1.2282 -1.3152  1.6439
 8630TIP3   OH225853   1.245   4.478   0.157 -0.2130 -0.1532 -0.4129
 8630TIP3    H125854   1.218   4.463   0.248 -0.3330 -0.7758 -0.5475
 8630TIP3    H225855   1.271   4.570   0.155 -0.8975  0.0647  0.0853
 8631TIP3   OH225856   4.365   4.327   4.317  0.2899 -0.4312 -0.4579
 8631TIP3    H125857   4.301   4.256   4.310 -0.8104  0.6599 -2.9038
 8631TIP3    H225858   4.450   4.283   4.320 -0.4516 -1.8684  0.5585
 8632TIP3   OH225859   5.686   3.045   1.713  0.0788  0.4770 -0.2090
 8632TIP3    H125860   5.672   3.022   1.805 -1.3784 -0.8017 -0.7094
 8632TIP3    H225861   5.598   3.054   1.677  0.6291  1.0850 -1.4570
 8633TIP3   OH225862   5.506   3.296   5.222  0.5797  0.1788  0.3867
 8633TIP3    H125863   5.560   3.220   5.201 -1.9654 -1.2899 -1.4372
 8633TIP3    H225864   5.458   3.270   5.300  1.8058  1.1400  1.4973
 8634TIP3   OH225865   6.681   6.007   5.711  0.5028 -0.1369  0.3752
 8634TIP3    H125866   6.693   6.058   5.631 -1.1226  0.0619  0.2317
 8634TIP3    H225867   6.645   5.923   5.681  0.2172 -0.1960  0.8687
 8635TIP3   OH225868   2.723   0.151   5.575 -0.2589 -0.4209 -0.0382
 8635TIP3    H125869   2.657   0.185   5.514 -0.7678  0.0129  0.7291
 8635TIP3    H225870   2.801   0.136   5.522 -0.1720  1.5109 -0.4986
 8636TIP3   OH225871   0.667   0.110   0.086 -0.5633 -0.1400  0.2638
 8636TIP3    H125872   0.739   0.149   0.137  0.2980 -1.5240  0.1631
 8636TIP3    H225873   0.694   0.122  -0.005 -1.9733  2.0880  0.0483
 8637TIP3   OH225874   2.168   1.097   3.750 -0.2368  0.3438  0.2667
 8637TIP3    H125875   2.183   1.079   3.842 -0.1378 -1.4918 -0.0547
 8637TIP3    H225876   2.253   1.125   3.716  0.3056 -1.0974  0.3269
 8638TIP3   OH225877   7.020   0.322   4.331  0.0324 -0.2072 -0.2537
 8638TIP3    H125878   7.045   0.256   4.266  0.5876 -0.2830  0.0351
 8638TIP3    H225879   7.024   0.277   4.415 -0.7954 -0.1385 -0.1633
 8639TIP3   OH225880   5.109   1.343   1.966  0.2418  0.2341  0.2953
 8639TIP3    H125881   5.156   1.295   1.897  0.0981  0.1174  0.2799
 8639TIP3    H225882   5.078   1.422   1.923 -0.5577 -0.2218  0.0125
 8640TIP3   OH225883   4.939   3.036   0.502  0.0046  0.2537 -0.3435
 8640TIP3    H125884   4.935   3.054   0.408  0.3728  1.2974 -0.1683
 8640TIP3    H225885   4.854   2.998   0.523 -0.4682  0.9810 -0.9028
 8641TIP3   OH225886   0.705   3.493   4.439  0.3094 -0.1337  0.2319
 8641TIP3    H125887   0.674   3.574   4.479  0.9073  0.4571 -0.4699
 8641TIP3    H225888   0.786   3.518   4.395 -1.0937 -0.3639 -2.7093
 8642TIP3   OH225889   0.024   3.870   0.700  0.4885  0.7078  0.2312
 8642TIP3    H125890   0.092   3.806   0.678  0.9980  1.5829 -0.8485
 8642TIP3    H225891   0.017   3.866   0.795  0.3758 -1.0758  0.1817
 8643TIP3   OH225892   3.911   0.830   5.837 -0.2829 -0.6570  0.2497
 8643TIP3    H125893   3.883   0.740   5.818 -1.5625 -0.4998  1.2814
 8643TIP3    H225894   3.930   0.868   5.751 -2.0724 -1.1794 -0.4144
 8644TIP3   OH225895   3.629   0.397   5.366  0.4251  0.0081 -0.4001
 8644TIP3    H125896   3.707   0.343   5.376  0.5544  0.3722  0.7180
 8644TIP3    H225897   3.597   0.377   5.278  1.6977 -0.2464 -0.8291
 8645TIP3   OH225898   6.599   1.693   1.733  0.3516 -0.0506 -0.0916
 8645TIP3    H125899   6.532   1.655   1.675  0.2905  0.4729 -0.3695
 8645TIP3    H225900   6.676   1.701   1.677 -0.5591  3.4183 -1.1220
 8646TIP3   OH225901   4.122   2.632   5.402  0.5959  0.3359  0.2988
 8646TIP3    H125902   4.164   2.699   5.348  2.3478 -1.8809 -1.2842
 8646TIP3    H225903   4.185   2.616   5.473  0.2944  0.1954  0.5373
 8647TIP3   OH225904   2.968   3.329   3.636  0.1781  0.3443 -0.2442
 8647TIP3    H125905   3.020   3.386   3.693 -2.4141  0.5623  2.1545
 8647TIP3    H225906   2.957   3.248   3.686  0.0466 -0.5340 -1.6500
 8648TIP3   OH225907   6.032   4.897   3.556 -0.0539  0.4924  0.2456
 8648TIP3    H125908   6.068   4.814   3.524 -0.0960  1.3534 -2.2357
 8648TIP3    H225909   6.095   4.925   3.623  0.8220 -0.7628  0.0019
 8649TIP3   OH225910   6.609   3.768   1.694 -0.0527  0.4449 -0.2202
 8649TIP3    H125911   6.605   3.768   1.598 -0.3957  1.9844 -0.2357
 8649TIP3    H225912   6.521   3.739   1.721 -0.1420  0.5739 -0.3709
 8650TIP3   OH225913   4.255   5.599   1.257  0.0900 -0.3903  0.6374
 8650TIP3    H125914   4.217   5.511   1.246 -1.4192  0.3641 -0.5793
 8650TIP3    H225915   4.346   5.589   1.229  0.1694 -1.7244  1.2689
 8651TIP3   OH225916   1.565   2.379   4.059  0.1728  0.0658 -0.0251
 8651TIP3    H125917   1.507   2.344   4.126 -0.2053 -1.0380 -0.8870
 8651TIP3    H225918   1.614   2.302   4.027  1.2783  0.7803 -0.1127
 8652TIP3   OH225919   1.720   1.926   2.830  0.3027 -0.1216 -0.4280
 8652TIP3    H125920   1.680   1.928   2.917  0.0039  0.5557 -0.5743
 8652TIP3    H225921   1.814   1.920   2.847  0.3561  1.4230 -0.0265
 8653TIP3   OH225922   2.957   6.291   5.812 -0.2596 -0.5577 -0.3361
 8653TIP3    H125923   2.865   6.281   5.787 -0.8236 -0.6903  1.6361
 8653TIP3    H225924   2.966   6.238   5.891  1.3169  0.1091 -0.0413
 8654TIP3   OH225925   0.459   6.158   4.279 -0.2780  0.1580  0.1287
 8654TIP3    H125926   0.552   6.151   4.256 -0.5369 -0.2800 -0.8664
 8654TIP3    H225927   0.413   6.129   4.200 -1.2412 -1.2004  1.1494
 8655TIP3   OH225928   4.113   1.435   3.475 -0.0208  0.4138  0.0371
 8655TIP3    H125929   4.098   1.359   3.419  2.4088 -0.4241  0.4187
 8655TIP3    H225930   4.037   1.437   3.533 -0.8176 -0.8558 -0.8918
 8656TIP3   OH225931   4.508   4.946   4.882  0.1568  0.2893 -0.4403
 8656TIP3    H125932   4.578   5.010   4.868  0.1959 -0.1046 -2.3196
 8656TIP3    H225933   4.446   4.991   4.940  1.2967  1.1487  0.1546
 8657TIP3   OH225934   4.199   6.692   5.814 -0.1959  0.4004  0.0988
 8657TIP3    H125935   4.108   6.713   5.830 -0.4873  0.3167 -1.2897
 8657TIP3    H225936   4.244   6.777   5.815 -0.2884  0.4484  0.6985
 8658TIP3   OH225937   6.105   5.972   2.946  0.0384 -0.4880  0.1717
 8658TIP3    H125938   6.187   5.993   2.901  0.0202  0.0740  0.3876
 8658TIP3    H225939   6.109   6.022   3.027 -1.9728  2.3173 -1.2524
 8659TIP3   OH225940   1.636   0.493   4.066  0.8561  0.2508  0.8224
 8659TIP3    H125941   1.625   0.560   4.133 -0.7308 -0.6896  1.5579
 8659TIP3    H225942   1.607   0.535   3.985  2.3852  1.2590  0.7616
 8660TIP3   OH225943   1.643   5.983   0.866 -0.5007  0.2207 -0.1148
 8660TIP3    H125944   1.728   6.026   0.878 -0.4277  0.1776 -0.4684
 8660TIP3    H225945   1.591   6.045   0.816 -0.5847  0.1351 -0.1339
 8661TIP3   OH225946   0.452   0.809   5.013  0.4347 -0.0493  0.0010
 8661TIP3    H125947   0.359   0.817   4.992  0.1419 -1.2965  0.7365
 8661TIP3    H225948   0.454   0.771   5.101  1.6392  0.4677  0.2111
 8662TIP3   OH225949   3.374   6.320   1.036 -0.3730  0.1907  0.4385
 8662TIP3    H125950   3.455   6.302   0.989 -0.2312 -1.0298  1.0972
 8662TIP3    H225951   3.308   6.267   0.991 -0.7697  1.0030  0.0465
 8663TIP3   OH225952   6.075   4.488   0.649 -0.5391  0.5671 -0.1408
 8663TIP3    H125953   6.090   4.394   0.658 -3.8195 -0.0587  0.0061
 8663TIP3    H225954   6.102   4.525   0.733  2.2444  0.0887 -0.7290
 8664TIP3   OH225955   4.653   0.787   3.891 -0.4347  0.4503 -0.2962
 8664TIP3    H125956   4.642   0.806   3.798  1.2413 -0.3012 -0.6896
 8664TIP3    H225957   4.628   0.695   3.899 -1.6576  0.8073  0.2377
 8665TIP3   OH225958   6.790   2.571   0.136  0.3762 -0.1866 -0.0979
 8665TIP3    H125959   6.752   2.488   0.105 -0.3197  0.3896 -0.8326
 8665TIP3    H225960   6.728   2.638   0.105  0.8494  0.5904  0.6283
 8666TIP3   OH225961   0.744   4.387   1.243  0.0818 -0.1078 -0.3040
 8666TIP3    H125962   0.689   4.352   1.173  1.1499 -2.8804  0.1341
 8666TIP3    H225963   0.830   4.399   1.203  0.4981 -0.9642  0.2972
 8667TIP3   OH225964   4.064   0.241   5.660 -0.5352 -0.4332 -0.1003
 8667TIP3    H125965   4.033   0.234   5.750  2.9795  2.7698  1.6345
 8667TIP3    H225966   4.129   0.171   5.652 -0.9926 -0.8458 -0.2302
 8668TIP3   OH225967   6.977   4.870   3.223 -0.1770 -0.4932  0.5194
 8668TIP3    H125968   6.905   4.840   3.277 -0.2190 -2.1088 -0.3610
 8668TIP3    H225969   7.003   4.953   3.262 -0.8922 -1.0638  2.3414
 8669TIP3   OH225970   6.860   0.947   5.368 -0.0303 -0.0093  0.2633
 8669TIP3    H125971   6.944   0.916   5.401 -0.4512 -1.1110  0.3465
 8669TIP3    H225972   6.803   0.951   5.445 -0.0873  0.6217  0.1923
 8670TIP3   OH225973   1.179   1.387   3.999  0.4125  0.2391  0.5467
 8670TIP3    H125974   1.205   1.462   4.053 -1.3519 -0.4967  2.5343
 8670TIP3    H225975   1.140   1.325   4.060 -0.3395 -1.3095 -1.3925
 8671TIP3   OH225976   4.615   1.442   3.989 -0.5534  0.3632  0.4006
 8671TIP3    H125977   4.563   1.522   3.993 -0.2728  0.5261  3.4250
 8671TIP3    H225978   4.704   1.471   3.968 -1.0430  0.4153 -1.7798
 8672TIP3   OH225979   4.484   1.411   3.464  0.1040 -0.3047  0.4670
 8672TIP3    H125980   4.558   1.355   3.485  1.1972  1.0087  0.2531
 8672TIP3    H225981   4.489   1.483   3.526  0.3009  0.9141 -0.9163
 8673TIP3   OH225982   0.576   4.930   0.380  0.1687 -0.3852 -0.8381
 8673TIP3    H125983   0.582   5.008   0.325  2.1992 -1.3463 -2.1224
 8673TIP3    H225984   0.483   4.906   0.378 -0.1636  0.8585 -2.0854
 8674TIP3   OH225985   1.514   4.839   3.082 -0.0732 -0.2220 -0.3962
 8674TIP3    H125986   1.466   4.845   3.000 -0.5151  0.0762 -0.1210
 8674TIP3    H225987   1.458   4.884   3.146 -1.5025 -3.4763  0.8708
 8675TIP3   OH225988   4.498   4.678   4.948  0.0599  0.2259  0.4714
 8675TIP3    H125989   4.566   4.674   5.015 -1.6310  2.6078  2.5135
 8675TIP3    H225990   4.496   4.771   4.923 -2.8209  0.3751  0.9841
 8676TIP3   OH225991   2.145   1.139   4.036 -0.1887  0.3742  0.4203
 8676TIP3    H125992   2.193   1.218   4.010  1.8221 -0.5225  1.1614
 8676TIP3    H225993   2.196   1.103   4.108 -0.6815 -1.9394 -0.2969
 8677TIP3   OH225994   2.186   2.947   0.837 -0.0570  0.1173  0.3673
 8677TIP3    H125995   2.217   3.034   0.863  0.8903 -0.2527  0.5283
 8677TIP3    H225996   2.093   2.946   0.860 -0.3796  1.5110 -0.7688
 8678TIP3   OH225997   2.162   3.523   3.939 -0.1669 -0.1173  0.4084
 8678TIP3    H125998   2.136   3.431   3.928  1.3493 -0.4803 -0.5707
 8678TIP3    H225999   2.146   3.542   4.031 -0.0900 -1.5194  0.7385
 8679TIP3   OH226000   4.620   1.171   3.052 -0.3376 -0.2300 -0.0270
 8679TIP3    H126001   4.686   1.131   2.995 -0.8824  0.8658 -1.5059
 8679TIP3    H226002   4.666   1.242   3.096 -0.7638  1.4043 -2.0726
 8680TIP3   OH226003   6.181   1.895   0.390 -0.2029 -0.3244 -0.2872
 8680TIP3    H126004   6.197   1.955   0.317  1.3986 -0.2761  0.0535
 8680TIP3    H226005   6.234   1.931   0.462 -1.7478 -0.3683  0.9124
 8681TIP3   OH226006   5.395   6.694   3.107  0.0458  0.3228 -0.4474
 8681TIP3    H126007   5.446   6.727   3.182  1.0201 -0.4228 -0.7588
 8681TIP3    H226008   5.322   6.646   3.147 -0.7565  1.8438  0.0061
 8682TIP3   OH226009   6.142   1.741   5.166  0.4775 -0.1699 -0.0437
 8682TIP3    H126010   6.083   1.816   5.152  0.5635  0.0597  0.8047
 8682TIP3    H226011   6.175   1.721   5.078 -1.6426 -0.9685 -0.7237
 8683TIP3   OH226012   5.282   4.649   3.112 -0.1398  0.4239  0.3759
 8683TIP3    H126013   5.326   4.567   3.134  1.0625  0.7845 -0.5894
 8683TIP3    H226014   5.246   4.680   3.195  1.1597 -0.0451  1.1325
 8684TIP3   OH226015   2.283   4.728   4.914 -0.1690  0.2509  0.5813
 8684TIP3    H126016   2.297   4.822   4.925 -1.0918  0.5325 -0.4441
 8684TIP3    H226017   2.292   4.713   4.820 -0.6317 -0.5763  0.6590
 8685TIP3   OH226018   5.613   2.879   3.200 -0.2675  0.2738 -0.7058
 8685TIP3    H126019   5.686   2.903   3.143 -0.9794  1.5870 -1.1155
 8685TIP3    H226020   5.610   2.948   3.266 -0.3582 -0.4494  0.0578
 8686TIP3   OH226021   4.669   3.632   4.459  0.8017  0.6120  0.6839
 8686TIP3    H126022   4.608   3.560   4.441  1.1713  0.8843 -2.1496
 8686TIP3    H226023   4.613   3.705   4.484  0.0501  0.4262 -0.3610
 8687TIP3   OH226024   2.711   5.382   2.489 -0.0450  0.7069 -0.2626
 8687TIP3    H126025   2.740   5.363   2.578 -0.0588  0.8705 -0.2217
 8687TIP3    H226026   2.655   5.308   2.465 -1.3571  1.4104  0.4735
 8688TIP3   OH226027   5.609   3.502   1.889  0.0665 -0.9579 -0.0480
 8688TIP3    H126028   5.592   3.455   1.971 -0.4126 -0.3735  0.1948
 8688TIP3    H226029   5.636   3.590   1.917 -0.3079 -0.6895 -0.5183
 8689TIP3   OH226030   1.872   6.074   3.924 -0.2885 -0.3918  0.4412
 8689TIP3    H126031   1.963   6.067   3.952 -0.2557 -0.9823  0.1968
 8689TIP3    H226032   1.838   5.985   3.927 -1.6670  0.0965  3.1253
 8690TIP3   OH226033   5.217   1.229   2.443  0.7388  0.0776 -0.1585
 8690TIP3    H126034   5.214   1.192   2.355  1.1664 -2.0575  0.6642
 8690TIP3    H226035   5.265   1.164   2.495  1.0463  1.5623  1.5274
 8691TIP3   OH226036   4.537   4.001   4.258  0.1145  0.5742  0.9833
 8691TIP3    H126037   4.533   4.074   4.196 -2.2345 -0.2286  0.0650
 8691TIP3    H226038   4.450   3.962   4.254  1.5972 -3.0820  0.4751
 8692TIP3   OH226039   3.505   2.716   0.835 -0.1893 -0.2956  0.2706
 8692TIP3    H126040   3.525   2.797   0.788  0.9822 -0.8862 -0.2603
 8692TIP3    H226041   3.409   2.708   0.828 -0.5026  1.6762  1.4091
 8693TIP3   OH226042   2.179   5.226   4.243 -0.5428 -0.5304  0.2480
 8693TIP3    H126043   2.142   5.160   4.185 -1.6276 -0.0134  0.3231
 8693TIP3    H226044   2.133   5.307   4.219 -0.5057 -0.1702  1.3459
 8694TIP3   OH226045   0.289   4.764   4.404  0.1507 -0.2263 -0.2808
 8694TIP3    H126046   0.226   4.775   4.332 -0.0159  1.0994  0.0355
 8694TIP3    H226047   0.374   4.773   4.363  0.0952 -0.8574 -0.5319
 8695TIP3   OH226048   3.489   1.322   0.267 -0.2625 -0.6019 -0.3263
 8695TIP3    H126049   3.466   1.247   0.212  0.1272 -0.6490 -0.4293
 8695TIP3    H226050   3.458   1.398   0.218 -0.1780 -0.6619 -0.4731
 8696TIP3   OH226051   6.950   5.700   1.866 -0.3421  0.0474  0.0511
 8696TIP3    H126052   6.908   5.615   1.852 -0.0404  0.1990 -2.0175
 8696TIP3    H226053   7.030   5.678   1.915 -1.0035 -0.6549  0.8559
 8697TIP3   OH226054   5.750   3.866   1.056  0.1707 -0.2247  0.5653
 8697TIP3    H126055   5.700   3.923   1.115  0.5030  1.2455 -0.5238
 8697TIP3    H226056   5.833   3.912   1.043  0.2725 -0.7267 -0.7037
 8698TIP3   OH226057   0.012   0.646   0.454  0.4418  0.0804 -0.2097
 8698TIP3    H126058   0.056   0.578   0.505 -0.2205 -1.0663 -1.1226
 8698TIP3    H226059  -0.012   0.603   0.372 -1.1345  1.0495 -0.2989
 8699TIP3   OH226060   2.329   1.356   1.694  0.3195 -0.0222 -0.1627
 8699TIP3    H126061   2.285   1.427   1.741 -2.0330 -1.5559  0.1401
 8699TIP3    H226062   2.368   1.302   1.763  2.1374  0.9204 -0.3938
 8700TIP3   OH226063   5.168   5.897   0.333 -0.6246 -0.4042  0.0435
 8700TIP3    H126064   5.235   5.957   0.366 -0.0844 -0.9097 -0.1050
 8700TIP3    H226065   5.213   5.812   0.328 -0.7161 -0.3925 -1.8017
 8701TIP3   OH226066   2.342   5.931   4.208 -0.0160 -0.0871 -0.1869
 8701TIP3    H126067   2.390   5.937   4.290  1.7948 -2.1968 -0.9867
 8701TIP3    H226068   2.304   5.843   4.208 -3.1900  1.1901 -0.0225
 8702TIP3   OH226069   5.583   2.470   4.969 -0.5370  0.3399  0.0773
 8702TIP3    H126070   5.512   2.527   4.999  0.5150  2.5744 -1.3423
 8702TIP3    H226071   5.589   2.487   4.875  0.3167 -1.6298 -0.2758
 8703TIP3   OH226072   6.535   3.859   5.493 -0.1510 -0.3282  0.1449
 8703TIP3    H126073   6.563   3.770   5.513 -2.2274 -0.7293  1.5885
 8703TIP3    H226074   6.529   3.903   5.578 -2.6484  0.0331 -0.1349
 8704TIP3   OH226075   2.004   2.052   0.847  0.3730 -0.1702  0.3507
 8704TIP3    H126076   1.957   2.135   0.839 -0.8001 -0.7453  1.0128
 8704TIP3    H226077   2.096   2.077   0.858  0.2295  0.9847 -0.8908
 8705TIP3   OH226078   0.791   0.919   3.276  0.8085 -0.6237  0.2242
 8705TIP3    H126079   0.856   0.892   3.341  0.1377 -1.2231  0.6582
 8705TIP3    H226080   0.764   0.838   3.234  1.0171 -0.2715 -0.6038
 8706TIP3   OH226081   0.456   6.073   0.501  0.2312  0.4233 -0.1140
 8706TIP3    H126082   0.484   6.151   0.453  2.7145  0.0654  0.5838
 8706TIP3    H226083   0.517   6.068   0.575 -0.8018 -1.3839  0.6728
 8707TIP3   OH226084   4.718   5.147   1.724  0.2910  0.2745 -0.2368
 8707TIP3    H126085   4.739   5.198   1.645 -0.9606  0.1949 -0.6446
 8707TIP3    H226086   4.734   5.056   1.698 -1.8530  0.0702 -1.0463
 8708TIP3   OH226087   5.745   2.439   2.562  0.0133  0.3471 -0.9601
 8708TIP3    H126088   5.811   2.499   2.526  1.0617 -0.4682 -0.4559
 8708TIP3    H226089   5.723   2.382   2.489  1.5436 -0.7887 -0.5999
 8709TIP3   OH226090   4.827   4.825   3.170 -0.5188  0.0679  0.6747
 8709TIP3    H126091   4.803   4.775   3.092  1.2864  0.4001 -0.1356
 8709TIP3    H226092   4.798   4.771   3.244  3.0377 -3.2603 -0.0558
 8710TIP3   OH226093   4.343   5.257   4.910  0.0265  0.2078 -0.3078
 8710TIP3    H126094   4.328   5.177   4.958  0.6112  0.8494  0.9927
 8710TIP3    H226095   4.402   5.308   4.966 -0.3165  1.5289 -1.1049
 8711TIP3   OH226096   2.723   3.066   2.776  0.5387  0.2330  0.2179
 8711TIP3    H126097   2.817   3.084   2.764  0.8304 -1.1562  0.2554
 8711TIP3    H226098   2.718   3.019   2.859  0.0714 -1.4978 -0.7576
 8712TIP3   OH226099   4.868   3.430   4.423  0.3762  0.3364 -0.4878
 8712TIP3    H126100   4.829   3.360   4.371  0.9370  0.1948 -0.7303
 8712TIP3    H226101   4.804   3.501   4.420 -0.6552 -0.5093  0.6034
 8713TIP3   OH226102   4.700   0.980   0.527  0.0842  0.0255 -0.0440
 8713TIP3    H126103   4.748   0.925   0.465 -2.1028 -1.2990 -0.6577
 8713TIP3    H226104   4.768   1.022   0.579  1.8917 -2.1873 -0.4857
 8714TIP3   OH226105   6.222   5.295   5.319  0.3494  0.2279  0.1826
 8714TIP3    H126106   6.171   5.295   5.400  0.6292 -1.2234  0.3833
 8714TIP3    H226107   6.157   5.277   5.251  0.4826 -1.1577  0.3893
 8715TIP3   OH226108   4.477   5.769   5.089  0.1900 -0.3240  0.0577
 8715TIP3    H126109   4.491   5.735   5.177  1.7972 -0.2056 -0.1239
 8715TIP3    H226110   4.554   5.821   5.071 -0.1993 -0.1964 -1.3617
 8716TIP3   OH226111   2.854   1.434   4.947  0.2200  0.4716  0.4367
 8716TIP3    H126112   2.944   1.414   4.920  1.3203  1.9280  2.7045
 8716TIP3    H226113   2.863   1.474   5.034 -2.4642  2.3802 -0.0309
 8717TIP3   OH226114   3.721   3.843   2.842  0.1981  0.2574  0.1200
 8717TIP3    H126115   3.628   3.863   2.842  0.2488  0.5619  1.0691
 8717TIP3    H226116   3.764   3.927   2.863  0.6979  0.1526 -0.4350
 8718TIP3   OH226117   1.966   1.387   0.842  0.0766  0.0016 -0.3000
 8718TIP3    H126118   1.882   1.355   0.876 -1.2916  1.9461 -1.6069
 8718TIP3    H226119   1.966   1.359   0.750  3.0004 -3.8317  0.6072
 8719TIP3   OH226120   5.713   2.253   5.699 -0.3210  0.4593  0.5906
 8719TIP3    H126121   5.689   2.206   5.779  0.8486 -0.7222  0.2790
 8719TIP3    H226122   5.723   2.185   5.632  0.3224  1.2562 -0.1637
 8720TIP3   OH226123   2.249   5.364   5.370 -0.1122 -0.1693  0.3510
 8720TIP3    H126124   2.159   5.347   5.398  0.0983 -0.3634  0.9290
 8720TIP3    H226125   2.286   5.419   5.440  0.3039 -0.3279  0.2620
 8721TIP3   OH226126   3.259   3.294   2.987 -0.1360 -0.1967  1.0256
 8721TIP3    H126127   3.217   3.378   2.970 -0.3590 -0.5950 -0.6277
 8721TIP3    H226128   3.292   3.301   3.076 -2.5592  0.6307  1.9648
 8722TIP3   OH226129   4.902   1.797   1.858  0.1715  0.1832  0.1004
 8722TIP3    H126130   4.906   1.885   1.822  1.4038  0.0935 -0.0186
 8722TIP3    H226131   4.899   1.810   1.953 -1.2792  0.3727  0.0519
 8723TIP3   OH226132   0.195   3.038   5.352  0.1751 -0.6285 -0.0843
 8723TIP3    H126133   0.142   3.094   5.296  0.6118  0.7074  0.7871
 8723TIP3    H226134   0.141   2.960   5.367 -0.9650  0.0997 -0.3130
 8724TIP3   OH226135   5.232   5.451   5.208  0.1731 -0.1057 -0.2554
 8724TIP3    H126136   5.324   5.458   5.181  0.0693  0.7315 -0.3950
 8724TIP3    H226137   5.217   5.526   5.264  0.3717 -1.7995  2.2300
 8725TIP3   OH226138   2.397   1.857   0.227  0.2186 -0.1490 -0.1783
 8725TIP3    H126139   2.443   1.829   0.306  1.7723  0.8821 -0.6776
 8725TIP3    H226140   2.435   1.804   0.157 -0.4110 -0.3206 -0.3970
 8726TIP3   OH226141   7.190   1.023   2.576 -0.2341 -0.3259 -0.2871
 8726TIP3    H126142   7.124   1.038   2.644  1.4977  1.5981  1.1009
 8726TIP3    H226143   7.167   1.085   2.506  0.5498  1.0204  0.5970
 8727TIP3   OH226144   5.057   1.185   4.763  0.1248 -0.4132 -0.5425
 8727TIP3    H126145   4.965   1.182   4.791  0.1717 -0.3697 -0.3851
 8727TIP3    H226146   5.055   1.232   4.680 -0.1374 -1.3768 -1.1015
 8728TIP3   OH226147   5.523   0.490   0.062 -0.3484 -0.3757 -0.0806
 8728TIP3    H126148   5.557   0.401   0.072  1.0954  0.1281 -0.2817
 8728TIP3    H226149   5.530   0.508  -0.032  0.1638  0.2553  0.0745
 8729TIP3   OH226150   2.554   5.064   1.210 -0.4235  0.0984  0.5485
 8729TIP3    H126151   2.605   5.128   1.260  0.8573 -1.3640  1.1732
 8729TIP3    H226152   2.569   4.981   1.254  0.1225 -1.1242 -1.7889
 8730TIP3   OH226153   3.600   6.095   3.181 -0.4739 -0.1166  0.3422
 8730TIP3    H126154   3.646   6.023   3.137  0.5250  1.5630 -1.5161
 8730TIP3    H226155   3.509   6.083   3.156 -0.3187 -0.7276  0.0341
 8731TIP3   OH226156   0.275   5.963   1.098  0.2142  0.3433  0.2782
 8731TIP3    H126157   0.185   5.994   1.083  0.3381 -0.1597 -1.8934
 8731TIP3    H226158   0.324   5.996   1.022  1.1556 -2.0317 -0.2336
 8732TIP3   OH226159   6.027   3.864   0.246  0.5788  0.0378 -0.4293
 8732TIP3    H126160   6.024   3.909   0.330 -0.3539  1.1506 -1.0246
 8732TIP3    H226161   6.102   3.902   0.200  0.1685  0.5467 -0.6870
 8733TIP3   OH226162   3.732   6.695   3.043 -0.2923  0.0476  0.1991
 8733TIP3    H126163   3.714   6.638   3.118  1.2075  0.2454  0.7354
 8733TIP3    H226164   3.737   6.635   2.969  2.1429 -0.7096  0.8860
 8734TIP3   OH226165   3.799   4.550   2.218  0.5384 -0.0995 -0.5788
 8734TIP3    H126166   3.851   4.493   2.161  0.6575 -1.2300  0.6239
 8734TIP3    H226167   3.788   4.500   2.298  2.4298  2.3513  1.3962
 8735TIP3   OH226168   0.321   5.814   2.497 -0.2148 -0.0175  0.4648
 8735TIP3    H126169   0.326   5.790   2.589  0.3111 -3.8462 -0.3631
 8735TIP3    H226170   0.402   5.779   2.459 -0.9685  0.3443 -1.6347
 8736TIP3   OH226171   3.720   3.258   1.718 -0.6075 -0.1245 -0.0275
 8736TIP3    H126172   3.703   3.278   1.626  1.0313 -0.9051 -0.5320
 8736TIP3    H226173   3.688   3.335   1.765 -0.6220  0.6963 -1.3224
 8737TIP3   OH226174   1.567   2.121   1.285 -0.7559  0.3335 -0.4300
 8737TIP3    H126175   1.517   2.064   1.344  0.7834  0.2718  0.8829
 8737TIP3    H226176   1.537   2.209   1.306 -0.7781  0.2517 -0.1085
 8738TIP3   OH226177   4.779   5.464   1.214 -0.0823 -0.2599 -0.6407
 8738TIP3    H126178   4.783   5.517   1.135 -0.0866  1.3567  0.3928
 8738TIP3    H226179   4.870   5.443   1.234 -0.1146 -1.1296 -1.3369
 8739TIP3   OH226180   1.843   1.138   3.349  0.1276  0.6822 -0.1323
 8739TIP3    H126181   1.934   1.167   3.352  0.0083  1.2176 -1.1315
 8739TIP3    H226182   1.845   1.058   3.297 -0.0152  0.9130 -0.5009
 8740TIP3   OH226183   2.022   0.726   4.197  0.0388  0.2559  0.3943
 8740TIP3    H126184   1.983   0.806   4.163 -0.9774  0.1138  1.1728
 8740TIP3    H226185   1.953   0.660   4.190  0.1181 -0.0065  1.7841
 8741TIP3   OH226186   2.927   2.971   2.464 -0.0286 -0.1583 -0.2360
 8741TIP3    H126187   2.843   2.932   2.441  0.3625 -0.1774 -1.8041
 8741TIP3    H226188   2.979   2.898   2.498 -0.2488 -0.4006 -0.4158
 8742TIP3   OH226189   6.125   0.409   0.929 -0.1391 -0.3860  0.1520
 8742TIP3    H126190   6.170   0.340   0.979  0.1747 -0.1273  0.2305
 8742TIP3    H226191   6.032   0.389   0.939 -0.0275 -1.7787 -1.2009
 8743TIP3   OH226192   1.895   5.435   5.867 -0.2169  0.3958  0.3600
 8743TIP3    H126193   1.827   5.445   5.800 -0.3283 -0.1614  0.3848
 8743TIP3    H226194   1.847   5.417   5.948 -0.0464  0.0690  0.3914
 8744TIP3   OH226195   4.523   4.171   1.871  0.4711 -0.0327  0.2567
 8744TIP3    H126196   4.510   4.192   1.964 -2.8482  0.2215 -0.1656
 8744TIP3    H226197   4.543   4.255   1.830 -2.6428  0.7572  0.1324
 8745TIP3   OH226198   4.538   2.498   4.186  0.5207  0.5085  0.0077
 8745TIP3    H126199   4.625   2.492   4.227  0.6164 -1.6374 -0.4102
 8745TIP3    H226200   4.479   2.457   4.248  0.0267  0.7153 -0.3190
 8746TIP3   OH226201   4.599   2.878   1.614  0.0992  0.0501 -0.2548
 8746TIP3    H126202   4.506   2.868   1.636  0.1189 -0.4398 -0.3935
 8746TIP3    H226203   4.645   2.848   1.692  0.1510 -0.3407 -0.4378
 8747TIP3   OH226204   6.239   4.883   3.860  0.2201  0.1040 -0.1992
 8747TIP3    H126205   6.200   4.800   3.833  0.1898 -0.2115  0.7910
 8747TIP3    H226206   6.202   4.901   3.946 -0.9205  1.9073 -1.0137
 8748TIP3   OH226207   3.852   4.439   4.386  0.0494  0.0106  0.4480
 8748TIP3    H126208   3.757   4.450   4.381 -0.0160  0.3303  2.0070
 8748TIP3    H226209   3.866   4.345   4.400  0.0496 -0.2461 -1.1234
 8749TIP3   OH226210   1.008   5.153   1.020  0.2109  0.6376 -0.5075
 8749TIP3    H126211   0.991   5.090   0.950  1.3416  0.8057 -0.9590
 8749TIP3    H226212   0.938   5.139   1.083  0.5391 -1.2073 -0.5072
 8750TIP3   OH226213   5.581   5.565   1.942  0.0598 -0.2848  1.4197
 8750TIP3    H126214   5.543   5.567   1.854 -0.1109 -1.4294  1.4531
 8750TIP3    H226215   5.529   5.629   1.992  0.8652  1.1842  0.4398
 8751TIP3   OH226216   6.777   5.337   3.175  1.1293 -0.2850 -0.2018
 8751TIP3    H126217   6.845   5.364   3.113  2.9892 -0.4232  1.6551
 8751TIP3    H226218   6.823   5.329   3.259 -0.9452 -1.6667  0.8909
 8752TIP3   OH226219   2.030   4.192   4.235 -0.2156 -0.0224 -0.1362
 8752TIP3    H126220   1.955   4.190   4.175 -0.0030  1.8709 -0.5352
 8752TIP3    H226221   1.994   4.219   4.319  0.0219  1.1769 -0.3979
 8753TIP3   OH226222   6.300   4.420   2.303  1.0935 -0.0900 -0.8424
 8753TIP3    H126223   6.351   4.340   2.289  0.3505 -0.7109 -0.0663
 8753TIP3    H226224   6.275   4.447   2.215  2.3621 -0.0244 -1.2113
 8754TIP3   OH226225   1.868   4.549   0.347  0.0739 -0.1713 -0.2947
 8754TIP3    H126226   1.882   4.566   0.254 -1.2493  1.8678 -0.1697
 8754TIP3    H226227   1.828   4.629   0.381 -1.1566 -1.5209  1.6647
 8755TIP3   OH226228   4.760   5.886   2.344 -0.4317 -0.5654 -0.3336
 8755TIP3    H126229   4.767   5.855   2.254  1.1028 -0.9992 -0.0902
 8755TIP3    H226230   4.761   5.807   2.397 -0.5084 -0.2726  0.1152
 8756TIP3   OH226231   0.883   0.648   1.115 -0.4214  0.0311 -0.2352
 8756TIP3    H126232   0.863   0.696   1.035 -3.3854 -0.5998  0.0356
 8756TIP3    H226233   0.871   0.712   1.185  2.7852  0.7640 -0.1804
 8757TIP3   OH226234   4.635   2.632   3.262 -0.4338 -0.2166  0.4769
 8757TIP3    H126235   4.590   2.670   3.186  0.2800  0.3527  0.3219
 8757TIP3    H226236   4.631   2.700   3.329  0.6081  0.0495  0.2914
 8758TIP3   OH226237   6.494   0.505   0.013 -0.0792  0.5462  0.5181
 8758TIP3    H126238   6.399   0.499   0.003 -0.0845  0.7481  0.4457
 8758TIP3    H226239   6.523   0.414   0.013 -0.4186  0.4150  2.0641
 8759TIP3   OH226240   2.376   5.641   5.430 -0.1289 -0.5367 -0.4860
 8759TIP3    H126241   2.390   5.672   5.519 -0.2252  0.5492 -0.8356
 8759TIP3    H226242   2.459   5.601   5.405  0.7796  1.4278 -0.7876
 8760TIP3   OH226243   2.393   4.663   3.911  0.1166  0.6964 -0.2093
 8760TIP3    H126244   2.408   4.608   3.987 -0.5960  1.5858  0.5979
 8760TIP3    H226245   2.417   4.751   3.940 -0.2673  1.0628 -0.9709
 8761TIP3   OH226246   3.546   6.122   5.887  0.0865 -0.0227 -0.3761
 8761TIP3    H126247   3.625   6.161   5.851 -0.2645 -0.4460 -1.6947
 8761TIP3    H226248   3.496   6.094   5.809 -0.2460 -1.9291  0.4634
 8762TIP3   OH226249   4.994   2.893   5.717  0.4045  0.3498 -0.4299
 8762TIP3    H126250   4.941   2.815   5.701  1.5819 -0.5024 -0.2166
 8762TIP3    H226251   4.931   2.957   5.753 -0.3232 -0.9255  0.6708
 8763TIP3   OH226252   6.958   1.103   5.701  0.3244  0.2250  0.4233
 8763TIP3    H126253   7.027   1.063   5.754  1.1827  0.7131 -0.2884
 8763TIP3    H226254   6.896   1.033   5.685  1.1418 -0.4848  0.2845
 8764TIP3   OH226255   6.029   2.986   2.349  0.4056 -0.5563 -0.3707
 8764TIP3    H126256   6.075   3.026   2.423  0.5394  1.3434 -1.4177
 8764TIP3    H226257   6.083   2.911   2.325  0.4413 -1.1239  1.3256
 8765TIP3   OH226258   4.529   5.133   4.628  0.2582  0.0710  0.0092
 8765TIP3    H126259   4.570   5.136   4.715 -0.1474 -0.4691  0.2290
 8765TIP3    H226260   4.565   5.208   4.581 -0.9173  1.4644  1.2568
 8766TIP3   OH226261   2.680   3.833   1.438  0.1011  0.3339  0.2203
 8766TIP3    H126262   2.670   3.897   1.368  1.1679  1.3003  0.9085
 8766TIP3    H226263   2.606   3.850   1.497 -0.7022 -0.3698 -0.5681
 8767TIP3   OH226264   3.229   3.451   4.475  0.2213  0.2167  0.3769
 8767TIP3    H126265   3.311   3.495   4.452 -0.0814  1.0421  0.8801
 8767TIP3    H226266   3.162   3.496   4.424 -0.2241  0.9950  1.6213
 8768TIP3   OH226267   0.630   5.280   2.377  0.1545 -0.2628 -0.3572
 8768TIP3    H126268   0.614   5.358   2.324  0.3812  0.7054  0.9421
 8768TIP3    H226269   0.689   5.227   2.324 -0.6467  0.0588 -1.6170
 8769TIP3   OH226270   1.114   6.688   2.479 -0.0174  0.1895  0.1007
 8769TIP3    H126271   1.031   6.642   2.485 -1.1420  2.2367  5.0215
 8769TIP3    H226272   1.091   6.778   2.455  0.7474  0.7683  1.4362
 8770TIP3   OH226273   4.175   1.911   5.548  0.1544  0.2442 -0.5055
 8770TIP3    H126274   4.158   1.826   5.588  1.6540  0.8034  1.4716
 8770TIP3    H226275   4.174   1.894   5.454  1.0241 -2.0904 -0.1557
 8771TIP3   OH226276   0.508   3.846   2.814  0.3358 -0.5093 -0.0576
 8771TIP3    H126277   0.553   3.823   2.733 -0.6208  1.2454 -1.1559
 8771TIP3    H226278   0.576   3.885   2.870  0.5965  0.3111 -0.9206
 8772TIP3   OH226279   3.037   0.147   0.675  0.7538  0.2901  0.0679
 8772TIP3    H126280   3.119   0.146   0.627  1.8934  1.3354  1.8717
 8772TIP3    H226281   3.037   0.066   0.725  0.8791  0.4629  0.3518
 8773TIP3   OH226282   4.708   6.710   5.577  0.8938  0.1202  0.7375
 8773TIP3    H126283   4.757   6.683   5.499 -1.2128 -0.4869 -0.4415
 8773TIP3    H226284   4.697   6.805   5.567  0.4034  0.0053  0.1385
 8774TIP3   OH226285   4.111   4.845   2.124  0.0185 -0.6538  0.1190
 8774TIP3    H126286   4.205   4.858   2.118 -0.1355  0.5108 -0.0781
 8774TIP3    H226287   4.095   4.823   2.216  0.5544 -1.6916 -0.0215
 8775TIP3   OH226288   5.743   3.182   3.353  0.3457 -0.1440 -0.3991
 8775TIP3    H126289   5.660   3.214   3.388 -0.9611 -2.1772 -1.4391
 8775TIP3    H226290   5.789   3.148   3.429 -0.6801 -0.8506 -0.0712
 8776TIP3   OH226291   5.296   0.811   2.278  0.2486  0.2788  0.0708
 8776TIP3    H126292   5.322   0.893   2.320 -0.7260  0.0786  1.1018
 8776TIP3    H226293   5.365   0.749   2.301  0.1707  0.4001  0.6341
 8777TIP3   OH226294   1.132   2.789   4.533 -0.0280 -0.1801  0.0582
 8777TIP3    H126295   1.096   2.734   4.464 -1.0821  0.7838 -0.1948
 8777TIP3    H226296   1.156   2.871   4.490  0.4380 -0.0018  0.6262
 8778TIP3   OH226297   0.957   2.603   5.695  0.3400 -0.6110  0.0814
 8778TIP3    H126298   1.007   2.549   5.756 -0.8255 -2.7633 -0.7688
 8778TIP3    H226299   0.873   2.617   5.739  0.3458 -0.1157 -0.0499
 8779TIP3   OH226300   0.014   1.931   4.817  0.3763 -0.2523 -0.4643
 8779TIP3    H126301  -0.002   1.894   4.731 -0.7011 -0.2954 -0.2636
 8779TIP3    H226302   0.003   2.026   4.805  0.8667 -0.1961 -0.5015
 8780TIP3   OH226303   6.134   0.815   5.080  0.3156  0.6284  0.1965
 8780TIP3    H126304   6.108   0.744   5.138  1.3007 -1.3736 -1.6957
 8780TIP3    H226305   6.095   0.793   4.995  0.5321  2.4282 -0.4158
 8781TIP3   OH226306   6.589   6.164   2.720  0.1219 -0.1062 -0.3375
 8781TIP3    H126307   6.555   6.252   2.731 -0.1321 -0.0838 -1.1977
 8781TIP3    H226308   6.551   6.133   2.638  1.3070 -0.4938 -0.7726
 8782TIP3   OH226309   4.822   4.346   2.366 -0.1650 -0.3976 -0.0607
 8782TIP3    H126310   4.875   4.269   2.388 -1.7274 -1.9189 -1.2745
 8782TIP3    H226311   4.788   4.327   2.278  0.4681  2.3344 -1.0041
 8783TIP3   OH226312   2.275   2.115   1.640 -0.8405 -0.1611 -0.2547
 8783TIP3    H126313   2.265   2.172   1.563 -1.5324  1.1275  0.7404
 8783TIP3    H226314   2.354   2.149   1.684 -0.8323 -0.4489 -0.0462
 8784TIP3   OH226315   5.726   2.994   4.791 -0.1532 -0.3793  0.3012
 8784TIP3    H126316   5.756   3.065   4.734 -0.7412  0.3607  0.8959
 8784TIP3    H226317   5.694   3.039   4.869 -0.7918 -1.2915  0.5682
 8785TIP3   OH226318   3.502   1.830   5.566 -0.6839  0.2657  0.3321
 8785TIP3    H126319   3.525   1.912   5.522  1.1130 -1.3743 -2.0905
 8785TIP3    H226320   3.575   1.814   5.626  0.0470 -0.5242 -0.7315
 8786TIP3   OH226321   4.960   6.288   4.480  0.2466 -0.0428 -0.0763
 8786TIP3    H126322   5.049   6.255   4.469 -0.1982 -1.8399  1.2576
 8786TIP3    H226323   4.904   6.214   4.454 -0.8338  0.6194  0.2944
 8787TIP3   OH226324   4.144   6.083   0.135  0.3401 -0.6864  0.1188
 8787TIP3    H126325   4.051   6.060   0.127  0.1955 -0.3757  0.8098
 8787TIP3    H226326   4.189   5.999   0.138  0.0199 -0.8527  0.3919
 8788TIP3   OH226327   3.393   6.389   4.766 -0.0035 -0.6459 -0.1629
 8788TIP3    H126328   3.463   6.369   4.828 -0.6461  0.1996  0.8612
 8788TIP3    H226329   3.358   6.473   4.795 -0.6144 -0.4413 -1.4216
 8789TIP3   OH226330   4.229   0.617   2.393  0.1953 -0.4679 -0.0827
 8789TIP3    H126331   4.193   0.680   2.456 -0.1314 -0.7068 -0.0266
 8789TIP3    H226332   4.196   0.532   2.422  1.5788 -0.8207  0.5147
 8790TIP3   OH226333   0.071   3.314   1.064  0.8088 -0.5544  0.4866
 8790TIP3    H126334  -0.013   3.309   1.110  0.7615 -1.2657  0.3469
 8790TIP3    H226335   0.129   3.360   1.124  0.1030  0.7118  0.2340
 8791TIP3   OH226336   3.778   0.311   3.292 -0.0398  0.1956  0.4245
 8791TIP3    H126337   3.706   0.265   3.335  1.3212 -0.9819  1.5118
 8791TIP3    H226338   3.813   0.248   3.230  0.1835  0.6923  0.0454
 8792TIP3   OH226339   5.713   0.969   2.132 -0.3811  0.3252  0.0686
 8792TIP3    H126340   5.736   0.877   2.120 -1.0444  0.2103 -0.4235
 8792TIP3    H226341   5.716   0.982   2.227 -1.1904 -0.4594  0.2226
 8793TIP3   OH226342   0.078   1.858   5.591 -0.7408  0.4440 -0.5078
 8793TIP3    H126343   0.019   1.843   5.665 -1.2705 -1.0632 -1.2063
 8793TIP3    H226344   0.152   1.905   5.630 -0.4787 -1.2863  1.2317
 8794TIP3   OH226345   1.742   5.276   0.311  0.4514 -0.0828  0.4992
 8794TIP3    H126346   1.754   5.181   0.321  2.6251  0.2224  1.3501
 8794TIP3    H226347   1.729   5.289   0.218 -2.0831 -1.3830  0.5860
 8795TIP3   OH226348   7.170   0.129   1.355 -0.2263 -0.5104  0.8823
 8795TIP3    H126349   7.080   0.159   1.370  0.3583  2.0416 -0.0800
 8795TIP3    H226350   7.218   0.159   1.432  0.1956  0.2001  0.3566
 8796TIP3   OH226351   4.621   1.089   1.830  0.6131  0.6737 -0.4376
 8796TIP3    H126352   4.558   1.155   1.860  0.4113  1.1651 -1.8792
 8796TIP3    H226353   4.702   1.112   1.875  0.3552  1.4687 -0.3627
 8797TIP3   OH226354   7.038   0.539   0.261 -0.7323 -0.2000 -0.0711
 8797TIP3    H126355   7.083   0.455   0.260 -0.2446 -0.0379 -3.3562
 8797TIP3    H226356   6.945   0.516   0.266 -0.5434 -0.8179  0.8720
 8798TIP3   OH226357   6.310   0.218   3.722 -0.0278  0.0229  0.3153
 8798TIP3    H126358   6.236   0.170   3.683 -0.7480  0.6037  0.9283
 8798TIP3    H226359   6.377   0.219   3.653 -0.9510  0.3031 -0.6081
 8799TIP3   OH226360   5.409   5.277   0.383  0.5145  0.2063  0.3765
 8799TIP3    H126361   5.428   5.258   0.475 -1.2382  1.9594  1.1993
 8799TIP3    H226362   5.479   5.336   0.355 -0.8551  2.6910  1.8296
 8800TIP3   OH226363   6.265   3.611   1.959 -0.2007 -0.1392 -0.0535
 8800TIP3    H126364   6.341   3.590   2.012  0.1977 -2.6085 -1.4586
 8800TIP3    H226365   6.200   3.546   1.982 -0.9196  0.2882 -0.8069
 8801TIP3   OH226366   2.638   3.511   1.554 -0.3787 -0.2729  0.2111
 8801TIP3    H126367   2.552   3.485   1.520 -0.0327 -0.3897 -0.6152
 8801TIP3    H226368   2.650   3.460   1.633 -1.0755 -0.2488  0.3354
 8802TIP3   OH226369   4.195   3.995   1.990  0.1003 -0.2102  0.1890
 8802TIP3    H126370   4.169   3.936   2.060 -0.5889  0.7392  0.7471
 8802TIP3    H226371   4.203   3.939   1.913 -2.1123 -0.8035  0.3329
 8803TIP3   OH226372   6.929   4.086   1.489  0.0595 -0.2286 -0.0871
 8803TIP3    H126373   6.993   4.128   1.432 -0.7453  0.5405 -0.4438
 8803TIP3    H226374   6.870   4.156   1.516 -1.5275 -1.1616 -0.9777
 8804TIP3   OH226375   3.807   4.926   3.103 -0.2276 -0.6750  0.4942
 8804TIP3    H126376   3.753   4.857   3.141  1.1760 -2.0559  0.1142
 8804TIP3    H226377   3.869   4.879   3.047  1.3848  0.8103  0.9547
 8805TIP3   OH226378   3.086   4.395   1.912  0.5010 -0.5842  0.3398
 8805TIP3    H126379   2.995   4.426   1.910  0.3400 -0.9376 -2.5309
 8805TIP3    H226380   3.078   4.301   1.929  0.2416 -0.7053 -0.3776
 8806TIP3   OH226381   1.644   2.423   2.384  0.0014 -0.3637  0.0457
 8806TIP3    H126382   1.552   2.415   2.409 -0.0958  1.2023  0.2869
 8806TIP3    H226383   1.691   2.429   2.467  0.2102 -0.0399 -0.0970
 8807TIP3   OH226384   6.679   4.566   2.965 -0.1964 -0.3508 -0.1635
 8807TIP3    H126385   6.714   4.515   3.038 -0.8959  0.1805  0.5656
 8807TIP3    H226386   6.745   4.633   2.948  0.0113 -0.5345 -0.0799
 8808TIP3   OH226387   2.211   2.743   2.417 -0.1632 -0.0321  0.0139
 8808TIP3    H126388   2.211   2.693   2.335 -0.3718  0.3246 -0.2075
 8808TIP3    H226389   2.174   2.828   2.393  2.0287  0.9712 -0.0661
 8809TIP3   OH226390   7.098   1.768   0.346  0.4121  0.0102 -0.4830
 8809TIP3    H126391   7.182   1.733   0.375  0.6443  1.0216  0.1083
 8809TIP3    H226392   7.121   1.847   0.297 -0.0942 -0.6707 -1.8503
 8810TIP3   OH226393   0.461   0.157   0.280 -0.1178 -0.4559  0.6569
 8810TIP3    H126394   0.523   0.119   0.217 -0.4197  0.1171  0.0006
 8810TIP3    H226395   0.432   0.083   0.333 -0.0728 -1.0002 -0.0615
 8811TIP3   OH226396   3.186   5.637   4.200 -0.4779 -0.4057 -0.0754
 8811TIP3    H126397   3.097   5.624   4.165 -0.0410 -0.4793 -1.2126
 8811TIP3    H226398   3.236   5.670   4.125  1.1345 -2.9914 -0.2475
 8812TIP3   OH226399   0.602   4.083   3.419 -0.6493 -0.3246 -0.1929
 8812TIP3    H126400   0.527   4.103   3.475 -0.5401  0.1880 -0.2277
 8812TIP3    H226401   0.615   3.988   3.430 -1.3428 -0.4325 -0.2442
 8813TIP3   OH226402   6.877   2.758   5.774 -0.6376  0.0111  0.8173
 8813TIP3    H126403   6.819   2.823   5.734 -0.5671 -0.7336 -0.5731
 8813TIP3    H226404   6.949   2.749   5.711 -0.2534 -0.8476  1.3654
 8814TIP3   OH226405   4.880   5.719   5.604  0.4811  0.2985 -0.0100
 8814TIP3    H126406   4.790   5.687   5.604  0.2194  0.9896 -1.3809
 8814TIP3    H226407   4.932   5.642   5.625 -0.4025 -0.1686  0.5373
 8815TIP3   OH226408   1.454   3.857   5.363 -0.2506  0.3060 -0.3519
 8815TIP3    H126409   1.496   3.934   5.326  0.2840 -0.3416 -1.1284
 8815TIP3    H226410   1.481   3.856   5.454 -1.3469  1.7644  0.0267
 8816TIP3   OH226411   3.105   3.660   3.159 -0.2361 -0.1263 -0.6379
 8816TIP3    H126412   3.144   3.622   3.238 -0.1876 -0.7668 -0.9639
 8816TIP3    H226413   3.161   3.735   3.139 -0.6978  0.5084  0.3700
 8817TIP3   OH226414   3.789   6.453   1.659  0.4178 -0.0641  0.0099
 8817TIP3    H126415   3.774   6.365   1.626 -0.8063  0.3873 -0.7383
 8817TIP3    H226416   3.721   6.506   1.617  0.3269  1.0046  1.4228
 8818TIP3   OH226417   3.750   5.948   4.185  0.1753  0.3245 -0.3581
 8818TIP3    H126418   3.809   5.983   4.251 -0.5588 -0.7509  0.9219
 8818TIP3    H226419   3.696   6.022   4.158 -0.5163  0.4842  1.3634
 8819TIP3   OH226420   1.282   0.528   5.520  0.2488 -0.3040  0.4689
 8819TIP3    H126421   1.323   0.610   5.493 -1.4405  0.3134 -0.3267
 8819TIP3    H226422   1.230   0.501   5.445 -3.1199  0.4865  2.3237
 8820TIP3   OH226423   6.823   4.132   3.302 -0.6661  0.5426  0.0438
 8820TIP3    H126424   6.825   4.156   3.395  0.8044  0.4755  0.0468
 8820TIP3    H226425   6.806   4.215   3.257  0.9822  1.0296  0.2532
 8821TIP3   OH226426   5.799   2.430   1.250  0.2760 -0.3636  0.7063
 8821TIP3    H126427   5.738   2.366   1.288 -0.9145  0.6774  0.6326
 8821TIP3    H226428   5.885   2.390   1.259 -0.5375 -2.5439 -0.4553
 8822TIP3   OH226429   0.766   3.910   5.659 -0.5746  0.4276 -0.0052
 8822TIP3    H126430   0.682   3.865   5.648 -0.8170  0.5656  1.1687
 8822TIP3    H226431   0.778   3.958   5.577 -1.0536 -0.5415 -0.6605
 8823TIP3   OH226432   1.103   5.962   0.085 -0.2967  0.3726 -0.5850
 8823TIP3    H126433   1.133   5.882   0.041  1.0358  1.0795 -1.0174
 8823TIP3    H226434   1.063   5.931   0.167  2.0247 -0.6235  0.2494
 8824TIP3   OH226435   2.657   3.487   3.556 -0.5968  0.6848  0.4434
 8824TIP3    H126436   2.675   3.532   3.639 -0.4843  1.9045 -0.2062
 8824TIP3    H226437   2.710   3.408   3.559 -2.2311 -0.4064  2.4246
 8825TIP3   OH226438   1.172   2.439   2.787 -0.4193  0.1029  0.0332
 8825TIP3    H126439   1.208   2.375   2.725 -0.5413  0.1061 -0.0432
 8825TIP3    H226440   1.241   2.453   2.851 -0.7009 -0.7441  0.5312
 8826TIP3   OH226441   6.094   2.530   1.042 -0.3443 -0.3353 -0.5526
 8826TIP3    H126442   6.028   2.581   1.089 -2.9617 -2.9158 -1.1274
 8826TIP3    H226443   6.095   2.568   0.954  0.0754  0.6650 -0.1305
 8827TIP3   OH226444   4.794   0.010   0.146  0.2028  0.1771  0.7577
 8827TIP3    H126445   4.796   0.105   0.157 -0.5633  0.1954  0.7993
 8827TIP3    H226446   4.847  -0.007   0.068  1.3208  0.5243  1.4102
 8828TIP3   OH226447   1.816   6.152   1.185  0.1268 -0.2542 -0.2602
 8828TIP3    H126448   1.822   6.057   1.177 -0.5081 -0.3606  0.4118
 8828TIP3    H226449   1.890   6.185   1.133 -0.1322 -1.0762 -1.1877
 8829TIP3   OH226450   2.263   1.398   3.508  0.5982 -0.3507  0.3188
 8829TIP3    H126451   2.263   1.486   3.545 -2.8620 -0.9425  2.2023
 8829TIP3    H226452   2.205   1.403   3.432  0.0494 -1.0259  0.6724
 8830TIP3   OH226453   3.757   2.861   0.016 -0.1362  0.0559  0.0493
 8830TIP3    H126454   3.796   2.930   0.071  0.8549 -0.0591 -0.4767
 8830TIP3    H226455   3.740   2.905  -0.067 -1.5980  0.2200  0.4173
 8831TIP3   OH226456   3.979   4.753   0.915 -0.5201 -0.2729  0.4770
 8831TIP3    H126457   4.073   4.751   0.933 -0.3848  1.6671  0.1431
 8831TIP3    H226458   3.962   4.671   0.868  1.3702  0.1345 -1.0411
 8832TIP3   OH226459   4.804   5.961   4.484 -0.3261 -0.2061  0.1324
 8832TIP3    H126460   4.797   5.989   4.575  0.9587  0.2162  0.1151
 8832TIP3    H226461   4.880   5.904   4.481 -0.0877  0.1300 -0.7516
 8833TIP3   OH226462   6.761   4.715   5.216  0.5008 -0.0375  0.0564
 8833TIP3    H126463   6.701   4.641   5.229  0.0461  0.4872  1.1178
 8833TIP3    H226464   6.801   4.699   5.131  0.9285 -1.8681  0.5513
 8834TIP3   OH226465   0.159   3.433   3.900 -0.0484 -0.1753 -0.1504
 8834TIP3    H126466   0.148   3.523   3.930 -2.2818 -0.6395  0.5909
 8834TIP3    H226467   0.078   3.389   3.924  0.6663 -2.2139 -1.1963
 8835TIP3   OH226468   5.902   6.341   5.677  0.2381 -0.0499  0.2360
 8835TIP3    H126469   5.977   6.400   5.682 -1.2365  2.1961 -1.9266
 8835TIP3    H226470   5.940   6.254   5.671  2.6768  0.9884 -0.3826
 8836TIP3   OH226471   6.658   3.635   3.728  0.2565  0.6836  0.3967
 8836TIP3    H126472   6.623   3.570   3.790  0.0195  0.9947  0.5922
 8836TIP3    H226473   6.671   3.586   3.647  1.0695  0.1412  0.8394
 8837TIP3   OH226474   7.179   3.882   3.508 -0.3134 -0.4288  0.1653
 8837TIP3    H126475   7.092   3.923   3.508  0.0405  0.3914 -1.2868
 8837TIP3    H226476   7.239   3.953   3.530 -0.0561 -1.2540  2.4147
 8838TIP3   OH226477   1.205   0.849   1.492  0.8035 -0.6296 -0.0992
 8838TIP3    H126478   1.218   0.936   1.456  1.3385 -0.9491 -0.6892
 8838TIP3    H226479   1.275   0.796   1.454 -0.4460 -1.6997 -1.0258
 8839TIP3   OH226480   0.531   4.371   3.787 -0.2374  0.0440 -0.2102
 8839TIP3    H126481   0.486   4.425   3.722 -0.3426  0.7651  0.4414
 8839TIP3    H226482   0.531   4.283   3.750 -1.0683  0.2790 -0.7927
 8840TIP3   OH226483   5.134   2.650   4.973 -0.4693 -0.4341 -0.9243
 8840TIP3    H126484   5.092   2.628   4.890  1.0254  0.0687 -1.8494
 8840TIP3    H226485   5.063   2.679   5.030 -1.5198 -0.8459 -2.0026
 8841TIP3   OH226486   0.426   3.702   5.124  0.0131 -0.2727  1.0878
 8841TIP3    H126487   0.403   3.618   5.085 -0.1771  0.5021 -0.5679
 8841TIP3    H226488   0.521   3.709   5.111 -0.1410  0.2569  0.1578
 8842TIP3   OH226489   5.962   3.228   1.704  0.3851  0.5839  0.1134
 8842TIP3    H126490   5.888   3.171   1.724 -0.0156  0.2730 -1.9804
 8842TIP3    H226491   5.922   3.312   1.684  0.7203  0.7723  0.2329
 8843TIP3   OH226492   0.352   0.246   1.262  0.1518 -0.1463  0.2865
 8843TIP3    H126493   0.295   0.317   1.233  2.3594  1.4670 -0.3525
 8843TIP3    H226494   0.334   0.174   1.202 -1.9953 -0.1199  0.8314
 8844TIP3   OH226495   1.184   1.070   3.592  1.0579  0.0188 -0.0913
 8844TIP3    H126496   1.160   1.132   3.523 -2.3729 -1.8216 -0.7936
 8844TIP3    H226497   1.254   1.017   3.554  0.0926 -0.1447 -1.7418
 8845TIP3   OH226498   2.532   1.873   4.273 -0.6701  0.0080 -0.0577
 8845TIP3    H126499   2.571   1.824   4.201 -1.8002 -1.0712  0.0334
 8845TIP3    H226500   2.497   1.805   4.331  2.3861  0.6370  2.8828
 8846TIP3   OH226501   5.775   2.741   4.854  0.2563 -0.1423  0.4256
 8846TIP3    H126502   5.764   2.833   4.831  0.6428 -0.0092  0.7653
 8846TIP3    H226503   5.686   2.705   4.853  0.2025 -0.0056 -0.6978
 8847TIP3   OH226504   6.842   6.257   0.486 -0.1520 -0.1046 -0.3682
 8847TIP3    H126505   6.828   6.215   0.571 -1.1364 -1.3048 -1.0875
 8847TIP3    H226506   6.873   6.186   0.429  1.7943  0.9440 -0.7233
 8848TIP3   OH226507   3.433   0.781   1.329 -0.1543 -0.6780 -0.2569
 8848TIP3    H126508   3.387   0.817   1.405 -1.8454 -0.7416 -1.2011
 8848TIP3    H226509   3.407   0.838   1.257 -1.1737 -2.4919 -1.3792
 8849TIP3   OH226510   5.244   2.947   3.620  0.7144  0.7025 -0.0270
 8849TIP3    H126511   5.171   2.948   3.557  1.4777  0.1933 -0.9539
 8849TIP3    H226512   5.307   2.887   3.581  0.9809 -0.0659  1.5121
 8850TIP3   OH226513   0.619   3.816   0.542  0.5568 -0.1655  0.2307
 8850TIP3    H126514   0.710   3.841   0.559  0.5976  0.0109 -0.2250
 8850TIP3    H226515   0.600   3.748   0.607  1.8209 -2.0112 -1.2350
 8851TIP3   OH226516   1.929   2.332   0.028 -0.2808 -0.2066  0.1469
 8851TIP3    H126517   1.924   2.313  -0.065 -0.7971  0.5545  0.0095
 8851TIP3    H226518   2.022   2.348   0.045 -0.4493  2.3175 -0.8194
 8852TIP3   OH226519   5.025   5.469   3.922 -0.3343  0.0426  0.1702
 8852TIP3    H126520   4.934   5.488   3.897 -0.4374 -1.4742 -0.7266
 8852TIP3    H226521   5.064   5.431   3.843  0.9946  0.3348  0.6511
 8853TIP3   OH226522   2.423   2.449   4.952 -0.2489  0.1662 -0.3477
 8853TIP3    H126523   2.495   2.482   4.898  0.8566 -0.6065  0.5923
 8853TIP3    H226524   2.355   2.516   4.946  0.9793  1.4516 -0.3968
 8854TIP3   OH226525   0.871   3.964   0.329 -0.2652 -0.1520 -0.4901
 8854TIP3    H126526   0.931   3.902   0.288 -1.7269 -1.4961 -0.7064
 8854TIP3    H226527   0.903   3.973   0.418  0.7756 -0.1259 -0.8524
 8855TIP3   OH226528   1.196   1.753   2.089  0.0232 -0.3007  0.2193
 8855TIP3    H126529   1.164   1.666   2.114  1.4885 -0.7124  0.8222
 8855TIP3    H226530   1.219   1.795   2.172 -1.7921  1.1874  0.0459
 8856TIP3   OH226531   1.856   3.320   0.595  0.1542 -0.2280  0.1741
 8856TIP3    H126532   1.804   3.390   0.555  1.1663  0.7747  0.5329
 8856TIP3    H226533   1.859   3.251   0.529 -0.6187  0.1937 -0.3144
 8857TIP3   OH226534   3.929   3.623   0.769 -0.2223 -0.4079  0.3779
 8857TIP3    H126535   4.019   3.595   0.749  0.1898 -0.6885  2.4067
 8857TIP3    H226536   3.875   3.553   0.733  0.3038  0.0663 -1.4231
 8858TIP3   OH226537   3.559   4.278   1.616 -0.3359 -0.3834 -0.1540
 8858TIP3    H126538   3.466   4.281   1.639 -0.9954  0.5150 -2.6119
 8858TIP3    H226539   3.604   4.274   1.700 -2.5687 -0.6953  1.1265
 8859TIP3   OH226540   0.653   5.739   4.671 -0.8308 -0.1307 -0.4953
 8859TIP3    H126541   0.647   5.823   4.625  0.2992 -0.4653 -1.2902
 8859TIP3    H226542   0.591   5.683   4.624 -1.0713  0.0542 -0.4038
 8860TIP3   OH226543   3.224   2.761   5.549 -0.0973  0.7582 -0.2872
 8860TIP3    H126544   3.217   2.760   5.453  1.5233 -0.3459 -0.4238
 8860TIP3    H226545   3.294   2.822   5.567 -0.5944  1.1809  0.2261
 8861TIP3   OH226546   6.619   6.455   2.357  0.3294  0.0267 -0.4601
 8861TIP3    H126547   6.536   6.459   2.309  0.1543  0.6817 -0.1224
 8861TIP3    H226548   6.664   6.537   2.333  0.6652 -0.0962 -0.2625
 8862TIP3   OH226549   6.400   4.650   2.738 -0.2061 -0.0698 -0.2634
 8862TIP3    H126550   6.429   4.602   2.816 -0.2085  0.1745 -0.1119
 8862TIP3    H226551   6.402   4.585   2.668  1.1822  0.0386 -0.3609
 8863TIP3   OH226552   6.600   1.550   4.427  0.0039  0.5692 -0.4625
 8863TIP3    H126553   6.636   1.464   4.447  0.7269  1.0092  0.1983
 8863TIP3    H226554   6.665   1.612   4.461 -1.1718  1.3944  0.3713
 8864TIP3   OH226555   4.315   2.784   4.290 -0.3465 -0.3822  1.1159
 8864TIP3    H126556   4.297   2.743   4.205  0.0530 -0.3022  0.9921
 8864TIP3    H226557   4.262   2.864   4.289  0.5606  0.2306  0.4453
 8865TIP3   OH226558   0.286   1.291   0.345  0.2279  0.0428  0.1225
 8865TIP3    H126559   0.199   1.301   0.384  0.3306 -0.2062  0.4196
 8865TIP3    H226560   0.308   1.199   0.360 -0.1381 -0.3120 -1.3643
 8866TIP3   OH226561   5.608   5.848   4.000 -0.1115 -0.5659 -0.2909
 8866TIP3    H126562   5.581   5.783   3.934 -0.3416  0.6256 -1.4049
 8866TIP3    H226563   5.643   5.920   3.949 -0.7895  0.6267  0.8734
 8867TIP3   OH226564   2.268   5.571   1.500  0.3752  0.2326  0.2195
 8867TIP3    H126565   2.225   5.489   1.473  0.1302 -0.1406  1.6408
 8867TIP3    H226566   2.258   5.629   1.425  0.7223 -1.1058 -0.9016
 8868TIP3   OH226567   0.829   2.916   2.271 -0.6595  0.2814  0.4785
 8868TIP3    H126568   0.899   2.851   2.280  0.0628  0.7004 -1.6610
 8868TIP3    H226569   0.875   3.000   2.265 -1.4327  0.7035  0.3579
 8869TIP3   OH226570   1.290   4.302   3.438  0.1160  0.3652  0.4402
 8869TIP3    H126571   1.255   4.360   3.504 -0.0534 -1.5410  2.1250
 8869TIP3    H226572   1.214   4.261   3.398  0.2063  1.6659 -1.1538
 8870TIP3   OH226573   5.666   5.066   1.593 -0.0264  0.3682  0.0461
 8870TIP3    H126574   5.628   5.106   1.671 -0.1219  1.7162 -0.6636
 8870TIP3    H226575   5.742   5.018   1.625 -0.6957 -0.0288  1.0999
 8871TIP3   OH226576   5.253   4.086   0.932 -0.0702 -0.0342 -0.0071
 8871TIP3    H126577   5.207   4.170   0.943 -1.2423 -0.4190 -1.6113
 8871TIP3    H226578   5.254   4.048   1.019  0.2583  1.5274  0.7090
 8872TIP3   OH226579   5.156   2.603   3.449 -0.9878  0.1961  0.0589
 8872TIP3    H126580   5.075   2.551   3.447 -1.0091  0.2298  0.0455
 8872TIP3    H226581   5.175   2.620   3.357 -0.7857 -0.0885  0.0463
 8873TIP3   OH226582   3.728   6.201   1.579 -0.5067  0.2559  0.6039
 8873TIP3    H126583   3.657   6.141   1.601 -1.0439  0.5788 -0.1947
 8873TIP3    H226584   3.808   6.151   1.596 -0.9330 -0.2995  1.0034
 8874TIP3   OH226585   2.500   2.353   0.840 -0.2651 -0.2387 -0.4349
 8874TIP3    H126586   2.476   2.393   0.757  1.3886 -0.5720 -1.1151
 8874TIP3    H226587   2.575   2.403   0.871 -0.4078 -0.5713  0.5056
 8875TIP3   OH226588   3.509   4.085   5.012 -0.0339 -0.0246 -0.1973
 8875TIP3    H126589   3.564   4.101   4.935 -0.4241  0.3411 -0.3996
 8875TIP3    H226590   3.450   4.015   4.984 -0.0847  0.0141 -0.1852
 8876TIP3   OH226591   5.359   1.104   3.523  0.4682 -0.2271 -0.4139
 8876TIP3    H126592   5.373   1.167   3.453  0.3582 -0.7474 -0.9071
 8876TIP3    H226593   5.264   1.096   3.530  0.4824 -0.4346 -0.4428
 8877TIP3   OH226594   3.520   4.283   0.106  0.3284  0.1261 -0.3408
 8877TIP3    H126595   3.557   4.222   0.042  0.7142  0.4664 -0.4446
 8877TIP3    H226596   3.463   4.340   0.054 -0.2216 -0.2939 -0.2064
 8878TIP3   OH226597   1.477   0.794   2.191  0.2884 -0.5544 -0.0403
 8878TIP3    H126598   1.518   0.835   2.114  0.6512 -0.3737  0.2458
 8878TIP3    H226599   1.447   0.709   2.159  0.7197 -0.6123 -0.3032
 8879TIP3   OH226600   4.691   2.937   0.614  0.1250 -0.7198 -0.1849
 8879TIP3    H126601   4.724   2.884   0.686 -0.1546 -1.6638 -0.7262
 8879TIP3    H226602   4.671   2.874   0.545 -4.1610 -0.4993  0.5586
 8880TIP3   OH226603   7.073   2.217   5.168  0.4217  0.4358  0.2564
 8880TIP3    H126604   7.004   2.258   5.220  1.2493  1.3856  0.6327
 8880TIP3    H226605   7.026   2.163   5.103 -0.6418  0.3748  1.0568
 8881TIP3   OH226606   4.643   5.485   0.663 -0.5436 -0.3293  0.2776
 8881TIP3    H126607   4.703   5.425   0.620 -0.3827 -1.7940  2.3783
 8881TIP3    H226608   4.573   5.499   0.599  0.2159 -1.4954 -0.8581
 8882TIP3   OH226609   6.939   0.398   4.742 -0.1916  1.6358  0.1027
 8882TIP3    H126610   6.912   0.384   4.833 -0.7932  0.5165 -0.2353
 8882TIP3    H226611   6.870   0.453   4.705 -0.0175  1.9758  0.2734
 8883TIP3   OH226612   4.161   2.992   1.966 -0.0060  0.0997  0.1866
 8883TIP3    H126613   4.067   3.006   1.952 -0.1550  0.1256  1.1388
 8883TIP3    H226614   4.197   3.080   1.972  0.3572  0.1347 -1.7091
 8884TIP3   OH226615   5.305   1.574   0.585  0.2712 -0.6341 -0.0333
 8884TIP3    H126616   5.377   1.566   0.648  0.0767  1.4437  0.5474
 8884TIP3    H226617   5.284   1.484   0.561  2.6951 -1.3335  0.1828
 8885TIP3   OH226618   0.493   2.148   2.662  0.1031 -0.4737  0.2942
 8885TIP3    H126619   0.445   2.155   2.580  0.2911  0.9218  0.2853
 8885TIP3    H226620   0.430   2.173   2.729 -0.3782 -2.6344  0.7355
 8886TIP3   OH226621   6.730   4.138   1.196  0.7452 -0.3786 -0.2828
 8886TIP3    H126622   6.822   4.164   1.202  0.3487  1.0882 -0.4037
 8886TIP3    H226623   6.711   4.139   1.102  0.1538  0.9996 -0.1681
 8887TIP3   OH226624   2.249   1.897   3.540  0.6591 -0.4468  0.1698
 8887TIP3    H126625   2.303   1.926   3.466  2.5624 -1.4535  1.0727
 8887TIP3    H226626   2.269   1.959   3.610  0.6374 -0.8315  0.5171
 8888TIP3   OH226627   3.941   2.002   1.145  0.1247  0.3219 -0.0387
 8888TIP3    H126628   3.895   1.970   1.223 -4.3872  1.1585 -2.0432
 8888TIP3    H226629   3.943   2.097   1.154 -0.1612  0.4099 -0.7876
 8889TIP3   OH226630   6.985   5.280   3.364 -0.6799 -0.3334  0.2309
 8889TIP3    H126631   7.040   5.281   3.443 -0.3785  0.4967  0.0275
 8889TIP3    H226632   7.048   5.274   3.292 -0.8528  0.5034 -0.0016
 8890TIP3   OH226633   4.967   6.080   2.815 -0.0694 -0.2188  0.5510
 8890TIP3    H126634   5.019   6.047   2.741 -1.3410 -1.5380  0.1966
 8890TIP3    H226635   4.982   6.017   2.885 -0.8392 -0.3876  0.5743
 8891TIP3   OH226636   6.043   3.198   3.071 -0.0996  0.4158 -0.8715
 8891TIP3    H126637   6.062   3.147   3.149 -0.1348  1.8864  0.1303
 8891TIP3    H226638   5.953   3.229   3.084  0.6671  2.5963 -0.3421
 8892TIP3   OH226639   2.461   1.684   0.516  0.0623 -0.5094 -0.0515
 8892TIP3    H126640   2.411   1.763   0.540 -1.2115 -1.5814  1.0131
 8892TIP3    H226641   2.402   1.611   0.538  1.9322 -1.8304  0.8486
 8893TIP3   OH226642   6.679   2.320   0.082 -0.1812 -0.1403 -0.0586
 8893TIP3    H126643   6.623   2.341   0.008 -0.9018 -0.1165  0.4764
 8893TIP3    H226644   6.702   2.228   0.071  0.7752  0.1921 -0.9830
 8894TIP3   OH226645   3.930   2.268   1.190  0.2304 -0.2154 -0.2639
 8894TIP3    H126646   3.950   2.287   1.099  0.4396  0.3858 -0.0970
 8894TIP3    H226647   3.964   2.343   1.239 -1.2848  0.2414  0.1546
 8895TIP3   OH226648   4.271   0.568   0.791 -0.3649 -0.8016  0.4068
 8895TIP3    H126649   4.328   0.523   0.728 -0.3593 -1.9202  1.1899
 8895TIP3    H226650   4.284   0.661   0.773 -0.9295 -1.0784 -1.7667
 8896TIP3   OH226651   2.356   0.723   0.644  0.9444 -0.0190 -0.1882
 8896TIP3    H126652   2.346   0.691   0.554 -0.2699 -0.3516  0.0499
 8896TIP3    H226653   2.337   0.646   0.698  2.5463 -0.0615  0.3625
 8897TIP3   OH226654   4.490   3.845   3.966  0.7422 -0.9082 -0.0560
 8897TIP3    H126655   4.476   3.773   4.028  2.1100 -0.3929  0.9128
 8897TIP3    H226656   4.506   3.801   3.882  1.3228 -1.7483  0.4683
 8898TIP3   OH226657   6.862   6.471   3.263 -0.2043  0.0384 -0.1501
 8898TIP3    H126658   6.788   6.421   3.229 -0.4912 -0.7532  1.5873
 8898TIP3    H226659   6.938   6.414   3.250  0.1054  0.7415 -1.6802
 8899TIP3   OH226660   1.575   4.870   0.214 -0.1489  0.0325 -0.0370
 8899TIP3    H126661   1.594   4.846   0.305  3.5381  0.1201 -0.6452
 8899TIP3    H226662   1.540   4.959   0.218 -0.1259 -0.0084  1.2789
 8900TIP3   OH226663   5.804   4.391   0.139 -0.5913 -0.0311 -0.7148
 8900TIP3    H126664   5.806   4.421   0.229 -1.3665 -1.3776 -0.2228
 8900TIP3    H226665   5.880   4.333   0.131 -0.9051 -0.4403 -0.7322
 8901TIP3   OH226666   0.799   4.619   4.477  0.4625 -0.3451  0.7346
 8901TIP3    H126667   0.737   4.547   4.494  1.5006 -1.5713 -0.4674
 8901TIP3    H226668   0.872   4.602   4.536  0.1062  0.5454  1.4503
 8902TIP3   OH226669   1.442   2.065   2.668  0.5599 -0.6837 -0.2706
 8902TIP3    H126670   1.388   2.137   2.637  0.0952 -0.8208  0.1974
 8902TIP3    H226671   1.523   2.071   2.617  0.7829  0.5434  0.1860
 8903TIP3   OH226672   6.886   5.907   3.915  0.1643 -0.1571 -0.6665
 8903TIP3    H126673   6.805   5.856   3.920  0.3770 -0.3853  1.1922
 8903TIP3    H226674   6.857   5.996   3.897 -0.4579 -0.3379 -0.5809
 8904TIP3   OH226675   0.631   3.518   2.403 -0.1448  0.3384  0.2449
 8904TIP3    H126676   0.555   3.572   2.383  0.2850  0.3530 -1.5035
 8904TIP3    H226677   0.622   3.442   2.346  2.4091  1.5233 -1.9341
 8905TIP3   OH226678   0.004   2.914   1.348 -0.0207 -0.2469 -0.3436
 8905TIP3    H126679  -0.032   2.992   1.390  0.1213 -0.3078 -0.1055
 8905TIP3    H226680   0.030   2.858   1.420  0.2174 -0.3577 -0.5127
 8906TIP3   OH226681   3.996   2.396   3.437 -0.0415 -0.4135  0.6519
 8906TIP3    H126682   3.925   2.392   3.373 -1.4659  0.2084  2.1477
 8906TIP3    H226683   4.074   2.369   3.387 -1.0943 -0.0049 -1.3189
 8907TIP3   OH226684   6.821   1.070   0.396 -0.1038 -0.3151 -0.4605
 8907TIP3    H126685   6.808   1.165   0.399  0.2205 -0.1928 -1.8185
 8907TIP3    H226686   6.858   1.055   0.308 -0.1899 -1.6997 -0.2715
 8908TIP3   OH226687   2.368   4.980   5.029 -0.5570  0.8507  0.3007
 8908TIP3    H126688   2.448   5.011   4.988 -0.8630  0.7027 -0.4236
 8908TIP3    H226689   2.384   4.989   5.123  0.4654  0.4401  0.1822
 8909TIP3   OH226690   1.690   1.236   3.584 -0.4149  0.0821 -0.5217
 8909TIP3    H126691   1.720   1.178   3.514 -2.3808 -0.4058 -0.9959
 8909TIP3    H226692   1.770   1.281   3.613  1.1778 -2.6348 -0.3006
 8910TIP3   OH226693   1.244   5.876   1.333 -0.0596  0.5685 -0.1893
 8910TIP3    H126694   1.209   5.862   1.245 -0.4578  0.0730  0.0444
 8910TIP3    H226695   1.330   5.916   1.319  0.6820 -1.1472 -0.8720
 8911TIP3   OH226696   5.338   3.917   3.372  0.2491  0.4857  0.4230
 8911TIP3    H126697   5.299   3.915   3.284 -0.8463  0.8344  0.8802
 8911TIP3    H226698   5.362   3.826   3.389 -0.0458  0.3182 -0.0274
 8912TIP3   OH226699   2.423   2.577   5.423  0.2862 -0.6061  0.1001
 8912TIP3    H126700   2.416   2.652   5.482  1.0988 -0.4263 -0.0316
 8912TIP3    H226701   2.368   2.601   5.348 -2.6455 -1.7711  1.6766
 8913TIP3   OH226702   2.068   3.922   3.651 -0.1949  0.1420 -0.2399
 8913TIP3    H126703   2.096   3.997   3.703 -0.3997 -1.4044  2.2423
 8913TIP3    H226704   1.973   3.933   3.642 -0.7228 -1.1295  2.6004
 8914TIP3   OH226705   3.379   3.531   1.653 -0.3850  0.1909 -0.1220
 8914TIP3    H126706   3.417   3.617   1.634  0.4147  0.5647  2.5971
 8914TIP3    H226707   3.292   3.550   1.686 -0.5203 -0.1162 -0.3033
 8915TIP3   OH226708   4.034   3.310   1.283 -0.1336 -0.2604 -0.0325
 8915TIP3    H126709   3.951   3.355   1.267  0.3070  0.2297 -1.0705
 8915TIP3    H226710   4.038   3.300   1.378 -0.3367  1.7706  0.2416
 8916TIP3   OH226711   4.012   3.278   2.032  0.2785 -0.7011 -0.0648
 8916TIP3    H126712   3.962   3.356   2.009  0.8592 -0.5576 -0.8803
 8916TIP3    H226713   3.950   3.222   2.079  0.3845  1.1253  2.4397
 8917TIP3   OH226714   1.322   2.721   2.519  0.0445 -0.1832  0.7610
 8917TIP3    H126715   1.232   2.748   2.536 -0.0672 -0.5449  0.7474
 8917TIP3    H226716   1.339   2.750   2.430 -0.1987 -0.4827  0.6160
 8918TIP3   OH226717   3.735   6.526   2.830  0.2684 -0.1386 -0.5627
 8918TIP3    H126718   3.797   6.463   2.791 -0.6431 -1.7047  0.4038
 8918TIP3    H226719   3.650   6.483   2.824 -0.2308  0.5354  1.0978
 8919TIP3   OH226720   2.332   3.914   2.470 -0.0743  0.3340  0.4162
 8919TIP3    H126721   2.381   3.833   2.484  1.7885  1.4751  0.8181
 8919TIP3    H226722   2.371   3.977   2.531 -0.6515  1.8651 -0.7126
 8920TIP3   OH226723   3.476   1.700   4.691 -0.1386  0.3269 -0.2784
 8920TIP3    H126724   3.484   1.678   4.784  1.9369 -0.9753 -0.6856
 8920TIP3    H226725   3.536   1.774   4.680 -0.9357  0.9494 -0.4526
 8921TIP3   OH226726   6.414   1.489   5.181 -0.0176  0.5092 -0.1867
 8921TIP3    H126727   6.431   1.578   5.211 -1.1290  0.6831 -0.0097
 8921TIP3    H226728   6.375   1.445   5.257 -0.5950  0.2350 -0.6340
 8922TIP3   OH226729   1.173   2.092   1.882 -0.1290  0.9149 -0.5357
 8922TIP3    H126730   1.231   2.113   1.956  2.0749 -1.3264 -1.4846
 8922TIP3    H226731   1.094   2.058   1.923  1.0983 -0.4102  0.8873
 8923TIP3   OH226732   1.495   2.511   2.154 -0.0790 -0.0289  0.0315
 8923TIP3    H126733   1.569   2.480   2.205 -0.1367 -1.1259 -0.5198
 8923TIP3    H226734   1.419   2.465   2.191 -0.8676  2.5937  1.9536
 8924TIP3   OH226735   4.848   2.276   1.587  0.6121  0.1530 -0.1102
 8924TIP3    H126736   4.783   2.262   1.656  0.9050  1.7344  0.5329
 8924TIP3    H226737   4.873   2.368   1.596  2.5976 -0.2813 -0.6410
 8925TIP3   OH226738   0.925   1.268   1.039 -0.4292  0.8482 -0.5232
 8925TIP3    H126739   0.831   1.281   1.050 -0.1119  3.1267 -0.0919
 8925TIP3    H226740   0.963   1.283   1.125  0.2294 -2.1112 -0.1732
 8926TIP3   OH226741   0.627   3.325   3.218 -0.1809 -0.5383  0.2095
 8926TIP3    H126742   0.581   3.404   3.189  0.4728 -0.5041 -0.7960
 8926TIP3    H226743   0.599   3.257   3.156 -0.2811 -0.9586  0.7048
 8927TIP3   OH226744   4.446   6.487   5.064  0.5839 -0.0171 -0.2915
 8927TIP3    H126745   4.361   6.524   5.040  0.5063 -0.2300 -0.3496
 8927TIP3    H226746   4.444   6.398   5.028  0.8665  0.0089 -0.3710
 8928TIP3   OH226747   0.790   3.446   0.761  0.0253 -0.0490  0.1539
 8928TIP3    H126748   0.770   3.383   0.692 -0.4568  0.2485  0.0185
 8928TIP3    H226749   0.841   3.396   0.825  0.1066 -0.4356 -0.2086
 8929TIP3   OH226750   4.882   4.391   3.511 -0.3394 -0.0127 -0.0005
 8929TIP3    H126751   4.879   4.352   3.598  0.5650  1.0798  0.5474
 8929TIP3    H226752   4.874   4.485   3.526 -0.3535  0.1875 -1.1155
 8930TIP3   OH226753   0.302   6.137   5.576  0.7535  0.0358  0.2944
 8930TIP3    H126754   0.266   6.192   5.507  0.8794 -0.4490 -0.1593
 8930TIP3    H226755   0.258   6.166   5.656  0.5031  0.4960 -0.0129
 8931TIP3   OH226756   5.618   5.536   3.529  0.0177  0.3205  0.1018
 8931TIP3    H126757   5.651   5.555   3.441  0.6811  1.4038  0.5549
 8931TIP3    H226758   5.655   5.606   3.584 -0.0785 -0.5379  1.3069
 8932TIP3   OH226759   2.821   3.558   5.660  0.2345 -1.0274 -0.1085
 8932TIP3    H126760   2.825   3.640   5.710  1.0248 -0.2781 -1.3347
 8932TIP3    H226761   2.830   3.489   5.726  0.0697 -0.1145  0.8975
 8933TIP3   OH226762   0.920   4.523   5.204  0.2881  0.0497 -0.2724
 8933TIP3    H126763   1.007   4.523   5.165  0.5234  0.0061  0.2440
 8933TIP3    H226764   0.866   4.573   5.143  0.2547 -1.4456 -1.5253
 8934TIP3   OH226765   4.676   3.755   0.915  0.3008  0.1365  0.2577
 8934TIP3    H126766   4.712   3.783   0.831 -0.0313  0.4467  0.2159
 8934TIP3    H226767   4.594   3.803   0.923  0.2625  0.0032  0.6968
 8935TIP3   OH226768   1.184   1.087   5.484  0.0551 -0.0110  0.4273
 8935TIP3    H126769   1.132   1.096   5.564 -3.2521  2.4933 -1.7358
 8935TIP3    H226770   1.147   1.009   5.441  0.8900 -0.5551  0.6796
 8936TIP3   OH226771   1.805   4.696   0.107 -0.8534 -0.2341  0.2370
 8936TIP3    H126772   1.876   4.758   0.125 -0.2065 -0.5091 -1.2258
 8936TIP3    H226773   1.728   4.736   0.146 -0.0173  0.3737  1.3293
 8937TIP3   OH226774   6.513   3.959   0.009 -0.0784 -0.0438 -0.2045
 8937TIP3    H126775   6.548   3.872   0.028  0.8503 -0.0652 -1.8126
 8937TIP3    H226776   6.575   4.020   0.048 -0.6828 -0.0873  0.8475
 8938TIP3   OH226777   4.775   6.392   0.058 -0.2991  0.1031  0.2623
 8938TIP3    H126778   4.739   6.480   0.071  0.4505  0.3352  0.8628
 8938TIP3    H226779   4.854   6.406   0.005 -0.1132 -0.1939  0.4572
 8939TIP3   OH226780   5.808   1.420   3.584 -0.2089 -0.1891 -0.4854
 8939TIP3    H126781   5.892   1.373   3.585 -0.2557 -0.2632  0.2746
 8939TIP3    H226782   5.768   1.399   3.668  0.0386  1.7088  0.1338
 8940TIP3   OH226783   0.291   3.467   1.415 -0.1122  0.1524  0.5815
 8940TIP3    H126784   0.380   3.472   1.450 -0.3150 -0.8589  1.2746
 8940TIP3    H226785   0.301   3.421   1.331  0.1965  1.3931 -0.0913
 8941TIP3   OH226786   4.124   1.798   4.974  0.1706  0.2202  0.4549
 8941TIP3    H126787   4.121   1.892   4.957  0.0052 -0.1691 -2.1677
 8941TIP3    H226788   4.062   1.784   5.045  0.9378  2.1774  1.5761
 8942TIP3   OH226789   5.251   2.151   2.161  0.4123  0.4048 -0.0472
 8942TIP3    H126790   5.199   2.205   2.101  2.9068  2.2939 -0.6945
 8942TIP3    H226791   5.264   2.206   2.238  2.1707  0.3801 -0.2936
 8943TIP3   OH226792   4.644   3.440   3.615 -0.2941  0.0028  0.0201
 8943TIP3    H126793   4.616   3.357   3.655  0.0857 -0.0578  0.1757
 8943TIP3    H226794   4.633   3.427   3.521 -2.4362  0.6128  0.1497
 8944TIP3   OH226795   6.666   5.688   2.240  0.2633  0.3817 -0.1957
 8944TIP3    H126796   6.606   5.718   2.307  2.1020  1.2300  1.1549
 8944TIP3    H226797   6.615   5.626   2.187 -0.7932 -1.6725  2.9923
 8945TIP3   OH226798   4.820   5.849   3.750  0.0759 -0.3661 -0.4342
 8945TIP3    H126799   4.787   5.902   3.823  1.6040 -1.0649  0.8418
 8945TIP3    H226800   4.768   5.769   3.753 -1.0570  0.3148 -1.2616
 8946TIP3   OH226801   5.570   1.081   5.551 -0.3420  0.1727  0.6394
 8946TIP3    H126802   5.531   1.048   5.470 -2.7039  1.6698  1.0659
 8946TIP3    H226803   5.591   1.002   5.601 -1.2356 -0.7460 -0.3682
 8947TIP3   OH226804   0.922   2.637   4.690 -0.0338  0.2728  0.4297
 8947TIP3    H126805   0.937   2.711   4.630 -0.1702 -1.1034 -1.3827
 8947TIP3    H226806   0.938   2.674   4.777  1.0264  2.1515 -0.4839
 8948TIP3   OH226807   1.736   5.855   2.840 -0.3219 -0.0680  0.0297
 8948TIP3    H126808   1.643   5.854   2.818 -0.0492 -0.1795 -1.1949
 8948TIP3    H226809   1.774   5.917   2.778  0.3275  0.5039  0.9760
 8949TIP3   OH226810   4.682   2.681   4.775 -0.0247  0.6977 -0.2822
 8949TIP3    H126811   4.655   2.745   4.840  1.0560 -0.0542  0.9440
 8949TIP3    H226812   4.661   2.596   4.813  0.5059  0.2415 -0.9678
 8950TIP3   OH226813   2.769   6.586   3.351 -0.5339  0.0791 -0.0577
 8950TIP3    H126814   2.690   6.577   3.296 -1.0489 -0.9954  0.8128
 8950TIP3    H226815   2.736   6.582   3.440  0.3144  1.6582  0.3496
 8951TIP3   OH226816   0.337   3.337   5.609  0.4811  0.1448 -0.4592
 8951TIP3    H126817   0.412   3.394   5.590  1.2150 -0.2732  0.9750
 8951TIP3    H226818   0.365   3.251   5.580 -0.0449  0.2436 -1.2782
 8952TIP3   OH226819   5.228   2.752   2.053  0.3648 -0.3474  0.3920
 8952TIP3    H126820   5.181   2.836   2.049 -0.3178 -0.3680  4.1106
 8952TIP3    H226821   5.159   2.686   2.062  0.9473 -1.2411 -1.2926
 8953TIP3   OH226822   5.369   1.218   2.718  0.0656  0.6629  0.1229
 8953TIP3    H126823   5.347   1.126   2.701 -1.3091  1.2257 -1.3918
 8953TIP3    H226824   5.291   1.254   2.760 -0.3700  1.6877 -1.4980
 8954TIP3   OH226825   3.053   1.042   1.190 -0.1197  0.2555 -0.1934
 8954TIP3    H126826   3.111   1.088   1.129 -0.8902 -0.7098 -1.7096
 8954TIP3    H226827   3.112   0.991   1.246  0.5403 -0.8875 -1.8454
 8955TIP3   OH226828   1.613   2.530   1.566  0.2909  0.0477 -0.3976
 8955TIP3    H126829   1.606   2.606   1.508 -0.0035  0.4111  0.1043
 8955TIP3    H226830   1.613   2.567   1.654  1.3243 -0.4581 -0.1718
 8956TIP3   OH226831   5.217   2.786   2.634  0.1224  0.0212 -0.4888
 8956TIP3    H126832   5.224   2.788   2.729 -0.7841  0.3530 -0.4238
 8956TIP3    H226833   5.219   2.878   2.608  3.7172 -0.0654 -1.0893
 8957TIP3   OH226834   1.105   0.550   3.834  0.0407  0.0443  0.6584
 8957TIP3    H126835   1.071   0.539   3.923 -0.1562  2.7730  1.0128
 8957TIP3    H226836   1.195   0.581   3.846 -0.7661  2.9267  0.0878
 8958TIP3   OH226837   6.099   2.536   1.887 -0.2625  0.4217 -0.2253
 8958TIP3    H126838   6.177   2.507   1.839 -1.0498 -0.0035 -1.2996
 8958TIP3    H226839   6.083   2.466   1.951  0.5638  0.7995  0.4217
 8959TIP3   OH226840   1.433   1.394   4.577  0.0713 -0.7209  0.7340
 8959TIP3    H126841   1.377   1.356   4.645 -0.4677 -0.9304  0.1913
 8959TIP3    H226842   1.518   1.353   4.591 -0.4993 -2.1941  0.1520
 8960TIP3   OH226843   7.084   5.694   3.810 -0.0335 -0.2717 -0.1123
 8960TIP3    H126844   7.020   5.764   3.803 -0.2440 -0.4632 -0.1066
 8960TIP3    H226845   7.078   5.665   3.900  0.4216  0.0500  0.0269
 8961TIP3   OH226846   2.847   1.558   2.586  0.5559 -0.0206  0.3547
 8961TIP3    H126847   2.939   1.567   2.563  0.7888  1.1502  1.6128
 8961TIP3    H226848   2.843   1.575   2.680 -1.0867  1.1750  0.1292
 8962TIP3   OH226849   0.988   4.430   0.863  0.2323  0.0709 -0.3552
 8962TIP3    H126850   0.973   4.336   0.857  0.0778  0.0824 -0.1659
 8962TIP3    H226851   0.998   4.447   0.957 -0.8182  0.4005 -0.2818
 8963TIP3   OH226852   0.234   5.500   2.482 -0.0388  0.2568 -0.5372
 8963TIP3    H126853   0.294   5.541   2.544  0.3357  0.2325 -0.8735
 8963TIP3    H226854   0.175   5.447   2.536  0.3700  0.1279 -0.2120
 8964TIP3   OH226855   2.004   6.679   0.765  0.2177  0.0182  0.1527
 8964TIP3    H126856   2.094   6.705   0.784  0.6721  0.0348 -1.8318
 8964TIP3    H226857   1.964   6.758   0.728  0.4697 -0.8978 -2.2641
 8965TIP3   OH226858   0.376   4.137   5.474  0.6602 -0.1269  0.4298
 8965TIP3    H126859   0.408   4.136   5.564  1.3228 -0.9795  0.1938
 8965TIP3    H226860   0.363   4.230   5.454  1.4729  0.1311  1.0693
 8966TIP3   OH226861   2.225   3.768   3.856  0.0180  0.6296 -0.2103
 8966TIP3    H126862   2.200   3.679   3.881  1.2883  0.2298 -0.2944
 8966TIP3    H226863   2.167   3.790   3.783  0.3939 -0.5292 -0.8721
 8967TIP3   OH226864   5.779   0.597   0.270  0.0822 -0.2851 -0.0146
 8967TIP3    H126865   5.872   0.598   0.293  0.2326  0.1186 -0.6067
 8967TIP3    H226866   5.754   0.505   0.268  0.6791 -0.4377 -0.6577
 8968TIP3   OH226867   2.814   5.620   5.339 -0.0094  0.1213 -0.3563
 8968TIP3    H126868   2.829   5.666   5.422  0.1169  0.3316 -0.4949
 8968TIP3    H226869   2.821   5.527   5.361  1.9783  0.1978 -0.4862
 8969TIP3   OH226870   2.518   3.804   0.675 -0.3957 -0.5166 -0.0087
 8969TIP3    H126871   2.594   3.825   0.730 -0.0416 -1.9108  0.0663
 8969TIP3    H226872   2.473   3.888   0.663  0.0667 -0.0173  1.5715
 8970TIP3   OH226873   6.845   2.525   2.043  0.6741 -0.1568 -0.3611
 8970TIP3    H126874   6.791   2.461   1.999  1.9918 -0.0541 -2.2225
 8970TIP3    H226875   6.880   2.479   2.120 -1.5884 -0.3557  0.6126
 8971TIP3   OH226876   0.375   4.995   4.153 -0.0883 -0.2350 -0.2221
 8971TIP3    H126877   0.432   5.069   4.132 -1.3767  0.4624 -1.4199
 8971TIP3    H226878   0.367   4.946   4.071  0.8996 -1.8399  0.6057
 8972TIP3   OH226879   5.623   2.530   4.686 -0.1267 -0.0345 -0.1274
 8972TIP3    H126880   5.599   2.556   4.597 -0.6202  1.6243  0.4661
 8972TIP3    H226881   5.719   2.537   4.688  0.0208 -1.4169 -0.8966
 8973TIP3   OH226882   0.925   5.787   4.070 -0.5288  0.1577 -0.0152
 8973TIP3    H126883   0.935   5.695   4.045  3.0629  0.5871 -0.6490
 8973TIP3    H226884   0.918   5.834   3.987 -1.0784  0.5619  0.2590
 8974TIP3   OH226885   3.295   3.178   3.800 -0.2408  0.5189 -0.1043
 8974TIP3    H126886   3.227   3.244   3.811 -2.5680 -1.1619 -3.0372
 8974TIP3    H226887   3.248   3.095   3.795  2.2619 -1.0176  0.1122
 8975TIP3   OH226888   1.606   1.789   1.190  0.1373  0.2736  0.1125
 8975TIP3    H126889   1.678   1.751   1.240 -0.9668 -0.7039  1.0222
 8975TIP3    H226890   1.555   1.838   1.254 -0.8038 -0.2536 -0.2145
 8976TIP3   OH226891   4.984   0.247   1.922  0.6691 -0.2348 -0.0501
 8976TIP3    H126892   4.916   0.278   1.981  0.1896 -0.4456 -0.4850
 8976TIP3    H226893   5.046   0.320   1.916  0.5538 -0.0923  0.4524
 8977TIP3   OH226894   2.585   3.636   1.274 -0.0761  0.0743  0.1998
 8977TIP3    H126895   2.492   3.651   1.292 -0.0189  1.9325 -0.7045
 8977TIP3    H226896   2.630   3.707   1.321  0.9846 -1.2800  1.2949
 8978TIP3   OH226897   1.813   6.355   1.368  0.1240  0.1260 -0.1473
 8978TIP3    H126898   1.801   6.289   1.300  0.4840  0.4667 -0.5502
 8978TIP3    H226899   1.874   6.418   1.329 -0.2737  0.7345  0.2019
 8979TIP3   OH226900   0.597   1.092   4.828  0.3999  0.3485  0.3134
 8979TIP3    H126901   0.635   1.022   4.880  0.7491 -0.2067 -0.6731
 8979TIP3    H226902   0.594   1.167   4.888  0.1648 -0.4478  1.3294
 8980TIP3   OH226903   1.834   3.609   1.221 -0.2324 -0.1936 -0.6058
 8980TIP3    H126904   1.748   3.571   1.238 -0.1383 -0.2470 -0.2365
 8980TIP3    H226905   1.823   3.658   1.140 -0.2623 -1.3332 -1.3231
 8981TIP3   OH226906   2.642   3.330   2.508 -0.2760 -0.7375 -0.5522
 8981TIP3    H126907   2.716   3.306   2.564 -0.1647 -1.9504 -1.1907
 8981TIP3    H226908   2.565   3.321   2.564 -0.1810 -2.1171 -0.6131
 8982TIP3   OH226909   2.558   1.709   1.200 -0.0753 -0.4492 -0.1823
 8982TIP3    H126910   2.482   1.701   1.143  0.3881 -0.8367 -0.7613
 8982TIP3    H226911   2.522   1.720   1.288 -0.7935 -0.8682 -0.4201
 8983TIP3   OH226912   6.851   1.897   5.109  0.0685 -0.0713 -0.3394
 8983TIP3    H126913   6.860   1.972   5.050 -2.2791  0.1670 -0.5112
 8983TIP3    H226914   6.886   1.823   5.058 -0.6334  0.3693 -1.5125
 8984TIP3   OH226915   5.979   0.395   2.948 -0.0342  0.5171 -0.3417
 8984TIP3    H126916   5.991   0.383   3.042  1.0417  2.1977 -0.2171
 8984TIP3    H226917   6.064   0.371   2.910 -0.4008  0.0383 -0.8837
 8985TIP3   OH226918   2.989   2.046   5.198  0.4270 -0.2745 -0.1422
 8985TIP3    H126919   2.919   2.105   5.173  0.9970  0.8906  0.8481
 8985TIP3    H226920   2.945   1.969   5.233 -0.5224  1.5056  3.0170
 8986TIP3   OH226921   3.293   2.466   1.513  0.1175  0.1373 -0.2420
 8986TIP3    H126922   3.320   2.527   1.444  1.3951 -0.5837 -0.4225
 8986TIP3    H226923   3.244   2.520   1.574  0.9430  1.2974 -0.5503
 8987TIP3   OH226924   0.994   1.575   1.321 -0.2353 -0.1818 -0.3472
 8987TIP3    H126925   1.031   1.603   1.405  0.7863  0.3110 -0.9323
 8987TIP3    H226926   0.985   1.656   1.271 -0.3236 -0.5305 -0.9039
 8988TIP3   OH226927   1.028   1.918   0.037 -0.0552  0.1524 -0.2947
 8988TIP3    H126928   0.958   1.954   0.091 -0.1480  0.2631 -0.4870
 8988TIP3    H226929   1.072   1.855   0.093  2.1628  2.7993  1.2053
 8989TIP3   OH226930   3.512   3.240   0.082 -0.0034  0.0096  0.0162
 8989TIP3    H126931   3.445   3.303   0.108  0.3321  0.3778 -0.0127
 8989TIP3    H226932   3.463   3.163   0.053 -0.4101 -0.2353  1.2764
 8990TIP3   OH226933   6.234   6.438   2.851  0.3322 -0.0873 -0.6583
 8990TIP3    H126934   6.161   6.411   2.795  0.4993  1.1163 -1.4950
 8990TIP3    H226935   6.226   6.533   2.856  2.2654  0.1636 -1.3979
 8991TIP3   OH226936   0.948   4.510   2.201  0.5611  0.1141  0.4972
 8991TIP3    H126937   0.935   4.604   2.217  3.5848  0.6341  0.5021
 8991TIP3    H226938   0.903   4.493   2.118 -0.1095  1.5120  0.5383
 8992TIP3   OH226939   2.512   4.179   2.738  0.4383 -0.3094 -0.1375
 8992TIP3    H126940   2.581   4.127   2.781 -0.3051 -1.3597 -0.1876
 8992TIP3    H226941   2.560   4.247   2.691  1.4516 -0.9856 -0.1230
 8993TIP3   OH226942   2.573   6.695   4.957 -0.2937 -0.3420  0.0159
 8993TIP3    H126943   2.536   6.747   5.028 -0.7572 -2.5298  1.4887
 8993TIP3    H226944   2.662   6.675   4.986  0.0368  0.0020 -0.7442
 8994TIP3   OH226945   2.097   1.717   4.284 -0.5245 -0.1927 -0.0383
 8994TIP3    H126946   2.134   1.792   4.329  0.5561  0.1824 -1.4925
 8994TIP3    H226947   2.007   1.711   4.316 -0.6987  1.8571 -0.0686
 8995TIP3   OH226948   5.598   5.155   4.009  0.1241 -0.1785 -0.0505
 8995TIP3    H126949   5.538   5.220   3.973 -0.8393 -1.8790 -1.6698
 8995TIP3    H226950   5.544   5.076   4.021  0.3546  0.0754  5.0366
 8996TIP3   OH226951   2.922   0.505   2.286 -0.1325 -0.2096 -0.2321
 8996TIP3    H126952   2.937   0.495   2.192  0.1500  1.5555 -0.4058
 8996TIP3    H226953   2.915   0.600   2.299 -1.5613 -0.4806  1.3132
 8997TIP3   OH226954   2.439   2.194   1.891 -0.3961  0.0495  0.2025
 8997TIP3    H126955   2.503   2.223   1.956 -0.2258 -1.0715  0.5697
 8997TIP3    H226956   2.463   2.240   1.811  0.9896 -0.4680  0.2906
 8998TIP3   OH226957   2.297   2.193   5.791  0.3757  0.2736 -0.2126
 8998TIP3    H126958   2.286   2.252   5.866 -2.5981  0.6420 -0.7807
 8998TIP3    H226959   2.313   2.251   5.717  2.3874 -0.0352 -0.0783
 8999TIP3   OH226960   5.554   4.799   2.802 -0.9816  0.1066 -0.3371
 8999TIP3    H126961   5.619   4.849   2.754 -1.0372  0.2671 -0.2499
 8999TIP3    H226962   5.604   4.732   2.848 -0.7469  0.8521  0.5310
 9000TIP3   OH226963   7.152   5.498   0.297 -0.0384  0.6262  0.0051
 9000TIP3    H126964   7.247   5.497   0.308  0.1101  1.9328 -0.9203
 9000TIP3    H226965   7.125   5.407   0.307  1.4661  0.0345 -1.0433
 9001TIP3   OH226966   0.893   5.535   2.483 -0.4198 -0.8558 -0.4654
 9001TIP3    H126967   0.845   5.590   2.420 -0.3314 -0.6466 -0.3511
 9001TIP3    H226968   0.825   5.484   2.527 -0.5225 -0.6840 -0.4240
 9002TIP3   OH226969   5.270   3.281   1.486 -0.0171 -0.1340  0.1660
 9002TIP3    H126970   5.301   3.344   1.551  1.9423 -0.4054 -0.4425
 9002TIP3    H226971   5.182   3.312   1.463  0.4867  1.7837  0.6168
 9003TIP3   OH226972   6.083   0.408   2.139  0.1065  0.2495 -0.4958
 9003TIP3    H126973   6.028   0.422   2.061  1.4876  2.2245 -1.2333
 9003TIP3    H226974   6.135   0.331   2.118 -0.8666 -0.3754 -0.6867
 9004TIP3   OH226975   2.413   1.621   0.987 -0.0899  0.2992 -0.4729
 9004TIP3    H126976   2.458   1.650   0.908  0.6299  2.3255  0.6073
 9004TIP3    H226977   2.320   1.623   0.964  0.0823  1.4045 -1.1163
 9005TIP3   OH226978   4.929   1.437   4.006  0.2112 -0.0400 -0.1912
 9005TIP3    H126979   4.953   1.354   3.964  1.3296  0.1788 -0.0248
 9005TIP3    H226980   4.937   1.502   3.936  2.3987  0.3749  0.3738
 9006TIP3   OH226981   0.068   0.375   3.611  0.1133  0.5166 -0.1415
 9006TIP3    H126982   0.160   0.399   3.605  1.4964 -4.0510 -0.6913
 9006TIP3    H226983   0.045   0.342   3.524 -1.1070 -1.1034  0.7324
 9007TIP3   OH226984   6.975   2.557   2.866 -0.2920  0.1278 -0.1399
 9007TIP3    H126985   6.945   2.598   2.948 -0.2548 -0.7282  0.3141
 9007TIP3    H226986   7.070   2.566   2.868 -0.4325  3.0537 -1.6919
 9008TIP3   OH226987   0.453   4.214   1.515  0.5872 -0.2905 -0.1559
 9008TIP3    H126988   0.420   4.126   1.531 -0.5120  0.6068  3.2811
 9008TIP3    H226989   0.400   4.247   1.443 -0.7434 -1.5597  0.2049
 9009TIP3   OH226990   3.938   6.225   4.682 -0.4671  0.0915  0.5060
 9009TIP3    H126991   3.875   6.286   4.721 -0.7905 -0.3444  0.6736
 9009TIP3    H226992   4.005   6.281   4.643 -1.7457  0.6306 -1.0339
 9010TIP3   OH226993   0.699   5.691   3.867  0.2430 -0.0449 -0.4084
 9010TIP3    H126994   0.700   5.753   3.940 -2.1027 -0.6653  0.2361
 9010TIP3    H226995   0.619   5.711   3.819  1.6914  0.2938 -2.8430
 9011TIP3   OH226996   5.910   6.245   3.429 -0.2994  0.5183 -1.2710
 9011TIP3    H126997   5.907   6.254   3.524 -1.2895  4.0629 -1.5275
 9011TIP3    H226998   5.848   6.174   3.410 -0.0255 -0.3101  0.6764
 9012TIP3   OH226999   2.960   5.079   2.440  0.6012 -0.0272 -0.3002
 9012TIP3    H127000   3.053   5.059   2.427  0.5930 -0.4015  0.2220
 9012TIP3    H227001   2.918   5.051   2.359  0.6894 -1.4987  0.1440
 9013TIP3   OH227002   4.012   2.009   1.984 -0.1802 -0.5318  0.0887
 9013TIP3    H127003   4.054   1.998   2.069 -0.4438 -0.8198  0.1816
 9013TIP3    H227004   3.937   2.065   2.000  0.3933  0.3225 -0.1502
 9014TIP3   OH227005   6.831   4.910   0.459  0.0321 -0.2903  0.3329
 9014TIP3    H127006   6.737   4.898   0.457 -0.0293  0.1736 -0.7017
 9014TIP3    H227007   6.843   5.005   0.456  0.5286 -0.3631 -0.2435
 9015TIP3   OH227008   4.262   6.336   3.560 -0.3167 -0.1663  0.2352
 9015TIP3    H127009   4.319   6.413   3.555 -1.7594  1.0113  1.1641
 9015TIP3    H227010   4.292   6.288   3.637  1.1535 -1.0544 -0.8405
 9016TIP3   OH227011   0.186   3.204   1.647 -0.8326 -0.0061 -0.3904
 9016TIP3    H127012   0.200   3.267   1.576  0.3802  0.0982 -0.0835
 9016TIP3    H227013   0.211   3.251   1.726 -2.3480 -0.0675  0.1499
 9017TIP3   OH227014   6.890   6.056   3.663  0.5978  0.5949 -0.2956
 9017TIP3    H127015   6.930   6.088   3.583  1.4677  0.9796  0.2822
 9017TIP3    H227016   6.865   5.966   3.644  0.7395  0.7081 -1.0128
 9018TIP3   OH227017   3.028   3.397   5.503  0.2170  0.0886 -0.4091
 9018TIP3    H127018   3.031   3.303   5.520  1.3476  0.5046  2.3556
 9018TIP3    H227019   2.979   3.432   5.578 -1.3393  1.6415 -2.0503
 9019TIP3   OH227020   1.509   1.722   0.328 -0.1170 -0.2587 -0.5061
 9019TIP3    H127021   1.553   1.707   0.412 -0.5134  1.2009 -0.0112
 9019TIP3    H227022   1.571   1.692   0.262  0.2803 -1.2501  0.2943
 9020TIP3   OH227023   3.754   5.850   0.526  0.4591  0.6261  0.2215
 9020TIP3    H127024   3.779   5.804   0.446  1.2518  0.7807  0.3783
 9020TIP3    H227025   3.742   5.941   0.498 -1.7017  0.2734 -0.2161
 9021TIP3   OH227026   4.454   1.811   2.713  0.3979  0.4805 -0.1348
 9021TIP3    H127027   4.507   1.730   2.713  0.6703  0.6093 -1.7478
 9021TIP3    H227028   4.379   1.791   2.769  1.2816 -0.3159  0.8049
 9022TIP3   OH227029   2.167   6.362   3.892  0.8783  0.3911  0.0288
 9022TIP3    H127030   2.109   6.403   3.956  0.6611 -0.2775  0.2676
 9022TIP3    H227031   2.255   6.391   3.917  0.9495 -0.9827  1.5050
 9023TIP3   OH227032   2.958   6.136   0.721  0.6631  0.4553 -0.1556
 9023TIP3    H127033   2.914   6.156   0.638 -0.7897  2.3610  0.9956
 9023TIP3    H227034   2.899   6.076   0.766  0.2389  1.3185  0.4772
 9024TIP3   OH227035   6.556   2.581   3.002  0.4526  0.0739 -0.0406
 9024TIP3    H127036   6.472   2.582   2.955 -0.2656  0.8932  1.1944
 9024TIP3    H227037   6.622   2.588   2.933 -0.5289  0.6146 -0.9662
 9025TIP3   OH227038   4.055   4.415   5.832  0.2657 -0.2277  0.0214
 9025TIP3    H127039   3.969   4.436   5.867  0.1527  0.4662 -0.6389
 9025TIP3    H227040   4.038   4.355   5.759  0.4811 -1.4853  0.9885
 9026TIP3   OH227041   4.204   4.286   4.637  0.5189  0.3113 -0.3073
 9026TIP3    H127042   4.227   4.379   4.643  1.2203  0.0583  2.3044
 9026TIP3    H227043   4.283   4.240   4.666 -1.0345 -0.8703  2.4424
 9027TIP3   OH227044   2.438   4.753   5.581  0.1483  0.0144  0.3162
 9027TIP3    H127045   2.497   4.680   5.601 -0.6650 -0.4191  1.1538
 9027TIP3    H227046   2.366   4.745   5.643  0.4367  2.0158  0.9751
 9028TIP3   OH227047   5.213   2.956   1.660 -0.0036  0.1250 -0.2842
 9028TIP3    H127048   5.166   3.037   1.677 -2.1645 -1.1908  0.4439
 9028TIP3    H227049   5.302   2.973   1.690 -0.5082  2.0774  0.2340
 9029TIP3   OH227050   3.505   1.147   0.050 -0.0567  0.1336  0.1873
 9029TIP3    H127051   3.457   1.188  -0.022  0.0489  0.2947  0.2113
 9029TIP3    H227052   3.473   1.056   0.051  0.0382  0.0975 -0.1444
 9030TIP3   OH227053   3.590   6.002   4.899  0.0964 -0.1903 -0.5096
 9030TIP3    H127054   3.570   5.922   4.948 -0.5700  0.3420  0.1013
 9030TIP3    H227055   3.637   5.971   4.821 -2.5418 -1.4796 -1.7164
 9031TIP3   OH227056   1.432   4.277   0.031  0.4316  0.2225 -0.2296
 9031TIP3    H127057   1.486   4.349  -0.001 -0.9070  1.1386 -0.4864
 9031TIP3    H227058   1.346   4.316   0.048  0.6969 -0.4408  3.4428
 9032TIP3   OH227059   1.840   1.961   5.350 -0.0444  0.0640 -0.2972
 9032TIP3    H127060   1.780   1.904   5.301  0.4890 -1.1250  0.3676
 9032TIP3    H227061   1.926   1.943   5.313  0.0586  0.9102 -0.4866
 9033TIP3   OH227062   0.675   1.130   0.376  0.1104  0.3509 -0.5459
 9033TIP3    H127063   0.673   1.205   0.435  1.9465  1.1933 -1.4745
 9033TIP3    H227064   0.763   1.095   0.384 -0.1835 -0.6378 -1.4234
 9034TIP3   OH227065   2.298   4.578   2.651  0.6450 -0.0006 -0.0897
 9034TIP3    H127066   2.279   4.491   2.617  1.2633  0.0003 -0.4537
 9034TIP3    H227067   2.241   4.587   2.728  0.7732 -0.8303  0.1122
 9035TIP3   OH227068   0.657   0.022   2.465 -0.5559  0.5944 -0.2685
 9035TIP3    H127069   0.654   0.115   2.486 -2.0260  1.0063 -2.0426
 9035TIP3    H227070   0.749   0.006   2.445 -0.2867  1.6776  0.0073
 9036TIP3   OH227071   0.481   3.488   0.511  0.3214  0.2368 -0.6877
 9036TIP3    H127072   0.474   3.552   0.440 -1.0957  0.7785 -0.0959
 9036TIP3    H227073   0.459   3.537   0.590  3.4922  0.0672  0.4438
 9037TIP3   OH227074   1.988   5.562   2.439 -0.2591 -0.4153  1.1850
 9037TIP3    H127075   1.901   5.553   2.400  1.0350  0.7488 -2.3600
 9037TIP3    H227076   2.009   5.654   2.430  1.7060 -0.8377  1.0132
 9038TIP3   OH227077   5.799   0.131   2.587  0.2374  0.2462  0.3420
 9038TIP3    H127078   5.773   0.209   2.636  1.6886  1.0604 -0.1100
 9038TIP3    H227079   5.826   0.069   2.655 -1.9558 -0.3187  0.7662
 9039TIP3   OH227080   2.026   0.209   5.250  0.1443  0.5218 -0.5297
 9039TIP3    H127081   2.026   0.114   5.260 -1.7029  0.7257  3.2966
 9039TIP3    H227082   1.969   0.225   5.174  0.0012 -1.3968 -0.8934
 9040TIP3   OH227083   3.337   2.220   0.980  0.0993 -0.1413 -0.1977
 9040TIP3    H127084   3.420   2.269   0.975  0.2856 -0.4068  0.2373
 9040TIP3    H227085   3.270   2.286   0.965  0.3250  0.3550  0.8331
 9041TIP3   OH227086   6.855   0.953   2.347  0.4986  0.3919  0.4607
 9041TIP3    H127087   6.948   0.933   2.350  0.1468 -1.3668  0.9889
 9041TIP3    H227088   6.816   0.894   2.412 -1.1655 -0.1013 -0.9097
 9042TIP3   OH227089   5.627   6.322   1.794 -0.0888 -0.2374  0.6950
 9042TIP3    H127090   5.683   6.323   1.871  0.6181 -1.3727  0.2258
 9042TIP3    H227091   5.685   6.295   1.722 -0.1437  2.9835 -0.7301
 9043TIP3   OH227092   3.213   5.001   1.126 -0.2750  0.1385  0.2090
 9043TIP3    H127093   3.181   4.912   1.142 -0.6367  0.3223  0.5348
 9043TIP3    H227094   3.173   5.053   1.196  1.1120  0.2970  0.9108
 9044TIP3   OH227095   5.181   0.075   0.137  0.5184 -0.3978 -0.2613
 9044TIP3    H127096   5.231   0.109   0.063 -0.6491  0.1957 -0.8069
 9044TIP3    H227097   5.097   0.048   0.100 -0.1546  0.0676  0.8537
 9045TIP3   OH227098   4.718   4.656   2.306  0.2168  0.0194  0.0586
 9045TIP3    H127099   4.797   4.675   2.355 -0.7118 -0.4760  1.8299
 9045TIP3    H227100   4.677   4.741   2.289 -0.1367  0.1231  1.3660
 9046TIP3   OH227101   2.647   4.154   5.598  0.0963 -0.3499 -0.2340
 9046TIP3    H127102   2.707   4.213   5.552  0.2004 -1.2807 -1.3518
 9046TIP3    H227103   2.679   4.152   5.688  1.4231 -0.4126 -0.6897
 9047TIP3   OH227104   0.861   3.739   2.580  0.1055  0.0292  0.8279
 9047TIP3    H127105   0.887   3.680   2.509 -2.6196 -0.3481  0.0140
 9047TIP3    H227106   0.862   3.684   2.658 -2.8164 -1.3973  0.0115
 9048TIP3   OH227107   3.887   1.926   0.467 -0.7052 -0.4768  1.0126
 9048TIP3    H127108   3.934   2.002   0.501 -0.1507 -0.7303  0.8371
 9048TIP3    H227109   3.935   1.901   0.388 -0.1397 -1.7206  1.7081
 9049TIP3   OH227110   4.137   1.481   4.191  0.1939  0.0182  0.2741
 9049TIP3    H127111   4.217   1.513   4.150 -0.6581  1.7922 -0.1311
 9049TIP3    H227112   4.148   1.502   4.284  0.7169 -0.9306  0.4401
 9050TIP3   OH227113   1.350   1.340   1.299 -0.4086  0.6447 -0.4425
 9050TIP3    H127114   1.423   1.400   1.312 -0.7756  0.9938  0.0473
 9050TIP3    H227115   1.374   1.289   1.222  1.0486 -0.2958  0.5745
 9051TIP3   OH227116   4.465   6.062   1.699 -0.2474 -0.1105 -1.1855
 9051TIP3    H127117   4.527   6.107   1.642  1.2192 -1.3712 -0.6408
 9051TIP3    H227118   4.519   6.026   1.770 -1.8308  0.2503  0.2744
 9052TIP3   OH227119   6.550   5.755   4.125 -0.2859 -0.2539  0.4592
 9052TIP3    H127120   6.458   5.767   4.102 -0.2330 -0.9020 -0.1331
 9052TIP3    H227121   6.548   5.714   4.211 -0.5341  0.2319  0.6915
 9053TIP3   OH227122   4.616   6.271   2.900 -0.1404 -0.0608  0.0247
 9053TIP3    H127123   4.643   6.196   2.953  0.1571 -1.2213 -1.6721
 9053TIP3    H227124   4.699   6.312   2.872 -0.3002  0.9132  0.9199
 9054TIP3   OH227125   0.107   5.184   1.493  0.4175  0.7611 -0.1996
 9054TIP3    H127126   0.203   5.188   1.494  0.4755 -0.1107 -0.5666
 9054TIP3    H227127   0.082   5.172   1.585  0.5803  2.1912  0.0440
 9055TIP3   OH227128   1.074   1.677   0.958  0.2374  0.1018 -0.1810
 9055TIP3    H127129   1.043   1.600   0.910  1.0492  0.2482 -0.9820
 9055TIP3    H227130   1.120   1.729   0.892 -1.5611  2.0350 -0.0142
 9056TIP3   OH227131   5.879   4.581   4.681  0.5155 -0.1751  0.4952
 9056TIP3    H127132   5.935   4.657   4.690 -0.3181  0.7753 -1.6947
 9056TIP3    H227133   5.934   4.514   4.641  0.9297 -0.3427  1.3323
 9057TIP3   OH227134   4.514   2.137   4.147 -0.4060  0.1398 -0.0607
 9057TIP3    H127135   4.450   2.189   4.098  1.1267  0.9107 -1.3582
 9057TIP3    H227136   4.533   2.062   4.090 -1.0932 -0.7871  0.8986
 9058TIP3   OH227137   3.678   3.736   3.963  0.5199  0.5232  0.0121
 9058TIP3    H127138   3.658   3.702   3.876 -0.2072 -1.5100  0.9014
 9058TIP3    H227139   3.595   3.773   3.994  0.6610  0.8330  0.0257
 9059TIP3   OH227140   4.516   3.488   3.389 -0.8033 -0.5859 -0.1690
 9059TIP3    H127141   4.549   3.545   3.320 -1.2421  1.3320  1.1240
 9059TIP3    H227142   4.426   3.517   3.404 -0.6107 -0.7212  1.4342
 9060TIP3   OH227143   3.778   1.614   0.279  0.4097  0.0070 -0.7065
 9060TIP3    H127144   3.818   1.532   0.251  0.1242 -0.2757 -0.2996
 9060TIP3    H227145   3.712   1.588   0.344  0.3423  0.5582 -0.5466
 9061TIP3   OH227146   5.997   5.730   0.783 -0.3161  0.0537  0.0290
 9061TIP3    H127147   5.997   5.814   0.735  2.5641 -0.6811 -1.4927
 9061TIP3    H227148   6.035   5.752   0.868 -1.2988  0.5930  0.3436
 9062TIP3   OH227149   6.081   2.986   1.489  0.0121  0.7617 -0.2269
 9062TIP3    H127150   6.045   3.061   1.441  0.9146  0.3719 -1.5883
 9062TIP3    H227151   6.006   2.948   1.534 -1.1764  0.4291 -2.3198
 9063TIP3   OH227152   2.699   2.490   3.378 -0.7807  0.2975  0.4360
 9063TIP3    H127153   2.671   2.422   3.440  0.1581  1.1857  1.8986
 9063TIP3    H227154   2.790   2.507   3.402 -1.4870  3.3719  1.3711
 9064TIP3   OH227155   5.371   3.656   3.481 -0.2480 -0.3341 -0.0122
 9064TIP3    H127156   5.342   3.579   3.528  0.6832  0.5753  2.1987
 9064TIP3    H227157   5.442   3.625   3.425 -1.4907 -1.4656 -1.0397
 9065TIP3   OH227158   3.964   4.741   1.352  0.3219 -0.1814 -0.0843
 9065TIP3    H127159   4.043   4.787   1.380  1.1296 -1.1895 -0.6444
 9065TIP3    H227160   3.984   4.649   1.368 -0.1814 -0.5678 -1.5832
 9066TIP3   OH227161   2.851   3.748   2.516 -0.2801  0.1970 -0.3964
 9066TIP3    H127162   2.920   3.785   2.570 -0.3613 -0.5824  0.2561
 9066TIP3    H227163   2.893   3.677   2.468  0.0706  1.5885 -2.2546
 9067TIP3   OH227164   3.490   3.107   2.916 -0.0063 -0.3097 -0.4338
 9067TIP3    H127165   3.586   3.098   2.910 -0.1347 -1.8179 -0.5905
 9067TIP3    H227166   3.477   3.180   2.976  1.2457  1.0780 -1.7797
 9068TIP3   OH227167   6.773   2.914   0.631 -0.3054 -0.1443 -0.1927
 9068TIP3    H127168   6.814   2.849   0.574  0.9361  1.8488 -1.7562
 9068TIP3    H227169   6.821   2.906   0.714  0.4575 -0.6205 -0.6595
 9069TIP3   OH227170   4.991   0.112   2.824 -0.6581 -0.1815 -0.1156
 9069TIP3    H127171   5.068   0.070   2.863  0.3203  1.4438 -0.2021
 9069TIP3    H227172   4.993   0.086   2.732 -0.5507 -0.6242  0.0131
 9070TIP3   OH227173   4.464   3.361   1.456  0.0327 -0.0782 -0.1753
 9070TIP3    H127174   4.451   3.322   1.369  0.3604  0.2741 -0.3881
 9070TIP3    H227175   4.406   3.437   1.457 -1.7645 -1.4028  0.8119
 9071TIP3   OH227176   6.710   0.421   5.437  0.5210 -0.5492 -0.2532
 9071TIP3    H127177   6.655   0.343   5.428 -1.3927  0.9676 -3.0587
 9071TIP3    H227178   6.648   0.494   5.438  2.3736  1.1535 -1.5645
 9072TIP3   OH227179   1.393   4.942   1.063  0.1187  0.0486  0.3955
 9072TIP3    H127180   1.485   4.945   1.036  0.0741 -0.9211  0.0970
 9072TIP3    H227181   1.389   4.867   1.123 -0.3639  0.4403  0.8553
 9073TIP3   OH227182   4.197   4.337   3.013  0.0629  0.1942  0.2182
 9073TIP3    H127183   4.290   4.317   3.005  0.4832  1.8420  0.6349
 9073TIP3    H227184   4.194   4.431   3.027 -1.5631 -0.0437  1.9327
 9074TIP3   OH227185   5.810   1.662   4.396  0.0370  0.5594 -0.2034
 9074TIP3    H127186   5.882   1.600   4.386 -0.0921  0.1824  1.0722
 9074TIP3    H227187   5.851   1.740   4.433  0.1551  1.1748 -1.5723
 9075TIP3   OH227188   0.614   0.138   0.737 -0.4491  0.2649  0.2851
 9075TIP3    H127189   0.542   0.128   0.800 -0.5112 -0.4830  0.1063
 9075TIP3    H227190   0.693   0.135   0.790 -0.5595  1.6647  0.5491
 9076TIP3   OH227191   5.695   1.850   0.361 -0.1280 -0.2380  0.0173
 9076TIP3    H127192   5.629   1.811   0.304  0.6719 -1.6567 -0.0040
 9076TIP3    H227193   5.646   1.905   0.421 -1.1850 -0.2434 -0.8168
 9077TIP3   OH227194   2.776   0.754   5.721 -0.8651  0.2379 -0.2101
 9077TIP3    H127195   2.711   0.787   5.783 -2.0280 -1.5125 -0.4346
 9077TIP3    H227196   2.727   0.739   5.640  0.3000  0.9213 -1.0734
 9078TIP3   OH227197   6.408   1.558   1.570 -0.1616  0.1293  0.2041
 9078TIP3    H127198   6.324   1.574   1.526 -0.1101 -0.4244 -0.1092
 9078TIP3    H227199   6.472   1.557   1.499 -0.1666 -1.4714  0.1743
 9079TIP3   OH227200   5.501   3.644   2.161 -0.4778 -0.3964  0.3293
 9079TIP3    H127201   5.527   3.689   2.080 -0.3213  1.3715  1.3106
 9079TIP3    H227202   5.405   3.644   2.158 -0.6072  2.5501  1.5570
 9080TIP3   OH227203   1.250   4.937   3.680  0.2422 -0.0384 -0.5070
 9080TIP3    H127204   1.274   5.020   3.723 -0.1723  1.1787 -2.4974
 9080TIP3    H227205   1.334   4.896   3.660  0.4589 -1.1849  2.3296
 9081TIP3   OH227206   1.798   4.833   1.333 -0.4179  0.0973 -0.1827
 9081TIP3    H127207   1.774   4.908   1.387 -0.9945  0.0069 -0.3081
 9081TIP3    H227208   1.832   4.871   1.252 -1.1391  0.2283 -0.4334
 9082TIP3   OH227209   0.430   2.573   3.240 -0.1802  0.3151 -0.3026
 9082TIP3    H127210   0.501   2.618   3.286 -0.2222  2.0878 -1.8435
 9082TIP3    H227211   0.352   2.590   3.294  0.3941 -1.1917  1.1102
 9083TIP3   OH227212   6.711   5.722   4.979 -1.0251 -0.1155 -0.0655
 9083TIP3    H127213   6.716   5.627   4.992 -1.0283  0.0103  0.9148
 9083TIP3    H227214   6.694   5.732   4.885 -2.0032 -1.1153 -0.0212
 9084TIP3   OH227215   1.616   4.566   0.674 -0.5316 -0.1540 -0.3040
 9084TIP3    H127216   1.670   4.490   0.695 -2.0139 -0.9673  0.7324
 9084TIP3    H227217   1.604   4.561   0.579  0.0699 -0.7146 -0.3576
 9085TIP3   OH227218   0.395   4.180   3.592 -0.1684 -0.0635  0.0920
 9085TIP3    H127219   0.331   4.119   3.557  0.0037 -0.0221 -0.3014
 9085TIP3    H227220   0.348   4.262   3.602 -0.0881  0.0667 -0.5460
 9086TIP3   OH227221   6.183   2.576   2.604  0.3367  0.0337 -0.2469
 9086TIP3    H127222   6.256   2.522   2.575  1.8481  0.7175  2.0105
 9086TIP3    H227223   6.223   2.655   2.640 -1.5540  0.7228  0.5169
 9087TIP3   OH227224   2.601   4.264   4.042 -0.4080  0.4852  0.1729
 9087TIP3    H127225   2.666   4.331   4.061 -0.6240  0.1115  2.5246
 9087TIP3    H227226   2.652   4.187   4.016  0.0221  0.6064  0.6469
 9088TIP3   OH227227   6.500   6.692   2.636 -0.3084 -0.1953 -0.0877
 9088TIP3    H127228   6.520   6.781   2.667 -1.1307 -0.0516  0.0470
 9088TIP3    H227229   6.541   6.635   2.702 -0.9837  0.1006  0.6094
 9089TIP3   OH227230   3.833   0.946   1.311 -0.4806 -1.0109  0.3822
 9089TIP3    H127231   3.840   0.949   1.406  1.0612 -2.6406  0.3786
 9089TIP3    H227232   3.811   1.035   1.285 -0.9703 -0.5433  2.2469
 9090TIP3   OH227233   0.115   3.624   4.236  0.2059 -0.0816 -0.2104
 9090TIP3    H127234   0.035   3.671   4.210  1.0041  1.4795  0.0155
 9090TIP3    H227235   0.144   3.670   4.315  2.2592  0.5289 -1.2531
 9091TIP3   OH227236   5.400   4.197   0.519  0.0372  0.2059 -0.0933
 9091TIP3    H127237   5.422   4.244   0.599  1.8668 -1.6967  0.6024
 9091TIP3    H227238   5.336   4.254   0.475  1.2515  2.7703  1.2088
 9092TIP3   OH227239   6.436   5.047   1.302 -0.1653 -0.2164 -0.3940
 9092TIP3    H127240   6.448   4.960   1.264 -1.0743 -1.0346  1.1083
 9092TIP3    H227241   6.362   5.085   1.255 -2.7760 -2.1141  1.8956
 9093TIP3   OH227242   2.048   2.914   3.889  0.1108 -0.0450 -0.7210
 9093TIP3    H127243   2.101   2.841   3.857  1.9063  0.8297  0.1168
 9093TIP3    H227244   1.959   2.895   3.859  0.5990 -2.3791 -0.8022
 9094TIP3   OH227245   1.663   4.707   2.105  0.7528  0.0907 -0.0966
 9094TIP3    H127246   1.600   4.708   2.178 -0.1971  1.0649 -0.8986
 9094TIP3    H227247   1.743   4.743   2.143  0.7727 -0.9056  0.8731
 9095TIP3   OH227248   5.084   1.111   4.428  0.0018  0.2369 -0.9309
 9095TIP3    H127249   4.997   1.073   4.417 -0.4721  0.9513  0.2105
 9095TIP3    H227250   5.144   1.042   4.398 -0.8817 -0.9525 -0.0548
 9096TIP3   OH227251   3.434   3.627   2.286 -0.0436 -0.1121  0.3446
 9096TIP3    H127252   3.480   3.562   2.232  1.7855  2.1607 -0.9982
 9096TIP3    H227253   3.374   3.670   2.227  1.4222  1.8796  0.2128
 9097TIP3   OH227254   2.664   1.848   4.656 -0.3450 -0.2346  0.4923
 9097TIP3    H127255   2.675   1.886   4.743 -0.3247  0.7283  0.0828
 9097TIP3    H227256   2.748   1.865   4.612 -1.4929  2.4368 -0.8746
 9098TIP3   OH227257   6.179   1.718   2.197 -0.4014 -0.8181  0.1290
 9098TIP3    H127258   6.258   1.667   2.182 -0.0048 -0.9932  2.4310
 9098TIP3    H227259   6.109   1.653   2.205 -0.7408 -0.6876 -1.4683
 9099TIP3   OH227260   1.530   3.070   2.984 -0.4224  0.3205 -0.2819
 9099TIP3    H127261   1.539   2.998   2.922  0.5273  0.8010 -0.7188
 9099TIP3    H227262   1.619   3.087   3.014 -0.5806  1.5671 -0.4685
 9100TIP3   OH227263   0.350   1.625   4.217  0.9145  0.2104  0.4804
 9100TIP3    H127264   0.414   1.696   4.219  1.2814 -0.1284  1.2249
 9100TIP3    H227265   0.381   1.566   4.149  0.2457  1.0710 -0.6172
 9101TIP3   OH227266   1.224   2.149   4.571 -0.3631  0.2674  0.1634
 9101TIP3    H127267   1.152   2.121   4.514 -1.1695 -0.7472  1.5923
 9101TIP3    H227268   1.190   2.227   4.616 -0.4507 -0.0024  0.5741
 9102TIP3   OH227269   0.323   0.203   1.541 -0.2489 -0.0028  0.5515
 9102TIP3    H127270   0.365   0.280   1.578  0.0376  0.0789  0.0663
 9102TIP3    H227271   0.307   0.225   1.449 -1.2351 -0.0861  0.6936
 9103TIP3   OH227272   5.559   4.034   0.784 -0.2785  0.5560 -0.0721
 9103TIP3    H127273   5.641   4.070   0.819  0.0027  0.4718 -0.6246
 9103TIP3    H227274   5.507   4.111   0.760 -0.2094  0.6077 -0.0560
 9104TIP3   OH227275   6.465   2.845   0.594 -0.4675  1.1201  0.3803
 9104TIP3    H127276   6.558   2.853   0.615 -0.0863 -0.0597 -0.6937
 9104TIP3    H227277   6.431   2.784   0.659  0.4672 -1.6526 -1.4947
 9105TIP3   OH227278   1.472   5.274   1.446 -0.1012 -0.0830 -0.1122
 9105TIP3    H127279   1.389   5.299   1.486 -0.2563  1.1639 -1.1520
 9105TIP3    H227280   1.539   5.297   1.511 -0.6039 -2.4063  1.3339
 9106TIP3   OH227281   3.625   5.013   5.446  0.6981  0.2370 -0.2046
 9106TIP3    H127282   3.649   5.085   5.504  0.3881 -0.3585  0.6909
 9106TIP3    H227283   3.683   4.941   5.470 -0.1301 -0.3485  0.1079
 9107TIP3   OH227284   1.980   0.999   4.899 -0.1957  0.4479  0.0094
 9107TIP3    H127285   1.967   0.909   4.930 -0.4006  0.6016  0.3731
 9107TIP3    H227286   2.025   1.043   4.971 -2.1556  1.2491  0.8051
 9108TIP3   OH227287   1.781   2.309   1.537 -0.3627 -0.3984 -0.5575
 9108TIP3    H127288   1.709   2.371   1.548 -0.7780 -1.1839  1.6360
 9108TIP3    H227289   1.741   2.231   1.499 -0.8246 -1.0145  1.1142
 9109TIP3   OH227290   4.445   0.536   2.560  0.1752 -0.0058 -0.2489
 9109TIP3    H127291   4.417   0.528   2.651  1.0355 -2.3016 -0.1346
 9109TIP3    H227292   4.368   0.512   2.509 -0.0964  0.5994 -0.1385
 9110TIP3   OH227293   4.380   0.268   2.760  0.1135 -0.4851  0.0230
 9110TIP3    H127294   4.353   0.343   2.813  0.4587 -1.1565  1.1876
 9110TIP3    H227295   4.470   0.252   2.787  0.0298 -1.3412 -0.1917
 9111TIP3   OH227296   5.934   0.046   3.974  0.0634 -0.0046 -0.6142
 9111TIP3    H127297   5.945   0.043   4.069  0.7682 -0.3480 -0.7015
 9111TIP3    H227298   5.841   0.025   3.960  0.2494 -1.2529 -0.0764
 9112TIP3   OH227299   6.942   6.297   1.796  0.5141 -0.0366  0.1068
 9112TIP3    H127300   6.950   6.204   1.819 -1.4946 -0.3132 -0.0964
 9112TIP3    H227301   6.944   6.343   1.880 -0.0675 -0.4256  0.3415
 9113TIP3   OH227302   1.638   1.569   5.207  0.1198 -0.1351  0.1732
 9113TIP3    H127303   1.545   1.552   5.225  0.2153 -1.5751 -0.5814
 9113TIP3    H227304   1.640   1.597   5.116  0.4070  0.1530  0.2659
 9114TIP3   OH227305   3.132   2.013   4.953  0.0791  0.0260 -0.3479
 9114TIP3    H127306   3.184   2.091   4.932 -1.3720  0.8812 -0.8915
 9114TIP3    H227307   3.086   2.037   5.033 -0.7760 -0.0649 -0.8059
 9115TIP3   OH227308   6.113   3.828   1.873 -0.4274  0.0991  0.4850
 9115TIP3    H127309   6.130   3.757   1.935  1.4990 -1.4889 -1.6686
 9115TIP3    H227310   6.182   3.892   1.889 -0.1403 -0.1443  0.2346
 9116TIP3   OH227311   4.255   5.332   0.696 -0.1641 -0.4051 -0.0805
 9116TIP3    H127312   4.255   5.285   0.613 -0.5319  1.0187 -0.9239
 9116TIP3    H227313   4.290   5.418   0.674 -0.2187 -0.0251  1.2606
 9117TIP3   OH227314   6.340   3.220   2.951 -0.0369 -0.5164 -0.6173
 9117TIP3    H127315   6.289   3.154   2.998 -1.1890  0.3116 -0.6930
 9117TIP3    H227316   6.316   3.303   2.991 -0.1058  0.0729 -1.8365
 9118TIP3   OH227317   5.805   5.934   2.800  0.0530  0.0775  0.1726
 9118TIP3    H127318   5.893   5.968   2.783 -0.7433  1.1557 -2.1400
 9118TIP3    H227319   5.747   6.007   2.781 -1.5388 -1.5875 -1.8591
 9119TIP3   OH227320   6.074   3.195   0.898 -0.3180 -0.1005 -0.5183
 9119TIP3    H127321   6.095   3.191   0.992 -0.1148 -2.1588 -0.5976
 9119TIP3    H227322   5.981   3.214   0.895 -0.7575 -1.9519  0.2008
 9120TIP3   OH227323   0.550   5.671   2.446  0.0536 -0.0724 -0.0113
 9120TIP3    H127324   0.600   5.639   2.370  0.0299  0.3296 -0.1991
 9120TIP3    H227325   0.601   5.745   2.478 -0.5357  0.4896 -0.3470
 9121TIP3   OH227326   1.418   2.152   0.248  0.6318  0.1251 -0.1172
 9121TIP3    H127327   1.374   2.118   0.326 -1.7780 -1.0567 -1.8653
 9121TIP3    H227328   1.504   2.111   0.249 -0.5064 -2.4776  0.3129
 9122TIP3   OH227329   2.886   1.243   2.520 -0.1784  0.4144 -0.2327
 9122TIP3    H127330   2.837   1.315   2.557 -1.8151 -0.4663 -0.5919
 9122TIP3    H227331   2.978   1.271   2.525 -0.5662  1.4875  1.8047
 9123TIP3   OH227332   3.840   2.121   1.709  0.1688  0.0905 -0.0261
 9123TIP3    H127333   3.790   2.129   1.790 -0.0799 -0.3785 -0.1286
 9123TIP3    H227334   3.809   2.193   1.654 -0.5253 -0.2853 -0.1500
 9124TIP3   OH227335   3.504   5.765   5.322 -0.1460  0.5225  0.0535
 9124TIP3    H127336   3.523   5.702   5.252  0.3693  0.6512  0.0721
 9124TIP3    H227337   3.589   5.802   5.344 -0.3645  0.7798  0.4699
 9125TIP3   OH227338   6.316   3.155   0.749  0.1086 -0.3562  0.1694
 9125TIP3    H127339   6.259   3.161   0.673 -1.7824  0.4665  1.5770
 9125TIP3    H227340   6.269   3.201   0.819  3.1456  1.7716  1.0639
 9126TIP3   OH227341   4.493   0.114   3.294 -0.3414  0.1261  0.2285
 9126TIP3    H127342   4.497   0.060   3.373  1.1649  0.2395  0.2627
 9126TIP3    H227343   4.452   0.058   3.228 -0.0351 -0.5813  0.6277
 9127TIP3   OH227344   3.312  -0.014   5.472  0.5124 -0.6053  0.1006
 9127TIP3    H127345   3.334   0.067   5.519  0.3449 -0.4610 -0.0679
 9127TIP3    H227346   3.383  -0.024   5.408  0.9968 -1.0596  0.7015
 9128TIP3   OH227347   4.131   1.924   3.894  0.7180  0.1210  0.7284
 9128TIP3    H127348   4.061   1.960   3.838 -0.1294  0.9064  2.2193
 9128TIP3    H227349   4.157   1.843   3.851  0.2322  0.7861 -0.8943
 9129TIP3   OH227350   1.676   4.274   5.596 -0.5603 -0.4641  0.2883
 9129TIP3    H127351   1.709   4.261   5.506  0.0677 -0.5149  0.5178
 9129TIP3    H227352   1.581   4.274   5.587 -0.5441 -1.7440 -0.2174
 9130TIP3   OH227353   4.506   2.849  -0.002 -0.7257  0.2152  0.8067
 9130TIP3    H127354   4.429   2.808  -0.041  0.1007  0.0791 -0.7976
 9130TIP3    H227355   4.551   2.778   0.044 -0.3609 -0.2532 -0.2390
 9131TIP3   OH227356   6.240   5.059   2.898  0.4150 -0.3013 -0.4429
 9131TIP3    H127357   6.181   5.041   2.971  0.4182  2.3906  0.3484
 9131TIP3    H227358   6.193   5.028   2.821 -1.1310 -0.1180  0.3793
 9132TIP3   OH227359   2.078   6.718   5.118  0.0634  0.0668  0.1887
 9132TIP3    H127360   2.101   6.628   5.142 -0.4736 -0.2863 -0.5551
 9132TIP3    H227361   2.116   6.730   5.031  1.3979  1.0860  0.8740
 9133TIP3   OH227362   1.678   1.688   4.969 -0.1963  0.4392 -0.3795
 9133TIP3    H127363   1.751   1.648   4.921  0.2624 -0.4267  0.9656
 9133TIP3    H227364   1.607   1.693   4.906  0.5861 -0.0344 -1.3245
 9134TIP3   OH227365   0.970   6.614   2.829  0.4791  0.1325  0.0595
 9134TIP3    H127366   0.966   6.521   2.850 -0.8876 -0.0973 -1.0957
 9134TIP3    H227367   0.911   6.625   2.754  0.7933  1.8835  0.0216
 9135TIP3   OH227368   2.758   0.048   5.832  0.3273  0.2372 -0.0881
 9135TIP3    H127369   2.757   0.082   5.742 -1.1881 -0.8286 -0.5243
 9135TIP3    H227370   2.818   0.105   5.879 -1.0751  2.7055 -1.0958
 9136TIP3   OH227371   4.259   6.244   3.098  0.4660 -0.2306  0.0711
 9136TIP3    H127372   4.176   6.200   3.116 -1.0588  2.5187  0.2143
 9136TIP3    H227373   4.324   6.173   3.099 -1.6258 -2.2825  1.4356
 9137TIP3   OH227374   5.441   2.075   0.830 -0.2000  0.0951 -0.0091
 9137TIP3    H127375   5.400   2.161   0.828 -1.6925 -0.5601  0.7560
 9137TIP3    H227376   5.445   2.048   0.738 -0.2804  0.7242 -0.2001
 9138TIP3   OH227377   1.607   5.007   2.740  0.1551 -0.7957  0.0479
 9138TIP3    H127378   1.552   5.046   2.672 -0.9791 -1.9594  0.2372
 9138TIP3    H227379   1.591   5.061   2.817 -2.1969 -2.0850  0.5834
 9139TIP3   OH227380   3.915   4.215   0.465 -0.3442 -0.3277 -0.2089
 9139TIP3    H127381   3.855   4.162   0.412 -0.2449  0.2828 -0.9507
 9139TIP3    H227382   3.941   4.287   0.407  3.7292 -2.3013 -1.1294
 9140TIP3   OH227383   5.604   1.402   4.086  0.0415  0.2293  0.2088
 9140TIP3    H127384   5.527   1.441   4.126 -0.4885 -0.6003  0.0348
 9140TIP3    H227385   5.657   1.373   4.160  0.5774  1.4978  0.3443
 9141TIP3   OH227386   3.257   6.398   1.326  0.0417  0.0143  0.2303
 9141TIP3    H127387   3.304   6.377   1.245 -1.1230 -0.7172 -0.2903
 9141TIP3    H227388   3.269   6.322   1.382  1.5795  0.8712  1.1430
 9142TIP3   OH227389   2.613   4.559   3.185  0.6159 -0.0614  0.3407
 9142TIP3    H127390   2.540   4.591   3.131  0.7602  1.0160  0.7663
 9142TIP3    H227391   2.572   4.528   3.265  0.4726 -1.0253 -0.0858
 9143TIP3   OH227392   3.558   3.140   0.862 -0.2057  0.1838  0.2363
 9143TIP3    H127393   3.609   3.221   0.858  1.9766 -1.1334 -0.6033
 9143TIP3    H227394   3.521   3.138   0.950 -0.6920  2.2861  0.1171
 9144TIP3   OH227395   0.978   4.801   1.179  0.7650  0.2873  0.7316
 9144TIP3    H127396   1.026   4.734   1.226  1.2944 -1.0630 -1.5887
 9144TIP3    H227397   1.038   4.831   1.111 -0.4342  1.1517 -0.0026
 9145TIP3   OH227398   0.410   6.286   3.640  0.0324  0.1413 -0.5301
 9145TIP3    H127399   0.368   6.332   3.712 -0.4085 -1.0132 -0.0152
 9145TIP3    H227400   0.343   6.280   3.572 -0.4090 -1.0221 -0.0116
 9146TIP3   OH227401   5.807   3.159   1.216  0.0577  0.2455  0.0507
 9146TIP3    H127402   5.779   3.227   1.277 -2.6334 -0.0003 -0.8175
 9146TIP3    H227403   5.727   3.113   1.191  1.2071 -0.5605 -2.5811
 9147TIP3   OH227404   3.667   6.220   4.160 -0.2878  0.3644 -0.0010
 9147TIP3    H127405   3.598   6.286   4.169  0.9631  1.6001  0.8941
 9147TIP3    H227406   3.734   6.262   4.107  0.8145  0.0888  1.1219
 9148TIP3   OH227407   5.321   3.216   4.232  0.0722 -0.4858  0.2943
 9148TIP3    H127408   5.243   3.209   4.176  0.1280 -1.0057  0.2752
 9148TIP3    H227409   5.286   3.245   4.317  0.0642  0.9214 -0.1724
 9149TIP3   OH227410   6.415   5.155   5.019 -0.3891  0.2816  0.5487
 9149TIP3    H127411   6.493   5.205   4.993 -0.4521  0.0682 -0.0580
 9149TIP3    H227412   6.442   5.108   5.098  0.7203 -1.2760 -0.7034
 9150TIP3   OH227413   1.666   3.220   1.600 -0.2086  0.1427 -0.0507
 9150TIP3    H127414   1.592   3.281   1.595  0.9793  1.5796 -2.5039
 9150TIP3    H227415   1.731   3.266   1.654  0.1801  0.4990 -0.8000
 9151TIP3   OH227416   3.152   6.781   0.458  0.0263  0.4670 -0.4939
 9151TIP3    H127417   3.061   6.788   0.429 -0.2550  1.6572  0.6282
 9151TIP3    H227418   3.160   6.690   0.486 -0.8578  0.3889 -0.4558
 9152TIP3   OH227419   5.046   2.314   5.565 -0.0021  0.2628 -0.2988
 9152TIP3    H127420   5.132   2.280   5.590  0.2031  1.8057  1.3462
 9152TIP3    H227421   5.045   2.403   5.601 -2.2151  0.3509 -0.4587
 9153TIP3   OH227422   2.644   5.199   2.840  0.2376 -0.6268 -0.2718
 9153TIP3    H127423   2.723   5.153   2.809  0.3078 -0.6379 -0.0782
 9153TIP3    H227424   2.666   5.227   2.928  0.9957  1.6827 -1.1351
 9154TIP3   OH227425   7.092   0.555   4.972 -0.8943 -0.1870  0.1025
 9154TIP3    H127426   7.110   0.608   5.050 -0.5497  0.8435 -0.6477
 9154TIP3    H227427   7.000   0.532   4.980 -0.7590 -0.4448  1.0181
 9155TIP3   OH227428   3.751   1.576   4.837  0.0484  0.9935 -0.2939
 9155TIP3    H127429   3.745   1.672   4.836 -0.5394  0.9547 -1.3254
 9155TIP3    H227430   3.680   1.548   4.893 -0.3372  1.1341 -0.7050
 9156TIP3   OH227431   4.611   5.240   2.365 -0.5582 -0.0835  0.4353
 9156TIP3    H127432   4.697   5.260   2.329  0.2052 -0.7628  1.8021
 9156TIP3    H227433   4.623   5.156   2.410 -1.7212  0.2149  1.3439
 9157TIP3   OH227434   7.059   0.394   1.712 -1.4080 -0.5721 -0.3113
 9157TIP3    H127435   7.105   0.475   1.735 -0.4573 -0.1776 -3.2894
 9157TIP3    H227436   6.972   0.404   1.752 -1.1193  1.6523 -0.1244
 9158TIP3   OH227437   3.204   4.282   2.525  0.0979 -0.0312 -0.1407
 9158TIP3    H127438   3.151   4.255   2.599 -1.9210  1.7079 -0.8617
 9158TIP3    H227439   3.148   4.270   2.449  0.7004  1.8046 -0.9508
 9159TIP3   OH227440   4.418   0.626   4.764 -0.3913  0.0451  0.4994
 9159TIP3    H127441   4.473   0.553   4.735  1.7038  1.7510 -0.1129
 9159TIP3    H227442   4.471   0.704   4.746 -1.4083  1.5950  3.5669
 9160TIP3   OH227443   6.436   4.110   0.704  0.8749 -0.2341  0.1635
 9160TIP3    H127444   6.467   4.022   0.680  0.2868 -0.1386 -1.0442
 9160TIP3    H227445   6.367   4.094   0.768  1.5997 -0.5699  0.8948
 9161TIP3   OH227446   2.972   0.182   5.442  0.3849  0.0900  0.2451
 9161TIP3    H127447   2.956   0.223   5.357 -1.4180 -0.5868  0.2187
 9161TIP3    H227448   3.018   0.249   5.492 -0.0837  1.1457 -0.6812
 9162TIP3   OH227449   5.517   5.800   4.433  0.3437  0.0703  0.3537
 9162TIP3    H127450   5.453   5.858   4.476 -0.1339 -1.5434  1.9423
 9162TIP3    H227451   5.486   5.792   4.343 -0.7746  0.5956  0.6761
 9163TIP3   OH227452   6.967   1.048   2.743 -0.7483 -0.0688 -0.2867
 9163TIP3    H127453   6.913   1.112   2.697 -0.4786  0.3720  0.0053
 9163TIP3    H227454   6.904   0.986   2.780 -0.9618 -0.5679 -1.4305
 9164TIP3   OH227455   4.876   1.412   4.644 -0.8290 -0.0385 -0.2789
 9164TIP3    H127456   4.951   1.464   4.615 -0.5765  0.7036  1.5840
 9164TIP3    H227457   4.801   1.453   4.602 -0.4266  0.5865 -0.3959
 9165TIP3   OH227458   0.353   4.083   2.798  0.1519  0.1469  0.2030
 9165TIP3    H127459   0.280   4.115   2.744 -1.1281  1.2291  2.4204
 9165TIP3    H227460   0.381   4.003   2.754 -1.4541  0.4371 -1.5099
 9166TIP3   OH227461   3.059   4.471   2.211  0.0501 -0.2520  0.0555
 9166TIP3    H127462   3.006   4.451   2.288  3.1180  1.7032  2.9280
 9166TIP3    H227463   3.118   4.396   2.202 -0.8631 -0.8720 -1.0111
 9167TIP3   OH227464   1.443   3.697   3.415 -0.2171 -0.2205  0.3428
 9167TIP3    H127465   1.413   3.714   3.505  1.4719 -0.6607  1.0171
 9167TIP3    H227466   1.480   3.780   3.386 -2.0234  0.3338 -0.5053
 9168TIP3   OH227467   5.863   5.893   1.462  0.2901 -0.1872 -0.0186
 9168TIP3    H127468   5.792   5.851   1.509  0.0164  0.0995 -0.1750
 9168TIP3    H227469   5.872   5.843   1.381  0.2941 -0.2489  0.0203
 9169TIP3   OH227470   2.232   4.014   4.252 -0.1749 -0.2564 -0.3647
 9169TIP3    H127471   2.253   4.016   4.158 -0.7394 -1.1383 -0.5312
 9169TIP3    H227472   2.143   4.050   4.257 -0.9077 -1.9271 -0.4402
 9170TIP3   OH227473   6.019   2.565   3.914 -0.5992  0.3924  0.1048
 9170TIP3    H127474   5.967   2.645   3.922 -1.4253 -0.1602  0.3589
 9170TIP3    H227475   6.090   2.589   3.853  1.1689  2.3259  2.7138
 9171TIP3   OH227476   1.893   5.032   1.684  0.3603  0.1933  0.2298
 9171TIP3    H127477   1.936   4.953   1.717  0.5025 -0.8879 -2.3277
 9171TIP3    H227478   1.958   5.073   1.628 -0.8180  0.3046 -1.1097
 9172TIP3   OH227479   0.660   5.963   3.923 -0.2538  0.0936 -0.4120
 9172TIP3    H127480   0.602   5.943   3.849  1.4395 -0.1078 -1.7434
 9172TIP3    H227481   0.714   6.036   3.893 -0.5450  1.0317  1.2267
 9173TIP3   OH227482   3.560   5.354   4.612 -0.0090  0.6312  0.3548
 9173TIP3    H127483   3.467   5.378   4.607  0.3748  2.1307 -0.4023
 9173TIP3    H227484   3.563   5.279   4.670 -1.9671 -0.9047 -1.3768
 9174TIP3   OH227485   6.801   4.370   4.073  0.1048  0.2964 -0.1454
 9174TIP3    H127486   6.833   4.460   4.080 -0.1784  0.3573  0.3554
 9174TIP3    H227487   6.824   4.344   3.984  0.2732  0.8318 -0.2621
 9175TIP3   OH227488   5.245   4.965   3.803 -0.7370  0.2442  0.3959
 9175TIP3    H127489   5.168   4.913   3.782  1.3738 -2.3381 -1.5411
 9175TIP3    H227490   5.301   4.906   3.853  2.2382  0.0419 -2.8252
 9176TIP3   OH227491   5.551   1.745   3.660  0.1401 -0.3959 -0.0722
 9176TIP3    H127492   5.563   1.706   3.574 -2.3525 -2.3149  0.3583
 9176TIP3    H227493   5.616   1.702   3.715 -0.4919 -1.6592 -0.2936
 9177TIP3   OH227494   6.481   4.662   4.763  0.3244  0.6144 -0.1467
 9177TIP3    H127495   6.390   4.684   4.743 -0.7061 -0.8571  2.4212
 9177TIP3    H227496   6.494   4.575   4.726  1.3558  1.4959 -2.0486
 9178TIP3   OH227497   4.107   6.732   3.263  0.7154 -0.7627 -0.4658
 9178TIP3    H127498   4.115   6.752   3.357 -0.3044 -1.1036 -0.2986
 9178TIP3    H227499   4.103   6.637   3.260  0.5207 -0.7402 -0.8416
 9179TIP3   OH227500   1.833   2.826   4.792 -0.6616  0.5834 -0.5850
 9179TIP3    H127501   1.859   2.749   4.742 -0.6026 -1.2878  2.1447
 9179TIP3    H227502   1.804   2.889   4.726  2.6188 -0.3693 -3.1940
 9180TIP3   OH227503   5.355   2.897   0.382 -0.4178 -0.2390 -0.4030
 9180TIP3    H127504   5.439   2.942   0.375 -0.4929  0.5769  2.5169
 9180TIP3    H227505   5.363   2.821   0.324  3.2049 -1.3976  1.3087
 9181TIP3   OH227506   0.815   2.003   3.343  0.0441  0.7842  0.7095
 9181TIP3    H127507   0.759   1.927   3.360 -1.1907  1.3337 -0.7225
 9181TIP3    H227508   0.879   2.001   3.414  0.3992 -1.8931  0.4338
 9182TIP3   OH227509   5.450   4.337   0.769 -0.2513 -0.2539 -0.0768
 9182TIP3    H127510   5.491   4.408   0.720  0.3893 -0.0940  0.6606
 9182TIP3    H227511   5.473   4.355   0.860 -0.0177 -1.4531  0.1160
 9183TIP3   OH227512   1.374   3.259   2.396  0.4348  0.6232 -0.3892
 9183TIP3    H127513   1.414   3.178   2.425 -1.6634 -0.6646 -0.8517
 9183TIP3    H227514   1.389   3.262   2.302  0.0574  0.4761 -0.4576
 9184TIP3   OH227515   2.842   3.774   5.831  0.0528  0.9824 -0.0813
 9184TIP3    H127516   2.799   3.851   5.793  0.6609  1.4838  0.2298
 9184TIP3    H227517   2.789   3.753   5.908 -0.9793  0.1746 -0.9611
 9185TIP3   OH227518   4.491   1.055   1.307 -0.0299 -0.1868  0.0077
 9185TIP3    H127519   4.511   1.084   1.219 -2.1028  0.1396 -0.4058
 9185TIP3    H227520   4.557   1.098   1.362 -0.0970  1.4321 -1.1216
 9186TIP3   OH227521   3.937   6.735   1.426  0.4243 -0.9709 -0.1895
 9186TIP3    H127522   3.975   6.682   1.495  1.6044 -0.6924 -0.6034
 9186TIP3    H227523   3.943   6.681   1.347  2.4575  0.0364 -0.8017
 9187TIP3   OH227524   3.023   0.879   4.821  0.0096 -0.0726  0.3459
 9187TIP3    H127525   3.013   0.881   4.726 -0.2423 -0.6302  0.3583
 9187TIP3    H227526   3.028   0.786   4.843 -0.6923  0.0251  0.9509
 9188TIP3   OH227527   5.827   2.831   4.531 -0.1107 -0.1621 -0.2237
 9188TIP3    H127528   5.767   2.796   4.597  0.6254  0.6766  0.9378
 9188TIP3    H227529   5.784   2.911   4.500 -0.1867 -0.2426 -0.3245
 9189TIP3   OH227530   0.872   0.014   3.536 -0.5167  0.2391  0.5033
 9189TIP3    H127531   0.953   0.039   3.581  0.2144  2.0640 -1.6264
 9189TIP3    H227532   0.831   0.097   3.512 -1.4748 -0.6237 -1.0738
 9190TIP3   OH227533   1.211   0.126   1.252  0.2318 -0.7021  0.1900
 9190TIP3    H127534   1.186   0.110   1.343 -0.2018  2.1076  0.6571
 9190TIP3    H227535   1.132   0.109   1.202  0.0295 -0.7385  0.5207
 9191TIP3   OH227536   5.028   4.327   4.250 -0.4069 -0.4971 -0.4647
 9191TIP3    H127537   5.104   4.302   4.197 -0.2165 -0.1344 -0.3647
 9191TIP3    H227538   5.013   4.251   4.306 -1.0812 -1.1933 -1.5493
 9192TIP3   OH227539   5.784   5.623   5.088  0.2495  0.3391 -0.1667
 9192TIP3    H127540   5.842   5.547   5.094 -2.1310 -1.7392 -1.7400
 9192TIP3    H227541   5.793   5.653   4.998 -2.1725 -1.0102 -0.9317
 9193TIP3   OH227542   3.753   2.950   0.867  0.2030 -0.4245 -0.3140
 9193TIP3    H127543   3.673   2.995   0.836  1.0546  0.7483 -0.9052
 9193TIP3    H227544   3.782   2.900   0.791  0.2210 -0.5663 -0.2118
 9194TIP3   OH227545   4.469   6.579   3.497 -0.4921  0.1499 -0.4219
 9194TIP3    H127546   4.426   6.590   3.582  1.3999  1.4933  0.4393
 9194TIP3    H227547   4.444   6.657   3.447 -1.6178 -0.6485 -1.1407
 9195TIP3   OH227548   0.255   3.702   1.601 -0.0321  0.3521  0.1214
 9195TIP3    H127549   0.162   3.690   1.622  0.1911 -1.1260  0.3496
 9195TIP3    H227550   0.277   3.627   1.547  1.0713  0.6371  0.1531
 9196TIP3   OH227551   1.117   2.727   1.866  0.1429  0.1040 -0.1036
 9196TIP3    H127552   1.116   2.816   1.900  4.5725 -0.3253  1.8696
 9196TIP3    H227553   1.126   2.671   1.943  3.0186 -1.4906 -1.4061
 9197TIP3   OH227554   5.580   0.673   1.533  1.0558 -0.0032 -0.7836
 9197TIP3    H127555   5.500   0.722   1.551  2.1284  1.1347  1.2667
 9197TIP3    H227556   5.632   0.731   1.478  1.0748 -0.1173 -0.8866
 9198TIP3   OH227557   1.827   1.896   2.329 -0.2215 -0.0841 -0.0337
 9198TIP3    H127558   1.915   1.893   2.367  0.0361  0.8814 -0.5159
 9198TIP3    H227559   1.807   1.989   2.323 -0.5045 -0.2254 -1.6683
 9199TIP3   OH227560   7.043   0.320   0.800 -0.8100  1.0304 -0.1498
 9199TIP3    H127561   6.965   0.317   0.855 -0.9552 -1.1964 -0.3803
 9199TIP3    H227562   7.013   0.353   0.716 -1.5153  0.2539 -0.2152
 9200TIP3   OH227563   3.773   3.429   3.903 -0.4717  0.3671 -0.3802
 9200TIP3    H127564   3.786   3.368   3.975 -0.0158  0.5613 -0.2959
 9200TIP3    H227565   3.711   3.494   3.937  0.6189  1.1064  0.2364
 9201TIP3   OH227566   2.506   1.083   1.766 -0.0872  0.1491  0.1922
 9201TIP3    H127567   2.542   0.998   1.793  0.0291  0.6431  1.6505
 9201TIP3    H227568   2.580   1.143   1.771 -0.3457  0.4947 -0.1165
 9202TIP3   OH227569   5.431   5.361   3.900 -0.6164  0.3951 -0.1101
 9202TIP3    H127570   5.483   5.429   3.856 -1.3680  0.6579 -0.6115
 9202TIP3    H227571   5.361   5.409   3.944 -0.7840 -0.0071  0.0666
 9203TIP3   OH227572   6.915   4.643   2.640 -0.0336 -0.2449 -0.2866
 9203TIP3    H127573   6.980   4.668   2.705 -0.3192  0.5530 -0.2951
 9203TIP3    H227574   6.833   4.682   2.671 -0.0397  0.7713 -1.4760
 9204TIP3   OH227575   4.946   3.314   4.692 -0.0016  0.0044 -0.5394
 9204TIP3    H127576   4.889   3.241   4.715  1.6749 -1.4338 -0.7285
 9204TIP3    H227577   4.893   3.368   4.634 -1.9496  0.0219  1.1425
 9205TIP3   OH227578   5.464   2.995   4.122  0.6748  0.2957 -0.1084
 9205TIP3    H127579   5.413   3.071   4.148 -1.2844 -0.4161 -1.5898
 9205TIP3    H227580   5.400   2.935   4.082  2.1833 -1.9765  0.6486
 9206TIP3   OH227581   6.595   5.924   2.858  0.2856  0.5423  0.3282
 9206TIP3    H127582   6.605   6.003   2.806  1.1828  1.0334  1.2234
 9206TIP3    H227583   6.611   5.853   2.796 -0.4324  1.0491 -0.4587
 9207TIP3   OH227584   2.654   1.543   2.373  0.1374 -0.1139 -0.0486
 9207TIP3    H127585   2.721   1.553   2.440  0.1561 -0.4607 -0.0135
 9207TIP3    H227586   2.572   1.532   2.421  0.3094 -1.6282 -0.0323
 9208TIP3   OH227587  -0.010   3.036   2.799  0.2175 -0.3793 -0.2370
 9208TIP3    H127588  -0.002   2.967   2.733  1.6519  0.1419 -0.6445
 9208TIP3    H227589   0.079   3.069   2.810 -0.4390  1.4396 -0.0877
 9209TIP3   OH227590   2.807   1.136   2.059 -0.2264 -0.0065  0.3840
 9209TIP3    H127591   2.753   1.071   2.104 -0.3977 -1.5237 -1.8840
 9209TIP3    H227592   2.897   1.106   2.073 -0.3431 -1.2499 -1.3381
 9210TIP3   OH227593   3.222   1.269   3.951 -0.7259  0.4234 -0.7949
 9210TIP3    H127594   3.155   1.268   3.882 -3.3982 -0.1559  1.6150
 9210TIP3    H227595   3.199   1.344   4.005 -0.0675 -0.3939  0.6758
 9211TIP3   OH227596   6.990   5.350   1.522  0.2646 -0.2811  0.1037
 9211TIP3    H127597   7.039   5.424   1.486  0.7958 -0.8817 -0.4532
 9211TIP3    H227598   6.976   5.292   1.447  2.3303 -2.0876  0.9794
 9212TIP3   OH227599   2.874   3.274   3.110 -0.6144 -0.0606  0.4597
 9212TIP3    H127600   2.933   3.264   3.186 -1.6028  1.2668  1.4566
 9212TIP3    H227601   2.788   3.286   3.149 -1.0333  1.4667 -0.8377
 9213TIP3   OH227602   6.125   3.636   3.663  0.2586  0.3400 -0.2585
 9213TIP3    H127603   6.191   3.615   3.728  0.1427 -1.2798 -0.6017
 9213TIP3    H227604   6.115   3.731   3.667  1.7369  0.4827  0.6159
 9214TIP3   OH227605   3.947   1.926   4.651 -0.4355 -0.1688 -0.0173
 9214TIP3    H127606   3.999   1.997   4.687  0.1145 -0.4447 -0.2713
 9214TIP3    H227607   4.008   1.874   4.598 -1.2525  0.2823 -1.4501
 9215TIP3   OH227608   1.465   3.195   3.391 -0.2596  0.4895  0.2784
 9215TIP3    H127609   1.401   3.130   3.423 -0.0735  0.2371  0.1390
 9215TIP3    H227610   1.419   3.240   3.320  0.2374 -0.7418 -0.8781
 9216TIP3   OH227611   5.134   3.293   0.991 -0.1234  0.1292  0.0383
 9216TIP3    H127612   5.213   3.239   1.003  0.1130  0.6755  1.0526
 9216TIP3    H227613   5.147   3.335   0.905 -0.0362 -0.9525 -0.4947
 9217TIP3   OH227614   0.289   0.543   1.261  0.0856  0.1051  0.5302
 9217TIP3    H127615   0.281   0.634   1.232  0.1302  0.4258  1.4701
 9217TIP3    H227616   0.381   0.535   1.287 -0.1654  0.1135  1.4496
 9218TIP3   OH227617   1.960   2.093   3.840 -0.5836 -0.1900 -0.3330
 9218TIP3    H127618   2.040   2.074   3.889 -1.4218 -1.2903  0.6397
 9218TIP3    H227619   1.896   2.029   3.871 -2.2042  1.3905 -0.2221
 9219TIP3   OH227620   1.545   4.288   1.294  0.1946 -0.1454 -0.6064
 9219TIP3    H127621   1.533   4.313   1.385  0.5244 -1.3433 -0.2211
 9219TIP3    H227622   1.492   4.209   1.284  1.6435 -1.1103 -0.9381
 9220TIP3   OH227623   6.328   3.402   0.577 -0.3140 -0.1151 -0.3936
 9220TIP3    H127624   6.261   3.386   0.511 -0.0944 -1.2378 -0.3559
 9220TIP3    H227625   6.385   3.326   0.573  0.9202  0.7773 -0.3550
 9221TIP3   OH227626   0.510   1.418   4.545 -0.2996 -0.4182  0.1062
 9221TIP3    H127627   0.584   1.470   4.575 -0.8549  0.3350  0.1862
 9221TIP3    H227628   0.550   1.336   4.514  0.5706  0.0021  0.0746
 9222TIP3   OH227629   2.207   1.516   0.284 -0.2678 -0.0401  0.0669
 9222TIP3    H127630   2.202   1.579   0.356 -0.3772 -0.8417  0.7651
 9222TIP3    H227631   2.285   1.464   0.303  0.1004  0.1875 -0.7662
 9223TIP3   OH227632   4.625   3.506   2.119  0.0941  0.2639 -0.1352
 9223TIP3    H127633   4.553   3.449   2.145 -0.9039  1.2653 -0.6197
 9223TIP3    H227634   4.609   3.588   2.166 -1.0835  1.7136 -2.8522
 9224TIP3   OH227635   2.910   0.550   3.009 -0.3084 -0.2812 -0.5353
 9224TIP3    H127636   2.949   0.635   2.988 -1.6782 -0.4208 -4.4411
 9224TIP3    H227637   2.916   0.500   2.928 -0.0598 -3.8220  1.4528
 9225TIP3   OH227638   1.870   1.654   4.641 -0.7124 -0.4790  0.2926
 9225TIP3    H127639   1.850   1.571   4.685 -2.1367 -0.3540 -0.0777
 9225TIP3    H227640   1.818   1.651   4.560 -0.7609  0.7723  0.2639
 9226TIP3   OH227641   6.388   0.484   3.932  1.1783 -0.3959 -0.0026
 9226TIP3    H127642   6.360   0.519   3.848 -0.9868 -1.7423  0.0861
 9226TIP3    H227643   6.480   0.460   3.919  1.5522  1.4473 -1.2478
 9227TIP3   OH227644   4.671   5.739   0.156  0.6009  0.1958 -0.3874
 9227TIP3    H127645   4.628   5.789   0.226  2.4720  0.5758  0.5484
 9227TIP3    H227646   4.703   5.660   0.199  3.0592  1.1054 -0.4062
 9228TIP3   OH227647   2.398   2.963   1.630  0.4827 -0.3345 -0.0364
 9228TIP3    H127648   2.308   2.952   1.600  0.4394  0.8715 -0.4193
 9228TIP3    H227649   2.414   2.887   1.687 -0.5130 -0.9558 -0.5575
 9229TIP3   OH227650   6.483   5.710   0.244  0.5226 -0.6471 -0.3526
 9229TIP3    H127651   6.495   5.615   0.243  0.2860 -0.7052 -2.7070
 9229TIP3    H227652   6.458   5.733   0.155  0.4620  1.6389  0.1710
 9230TIP3   OH227653   4.375   2.416   2.106 -0.4190  0.5451  0.3877
 9230TIP3    H127654   4.284   2.400   2.083 -0.4762  1.3520  0.0243
 9230TIP3    H227655   4.421   2.414   2.022 -0.2108  0.8165  0.4921
 9231TIP3   OH227656   6.170   3.131   4.590  0.1237  0.0698 -0.0177
 9231TIP3    H127657   6.163   3.038   4.569  0.1750  0.1036 -0.1804
 9231TIP3    H227658   6.262   3.153   4.577  0.2303  0.0042  0.5998
 9232TIP3   OH227659   0.272   4.820   5.095  0.3331  0.3782 -0.1610
 9232TIP3    H127660   0.200   4.828   5.159 -0.0365  0.2151 -0.5491
 9232TIP3    H227661   0.233   4.850   5.012  1.1702  1.8212 -0.0704
 9233TIP3   OH227662   1.629   4.542   5.276  0.3384 -0.0333  0.6115
 9233TIP3    H127663   1.559   4.598   5.308 -2.0681 -1.3234 -2.0044
 9233TIP3    H227664   1.634   4.470   5.339 -1.2078 -0.2561  0.5125
 9234TIP3   OH227665   4.731   1.887   0.821  0.1229  0.5688 -0.3166
 9234TIP3    H127666   4.682   1.901   0.901  0.0106  0.5526 -0.3825
 9234TIP3    H227667   4.751   1.793   0.822 -0.0725  0.5254 -0.4183
 9235TIP3   OH227668   7.138   3.607   2.808 -0.2243  0.2993  0.4589
 9235TIP3    H127669   7.075   3.678   2.820 -1.2590 -0.6323  0.7753
 9235TIP3    H227670   7.106   3.559   2.732  0.1584 -0.1258  0.5596
 9236TIP3   OH227671   3.353   5.944   4.143  0.0851 -0.0156  0.8445
 9236TIP3    H127672   3.401   5.940   4.226  0.3329 -1.9622  0.6559
 9236TIP3    H227673   3.397   6.013   4.093  0.2457  0.8351  2.1226
 9237TIP3   OH227674   6.202   2.986   2.073 -0.4435 -0.3260 -0.3082
 9237TIP3    H127675   6.117   3.008   2.035 -0.3486 -1.3944 -1.2154
 9237TIP3    H227676   6.250   2.944   2.001  0.6625 -0.2143  0.3346
 9238TIP3   OH227677   3.734   4.374   2.433 -0.1213  0.0543  0.3499
 9238TIP3    H127678   3.697   4.394   2.519  0.7791  0.0925  0.7483
 9238TIP3    H227679   3.735   4.278   2.429  0.0135  0.0507  0.4639
 9239TIP3   OH227680   0.137   5.848   4.015  0.4197  0.5360  0.1303
 9239TIP3    H127681   0.064   5.871   4.073 -0.9556  0.3543 -1.4425
 9239TIP3    H227682   0.146   5.924   3.958 -0.2919 -0.4326 -1.3419
 9240TIP3   OH227683   4.361   4.277   0.138  0.0780  0.5404  0.0636
 9240TIP3    H127684   4.441   4.296   0.186  1.0764  0.5301 -1.5286
 9240TIP3    H227685   4.390   4.254   0.050 -1.6185 -0.3456 -0.3228
 9241TIP3   OH227686   0.116   0.235   2.280 -0.1459  0.0523 -0.1935
 9241TIP3    H127687   0.099   0.155   2.231 -2.4112  0.1843  0.2832
 9241TIP3    H227688   0.123   0.206   2.371 -0.4723  0.3273 -0.0778
 9242TIP3   OH227689   3.896   5.196   3.737  0.1113 -0.1298  0.4119
 9242TIP3    H127690   3.921   5.284   3.708  0.0798  0.0545  0.9308
 9242TIP3    H227691   3.808   5.206   3.772 -0.1130 -0.4840 -0.0439
 9243TIP3   OH227692   5.779   3.885   0.028  0.7518 -0.2492 -0.2400
 9243TIP3    H127693   5.865   3.927   0.026  1.3929 -1.4865  0.0732
 9243TIP3    H227694   5.752   3.892   0.120  0.3331  0.4872 -0.4167
 9244TIP3   OH227695   1.799   1.138   4.217 -0.0450 -0.2432  0.0688
 9244TIP3    H127696   1.706   1.158   4.203  0.1007  0.1499 -0.3905
 9244TIP3    H227697   1.844   1.221   4.198  0.2151  0.3284  2.8051
 9245TIP3   OH227698   0.466   4.949   3.540  0.5308  0.0865 -0.2457
 9245TIP3    H127699   0.542   4.902   3.575  1.0793  0.2699 -1.1459
 9245TIP3    H227700   0.418   4.977   3.618  1.3269 -0.1315  0.3486
 9246TIP3   OH227701   0.675   2.078   1.446 -0.3170 -0.1804 -0.3383
 9246TIP3    H127702   0.696   2.172   1.443 -1.0302 -0.0075 -0.1068
 9246TIP3    H227703   0.624   2.068   1.526  0.7277 -0.9813  0.2425
 9247TIP3   OH227704   2.126   4.478   1.267 -0.1124 -0.7794  0.0813
 9247TIP3    H127705   2.156   4.390   1.245  0.3246 -1.1494  1.9612
 9247TIP3    H227706   2.201   4.534   1.248 -0.4037 -0.7891 -1.1563
 9248TIP3   OH227707   0.863   4.661   1.895  0.1108 -0.2051 -0.4667
 9248TIP3    H127708   0.771   4.665   1.868 -0.6227 -3.4135  1.0931
 9248TIP3    H227709   0.907   4.615   1.824  0.0975 -0.4756 -0.2988
 9249TIP3   OH227710   0.742   5.290   0.806  0.1041  0.6561 -0.1393
 9249TIP3    H127711   0.758   5.205   0.845  0.1018  0.6651 -0.1187
 9249TIP3    H227712   0.694   5.272   0.725  2.1696  0.4683 -1.3784
 9250TIP3   OH227713   0.735   3.820   3.449  0.6931 -0.4375  0.2715
 9250TIP3    H127714   0.805   3.772   3.493  1.5051  0.8987  0.5022
 9250TIP3    H227715   0.660   3.761   3.451  2.3296 -2.8320 -1.8918
 9251TIP3   OH227716   2.456   5.116   4.149  0.3215  0.4561 -0.0752
 9251TIP3    H127717   2.407   5.172   4.210  0.4673  0.1876  0.2990
 9251TIP3    H227718   2.542   5.107   4.189  1.3297  2.4464 -1.6735
 9252TIP3   OH227719   0.877   6.493   0.788  0.3199  0.1072  0.1602
 9252TIP3    H127720   0.911   6.412   0.828  0.2507 -0.0987 -0.1956
 9252TIP3    H227721   0.924   6.500   0.705  0.1607  0.3158  0.0892
 9253TIP3   OH227722   3.547   2.275   4.195 -0.3269 -0.1896  0.3904
 9253TIP3    H127723   3.526   2.338   4.265  1.7070  1.9995 -0.8121
 9253TIP3    H227724   3.610   2.216   4.235  0.2177  0.5537  0.6591
 9254TIP3   OH227725   6.361   3.531   3.430 -0.7644 -0.5501 -0.1946
 9254TIP3    H127726   6.390   3.525   3.521  2.7288  0.4668 -1.0982
 9254TIP3    H227727   6.336   3.442   3.407 -1.3214 -0.9037  1.6005
 9255TIP3   OH227728   6.086   0.696   0.333  0.1103  0.9941  0.0652
 9255TIP3    H127729   6.177   0.678   0.313 -1.0043 -2.9174 -2.7562
 9255TIP3    H227730   6.055   0.752   0.261 -0.4374 -0.6131 -0.9981
 9256TIP3   OH227731   6.411   2.286   4.532  0.4032 -0.0988 -0.9250
 9256TIP3    H127732   6.417   2.221   4.462 -0.3808  0.4942 -1.5673
 9256TIP3    H227733   6.458   2.362   4.498  0.9702 -0.1909 -0.3469
 9257TIP3   OH227734   1.207   1.844   0.775 -0.0705 -0.2365  0.0065
 9257TIP3    H127735   1.200   1.856   0.680  1.2743  0.2977 -0.0490
 9257TIP3    H227736   1.217   1.933   0.809  1.4722 -0.5427  0.4357
 9258TIP3   OH227737   4.388   2.428   5.052 -0.1345  0.1339 -0.8240
 9258TIP3    H127738   4.420   2.510   5.014 -0.5492  0.9005  0.4466
 9258TIP3    H227739   4.294   2.441   5.062  0.0864  0.3137  1.3010
 9259TIP3   OH227740   5.881   2.999   5.040 -0.0741  0.2295 -0.3339
 9259TIP3    H127741   5.902   3.061   4.970 -0.7407 -0.3013 -1.0259
 9259TIP3    H227742   5.948   2.931   5.032 -1.5276 -1.1017 -2.0892
 9260TIP3   OH227743   4.904   3.107   0.216  0.1386  0.0142  0.3694
 9260TIP3    H127744   4.878   3.045   0.149  1.3225 -0.3885  0.2683
 9260TIP3    H227745   4.918   3.190   0.169  2.5539 -0.6408 -0.2167
 9261TIP3   OH227746   4.765   2.180   0.088  0.2323  0.8512 -0.0185
 9261TIP3    H127747   4.828   2.192   0.160  0.8036  4.1636 -0.8773
 9261TIP3    H227748   4.684   2.220   0.120 -0.4713 -0.4017 -0.1579
 9262TIP3   OH227749   5.066   3.774   1.590 -0.3778 -0.7173  0.3591
 9262TIP3    H127750   5.071   3.730   1.505 -1.7580  0.1223 -0.1970
 9262TIP3    H227751   4.989   3.735   1.633 -0.6605  0.0029  0.5229
 9263TIP3   OH227752   3.996   0.525   3.744  0.5563  0.7102 -0.2668
 9263TIP3    H127753   4.064   0.592   3.750 -0.2047  1.4227  0.5867
 9263TIP3    H227754   3.977   0.519   3.650  2.1889  0.0719 -0.5939
 9264TIP3   OH227755   6.418   6.628   5.222 -0.5268 -0.1572  0.0579
 9264TIP3    H127756   6.367   6.550   5.199 -0.3533  0.0808 -1.2476
 9264TIP3    H227757   6.353   6.698   5.232 -0.5853 -0.2040  0.0024
 9265TIP3   OH227758   5.340   4.580   5.342 -0.0624  0.4073 -0.1723
 9265TIP3    H127759   5.265   4.635   5.366 -0.1443  0.1812  0.0959
 9265TIP3    H227760   5.322   4.496   5.384  1.2236  0.8818  1.4533
 9266TIP3   OH227761   0.388   3.221   3.432  0.1790  0.5838 -0.4170
 9266TIP3    H127762   0.442   3.294   3.465  0.8986  1.0097 -2.3908
 9266TIP3    H227763   0.370   3.168   3.510  1.3202  1.8012  0.7418
 9267TIP3   OH227764   2.907   0.613   1.480  0.5369 -0.0277  0.1822
 9267TIP3    H127765   2.863   0.596   1.563 -1.4065  0.6855 -0.6177
 9267TIP3    H227766   2.945   0.700   1.490  0.8131 -0.1921  0.5323
 9268TIP3   OH227767   0.242   6.564   5.820  0.2302  0.5047  0.7147
 9268TIP3    H127768   0.164   6.591   5.772  0.5891  0.7530  0.2543
 9268TIP3    H227769   0.302   6.639   5.811 -0.0150  0.9222  2.2965
 9269TIP3   OH227770   0.923   4.289   2.603 -0.3293 -0.1238  0.2612
 9269TIP3    H127771   0.837   4.274   2.642 -1.1311  0.6465 -1.1238
 9269TIP3    H227772   0.970   4.206   2.616 -1.8525 -1.1374 -0.3780
 9270TIP3   OH227773   6.528   1.263   1.935  0.2460  0.2528 -0.4519
 9270TIP3    H127774   6.536   1.217   1.852  0.2571  2.0172 -1.4650
 9270TIP3    H227775   6.434   1.280   1.944  0.2328 -0.0232 -0.0532
 9271TIP3   OH227776   0.951   4.151   4.051 -0.4202 -0.1197  0.2108
 9271TIP3    H127777   0.985   4.083   4.110 -0.7666  0.2332  0.8369
 9271TIP3    H227778   1.016   4.158   3.982  0.7749  0.5038  1.3576
 9272TIP3   OH227779   3.061   5.079   0.774  0.4087 -0.5606  0.0582
 9272TIP3    H127780   3.113   5.136   0.832 -2.2147  0.7257  1.2858
 9272TIP3    H227781   3.048   4.999   0.825 -2.0912  0.6548  1.5039
 9273TIP3   OH227782   3.885   4.897   3.641  0.0836  0.0244 -0.0846
 9273TIP3    H127783   3.886   4.992   3.656 -2.2415  0.3672 -1.5068
 9273TIP3    H227784   3.815   4.865   3.698 -0.1600 -0.5957 -0.7214
 9274TIP3   OH227785   3.439   1.530   2.211 -0.3904  0.2917  0.0501
 9274TIP3    H127786   3.346   1.545   2.196 -0.5102 -1.2956 -1.2392
 9274TIP3    H227787   3.469   1.606   2.259 -2.7343  0.0103  2.1847
 9275TIP3   OH227788   0.401   2.626   4.870 -0.1050 -0.2516  0.3666
 9275TIP3    H127789   0.385   2.718   4.891 -2.0410 -0.2308 -0.9817
 9275TIP3    H227790   0.321   2.580   4.898 -0.5932 -0.9753 -1.9988
 9276TIP3   OH227791   2.695   0.848   4.415  0.2491  0.7240  0.2242
 9276TIP3    H127792   2.713   0.941   4.398  1.5870  0.2745 -1.1410
 9276TIP3    H227793   2.643   0.820   4.339  0.0684  0.3014  0.5036
 9277TIP3   OH227794   4.567   6.199   1.192 -0.2562 -0.0395 -0.1706
 9277TIP3    H127795   4.547   6.109   1.219  0.6638  0.0086  0.7324
 9277TIP3    H227796   4.487   6.229   1.148 -0.4082 -1.4487 -0.9176
 9278TIP3   OH227797   6.380   4.007   5.320 -0.3310  0.3651 -0.0377
 9278TIP3    H127798   6.432   3.955   5.381 -0.5662 -0.7518 -0.7563
 9278TIP3    H227799   6.418   4.094   5.325  1.2507 -0.2776 -0.1122
 9279TIP3   OH227800   6.664   6.639   4.678  0.1537 -0.4328  0.0490
 9279TIP3    H127801   6.726   6.670   4.745  0.4628  0.4747 -0.6469
 9279TIP3    H227802   6.584   6.619   4.727  0.6384 -0.5731  0.8053
 9280TIP3   OH227803   4.169   5.340   1.259 -0.3716  0.2957  0.7352
 9280TIP3    H127804   4.221   5.270   1.300 -0.4983  0.7478  1.6947
 9280TIP3    H227805   4.098   5.294   1.214 -0.3362 -0.2108  1.1847
 9281TIP3   OH227806   1.403   2.031   0.495 -0.1182 -0.1685 -0.0365
 9281TIP3    H127807   1.334   1.965   0.480  0.0827 -0.4649  0.3298
 9281TIP3    H227808   1.465   1.988   0.553  0.6709 -0.1065 -0.8048
 9282TIP3   OH227809   5.452   4.597   1.325 -0.3587  0.4751  0.1937
 9282TIP3    H127810   5.487   4.554   1.403 -0.2541  0.3015  0.0516
 9282TIP3    H227811   5.465   4.533   1.255 -2.6438 -0.3644  0.4637
 9283TIP3   OH227812   3.751   3.290   4.522  0.5878 -0.0984  0.0910
 9283TIP3    H127813   3.703   3.273   4.441  0.4283  0.3504  0.0901
 9283TIP3    H227814   3.834   3.244   4.510 -0.4086 -2.1682  0.7066
 9284TIP3   OH227815   0.041   2.516   4.849  0.1534  0.6029 -0.7030
 9284TIP3    H127816   0.109   2.494   4.785 -0.4169  1.4085 -1.5929
 9284TIP3    H227817   0.081   2.584   4.903  0.9208 -0.6076  0.3436
 9285TIP3   OH227818   1.030   3.024   2.090 -0.5739  0.3829  0.4252
 9285TIP3    H127819   1.078   2.952   2.130 -1.8461 -0.4455  0.5061
 9285TIP3    H227820   1.058   3.023   1.998 -0.5045 -0.1557  0.4469
 9286TIP3   OH227821   6.487   2.945   0.147  0.2239  0.2811 -0.4354
 9286TIP3    H127822   6.420   3.006   0.177 -0.3073 -0.8177  0.6865
 9286TIP3    H227823   6.543   2.931   0.224  0.1184 -0.9097 -0.5533
 9287TIP3   OH227824   3.731   4.188   1.423  0.3720 -0.8174 -0.1858
 9287TIP3    H127825   3.779   4.106   1.435 -0.4148 -1.1486  0.8227
 9287TIP3    H227826   3.688   4.203   1.506 -0.5449 -0.0474 -0.7788
 9288TIP3   OH227827   0.928   3.435   5.053  0.2503  0.1917  0.0232
 9288TIP3    H127828   0.921   3.380   5.130  0.9769  0.9481  0.6416
 9288TIP3    H227829   1.020   3.429   5.026  0.4366  1.3701  0.3194
 9289TIP3   OH227830   0.979   1.620   5.173  0.0793  0.2459 -0.3622
 9289TIP3    H127831   0.949   1.659   5.091  0.6037 -1.4541 -1.4061
 9289TIP3    H227832   0.993   1.527   5.153  1.7518  0.0845  1.2321
 9290TIP3   OH227833   6.200   3.518   2.772  0.3653 -0.4754 -0.1828
 9290TIP3    H127834   6.218   3.472   2.854  0.3771  1.2528  0.8293
 9290TIP3    H227835   6.268   3.488   2.712  0.4668 -1.6316  0.4820
 9291TIP3   OH227836   5.157   1.936   1.594  0.7062 -0.0677 -0.0730
 9291TIP3    H127837   5.092   1.871   1.568  1.8650 -1.8094  1.1914
 9291TIP3    H227838   5.139   1.953   1.686  2.7880 -1.6357  0.7169
 9292TIP3   OH227839   6.825   0.371   4.993 -0.0370  0.0514  0.4544
 9292TIP3    H127840   6.796   0.462   5.001 -1.3426 -0.2144 -0.8030
 9292TIP3    H227841   6.764   0.321   5.047 -1.1022 -0.3419 -1.0229
 9293TIP3   OH227842   7.023   1.682   5.067 -1.0399  0.1290  0.1262
 9293TIP3    H127843   7.044   1.595   5.033  0.2478  1.1282 -1.8950
 9293TIP3    H227844   7.108   1.726   5.073 -1.5706  0.9951  1.9460
 9294TIP3   OH227845   5.472   2.426   3.386  0.2643 -0.8855 -0.0218
 9294TIP3    H127846   5.547   2.405   3.329 -0.2529  0.0951 -1.1019
 9294TIP3    H227847   5.486   2.517   3.410 -1.0897 -0.3635 -1.0845
 9295TIP3   OH227848   2.759   1.195   3.704  0.1390  0.7042 -0.3073
 9295TIP3    H127849   2.776   1.232   3.617 -3.2382 -0.4323 -1.6409
 9295TIP3    H227850   2.748   1.271   3.761  0.1925  1.5743 -1.4092
 9296TIP3   OH227851   2.919   0.350   4.508  0.5156 -0.0172 -0.5547
 9296TIP3    H127852   2.996   0.390   4.469  0.0064  1.7416  0.1294
 9296TIP3    H227853   2.861   0.424   4.527 -0.5666 -1.1144  0.5955
 9297TIP3   OH227854   5.027   6.211   1.492 -0.0983  0.4314 -0.1162
 9297TIP3    H127855   4.993   6.301   1.494 -1.7115 -0.1500  1.9332
 9297TIP3    H227856   4.957   6.160   1.451  0.6092 -0.0004 -0.8252
 9298TIP3   OH227857   4.849   1.904   2.098 -0.1340  0.1323 -0.7218
 9298TIP3    H127858   4.788   1.956   2.046 -0.7647 -1.3230 -1.5031
 9298TIP3    H227859   4.800   1.884   2.178 -0.5618 -0.6870 -1.1714
 9299TIP3   OH227860   0.582   6.654   4.746 -0.0604 -0.2094 -0.3482
 9299TIP3    H127861   0.602   6.618   4.660  0.7933 -0.8183  0.0857
 9299TIP3    H227862   0.540   6.739   4.728 -0.0962 -0.4298 -1.3522
 9300TIP3   OH227863   2.681   2.992   4.909 -0.1274  0.1534 -0.3855
 9300TIP3    H127864   2.726   2.977   4.992 -0.7482 -0.0887 -0.0923
 9300TIP3    H227865   2.752   2.997   4.845  0.3385  0.0517  0.1127
 9301TIP3   OH227866   5.743   3.211   3.077 -0.0033  0.2775  0.5635
 9301TIP3    H127867   5.653   3.201   3.046  0.6826 -0.7430 -1.2517
 9301TIP3    H227868   5.738   3.194   3.171 -1.4616 -1.5895  0.2082
 9302TIP3   OH227869   4.402   2.714   0.417 -0.2460  0.3105  0.1800
 9302TIP3    H127870   4.391   2.776   0.345 -1.2415 -1.7082 -1.5214
 9302TIP3    H227871   4.319   2.717   0.464  0.1574  1.1371  0.8546
 9303TIP3   OH227872   1.456   2.338   0.588 -0.2373 -0.3111 -0.0128
 9303TIP3    H127873   1.517   2.287   0.534 -0.8523 -0.4936 -0.5435
 9303TIP3    H227874   1.463   2.300   0.676 -0.9752 -1.5783 -0.4777
 9304TIP3   OH227875   0.580   2.567   5.614  0.0181 -0.1111 -0.1903
 9304TIP3    H127876   0.657   2.568   5.557  1.3495 -1.7330  1.4508
 9304TIP3    H227877   0.614   2.589   5.701 -2.1131  3.3832 -0.0572
 9305TIP3   OH227878   6.678   6.595   0.202  0.3079 -0.8944  0.6256
 9305TIP3    H127879   6.692   6.646   0.123 -0.0791  2.0368  2.2741
 9305TIP3    H227880   6.593   6.553   0.189  0.9121 -1.6963 -1.0341
 9306TIP3   OH227881   5.783   1.726   0.890  0.1321  0.1991  0.0033
 9306TIP3    H127882   5.800   1.809   0.846 -2.8568  1.2110  0.4838
 9306TIP3    H227883   5.721   1.748   0.959 -0.8539 -2.4259  0.0697
 9307TIP3   OH227884   2.742   1.391   1.171  0.0178  0.4112 -0.0204
 9307TIP3    H127885   2.815   1.360   1.224  0.8470  0.7851 -0.9050
 9307TIP3    H227886   2.752   1.486   1.169 -0.9742  0.5399  0.5111
 9308TIP3   OH227887   2.384   6.427   1.524 -0.6312 -0.2403  0.5331
 9308TIP3    H127888   2.411   6.344   1.485 -2.4444 -0.8287  0.4316
 9308TIP3    H227889   2.406   6.492   1.458  2.4636 -0.3201  1.3135
 9309TIP3   OH227890   1.617   3.353   0.881  0.1756 -0.6685  0.1980
 9309TIP3    H127891   1.588   3.423   0.940 -0.5861  0.1729 -1.1178
 9309TIP3    H227892   1.713   3.355   0.886  0.1480  0.1698  0.5177
 9310TIP3   OH227893   5.206   4.365   0.418 -0.5286  0.0189  0.4091
 9310TIP3    H127894   5.168   4.425   0.483  0.1447  0.9599 -0.0465
 9310TIP3    H227895   5.251   4.422   0.356 -0.1293 -0.9501 -0.2136
 9311TIP3   OH227896   6.598   2.481   1.633 -0.4470 -0.3751 -0.3739
 9311TIP3    H127897   6.563   2.459   1.547 -0.6869 -1.1973 -0.0838
 9311TIP3    H227898   6.672   2.421   1.645 -0.0795  0.1023 -0.2288
 9312TIP3   OH227899   0.107   3.206   3.116  0.2072 -0.1483  0.5055
 9312TIP3    H127900   0.087   3.275   3.053  0.4071  0.2062  0.8218
 9312TIP3    H227901   0.114   3.127   3.063  0.7433  0.2064  0.0282
 9313TIP3   OH227902   6.014   6.077   5.633 -0.7378  0.0343 -0.0258
 9313TIP3    H127903   5.979   5.992   5.607  0.4743  0.2427 -2.6508
 9313TIP3    H227904   6.109   6.064   5.639 -0.6288  0.9802  0.5164
 9314TIP3   OH227905   6.775   3.081   3.600 -0.4310  0.0342  0.4828
 9314TIP3    H127906   6.800   3.003   3.551 -1.1047  1.1391 -1.7573
 9314TIP3    H227907   6.847   3.096   3.661  1.7419 -0.0444 -1.8937
 9315TIP3   OH227908   3.731   0.785   2.042  0.2974  0.4493  0.5548
 9315TIP3    H127909   3.714   0.873   2.076 -0.2621  0.4606  0.2553
 9315TIP3    H227910   3.744   0.797   1.948  0.7036  0.2704  0.5854
 9316TIP3   OH227911   5.263   4.147   3.128  0.6817  0.2262  0.3792
 9316TIP3    H127912   5.242   4.054   3.125  1.1795  0.1305 -0.3698
 9316TIP3    H227913   5.245   4.179   3.040  3.5501  0.1420 -0.3312
 9317TIP3   OH227914   3.523   2.077   4.700 -0.5262  0.1039  0.2175
 9317TIP3    H127915   3.574   1.999   4.680  0.4489  0.1320  2.4073
 9317TIP3    H227916   3.581   2.151   4.680 -0.6170  0.2074  0.3295
 9318TIP3   OH227917   3.160   1.462   5.299 -0.2869  0.3256 -0.2680
 9318TIP3    H127918   3.209   1.405   5.358  0.6175 -0.1424 -1.4329
 9318TIP3    H227919   3.099   1.403   5.254 -0.7534  0.6242 -0.0289
 9319TIP3   OH227920   6.430   6.790   3.198 -0.0002  0.4641 -0.2218
 9319TIP3    H127921   6.418   6.747   3.283 -1.4130  1.5891  0.1999
 9319TIP3    H227922   6.520   6.770   3.173  0.1465 -0.6665  1.0939
 9320TIP3   OH227923   1.405   3.490   3.951  0.0510  0.6149 -0.0385
 9320TIP3    H127924   1.310   3.487   3.959  0.1202  0.7199  0.9391
 9320TIP3    H227925   1.423   3.452   3.864 -0.7826 -1.1170  0.4905
 9321TIP3   OH227926   4.587   2.912   4.210 -0.2995  0.6090  0.0624
 9321TIP3    H127927   4.653   2.880   4.271 -0.2987  0.9958  0.2719
 9321TIP3    H227928   4.558   2.835   4.162  0.9380  0.5723 -0.6574
 9322TIP3   OH227929   0.064   3.669   5.060  0.4873 -0.0193  0.0787
 9322TIP3    H127930   0.118   3.620   4.998  1.9979  0.3927  0.9961
 9322TIP3    H227931   0.042   3.750   5.013 -1.8647 -1.3935 -1.3705
 9323TIP3   OH227932   5.811   4.786   3.702 -0.0887  0.3604  0.2015
 9323TIP3    H127933   5.860   4.823   3.629 -1.1334  1.4102 -0.0083
 9323TIP3    H227934   5.774   4.863   3.747 -2.2119 -0.3769 -0.1469
 9324TIP3   OH227935   2.461   6.229   1.331 -0.1159  0.4570 -0.0807
 9324TIP3    H127936   2.410   6.179   1.268  1.3890 -1.8264  0.4140
 9324TIP3    H227937   2.548   6.236   1.292  0.4498  0.2532  1.1011
 9325TIP3   OH227938   3.768   2.353   0.976 -0.2333 -0.2622 -0.0532
 9325TIP3    H127939   3.763   2.257   0.979 -0.2218 -0.2440  2.2181
 9325TIP3    H227940   3.860   2.371   0.959  0.1398 -0.7015  1.3289
 9326TIP3   OH227941   6.834   0.311   0.994  0.1680  0.4565  0.2189
 9326TIP3    H127942   6.743   0.343   0.997  0.2354  0.6826 -0.1424
 9326TIP3    H227943   6.845   0.265   1.077 -0.4250  0.0236  0.0647
 9327TIP3   OH227944   3.420   2.301   3.459 -0.8879  0.5721 -0.0466
 9327TIP3    H127945   3.380   2.383   3.487 -1.9038 -0.3035  1.2054
 9327TIP3    H227946   3.410   2.300   3.364 -0.8112  1.8989 -0.0841
 9328TIP3   OH227947   2.597   0.333   2.884 -0.1952  0.0504  0.1615
 9328TIP3    H127948   2.674   0.310   2.936  0.3177 -2.6453 -1.5760
 9328TIP3    H227949   2.527   0.281   2.921 -0.6855  0.8164  0.3372
 9329TIP3   OH227950   2.011   3.523   0.308  0.3419 -0.0803 -0.0311
 9329TIP3    H127951   2.019   3.599   0.365 -1.3834  0.4407 -0.4334
 9329TIP3    H227952   1.953   3.551   0.237 -0.5493 -1.8230 -0.0589
 9330TIP3   OH227953   3.169   0.910   1.413  0.2855 -0.1398 -0.3349
 9330TIP3    H127954   3.107   0.918   1.486 -0.1830  1.9079 -0.9068
 9330TIP3    H227955   3.255   0.914   1.454  0.0266  0.3717  0.1775
 9331TIP3   OH227956   2.600   2.725   5.817  0.5773 -0.0024 -0.0016
 9331TIP3    H127957   2.529   2.666   5.844  1.1906 -0.7464  0.0083
 9331TIP3    H227958   2.558   2.786   5.755 -0.0246 -0.5547 -0.1493
 9332TIP3   OH227959   3.374   3.691   0.095 -0.3894 -0.1219  0.2828
 9332TIP3    H127960   3.296   3.740   0.066  0.7417  2.2353  0.9820
 9332TIP3    H227961   3.441   3.715   0.031  0.7271  0.9168  1.7825
 9333TIP3   OH227962   6.092   2.826   2.882 -0.5686  0.4057 -0.3250
 9333TIP3    H127963   6.147   2.840   2.804 -0.7402 -1.6060 -0.8631
 9333TIP3    H227964   6.003   2.820   2.847 -0.8379  1.0729  0.2351
 9334TIP3   OH227965   0.506   1.313   4.999 -0.3237 -0.4912 -0.0163
 9334TIP3    H127966   0.437   1.257   5.033 -0.8161 -1.0089 -1.7586
 9334TIP3    H227967   0.474   1.402   5.013  0.5405 -0.5397  2.9317
 9335TIP3   OH227968   3.828   3.535   1.554  0.4393 -0.1848 -0.2953
 9335TIP3    H127969   3.820   3.594   1.479  0.2752 -0.3213 -0.3842
 9335TIP3    H227970   3.754   3.475   1.546  0.3611 -0.1352  0.0333
 9336TIP3   OH227971   0.367   4.450   3.043  0.1475 -0.3887 -0.4559
 9336TIP3    H127972   0.392   4.409   3.126 -0.2165 -1.1861 -0.7377
 9336TIP3    H227973   0.418   4.531   3.040 -0.9220  0.4226  1.2708
 9337TIP3   OH227974   2.236   5.652   4.313  0.0316  0.3737 -0.5858
 9337TIP3    H127975   2.158   5.611   4.276 -0.0691  0.7579 -0.8084
 9337TIP3    H227976   2.269   5.589   4.377 -1.5244  0.9720  0.9000
 9338TIP3   OH227977   2.874   4.900   0.144 -0.2505  0.1401 -0.1568
 9338TIP3    H127978   2.852   4.963   0.213  1.1125 -0.9383  1.3237
 9338TIP3    H227979   2.789   4.864   0.117 -0.8258  0.6479  0.8932
 9339TIP3   OH227980   2.798   0.838   1.186 -0.4036 -0.0618  0.0363
 9339TIP3    H127981   2.852   0.894   1.242  0.9635 -2.8615  1.7558
 9339TIP3    H227982   2.708   0.856   1.214 -0.0784  1.4941  0.2120
 9340TIP3   OH227983   4.714   5.564   2.960  0.5456 -0.1900  0.1510
 9340TIP3    H127984   4.680   5.503   2.894 -2.1073  0.1416  1.0869
 9340TIP3    H227985   4.773   5.621   2.911  0.7358 -1.6063 -1.3629
 9341TIP3   OH227986   2.395   1.685   1.461 -0.7902 -0.0417 -0.0791
 9341TIP3    H127987   2.320   1.645   1.417 -1.1603 -1.3052  1.6180
 9341TIP3    H227988   2.357   1.756   1.514 -0.5435  0.4308 -0.5188
 9342TIP3   OH227989   1.796   5.076   5.335 -0.0658 -0.6620  0.1108
 9342TIP3    H127990   1.834   5.126   5.263  2.6523 -0.7600  1.3569
 9342TIP3    H227991   1.827   5.120   5.414 -2.9113 -0.6029  1.2993
 9343TIP3   OH227992   6.931   6.514   5.373  0.0069 -0.2702 -0.2106
 9343TIP3    H127993   6.939   6.423   5.345  0.1303 -0.6762  1.0601
 9343TIP3    H227994   7.019   6.538   5.403  0.2706  0.6800 -1.6503
 9344TIP3   OH227995   0.349   1.691   1.569  0.0905 -0.4745 -0.1294
 9344TIP3    H127996   0.439   1.722   1.559 -0.0509 -0.2933 -0.8592
 9344TIP3    H227997   0.346   1.655   1.658  0.9948 -0.8664 -0.2469
 9345TIP3   OH227998   6.671   3.361   0.742  0.6539 -0.2189 -0.2542
 9345TIP3    H127999   6.679   3.424   0.671  0.0976 -0.1064 -0.2180
 9345TIP3    H228000   6.749   3.305   0.733  0.5510 -0.2481 -0.9894
 9346TIP3   OH228001   1.127   5.020   4.326 -0.1296  0.0602  0.0724
 9346TIP3    H128002   1.140   4.974   4.244 -1.5711  0.1145 -0.2101
 9346TIP3    H228003   1.088   4.954   4.384  0.3747  0.1711  0.5421
 9347TIP3   OH228004   5.196   2.325   2.348  0.1100  0.0646 -0.4465
 9347TIP3    H128005   5.113   2.314   2.395  1.0879  0.0129  1.3810
 9347TIP3    H228006   5.230   2.409   2.380  1.7797 -0.9419  0.5721
 9348TIP3   OH228007   4.480   4.612   1.989 -0.0744 -0.1453 -0.0853
 9348TIP3    H128008   4.512   4.702   1.980  2.9621 -0.6872  3.3513
 9348TIP3    H228009   4.559   4.558   1.996 -1.7087 -2.5116  2.2308
 9349TIP3   OH228010   0.702   4.401   4.003 -0.0220 -0.1938 -0.3655
 9349TIP3    H128011   0.640   4.357   4.061 -0.0038 -1.3649 -1.1973
 9349TIP3    H228012   0.650   4.426   3.927 -0.0001  1.1328  0.0420
 9350TIP3   OH228013   3.760   3.894   3.211  0.2004  0.5326  0.1164
 9350TIP3    H128014   3.853   3.891   3.188  0.0807 -2.5824 -0.4784
 9350TIP3    H228015   3.754   3.957   3.283  2.7116  0.9818  0.0077
 9351TIP3   OH228016   3.887   4.219   0.848 -0.0619 -0.1697  0.2742
 9351TIP3    H128017   3.862   4.189   0.935 -0.4420  0.6327  0.4579
 9351TIP3    H228018   3.981   4.234   0.854  0.4134 -2.6098 -0.2365
 9352TIP3   OH228019   0.036   3.559   0.606 -0.1301 -0.4392  0.5098
 9352TIP3    H128020   0.076   3.475   0.583 -1.0645 -0.8169  0.2531
 9352TIP3    H228021  -0.011   3.542   0.688  0.2340  0.0096  0.8202
 9353TIP3   OH228022   0.985   2.778   4.899  0.6081  0.6079 -0.1944
 9353TIP3    H128023   0.992   2.760   4.992  1.4968  2.7106  0.1986
 9353TIP3    H228024   0.955   2.869   4.894 -2.7615 -0.4091 -1.9950
 9354TIP3   OH228025   5.528   2.249   2.356 -0.0832  0.2479 -0.0408
 9354TIP3    H128026   5.607   2.197   2.370 -0.5766 -0.3429  0.6260
 9354TIP3    H228027   5.469   2.224   2.427  0.1804  2.7788  1.2047
 9355TIP3   OH228028   3.865   2.951   5.606  0.4524  0.4296  0.1014
 9355TIP3    H128029   3.852   2.857   5.623 -0.6518  0.3904 -0.7995
 9355TIP3    H228030   3.803   2.995   5.664 -0.9097  0.4413 -1.2668
 9356TIP3   OH228031   7.146   5.039   3.981  0.5188  0.2252 -0.3618
 9356TIP3    H128032   7.150   4.944   3.971  0.8536  0.3090 -1.0407
 9356TIP3    H228033   7.127   5.052   4.074 -0.5121 -0.5173 -0.4499
 9357TIP3   OH228034   2.175   2.602   5.734 -0.5247  0.4343 -0.2373
 9357TIP3    H128035   2.262   2.577   5.767 -1.0107  1.8591  2.4849
 9357TIP3    H228036   2.140   2.522   5.695  0.5414 -1.2824  2.0643
 9358TIP3   OH228037   5.114   5.393   4.356  0.0100 -0.3228  0.5706
 9358TIP3    H128038   5.180   5.423   4.418 -1.2235  2.0011  0.8629
 9358TIP3    H228039   5.164   5.354   4.284  1.8204  2.1404  0.3592
 9359TIP3   OH228040   5.809   1.201   5.811  0.5140 -0.2797  0.3893
 9359TIP3    H128041   5.784   1.136   5.877 -0.9965  1.1730  1.3233
 9359TIP3    H228042   5.811   1.152   5.729  0.1782 -1.6607  1.1715
 9360TIP3   OH228043   2.431   2.691   5.134 -0.2999  0.8500 -0.3124
 9360TIP3    H128044   2.368   2.679   5.063  0.3399 -1.2859 -0.5795
 9360TIP3    H228045   2.515   2.703   5.090 -0.0286  0.3590  0.0596
 9361TIP3   OH228046   6.291   5.548   5.321 -0.0550  0.4481  0.0717
 9361TIP3    H128047   6.284   5.462   5.278 -0.6614  0.0629  0.9122
 9361TIP3    H228048   6.207   5.559   5.365  0.7013  0.6299  1.5131
 9362TIP3   OH228049   4.911   3.803   3.568  0.4740 -0.4400  0.1232
 9362TIP3    H128050   4.963   3.883   3.560 -0.2751  0.0043 -0.4780
 9362TIP3    H228051   4.882   3.802   3.659  0.8402 -0.2640  0.2447
 9363TIP3   OH228052   1.662   4.409   2.163 -0.6726 -0.4805 -0.3804
 9363TIP3    H128053   1.672   4.502   2.142 -2.2745 -1.0073 -4.3069
 9363TIP3    H228054   1.740   4.368   2.126 -0.7591 -0.8852 -0.1197
 9364TIP3   OH228055   0.298   3.475   0.840  0.4186 -0.2049  0.5364
 9364TIP3    H128056   0.375   3.509   0.792 -0.8095  4.5755  1.4281
 9364TIP3    H228057   0.335   3.422   0.910  2.8759  0.7589  0.0776
 9365TIP3   OH228058   4.358   5.448   0.198  0.3251 -0.5601 -0.2898
 9365TIP3    H128059   4.291   5.501   0.155  1.5048 -0.4229 -2.0470
 9365TIP3    H228060   4.325   5.358   0.192 -0.3995 -0.3312  0.2243
 9366TIP3   OH228061   5.107   3.869   2.049  0.3061  0.0504 -0.2223
 9366TIP3    H128062   5.117   3.895   1.957  2.6553 -0.1832 -0.1106
 9366TIP3    H228063   5.041   3.800   2.048 -0.5484  0.8549 -1.5636
 9367TIP3   OH228064   0.669   3.374   3.508  0.5279  0.1166  0.2193
 9367TIP3    H128065   0.757   3.372   3.545  1.0178  1.0963 -0.8424
 9367TIP3    H228066   0.673   3.311   3.436 -0.1158 -1.0052  1.1359
 9368TIP3   OH228067   0.872   0.351   4.497 -0.1113  0.1598 -0.2953
 9368TIP3    H128068   0.904   0.293   4.427 -0.7686  0.8156 -1.1675
 9368TIP3    H228069   0.840   0.429   4.450 -1.7430  0.0825  0.6437
 9369TIP3   OH228070   1.246   2.390   5.104 -0.0138  0.1448 -0.5879
 9369TIP3    H128071   1.194   2.345   5.171  2.3279 -1.5105  0.2442
 9369TIP3    H228072   1.254   2.480   5.136 -0.4950 -0.1515  0.3973
 9370TIP3   OH228073   0.036   3.403   4.586 -0.5711 -0.2307  0.1624
 9370TIP3    H128074   0.108   3.466   4.589 -0.2103 -0.5204 -1.3797
 9370TIP3    H228075  -0.037   3.451   4.549 -0.3722 -0.6078 -0.7666
 9371TIP3   OH228076   6.705   5.234   3.928 -0.4583 -0.6438  0.2717
 9371TIP3    H128077   6.679   5.150   3.889 -1.8727 -1.5774  2.9589
 9371TIP3    H228078   6.626   5.288   3.923  0.0530  0.0704 -0.2345
 9372TIP3   OH228079   2.198   6.454   3.593  0.0068 -0.2266  0.0412
 9372TIP3    H128080   2.164   6.443   3.682  0.1146  1.8386  0.3940
 9372TIP3    H228081   2.288   6.486   3.606 -0.3946  1.3405 -0.7451
 9373TIP3   OH228082   6.004   4.634   4.156 -0.1157  0.0699 -0.0903
 9373TIP3    H128083   6.094   4.657   4.134 -0.5319  0.2052 -1.7515
 9373TIP3    H228084   5.956   4.641   4.073 -2.0717  1.9094  1.1073
 9374TIP3   OH228085   6.241   3.225   1.649  0.7852 -0.2965 -0.1250
 9374TIP3    H128086   6.288   3.245   1.730  0.6275  0.1797 -0.1499
 9374TIP3    H228087   6.152   3.201   1.678  0.8513 -0.5462 -0.1269
 9375TIP3   OH228088   0.672   1.961   2.450 -0.0410  0.1676  0.1774
 9375TIP3    H128089   0.667   1.867   2.436 -1.1403  0.2553 -0.1258
 9375TIP3    H228090   0.673   1.971   2.545 -3.2141 -0.0776  0.3415
 9376TIP3   OH228091   3.351   4.451   2.356  0.5088  0.2724  0.0657
 9376TIP3    H128092   3.353   4.528   2.414 -0.8449  0.4263 -0.0484
 9376TIP3    H228093   3.309   4.383   2.409 -0.8374  0.4424 -0.7193
 9377TIP3   OH228094   0.293   5.044   4.430 -0.3551 -0.1122 -0.2706
 9377TIP3    H128095   0.310   5.020   4.339 -0.7876  0.2742 -0.4573
 9377TIP3    H228096   0.291   4.961   4.477  2.2270 -0.1967 -0.1903
 9378TIP3   OH228097   1.650   3.399   3.014 -0.6681  0.2437  0.2293
 9378TIP3    H128098   1.682   3.325   2.961 -0.4829  0.2243  0.3658
 9378TIP3    H228099   1.729   3.449   3.035 -0.6760 -0.0088  0.8922
 9379TIP3   OH228100   1.590   4.990   4.211  0.4217  0.2142  0.2231
 9379TIP3    H128101   1.666   5.048   4.221  1.4177 -0.7702 -1.1717
 9379TIP3    H228102   1.526   5.023   4.274  1.7150  1.5526  0.9033
 9380TIP3   OH228103   1.700   4.638   4.941  0.4985 -0.2429  0.2432
 9380TIP3    H128104   1.672   4.703   4.876  0.6335 -1.0914 -0.6851
 9380TIP3    H228105   1.786   4.668   4.970 -0.1357  0.8781  1.0693
 9381TIP3   OH228106   2.648   2.330   2.029 -0.1434 -0.0491  0.0194
 9381TIP3    H128107   2.697   2.264   2.078 -0.0980 -0.7468 -0.9477
 9381TIP3    H228108   2.714   2.394   2.001 -0.3097  0.9541  1.7473
 9382TIP3   OH228109   4.194   1.443   4.995  0.5304 -0.0281 -0.1631
 9382TIP3    H128110   4.154   1.469   4.912  1.6465  0.1648 -0.6588
 9382TIP3    H228111   4.178   1.517   5.054 -1.0091 -0.5196  0.0731
 9383TIP3   OH228112   4.321   5.877   3.450 -0.4301 -0.1629 -0.2832
 9383TIP3    H128113   4.283   5.902   3.535  0.0033  0.0007 -0.1323
 9383TIP3    H228114   4.248   5.883   3.388 -0.5011  0.8106 -0.1278
 9384TIP3   OH228115   2.216   1.899   2.135  0.1062 -0.3944 -0.5460
 9384TIP3    H128116   2.255   1.906   2.048  0.2023 -0.6151 -0.5215
 9384TIP3    H228117   2.230   1.808   2.160  2.6595  0.3001  0.8879
 9385TIP3   OH228118   1.181   4.961   0.109 -0.0354  0.1138 -0.1614
 9385TIP3    H128119   1.169   4.866   0.110  0.7445 -0.0012 -0.6424
 9385TIP3    H228120   1.254   4.975   0.049  0.1216  0.9909  0.2216
 9386TIP3   OH228121   0.470   1.822   2.833 -0.6392  0.0227 -0.7456
 9386TIP3    H128122   0.537   1.891   2.834  0.3732 -0.9128  0.9977
 9386TIP3    H228123   0.520   1.741   2.829 -1.4465 -0.8043  2.6040
 9387TIP3   OH228124   4.207   2.231   3.725 -0.0551 -0.0652  0.6045
 9387TIP3    H128125   4.177   2.264   3.641  3.1429  0.3133 -0.5412
 9387TIP3    H228126   4.228   2.310   3.775  2.0824 -0.2006  0.0471
 9388TIP3   OH228127   1.070   4.424   5.585  0.0051 -0.4020 -0.0421
 9388TIP3    H128128   0.997   4.486   5.580 -0.5844 -0.8913  1.6367
 9388TIP3    H228129   1.049   4.356   5.522  1.3863  1.7366 -3.0209
 9389TIP3   OH228130   5.602   0.774   3.718 -0.2955  0.5044 -0.1365
 9389TIP3    H128131   5.582   0.867   3.731 -2.2078  0.2853 -1.0246
 9389TIP3    H228132   5.629   0.742   3.804 -0.9280  1.6037  0.4957
 9390TIP3   OH228133   2.405   6.459   2.094  0.4753 -0.1642 -0.0741
 9390TIP3    H128134   2.457   6.399   2.146  0.1478 -0.5942 -0.2401
 9390TIP3    H228135   2.440   6.451   2.005  0.5040 -0.0273 -0.0758
 9391TIP3   OH228136   4.435   6.670   5.571  0.3693  0.4012  0.2770
 9391TIP3    H128137   4.414   6.670   5.664 -1.6111 -1.3253 -0.1141
 9391TIP3    H228138   4.531   6.668   5.568  0.4559 -0.6177  2.2910
 9392TIP3   OH228139   1.319   0.694   3.873  0.0657 -0.6187  0.4678
 9392TIP3    H128140   1.321   0.785   3.841  0.1104 -1.0715 -0.8979
 9392TIP3    H228141   1.410   0.666   3.874 -0.1062 -1.4069 -1.5155
 9393TIP3   OH228142   6.639   1.845   0.824 -0.4950 -0.6348  0.1895
 9393TIP3    H128143   6.656   1.830   0.917 -2.0937 -1.0614  0.4403
 9393TIP3    H228144   6.724   1.833   0.782  0.2529 -0.4466  1.5802
 9394TIP3   OH228145   6.063   5.372   5.758 -0.2176 -0.0577 -0.1631
 9394TIP3    H128146   6.106   5.372   5.843 -1.7251 -1.7224  0.6653
 9394TIP3    H228147   5.970   5.387   5.778 -0.4786  0.3570 -1.5852
 9395TIP3   OH228148   4.624   2.003   2.785  0.6354  0.0392  0.1067
 9395TIP3    H128149   4.564   1.938   2.749 -0.7375  1.3526 -0.0660
 9395TIP3    H228150   4.569   2.060   2.839  1.3683  2.2540 -1.3490
 9396TIP3   OH228151   2.579   4.445   0.539 -0.3865 -0.3078  0.4307
 9396TIP3    H128152   2.520   4.473   0.469 -0.6173 -0.0856  0.7072
 9396TIP3    H228153   2.602   4.355   0.517  1.0102  0.3469 -0.9022
 9397TIP3   OH228154   0.716   3.817   4.022  0.1992 -0.7771  0.3300
 9397TIP3    H128155   0.629   3.786   4.047 -0.0441 -3.3969 -3.0327
 9397TIP3    H228156   0.700   3.875   3.948  1.2111  1.2564  1.6293
 9398TIP3   OH228157   1.364   1.371   3.628  0.0820  0.0604  0.4409
 9398TIP3    H128158   1.337   1.389   3.538  0.5238 -0.6186  0.1685
 9398TIP3    H228159   1.293   1.406   3.682 -0.2415  0.3624 -0.1724
 9399TIP3   OH228160   3.166   5.230   2.167 -0.1652  0.1061  0.0689
 9399TIP3    H128161   3.093   5.282   2.201 -1.1354 -0.7548 -0.6234
 9399TIP3    H228162   3.128   5.143   2.150  1.2591 -0.6552  0.6030
 9400TIP3   OH228163   5.853   4.547   1.421 -0.0241  0.4035  0.6662
 9400TIP3    H128164   5.827   4.638   1.436  1.5889  0.8721  0.7819
 9400TIP3    H228165   5.899   4.521   1.500  0.1589 -0.2833  0.3446
 9401TIP3   OH228166   1.553   6.191   1.076 -0.0827  0.4261  0.2458
 9401TIP3    H128167   1.638   6.155   1.099 -0.5810 -0.4244  0.7996
 9401TIP3    H228168   1.552   6.278   1.116  0.8879  0.8341 -0.5757
 9402TIP3   OH228169   4.674   0.885   4.292  0.0868  0.0060 -0.0235
 9402TIP3    H128170   4.641   0.834   4.217  0.5420 -0.9166  0.3826
 9402TIP3    H228171   4.646   0.975   4.274  0.5753 -0.1087 -1.5335
 9403TIP3   OH228172   3.221   1.318   4.689  0.1833 -0.0167 -0.2289
 9403TIP3    H128173   3.149   1.382   4.693 -0.5908 -0.7688 -1.4828
 9403TIP3    H228174   3.216   1.271   4.772  1.2306  1.9794  1.0546
 9404TIP3   OH228175   1.249   1.465   3.395 -0.2205 -0.4202 -0.1900
 9404TIP3    H128176   1.294   1.456   3.311 -0.1061  0.9931 -0.3012
 9404TIP3    H228177   1.259   1.558   3.418 -1.4271 -0.4973  0.7238
 9405TIP3   OH228178   3.862   6.346   3.998 -0.3618  0.1879 -0.2422
 9405TIP3    H128179   3.878   6.286   3.924  0.9945 -0.2065  0.3500
 9405TIP3    H228180   3.860   6.433   3.958  0.1159 -0.0407 -0.7787
 9406TIP3   OH228181   1.377   5.878   2.581 -0.2981 -0.3750 -0.3764
 9406TIP3    H128182   1.408   5.944   2.518 -2.1423  1.0370  0.1105
 9406TIP3    H228183   1.291   5.910   2.608  0.0415 -1.4337  2.1573
 9407TIP3   OH228184   1.909   1.012   1.984 -0.7066  0.0741  0.5697
 9407TIP3    H128185   1.961   1.075   2.034 -0.8493  0.8954 -0.2767
 9407TIP3    H228186   1.966   0.986   1.912 -1.3470  0.7651 -0.2050
 9408TIP3   OH228187   1.128   3.616   1.792 -0.1190  0.5581  0.2850
 9408TIP3    H128188   1.061   3.672   1.831 -0.1966  0.8022 -0.1886
 9408TIP3    H228189   1.175   3.673   1.731 -1.0456 -0.1790 -1.1998
 9409TIP3   OH228190   2.993   3.225   0.486 -0.3164 -0.1328  0.0750
 9409TIP3    H128191   3.027   3.136   0.478  1.9249  0.5764  1.0844
 9409TIP3    H228192   3.060   3.273   0.534 -1.5562  2.0706 -0.2417
 9410TIP3   OH228193   0.703   6.793   4.008  0.2670 -0.1936  0.1845
 9410TIP3    H128194   0.761   6.869   4.009 -1.5101  1.2441 -0.3388
 9410TIP3    H228195   0.758   6.722   3.975  1.4486  1.3617 -1.3902
 9411TIP3   OH228196   2.689   1.445   3.776 -0.1466  0.2538  0.9452
 9411TIP3    H128197   2.668   1.437   3.869 -1.3629  2.8110  0.9583
 9411TIP3    H228198   2.677   1.538   3.756  0.2578 -0.1927 -1.7421
 9412TIP3   OH228199   5.510   1.232   2.104  0.4666  0.4331  0.0077
 9412TIP3    H128200   5.538   1.323   2.090 -0.3760  0.7320  0.2025
 9412TIP3    H228201   5.591   1.185   2.123  0.8808  1.2077  0.2211
 9413TIP3   OH228202   2.134   1.633   4.573 -0.0537 -0.4930 -0.2849
 9413TIP3    H128203   2.041   1.630   4.596  0.1132 -1.3631  0.3240
 9413TIP3    H228204   2.147   1.721   4.539 -1.1561 -0.4429 -0.6165
 9414TIP3   OH228205   0.159   5.719   0.302 -0.0996  0.0512 -0.3911
 9414TIP3    H128206   0.210   5.642   0.326  0.9315  0.5842 -0.8051
 9414TIP3    H228207   0.224   5.789   0.296 -0.8889  0.7489 -0.9225
 9415TIP3   OH228208   0.297   4.531   1.130  0.3623  0.1408 -0.3412
 9415TIP3    H128209   0.363   4.595   1.103  3.6127 -2.6697  0.2236
 9415TIP3    H228210   0.250   4.510   1.050  1.1502  1.1170 -1.0890
 9416TIP3   OH228211   0.652   6.309   0.656 -0.1144  0.8477  0.0084
 9416TIP3    H128212   0.627   6.321   0.564  0.8229 -1.9442 -0.7128
 9416TIP3    H228213   0.714   6.380   0.673 -0.4167  1.5010 -1.4567
 9417TIP3   OH228214   7.172   3.191   1.480  0.5037 -0.1617  0.4555
 9417TIP3    H128215   7.171   3.286   1.468 -0.3496 -0.3827 -1.6218
 9417TIP3    H228216   7.240   3.176   1.546  0.2033  1.9202  1.3213
 9418TIP3   OH228217   3.323   2.636   3.132 -0.1239 -0.0474 -0.2476
 9418TIP3    H128218   3.394   2.579   3.101 -0.1914 -0.5306  0.4545
 9418TIP3    H228219   3.361   2.682   3.207 -0.4085  0.0271 -0.1492
 9419TIP3   OH228220   4.824   4.882   4.724 -0.8668 -0.2286 -0.1054
 9419TIP3    H128221   4.769   4.804   4.720 -0.3626 -0.7778  2.0743
 9419TIP3    H228222   4.771   4.947   4.769 -0.2959 -0.2714  0.6529
 9420TIP3   OH228223   2.110   1.155   3.454 -0.1775 -0.9439 -0.0663
 9420TIP3    H128224   2.084   1.173   3.545 -0.8520 -0.9983 -0.2457
 9420TIP3    H228225   2.199   1.189   3.448  1.0365 -3.5511  1.4492
 9421TIP3   OH228226   2.006   3.472   5.321  0.6165 -0.5332 -0.5664
 9421TIP3    H128227   1.948   3.490   5.247 -2.3412  0.8840  1.8568
 9421TIP3    H228228   2.075   3.538   5.315 -0.9836  1.1986 -0.7771
 9422TIP3   OH228229   5.649   6.467   5.220 -0.3886 -0.2877  0.4906
 9422TIP3    H128230   5.576   6.521   5.249 -0.6559  0.2818 -1.1579
 9422TIP3    H228231   5.692   6.518   5.151  1.7149 -0.5069  1.5485
 9423TIP3   OH228232   2.415   1.911   1.905 -0.0358 -0.0263  0.2267
 9423TIP3    H128233   2.433   1.891   1.813  0.3755  2.6446 -0.3460
 9423TIP3    H228234   2.430   2.005   1.913 -2.8399  0.3864  2.3577
 9424TIP3   OH228235   4.759   0.497   5.098  0.2250 -0.1106 -0.8124
 9424TIP3    H128236   4.760   0.479   5.192  0.2474 -0.7495 -0.9293
 9424TIP3    H228237   4.750   0.411   5.057 -0.2604  0.2050 -1.3858
 9425TIP3   OH228238   1.152   3.748   1.518  0.5115  0.2847 -0.2086
 9425TIP3    H128239   1.126   3.669   1.470  0.3712 -0.7537  1.5026
 9425TIP3    H228240   1.072   3.800   1.524  0.0638 -0.4641  0.5109
 9426TIP3   OH228241   2.537   6.144   2.939  0.3267  0.3046 -0.4196
 9426TIP3    H128242   2.465   6.101   2.892  0.1738 -1.9152  1.6654
 9426TIP3    H228243   2.494   6.190   3.011  0.8120  1.0365 -0.5889
 9427TIP3   OH228244   1.793   3.983   3.549  0.5692  0.0875 -0.3018
 9427TIP3    H128245   1.757   3.897   3.572  2.1429 -0.5413 -0.0112
 9427TIP3    H228246   1.785   4.035   3.630 -0.0142  0.0892 -0.3566
 9428TIP3   OH228247   4.157   5.146   3.794  0.0433 -0.1854  0.1155
 9428TIP3    H128248   4.208   5.184   3.723 -0.6206  0.8748  0.1932
 9428TIP3    H228249   4.066   5.163   3.770 -0.2344 -0.8464  0.6561
 9429TIP3   OH228250   2.317   3.915   2.808 -0.4940 -0.2738  0.1410
 9429TIP3    H128251   2.293   3.908   2.901 -0.3710 -1.1756  0.1124
 9429TIP3    H228252   2.271   3.993   2.777 -2.0297 -0.9991  0.5139
 9430TIP3   OH228253   1.607   5.775   5.445 -0.1065  0.7683 -0.0678
 9430TIP3    H128254   1.514   5.770   5.468  0.2681 -2.1749  1.2828
 9430TIP3    H228255   1.612   5.731   5.360  0.1075  0.3173  0.1734
 9431TIP3   OH228256   6.888   2.639   5.060 -0.0595  0.1159 -0.3765
 9431TIP3    H128257   6.914   2.605   4.974  1.9338 -1.1972  0.6623
 9431TIP3    H228258   6.871   2.732   5.044 -1.4946 -0.4274 -2.4998
 9432TIP3   OH228259   3.285   2.023   5.267  0.4160  0.0423  0.0936
 9432TIP3    H128260   3.197   1.986   5.265  0.6222 -0.7074  2.4949
 9432TIP3    H228261   3.341   1.954   5.229 -0.0714  0.9414 -2.4783
 9433TIP3   OH228262   2.300   5.009   4.431  0.1038  0.5492  0.7259
 9433TIP3    H128263   2.287   4.946   4.360  0.4889 -0.2125  1.3173
 9433TIP3    H228264   2.220   5.063   4.430 -0.3657 -0.1383  0.4060
 9434TIP3   OH228265   1.962   6.333   0.185  0.7495 -0.4746  0.3035
 9434TIP3    H128266   2.056   6.324   0.167  0.6601  2.2378 -2.2621
 9434TIP3    H228267   1.919   6.295   0.108 -0.1650  0.4588  0.3346
 9435TIP3   OH228268   2.037   1.074   3.123 -0.1466  0.5476  0.9399
 9435TIP3    H128269   2.082   1.119   3.051 -0.2967 -0.7755 -0.0362
 9435TIP3    H228270   2.096   1.080   3.197  1.0045  0.1088  0.0879
 9436TIP3   OH228271   1.129   1.914   5.805 -0.4773  0.4204  0.2401
 9436TIP3    H128272   1.135   1.854   5.730 -1.3880  0.1248  0.3902
 9436TIP3    H228273   1.093   1.995   5.768 -1.2609  0.1569  0.4134
 9437TIP3   OH228274   1.676   2.090   0.243 -0.5567  0.3517  0.3202
 9437TIP3    H128275   1.672   2.114   0.336  0.7176  0.4414  0.3771
 9437TIP3    H228276   1.736   2.015   0.240 -1.5799 -0.4676 -0.2971
 9438TIP3   OH228277   0.331   0.456   1.752  0.1733  0.4325 -0.2054
 9438TIP3    H128278   0.306   0.501   1.832  1.4447  0.8171 -0.0076
 9438TIP3    H228279   0.298   0.512   1.682  0.9328  1.2147  0.0479
 9439TIP3   OH228280   6.614   4.917   4.085  0.0378 -0.0405  0.3736
 9439TIP3    H128281   6.591   4.960   4.167  1.2578  0.9118  0.2392
 9439TIP3    H228282   6.584   4.978   4.017 -0.1817 -0.4197  0.1258
 9440TIP3   OH228283   7.158   5.541   1.343 -0.2622 -0.5342  0.0838
 9440TIP3    H128284   7.234   5.574   1.391  0.1299  0.5300 -1.1906
 9440TIP3    H228285   7.195   5.486   1.274 -0.7461 -1.2155  0.3630
 9441TIP3   OH228286   0.161   4.308   4.526 -0.2024 -0.4787  0.0623
 9441TIP3    H128287   0.224   4.244   4.494  0.6154 -0.4076  1.4738
 9441TIP3    H228288   0.133   4.355   4.447  2.2356  0.1389 -0.5190
 9442TIP3   OH228289   5.791   5.838   4.396  0.5619  0.5772  0.0929
 9442TIP3    H128290   5.790   5.930   4.369  1.0450  1.5173  2.9431
 9442TIP3    H228291   5.699   5.816   4.410  0.4274  0.5317 -0.8045
 9443TIP3   OH228292   3.361   5.772   1.050  0.1954 -0.2755  0.1649
 9443TIP3    H128293   3.363   5.854   1.099 -1.1077 -0.5468  0.7179
 9443TIP3    H228294   3.372   5.704   1.116 -1.2145 -0.6300  0.0781
 9444TIP3   OH228295   6.876   3.131   4.276  0.0418 -0.2328 -0.2601
 9444TIP3    H128296   6.827   3.131   4.358 -1.7786 -0.0009 -1.2894
 9444TIP3    H228297   6.929   3.211   4.280 -0.8203  0.3310  0.2652
 9445TIP3   OH228298   0.459   3.298   1.256 -0.6654  0.2721  0.1431
 9445TIP3    H128299   0.435   3.215   1.214 -0.5579  0.4191 -0.2177
 9445TIP3    H228300   0.487   3.274   1.344 -1.2929  0.0003  0.2753
 9446TIP3   OH228301   1.940   2.327   3.243 -0.6125  0.4529  0.5247
 9446TIP3    H128302   1.891   2.245   3.234  0.0441  0.1636 -0.5730
 9446TIP3    H228303   1.951   2.338   3.338 -1.1630 -0.4410  0.7082
 9447TIP3   OH228304   0.404   3.901   1.266 -0.1867  0.2811  0.2951
 9447TIP3    H128305   0.437   3.811   1.265  0.5069  0.5278 -1.4624
 9447TIP3    H228306   0.395   3.924   1.174 -1.2534  1.7038  0.7378
 9448TIP3   OH228307   5.782   2.461   3.153  1.0672 -0.1044 -0.7079
 9448TIP3    H128308   5.717   2.392   3.150  1.7980 -0.8124 -0.6151
 9448TIP3    H228309   5.791   2.481   3.247  1.8655 -0.8723 -0.6119
 9449TIP3   OH228310   1.190   4.885   4.674  0.4248  0.2736  0.3910
 9449TIP3    H128311   1.263   4.871   4.734  1.5253 -1.7645 -1.2967
 9449TIP3    H228312   1.217   4.959   4.620  2.3826 -1.7787 -1.6620
 9450TIP3   OH228313   6.215   5.129   3.755 -0.0623  0.4720 -0.3815
 9450TIP3    H128314   6.228   5.039   3.784 -0.4324  0.5187 -0.0587
 9450TIP3    H228315   6.167   5.170   3.826  0.4229  1.0250 -0.3689
 9451TIP3   OH228316   2.449   5.894   0.096  0.6716  0.0188 -0.1893
 9451TIP3    H128317   2.383   5.881   0.028 -0.8672 -0.5404  1.3492
 9451TIP3    H228318   2.478   5.984   0.084  0.1467  0.0530 -1.3261
 9452TIP3   OH228319   5.779   6.092   0.719 -0.2095  0.4009 -0.2999
 9452TIP3    H128320   5.784   6.155   0.791  1.7571 -1.0560  0.9541
 9452TIP3    H228321   5.870   6.071   0.700 -0.7734 -2.1421 -0.5487
 9453TIP3   OH228322   5.228   6.178   4.403  0.5652  0.0833  0.5366
 9453TIP3    H128323   5.255   6.112   4.467 -1.5190  0.2767  1.7301
 9453TIP3    H228324   5.194   6.127   4.330  0.0213 -0.1876  0.9669
 9454TIP3   OH228325   1.594   2.467   3.574 -0.3305 -0.1737  0.0698
 9454TIP3    H128326   1.598   2.545   3.519  1.3243 -0.0228  0.3428
 9454TIP3    H228327   1.533   2.489   3.644  0.1290  0.8740  0.1435
 9455TIP3   OH228328   0.743   6.539   0.506  0.7953 -0.3967 -0.5162
 9455TIP3    H128329   0.703   6.456   0.479 -1.0123 -0.1414  1.1640
 9455TIP3    H228330   0.778   6.576   0.425 -0.6572 -1.5859 -1.7500
 9456TIP3   OH228331   0.999   0.590   1.871 -0.5283  0.0465 -0.7098
 9456TIP3    H128332   1.058   0.516   1.856  0.3204  0.9242 -1.8283
 9456TIP3    H228333   0.930   0.580   1.806 -0.1434  0.5079 -1.1922
 9457TIP3   OH228334   3.084   3.589   1.666  0.3558 -0.1366 -0.2032
 9457TIP3    H128335   3.081   3.494   1.662  0.0720 -0.1079 -0.9307
 9457TIP3    H228336   3.010   3.618   1.613  0.7623  0.4872 -0.4526
 9458TIP3   OH228337   6.777   0.062   1.763  0.3068  0.0896 -0.6400
 9458TIP3    H128338   6.849   0.003   1.739  1.1069  0.2900  1.1181
 9458TIP3    H228339   6.786   0.074   1.857 -1.3409  1.0765 -0.5632
 9459TIP3   OH228340   0.207   5.626   3.163  0.2572 -0.0306 -0.2899
 9459TIP3    H128341   0.157   5.615   3.244  1.8047  0.2700  0.7537
 9459TIP3    H228342   0.143   5.657   3.099 -0.6875  1.3784  1.2621
 9460TIP3   OH228343   0.648   6.721   5.446  0.2531 -0.0685 -0.0731
 9460TIP3    H128344   0.593   6.796   5.468  0.5391  0.5587 -1.4083
 9460TIP3    H228345   0.735   6.759   5.431  0.1747 -0.4861 -1.7898
 9461TIP3   OH228346   3.145   0.716   3.244  0.1880 -0.3307 -0.1277
 9461TIP3    H128347   3.199   0.640   3.223  0.6077  0.0584 -0.4721
 9461TIP3    H228348   3.183   0.787   3.193 -1.3352 -0.2907 -1.2882
 9462TIP3   OH228349   5.856   1.787   5.767  0.2157  0.1641 -0.0478
 9462TIP3    H128350   5.947   1.805   5.791  0.6515  0.4667 -1.7743
 9462TIP3    H228351   5.850   1.691   5.764  0.6657  0.1512 -0.5676
 9463TIP3   OH228352   1.601   5.050   0.613  0.4141 -0.1860 -0.2226
 9463TIP3    H128353   1.506   5.045   0.626  0.4051 -0.6191 -0.4264
 9463TIP3    H228354   1.632   5.104   0.685  0.0288 -0.1656 -0.0665
 9464TIP3   OH228355   3.491   4.775   4.942  0.6312  0.0541 -0.2311
 9464TIP3    H128356   3.496   4.725   4.861  0.5770 -1.2273  0.5210
 9464TIP3    H228357   3.462   4.711   5.008  1.9503  0.7157  1.0579
 9465TIP3   OH228358   4.993   5.741   0.553 -0.0029 -0.4502 -0.9228
 9465TIP3    H128359   4.950   5.766   0.471  0.2293  0.7020 -0.7039
 9465TIP3    H228360   4.989   5.819   0.607  2.4174 -0.2701 -0.8990
 9466TIP3   OH228361   1.287   3.197   3.779 -0.3851 -0.1076  0.2885
 9466TIP3    H128362   1.242   3.118   3.750 -2.4515  0.4307  1.7250
 9466TIP3    H228363   1.286   3.255   3.702  0.5325 -1.1890 -0.5629
 9467TIP3   OH228364   2.592   0.616   2.911  0.6977  0.1380 -0.1377
 9467TIP3    H128365   2.544   0.534   2.903 -0.6112  0.7445  1.1294
 9467TIP3    H228366   2.668   0.605   2.853  1.6902 -2.7539  1.4897
 9468TIP3   OH228367   1.473   2.585   2.680  0.5983  0.2015 -0.5039
 9468TIP3    H128368   1.430   2.618   2.601 -0.9547 -0.2704  0.0973
 9468TIP3    H228369   1.414   2.609   2.751  0.8802 -1.2757  0.2688
 9469TIP3   OH228370   0.479   3.781   0.060 -0.1154  0.2178 -0.0616
 9469TIP3    H128371   0.429   3.803  -0.019  0.3379  0.6524 -0.2352
 9469TIP3    H228372   0.510   3.692   0.045 -0.7532 -0.0251  0.0101
 9470TIP3   OH228373   3.970   1.342   2.577  0.5734 -0.1346 -0.0455
 9470TIP3    H128374   3.962   1.296   2.493  2.0768  0.3250 -0.4730
 9470TIP3    H228375   3.912   1.293   2.636 -0.6898 -0.3446 -1.3751
 9471TIP3   OH228376   3.749   0.683   0.331 -0.4604  0.1725  0.0530
 9471TIP3    H128377   3.757   0.663   0.424 -1.3539  1.7270  0.4981
 9471TIP3    H228378   3.769   0.776   0.325 -1.3017  0.2936 -1.1831
 9472TIP3   OH228379   0.174   6.098   3.235  0.4450 -1.0577  0.6980
 9472TIP3    H128380   0.246   6.051   3.193  0.6333  0.3063 -0.5588
 9472TIP3    H228381   0.142   6.158   3.169 -0.4183 -0.0874  1.9454
 9473TIP3   OH228382   0.895   6.494   2.058  0.3924 -0.0688  0.1373
 9473TIP3    H128383   0.829   6.440   2.014  0.8510 -2.2592  1.9568
 9473TIP3    H228384   0.940   6.540   1.987 -1.9883  0.2621 -1.2660
 9474TIP3   OH228385   3.983   4.605   4.641 -0.1896  1.1050 -0.7066
 9474TIP3    H128386   3.922   4.672   4.671  0.5505  1.8366 -0.7802
 9474TIP3    H228387   3.990   4.618   4.546  0.5899  1.4889 -0.6092
 9475TIP3   OH228388   3.086   2.389   5.060 -0.2852 -0.5752  0.3850
 9475TIP3    H128389   3.029   2.435   5.120  0.5774 -1.7491  2.1842
 9475TIP3    H228390   3.029   2.327   5.015 -1.0242  0.6498 -0.4355
 9476TIP3   OH228391   1.330   3.735   3.686 -0.4441  0.2426 -0.5410
 9476TIP3    H128392   1.385   3.809   3.714  0.6680 -0.7441 -0.0172
 9476TIP3    H228393   1.248   3.747   3.734  0.2945  0.2942  0.7579
 9477TIP3   OH228394   1.938   1.943   1.124 -0.3747  0.6295 -0.6070
 9477TIP3    H128395   2.015   1.896   1.157 -1.2068 -1.5207 -1.5441
 9477TIP3    H228396   1.953   1.949   1.029 -0.4957  1.9229 -0.5596
 9478TIP3   OH228397   2.625   6.408   1.682  0.0328  0.1411 -0.1886
 9478TIP3    H128398   2.605   6.338   1.745 -1.6618  0.2948 -0.5123
 9478TIP3    H228399   2.545   6.417   1.630  0.8128  1.1835 -1.2616
 9479TIP3   OH228400   1.802   3.586   0.713  0.0565 -0.4480  0.2254
 9479TIP3    H128401   1.758   3.608   0.795 -0.4338 -0.1622 -0.1138
 9479TIP3    H228402   1.849   3.505   0.732 -0.0090 -0.3520  0.8054
 9480TIP3   OH228403   3.406   2.595   4.141 -0.3158 -0.4131 -0.4628
 9480TIP3    H128404   3.334   2.606   4.204 -0.2574  0.7256 -0.5741
 9480TIP3    H228405   3.484   2.586   4.196 -0.3682 -0.2494 -0.3613
 9481TIP3   OH228406   1.157   3.863   3.001  0.0205 -0.3078  0.1587
 9481TIP3    H128407   1.219   3.876   2.929  0.1702  1.3667  0.5459
 9481TIP3    H228408   1.071   3.870   2.960  0.0982 -0.4386 -0.0282
 9482TIP3   OH228409   2.754   0.395   3.531  0.3635 -0.5089 -0.3578
 9482TIP3    H128410   2.691   0.378   3.601  1.8528  0.4178  1.2987
 9482TIP3    H228411   2.710   0.460   3.475  0.3390  1.3002  1.6223
 9483TIP3   OH228412   1.260   5.501   3.184  0.1833 -0.0915 -0.9580
 9483TIP3    H128413   1.354   5.500   3.168  0.3208 -0.8953 -0.1837
 9483TIP3    H228414   1.232   5.412   3.166  0.1111 -0.6837  1.6904
 9484TIP3   OH228415   0.142   4.307   3.278 -0.3171 -0.2590 -0.3198
 9484TIP3    H128416   0.138   4.212   3.289 -3.3897 -0.1432  0.6704
 9484TIP3    H228417   0.235   4.327   3.275  0.4307 -3.3053 -0.7921
 9485TIP3   OH228418   6.128   3.993   5.033 -0.1442  0.1146 -0.0607
 9485TIP3    H128419   6.224   3.996   5.032 -0.1364 -0.0796 -1.0791
 9485TIP3    H228420   6.102   4.053   4.964 -0.7377 -0.2949 -0.1969
 9486TIP3   OH228421   0.956   4.270   4.440 -0.0370  0.2550  0.0124
 9486TIP3    H128422   0.970   4.205   4.371  1.9441 -0.9296  1.4502
 9486TIP3    H228423   0.867   4.303   4.424 -0.3569 -1.3668 -1.9212
 9487TIP3   OH228424   4.339   1.546   3.006 -0.4228  0.3084  0.2793
 9487TIP3    H128425   4.364   1.534   3.097 -1.8462 -0.6395  0.5865
 9487TIP3    H228426   4.369   1.466   2.963  0.5288  0.8901 -0.1771
 9488TIP3   OH228427   6.531   1.437   1.032  0.2633  0.0695  0.2636
 9488TIP3    H128428   6.472   1.509   1.009  0.5325 -0.1889 -1.3621
 9488TIP3    H228429   6.570   1.411   0.948  1.7947 -0.5471  1.1400
 9489TIP3   OH228430   5.003   2.032   0.821  0.3813 -0.0191  0.4336
 9489TIP3    H128431   5.059   1.960   0.851  0.3423  0.4862  1.7740
 9489TIP3    H228432   4.921   1.990   0.796  1.8188 -1.0355 -3.2870
 9490TIP3   OH228433   5.172   4.372   1.024  0.3409  0.2442  0.1625
 9490TIP3    H128434   5.140   4.381   1.114  1.1272  1.4452  0.3403
 9490TIP3    H228435   5.264   4.351   1.033 -0.4668 -4.6864 -0.3152
 9491TIP3   OH228436   7.141   6.453   4.184 -0.2092 -0.1465 -0.6834
 9491TIP3    H128437   7.079   6.392   4.145  1.5698 -2.6246  0.1395
 9491TIP3    H228438   7.120   6.452   4.277  0.7837 -0.7078 -0.4567
 9492TIP3   OH228439   0.797   6.512   0.184  0.3107 -0.9413 -0.1791
 9492TIP3    H128440   0.721   6.461   0.212  0.2912 -0.4351  0.7304
 9492TIP3    H228441   0.788   6.518   0.089 -1.8079  0.6787  0.0395
 9493TIP3   OH228442   3.679   0.875   4.867  0.0510  0.2344  0.4739
 9493TIP3    H128443   3.661   0.839   4.954  0.8167  0.3737  0.7050
 9493TIP3    H228444   3.770   0.848   4.849 -0.0600  0.3162 -0.2270
 9494TIP3   OH228445   3.779   0.264   1.126 -0.5355 -0.6627 -0.3391
 9494TIP3    H128446   3.845   0.208   1.085 -1.3645 -0.8247 -1.4857
 9494TIP3    H228447   3.767   0.226   1.213  1.3636 -0.2140  0.1670
 9495TIP3   OH228448   2.732   1.097   4.583  0.0734  0.1051  0.5006
 9495TIP3    H128449   2.796   1.112   4.514 -0.3732  2.6741  0.5378
 9495TIP3    H228450   2.784   1.094   4.664  0.4959 -1.9199  0.1923
 9496TIP3   OH228451   5.269   4.905   2.957 -0.9388  0.2528  0.4161
 9496TIP3    H128452   5.324   4.901   2.879 -0.4126  2.4248  0.6028
 9496TIP3    H228453   5.285   4.823   3.003  0.2151 -0.2328 -0.8027
 9497TIP3   OH228454   2.013   0.552   3.917 -0.0341 -0.1391  0.2343
 9497TIP3    H128455   1.969   0.519   3.995  0.5312  0.5230  0.8517
 9497TIP3    H228456   1.964   0.515   3.844 -0.7670 -0.5145  0.9031
 9498TIP3   OH228457   4.535   5.168   3.880  0.0472  0.0649 -0.1748
 9498TIP3    H128458   4.613   5.221   3.897  0.0517 -0.3177  1.0747
 9498TIP3    H228459   4.546   5.091   3.936 -1.4580  0.2347  0.4012
 9499TIP3   OH228460   3.403   1.310   1.214  0.2116  0.2541  0.3800
 9499TIP3    H128461   3.383   1.250   1.286 -2.0398  0.5651  0.1016
 9499TIP3    H228462   3.436   1.253   1.144 -0.7564 -0.5247  0.5333
 9500TIP3   OH228463   3.079   1.485   4.043 -0.5124 -0.7469  0.3054
 9500TIP3    H128464   3.023   1.559   4.064  0.3923 -0.1623  0.7200
 9500TIP3    H228465   3.056   1.418   4.108 -0.0888 -0.1710  1.0645
 9501TIP3   OH228466   3.096   3.342   1.186 -0.1578  0.7521 -0.0771
 9501TIP3    H128467   3.014   3.379   1.156  0.2772  1.4154 -0.4547
 9501TIP3    H228468   3.112   3.268   1.128 -0.3806  0.7446 -0.1296
 9502TIP3   OH228469   1.374   5.443   2.238 -0.2552 -0.6050 -0.1701
 9502TIP3    H128470   1.329   5.441   2.323 -0.6955  1.0693 -0.3311
 9502TIP3    H228471   1.311   5.484   2.179  1.4865  2.0355 -0.3490
 9503TIP3   OH228472   6.334   6.082   2.857  0.0255 -0.1127  0.3709
 9503TIP3    H128473   6.350   6.169   2.894  0.0146  0.6773 -1.3536
 9503TIP3    H228474   6.419   6.040   2.856  0.3912  0.5986 -0.4239
 9504TIP3   OH228475   5.199   2.739   0.739  0.2046  0.0001  0.1929
 9504TIP3    H128476   5.222   2.739   0.831  0.7521 -0.4917  0.0579
 9504TIP3    H228477   5.282   2.752   0.693 -0.3237  2.5555 -0.1867
 9505TIP3   OH228478   0.150   3.637   5.499 -0.1863 -0.0770  0.0598
 9505TIP3    H128479   0.141   3.549   5.461 -0.4237 -1.2370  2.6196
 9505TIP3    H228480   0.075   3.685   5.465 -0.8775 -1.3230 -0.2392
 9506TIP3   OH228481   4.251   1.408   2.310  0.1177  0.3136 -0.2233
 9506TIP3    H128482   4.303   1.479   2.272 -1.5169  0.6022 -2.0319
 9506TIP3    H228483   4.273   1.410   2.403  2.0929  1.4491 -0.6523
 9507TIP3   OH228484   1.831   5.104   4.257 -0.1079  0.5539 -0.2419
 9507TIP3    H128485   1.786   5.130   4.338 -1.2648  1.0398 -1.0267
 9507TIP3    H228486   1.911   5.060   4.288  0.4260  2.3909  1.1448
 9508TIP3   OH228487   1.394   6.656   1.329 -0.1316  0.6394 -0.1643
 9508TIP3    H128488   1.380   6.584   1.390  1.2864  0.1367 -0.3758
 9508TIP3    H228489   1.373   6.735   1.379  1.0608  0.2478  1.0348
 9509TIP3   OH228490   1.320   2.129   1.105  0.2885 -0.1929  0.2882
 9509TIP3    H128491   1.294   2.039   1.084 -0.5208 -0.2448  1.4020
 9509TIP3    H228492   1.401   2.119   1.155 -1.0358 -0.5513  2.5597
 9510TIP3   OH228493   6.657   0.485   3.817 -0.4628 -0.3090  0.2535
 9510TIP3    H128494   6.638   0.488   3.723 -2.6402  0.2919  0.6540
 9510TIP3    H228495   6.695   0.398   3.831 -1.1241 -0.8307 -1.0118
 9511TIP3   OH228496   4.866   6.112   5.069 -0.4046  0.0008 -0.4476
 9511TIP3    H128497   4.840   6.172   4.999  1.8134  0.9990 -0.4822
 9511TIP3    H228498   4.831   6.151   5.149  0.0587  0.7562 -0.6074
 9512TIP3   OH228499   4.776   1.957   4.913 -0.0515 -0.7028  0.3785
 9512TIP3    H128500   4.764   1.977   5.006  0.9604 -2.4600  0.9365
 9512TIP3    H228501   4.871   1.959   4.900 -0.2025  0.0007 -0.7498
 9513TIP3   OH228502   1.003   4.421   4.106  0.2572 -0.3592  0.0590
 9513TIP3    H128503   0.941   4.349   4.121  1.0599 -1.0546  0.0955
 9513TIP3    H228504   1.071   4.383   4.050  1.8806 -0.2990  1.9128
 9514TIP3   OH228505   1.666   3.753   3.727 -0.1417 -0.2957 -0.3681
 9514TIP3    H128506   1.625   3.667   3.731 -0.7749  0.0307  0.4759
 9514TIP3    H228507   1.599   3.813   3.762  0.3727  0.5046 -0.7253
 9515TIP3   OH228508   5.053   6.642   3.937  0.5087  0.0888  0.1404
 9515TIP3    H128509   5.091   6.568   3.888  2.2810  1.1571 -0.1966
 9515TIP3    H228510   4.983   6.674   3.880  2.3454  1.1369 -1.6995
 9516TIP3   OH228511   0.873   2.499   5.175 -0.9226  0.0181  0.1712
 9516TIP3    H128512   0.926   2.578   5.171 -0.4438 -0.3273 -0.5766
 9516TIP3    H228513   0.798   2.517   5.119  0.8822 -1.2446 -2.9234
 9517TIP3   OH228514   6.525   0.433   4.805  0.3937 -0.3822  0.2063
 9517TIP3    H128515   6.533   0.407   4.713  0.6573  0.7722 -0.1064
 9517TIP3    H228516   6.613   0.459   4.831 -0.0167  1.0777  0.2218
 9518TIP3   OH228517   6.878   5.514   5.711 -0.1502 -0.0359 -0.2661
 9518TIP3    H128518   6.942   5.459   5.757 -0.4272  0.2887  0.5274
 9518TIP3    H228519   6.893   5.496   5.619 -1.0156 -2.3891 -0.0318
 9519TIP3   OH228520   4.199   4.873   4.522 -0.6647  0.0364  0.3088
 9519TIP3    H128521   4.117   4.843   4.481 -2.5910  0.9277  3.1910
 9519TIP3    H228522   4.182   4.965   4.544  1.4832  0.4992  0.2480
 9520TIP3   OH228523   3.498   1.678   4.982 -0.3763 -0.5487 -0.5532
 9520TIP3    H128524   3.487   1.606   5.043  1.1053 -0.8128 -0.5606
 9520TIP3    H228525   3.499   1.757   5.036 -1.2313 -0.5799 -0.4740
 9521TIP3   OH228526   0.680   6.644   4.997  0.1996  0.3332  0.2157
 9521TIP3    H128527   0.638   6.634   4.912  0.3841  1.9217 -0.1000
 9521TIP3    H228528   0.693   6.738   5.006  0.0325  0.2062  2.0862
 9522TIP3   OH228529   6.555   6.163   3.449 -0.0241  0.3694 -0.3877
 9522TIP3    H128530   6.627   6.116   3.407  0.0509  0.3882 -0.2810
 9522TIP3    H228531   6.598   6.219   3.514 -0.1380  0.3527 -0.2972
 9523TIP3   OH228532   1.973   0.819   2.998  0.1564 -0.2687  0.2326
 9523TIP3    H128533   2.049   0.832   2.940 -1.5389  1.8249 -1.7163
 9523TIP3    H228534   1.976   0.892   3.059  0.3573 -0.8834  0.9778
 9524TIP3   OH228535   6.929   0.650   2.805 -0.5254 -0.6638 -0.3212
 9524TIP3    H128536   6.854   0.592   2.791  0.1045 -1.5919  0.0737
 9524TIP3    H228537   6.890   0.738   2.809 -1.4542 -1.0044 -1.2608
 9525TIP3   OH228538   2.576   0.496   1.638 -0.3873 -0.3045  0.3359
 9525TIP3    H128539   2.509   0.560   1.663  1.0176  1.3723 -0.0764
 9525TIP3    H228540   2.590   0.511   1.544  1.0206 -0.1889  0.5481
 9526TIP3   OH228541   4.663   5.968   3.949  0.4819 -0.3071  0.0338
 9526TIP3    H128542   4.637   6.056   3.977  0.0024 -0.9614  1.7571
 9526TIP3    H228543   4.652   5.914   4.027  0.8083 -1.8996 -0.9839
 9527TIP3   OH228544   3.806   2.012   4.206  0.4362  0.7152  0.2719
 9527TIP3    H128545   3.806   1.918   4.223  0.6654  0.5748 -0.4617
 9527TIP3    H228546   3.755   2.050   4.278  1.2672  0.1517  1.1934
 9528TIP3   OH228547   4.025   1.217   3.336  0.0726  0.3156 -0.1475
 9528TIP3    H128548   4.073   1.157   3.278 -0.0792 -0.1805  0.2330
 9528TIP3    H228549   3.933   1.203   3.314  0.0929  1.3495 -0.9547
 9529TIP3   OH228550   5.505   0.826   1.223 -0.3088 -0.0167  0.5634
 9529TIP3    H128551   5.533   0.916   1.242  1.6358  0.1926 -2.6490
 9529TIP3    H228552   5.587   0.776   1.220 -0.8437 -0.8793 -2.1903
 9530TIP3   OH228553   2.524   0.858   0.329 -0.2519 -0.0100  0.2970
 9530TIP3    H128554   2.471   0.791   0.373  0.1534 -0.6773 -0.2202
 9530TIP3    H228555   2.532   0.826   0.239  1.8283 -0.4209  0.5819
 9531TIP3   OH228556   7.021   3.481   3.153  0.0569  0.1278  0.0135
 9531TIP3    H128557   7.080   3.427   3.099 -0.4100  1.1823 -1.6164
 9531TIP3    H228558   6.937   3.477   3.108 -0.2985  1.2278  0.5531
 9532TIP3   OH228559   2.504   3.549   5.852 -0.0275 -0.0141 -0.6416
 9532TIP3    H128560   2.468   3.601   5.781 -2.2996 -0.1673  0.2895
 9532TIP3    H228561   2.518   3.462   5.814  0.0390  0.2540 -1.2314
 9533TIP3   OH228562   0.839   0.848   0.892  0.6899 -0.1959 -0.2129
 9533TIP3    H128563   0.930   0.852   0.862  0.4636  0.6297 -0.8229
 9533TIP3    H228564   0.798   0.925   0.853  0.2409  0.6146  1.7686
 9534TIP3   OH228565   5.001   6.690   4.762 -0.2037 -0.5862 -0.4440
 9534TIP3    H128566   4.916   6.703   4.719 -0.5922  1.0595  0.7207
 9534TIP3    H228567   5.059   6.754   4.721 -1.0449  2.3422  2.5349
 9535TIP3   OH228568   1.265   2.250   2.602 -0.2644 -0.1173  0.1687
 9535TIP3    H128569   1.304   2.311   2.540 -1.0773  0.1002 -0.1465
 9535TIP3    H228570   1.200   2.202   2.550 -1.5428  0.6408  1.0278
 9536TIP3   OH228571   6.842   2.219   0.699 -0.5205 -0.2701  0.0761
 9536TIP3    H128572   6.822   2.149   0.636  2.6702 -1.0067 -0.3034
 9536TIP3    H228573   6.938   2.219   0.705 -0.5927  1.1418  3.4475
 9537TIP3   OH228574   4.704   1.609   1.178  0.2350 -0.1312  0.3038
 9537TIP3    H128575   4.633   1.615   1.113  0.4629 -0.8867 -0.0242
 9537TIP3    H228576   4.667   1.648   1.257 -0.4231 -0.1846  0.0298
 9538TIP3   OH228577   0.997   0.997   5.100  0.4527 -0.3117 -1.0813
 9538TIP3    H128578   0.936   1.061   5.137  2.0239 -0.4835  2.1264
 9538TIP3    H228579   1.017   1.032   5.013  1.0409  3.5586  0.3928
 9539TIP3   OH228580   2.262   3.963   1.846  0.2450 -0.1980 -0.5334
 9539TIP3    H128581   2.224   4.030   1.790  1.0184  0.0165 -0.8193
 9539TIP3    H228582   2.356   3.967   1.828  0.2093 -2.1207 -1.4230
 9540TIP3   OH228583   6.023   6.026   0.419  0.4769  0.1198  0.3566
 9540TIP3    H128584   5.995   5.995   0.505 -0.6409  0.1530  0.0227
 9540TIP3    H228585   5.944   6.065   0.381  0.6688 -0.8326 -1.0952
 9541TIP3   OH228586   6.318   2.054   1.778  0.2019  1.1165 -0.0773
 9541TIP3    H128587   6.366   2.018   1.703 -0.2153  2.2713 -0.9134
 9541TIP3    H228588   6.295   1.977   1.830  2.0811  0.4378 -0.1536
 9542TIP3   OH228589   6.923   0.681   3.650  0.4574 -0.4195 -0.4705
 9542TIP3    H128590   6.847   0.722   3.690  0.2811 -0.2016 -1.0130
 9542TIP3    H228591   6.887   0.627   3.579  0.7693 -0.6863 -0.4301
 9543TIP3   OH228592   1.668   0.919   2.746 -0.1838 -0.3470  0.2548
 9543TIP3    H128593   1.677   0.975   2.669 -1.2220  0.5940  0.7785
 9543TIP3    H228594   1.743   0.861   2.743 -0.3261 -0.4881 -1.5885
 9544TIP3   OH228595   2.586   0.846   5.164 -0.5241  1.0383 -0.0682
 9544TIP3    H128596   2.660   0.859   5.105  0.4832  0.1901  0.9578
 9544TIP3    H228597   2.510   0.875   5.114  0.1953 -0.1810 -2.0047
 9545TIP3   OH228598   0.938   1.381   0.548 -0.1652  0.1417  0.0970
 9545TIP3    H128599   0.942   1.324   0.471 -1.6794  2.2845 -1.7241
 9545TIP3    H228600   1.030   1.396   0.571  0.2935 -2.5895  0.4160
 9546TIP3   OH228601   5.401   2.697   2.283  0.2016  0.5243  0.4158
 9546TIP3    H128602   5.341   2.715   2.210 -0.5555 -0.0285  0.8839
 9546TIP3    H228603   5.349   2.645   2.344  0.9923  0.5255  1.1059
 9547TIP3   OH228604   4.718   3.510   1.858 -0.1355  0.1995 -0.4929
 9547TIP3    H128605   4.663   3.459   1.799 -1.0391  1.3904 -0.7073
 9547TIP3    H228606   4.668   3.515   1.940  0.0192  0.6234 -0.4236
 9548TIP3   OH228607   4.027   3.243   1.561  0.1725 -0.0889  0.0500
 9548TIP3    H128608   3.991   3.296   1.632  1.6330  0.4444  0.4191
 9548TIP3    H228609   4.006   3.153   1.584 -0.3101  0.1595  0.5937
 9549TIP3   OH228610   0.521   2.945   3.334  0.2220 -0.5095 -0.4421
 9549TIP3    H128611   0.469   3.016   3.371 -0.2137 -1.5358  1.0032
 9549TIP3    H228612   0.517   2.959   3.239  0.4636  1.5789 -0.1936
 9550TIP3   OH228613   6.046   6.478   4.164  0.0094 -0.1674 -0.2430
 9550TIP3    H128614   6.135   6.512   4.166  0.0927 -0.2860 -1.4235
 9550TIP3    H228615   6.009   6.513   4.083 -0.8117 -0.6389 -0.0807
 9551TIP3   OH228616   2.332   1.521   5.307  0.3009  0.2053 -0.8670
 9551TIP3    H128617   2.304   1.431   5.288  1.9608 -0.8847  1.3742
 9551TIP3    H228618   2.422   1.525   5.275  0.2475  1.0610 -0.9100
 9552TIP3   OH228619   2.740   6.254   3.224 -0.7992 -0.0734  0.3259
 9552TIP3    H128620   2.771   6.241   3.134 -0.5625 -0.5567  0.4748
 9552TIP3    H228621   2.657   6.300   3.214 -1.1070 -0.7251 -0.1738
 9553TIP3   OH228622   4.520   6.403   2.660  0.1648  0.1835  0.1430
 9553TIP3    H128623   4.526   6.338   2.731  0.9440  0.2821  0.1789
 9553TIP3    H228624   4.521   6.488   2.705  2.6596  0.3307 -0.0136
 9554TIP3   OH228625   1.620   3.194   3.621 -0.3597 -0.4429  0.5107
 9554TIP3    H128626   1.545   3.186   3.562 -0.4308 -1.5715  0.7213
 9554TIP3    H228627   1.686   3.135   3.583 -0.3639 -1.0905  1.4892
 9555TIP3   OH228628   0.167   2.654   4.041 -0.5083 -0.3370 -0.2814
 9555TIP3    H128629   0.099   2.687   3.982 -0.2596 -0.0724 -0.4260
 9555TIP3    H228630   0.185   2.565   4.010  0.0040 -0.0131 -0.9580
 9556TIP3   OH228631   2.863   1.083   4.300 -0.0058 -0.0547 -0.4893
 9556TIP3    H128632   2.901   1.016   4.243  0.9422 -2.6264  2.8012
 9556TIP3    H228633   2.937   1.140   4.321 -0.0816  0.2084 -0.9342
 9557TIP3   OH228634   5.815   5.344   4.320  0.6660 -0.5494 -0.3637
 9557TIP3    H128635   5.758   5.301   4.384 -0.9627  0.4977 -1.0403
 9557TIP3    H228636   5.880   5.277   4.298 -0.7239 -2.0719 -0.0963
 9558TIP3   OH228637   2.509   1.753   2.204 -0.5214  0.3181  0.0129
 9558TIP3    H128638   2.589   1.707   2.227  0.1196  1.0108 -0.7515
 9558TIP3    H228639   2.515   1.836   2.252 -0.1333  0.9243 -1.0457
 9559TIP3   OH228640   4.323   0.033   2.499  0.3450  0.0859 -0.2879
 9559TIP3    H128641   4.394  -0.016   2.459 -0.7440 -0.0316 -2.2554
 9559TIP3    H228642   4.272   0.065   2.424 -0.0122  2.6814  0.9509
 9560TIP3   OH228643   2.574   2.035   5.174 -0.4343 -0.0642 -0.1931
 9560TIP3    H128644   2.490   2.037   5.221 -0.3563  1.4702 -0.0602
 9560TIP3    H228645   2.561   2.092   5.099  0.2955 -0.3257 -0.5242
 9561TIP3   OH228646   5.082   6.047   2.568  0.1559 -0.4105  0.2500
 9561TIP3    H128647   5.129   5.965   2.580 -0.0919 -0.5552  0.2463
 9561TIP3    H228648   5.150   6.114   2.570  0.1561 -0.3710  2.8620
 9562TIP3   OH228649   2.092   3.186   2.866 -0.1694  0.4758 -0.7780
 9562TIP3    H128650   2.182   3.217   2.866 -0.1830  0.7219 -3.1971
 9562TIP3    H228651   2.100   3.090   2.865  0.0041  0.4643  0.3220
 9563TIP3   OH228652   4.187   5.644   0.118 -0.0272  0.0565 -0.2034
 9563TIP3    H128653   4.146   5.689   0.191  0.0255  0.4135 -0.3931
 9563TIP3    H228654   4.123   5.651   0.046  0.4880  0.8702 -0.5872
 9564TIP3   OH228655   4.412   4.086   3.553  0.1301 -0.1617 -0.4982
 9564TIP3    H128656   4.322   4.080   3.524 -0.2948 -1.1794  0.9145
 9564TIP3    H228657   4.446   4.165   3.510 -1.8118  0.9806 -0.0488
 9565TIP3   OH228658   0.807   4.459   3.383  0.3702 -0.1233  0.4976
 9565TIP3    H128659   0.783   4.418   3.300  0.4086 -1.2567  1.0365
 9565TIP3    H228660   0.723   4.479   3.425  0.3383  1.0569 -0.0830
 9566TIP3   OH228661   3.014   4.216   2.322 -0.3319 -1.0318 -0.9674
 9566TIP3    H128662   2.971   4.200   2.238 -0.1467 -2.5019 -0.8206
 9566TIP3    H228663   2.992   4.140   2.375 -0.0412 -0.3579  0.1574
 9567TIP3   OH228664   2.800   6.163   2.961  0.4281  0.1231 -0.1725
 9567TIP3    H128665   2.850   6.128   2.887  0.9183  0.8433 -0.1887
 9567TIP3    H228666   2.709   6.151   2.937  0.5822 -0.4944 -0.4848
 9568TIP3   OH228667   2.674   2.429   5.111  0.2922  0.0476  0.1728
 9568TIP3    H128668   2.586   2.412   5.076 -0.3397  1.8754  0.7814
 9568TIP3    H228669   2.660   2.445   5.204  1.4675 -0.9363  0.5453
 9569TIP3   OH228670   6.411   3.646   3.017 -0.3587 -0.0399  0.2335
 9569TIP3    H128671   6.357   3.723   3.035 -0.6515 -1.0646  5.4088
 9569TIP3    H228672   6.354   3.571   3.036  1.4288 -1.3205  0.8346
 9570TIP3   OH228673   3.791   0.395   0.140 -0.8409 -0.2878 -0.4512
 9570TIP3    H128674   3.794   0.452   0.063 -1.3006  0.4179  0.0349
 9570TIP3    H228675   3.700   0.364   0.143 -0.7848 -0.4367 -0.2789
 9571TIP3   OH228676   2.729   3.639   0.386 -0.2512  0.3586  0.1583
 9571TIP3    H128677   2.779   3.563   0.355 -0.0183  0.8860 -0.7847
 9571TIP3    H228678   2.765   3.657   0.473 -1.7248 -1.8845  1.3642
 9572TIP3   OH228679   3.550   6.484   3.405  0.2802  0.0630  0.1462
 9572TIP3    H128680   3.491   6.413   3.378  1.2295  0.1166 -2.3344
 9572TIP3    H228681   3.635   6.442   3.416  0.8631  0.7522 -1.3960
 9573TIP3   OH228682   6.468   6.092   0.099 -0.2486  0.2169 -0.4831
 9573TIP3    H128683   6.508   6.033   0.035 -1.9996 -0.2758 -1.1826
 9573TIP3    H228684   6.380   6.057   0.112  0.1820  0.0469  2.5675
 9574TIP3   OH228685   2.990   3.225   2.791 -0.5039  0.4431 -0.1241
 9574TIP3    H128686   3.038   3.167   2.851 -0.0617 -1.4168 -2.1534
 9574TIP3    H228687   3.056   3.252   2.727 -1.3957  0.7805 -0.9122
 9575TIP3   OH228688   6.811   1.632   1.172 -0.6579 -0.6683 -0.3152
 9575TIP3    H128689   6.856   1.696   1.227  0.2442 -0.6411 -1.0532
 9575TIP3    H228690   6.739   1.681   1.132  0.4408  0.1010 -1.4145
 9576TIP3   OH228691   3.962   0.627   5.308 -0.0687 -0.6170 -0.3264
 9576TIP3    H128692   3.968   0.557   5.373 -0.8030  2.2890  3.2139
 9576TIP3    H228693   3.869   0.651   5.308  0.3669  1.2160 -0.3541
 9577TIP3   OH228694   5.930   0.917   3.205 -0.2143  0.2408  0.2762
 9577TIP3    H128695   5.837   0.910   3.186  0.3768 -2.5011 -2.2191
 9577TIP3    H228696   5.974   0.883   3.127  2.9286  1.4209  1.3480
 9578TIP3   OH228697   0.572   5.320   0.574 -0.1849  0.4280  0.2968
 9578TIP3    H128698   0.586   5.243   0.520  1.2654 -0.3910  1.7502
 9578TIP3    H228699   0.525   5.288   0.651 -0.8597  1.2887  0.2687
 9579TIP3   OH228700   5.880   4.017   4.373  0.2189 -0.5601  0.1252
 9579TIP3    H128701   5.891   3.993   4.465  1.9494  0.8493  0.3319
 9579TIP3    H228702   5.925   3.947   4.325  0.5207 -0.5736  0.4239
 9580TIP3   OH228703   5.117   6.394   3.802  0.0147 -0.0105 -0.3194
 9580TIP3    H128704   5.081   6.430   3.722 -1.7255 -2.8780 -0.9874
 9580TIP3    H228705   5.171   6.320   3.773  0.1026 -0.5299  1.0744
 9581TIP3   OH228706   4.164   6.701   4.120 -0.1584  0.3720  0.1663
 9581TIP3    H128707   4.142   6.777   4.174  0.1607  0.6327 -0.0642
 9581TIP3    H228708   4.215   6.644   4.178 -0.4401  0.3112  0.3548
 9582TIP3   OH228709   7.043   2.805   4.152 -0.2996  0.0704  0.0159
 9582TIP3    H128710   7.105   2.868   4.118  1.0481  0.1303  2.3656
 9582TIP3    H228711   6.966   2.857   4.176  0.6258  0.8031  1.5105
 9583TIP3   OH228712   1.503   1.209   3.219 -0.1258  0.1028 -0.2692
 9583TIP3    H128713   1.550   1.152   3.158  0.4935 -1.8009  1.8212
 9583TIP3    H228714   1.560   1.285   3.230  0.6195 -0.3762 -0.7188
 9584TIP3   OH228715   2.570   4.308   5.889  0.1454  0.6968 -0.3560
 9584TIP3    H128716   2.663   4.330   5.885  0.0452  1.1311 -0.3583
 9584TIP3    H228717   2.525   4.391   5.874 -0.2518  0.2906 -1.4740
 9585TIP3   OH228718   6.680   2.722   3.427  0.2231 -0.2870 -0.3083
 9585TIP3    H128719   6.697   2.628   3.423  0.8671 -0.1538 -1.2755
 9585TIP3    H228720   6.648   2.744   3.339 -0.6874  0.2628  0.1518
 9586TIP3   OH228721   3.340   0.909   3.194 -0.1306 -0.7085  0.3074
 9586TIP3    H128722   3.391   0.840   3.237  0.7184 -0.3845 -0.1492
 9586TIP3    H228723   3.403   0.952   3.136  0.6004  3.2276  3.5667
 9587TIP3   OH228724   1.529   5.613   1.246 -0.3559  0.4201 -0.7080
 9587TIP3    H128725   1.572   5.620   1.160  1.2607 -0.9108 -0.0578
 9587TIP3    H228726   1.461   5.547   1.234 -0.3726  0.4925 -1.0375
 9588TIP3   OH228727   3.980   1.003   1.843 -0.4852 -0.8061  0.0831
 9588TIP3    H128728   3.920   0.933   1.815 -0.6814 -0.4734 -0.3576
 9588TIP3    H228729   3.964   1.013   1.936 -3.6704  1.5898 -0.5392
 9589TIP3   OH228730   1.637   5.691   4.597 -0.6239  0.3633 -0.2704
 9589TIP3    H128731   1.622   5.694   4.502  0.8755  0.4582 -0.5222
 9589TIP3    H228732   1.730   5.710   4.607 -1.1259  2.1895  1.3618
 9590TIP3   OH228733   3.084   3.211   2.367  0.6101 -0.4418  0.1914
 9590TIP3    H128734   3.165   3.175   2.330 -1.0111 -2.2176 -1.8292
 9590TIP3    H228735   3.048   3.140   2.420 -1.2608 -0.9580 -1.6534
 9591TIP3   OH228736   0.197   1.917   0.474 -0.2073 -0.0250 -0.1614
 9591TIP3    H128737   0.289   1.944   0.478 -0.3847  0.6564 -0.5367
 9591TIP3    H228738   0.193   1.857   0.399 -0.4172  1.4179 -1.3573
 9592TIP3   OH228739   5.339   5.328   3.047 -0.2735 -0.1671  0.0175
 9592TIP3    H128740   5.325   5.242   3.087  0.2333  0.1589  0.9179
 9592TIP3    H228741   5.262   5.341   2.991 -1.4351 -0.2627  1.5347
 9593TIP3   OH228742   4.840   3.683   1.679 -0.0252  0.0281 -0.9723
 9593TIP3    H128743   4.789   3.672   1.598 -1.3971 -1.1233 -0.0054
 9593TIP3    H228744   4.804   3.617   1.739  0.5973  1.2016  0.7566
 9594TIP3   OH228745   2.164   0.581   0.142  0.3841 -0.0838  0.4386
 9594TIP3    H128746   2.239   0.573   0.083 -0.2661 -1.2032 -0.2845
 9594TIP3    H228747   2.150   0.492   0.175 -0.6296  0.1061  0.5468
 9595TIP3   OH228748   3.637   3.784   1.642 -0.0888  0.0637 -0.2810
 9595TIP3    H128749   3.578   3.777   1.567 -0.0908 -0.2691 -0.2490
 9595TIP3    H228750   3.721   3.812   1.606 -0.2092  0.3325 -0.3529
 9596TIP3   OH228751   7.006   3.117   3.039 -0.4727 -0.2268  0.4870
 9596TIP3    H128752   6.980   3.208   3.024 -1.0212 -0.5907 -0.9773
 9596TIP3    H228753   7.096   3.112   3.006 -0.6566 -0.3434 -0.0099
 9597TIP3   OH228754   3.810   3.231   3.291 -0.1825 -0.1786  0.4496
 9597TIP3    H128755   3.858   3.312   3.307 -0.4624  0.2673 -0.8404
 9597TIP3    H228756   3.872   3.162   3.315  0.2131  0.4005  1.1465
 9598TIP3   OH228757   2.646   2.914   2.987 -0.0629  0.7477  0.3611
 9598TIP3    H128758   2.682   2.830   2.958  0.0444  0.8823  0.1028
 9598TIP3    H228759   2.561   2.920   2.944  0.9785  1.9140 -1.6703
 9599TIP3   OH228760   1.708   0.518   5.303  0.2448 -0.0867 -0.0403
 9599TIP3    H128761   1.645   0.466   5.254  1.4447 -1.2754 -0.3613
 9599TIP3    H228762   1.707   0.604   5.260 -0.6108 -0.3113 -0.4851
 9600TIP3   OH228763   0.657   6.574   2.951  0.5858  0.2704  0.6166
 9600TIP3    H128764   0.702   6.491   2.942  0.2152 -0.1015  1.8716
 9600TIP3    H228765   0.725   6.636   2.978  1.0958  0.6883 -1.4903
 9601TIP3   OH228766   4.479   2.014   0.263 -0.2836 -0.1033  0.2708
 9601TIP3    H128767   4.447   2.104   0.268 -0.9980 -0.3869  1.0212
 9601TIP3    H228768   4.400   1.961   0.262  0.0875 -0.8687  3.1564
 9602TIP3   OH228769   4.173   2.873   5.228  0.2347 -0.4080  0.2281
 9602TIP3    H128770   4.199   2.950   5.278  2.0068  0.0481 -1.2747
 9602TIP3    H228771   4.091   2.898   5.185 -0.3792 -0.1945  1.4750
 9603TIP3   OH228772   1.580   6.468   3.942 -0.6901  0.0539 -0.1156
 9603TIP3    H128773   1.583   6.548   3.890 -0.9405  0.4739  0.4976
 9603TIP3    H228774   1.603   6.398   3.881 -1.1778  0.5082 -0.8303
 9604TIP3   OH228775   1.191   3.763   5.098  0.2271  0.6915  0.3913
 9604TIP3    H128776   1.278   3.791   5.068 -0.0168  1.2448  0.1862
 9604TIP3    H228777   1.132   3.791   5.029 -0.1795  0.7864  0.7753
 9605TIP3   OH228778   0.901   3.862   1.544 -0.2711  0.1537  0.1411
 9605TIP3    H128779   0.867   3.898   1.626 -0.4189 -2.2141  1.1963
 9605TIP3    H228780   0.823   3.850   1.490 -0.5357 -0.8380  0.7286
 9606TIP3   OH228781   4.330   2.420   3.873 -0.1671  0.2150 -0.2574
 9606TIP3    H128782   4.425   2.413   3.870  0.0047  2.1900 -1.1693
 9606TIP3    H228783   4.313   2.485   3.942 -0.8153  0.4126 -0.5986
 9607TIP3   OH228784   6.087   2.182   1.878 -0.7691 -0.1547  0.0554
 9607TIP3    H128785   6.057   2.104   1.923 -1.1965  0.0371  0.1124
 9607TIP3    H228786   6.175   2.160   1.847  0.2436  0.2833  2.4091
 9608TIP3   OH228787   0.567   0.060   1.097 -0.2120 -0.2727 -0.4083
 9608TIP3    H128788   0.513   0.025   1.027  0.9683 -0.9620 -1.0026
 9608TIP3    H228789   0.594   0.147   1.066 -0.8840  0.0299 -0.1542
 9609TIP3   OH228790   2.866   3.369   5.853 -0.5412 -0.3453 -0.2357
 9609TIP3    H128791   2.924   3.408   5.918 -0.2945  1.9037 -1.6890
 9609TIP3    H228792   2.902   3.281   5.837  2.9571  1.1468 -1.5585
 9610TIP3   OH228793   1.325   0.424   1.620 -0.2111 -0.4659  0.2000
 9610TIP3    H128794   1.406   0.376   1.601 -1.2833 -2.3401  0.1949
 9610TIP3    H228795   1.305   0.402   1.711 -1.1247 -0.6623 -0.0378
 9611TIP3   OH228796   7.065   6.697   0.616  0.5204  0.1199 -0.0275
 9611TIP3    H128797   7.113   6.726   0.694  0.0674 -1.3203  0.8475
 9611TIP3    H228798   6.985   6.750   0.616  0.0543 -0.5283  1.1019
 9612TIP3   OH228799   1.876   2.739   2.437 -0.3140 -0.2205 -0.2789
 9612TIP3    H128800   1.920   2.654   2.438 -1.8124 -1.0177 -0.0400
 9612TIP3    H228801   1.864   2.758   2.344 -0.7325 -0.6915 -0.3276
 9613TIP3   OH228802   5.858   2.367   4.846  0.3398  0.4886 -0.2361
 9613TIP3    H128803   5.771   2.358   4.885  1.1567 -1.4077  1.2922
 9613TIP3    H228804   5.862   2.298   4.780 -0.0204  1.9305 -1.8566
 9614TIP3   OH228805   3.493   4.947   1.276 -0.2362  0.0938  0.1621
 9614TIP3    H128806   3.410   4.937   1.324  0.0182  1.3732  0.9005
 9614TIP3    H228807   3.561   4.941   1.344  0.5172 -3.3001 -0.6776
 9615TIP3   OH228808   1.180   3.084   0.265  0.7716 -0.0753 -0.0216
 9615TIP3    H128809   1.127   3.020   0.314  0.4620 -0.7409 -1.1853
 9615TIP3    H228810   1.259   3.036   0.242  0.9384  0.2529 -0.1323
 9616TIP3   OH228811   6.431   3.991   3.462 -0.2450 -0.6385 -0.3294
 9616TIP3    H128812   6.450   3.909   3.416 -1.2010 -0.0830 -1.7848
 9616TIP3    H228813   6.458   4.059   3.401  0.5554  0.1500  0.8768
 9617TIP3   OH228814   0.977   1.446   0.826 -0.3704 -0.2298 -0.1016
 9617TIP3    H128815   0.939   1.391   0.758 -1.0533 -1.8462  1.4963
 9617TIP3    H228816   0.970   1.394   0.906  0.4506  1.5595  1.2179
 9618TIP3   OH228817   3.514   2.441   0.913  0.1887 -0.3619  0.1325
 9618TIP3    H128818   3.525   2.532   0.885 -1.3202 -0.7605 -1.9904
 9618TIP3    H228819   3.603   2.409   0.924  0.7892  0.9404 -0.6267
 9619TIP3   OH228820   2.544   5.982   1.505 -0.9970 -0.0320 -0.4204
 9619TIP3    H128821   2.502   6.065   1.485 -0.7750  0.0379 -0.6022
 9619TIP3    H228822   2.553   5.939   1.419 -1.1956 -0.2826 -0.3174
 9620TIP3   OH228823   4.383   2.966   1.224 -0.1265 -0.6321 -0.4814
 9620TIP3    H128824   4.417   3.037   1.278 -2.0759 -0.5276  0.6986
 9620TIP3    H228825   4.446   2.895   1.235  1.7229  0.7557 -1.4627
 9621TIP3   OH228826   4.254   1.969   0.586  0.0786  0.7201  0.1871
 9621TIP3    H128827   4.317   1.934   0.523 -0.4593 -0.9650  0.5366
 9621TIP3    H228828   4.205   2.035   0.537  0.4359  0.2490 -0.8318
 9622TIP3   OH228829   1.627   0.885   1.181 -0.0877  0.2068 -0.1583
 9622TIP3    H128830   1.613   0.952   1.115 -0.7052  1.2308  0.9618
 9622TIP3    H228831   1.563   0.816   1.160  0.3861  0.0644 -1.1695
 9623TIP3   OH228832   0.839   4.577   5.535 -0.0182 -0.5434 -0.3449
 9623TIP3    H128833   0.762   4.633   5.518  0.1153 -1.1290 -3.4913
 9623TIP3    H228834   0.804   4.502   5.582 -0.6444  0.9526  1.6924
 9624TIP3   OH228835   3.838   3.402   5.567 -0.3810 -0.4847 -0.1653
 9624TIP3    H128836   3.798   3.316   5.553 -0.6451 -0.1945 -1.2957
 9624TIP3    H228837   3.913   3.403   5.507 -0.0671 -0.1231  0.2293
 9625TIP3   OH228838   0.796   2.208   1.735 -0.3468 -0.0148  0.0903
 9625TIP3    H128839   0.835   2.241   1.816  0.3753  0.0491 -0.2737
 9625TIP3    H228840   0.871   2.189   1.678 -0.7761 -1.5295 -0.0117
 9626TIP3   OH228841   2.372   5.886   3.791 -0.3509  0.3622  0.5750
 9626TIP3    H128842   2.334   5.972   3.773 -1.6261 -0.2915  0.0066
 9626TIP3    H228843   2.303   5.838   3.836 -0.0122 -0.6698  0.0318
 9627TIP3   OH228844   0.125   5.794   5.909 -0.6339 -0.1209  0.4283
 9627TIP3    H128845   0.064   5.721   5.920  1.7674 -2.2149  1.0835
 9627TIP3    H228846   0.145   5.794   5.815 -1.0900  0.0949  0.3305
 9628TIP3   OH228847   2.649   6.811   4.313 -0.3030 -0.3075 -0.0293
 9628TIP3    H128848   2.665   6.777   4.401  1.0331 -0.4673 -0.3184
 9628TIP3    H228849   2.608   6.738   4.267  2.6856 -1.6906 -0.6903
 9629TIP3   OH228850   3.571   0.428   1.232  0.2576  0.1508 -0.1486
 9629TIP3    H128851   3.543   0.495   1.170  1.3392  1.6580  0.9007
 9629TIP3    H228852   3.617   0.364   1.179 -1.9922 -0.5591 -1.3896
 9630TIP3   OH228853   4.972   2.309   4.410  0.5630 -0.1971 -0.5790
 9630TIP3    H128854   5.053   2.358   4.420  0.4231 -0.2992  1.5918
 9630TIP3    H228855   4.960   2.265   4.494 -0.0835 -2.8018 -1.9225
 9631TIP3   OH228856   4.112   5.668   2.126  0.0741  0.3179  0.4183
 9631TIP3    H128857   4.157   5.596   2.172 -1.4228 -0.9999 -0.0826
 9631TIP3    H228858   4.182   5.715   2.081  1.0852 -1.0457  0.4946
 9632TIP3   OH228859   2.563   3.920   5.500  0.5541  0.0931 -0.1881
 9632TIP3    H128860   2.618   3.995   5.523  0.8222 -0.3745  0.7482
 9632TIP3    H228861   2.618   3.867   5.443 -0.2730  1.4864 -2.4271
 9633TIP3   OH228862   1.117   0.780   5.273  1.0201 -0.2340 -0.1204
 9633TIP3    H128863   1.122   0.690   5.242 -1.2919  0.2735 -2.3995
 9633TIP3    H228864   1.055   0.822   5.213 -2.0987  1.5917  3.8904
 9634TIP3   OH228865   3.773   3.009   4.318 -0.0637  0.3470  0.0719
 9634TIP3    H128866   3.839   3.020   4.249 -0.1261  2.6396  0.2975
 9634TIP3    H228867   3.690   3.001   4.271  0.1835 -1.3161 -0.1668
 9635TIP3   OH228868   7.189   0.561   4.289 -0.2044 -0.9276  0.3972
 9635TIP3    H128869   7.129   0.501   4.333  0.8052 -3.1086 -1.0191
 9635TIP3    H228870   7.207   0.519   4.204 -0.5607  2.1192 -1.3224
 9636TIP3   OH228871   5.075   4.034   3.605  0.2618  0.3773  0.1670
 9636TIP3    H128872   5.091   4.122   3.569  0.3341 -0.1289 -1.0883
 9636TIP3    H228873   5.051   4.050   3.696 -0.5208  1.7645 -0.2454
 9637TIP3   OH228874   3.867   2.665   5.560  0.4829  0.5414  1.0464
 9637TIP3    H128875   3.939   2.663   5.497 -1.3092  1.8068 -1.2520
 9637TIP3    H228876   3.803   2.602   5.526 -0.9326  1.9349  0.9956
 9638TIP3   OH228877   0.247   6.312   5.374  0.1307  0.0562  0.0878
 9638TIP3    H128878   0.213   6.294   5.285 -0.2513 -0.6779  0.3677
 9638TIP3    H228879   0.221   6.402   5.391 -0.3127  0.0178 -0.3269
 9639TIP3   OH228880   3.914   1.924   3.129 -0.2488 -1.3533  0.5030
 9639TIP3    H128881   3.850   1.961   3.191 -0.3500  0.1167 -0.4342
 9639TIP3    H228882   3.869   1.850   3.089 -1.2406 -0.5722  0.1421
 9640TIP3   OH228883   3.401   5.880   3.324  0.2766  0.0219  0.2739
 9640TIP3    H128884   3.487   5.878   3.364  0.5431  0.2032 -0.2846
 9640TIP3    H228885   3.357   5.801   3.356  1.4048 -1.2178 -1.1102
 9641TIP3   OH228886   2.820   0.843   5.039  0.1181 -0.2612  0.0011
 9641TIP3    H128887   2.884   0.893   5.089  1.2100 -1.8438  0.2708
 9641TIP3    H228888   2.858   0.837   4.951 -0.7374  0.6311 -0.4521
 9642TIP3   OH228889   1.278   5.208   3.032  1.0202  0.6040 -0.4186
 9642TIP3    H128890   1.341   5.196   3.103 -0.0433  2.2658  0.8717
 9642TIP3    H228891   1.200   5.161   3.060  0.9316  0.3924 -0.9922
 9643TIP3   OH228892   2.201   6.309   0.067 -0.3984  0.2321  0.6099
 9643TIP3    H128893   2.173   6.265  -0.013 -1.6349  0.2937  0.9788
 9643TIP3    H228894   2.224   6.398   0.040  0.8350 -0.2402  0.0680
 9644TIP3   OH228895   4.590   1.015   0.243  0.4157 -0.4392  0.3064
 9644TIP3    H128896   4.560   0.946   0.184  1.5448 -0.3294 -0.4254
 9644TIP3    H228897   4.588   0.975   0.330  1.5563 -1.5855 -0.1638
 9645TIP3   OH228898   3.270   3.239   4.215  0.8228  0.3677  0.0639
 9645TIP3    H128899   3.282   3.155   4.172  0.9011  1.3163 -1.8908
 9645TIP3    H228900   3.219   3.219   4.294  0.9506 -1.5000 -0.2927
 9646TIP3   OH228901   5.914   6.005   1.092  0.4389  0.5017 -0.0075
 9646TIP3    H128902   5.873   5.932   1.046  1.8148  0.4853 -1.2894
 9646TIP3    H228903   5.854   6.026   1.163 -0.2857 -1.4698  0.0138
 9647TIP3   OH228904   1.405   1.981   5.187 -0.3387  0.7059  0.6431
 9647TIP3    H128905   1.435   2.043   5.253 -1.4435  1.1583  0.7477
 9647TIP3    H228906   1.309   1.984   5.194 -0.4278 -0.2099 -0.0883
 9648TIP3   OH228907   5.043   5.412   1.305 -0.3629  0.7909 -0.1665
 9648TIP3    H128908   5.053   5.471   1.379  0.5035  1.1058 -0.5241
 9648TIP3    H228909   5.130   5.407   1.266 -0.0076 -1.9065  0.7398
 9649TIP3   OH228910   0.649   5.454   4.009 -0.6297  0.6636  0.1088
 9649TIP3    H128911   0.560   5.482   4.031 -0.4762  2.4191 -1.2505
 9649TIP3    H228912   0.697   5.536   3.995  1.2787 -0.2455  1.0238
 9650TIP3   OH228913   3.327   6.096   2.134 -0.4511  0.6560 -0.1945
 9650TIP3    H128914   3.409   6.087   2.085 -0.1749 -0.9838  0.4768
 9650TIP3    H228915   3.271   6.151   2.078  0.2266 -0.2414 -1.8500
 9651TIP3   OH228916   0.814   5.462   4.893 -1.0749  0.1548  0.3611
 9651TIP3    H128917   0.862   5.423   4.966 -0.1741  0.2682 -0.1548
 9651TIP3    H228918   0.881   5.510   4.844 -1.6631  0.0408 -0.5613
 9652TIP3   OH228919   1.112   5.847   4.915  0.4836 -0.6887 -0.0557
 9652TIP3    H128920   1.018   5.833   4.900  0.2575 -0.2806  0.9232
 9652TIP3    H228921   1.139   5.772   4.967  0.3209  0.0329  1.0989
 9653TIP3   OH228922   0.706   0.322   3.786 -0.3361 -0.0364  0.1214
 9653TIP3    H128923   0.662   0.239   3.804 -1.1253  0.4040  0.3159
 9653TIP3    H228924   0.797   0.298   3.768 -0.3824 -0.8753  0.8940
 9654TIP3   OH228925   3.194   5.237   5.471 -0.0476  0.0756  0.3058
 9654TIP3    H128926   3.225   5.149   5.450  3.5314  0.8761  1.6112
 9654TIP3    H228927   3.192   5.282   5.386  0.7654 -0.4952 -0.0220
 9655TIP3   OH228928   5.801   0.045   3.069  0.1953  0.3080  0.3104
 9655TIP3    H128929   5.888   0.082   3.083  0.2727  0.3271 -0.2134
 9655TIP3    H228930   5.810  -0.047   3.095  0.2655  0.4067  0.6409
 9656TIP3   OH228931   7.001   1.704   3.832  0.0452  0.1960 -0.3697
 9656TIP3    H128932   7.057   1.745   3.897  0.1987  2.0648 -1.6226
 9656TIP3    H228933   7.060   1.647   3.783  0.6455  1.3190 -0.9837
 9657TIP3   OH228934   7.069   6.005   0.047 -0.7007 -0.3715  0.1441
 9657TIP3    H128935   7.014   5.979  -0.027 -0.8301  0.5735 -0.1034
 9657TIP3    H228936   7.152   5.961   0.032 -0.4703  0.4023 -0.9876
 9658TIP3   OH228937   1.653   1.652   1.509 -0.0237  0.5640  0.6029
 9658TIP3    H128938   1.711   1.614   1.575  0.4847  2.2825  1.2084
 9658TIP3    H228939   1.687   1.740   1.495 -0.4556  0.4430 -1.5840
 9659TIP3   OH228940   5.750   0.092   3.477  0.4704 -1.1091  0.0096
 9659TIP3    H128941   5.845   0.083   3.485  0.3396 -1.6059  1.2096
 9659TIP3    H228942   5.715   0.009   3.509 -0.3806 -0.8288 -0.1544
 9660TIP3   OH228943   1.123   4.086   0.123 -0.4654 -0.2162 -0.5333
 9660TIP3    H128944   1.182   4.112   0.053  1.9109 -1.1016  1.0239
 9660TIP3    H228945   1.075   4.011   0.087  0.0167 -0.0608 -1.5280
 9661TIP3   OH228946   0.517   2.826   0.833  0.6254  0.2059  0.0747
 9661TIP3    H128947   0.428   2.860   0.820  0.6839  0.1601 -0.4674
 9661TIP3    H228948   0.504   2.733   0.852  0.5288  0.3040  0.4963
 9662TIP3   OH228949   3.490   6.624   5.348  0.1140 -0.3682 -0.0223
 9662TIP3    H128950   3.536   6.637   5.265  1.6128 -1.7016  0.5417
 9662TIP3    H228951   3.405   6.665   5.335  0.3607 -0.4280 -2.1724
 9663TIP3   OH228952   6.081   2.950   1.067 -0.0527  0.1758  0.0020
 9663TIP3    H128953   6.032   2.926   1.146 -1.3921 -0.3581 -0.9583
 9663TIP3    H228954   6.014   2.980   1.005  0.4965 -2.4099 -2.0542
 9664TIP3   OH228955   2.175   5.863   0.487 -0.2701 -0.2391  0.0091
 9664TIP3    H128956   2.218   5.941   0.452  1.4790 -0.5002  1.4411
 9664TIP3    H228957   2.177   5.800   0.415  1.5726 -0.1421 -0.0763
 9665TIP3   OH228958   6.924   3.106   1.619  0.2167 -0.2470 -0.5998
 9665TIP3    H128959   6.945   3.134   1.530 -0.4588  0.4773 -0.5413
 9665TIP3    H228960   6.946   3.181   1.674 -0.1422 -0.3876 -0.2521
 9666TIP3   OH228961   3.729   2.687   5.239 -0.3933  0.3945 -0.3596
 9666TIP3    H128962   3.817   2.648   5.236 -0.1584  0.5831  2.1454
 9666TIP3    H228963   3.682   2.644   5.167  1.0189 -1.5750 -0.2030
 9667TIP3   OH228964   3.777   3.497   1.003 -0.6153  0.0678  0.2693
 9667TIP3    H128965   3.863   3.537   0.995 -1.4497  1.6249 -1.7386
 9667TIP3    H228966   3.792   3.404   0.993  0.6129  0.4991 -2.9744
 9668TIP3   OH228967   2.042   4.822   3.613  0.3854  0.5512 -0.0205
 9668TIP3    H128968   2.073   4.838   3.702  0.4273  0.7915 -0.0781
 9668TIP3    H228969   2.115   4.777   3.570  0.0444 -0.3588  0.3159
 9669TIP3   OH228970   6.939   5.010   3.590  0.1274 -0.1086  0.1487
 9669TIP3    H128971   7.025   4.972   3.572  0.6798  1.5658 -0.9707
 9669TIP3    H228972   6.956   5.078   3.655 -0.2665  0.5910 -0.4760
 9670TIP3   OH228973   3.363   6.650   1.947 -0.2878 -0.0131 -0.0510
 9670TIP3    H128974   3.336   6.678   2.035  0.5813 -1.1978  0.6183
 9670TIP3    H228975   3.377   6.556   1.955  1.1431  0.0817 -1.1030
 9671TIP3   OH228976   4.797   3.910   5.876 -0.5570  0.0826 -0.2588
 9671TIP3    H128977   4.867   3.946   5.823 -1.1898  1.7617 -0.0150
 9671TIP3    H228978   4.797   3.816   5.856  2.2501 -0.1209  0.3558
 9672TIP3   OH228979   0.473   0.566   2.176  0.0846 -0.1651  0.5012
 9672TIP3    H128980   0.490   0.576   2.083  1.0158 -0.3014  0.6451
 9672TIP3    H228981   0.423   0.643   2.200 -0.6905 -0.4289 -0.2329
 9673TIP3   OH228982   5.714   4.438   5.546 -0.0845  0.5074  0.5223
 9673TIP3    H128983   5.749   4.486   5.621 -0.3377  0.7135  0.5116
 9673TIP3    H228984   5.656   4.501   5.502  1.7396  1.1659 -1.1176
 9674TIP3   OH228985   3.765   1.178   0.138 -0.2028 -0.0737  0.1690
 9674TIP3    H128986   3.775   1.264   0.180  1.4366  0.2641 -0.8426
 9674TIP3    H228987   3.674   1.176   0.109 -0.1946  1.4238 -0.0205
 9675TIP3   OH228988   0.844   4.930   0.454  0.0341  0.1835  0.3125
 9675TIP3    H128989   0.750   4.949   0.448 -0.0037  0.6024  1.8029
 9675TIP3    H228990   0.858   4.859   0.392 -1.2691  0.1535  0.0249
 9676TIP3   OH228991   3.598   0.622   0.857  0.0272  0.0683 -0.1188
 9676TIP3    H128992   3.603   0.716   0.841  0.1046  0.0047 -0.4786
 9676TIP3    H228993   3.537   0.613   0.931 -2.1370  0.2411 -1.7682
 9677TIP3   OH228994   0.103   2.484   4.266 -0.0344 -0.0371 -0.0602
 9677TIP3    H128995   0.116   2.547   4.195  0.4762  0.6716  0.6483
 9677TIP3    H228996   0.097   2.537   4.345  1.8728 -0.9476  0.7531
 9678TIP3   OH228997   2.924   3.105   5.419  0.3167  0.4170 -0.7670
 9678TIP3    H128998   3.009   3.113   5.375  0.4554  2.8458 -0.2462
 9678TIP3    H228999   2.872   3.176   5.383 -1.1881 -0.4586 -0.3833
 9679TIP3   OH229000   0.113   4.526   0.948  0.0506 -1.0013 -0.2166
 9679TIP3    H129001   0.106   4.583   0.871  2.6233  0.4486  0.5271
 9679TIP3    H229002   0.041   4.554   1.005  0.8616  1.1451 -0.1573
 9680TIP3   OH229003   3.310   4.669   3.710 -0.2838  0.4263 -0.1971
 9680TIP3    H129004   3.339   4.681   3.801 -1.6959 -1.4254  0.5650
 9680TIP3    H229005   3.309   4.757   3.673 -0.3245  1.3078  1.7820
 9681TIP3   OH229006   2.269   4.813   1.908 -0.1597  0.0148  0.0796
 9681TIP3    H129007   2.361   4.833   1.889 -0.2221 -0.0185 -0.2591
 9681TIP3    H229008   2.221   4.845   1.832 -0.5574  1.1059  0.7599
 9682TIP3   OH229009   0.059   6.171   3.762  0.3593 -0.1252 -0.6401
 9682TIP3    H129010   0.006   6.204   3.689 -1.0951  1.6565  1.1081
 9682TIP3    H229011   0.115   6.244   3.787  0.3602 -0.4748  0.4459
 9683TIP3   OH229012   6.503   5.413   3.917  0.2234 -0.4545 -0.0654
 9683TIP3    H129013   6.492   5.436   4.010 -1.2144 -2.0802  0.2053
 9683TIP3    H229014   6.473   5.491   3.870 -0.1537 -0.0403  0.8299
 9684TIP3   OH229015   6.110   0.404   1.714  0.3750  0.0712  0.2555
 9684TIP3    H129016   6.115   0.314   1.680  2.8895  0.2234  0.0339
 9684TIP3    H229017   6.158   0.456   1.649 -2.3565  1.9044 -0.4508
 9685TIP3   OH229018   5.645   0.964   1.683 -0.5889 -0.4841  0.4339
 9685TIP3    H129019   5.697   0.920   1.615 -0.1486 -0.8146  0.9676
 9685TIP3    H229020   5.587   1.023   1.635  0.3939  0.0207 -0.1815
 9686TIP3   OH229021   4.711   5.526   5.773  0.8949  0.0064  0.7745
 9686TIP3    H129022   4.728   5.550   5.864 -1.7932 -1.4034  1.7547
 9686TIP3    H229023   4.755   5.442   5.762  0.7892 -0.0689  0.9266
 9687TIP3   OH229024   6.228   4.939   3.172  0.3491  0.1767  0.2928
 9687TIP3    H129025   6.254   4.959   3.262  0.4675 -1.7395  0.7421
 9687TIP3    H229026   6.196   4.849   3.176  0.0636  0.1557 -1.5393
 9688TIP3   OH229027   6.434   3.423   3.717 -0.5821 -0.2262  0.3846
 9688TIP3    H129028   6.354   3.370   3.715 -1.0442  0.3566 -2.7491
 9688TIP3    H229029   6.495   3.376   3.660  0.6487  0.3116  1.2290
 9689TIP3   OH229030   5.848   5.660   4.806 -0.2458 -0.0647  0.0445
 9689TIP3    H129031   5.884   5.725   4.745 -0.0678  0.2137  0.4402
 9689TIP3    H229032   5.775   5.621   4.759  1.4001 -1.6478 -1.3679
 9690TIP3   OH229033   3.967   1.510   1.681  0.2971 -0.0511 -0.4186
 9690TIP3    H129034   4.003   1.590   1.718  0.8441 -0.1041 -0.8327
 9690TIP3    H229035   3.890   1.538   1.631  0.6771  0.2570 -0.8354
 9691TIP3   OH229036   4.322   3.922   0.367 -0.0208 -0.1998 -0.3348
 9691TIP3    H129037   4.345   3.864   0.294 -1.1497 -0.2431 -0.6749
 9691TIP3    H229038   4.312   4.008   0.327  0.2950 -0.0308 -0.0585
 9692TIP3   OH229039   1.762   1.503   1.142 -0.0162  0.1465  0.2339
 9692TIP3    H129040   1.745   1.410   1.158  0.4717 -0.0111 -0.1157
 9692TIP3    H229041   1.807   1.533   1.221 -0.5210  0.1860  0.5106
 9693TIP3   OH229042   3.460   1.823   3.161  0.1982 -0.3352 -0.2278
 9693TIP3    H129043   3.468   1.794   3.253 -2.6810 -0.4543  0.0674
 9693TIP3    H229044   3.473   1.918   3.165  1.2722 -0.4801  0.0946
 9694TIP3   OH229045   1.207   2.783   3.065 -0.0505  0.5104  0.3235
 9694TIP3    H129046   1.262   2.847   3.110  0.1783  0.0270  0.7386
 9694TIP3    H229047   1.133   2.834   3.031  0.1162  0.9862  0.6721
 9695TIP3   OH229048   0.620   6.111   3.538 -0.3934 -0.6242  0.0205
 9695TIP3    H129049   0.682   6.108   3.610 -0.5081  0.8315  0.2148
 9695TIP3    H229050   0.550   6.168   3.569  0.1464  1.0713 -1.6468
 9696TIP3   OH229051   3.312   4.406   0.841 -0.3303 -0.6213  0.1073
 9696TIP3    H129052   3.392   4.357   0.861  0.8152  1.6394  1.4698
 9696TIP3    H229053   3.324   4.433   0.750  0.2582 -0.6697  0.1644
 9697TIP3   OH229054   3.416   0.217   2.679  0.4307 -0.2208 -0.0543
 9697TIP3    H129055   3.424   0.155   2.751 -0.9993  0.1735  0.4734
 9697TIP3    H229056   3.359   0.286   2.712  2.1785  1.5543 -0.5257
 9698TIP3   OH229057   0.581   5.678   3.497  0.9157  0.0799 -0.3169
 9698TIP3    H129058   0.646   5.644   3.558 -1.2302 -3.2189  0.3719
 9698TIP3    H229059   0.587   5.619   3.421 -1.6740 -0.7739  0.0766
 9699TIP3   OH229060   1.643   2.510   0.357  0.3902 -0.0905  0.1394
 9699TIP3    H129061   1.615   2.441   0.418 -0.7453 -0.5832 -0.9037
 9699TIP3    H229062   1.632   2.472   0.270  3.4578  0.0583 -0.4011
 9700TIP3   OH229063   2.255   2.654   3.449 -0.3890  0.1812  0.4261
 9700TIP3    H129064   2.189   2.722   3.432  0.1111  0.6161  0.2261
 9700TIP3    H229065   2.338   2.694   3.424  0.2409  0.4137  2.6553
 9701TIP3   OH229066   3.228   5.711   0.421  0.1211 -0.1292  0.2130
 9701TIP3    H129067   3.303   5.733   0.476  0.2558 -3.8993  1.8988
 9701TIP3    H229068   3.265   5.660   0.349 -0.5650  0.3959 -0.5302
 9702TIP3   OH229069   1.647   1.134   4.582  0.1566 -0.0103  0.4138
 9702TIP3    H129070   1.576   1.128   4.518 -0.2131  1.5731  0.6527
 9702TIP3    H229071   1.604   1.128   4.667  0.3845  0.3233  0.5526
 9703TIP3   OH229072   3.792   0.426   0.869 -0.5428  0.5150  0.3846
 9703TIP3    H129073   3.765   0.355   0.928 -1.1335  0.3738 -0.0428
 9703TIP3    H229074   3.714   0.481   0.862 -1.3109 -0.7475 -2.1448
 9704TIP3   OH229075   2.722   5.811   5.170  0.2295 -0.1277  0.1281
 9704TIP3    H129076   2.698   5.725   5.205  0.6199 -1.2201 -2.0835
 9704TIP3    H229077   2.794   5.840   5.225 -1.0904 -0.3258  2.0629
 9705TIP3   OH229078   2.888   4.934   2.204  0.0873 -0.1259 -0.0905
 9705TIP3    H129079   2.815   4.878   2.233 -0.0909 -0.0358 -0.3647
 9705TIP3    H229080   2.873   4.947   2.111  0.1659  0.3242 -0.0435
 9706TIP3   OH229081   0.370   3.453   4.161  0.1566 -0.2821 -0.8594
 9706TIP3    H129082   0.363   3.476   4.253  1.6548 -1.2063 -0.4707
 9706TIP3    H229083   0.286   3.413   4.139 -1.0220  1.8808 -0.5133
 9707TIP3   OH229084   5.508   0.901   3.425  0.1963 -0.3002  0.2705
 9707TIP3    H129085   5.436   0.956   3.455  0.0024  0.2393 -1.1047
 9707TIP3    H229086   5.582   0.926   3.479 -0.1185  0.6912  0.2614
 9708TIP3   OH229087   2.362   5.882   1.061 -0.3288  0.2906 -0.1615
 9708TIP3    H129088   2.354   5.849   0.971  0.0322 -0.2692  0.0045
 9708TIP3    H229089   2.371   5.976   1.052  0.5970  0.1572 -0.7681
 9709TIP3   OH229090   4.629   4.904   1.074 -0.4163 -0.2159 -0.1729
 9709TIP3    H129091   4.673   4.989   1.079 -0.5538 -0.2012  1.1674
 9709TIP3    H229092   4.660   4.866   0.992 -1.3880  1.6747 -1.4877
 9710TIP3   OH229093   6.383   5.122   3.370 -0.0015  0.0407 -0.0844
 9710TIP3    H129094   6.432   5.176   3.308 -1.0928  0.6871 -0.4120
 9710TIP3    H229095   6.391   5.168   3.454 -1.6227  1.2171 -0.5285
 9711TIP3   OH229096   4.549   0.903   3.084  0.1696  0.1875  0.0803
 9711TIP3    H129097   4.549   0.999   3.079 -0.1662  0.1668 -0.3852
 9711TIP3    H229098   4.640   0.878   3.067  0.4585  0.4603  1.1440
 9712TIP3   OH229099   3.901   6.037   4.405 -0.5405  0.1441  0.1688
 9712TIP3    H129100   3.890   6.092   4.482 -0.7186 -1.8961  1.6999
 9712TIP3    H229101   3.965   5.971   4.431 -1.8417 -1.6224 -0.7856
 9713TIP3   OH229102   6.489   1.748   3.403 -0.4255  0.1610 -0.4714
 9713TIP3    H129103   6.476   1.773   3.312 -2.1901  1.3723  0.0449
 9713TIP3    H229104   6.497   1.653   3.401 -1.1478  0.1026 -1.8290
 9714TIP3   OH229105   3.068   0.660   5.015 -0.5453  0.1877  0.0105
 9714TIP3    H129106   3.082   0.606   5.093  0.4643 -1.1277 -1.0283
 9714TIP3    H229107   3.142   0.721   5.016 -0.0007 -0.4389 -0.3686
 9715TIP3   OH229108   3.799   5.376   1.698  0.1719  0.2103 -0.1828
 9715TIP3    H129109   3.846   5.387   1.780 -0.3235  1.1097 -0.0032
 9715TIP3    H229110   3.718   5.331   1.722 -0.8345  2.0791  0.1626
 9716TIP3   OH229111   5.496   1.494   4.996 -0.6881  0.4724  0.0191
 9716TIP3    H129112   5.591   1.502   4.997 -0.5319 -0.1974 -2.5408
 9716TIP3    H229113   5.480   1.401   5.012 -1.0187  0.7504  1.4928
 9717TIP3   OH229114   2.217   4.933   2.525  0.3525 -0.1105 -0.8164
 9717TIP3    H129115   2.306   4.951   2.558  0.8984 -1.2115 -1.5999
 9717TIP3    H229116   2.211   4.837   2.525 -1.4985 -0.0527  0.8908
 9718TIP3   OH229117   5.439   4.535   2.814  0.0005 -0.3640  0.3341
 9718TIP3    H129118   5.373   4.578   2.868 -0.6007  0.3212 -0.8970
 9718TIP3    H229119   5.437   4.443   2.842  1.2275  0.3205  2.9246
 9719TIP3   OH229120   6.846   4.013   5.743 -0.3812 -0.0906  0.3874
 9719TIP3    H129121   6.883   3.960   5.673  0.7899  0.4873  0.5422
 9719TIP3    H229122   6.876   3.969   5.823 -0.8544 -0.1660  0.5236
 9720TIP3   OH229123   0.207   6.574   0.078 -0.3978 -0.3366 -0.3027
 9720TIP3    H129124   0.286   6.524   0.099  1.9081  3.0124 -0.0767
 9720TIP3    H229125   0.146   6.554   0.149  1.2520 -1.1557  0.9685
 9721TIP3   OH229126   4.804   0.419   2.102 -0.0592 -0.2596  0.1136
 9721TIP3    H129127   4.748   0.356   2.148 -0.6843  0.2500  0.0633
 9721TIP3    H229128   4.747   0.494   2.085  0.6953  0.3546  0.2342
 9722TIP3   OH229129   7.065   3.736   0.509 -0.1254 -0.0189  0.1826
 9722TIP3    H129130   7.005   3.757   0.581 -0.9043  2.5476 -1.0658
 9722TIP3    H229131   7.129   3.677   0.548 -2.1112 -1.0118  2.1973
 9723TIP3   OH229132   0.195   3.188   4.430  0.2500 -0.5214  0.8136
 9723TIP3    H129133   0.238   3.259   4.478  1.7627 -0.2255 -0.8898
 9723TIP3    H229134   0.126   3.231   4.380  0.2350 -0.4717  0.8760
 9724TIP3   OH229135   1.219   2.852   4.189 -0.4523 -0.0644 -0.5756
 9724TIP3    H129136   1.236   2.767   4.149  0.7643 -0.1191  0.0056
 9724TIP3    H229137   1.128   2.848   4.217  0.1192 -1.9689  1.2780
 9725TIP3   OH229138   3.403   0.219   5.822 -0.1894  0.0886 -0.3232
 9725TIP3    H129139   3.369   0.289   5.879 -0.1483  0.2498 -0.4937
 9725TIP3    H229140   3.390   0.253   5.733  0.1873  0.0435 -0.3968
 9726TIP3   OH229141   3.310   2.298   5.185  0.3951 -0.9250 -0.3531
 9726TIP3    H129142   3.227   2.295   5.137 -0.8246 -0.6049  1.6219
 9726TIP3    H229143   3.322   2.209   5.217  1.4837 -1.2687 -1.6223
 9727TIP3   OH229144   3.283   3.948   1.552  0.1962 -0.2407  0.0432
 9727TIP3    H129145   3.244   4.020   1.501 -1.4406 -0.9329  0.2315
 9727TIP3    H229146   3.326   3.894   1.486 -0.5838 -0.3116 -0.4324
 9728TIP3   OH229147   5.133   6.568   0.624  0.0513  0.2649  0.5523
 9728TIP3    H129148   5.067   6.632   0.648 -0.8396  0.1852 -1.4924
 9728TIP3    H229149   5.086   6.485   0.620  0.3316  0.1388 -0.5066
 9729TIP3   OH229150   5.192   0.708   3.906 -0.2237 -0.0028  0.3945
 9729TIP3    H129151   5.115   0.763   3.916 -0.8674 -1.0796  1.5193
 9729TIP3    H229152   5.246   0.728   3.982  1.0428  1.3426 -0.7840
 9730TIP3   OH229153   6.242   6.183   1.125 -0.1847  0.0108 -0.1355
 9730TIP3    H129154   6.285   6.265   1.147  1.6710  0.0161 -3.1417
 9730TIP3    H229155   6.213   6.195   1.034 -0.1680 -2.4866 -0.5425
 9731TIP3   OH229156   5.791   5.722   1.007 -0.2160  0.0074  0.0748
 9731TIP3    H129157   5.748   5.730   0.922  0.9247  0.2349 -0.5062
 9731TIP3    H229158   5.871   5.672   0.989  1.7591  2.8172  0.3182
 9732TIP3   OH229159   4.029   5.542   3.265 -0.3397 -0.3141 -0.7035
 9732TIP3    H129160   4.048   5.448   3.261  0.1651 -0.2149 -0.7570
 9732TIP3    H229161   4.114   5.584   3.250 -0.8108  0.1675 -2.1822
 9733TIP3   OH229162   3.041   0.909   4.546 -0.1118  0.7567  0.4025
 9733TIP3    H129163   3.046   0.992   4.499  0.1892 -0.2222 -1.3911
 9733TIP3    H229164   3.111   0.856   4.507  0.3129 -0.0371  2.1627
 9734TIP3   OH229165   4.735   1.166   3.883 -0.0048  0.1054  0.0623
 9734TIP3    H129166   4.713   1.259   3.888  0.8384  0.2577  1.3270
 9734TIP3    H229167   4.656   1.124   3.850 -0.5678  1.2032 -0.0212
 9735TIP3   OH229168   3.286   1.607   3.699  0.3914 -0.4280  0.0471
 9735TIP3    H129169   3.244   1.689   3.726  1.5535  0.1351  0.1946
 9735TIP3    H229170   3.324   1.573   3.780 -1.6040 -2.0645  0.3639
 9736TIP3   OH229171   4.655   4.035   4.564 -0.4665 -0.0024 -0.3035
 9736TIP3    H129172   4.635   4.039   4.471  0.0878 -2.9819 -0.6409
 9736TIP3    H229173   4.724   4.100   4.577  0.5085 -0.5897 -2.2789
 9737TIP3   OH229174   2.587   0.386   4.530  0.1812 -0.0059  0.4426
 9737TIP3    H129175   2.635   0.348   4.603 -1.2798  2.0181  2.5686
 9737TIP3    H229176   2.642   0.459   4.501  1.4317 -1.6142 -1.5231
 9738TIP3   OH229177   2.387   0.846   1.497  0.0100  0.2310  0.0461
 9738TIP3    H129178   2.376   0.872   1.405  0.8223  1.5744  0.2903
 9738TIP3    H229179   2.357   0.923   1.546  3.0768  1.0493  0.8162
 9739TIP3   OH229180   5.087   4.923   1.056  0.0077  0.1600 -0.0588
 9739TIP3    H129181   5.119   4.892   0.972 -3.3432 -0.6007 -1.1939
 9739TIP3    H229182   5.152   4.892   1.119  2.3935  0.3715 -2.2470
 9740TIP3   OH229183   2.176   0.727   4.832 -0.3598  0.2737 -0.3005
 9740TIP3    H129184   2.085   0.731   4.803 -0.8363 -0.4857  1.0125
 9740TIP3    H229185   2.222   0.684   4.760 -1.3774 -0.9428 -0.2627
 9741TIP3   OH229186   5.498   6.337   5.736 -0.3639  0.1359  0.3194
 9741TIP3    H129187   5.446   6.408   5.773 -0.3278  0.5121 -0.3188
 9741TIP3    H229188   5.521   6.369   5.648  0.2910 -0.3482  0.3116
 9742TIP3   OH229189   4.943   6.242   2.430 -0.2004 -0.0853  0.0822
 9742TIP3    H129190   5.003   6.175   2.461  1.6096  0.6582 -1.6120
 9742TIP3    H229191   4.951   6.313   2.494  0.6393 -0.0634 -0.0334
 9743TIP3   OH229192   0.326   5.417   1.388 -0.1071 -0.4509 -0.1414
 9743TIP3    H129193   0.248   5.371   1.417 -0.1028 -0.2095  0.2660
 9743TIP3    H229194   0.331   5.400   1.294 -0.4865 -0.7055 -0.1172
 9744TIP3   OH229195   6.744   5.466   4.581  0.0264 -0.3424  0.7706
 9744TIP3    H129196   6.758   5.536   4.517 -0.8639 -0.4337  0.4662
 9744TIP3    H229197   6.832   5.438   4.605  0.4002  0.9158  0.9386
 9745TIP3   OH229198   3.223   5.003   3.858 -0.4565 -0.3453 -0.3141
 9745TIP3    H129199   3.286   4.934   3.879 -2.0264 -1.7552  0.0336
 9745TIP3    H229200   3.251   5.035   3.772  1.2761 -0.2195  0.2551
 9746TIP3   OH229201   6.302   3.097   1.194  0.1604  0.2297 -0.2324
 9746TIP3    H129202   6.210   3.119   1.182  0.8123  3.0489 -0.7566
 9746TIP3    H229203   6.347   3.181   1.196  2.4466 -0.8550  2.8556
 9747TIP3   OH229204   6.568   1.329   2.779  0.1253 -0.0121 -0.1899
 9747TIP3    H129205   6.524   1.402   2.735  1.3696  1.0811  0.3342
 9747TIP3    H229206   6.557   1.346   2.872 -1.0601 -1.4490 -0.0165
 9748TIP3   OH229207   5.053   3.737   1.020  0.0793  0.3931 -0.3302
 9748TIP3    H129208   5.057   3.717   0.927 -1.6437  0.2437 -0.3945
 9748TIP3    H229209   5.001   3.817   1.025 -1.5543 -0.6780  0.6088
 9749TIP3   OH229210   2.374   3.777   4.689 -0.3504 -0.0634  0.6068
 9749TIP3    H129211   2.329   3.828   4.622 -0.5242 -2.0534 -0.8662
 9749TIP3    H229212   2.405   3.842   4.752 -0.4697  1.8491 -1.2195
   7.20782   6.79561   5.88516   0.00000   0.00000  -2.40261   0.00000  -2.40261  -3.39781
