;;
;; Generated by CHARMM-GUI FF-Converter
;;
;; Correspondance:
;; jul316@lehigh.edu or wonpil@lehigh.edu
;;
;; GROMACS topology file for PROA
;;


[ moleculetype ]
; name	nrexcl
PROA	     3

[ atoms ]
; nr	type	resnr	residu	atom	cgnr	charge	mass
     1        NH3      1      GLY      N      1    -0.300000    14.0070   ; qtot -0.300
     2         HC      1      GLY    HT1      2     0.330000     1.0080   ; qtot  0.030
     3         HC      1      GLY    HT2      3     0.330000     1.0080   ; qtot  0.360
     4         HC      1      GLY    HT3      4     0.330000     1.0080   ; qtot  0.690
     5        CT2      1      GLY     CA      5     0.130000    12.0110   ; qtot  0.820
     6        HB2      1      GLY    HA1      6     0.090000     1.0080   ; qtot  0.910
     7        HB2      1      GLY    HA2      7     0.090000     1.0080   ; qtot  1.000
     8          C      1      GLY      C      8     0.510000    12.0110   ; qtot  1.510
     9          O      1      GLY      O      9    -0.510000    15.9994   ; qtot  1.000
    10        NH1      2      ASP      N     10    -0.470000    14.0070   ; qtot  0.530
    11          H      2      ASP     HN     11     0.310000     1.0080   ; qtot  0.840
    12        CT1      2      ASP     CA     12     0.070000    12.0110   ; qtot  0.910
    13        HB1      2      ASP     HA     13     0.090000     1.0080   ; qtot  1.000
    14       CT2A      2      ASP     CB     14    -0.280000    12.0110   ; qtot  0.720
    15        HA2      2      ASP    HB1     15     0.090000     1.0080   ; qtot  0.810
    16        HA2      2      ASP    HB2     16     0.090000     1.0080   ; qtot  0.900
    17         CC      2      ASP     CG     17     0.620000    12.0110   ; qtot  1.520
    18         OC      2      ASP    OD1     18    -0.760000    15.9994   ; qtot  0.760
    19         OC      2      ASP    OD2     19    -0.760000    15.9994   ; qtot  0.000
    20          C      2      ASP      C     20     0.510000    12.0110   ; qtot  0.510
    21          O      2      ASP      O     21    -0.510000    15.9994   ; qtot  0.000
    22        NH1      3      SER      N     22    -0.470000    14.0070   ; qtot -0.470
    23          H      3      SER     HN     23     0.310000     1.0080   ; qtot -0.160
    24        CT1      3      SER     CA     24     0.070000    12.0110   ; qtot -0.090
    25        HB1      3      SER     HA     25     0.090000     1.0080   ; qtot  0.000
    26        CT2      3      SER     CB     26     0.050000    12.0110   ; qtot  0.050
    27        HA2      3      SER    HB1     27     0.090000     1.0080   ; qtot  0.140
    28        HA2      3      SER    HB2     28     0.090000     1.0080   ; qtot  0.230
    29        OH1      3      SER     OG     29    -0.660000    15.9994   ; qtot -0.430
    30          H      3      SER    HG1     30     0.430000     1.0080   ; qtot -0.000
    31          C      3      SER      C     31     0.510000    12.0110   ; qtot  0.510
    32          O      3      SER      O     32    -0.510000    15.9994   ; qtot  0.000
    33        NH1      4      GLY      N     33    -0.470000    14.0070   ; qtot -0.470
    34          H      4      GLY     HN     34     0.310000     1.0080   ; qtot -0.160
    35        CT2      4      GLY     CA     35    -0.020000    12.0110   ; qtot -0.180
    36        HB2      4      GLY    HA1     36     0.090000     1.0080   ; qtot -0.090
    37        HB2      4      GLY    HA2     37     0.090000     1.0080   ; qtot  0.000
    38          C      4      GLY      C     38     0.510000    12.0110   ; qtot  0.510
    39          O      4      GLY      O     39    -0.510000    15.9994   ; qtot  0.000
    40        NH1      5      SER      N     40    -0.470000    14.0070   ; qtot -0.470
    41          H      5      SER     HN     41     0.310000     1.0080   ; qtot -0.160
    42        CT1      5      SER     CA     42     0.070000    12.0110   ; qtot -0.090
    43        HB1      5      SER     HA     43     0.090000     1.0080   ; qtot  0.000
    44        CT2      5      SER     CB     44     0.050000    12.0110   ; qtot  0.050
    45        HA2      5      SER    HB1     45     0.090000     1.0080   ; qtot  0.140
    46        HA2      5      SER    HB2     46     0.090000     1.0080   ; qtot  0.230
    47        OH1      5      SER     OG     47    -0.660000    15.9994   ; qtot -0.430
    48          H      5      SER    HG1     48     0.430000     1.0080   ; qtot -0.000
    49          C      5      SER      C     49     0.510000    12.0110   ; qtot  0.510
    50          O      5      SER      O     50    -0.510000    15.9994   ; qtot  0.000
    51        NH1      6      GLY      N     51    -0.470000    14.0070   ; qtot -0.470
    52          H      6      GLY     HN     52     0.310000     1.0080   ; qtot -0.160
    53        CT2      6      GLY     CA     53    -0.020000    12.0110   ; qtot -0.180
    54        HB2      6      GLY    HA1     54     0.090000     1.0080   ; qtot -0.090
    55        HB2      6      GLY    HA2     55     0.090000     1.0080   ; qtot  0.000
    56          C      6      GLY      C     56     0.510000    12.0110   ; qtot  0.510
    57          O      6      GLY      O     57    -0.510000    15.9994   ; qtot  0.000
    58          N      7      PRO      N     58    -0.290000    14.0070   ; qtot -0.290
    59        CP3      7      PRO     CD     59     0.000000    12.0110   ; qtot -0.290
    60        HA2      7      PRO    HD1     60     0.090000     1.0080   ; qtot -0.200
    61        HA2      7      PRO    HD2     61     0.090000     1.0080   ; qtot -0.110
    62        CP1      7      PRO     CA     62     0.020000    12.0110   ; qtot -0.090
    63        HB1      7      PRO     HA     63     0.090000     1.0080   ; qtot  0.000
    64        CP2      7      PRO     CB     64    -0.180000    12.0110   ; qtot -0.180
    65        HA2      7      PRO    HB1     65     0.090000     1.0080   ; qtot -0.090
    66        HA2      7      PRO    HB2     66     0.090000     1.0080   ; qtot  0.000
    67        CP2      7      PRO     CG     67    -0.180000    12.0110   ; qtot -0.180
    68        HA2      7      PRO    HG1     68     0.090000     1.0080   ; qtot -0.090
    69        HA2      7      PRO    HG2     69     0.090000     1.0080   ; qtot  0.000
    70          C      7      PRO      C     70     0.510000    12.0110   ; qtot  0.510
    71          O      7      PRO      O     71    -0.510000    15.9994   ; qtot  0.000
    72        NH1      8      GLY      N     72    -0.470000    14.0070   ; qtot -0.470
    73          H      8      GLY     HN     73     0.310000     1.0080   ; qtot -0.160
    74        CT2      8      GLY     CA     74    -0.020000    12.0110   ; qtot -0.180
    75        HB2      8      GLY    HA1     75     0.090000     1.0080   ; qtot -0.090
    76        HB2      8      GLY    HA2     76     0.090000     1.0080   ; qtot  0.000
    77          C      8      GLY      C     77     0.510000    12.0110   ; qtot  0.510
    78          O      8      GLY      O     78    -0.510000    15.9994   ; qtot  0.000
    79        NH1      9      ASP      N     79    -0.470000    14.0070   ; qtot -0.470
    80          H      9      ASP     HN     80     0.310000     1.0080   ; qtot -0.160
    81        CT1      9      ASP     CA     81     0.070000    12.0110   ; qtot -0.090
    82        HB1      9      ASP     HA     82     0.090000     1.0080   ; qtot  0.000
    83       CT2A      9      ASP     CB     83    -0.280000    12.0110   ; qtot -0.280
    84        HA2      9      ASP    HB1     84     0.090000     1.0080   ; qtot -0.190
    85        HA2      9      ASP    HB2     85     0.090000     1.0080   ; qtot -0.100
    86         CC      9      ASP     CG     86     0.620000    12.0110   ; qtot  0.520
    87         OC      9      ASP    OD1     87    -0.760000    15.9994   ; qtot -0.240
    88         OC      9      ASP    OD2     88    -0.760000    15.9994   ; qtot -1.000
    89          C      9      ASP      C     89     0.510000    12.0110   ; qtot -0.490
    90          O      9      ASP      O     90    -0.510000    15.9994   ; qtot -1.000
    91          N     10      PRO      N     91    -0.290000    14.0070   ; qtot -1.290
    92        CP3     10      PRO     CD     92     0.000000    12.0110   ; qtot -1.290
    93        HA2     10      PRO    HD1     93     0.090000     1.0080   ; qtot -1.200
    94        HA2     10      PRO    HD2     94     0.090000     1.0080   ; qtot -1.110
    95        CP1     10      PRO     CA     95     0.020000    12.0110   ; qtot -1.090
    96        HB1     10      PRO     HA     96     0.090000     1.0080   ; qtot -1.000
    97        CP2     10      PRO     CB     97    -0.180000    12.0110   ; qtot -1.180
    98        HA2     10      PRO    HB1     98     0.090000     1.0080   ; qtot -1.090
    99        HA2     10      PRO    HB2     99     0.090000     1.0080   ; qtot -1.000
   100        CP2     10      PRO     CG    100    -0.180000    12.0110   ; qtot -1.180
   101        HA2     10      PRO    HG1    101     0.090000     1.0080   ; qtot -1.090
   102        HA2     10      PRO    HG2    102     0.090000     1.0080   ; qtot -1.000
   103          C     10      PRO      C    103     0.510000    12.0110   ; qtot -0.490
   104          O     10      PRO      O    104    -0.510000    15.9994   ; qtot -1.000
   105        NH1     11      GLY      N    105    -0.470000    14.0070   ; qtot -1.470
   106          H     11      GLY     HN    106     0.310000     1.0080   ; qtot -1.160
   107        CT2     11      GLY     CA    107    -0.020000    12.0110   ; qtot -1.180
   108        HB2     11      GLY    HA1    108     0.090000     1.0080   ; qtot -1.090
   109        HB2     11      GLY    HA2    109     0.090000     1.0080   ; qtot -1.000
   110          C     11      GLY      C    110     0.510000    12.0110   ; qtot -0.490
   111          O     11      GLY      O    111    -0.510000    15.9994   ; qtot -1.000
   112        NH1     12      SER      N    112    -0.470000    14.0070   ; qtot -1.470
   113          H     12      SER     HN    113     0.310000     1.0080   ; qtot -1.160
   114        CT1     12      SER     CA    114     0.070000    12.0110   ; qtot -1.090
   115        HB1     12      SER     HA    115     0.090000     1.0080   ; qtot -1.000
   116        CT2     12      SER     CB    116     0.050000    12.0110   ; qtot -0.950
   117        HA2     12      SER    HB1    117     0.090000     1.0080   ; qtot -0.860
   118        HA2     12      SER    HB2    118     0.090000     1.0080   ; qtot -0.770
   119        OH1     12      SER     OG    119    -0.660000    15.9994   ; qtot -1.430
   120          H     12      SER    HG1    120     0.430000     1.0080   ; qtot -1.000
   121          C     12      SER      C    121     0.510000    12.0110   ; qtot -0.490
   122          O     12      SER      O    122    -0.510000    15.9994   ; qtot -1.000
   123        NH1     13      GLY      N    123    -0.470000    14.0070   ; qtot -1.470
   124          H     13      GLY     HN    124     0.310000     1.0080   ; qtot -1.160
   125        CT2     13      GLY     CA    125    -0.020000    12.0110   ; qtot -1.180
   126        HB2     13      GLY    HA1    126     0.090000     1.0080   ; qtot -1.090
   127        HB2     13      GLY    HA2    127     0.090000     1.0080   ; qtot -1.000
   128          C     13      GLY      C    128     0.510000    12.0110   ; qtot -0.490
   129          O     13      GLY      O    129    -0.510000    15.9994   ; qtot -1.000
   130        NH1     14      ASP      N    130    -0.470000    14.0070   ; qtot -1.470
   131          H     14      ASP     HN    131     0.310000     1.0080   ; qtot -1.160
   132        CT1     14      ASP     CA    132     0.070000    12.0110   ; qtot -1.090
   133        HB1     14      ASP     HA    133     0.090000     1.0080   ; qtot -1.000
   134       CT2A     14      ASP     CB    134    -0.280000    12.0110   ; qtot -1.280
   135        HA2     14      ASP    HB1    135     0.090000     1.0080   ; qtot -1.190
   136        HA2     14      ASP    HB2    136     0.090000     1.0080   ; qtot -1.100
   137         CC     14      ASP     CG    137     0.620000    12.0110   ; qtot -0.480
   138         OC     14      ASP    OD1    138    -0.760000    15.9994   ; qtot -1.240
   139         OC     14      ASP    OD2    139    -0.760000    15.9994   ; qtot -2.000
   140          C     14      ASP      C    140     0.510000    12.0110   ; qtot -1.490
   141          O     14      ASP      O    141    -0.510000    15.9994   ; qtot -2.000
   142        NH1     15      SER      N    142    -0.470000    14.0070   ; qtot -2.470
   143          H     15      SER     HN    143     0.310000     1.0080   ; qtot -2.160
   144        CT1     15      SER     CA    144     0.070000    12.0110   ; qtot -2.090
   145        HB1     15      SER     HA    145     0.090000     1.0080   ; qtot -2.000
   146        CT2     15      SER     CB    146     0.050000    12.0110   ; qtot -1.950
   147        HA2     15      SER    HB1    147     0.090000     1.0080   ; qtot -1.860
   148        HA2     15      SER    HB2    148     0.090000     1.0080   ; qtot -1.770
   149        OH1     15      SER     OG    149    -0.660000    15.9994   ; qtot -2.430
   150          H     15      SER    HG1    150     0.430000     1.0080   ; qtot -2.000
   151         CC     15      SER      C    151     0.340000    12.0110   ; qtot -1.660
   152         OC     15      SER    OT1    152    -0.670000    15.9994   ; qtot -2.330
   153         OC     15      SER    OT2    153    -0.670000    15.9994   ; qtot -3.000

[ bonds ]
; ai	aj	funct	b0	Kb
    2     1     1
    3     1     1
    4     1     1
    1     5     1
    5     6     1
    5     7     1
    8     5     1
    9     8     1
    8    10     1
   10    11     1
   10    12     1
   12    13     1
   14    12     1
   20    12     1
   14    15     1
   14    16     1
   17    14     1
   17    18     1
   19    17     1
   21    20     1
   20    22     1
   22    23     1
   22    24     1
   24    25     1
   26    24     1
   31    24     1
   26    27     1
   26    28     1
   29    26     1
   29    30     1
   32    31     1
   31    33     1
   33    34     1
   33    35     1
   35    36     1
   35    37     1
   38    35     1
   39    38     1
   38    40     1
   40    41     1
   40    42     1
   42    43     1
   44    42     1
   49    42     1
   44    45     1
   44    46     1
   47    44     1
   47    48     1
   50    49     1
   49    51     1
   51    52     1
   51    53     1
   53    54     1
   53    55     1
   56    53     1
   57    56     1
   56    58     1
   58    59     1
   58    62     1
   60    59     1
   61    59     1
   67    59     1
   63    62     1
   62    64     1
   70    62     1
   65    64     1
   66    64     1
   64    67     1
   68    67     1
   69    67     1
   71    70     1
   70    72     1
   72    73     1
   72    74     1
   74    75     1
   74    76     1
   77    74     1
   78    77     1
   77    79     1
   79    80     1
   79    81     1
   81    82     1
   83    81     1
   89    81     1
   83    84     1
   83    85     1
   86    83     1
   86    87     1
   88    86     1
   90    89     1
   89    91     1
   91    92     1
   91    95     1
   93    92     1
   94    92     1
  100    92     1
   96    95     1
   95    97     1
  103    95     1
   98    97     1
   99    97     1
   97   100     1
  101   100     1
  102   100     1
  104   103     1
  103   105     1
  105   106     1
  105   107     1
  107   108     1
  107   109     1
  110   107     1
  111   110     1
  110   112     1
  112   113     1
  112   114     1
  114   115     1
  116   114     1
  121   114     1
  116   117     1
  116   118     1
  119   116     1
  119   120     1
  122   121     1
  121   123     1
  123   124     1
  123   125     1
  125   126     1
  125   127     1
  128   125     1
  129   128     1
  128   130     1
  130   131     1
  130   132     1
  132   133     1
  134   132     1
  140   132     1
  134   135     1
  134   136     1
  137   134     1
  137   138     1
  139   137     1
  141   140     1
  140   142     1
  142   143     1
  142   144     1
  144   145     1
  146   144     1
  151   144     1
  146   147     1
  146   148     1
  149   146     1
  149   150     1
  151   152     1
  151   153     1

[ pairs ]
; ai	aj	funct	c6	c12 or
; ai	aj	funct	fudgeQQ	q1	q2	c6	c12
    1     9     1
    1    10     1
    2     6     1
    2     7     1
    2     8     1
    3     6     1
    3     7     1
    3     8     1
    4     6     1
    4     7     1
    4     8     1
    5    11     1
    5    12     1
    6     9     1
    6    10     1
    7     9     1
    7    10     1
    8    13     1
    8    14     1
    8    20     1
    9    11     1
    9    12     1
   10    15     1
   10    16     1
   10    17     1
   10    21     1
   10    22     1
   11    13     1
   11    14     1
   11    20     1
   12    18     1
   12    19     1
   12    23     1
   12    24     1
   13    15     1
   13    16     1
   13    17     1
   13    21     1
   13    22     1
   14    21     1
   14    22     1
   15    18     1
   15    19     1
   15    20     1
   16    18     1
   16    19     1
   16    20     1
   17    20     1
   20    25     1
   20    26     1
   20    31     1
   21    23     1
   21    24     1
   22    27     1
   22    28     1
   22    29     1
   22    32     1
   22    33     1
   23    25     1
   23    26     1
   23    31     1
   24    30     1
   24    34     1
   24    35     1
   25    27     1
   25    28     1
   25    29     1
   25    32     1
   25    33     1
   26    32     1
   26    33     1
   27    30     1
   27    31     1
   28    30     1
   28    31     1
   29    31     1
   31    36     1
   31    37     1
   31    38     1
   32    34     1
   32    35     1
   33    39     1
   33    40     1
   34    36     1
   34    37     1
   34    38     1
   35    41     1
   35    42     1
   36    39     1
   36    40     1
   37    39     1
   37    40     1
   38    43     1
   38    44     1
   38    49     1
   39    41     1
   39    42     1
   40    45     1
   40    46     1
   40    47     1
   40    50     1
   40    51     1
   41    43     1
   41    44     1
   41    49     1
   42    48     1
   42    52     1
   42    53     1
   43    45     1
   43    46     1
   43    47     1
   43    50     1
   43    51     1
   44    50     1
   44    51     1
   45    48     1
   45    49     1
   46    48     1
   46    49     1
   47    49     1
   49    54     1
   49    55     1
   49    56     1
   50    52     1
   50    53     1
   51    57     1
   51    58     1
   52    54     1
   52    55     1
   52    56     1
   53    59     1
   53    62     1
   54    57     1
   54    58     1
   55    57     1
   55    58     1
   56    60     1
   56    61     1
   56    63     1
   56    64     1
   56    67     1
   56    70     1
   57    59     1
   57    62     1
   58    65     1
   58    66     1
   58    68     1
   58    69     1
   58    71     1
   58    72     1
   59    63     1
   59    65     1
   59    66     1
   59    70     1
   60    62     1
   60    64     1
   60    68     1
   60    69     1
   61    62     1
   61    64     1
   61    68     1
   61    69     1
   62    68     1
   62    69     1
   62    73     1
   62    74     1
   63    65     1
   63    66     1
   63    67     1
   63    71     1
   63    72     1
   64    71     1
   64    72     1
   65    68     1
   65    69     1
   65    70     1
   66    68     1
   66    69     1
   66    70     1
   67    70     1
   70    75     1
   70    76     1
   70    77     1
   71    73     1
   71    74     1
   72    78     1
   72    79     1
   73    75     1
   73    76     1
   73    77     1
   74    80     1
   74    81     1
   75    78     1
   75    79     1
   76    78     1
   76    79     1
   77    82     1
   77    83     1
   77    89     1
   78    80     1
   78    81     1
   79    84     1
   79    85     1
   79    86     1
   79    90     1
   79    91     1
   80    82     1
   80    83     1
   80    89     1
   81    87     1
   81    88     1
   81    92     1
   81    95     1
   82    84     1
   82    85     1
   82    86     1
   82    90     1
   82    91     1
   83    90     1
   83    91     1
   84    87     1
   84    88     1
   84    89     1
   85    87     1
   85    88     1
   85    89     1
   86    89     1
   89    93     1
   89    94     1
   89    96     1
   89    97     1
   89   100     1
   89   103     1
   90    92     1
   90    95     1
   91    98     1
   91    99     1
   91   101     1
   91   102     1
   91   104     1
   91   105     1
   92    96     1
   92    98     1
   92    99     1
   92   103     1
   93    95     1
   93    97     1
   93   101     1
   93   102     1
   94    95     1
   94    97     1
   94   101     1
   94   102     1
   95   101     1
   95   102     1
   95   106     1
   95   107     1
   96    98     1
   96    99     1
   96   100     1
   96   104     1
   96   105     1
   97   104     1
   97   105     1
   98   101     1
   98   102     1
   98   103     1
   99   101     1
   99   102     1
   99   103     1
  100   103     1
  103   108     1
  103   109     1
  103   110     1
  104   106     1
  104   107     1
  105   111     1
  105   112     1
  106   108     1
  106   109     1
  106   110     1
  107   113     1
  107   114     1
  108   111     1
  108   112     1
  109   111     1
  109   112     1
  110   115     1
  110   116     1
  110   121     1
  111   113     1
  111   114     1
  112   117     1
  112   118     1
  112   119     1
  112   122     1
  112   123     1
  113   115     1
  113   116     1
  113   121     1
  114   120     1
  114   124     1
  114   125     1
  115   117     1
  115   118     1
  115   119     1
  115   122     1
  115   123     1
  116   122     1
  116   123     1
  117   120     1
  117   121     1
  118   120     1
  118   121     1
  119   121     1
  121   126     1
  121   127     1
  121   128     1
  122   124     1
  122   125     1
  123   129     1
  123   130     1
  124   126     1
  124   127     1
  124   128     1
  125   131     1
  125   132     1
  126   129     1
  126   130     1
  127   129     1
  127   130     1
  128   133     1
  128   134     1
  128   140     1
  129   131     1
  129   132     1
  130   135     1
  130   136     1
  130   137     1
  130   141     1
  130   142     1
  131   133     1
  131   134     1
  131   140     1
  132   138     1
  132   139     1
  132   143     1
  132   144     1
  133   135     1
  133   136     1
  133   137     1
  133   141     1
  133   142     1
  134   141     1
  134   142     1
  135   138     1
  135   139     1
  135   140     1
  136   138     1
  136   139     1
  136   140     1
  137   140     1
  140   145     1
  140   146     1
  140   151     1
  141   143     1
  141   144     1
  142   147     1
  142   148     1
  142   149     1
  142   152     1
  142   153     1
  143   145     1
  143   146     1
  143   151     1
  144   150     1
  145   147     1
  145   148     1
  145   149     1
  145   152     1
  145   153     1
  146   152     1
  146   153     1
  147   150     1
  147   151     1
  148   150     1
  148   151     1
  149   151     1

[ angles ] 
; ai	aj	ak	funct	th0	cth	S0	Kub
    2     1     3     5
    2     1     4     5
    2     1     5     5
    3     1     4     5
    3     1     5     5
    4     1     5     5
    1     5     6     5
    1     5     7     5
    1     5     8     5
    6     5     7     5
    6     5     8     5
    7     5     8     5
    5     8     9     5
    5     8    10     5
    9     8    10     5
    8    10    11     5
    8    10    12     5
   11    10    12     5
   10    12    13     5
   10    12    14     5
   10    12    20     5
   13    12    14     5
   13    12    20     5
   14    12    20     5
   12    14    15     5
   12    14    16     5
   12    14    17     5
   15    14    16     5
   15    14    17     5
   16    14    17     5
   14    17    18     5
   14    17    19     5
   18    17    19     5
   12    20    21     5
   12    20    22     5
   21    20    22     5
   20    22    23     5
   20    22    24     5
   23    22    24     5
   22    24    25     5
   22    24    26     5
   22    24    31     5
   25    24    26     5
   25    24    31     5
   26    24    31     5
   24    26    27     5
   24    26    28     5
   24    26    29     5
   27    26    28     5
   27    26    29     5
   28    26    29     5
   26    29    30     5
   24    31    32     5
   24    31    33     5
   32    31    33     5
   31    33    34     5
   31    33    35     5
   34    33    35     5
   33    35    36     5
   33    35    37     5
   33    35    38     5
   36    35    37     5
   36    35    38     5
   37    35    38     5
   35    38    39     5
   35    38    40     5
   39    38    40     5
   38    40    41     5
   38    40    42     5
   41    40    42     5
   40    42    43     5
   40    42    44     5
   40    42    49     5
   43    42    44     5
   43    42    49     5
   44    42    49     5
   42    44    45     5
   42    44    46     5
   42    44    47     5
   45    44    46     5
   45    44    47     5
   46    44    47     5
   44    47    48     5
   42    49    50     5
   42    49    51     5
   50    49    51     5
   49    51    52     5
   49    51    53     5
   52    51    53     5
   51    53    54     5
   51    53    55     5
   51    53    56     5
   54    53    55     5
   54    53    56     5
   55    53    56     5
   53    56    57     5
   53    56    58     5
   57    56    58     5
   56    58    59     5
   56    58    62     5
   59    58    62     5
   58    59    60     5
   58    59    61     5
   58    59    67     5
   60    59    61     5
   60    59    67     5
   61    59    67     5
   58    62    63     5
   58    62    64     5
   58    62    70     5
   63    62    64     5
   63    62    70     5
   64    62    70     5
   62    64    65     5
   62    64    66     5
   62    64    67     5
   65    64    66     5
   65    64    67     5
   66    64    67     5
   59    67    64     5
   59    67    68     5
   59    67    69     5
   64    67    68     5
   64    67    69     5
   68    67    69     5
   62    70    71     5
   62    70    72     5
   71    70    72     5
   70    72    73     5
   70    72    74     5
   73    72    74     5
   72    74    75     5
   72    74    76     5
   72    74    77     5
   75    74    76     5
   75    74    77     5
   76    74    77     5
   74    77    78     5
   74    77    79     5
   78    77    79     5
   77    79    80     5
   77    79    81     5
   80    79    81     5
   79    81    82     5
   79    81    83     5
   79    81    89     5
   82    81    83     5
   82    81    89     5
   83    81    89     5
   81    83    84     5
   81    83    85     5
   81    83    86     5
   84    83    85     5
   84    83    86     5
   85    83    86     5
   83    86    87     5
   83    86    88     5
   87    86    88     5
   81    89    90     5
   81    89    91     5
   90    89    91     5
   89    91    92     5
   89    91    95     5
   92    91    95     5
   91    92    93     5
   91    92    94     5
   91    92   100     5
   93    92    94     5
   93    92   100     5
   94    92   100     5
   91    95    96     5
   91    95    97     5
   91    95   103     5
   96    95    97     5
   96    95   103     5
   97    95   103     5
   95    97    98     5
   95    97    99     5
   95    97   100     5
   98    97    99     5
   98    97   100     5
   99    97   100     5
   92   100    97     5
   92   100   101     5
   92   100   102     5
   97   100   101     5
   97   100   102     5
  101   100   102     5
   95   103   104     5
   95   103   105     5
  104   103   105     5
  103   105   106     5
  103   105   107     5
  106   105   107     5
  105   107   108     5
  105   107   109     5
  105   107   110     5
  108   107   109     5
  108   107   110     5
  109   107   110     5
  107   110   111     5
  107   110   112     5
  111   110   112     5
  110   112   113     5
  110   112   114     5
  113   112   114     5
  112   114   115     5
  112   114   116     5
  112   114   121     5
  115   114   116     5
  115   114   121     5
  116   114   121     5
  114   116   117     5
  114   116   118     5
  114   116   119     5
  117   116   118     5
  117   116   119     5
  118   116   119     5
  116   119   120     5
  114   121   122     5
  114   121   123     5
  122   121   123     5
  121   123   124     5
  121   123   125     5
  124   123   125     5
  123   125   126     5
  123   125   127     5
  123   125   128     5
  126   125   127     5
  126   125   128     5
  127   125   128     5
  125   128   129     5
  125   128   130     5
  129   128   130     5
  128   130   131     5
  128   130   132     5
  131   130   132     5
  130   132   133     5
  130   132   134     5
  130   132   140     5
  133   132   134     5
  133   132   140     5
  134   132   140     5
  132   134   135     5
  132   134   136     5
  132   134   137     5
  135   134   136     5
  135   134   137     5
  136   134   137     5
  134   137   138     5
  134   137   139     5
  138   137   139     5
  132   140   141     5
  132   140   142     5
  141   140   142     5
  140   142   143     5
  140   142   144     5
  143   142   144     5
  142   144   145     5
  142   144   146     5
  142   144   151     5
  145   144   146     5
  145   144   151     5
  146   144   151     5
  144   146   147     5
  144   146   148     5
  144   146   149     5
  147   146   148     5
  147   146   149     5
  148   146   149     5
  146   149   150     5
  144   151   152     5
  144   151   153     5
  152   151   153     5

[ dihedrals ]
; ai	aj	ak	al	funct	phi0	cp	mult
    2     1     5     6     9
    2     1     5     7     9
    2     1     5     8     9
    3     1     5     6     9
    3     1     5     7     9
    3     1     5     8     9
    4     1     5     6     9
    4     1     5     7     9
    4     1     5     8     9
    1     5     8     9     9
    1     5     8    10     9
    6     5     8     9     9
    6     5     8    10     9
    7     5     8     9     9
    7     5     8    10     9
    5     8    10    11     9
    5     8    10    12     9
    9     8    10    11     9
    9     8    10    12     9
    8    10    12    13     9
    8    10    12    14     9
    8    10    12    20     9
   11    10    12    13     9
   11    10    12    14     9
   11    10    12    20     9
   10    12    14    15     9
   10    12    14    16     9
   10    12    14    17     9
   13    12    14    15     9
   13    12    14    16     9
   13    12    14    17     9
   10    12    20    21     9
   10    12    20    22     9
   13    12    20    21     9
   13    12    20    22     9
   14    12    20    21     9
   14    12    20    22     9
   15    14    12    20     9
   16    14    12    20     9
   17    14    12    20     9
   12    14    17    18     9
   12    14    17    19     9
   15    14    17    18     9
   15    14    17    19     9
   16    14    17    18     9
   16    14    17    19     9
   12    20    22    23     9
   12    20    22    24     9
   21    20    22    23     9
   21    20    22    24     9
   20    22    24    25     9
   20    22    24    26     9
   20    22    24    31     9
   23    22    24    25     9
   23    22    24    26     9
   23    22    24    31     9
   22    24    26    27     9
   22    24    26    28     9
   22    24    26    29     9
   25    24    26    27     9
   25    24    26    28     9
   25    24    26    29     9
   22    24    31    32     9
   22    24    31    33     9
   25    24    31    32     9
   25    24    31    33     9
   26    24    31    32     9
   26    24    31    33     9
   27    26    24    31     9
   28    26    24    31     9
   29    26    24    31     9
   24    26    29    30     9
   27    26    29    30     9
   28    26    29    30     9
   24    31    33    34     9
   24    31    33    35     9
   32    31    33    34     9
   32    31    33    35     9
   31    33    35    36     9
   31    33    35    37     9
   31    33    35    38     9
   34    33    35    36     9
   34    33    35    37     9
   34    33    35    38     9
   33    35    38    39     9
   33    35    38    40     9
   36    35    38    39     9
   36    35    38    40     9
   37    35    38    39     9
   37    35    38    40     9
   35    38    40    41     9
   35    38    40    42     9
   39    38    40    41     9
   39    38    40    42     9
   38    40    42    43     9
   38    40    42    44     9
   38    40    42    49     9
   41    40    42    43     9
   41    40    42    44     9
   41    40    42    49     9
   40    42    44    45     9
   40    42    44    46     9
   40    42    44    47     9
   43    42    44    45     9
   43    42    44    46     9
   43    42    44    47     9
   40    42    49    50     9
   40    42    49    51     9
   43    42    49    50     9
   43    42    49    51     9
   44    42    49    50     9
   44    42    49    51     9
   45    44    42    49     9
   46    44    42    49     9
   47    44    42    49     9
   42    44    47    48     9
   45    44    47    48     9
   46    44    47    48     9
   42    49    51    52     9
   42    49    51    53     9
   50    49    51    52     9
   50    49    51    53     9
   49    51    53    54     9
   49    51    53    55     9
   49    51    53    56     9
   52    51    53    54     9
   52    51    53    55     9
   52    51    53    56     9
   51    53    56    57     9
   51    53    56    58     9
   54    53    56    57     9
   54    53    56    58     9
   55    53    56    57     9
   55    53    56    58     9
   53    56    58    59     9
   53    56    58    62     9
   57    56    58    59     9
   57    56    58    62     9
   56    58    59    60     9
   56    58    59    61     9
   56    58    59    67     9
   62    58    59    67     9
   56    58    62    63     9
   56    58    62    64     9
   56    58    62    70     9
   59    58    62    63     9
   59    58    62    64     9
   59    58    62    70     9
   60    59    58    62     9
   61    59    58    62     9
   58    59    67    64     9
   58    59    67    68     9
   58    59    67    69     9
   60    59    67    64     9
   60    59    67    68     9
   60    59    67    69     9
   61    59    67    64     9
   61    59    67    68     9
   61    59    67    69     9
   58    62    64    65     9
   58    62    64    66     9
   58    62    64    67     9
   63    62    64    65     9
   63    62    64    66     9
   63    62    64    67     9
   58    62    70    71     9
   58    62    70    72     9
   63    62    70    71     9
   63    62    70    72     9
   64    62    70    71     9
   64    62    70    72     9
   65    64    62    70     9
   66    64    62    70     9
   67    64    62    70     9
   62    64    67    68     9
   62    64    67    69     9
   65    64    67    68     9
   65    64    67    69     9
   66    64    67    68     9
   66    64    67    69     9
   59    67    64    62     9
   59    67    64    65     9
   59    67    64    66     9
   62    70    72    73     9
   62    70    72    74     9
   71    70    72    73     9
   71    70    72    74     9
   70    72    74    75     9
   70    72    74    76     9
   70    72    74    77     9
   73    72    74    75     9
   73    72    74    76     9
   73    72    74    77     9
   72    74    77    78     9
   72    74    77    79     9
   75    74    77    78     9
   75    74    77    79     9
   76    74    77    78     9
   76    74    77    79     9
   74    77    79    80     9
   74    77    79    81     9
   78    77    79    80     9
   78    77    79    81     9
   77    79    81    82     9
   77    79    81    83     9
   77    79    81    89     9
   80    79    81    82     9
   80    79    81    83     9
   80    79    81    89     9
   79    81    83    84     9
   79    81    83    85     9
   79    81    83    86     9
   82    81    83    84     9
   82    81    83    85     9
   82    81    83    86     9
   79    81    89    90     9
   79    81    89    91     9
   82    81    89    90     9
   82    81    89    91     9
   83    81    89    90     9
   83    81    89    91     9
   84    83    81    89     9
   85    83    81    89     9
   86    83    81    89     9
   81    83    86    87     9
   81    83    86    88     9
   84    83    86    87     9
   84    83    86    88     9
   85    83    86    87     9
   85    83    86    88     9
   81    89    91    92     9
   81    89    91    95     9
   90    89    91    92     9
   90    89    91    95     9
   89    91    92    93     9
   89    91    92    94     9
   89    91    92   100     9
   95    91    92   100     9
   89    91    95    96     9
   89    91    95    97     9
   89    91    95   103     9
   92    91    95    96     9
   92    91    95    97     9
   92    91    95   103     9
   93    92    91    95     9
   94    92    91    95     9
   91    92   100    97     9
   91    92   100   101     9
   91    92   100   102     9
   93    92   100    97     9
   93    92   100   101     9
   93    92   100   102     9
   94    92   100    97     9
   94    92   100   101     9
   94    92   100   102     9
   91    95    97    98     9
   91    95    97    99     9
   91    95    97   100     9
   96    95    97    98     9
   96    95    97    99     9
   96    95    97   100     9
   91    95   103   104     9
   91    95   103   105     9
   96    95   103   104     9
   96    95   103   105     9
   97    95   103   104     9
   97    95   103   105     9
   98    97    95   103     9
   99    97    95   103     9
  100    97    95   103     9
   95    97   100   101     9
   95    97   100   102     9
   98    97   100   101     9
   98    97   100   102     9
   99    97   100   101     9
   99    97   100   102     9
   92   100    97    95     9
   92   100    97    98     9
   92   100    97    99     9
   95   103   105   106     9
   95   103   105   107     9
  104   103   105   106     9
  104   103   105   107     9
  103   105   107   108     9
  103   105   107   109     9
  103   105   107   110     9
  106   105   107   108     9
  106   105   107   109     9
  106   105   107   110     9
  105   107   110   111     9
  105   107   110   112     9
  108   107   110   111     9
  108   107   110   112     9
  109   107   110   111     9
  109   107   110   112     9
  107   110   112   113     9
  107   110   112   114     9
  111   110   112   113     9
  111   110   112   114     9
  110   112   114   115     9
  110   112   114   116     9
  110   112   114   121     9
  113   112   114   115     9
  113   112   114   116     9
  113   112   114   121     9
  112   114   116   117     9
  112   114   116   118     9
  112   114   116   119     9
  115   114   116   117     9
  115   114   116   118     9
  115   114   116   119     9
  112   114   121   122     9
  112   114   121   123     9
  115   114   121   122     9
  115   114   121   123     9
  116   114   121   122     9
  116   114   121   123     9
  117   116   114   121     9
  118   116   114   121     9
  119   116   114   121     9
  114   116   119   120     9
  117   116   119   120     9
  118   116   119   120     9
  114   121   123   124     9
  114   121   123   125     9
  122   121   123   124     9
  122   121   123   125     9
  121   123   125   126     9
  121   123   125   127     9
  121   123   125   128     9
  124   123   125   126     9
  124   123   125   127     9
  124   123   125   128     9
  123   125   128   129     9
  123   125   128   130     9
  126   125   128   129     9
  126   125   128   130     9
  127   125   128   129     9
  127   125   128   130     9
  125   128   130   131     9
  125   128   130   132     9
  129   128   130   131     9
  129   128   130   132     9
  128   130   132   133     9
  128   130   132   134     9
  128   130   132   140     9
  131   130   132   133     9
  131   130   132   134     9
  131   130   132   140     9
  130   132   134   135     9
  130   132   134   136     9
  130   132   134   137     9
  133   132   134   135     9
  133   132   134   136     9
  133   132   134   137     9
  130   132   140   141     9
  130   132   140   142     9
  133   132   140   141     9
  133   132   140   142     9
  134   132   140   141     9
  134   132   140   142     9
  135   134   132   140     9
  136   134   132   140     9
  137   134   132   140     9
  132   134   137   138     9
  132   134   137   139     9
  135   134   137   138     9
  135   134   137   139     9
  136   134   137   138     9
  136   134   137   139     9
  132   140   142   143     9
  132   140   142   144     9
  141   140   142   143     9
  141   140   142   144     9
  140   142   144   145     9
  140   142   144   146     9
  140   142   144   151     9
  143   142   144   145     9
  143   142   144   146     9
  143   142   144   151     9
  142   144   146   147     9
  142   144   146   148     9
  142   144   146   149     9
  145   144   146   147     9
  145   144   146   148     9
  145   144   146   149     9
  142   144   151   152     9
  142   144   151   153     9
  145   144   151   152     9
  145   144   151   153     9
  146   144   151   152     9
  146   144   151   153     9
  147   146   144   151     9
  148   146   144   151     9
  149   146   144   151     9
  144   146   149   150     9
  147   146   149   150     9
  148   146   149   150     9

[ dihedrals ]
; ai	aj	ak	al	funct	q0	cq
    8     5    10     9     2
   10     8    12    11     2
   17    14    19    18     2
   20    12    22    21     2
   22    20    24    23     2
   31    24    33    32     2
   33    31    35    34     2
   38    35    40    39     2
   40    38    42    41     2
   49    42    51    50     2
   51    49    53    52     2
   56    53    58    57     2
   58    56    62    59     2
   70    62    72    71     2
   72    70    74    73     2
   77    74    79    78     2
   79    77    81    80     2
   86    83    88    87     2
   89    81    91    90     2
   91    89    95    92     2
  103    95   105   104     2
  105   103   107   106     2
  110   107   112   111     2
  112   110   114   113     2
  121   114   123   122     2
  123   121   125   124     2
  128   125   130   129     2
  130   128   132   131     2
  137   134   139   138     2
  140   132   142   141     2
  142   140   144   143     2
  151   144   153   152     2

[ cmap ] 
; ai	aj	ak	al	am	funct
    8    10    12    20    22     1
   20    22    24    31    33     1
   31    33    35    38    40     1
   38    40    42    49    51     1
   49    51    53    56    58     1
   56    58    62    70    72     1
   70    72    74    77    79     1
   77    79    81    89    91     1
   89    91    95   103   105     1
  103   105   107   110   112     1
  110   112   114   121   123     1
  121   123   125   128   130     1
  128   130   132   140   142     1

#ifdef POSRES
[ position_restraints ]
    1     1    POSRES_FC_BB    POSRES_FC_BB    POSRES_FC_BB   
    5     1    POSRES_FC_BB    POSRES_FC_BB    POSRES_FC_BB   
    8     1    POSRES_FC_BB    POSRES_FC_BB    POSRES_FC_BB   
    9     1    POSRES_FC_BB    POSRES_FC_BB    POSRES_FC_BB   
   10     1    POSRES_FC_BB    POSRES_FC_BB    POSRES_FC_BB   
   12     1    POSRES_FC_BB    POSRES_FC_BB    POSRES_FC_BB   
   14     1    POSRES_FC_SC    POSRES_FC_SC    POSRES_FC_SC   
   17     1    POSRES_FC_SC    POSRES_FC_SC    POSRES_FC_SC   
   18     1    POSRES_FC_SC    POSRES_FC_SC    POSRES_FC_SC   
   19     1    POSRES_FC_SC    POSRES_FC_SC    POSRES_FC_SC   
   20     1    POSRES_FC_BB    POSRES_FC_BB    POSRES_FC_BB   
   21     1    POSRES_FC_BB    POSRES_FC_BB    POSRES_FC_BB   
   22     1    POSRES_FC_BB    POSRES_FC_BB    POSRES_FC_BB   
   24     1    POSRES_FC_BB    POSRES_FC_BB    POSRES_FC_BB   
   26     1    POSRES_FC_SC    POSRES_FC_SC    POSRES_FC_SC   
   29     1    POSRES_FC_SC    POSRES_FC_SC    POSRES_FC_SC   
   31     1    POSRES_FC_BB    POSRES_FC_BB    POSRES_FC_BB   
   32     1    POSRES_FC_BB    POSRES_FC_BB    POSRES_FC_BB   
   33     1    POSRES_FC_BB    POSRES_FC_BB    POSRES_FC_BB   
   35     1    POSRES_FC_BB    POSRES_FC_BB    POSRES_FC_BB   
   38     1    POSRES_FC_BB    POSRES_FC_BB    POSRES_FC_BB   
   39     1    POSRES_FC_BB    POSRES_FC_BB    POSRES_FC_BB   
   40     1    POSRES_FC_BB    POSRES_FC_BB    POSRES_FC_BB   
   42     1    POSRES_FC_BB    POSRES_FC_BB    POSRES_FC_BB   
   44     1    POSRES_FC_SC    POSRES_FC_SC    POSRES_FC_SC   
   47     1    POSRES_FC_SC    POSRES_FC_SC    POSRES_FC_SC   
   49     1    POSRES_FC_BB    POSRES_FC_BB    POSRES_FC_BB   
   50     1    POSRES_FC_BB    POSRES_FC_BB    POSRES_FC_BB   
   51     1    POSRES_FC_BB    POSRES_FC_BB    POSRES_FC_BB   
   53     1    POSRES_FC_BB    POSRES_FC_BB    POSRES_FC_BB   
   56     1    POSRES_FC_BB    POSRES_FC_BB    POSRES_FC_BB   
   57     1    POSRES_FC_BB    POSRES_FC_BB    POSRES_FC_BB   
   58     1    POSRES_FC_BB    POSRES_FC_BB    POSRES_FC_BB   
   59     1    POSRES_FC_SC    POSRES_FC_SC    POSRES_FC_SC   
   62     1    POSRES_FC_BB    POSRES_FC_BB    POSRES_FC_BB   
   64     1    POSRES_FC_SC    POSRES_FC_SC    POSRES_FC_SC   
   67     1    POSRES_FC_SC    POSRES_FC_SC    POSRES_FC_SC   
   70     1    POSRES_FC_BB    POSRES_FC_BB    POSRES_FC_BB   
   71     1    POSRES_FC_BB    POSRES_FC_BB    POSRES_FC_BB   
   72     1    POSRES_FC_BB    POSRES_FC_BB    POSRES_FC_BB   
   74     1    POSRES_FC_BB    POSRES_FC_BB    POSRES_FC_BB   
   77     1    POSRES_FC_BB    POSRES_FC_BB    POSRES_FC_BB   
   78     1    POSRES_FC_BB    POSRES_FC_BB    POSRES_FC_BB   
   79     1    POSRES_FC_BB    POSRES_FC_BB    POSRES_FC_BB   
   81     1    POSRES_FC_BB    POSRES_FC_BB    POSRES_FC_BB   
   83     1    POSRES_FC_SC    POSRES_FC_SC    POSRES_FC_SC   
   86     1    POSRES_FC_SC    POSRES_FC_SC    POSRES_FC_SC   
   87     1    POSRES_FC_SC    POSRES_FC_SC    POSRES_FC_SC   
   88     1    POSRES_FC_SC    POSRES_FC_SC    POSRES_FC_SC   
   89     1    POSRES_FC_BB    POSRES_FC_BB    POSRES_FC_BB   
   90     1    POSRES_FC_BB    POSRES_FC_BB    POSRES_FC_BB   
   91     1    POSRES_FC_BB    POSRES_FC_BB    POSRES_FC_BB   
   92     1    POSRES_FC_SC    POSRES_FC_SC    POSRES_FC_SC   
   95     1    POSRES_FC_BB    POSRES_FC_BB    POSRES_FC_BB   
   97     1    POSRES_FC_SC    POSRES_FC_SC    POSRES_FC_SC   
  100     1    POSRES_FC_SC    POSRES_FC_SC    POSRES_FC_SC   
  103     1    POSRES_FC_BB    POSRES_FC_BB    POSRES_FC_BB   
  104     1    POSRES_FC_BB    POSRES_FC_BB    POSRES_FC_BB   
  105     1    POSRES_FC_BB    POSRES_FC_BB    POSRES_FC_BB   
  107     1    POSRES_FC_BB    POSRES_FC_BB    POSRES_FC_BB   
  110     1    POSRES_FC_BB    POSRES_FC_BB    POSRES_FC_BB   
  111     1    POSRES_FC_BB    POSRES_FC_BB    POSRES_FC_BB   
  112     1    POSRES_FC_BB    POSRES_FC_BB    POSRES_FC_BB   
  114     1    POSRES_FC_BB    POSRES_FC_BB    POSRES_FC_BB   
  116     1    POSRES_FC_SC    POSRES_FC_SC    POSRES_FC_SC   
  119     1    POSRES_FC_SC    POSRES_FC_SC    POSRES_FC_SC   
  121     1    POSRES_FC_BB    POSRES_FC_BB    POSRES_FC_BB   
  122     1    POSRES_FC_BB    POSRES_FC_BB    POSRES_FC_BB   
  123     1    POSRES_FC_BB    POSRES_FC_BB    POSRES_FC_BB   
  125     1    POSRES_FC_BB    POSRES_FC_BB    POSRES_FC_BB   
  128     1    POSRES_FC_BB    POSRES_FC_BB    POSRES_FC_BB   
  129     1    POSRES_FC_BB    POSRES_FC_BB    POSRES_FC_BB   
  130     1    POSRES_FC_BB    POSRES_FC_BB    POSRES_FC_BB   
  132     1    POSRES_FC_BB    POSRES_FC_BB    POSRES_FC_BB   
  134     1    POSRES_FC_SC    POSRES_FC_SC    POSRES_FC_SC   
  137     1    POSRES_FC_SC    POSRES_FC_SC    POSRES_FC_SC   
  138     1    POSRES_FC_SC    POSRES_FC_SC    POSRES_FC_SC   
  139     1    POSRES_FC_SC    POSRES_FC_SC    POSRES_FC_SC   
  140     1    POSRES_FC_BB    POSRES_FC_BB    POSRES_FC_BB   
  141     1    POSRES_FC_BB    POSRES_FC_BB    POSRES_FC_BB   
  142     1    POSRES_FC_BB    POSRES_FC_BB    POSRES_FC_BB   
  144     1    POSRES_FC_BB    POSRES_FC_BB    POSRES_FC_BB   
  146     1    POSRES_FC_SC    POSRES_FC_SC    POSRES_FC_SC   
  149     1    POSRES_FC_SC    POSRES_FC_SC    POSRES_FC_SC   
  151     1    POSRES_FC_BB    POSRES_FC_BB    POSRES_FC_BB   
  152     1    POSRES_FC_SC    POSRES_FC_SC    POSRES_FC_SC   
  153     1    POSRES_FC_SC    POSRES_FC_SC    POSRES_FC_SC   
#endif
